Protein in INSANE! Membrane UpperLeaflet>POPC=1.0 LowerLeaflet>POPC=1.0
238905
    1AU     AUC    1  25.322  20.086   7.501
    1AU     AUC    2  25.584  20.087   7.340
    1AU     AUC    3  25.577  20.079   7.651
    1AU     AUC    4  25.071  20.086   7.335
    1AU     AUC    5  25.061  20.105   7.651
    1AU     AUC    6  25.172  20.343   7.497
    1AU     AUC    7  25.484  20.340   7.486
    1AU     AUC    8  25.168  19.830   7.514
    1AU     AUC    9  25.462  19.831   7.523
    1AU     AUC   10  25.314  19.939   7.764
    1AU     AUC   11  25.336  20.252   7.755
    1AU     AUC   12  25.322  19.921   7.246
    1AU     AUC   13  25.314  20.224   7.239
    1AU     AUC   14  25.832  20.078   7.178
    1AU     AUC   15  25.840  20.088   7.488
    1AU     AUC   16  25.836  20.080   7.796
    1AU     AUC   17  24.814  20.075   7.180
    1AU     AUC   18  24.804  20.101   7.488
    1AU     AUC   19  24.813  20.121   7.810
    1AU     AUC   20  25.028  20.607   7.501
    1AU     AUC   21  25.339  20.608   7.494
    1AU     AUC   22  25.633  20.602   7.488
    1AU     AUC   23  24.989  19.575   7.523
    1AU     AUC   24  25.305  19.564   7.513
    1AU     AUC   25  25.619  19.567   7.531
    1AU     AUC   26  25.299  19.789   8.019
    1AU     AUC   27  25.323  20.100   8.028
    1AU     AUC   28  25.343  20.407   8.015
    1AU     AUC   29  25.324  19.745   7.007
    1AU     AUC   30  25.330  20.063   6.978
    1AU     AUC   31  25.312  20.371   6.975
    1AU     AUC   32  25.589  19.941   7.926
    1AU     AUC   33  25.594  20.234   7.916
    1AU     AUC   34  25.593  19.912   7.085
    1AU     AUC   35  25.593  20.220   7.071
    1AU     AUC   36  25.051  19.958   7.927
    1AU     AUC   37  25.073  20.268   7.926
    1AU     AUC   38  25.074  19.921   7.070
    1AU     AUC   39  25.062  20.227   7.075
    1AU     AUC   40  25.737  20.349   7.317
    1AU     AUC   41  25.753  20.332   7.635
    1AU     AUC   42  24.904  20.343   7.346
    1AU     AUC   43  24.915  20.366   7.666
    1AU     AUC   44  25.734  19.819   7.353
    1AU     AUC   45  25.737  19.825   7.671
    1AU     AUC   46  24.900  19.831   7.339
    1AU     AUC   47  24.902  19.846   7.682
    1AU     AUC   48  25.176  20.508   7.767
    1AU     AUC   49  25.495  20.513   7.738
    1AU     AUC   50  25.144  19.668   7.761
    1AU     AUC   51  25.463  19.679   7.791
    1AU     AUC   52  25.162  20.496   7.235
    1AU     AUC   53  25.479  20.486   7.219
    1AU     AUC   54  25.150  19.670   7.248
    1AU     AUC   55  25.478  19.657   7.272
    1AU    AUSL   56  25.675  20.036   8.089
    1AU    AUSL   57  25.625  19.620   8.143
    1AU     AUL   58  25.862  19.699   8.406
    1AU       S   59  25.917  19.326   8.098
    1AU     LIG   60  25.813  19.142   8.472
    1AU     LIG   61  25.880  18.709   8.633
    1AU     LIG   62  26.088  18.333   8.843
    1AU     LIG   63  26.383  18.012   9.056
    1AU     LIG   64  26.553  17.816   9.449
    1AU     LIG   65  26.540  17.728   9.922
    1AU       S   66  25.728  20.068   8.657
    1AU     LIG   67  25.953  19.754   8.916
    1AU     LIG   68  26.201  19.583   9.293
    1AU     LIG   69  26.573  19.587   9.612
    1AU     LIG   70  26.955  19.619   9.921
    1AU     LIG   71  27.241  19.643  10.308
    1AU     LIG   72  27.459  19.762  10.695
    1AU    AUSL   73  25.396  19.896   8.356
    1AU    AUSL   74  25.256  20.281   8.276
    1AU     AUL   75  25.316  20.262   8.698
    1AU       S   76  25.468  19.894   8.502
    1AU     LIG   77  25.522  19.515   8.741
    1AU     LIG   78  25.730  19.345   9.171
    1AU     LIG   79  25.816  19.171   9.644
    1AU     LIG   80  25.856  19.044  10.132
    1AU     LIG   81  26.002  19.147  10.591
    1AU     LIG   82  26.212  19.030  11.012
    1AU       S   83  24.977  19.976   8.627
    1AU     LIG   84  24.847  19.923   9.090
    1AU     LIG   85  24.688  19.819   9.519
    1AU     LIG   86  24.521  19.865   9.953
    1AU     LIG   87  24.491  20.190  10.311
    1AU     LIG   88  24.410  20.479  10.690
    1AU     LIG   89  24.269  20.660  11.115
    1AU    AUSL   90  25.642  20.389   8.286
    1AU    AUSL   91  25.978  20.287   7.967
    1AU     AUL   92  25.969  20.122   8.280
    1AU       S   93  25.672  20.430   8.459
    1AU     LIG   94  25.775  20.535   8.891
    1AU     LIG   95  25.808  20.710   9.349
    1AU     LIG   96  25.808  20.898   9.805
    1AU     LIG   97  25.903  20.984  10.270
    1AU     LIG   98  26.123  20.947  10.684
    1AU     LIG   99  26.253  20.937  11.136
    1AU       S  100  26.266  20.348   8.007
    1AU     LIG  101  26.454  20.306   8.419
    1AU     LIG  102  26.707  20.598   8.687
    1AU     LIG  103  27.041  20.832   8.932
    1AU     LIG  104  27.329  20.978   9.308
    1AU     LIG  105  27.753  21.004   9.575
    1AU     LIG  106  28.188  21.126   9.768
    1AU    AUSL  107  25.860  20.113   6.862
    1AU    AUSL  108  25.620  20.503   6.822
    1AU     AUL  109  25.976  20.455   6.441
    1AU       S  110  25.894  20.138   6.714
    1AU     LIG  111  26.196  20.036   6.326
    1AU     LIG  112  26.228  19.854   5.906
    1AU     LIG  113  26.349  19.674   5.479
    1AU     LIG  114  26.702  19.544   5.149
    1AU     LIG  115  27.085  19.490   4.838
    1AU     LIG  116  27.442  19.553   4.514
    1AU       S  117  25.623  20.563   6.666
    1AU     LIG  118  25.902  20.921   6.573
    1AU     LIG  119  26.245  20.970   6.264
    1AU     LIG  120  26.494  21.104   5.858
    1AU     LIG  121  26.531  21.322   5.423
    1AU     LIG  122  26.720  21.515   5.033
    1AU     LIG  123  26.976  21.849   4.824
    1AU    AUSL  124  25.597  19.794   6.718
    1AU    AUSL  125  25.932  19.740   7.009
    1AU     AUL  126  26.020  19.730   6.666
    1AU       S  127  26.012  19.309   6.865
    1AU     LIG  128  26.168  19.034   6.527
    1AU     LIG  129  26.404  18.642   6.361
    1AU     LIG  130  26.638  18.366   6.036
    1AU     LIG  131  26.970  18.292   5.690
    1AU     LIG  132  27.360  18.371   5.395
    1AU     LIG  133  27.787  18.440   5.184
    1AU       S  134  25.701  20.020   6.439
    1AU     LIG  135  25.796  19.676   6.196
    1AU     LIG  136  25.893  19.490   5.766
    1AU     LIG  137  25.926  19.415   5.296
    1AU     LIG  138  25.908  19.143   4.891
    1AU     LIG  139  26.068  19.014   4.460
    1AU     LIG  140  26.222  19.124   4.035
    1AU    AUSL  141  25.452  20.144   6.891
    1AU    AUSL  142  25.197  19.898   6.679
    1AU     AUL  143  25.391  19.698   6.555
    1AU       S  144  24.942  20.015   6.349
    1AU     LIG  145  25.037  19.618   6.139
    1AU     LIG  146  24.870  19.386   5.740
    1AU     LIG  147  24.649  19.239   5.323
    1AU     LIG  148  24.453  19.060   4.901
    1AU     LIG  149  24.333  18.984   4.421
    1AU     LIG  150  24.337  19.077   3.948
    1AU       S  151  25.587  20.130   6.491
    1AU     LIG  152  25.793  20.164   5.993
    1AU     LIG  153  25.864  19.965   5.557
    1AU     LIG  154  26.033  19.901   5.124
    1AU     LIG  155  26.025  20.080   4.688
    1AU     LIG  156  26.022  20.379   4.315
    1AU     LIG  157  26.211  20.627   3.958
    1AU    AUSL  158  24.874  20.158   8.214
    1AU    AUSL  159  25.007  20.567   8.130
    1AU     AUL  160  25.058  20.503   8.426
    1AU       S  161  24.821  20.159   8.639
    1AU     LIG  162  24.483  19.860   8.708
    1AU     LIG  163  24.361  19.686   9.130
    1AU     LIG  164  24.186  19.665   9.587
    1AU     LIG  165  23.828  19.687   9.928
    1AU     LIG  166  23.506  19.859  10.255
    1AU     LIG  167  23.220  19.948  10.631
    1AU       S  168  24.599  20.524   8.354
    1AU     LIG  169  24.647  20.642   8.779
    1AU     LIG  170  24.569  21.015   9.066
    1AU     LIG  171  24.334  21.334   9.344
    1AU     LIG  172  24.225  21.504   9.799
    1AU     LIG  173  24.107  21.718  10.234
    1AU     LIG  174  23.966  22.046  10.570
    1AU    AUSL  175  25.174  19.957   8.025
    1AU    AUSL  176  24.671  19.880   7.996
    1AU     AUL  177  24.677  19.984   8.240
    1AU       S  178  24.511  19.533   8.192
    1AU     LIG  179  24.107  19.418   8.037
    1AU     LIG  180  23.801  19.110   8.218
    1AU     LIG  181  23.568  18.825   8.533
    1AU     LIG  182  23.340  18.476   8.772
    1AU     LIG  183  23.162  18.272   9.163
    1AU     LIG  184  22.884  18.318   9.547
    1AU       S  185  24.989  19.862   8.585
    1AU     LIG  186  24.831  19.494   8.812
    1AU     LIG  187  24.738  19.367   9.274
    1AU     LIG  188  24.578  19.345   9.737
    1AU     LIG  189  24.464  19.130  10.156
    1AU     LIG  190  24.484  19.049  10.622
    1AU     LIG  191  24.308  19.173  11.041
    1AU    AUSL  192  24.897  20.053   6.903
    1AU    AUSL  193  25.074  19.617   6.940
    1AU     AUL  194  24.928  19.674   6.656
    1AU       S  195  24.634  19.973   6.501
    1AU     LIG  196  24.541  19.718   6.149
    1AU     LIG  197  24.466  19.699   5.691
    1AU     LIG  198  24.253  19.572   5.294
    1AU     LIG  199  23.913  19.468   4.985
    1AU     LIG  200  23.604  19.584   4.651
    1AU     LIG  201  23.258  19.653   4.353
    1AU       S  202  24.644  19.319   6.809
    1AU     LIG  203  24.426  18.922   6.777
    1AU     LIG  204  24.139  18.647   6.516
    1AU     LIG  205  23.873  18.389   6.210
    1AU     LIG  206  23.651  18.197   5.833
    1AU     LIG  207  23.642  18.179   5.352
    1AU     LIG  208  23.662  17.931   4.939
    1AU    AUSL  209  25.164  20.331   6.676
    1AU    AUSL  210  24.670  20.383   6.973
    1AU     AUL  211  24.805  20.343   6.676
    1AU       S  212  24.510  20.679   6.788
    1AU     LIG  213  24.314  20.648   6.396
    1AU     LIG  214  24.173  20.933   6.053
    1AU     LIG  215  23.995  21.180   5.687
    1AU     LIG  216  23.639  21.298   5.385
    1AU     LIG  217  23.241  21.472   5.165
    1AU     LIG  218  22.848  21.569   4.905
    1AU       S  219  25.117  20.095   6.450
    1AU     LIG  220  25.288  20.039   6.004
    1AU     LIG  221  24.964  19.894   5.659
    1AU     LIG  222  24.684  19.892   5.250
    1AU     LIG  223  24.572  20.123   4.822
    1AU     LIG  224  24.498  20.427   4.440
    1AU     LIG  225  24.342  20.626   4.032
    1AU    AUSL  226  25.937  20.693   7.421
    1AU    AUSL  227  25.960  20.447   7.076
    1AU     AUL  228  26.091  20.904   7.228
    1AU       S  229  26.101  20.557   6.874
    1AU     LIG  230  26.453  20.546   6.548
    1AU     LIG  231  26.693  20.723   6.165
    1AU     LIG  232  27.027  20.904   5.866
    1AU     LIG  233  27.442  20.927   5.602
    1AU     LIG  234  27.854  21.131   5.442
    1AU     LIG  235  28.024  21.514   5.224
    1AU       S  236  26.398  20.565   7.337
    1AU     LIG  237  26.883  20.614   7.500
    1AU     LIG  238  27.385  20.693   7.532
    1AU     LIG  239  27.870  20.788   7.526
    1AU     LIG  240  28.278  21.046   7.601
    1AU     LIG  241  28.484  21.463   7.773
    1AU     LIG  242  28.904  21.665   7.893
    1AU    AUSL  243  26.155  20.132   7.236
    1AU    AUSL  244  26.153  19.972   7.653
    1AU     AUL  245  26.437  19.901   7.425
    1AU       S  246  26.364  20.337   7.283
    1AU     LIG  247  26.794  20.202   7.216
    1AU     LIG  248  27.259  20.278   7.255
    1AU     LIG  249  27.735  20.363   7.261
    1AU     LIG  250  28.178  20.463   7.100
    1AU     LIG  251  28.642  20.524   6.998
    1AU     LIG  252  29.101  20.672   7.039
    1AU       S  253  26.449  19.494   7.680
    1AU     LIG  254  26.792  19.244   7.776
    1AU     LIG  255  27.219  19.054   7.764
    1AU     LIG  256  27.655  18.871   7.751
    1AU     LIG  257  28.116  18.741   7.745
    1AU     LIG  258  28.560  18.899   7.821
    1AU     LIG  259  29.032  18.909   7.887
    1AU    AUSL  260  25.950  20.308   7.560
    1AU    AUSL  261  25.851  20.653   7.820
    1AU     AUL  262  26.099  20.653   7.688
    1AU       S  263  26.113  20.547   8.121
    1AU     LIG  264  26.522  20.786   8.217
    1AU     LIG  265  26.739  21.095   8.522
    1AU     LIG  266  26.838  21.511   8.751
    1AU     LIG  267  27.104  21.909   8.816
    1AU     LIG  268  27.360  22.298   8.732
    1AU     LIG  269  27.606  22.586   9.002
    1AU       S  270  26.418  20.366   7.547
    1AU     LIG  271  26.741  20.177   7.755
    1AU     LIG  272  27.221  20.259   7.771
    1AU     LIG  273  27.713  20.348   7.780
    1AU     LIG  274  28.170  20.516   7.853
    1AU     LIG  275  28.656  20.495   7.851
    1AU     LIG  276  29.105  20.678   7.850
    1AU    AUSL  277  24.663  20.631   7.579
    1AU    AUSL  278  24.714  20.377   7.914
    1AU     AUL  279  24.673  20.836   7.824
    1AU       S  280  24.508  20.457   8.097
    1AU     LIG  281  24.146  20.693   8.382
    1AU     LIG  282  24.130  20.869   8.831
    1AU     LIG  283  23.933  21.002   9.260
    1AU     LIG  284  23.581  21.010   9.615
    1AU     LIG  285  23.161  21.090   9.856
    1AU     LIG  286  22.811  21.409   9.941
    1AU       S  287  24.282  20.646   7.684
    1AU     LIG  288  24.219  21.050   7.445
    1AU     LIG  289  23.867  21.411   7.432
    1AU     LIG  290  23.467  21.721   7.482
    1AU     LIG  291  23.080  21.983   7.654
    1AU     LIG  292  22.677  22.181   7.855
    1AU     LIG  293  22.200  22.136   7.905
    1AU    AUSL  294  24.741  20.299   7.357
    1AU    AUSL  295  24.832  20.714   7.213
    1AU     AUL  296  24.544  20.639   7.257
    1AU       S  297  24.166  20.555   7.528
    1AU     LIG  298  24.061  20.666   7.088
    1AU     LIG  299  23.658  20.755   6.821
    1AU     LIG  300  23.181  20.815   6.691
    1AU     LIG  301  22.723  20.911   6.540
    1AU     LIG  302  22.240  20.882   6.509
    1AU     LIG  303  21.771  20.873   6.566
    1AU       S  304  24.654  20.898   6.868
    1AU     LIG  305  24.519  21.116   6.457
    1AU     LIG  306  24.364  21.411   6.105
    1AU     LIG  307  24.179  21.740   5.816
    1AU     LIG  308  23.866  22.117   5.811
    1AU     LIG  309  23.424  22.324   5.890
    1AU     LIG  310  23.161  22.712   5.954
    1AU    AUSL  311  24.465  20.214   7.652
    1AU    AUSL  312  24.503  19.976   7.299
    1AU     AUL  313  24.340  20.236   7.254
    1AU       S  314  24.169  19.786   7.414
    1AU     LIG  315  23.888  19.826   7.805
    1AU     LIG  316  23.429  19.720   7.815
    1AU     LIG  317  22.985  19.540   7.763
    1AU     LIG  318  22.567  19.403   7.559
    1AU     LIG  319  22.143  19.223   7.448
    1AU     LIG  320  21.679  19.165   7.425
    1AU       S  321  24.282  20.234   7.731
    1AU     LIG  322  23.976  20.376   8.009
    1AU     LIG  323  23.593  20.610   8.190
    1AU     LIG  324  23.106  20.699   8.235
    1AU     LIG  325  22.624  20.773   8.286
    1AU     LIG  326  22.228  20.898   8.516
    1AU     LIG  327  21.753  20.934   8.513
    1AU    AUSL  328  26.006  19.581   7.575
    1AU    AUSL  329  25.963  19.788   7.957
    1AU     AUL  330  26.271  19.847   7.910
    1AU       S  331  26.143  19.329   7.557
    1AU     LIG  332  26.347  18.978   7.722
    1AU     LIG  333  26.766  18.746   7.659
    1AU     LIG  334  27.211  18.591   7.545
    1AU     LIG  335  27.669  18.439   7.476
    1AU     LIG  336  28.033  18.121   7.432
    1AU     LIG  337  28.322  17.872   7.143
    1AU       S  338  25.994  19.480   8.033
    1AU     LIG  339  26.376  19.195   8.191
    1AU     LIG  340  26.386  18.818   8.499
    1AU     LIG  341  26.581  18.452   8.767
    1AU     LIG  342  26.872  18.269   9.112
    1AU     LIG  343  27.280  18.290   9.389
    1AU     LIG  344  27.671  18.201   9.662
    1AU    AUSL  345  25.856  19.904   7.370
    1AU    AUSL  346  25.780  19.443   7.264
    1AU     AUL  347  26.128  19.649   7.190
    1AU       S  348  26.194  19.490   7.601
    1AU     LIG  349  26.532  19.223   7.282
    1AU     LIG  350  26.987  19.049   7.300
    1AU     LIG  351  27.463  18.950   7.279
    1AU     LIG  352  27.936  18.846   7.278
    1AU     LIG  353  28.425  18.848   7.322
    1AU     LIG  354  28.867  19.001   7.254
    1AU       S  355  26.024  19.203   7.070
    1AU     LIG  356  26.042  18.745   6.928
    1AU     LIG  357  26.172  18.329   6.707
    1AU     LIG  358  26.479  18.092   6.446
    1AU     LIG  359  26.688  17.824   6.109
    1AU     LIG  360  26.901  17.396   5.987
    1AU     LIG  361  27.267  17.111   5.822
    1AU    AUSL  362  24.612  19.595   7.467
    1AU    AUSL  363  24.703  19.731   7.054
    1AU     AUL  364  24.422  19.815   7.015
    1AU       S  365  24.628  19.407   7.023
    1AU     LIG  366  24.149  19.391   6.949
    1AU     LIG  367  23.898  19.069   6.725
    1AU     LIG  368  23.642  18.807   6.420
    1AU     LIG  369  23.390  18.569   6.090
    1AU     LIG  370  23.081  18.581   5.722
    1AU     LIG  371  22.783  18.699   5.370
    1AU       S  372  24.325  19.571   7.405
    1AU     LIG  373  23.953  19.337   7.543
    1AU     LIG  374  23.466  19.289   7.526
    1AU     LIG  375  23.002  19.137   7.440
    1AU     LIG  376  22.564  18.890   7.483
    1AU     LIG  377  22.140  18.684   7.615
    1AU     LIG  378  21.955  18.228   7.710
    1AU    AUSL  379  24.769  19.952   7.618
    1AU    AUSL  380  24.857  19.564   7.801
    1AU     AUL  381  24.476  19.759   7.797
    1AU       S  382  24.606  19.346   7.940
    1AU     LIG  383  24.357  19.047   7.769
    1AU     LIG  384  24.061  18.744   7.970
    1AU     LIG  385  23.762  18.459   8.224
    1AU     LIG  386  23.552  18.100   8.468
    1AU     LIG  387  23.289  17.789   8.703
    1AU     LIG  388  23.206  17.321   8.694
    1AU       S  389  24.210  19.839   7.442
    1AU     LIG  390  23.696  19.736   7.333
    1AU     LIG  391  23.221  19.707   7.326
    1AU     LIG  392  22.785  19.856   7.413
    1AU     LIG  393  22.466  19.859   7.759
    1AU     LIG  394  22.116  19.553   7.847
    1AU     LIG  395  21.637  19.453   7.857
    1AU    AUSL  396  25.353  20.754   8.022
    1AU    AUSL  397  25.034  20.553   7.727
    1AU     AUL  398  25.054  20.862   8.097
    1AU       S  399  24.658  20.683   8.253
    1AU     LIG  400  24.514  21.048   8.498
    1AU     LIG  401  24.306  21.361   8.791
    1AU     LIG  402  24.182  21.786   8.949
    1AU     LIG  403  23.960  22.215   8.959
    1AU     LIG  404  23.620  22.457   9.164
    1AU     LIG  405  23.339  22.827   9.170
    1AU       S  406  25.421  21.150   7.974
    1AU     LIG  407  25.588  21.215   8.358
    1AU     LIG  408  25.705  21.636   8.542
    1AU     LIG  409  25.656  22.033   8.809
    1AU     LIG  410  25.575  22.294   9.214
    1AU     LIG  411  25.488  22.623   9.567
    1AU     LIG  412  25.526  23.037   9.806
    1AU    AUSL  413  25.114  20.937   7.658
    1AU    AUSL  414  25.552  20.920   7.267
    1AU     AUL  415  25.243  21.179   7.434
    1AU       S  416  25.271  21.237   7.889
    1AU     LIG  417  25.389  21.648   8.124
    1AU     LIG  418  25.487  22.085   8.311
    1AU     LIG  419  25.339  22.556   8.400
    1AU     LIG  420  25.147  23.024   8.425
    1AU     LIG  421  24.911  23.470   8.420
    1AU     LIG  422  24.982  23.951   8.546
    1AU       S  423  25.591  21.252   7.128
    1AU     LIG  424  25.947  21.343   6.881
    1AU     LIG  425  26.085  21.797   6.773
    1AU     LIG  426  26.345  22.218   6.770
    1AU     LIG  427  26.434  22.685   6.667
    1AU     LIG  428  26.514  23.161   6.576
    1AU     LIG  429  26.581  23.591   6.383
    1AU    AUSL  430  25.511  20.783   7.646
    1AU    AUSL  431  25.535  20.413   7.904
    1AU     AUL  432  25.681  20.783   8.055
    1AU       S  433  26.066  20.576   8.224
    1AU     LIG  434  26.195  20.722   8.626
    1AU     LIG  435  26.450  20.980   8.931
    1AU     LIG  436  26.785  21.190   9.180
    1AU     LIG  437  26.988  21.282   9.588
    1AU     LIG  438  26.984  21.613   9.923
    1AU     LIG  439  26.901  22.046  10.088
    1AU       S  440  25.606  21.098   7.721
    1AU     LIG  441  25.839  21.452   7.972
    1AU     LIG  442  25.977  21.891   8.173
    1AU     LIG  443  26.281  22.285   8.275
    1AU     LIG  444  26.409  22.762   8.354
    1AU     LIG  445  26.324  23.201   8.473
    1AU     LIG  446  26.367  23.653   8.589
    1AU    AUSL  447  25.289  19.524   7.936
    1AU    AUSL  448  25.642  19.651   7.736
    1AU     AUL  449  25.482  19.410   8.195
    1AU       S  450  25.324  18.982   8.026
    1AU     LIG  451  25.333  18.617   8.237
    1AU     LIG  452  25.056  18.270   8.141
    1AU     LIG  453  24.910  17.839   8.224
    1AU     LIG  454  24.944  17.480   8.542
    1AU     LIG  455  24.956  17.218   8.954
    1AU     LIG  456  24.950  16.884   9.307
    1AU       S  457  25.921  19.277   7.965
    1AU     LIG  458  26.000  18.821   8.111
    1AU     LIG  459  26.153  18.399   8.317
    1AU     LIG  460  26.370  18.027   8.532
    1AU     LIG  461  26.669  17.713   8.720
    1AU     LIG  462  26.977  17.358   8.861
    1AU     LIG  463  27.385  17.106   8.929
    1AU    AUSL  464  25.116  19.281   7.664
    1AU    AUSL  465  24.995  19.644   8.191
    1AU     AUL  466  25.043  19.336   8.061
    1AU       S  467  25.065  18.961   7.808
    1AU     LIG  468  24.813  18.629   7.676
    1AU     LIG  469  24.744  18.165   7.736
    1AU     LIG  470  24.488  17.798   7.907
    1AU     LIG  471  24.256  17.384   7.977
    1AU     LIG  472  24.251  16.929   8.133
    1AU     LIG  473  24.231  16.470   8.269
    1AU       S  474  24.679  19.493   8.280
    1AU     LIG  475  24.385  19.066   8.305
    1AU     LIG  476  24.085  18.762   8.499
    1AU     LIG  477  23.853  18.426   8.743
    1AU     LIG  478  23.621  18.084   8.989
    1AU     LIG  479  23.503  17.957   9.426
    1AU     LIG  480  23.322  17.884   9.864
    1AU    AUSL  481  25.550  19.261   7.709
    1AU    AUSL  482  25.061  19.274   7.259
    1AU     AUL  483  25.374  19.013   7.474
    1AU       S  484  24.961  18.952   7.179
    1AU     LIG  485  24.619  18.624   7.180
    1AU     LIG  486  24.588  18.141   7.239
    1AU     LIG  487  24.506  17.705   7.031
    1AU     LIG  488  24.402  17.240   6.890
    1AU     LIG  489  24.408  16.739   6.903
    1AU     LIG  490  24.465  16.429   6.563
    1AU       S  491  25.450  19.044   7.913
    1AU     LIG  492  25.357  18.567   7.727
    1AU     LIG  493  25.271  18.098   7.705
    1AU     LIG  494  25.351  17.707   7.976
    1AU     LIG  495  25.502  17.256   8.045
    1AU     LIG  496  25.432  16.778   8.138
    1AU     LIG  497  25.528  16.321   8.265
    1AU    AUSL  498  25.312  20.734   6.955
    1AU    AUSL  499  25.611  20.519   7.254
    1AU     AUL  500  25.694  20.826   7.011
    1AU       S  501  25.351  21.032   6.778
    1AU     LIG  502  25.581  21.302   6.509
    1AU     LIG  503  25.752  21.706   6.379
    1AU     LIG  504  25.648  22.122   6.174
    1AU     LIG  505  25.528  22.377   5.787
    1AU     LIG  506  25.431  22.702   5.455
    1AU     LIG  507  25.393  22.973   5.059
    1AU       S  508  26.052  20.536   6.956
    1AU     LIG  509  26.350  20.966   6.810
    1AU     LIG  510  26.670  21.124   6.509
    1AU     LIG  511  26.924  21.477   6.332
    1AU     LIG  512  27.292  21.729   6.203
    1AU     LIG  513  27.486  22.091   5.982
    1AU     LIG  514  27.376  22.548   5.978
    1AU    AUSL  515  25.213  20.697   7.350
    1AU    AUSL  516  25.075  20.425   7.056
    1AU     AUL  517  25.047  20.908   7.120
    1AU       S  518  25.400  21.196   7.002
    1AU     LIG  519  25.533  21.665   6.862
    1AU     LIG  520  25.628  22.093   6.702
    1AU     LIG  521  25.421  22.501   6.577
    1AU     LIG  522  25.158  22.902   6.662
    1AU     LIG  523  24.930  23.306   6.542
    1AU     LIG  524  25.027  23.736   6.316
    1AU       S  525  24.884  20.783   6.714
    1AU     LIG  526  24.812  20.727   6.284
    1AU     LIG  527  24.663  21.020   5.929
    1AU     LIG  528  24.479  21.334   5.601
    1AU     LIG  529  24.363  21.568   5.192
    1AU     LIG  530  24.149  21.884   4.900
    1AU     LIG  531  23.778  22.089   4.680
    1AU    AUSL  532  25.393  19.374   6.990
    1AU    AUSL  533  24.990  19.657   7.343
    1AU     AUL  534  25.085  19.345   6.940
    1AU       S  535  24.605  19.282   7.123
    1AU     LIG  536  24.280  19.012   7.259
    1AU     LIG  537  24.026  18.667   7.026
    1AU     LIG  538  23.731  18.391   6.718
    1AU     LIG  539  23.499  18.076   6.392
    1AU     LIG  540  23.227  17.681   6.237
    1AU     LIG  541  22.893  17.324   6.160
    1AU       S  542  25.222  18.926   7.035
    1AU     LIG  543  24.927  18.687   6.768
    1AU     LIG  544  24.793  18.253   6.788
    1AU     LIG  545  24.888  17.803   6.680
    1AU     LIG  546  24.831  17.503   6.301
    1AU     LIG  547  24.742  17.343   5.847
    1AU     LIG  548  24.777  17.065   5.461
    1AU    AUSL  549  25.396  19.464   7.398
    1AU    AUSL  550  25.521  19.736   7.102
    1AU     AUL  551  25.572  19.242   7.146
    1AU       S  552  24.968  19.043   7.293
    1AU     LIG  553  25.101  18.496   7.279
    1AU     LIG  554  25.121  18.027   7.138
    1AU     LIG  555  25.381  17.635   6.949
    1AU     LIG  556  25.612  17.232   6.752
    1AU     LIG  557  25.859  16.792   6.679
    1AU     LIG  558  25.855  16.284   6.631
    1AU       S  559  25.790  19.347   6.759
    1AU     LIG  560  25.650  18.955   6.672
    1AU     LIG  561  25.873  18.616   6.404
    1AU     LIG  562  26.113  18.280   6.136
    1AU     LIG  563  26.330  18.036   5.773
    1AU     LIG  564  26.494  17.861   5.355
    1AU     LIG  565  26.791  17.952   4.982
    2AU     AUC  566  33.815  16.694   7.501
    2AU     AUC  567  34.076  16.694   7.339
    2AU     AUC  568  34.070  16.689   7.650
    2AU     AUC  569  33.564  16.694   7.339
    2AU     AUC  570  33.555  16.715   7.653
    2AU     AUC  571  33.664  16.952   7.495
    2AU     AUC  572  33.976  16.949   7.481
    2AU     AUC  573  33.661  16.439   7.517
    2AU     AUC  574  33.955  16.440   7.525
    2AU     AUC  575  33.810  16.550   7.765
    2AU     AUC  576  33.831  16.863   7.752
    2AU     AUC  577  33.814  16.527   7.247
    2AU     AUC  578  33.804  16.829   7.237
    2AU     AUC  579  34.324  16.685   7.177
    2AU     AUC  580  34.333  16.698   7.486
    2AU     AUC  581  34.330  16.694   7.793
    2AU     AUC  582  33.304  16.679   7.187
    2AU     AUC  583  33.297  16.709   7.494
    2AU     AUC  584  33.309  16.733   7.815
    2AU     AUC  585  33.520  17.217   7.495
    2AU     AUC  586  33.829  17.217   7.486
    2AU     AUC  587  34.122  17.210   7.479
    2AU     AUC  588  33.482  16.185   7.529
    2AU     AUC  589  33.797  16.173   7.517
    2AU     AUC  590  34.113  16.176   7.534
    2AU     AUC  591  33.797  16.402   8.022
    2AU     AUC  592  33.820  16.714   8.027
    2AU     AUC  593  33.839  17.021   8.011
    2AU     AUC  594  33.815  16.350   7.014
    2AU     AUC  595  33.824  16.665   6.979
    2AU     AUC  596  33.801  16.972   6.971
    2AU     AUC  597  34.084  16.555   7.926
    2AU     AUC  598  34.088  16.847   7.913
    2AU     AUC  599  34.086  16.517   7.087
    2AU     AUC  600  34.084  16.824   7.069
    2AU     AUC  601  33.548  16.571   7.930
    2AU     AUC  602  33.569  16.881   7.926
    2AU     AUC  603  33.567  16.523   7.075
    2AU     AUC  604  33.553  16.830   7.076
    2AU     AUC  605  34.228  16.957   7.313
    2AU     AUC  606  34.246  16.943   7.630
    2AU     AUC  607  33.394  16.948   7.347
    2AU     AUC  608  33.409  16.977   7.666
    2AU     AUC  609  34.227  16.426   7.354
    2AU     AUC  610  34.231  16.437   7.671
    2AU     AUC  611  33.391  16.438   7.346
    2AU     AUC  612  33.397  16.456   7.687
    2AU     AUC  613  33.670  17.120   7.763
    2AU     AUC  614  33.989  17.125   7.731
    2AU     AUC  615  33.639  16.278   7.765
    2AU     AUC  616  33.958  16.290   7.793
    2AU     AUC  617  33.651  17.100   7.230
    2AU     AUC  618  33.968  17.091   7.213
    2AU     AUC  619  33.641  16.275   7.251
    2AU     AUC  620  33.970  16.264   7.275
    2AU    AUSL  621  34.169  16.652   8.092
    2AU    AUSL  622  34.121  16.235   8.144
    2AU     AUL  623  34.361  16.318   8.403
    2AU       S  624  34.420  15.943   8.104
    2AU     LIG  625  34.255  15.619   8.366
    2AU     LIG  626  34.361  15.253   8.630
    2AU     LIG  627  34.626  15.024   8.952
    2AU     LIG  628  34.860  14.771   9.286
    2AU     LIG  629  34.786  14.519   9.710
    2AU     LIG  630  34.848  14.282  10.137
    2AU       S  631  34.224  16.686   8.652
    2AU     LIG  632  34.466  16.423   8.923
    2AU     LIG  633  34.653  16.340   9.359
    2AU     LIG  634  34.869  16.269   9.784
    2AU     LIG  635  35.244  16.243  10.086
    2AU     LIG  636  35.664  16.197  10.317
    2AU     LIG  637  35.963  16.253  10.668
    2AU    AUSL  638  33.891  16.507   8.358
    2AU    AUSL  639  33.756  16.894   8.278
    2AU     AUL  640  33.814  16.877   8.698
    2AU       S  641  33.966  16.508   8.505
    2AU     LIG  642  34.036  16.154   8.763
    2AU     LIG  643  34.256  16.025   9.193
    2AU     LIG  644  34.424  15.980   9.662
    2AU     LIG  645  34.448  15.837  10.129
    2AU     LIG  646  34.422  15.810  10.615
    2AU     LIG  647  34.669  15.776  11.018
    2AU       S  648  33.474  16.591   8.631
    2AU     LIG  649  33.330  16.505   9.089
    2AU     LIG  650  33.170  16.366   9.517
    2AU     LIG  651  32.991  16.360   9.956
    2AU     LIG  652  32.957  16.640  10.347
    2AU     LIG  653  32.855  16.962  10.693
    2AU     LIG  654  32.731  17.144  11.117
    2AU    AUSL  655  34.139  17.012   8.278
    2AU    AUSL  656  34.470  16.901   7.959
    2AU     AUL  657  34.464  16.742   8.276
    2AU       S  658  34.170  17.049   8.461
    2AU     LIG  659  34.323  17.124   8.891
    2AU     LIG  660  34.525  17.283   9.301
    2AU     LIG  661  34.492  17.359   9.787
    2AU     LIG  662  34.613  17.521  10.222
    2AU     LIG  663  34.719  17.567  10.687
    2AU     LIG  664  34.936  17.472  11.106
    2AU       S  665  34.752  16.965   7.994
    2AU     LIG  666  34.943  16.892   8.402
    2AU     LIG  667  35.202  17.158   8.687
    2AU     LIG  668  35.490  17.455   8.921
    2AU     LIG  669  35.750  17.690   9.241
    2AU     LIG  670  36.141  17.711   9.529
    2AU     LIG  671  36.491  17.819   9.841
    2AU    AUSL  672  34.355  16.717   6.865
    2AU    AUSL  673  34.112  17.102   6.816
    2AU     AUL  674  34.471  17.057   6.441
    2AU       S  675  34.392  16.739   6.715
    2AU     LIG  676  34.674  16.632   6.317
    2AU     LIG  677  34.707  16.457   5.893
    2AU     LIG  678  34.826  16.299   5.454
    2AU     LIG  679  35.159  16.143   5.117
    2AU     LIG  680  35.533  16.106   4.795
    2AU     LIG  681  35.865  16.043   4.460
    2AU       S  682  34.112  17.155   6.660
    2AU     LIG  683  34.398  17.530   6.580
    2AU     LIG  684  34.743  17.574   6.283
    2AU     LIG  685  35.024  17.777   5.952
    2AU     LIG  686  35.243  17.871   5.526
    2AU     LIG  687  35.287  18.118   5.102
    2AU     LIG  688  35.403  18.537   4.911
    2AU    AUSL  689  34.097  16.395   6.721
    2AU    AUSL  690  34.426  16.344   7.013
    2AU     AUL  691  34.518  16.331   6.672
    2AU       S  692  34.505  15.914   6.874
    2AU     LIG  693  34.719  15.630   6.583
    2AU     LIG  694  34.972  15.308   6.346
    2AU     LIG  695  35.223  15.026   6.060
    2AU     LIG  696  35.581  14.832   5.822
    2AU     LIG  697  35.956  14.952   5.540
    2AU     LIG  698  36.307  14.793   5.255
    2AU       S  699  34.186  16.602   6.447
    2AU     LIG  700  34.289  16.253   6.205
    2AU     LIG  701  34.382  16.081   5.761
    2AU     LIG  702  34.430  16.009   5.284
    2AU     LIG  703  34.463  15.786   4.847
    2AU     LIG  704  34.542  15.720   4.377
    2AU     LIG  705  34.685  15.675   3.928
    2AU    AUSL  706  33.945  16.744   6.888
    2AU    AUSL  707  33.698  16.490   6.676
    2AU     AUL  708  33.894  16.264   6.581
    2AU       S  709  33.648  16.582   6.349
    2AU     LIG  710  33.585  16.209   6.116
    2AU     LIG  711  33.315  16.007   5.761
    2AU     LIG  712  33.089  15.924   5.333
    2AU     LIG  713  32.837  15.826   4.926
    2AU     LIG  714  32.691  15.646   4.489
    2AU     LIG  715  32.752  15.584   4.000
    2AU       S  716  34.096  16.711   6.494
    2AU     LIG  717  34.251  16.732   5.989
    2AU     LIG  718  34.338  16.551   5.543
    2AU     LIG  719  34.481  16.501   5.091
    2AU     LIG  720  34.511  16.639   4.631
    2AU     LIG  721  34.510  16.861   4.198
    2AU     LIG  722  34.614  17.117   3.807
    2AU    AUSL  723  33.373  16.773   8.215
    2AU    AUSL  724  33.511  17.180   8.128
    2AU     AUL  725  33.557  17.116   8.425
    2AU       S  726  33.320  16.774   8.645
    2AU     LIG  727  32.980  16.459   8.699
    2AU     LIG  728  32.845  16.271   9.112
    2AU     LIG  729  32.668  16.219   9.564
    2AU     LIG  730  32.478  16.197  10.009
    2AU     LIG  731  32.111  16.258  10.330
    2AU     LIG  732  31.765  16.403  10.640
    2AU       S  733  33.097  17.137   8.358
    2AU     LIG  734  33.159  17.260   8.773
    2AU     LIG  735  33.092  17.642   9.027
    2AU     LIG  736  32.874  17.988   9.258
    2AU     LIG  737  32.666  18.202   9.622
    2AU     LIG  738  32.472  18.391  10.012
    2AU     LIG  739  32.299  18.766  10.242
    2AU    AUSL  740  33.672  16.570   8.026
    2AU    AUSL  741  33.167  16.492   8.004
    2AU     AUL  742  33.176  16.600   8.245
    2AU       S  743  33.001  16.150   8.206
    2AU     LIG  744  32.587  16.016   8.035
    2AU     LIG  745  32.225  15.753   8.230
    2AU     LIG  746  31.992  15.475   8.558
    2AU     LIG  747  31.753  15.165   8.843
    2AU     LIG  748  31.369  14.978   9.054
    2AU     LIG  749  31.034  15.138   9.351
    2AU       S  750  33.487  16.480   8.590
    2AU     LIG  751  33.333  16.093   8.786
    2AU     LIG  752  33.215  15.934   9.234
    2AU     LIG  753  33.034  15.878   9.687
    2AU     LIG  754  32.819  15.720  10.093
    2AU     LIG  755  32.797  15.598  10.564
    2AU     LIG  756  32.741  15.612  11.043
    2AU    AUSL  757  33.413  16.649   6.916
    2AU    AUSL  758  33.554  16.221   6.940
    2AU     AUL  759  33.370  16.337   6.643
    2AU       S  760  33.434  16.668   6.306
    2AU     LIG  761  33.118  16.412   6.061
    2AU     LIG  762  32.886  16.282   5.657
    2AU     LIG  763  32.593  16.078   5.331
    2AU     LIG  764  32.375  16.117   4.921
    2AU     LIG  765  32.044  16.235   4.594
    2AU     LIG  766  31.898  16.401   4.161
    2AU       S  767  33.118  15.946   6.804
    2AU     LIG  768  32.885  15.555   6.781
    2AU     LIG  769  32.589  15.263   6.554
    2AU     LIG  770  32.296  15.006   6.280
    2AU     LIG  771  32.156  14.946   5.826
    2AU     LIG  772  32.043  14.757   5.407
    2AU     LIG  773  32.006  14.551   4.975
    2AU    AUSL  774  33.650  16.924   6.675
    2AU    AUSL  775  33.154  16.959   6.978
    2AU     AUL  776  33.238  16.806   6.690
    2AU       S  777  33.034  17.217   6.773
    2AU     LIG  778  32.685  17.369   6.498
    2AU     LIG  779  32.604  17.477   6.026
    2AU     LIG  780  32.462  17.660   5.599
    2AU     LIG  781  32.162  17.749   5.243
    2AU     LIG  782  31.724  17.844   5.085
    2AU     LIG  783  31.432  18.173   4.919
    2AU       S  784  33.651  16.845   6.447
    2AU     LIG  785  33.722  16.721   5.903
    2AU     LIG  786  33.395  16.498   5.622
    2AU     LIG  787  33.124  16.452   5.220
    2AU     LIG  788  32.994  16.673   4.798
    2AU     LIG  789  32.839  16.945   4.418
    2AU     LIG  790  32.668  17.170   4.026
    2AU    AUSL  791  34.422  17.308   7.413
    2AU    AUSL  792  34.452  17.055   7.075
    2AU     AUL  793  34.580  17.518   7.211
    2AU       S  794  34.588  17.163   6.876
    2AU     LIG  795  34.945  17.078   6.597
    2AU     LIG  796  35.189  17.310   6.246
    2AU     LIG  797  35.488  17.570   5.965
    2AU     LIG  798  35.732  17.638   5.557
    2AU     LIG  799  36.129  17.673   5.294
    2AU     LIG  800  36.394  17.911   4.990
    2AU       S  801  34.874  17.173   7.338
    2AU     LIG  802  35.321  17.252   7.549
    2AU     LIG  803  35.808  17.282   7.549
    2AU     LIG  804  36.285  17.352   7.507
    2AU     LIG  805  36.605  17.722   7.523
    2AU     LIG  806  36.853  18.142   7.571
    2AU     LIG  807  37.248  18.400   7.622
    2AU    AUSL  808  34.647  16.737   7.229
    2AU    AUSL  809  34.647  16.587   7.650
    2AU     AUL  810  34.932  16.519   7.424
    2AU       S  811  34.883  16.944   7.244
    2AU     LIG  812  35.346  16.818   7.287
    2AU     LIG  813  35.844  16.845   7.278
    2AU     LIG  814  36.338  16.866   7.256
    2AU     LIG  815  36.805  16.919   7.183
    2AU     LIG  816  37.204  17.013   6.960
    2AU     LIG  817  37.604  17.232   6.837
    2AU       S  818  34.951  16.111   7.673
    2AU     LIG  819  35.331  15.867   7.699
    2AU     LIG  820  35.731  15.616   7.722
    2AU     LIG  821  36.153  15.394   7.739
    2AU     LIG  822  36.585  15.431   7.948
    2AU     LIG  823  37.040  15.485   8.105
    2AU     LIG  824  37.370  15.721   7.881
    2AU    AUSL  825  34.447  16.923   7.552
    2AU    AUSL  826  34.338  17.265   7.813
    2AU     AUL  827  34.581  17.280   7.686
    2AU       S  828  34.620  17.159   8.114
    2AU     LIG  829  35.036  17.371   8.219
    2AU     LIG  830  35.196  17.673   8.562
    2AU     LIG  831  35.473  18.008   8.800
    2AU     LIG  832  35.630  18.495   8.835
    2AU     LIG  833  35.772  18.987   8.882
    2AU     LIG  834  36.084  19.351   9.028
    2AU       S  835  34.890  16.989   7.532
    2AU     LIG  836  35.182  16.795   7.783
    2AU     LIG  837  35.650  16.837   7.761
    2AU     LIG  838  36.138  16.897   7.727
    2AU     LIG  839  36.640  16.876   7.699
    2AU     LIG  840  37.066  16.862   7.972
    2AU     LIG  841  37.470  17.017   8.179
    2AU    AUSL  842  33.158  17.246   7.581
    2AU    AUSL  843  33.212  16.993   7.917
    2AU     AUL  844  33.170  17.452   7.824
    2AU       S  845  33.014  17.075   8.097
    2AU     LIG  846  32.649  17.323   8.331
    2AU     LIG  847  32.651  17.500   8.785
    2AU     LIG  848  32.480  17.659   9.209
    2AU     LIG  849  32.165  17.799   9.556
    2AU     LIG  850  31.816  18.009   9.819
    2AU     LIG  851  31.405  18.132  10.033
    2AU       S  852  32.778  17.260   7.687
    2AU     LIG  853  32.601  17.682   7.520
    2AU     LIG  854  32.393  18.115   7.584
    2AU     LIG  855  31.962  18.311   7.492
    2AU     LIG  856  31.498  18.505   7.582
    2AU     LIG  857  31.077  18.608   7.826
    2AU     LIG  858  30.621  18.777   7.959
    2AU    AUSL  859  33.231  16.908   7.366
    2AU    AUSL  860  33.314  17.315   7.206
    2AU     AUL  861  33.030  17.239   7.248
    2AU       S  862  32.666  17.177   7.536
    2AU     LIG  863  32.513  17.338   7.124
    2AU     LIG  864  32.066  17.403   6.928
    2AU     LIG  865  31.640  17.547   6.720
    2AU     LIG  866  31.155  17.635   6.653
    2AU     LIG  867  30.691  17.814   6.603
    2AU     LIG  868  30.239  18.044   6.607
    2AU       S  869  33.128  17.472   6.844
    2AU     LIG  870  32.908  17.821   6.617
    2AU     LIG  871  32.837  18.193   6.331
    2AU     LIG  872  32.637  18.596   6.269
    2AU     LIG  873  32.310  18.826   6.057
    2AU     LIG  874  31.987  19.095   5.878
    2AU     LIG  875  31.629  19.384   5.867
    2AU    AUSL  876  32.958  16.823   7.665
    2AU    AUSL  877  32.992  16.584   7.313
    2AU     AUL  878  32.825  16.840   7.276
    2AU       S  879  32.652  16.383   7.434
    2AU     LIG  880  32.310  16.396   7.782
    2AU     LIG  881  31.828  16.387   7.758
    2AU     LIG  882  31.412  16.181   7.640
    2AU     LIG  883  31.115  15.921   7.350
    2AU     LIG  884  30.658  15.891   7.203
    2AU     LIG  885  30.177  15.890   7.242
    2AU       S  886  32.760  16.852   7.754
    2AU     LIG  887  32.359  17.050   7.926
    2AU     LIG  888  31.889  17.212   7.923
    2AU     LIG  889  31.472  17.376   8.142
    2AU     LIG  890  31.077  17.692   8.209
    2AU     LIG  891  30.651  17.955   8.294
    2AU     LIG  892  30.207  17.963   8.466
    2AU    AUSL  893  34.503  16.195   7.576
    2AU    AUSL  894  34.456  16.406   7.955
    2AU     AUL  895  34.766  16.461   7.908
    2AU       S  896  34.649  15.935   7.556
    2AU     LIG  897  34.884  15.597   7.713
    2AU     LIG  898  35.283  15.351   7.622
    2AU     LIG  899  35.702  15.166   7.471
    2AU     LIG  900  36.139  14.977   7.398
    2AU     LIG  901  36.559  14.753   7.449
    2AU     LIG  902  36.992  14.563   7.378
    2AU       S  903  34.505  16.086   8.038
    2AU     LIG  904  34.793  15.673   8.226
    2AU     LIG  905  34.866  15.389   8.599
    2AU     LIG  906  35.123  15.126   8.897
    2AU     LIG  907  35.383  14.976   9.254
    2AU     LIG  908  35.783  15.047   9.510
    2AU     LIG  909  36.213  14.977   9.697
    2AU    AUSL  910  34.348  16.514   7.371
    2AU    AUSL  911  34.273  16.050   7.271
    2AU     AUL  912  34.623  16.261   7.192
    2AU       S  913  34.693  16.103   7.601
    2AU     LIG  914  35.031  15.856   7.260
    2AU     LIG  915  35.496  15.649   7.252
    2AU     LIG  916  35.985  15.542   7.269
    2AU     LIG  917  36.466  15.452   7.313
    2AU     LIG  918  36.882  15.520   7.059
    2AU     LIG  919  37.255  15.676   6.777
    2AU       S  920  34.515  15.817   7.083
    2AU     LIG  921  34.420  15.402   6.935
    2AU     LIG  922  34.655  15.072   6.684
    2AU     LIG  923  34.978  14.793   6.460
    2AU     LIG  924  35.361  14.574   6.266
    2AU     LIG  925  35.660  14.267   6.075
    2AU     LIG  926  35.818  13.852   5.917
    2AU    AUSL  927  33.105  16.204   7.477
    2AU    AUSL  928  33.188  16.345   7.061
    2AU     AUL  929  32.904  16.422   7.035
    2AU       S  930  33.111  16.014   7.034
    2AU     LIG  931  32.625  16.006   6.961
    2AU     LIG  932  32.349  15.687   6.744
    2AU     LIG  933  32.080  15.451   6.420
    2AU     LIG  934  31.804  15.147   6.158
    2AU     LIG  935  31.634  14.904   5.780
    2AU     LIG  936  31.570  14.939   5.306
    2AU       S  937  32.812  16.173   7.423
    2AU     LIG  938  32.426  15.942   7.535
    2AU     LIG  939  31.941  15.938   7.521
    2AU     LIG  940  31.526  15.681   7.553
    2AU     LIG  941  31.079  15.484   7.633
    2AU     LIG  942  30.716  15.226   7.791
    2AU     LIG  943  30.421  15.006   7.500
    2AU    AUSL  944  33.263  16.562   7.626
    2AU    AUSL  945  33.351  16.175   7.810
    2AU     AUL  946  32.973  16.369   7.806
    2AU       S  947  33.104  15.961   7.960
    2AU     LIG  948  32.884  15.689   7.763
    2AU     LIG  949  32.520  15.457   7.934
    2AU     LIG  950  32.174  15.197   8.165
    2AU     LIG  951  31.854  14.921   8.408
    2AU     LIG  952  31.607  14.647   8.723
    2AU     LIG  953  31.404  14.218   8.836
    2AU       S  954  32.691  16.445   7.466
    2AU     LIG  955  32.183  16.355   7.292
    2AU     LIG  956  31.684  16.349   7.238
    2AU     LIG  957  31.181  16.419   7.233
    2AU     LIG  958  30.807  16.279   7.519
    2AU     LIG  959  30.456  16.004   7.684
    2AU     LIG  960  30.060  15.747   7.761
    2AU    AUSL  961  33.851  17.372   8.011
    2AU    AUSL  962  33.530  17.165   7.723
    2AU     AUL  963  33.554  17.476   8.090
    2AU       S  964  33.161  17.299   8.253
    2AU     LIG  965  33.041  17.663   8.471
    2AU     LIG  966  32.841  17.990   8.736
    2AU     LIG  967  32.769  18.403   8.946
    2AU     LIG  968  32.487  18.772   8.961
    2AU     LIG  969  32.260  19.159   9.077
    2AU     LIG  970  32.062  19.568   9.171
    2AU       S  971  33.914  17.764   7.959
    2AU     LIG  972  34.069  17.834   8.352
    2AU     LIG  973  34.165  18.259   8.549
    2AU     LIG  974  34.164  18.684   8.777
    2AU     LIG  975  34.174  19.016   9.134
    2AU     LIG  976  34.110  19.383   9.443
    2AU     LIG  977  33.921  19.752   9.689
    2AU    AUSL  978  33.607  17.549   7.647
    2AU    AUSL  979  34.038  17.525   7.251
    2AU     AUL  980  33.730  17.779   7.401
    2AU       S  981  33.763  17.843   7.856
    2AU     LIG  982  33.913  18.257   8.082
    2AU     LIG  983  33.905  18.673   8.316
    2AU     LIG  984  33.671  19.098   8.417
    2AU     LIG  985  33.663  19.568   8.545
    2AU     LIG  986  33.389  19.941   8.484
    2AU     LIG  987  33.328  20.415   8.435
    2AU       S  988  34.069  17.865   7.072
    2AU     LIG  989  34.415  18.090   6.844
    2AU     LIG  990  34.570  18.545   6.729
    2AU     LIG  991  34.774  18.975   6.601
    2AU     LIG  992  34.665  19.431   6.517
    2AU     LIG  993  34.569  19.896   6.509
    2AU     LIG  994  34.907  20.225   6.501
    2AU    AUSL  995  34.001  17.391   7.631
    2AU    AUSL  996  34.023  17.024   7.899
    2AU     AUL  997  34.178  17.401   8.041
    2AU       S  998  34.562  17.196   8.214
    2AU     LIG  999  34.710  17.324   8.618
    2AU     LIG 1000  34.941  17.494   8.989
    2AU     LIG 1001  35.228  17.790   9.210
    2AU     LIG 1002  35.374  18.108   9.524
    2AU     LIG 1003  35.303  18.494   9.811
    2AU     LIG 1004  35.385  18.839  10.131
    2AU       S 1005  34.091  17.704   7.698
    2AU     LIG 1006  34.353  18.013   7.955
    2AU     LIG 1007  34.422  18.464   8.138
    2AU     LIG 1008  34.733  18.853   8.182
    2AU     LIG 1009  34.934  19.273   8.335
    2AU     LIG 1010  34.902  19.753   8.322
    2AU     LIG 1011  34.810  20.119   8.607
    2AU    AUSL 1012  33.784  16.136   7.939
    2AU    AUSL 1013  34.138  16.259   7.736
    2AU     AUL 1014  33.984  16.020   8.195
    2AU       S 1015  33.809  15.592   8.028
    2AU     LIG 1016  33.862  15.253   8.283
    2AU     LIG 1017  33.555  14.907   8.256
    2AU     LIG 1018  33.457  14.465   8.371
    2AU     LIG 1019  33.396  14.115   8.694
    2AU     LIG 1020  33.370  13.889   9.124
    2AU     LIG 1021  33.344  13.631   9.534
    2AU       S 1022  34.415  15.908   7.960
    2AU     LIG 1023  34.406  15.475   7.900
    2AU     LIG 1024  34.616  15.169   8.188
    2AU     LIG 1025  34.842  14.881   8.508
    2AU     LIG 1026  35.082  14.617   8.831
    2AU     LIG 1027  35.400  14.275   8.937
    2AU     LIG 1028  35.725  13.934   9.025
    2AU    AUSL 1029  33.607  15.892   7.670
    2AU    AUSL 1030  33.493  16.259   8.198
    2AU     AUL 1031  33.542  15.954   8.076
    2AU       S 1032  33.536  15.600   7.792
    2AU     LIG 1033  33.270  15.283   7.671
    2AU     LIG 1034  33.232  14.832   7.801
    2AU     LIG 1035  33.177  14.368   7.943
    2AU     LIG 1036  32.889  13.973   8.059
    2AU     LIG 1037  32.603  13.564   8.097
    2AU     LIG 1038  32.537  13.222   8.403
    2AU       S 1039  33.172  16.106   8.286
    2AU     LIG 1040  32.875  15.680   8.311
    2AU     LIG 1041  32.526  15.404   8.478
    2AU     LIG 1042  32.266  15.058   8.689
    2AU     LIG 1043  32.055  14.778   9.012
    2AU     LIG 1044  32.094  14.553   9.437
    2AU     LIG 1045  31.969  14.369   9.859
    2AU    AUSL 1046  34.042  15.869   7.714
    2AU    AUSL 1047  33.552  15.883   7.263
    2AU     AUL 1048  33.869  15.613   7.478
    2AU       S 1049  33.465  15.589   7.178
    2AU     LIG 1050  33.123  15.301   7.175
    2AU     LIG 1051  33.125  14.865   7.285
    2AU     LIG 1052  33.129  14.432   7.102
    2AU     LIG 1053  33.120  13.996   6.909
    2AU     LIG 1054  32.993  13.576   6.717
    2AU     LIG 1055  33.098  13.228   6.403
    2AU       S 1056  33.920  15.653   7.919
    2AU     LIG 1057  33.786  15.156   7.783
    2AU     LIG 1058  33.711  14.659   7.838
    2AU     LIG 1059  33.715  14.193   8.001
    2AU     LIG 1060  33.915  13.742   8.080
    2AU     LIG 1061  34.079  13.375   8.357
    2AU     LIG 1062  34.359  13.018   8.557
    2AU    AUSL 1063  33.800  17.331   6.942
    2AU    AUSL 1064  34.100  17.125   7.248
    2AU     AUL 1065  34.179  17.429   7.001
    2AU       S 1066  33.840  17.615   6.745
    2AU     LIG 1067  34.076  17.913   6.495
    2AU     LIG 1068  34.253  18.329   6.382
    2AU     LIG 1069  34.388  18.663   6.063
    2AU     LIG 1070  34.341  19.033   5.766
    2AU     LIG 1071  34.150  19.302   5.421
    2AU     LIG 1072  33.913  19.680   5.234
    2AU       S 1073  34.541  17.141   6.953
    2AU     LIG 1074  34.875  17.544   6.790
    2AU     LIG 1075  35.181  17.779   6.467
    2AU     LIG 1076  35.408  18.093   6.161
    2AU     LIG 1077  35.639  18.535   6.071
    2AU     LIG 1078  35.840  18.984   5.927
    2AU     LIG 1079  36.136  19.401   5.924
    2AU    AUSL 1080  33.698  17.306   7.338
    2AU    AUSL 1081  33.556  17.030   7.050
    2AU     AUL 1082  33.526  17.502   7.084
    2AU       S 1083  33.876  17.794   6.967
    2AU     LIG 1084  33.929  18.274   6.824
    2AU     LIG 1085  34.048  18.710   6.684
    2AU     LIG 1086  33.825  19.131   6.604
    2AU     LIG 1087  33.581  19.544   6.558
    2AU     LIG 1088  33.626  20.011   6.573
    2AU     LIG 1089  33.473  20.390   6.328
    2AU       S 1090  33.359  17.288   6.704
    2AU     LIG 1091  33.158  17.469   6.323
    2AU     LIG 1092  32.998  17.800   6.034
    2AU     LIG 1093  32.918  17.911   5.582
    2AU     LIG 1094  32.840  18.035   5.124
    2AU     LIG 1095  32.710  18.383   4.817
    2AU     LIG 1096  32.400  18.653   4.556
    2AU    AUSL 1097  33.878  15.982   6.993
    2AU    AUSL 1098  33.481  16.266   7.344
    2AU     AUL 1099  33.562  15.973   6.913
    2AU       S 1100  33.090  15.895   7.128
    2AU     LIG 1101  32.766  15.644   7.275
    2AU     LIG 1102  32.506  15.318   7.072
    2AU     LIG 1103  32.159  15.112   6.799
    2AU     LIG 1104  31.780  14.882   6.598
    2AU     LIG 1105  31.377  14.683   6.387
    2AU     LIG 1106  31.243  14.540   5.956
    2AU       S 1107  33.705  15.559   7.032
    2AU     LIG 1108  33.396  15.353   6.751
    2AU     LIG 1109  33.235  14.917   6.778
    2AU     LIG 1110  33.354  14.474   6.641
    2AU     LIG 1111  33.515  14.043   6.507
    2AU     LIG 1112  33.592  13.763   6.148
    2AU     LIG 1113  33.511  13.502   5.771
    2AU    AUSL 1114  33.888  16.071   7.402
    2AU    AUSL 1115  34.015  16.340   7.105
    2AU     AUL 1116  34.062  15.849   7.153
    2AU       S 1117  33.477  15.684   7.278
    2AU     LIG 1118  33.594  15.139   7.297
    2AU     LIG 1119  33.583  14.689   7.101
    2AU     LIG 1120  33.604  14.207   7.002
    2AU     LIG 1121  33.799  13.791   6.858
    2AU     LIG 1122  33.993  13.400   6.649
    2AU     LIG 1123  34.191  12.997   6.545
    2AU       S 1124  34.284  15.949   6.769
    2AU     LIG 1125  34.202  15.613   6.515
    2AU     LIG 1126  34.447  15.296   6.271
    2AU     LIG 1127  34.703  14.967   6.049
    2AU     LIG 1128  34.847  14.683   5.695
    2AU     LIG 1129  35.013  14.430   5.326
    2AU     LIG 1130  35.125  14.170   4.945
    3AU     AUC 1131  11.323  16.445   7.491
    3AU     AUC 1132  11.580  16.441   7.339
    3AU     AUC 1133  11.569  16.430   7.647
    3AU     AUC 1134  11.067  16.453   7.321
    3AU     AUC 1135  11.062  16.473   7.640
    3AU     AUC 1136  11.175  16.709   7.485
    3AU     AUC 1137  11.493  16.683   7.495
    3AU     AUC 1138  11.160  16.201   7.497
    3AU     AUC 1139  11.458  16.177   7.504
    3AU     AUC 1140  11.312  16.284   7.747
    3AU     AUC 1141  11.319  16.602   7.753
    3AU     AUC 1142  11.324  16.292   7.225
    3AU     AUC 1143  11.337  16.595   7.230
    3AU     AUC 1144  11.841  16.438   7.178
    3AU     AUC 1145  11.841  16.429   7.480
    3AU     AUC 1146  11.834  16.412   7.793
    3AU     AUC 1147  10.813  16.438   7.164
    3AU     AUC 1148  10.805  16.472   7.456
    3AU     AUC 1149  10.807  16.500   7.784
    3AU     AUC 1150  11.049  16.971   7.482
    3AU     AUC 1151  11.354  16.967   7.500
    3AU     AUC 1152  11.665  16.933   7.505
    3AU     AUC 1153  10.983  15.952   7.508
    3AU     AUC 1154  11.289  15.924   7.485
    3AU     AUC 1155  11.600  15.911   7.504
    3AU     AUC 1156  11.309  16.134   8.000
    3AU     AUC 1157  11.324  16.445   8.013
    3AU     AUC 1158  11.329  16.761   8.007
    3AU     AUC 1159  11.322  16.139   6.975
    3AU     AUC 1160  11.324  16.443   6.965
    3AU     AUC 1161  11.351  16.754   6.979
    3AU     AUC 1162  11.577  16.259   7.907
    3AU     AUC 1163  11.585  16.593   7.919
    3AU     AUC 1164  11.580  16.293   7.061
    3AU     AUC 1165  11.599  16.587   7.067
    3AU     AUC 1166  11.056  16.326   7.914
    3AU     AUC 1167  11.058  16.634   7.899
    3AU     AUC 1168  11.061  16.279   7.067
    3AU     AUC 1169  11.078  16.594   7.064
    3AU     AUC 1170  11.756  16.690   7.330
    3AU     AUC 1171  11.754  16.664   7.672
    3AU     AUC 1172  10.921  16.709   7.313
    3AU     AUC 1173  10.930  16.743   7.641
    3AU     AUC 1174  11.733  16.169   7.349
    3AU     AUC 1175  11.706  16.138   7.653
    3AU     AUC 1176  10.897  16.195   7.331
    3AU     AUC 1177  10.894  16.228   7.673
    3AU     AUC 1178  11.187  16.874   7.755
    3AU     AUC 1179  11.511  16.847   7.761
    3AU     AUC 1180  11.129  16.036   7.749
    3AU     AUC 1181  11.438  16.014   7.760
    3AU     AUC 1182  11.204  16.881   7.244
    3AU     AUC 1183  11.491  16.853   7.223
    3AU     AUC 1184  11.148  16.043   7.229
    3AU     AUC 1185  11.475  16.028   7.241
    3AU    AUSL 1186  11.825  16.312   8.193
    3AU    AUSL 1187  11.595  15.953   8.113
    3AU     AUL 1188  11.904  16.004   8.364
    3AU       S 1189  11.884  15.589   8.136
    3AU     LIG 1190  11.965  15.317   8.452
    3AU     LIG 1191  12.073  14.962   8.733
    3AU     LIG 1192  12.197  14.610   9.021
    3AU     LIG 1193  12.214  14.223   9.287
    3AU     LIG 1194  12.432  14.096   9.671
    3AU     LIG 1195  12.468  13.883  10.094
    3AU       S 1196  11.777  16.388   8.600
    3AU     LIG 1197  12.001  16.143   8.898
    3AU     LIG 1198  12.201  16.068   9.324
    3AU     LIG 1199  12.567  15.994   9.605
    3AU     LIG 1200  12.777  16.100  10.007
    3AU     LIG 1201  13.063  16.148  10.368
    3AU     LIG 1202  13.468  16.252  10.582
    3AU    AUSL 1203  11.413  16.249   8.330
    3AU    AUSL 1204  11.237  16.642   8.319
    3AU     AUL 1205  11.323  16.563   8.694
    3AU       S 1206  11.486  16.176   8.517
    3AU     LIG 1207  11.627  15.815   8.747
    3AU     LIG 1208  11.833  15.721   9.178
    3AU     LIG 1209  11.909  15.654   9.658
    3AU     LIG 1210  11.928  15.523  10.132
    3AU     LIG 1211  12.105  15.550  10.585
    3AU     LIG 1212  12.197  15.539  11.057
    3AU       S 1213  10.893  16.430   8.647
    3AU     LIG 1214  10.832  16.321   9.085
    3AU     LIG 1215  10.698  16.183   9.509
    3AU     LIG 1216  10.521  16.255   9.931
    3AU     LIG 1217  10.548  16.553  10.304
    3AU     LIG 1218  10.428  16.824  10.677
    3AU     LIG 1219  10.265  16.947  11.110
    3AU    AUSL 1220  11.523  16.542   8.056
    3AU    AUSL 1221  11.945  16.666   8.010
    3AU     AUL 1222  12.035  16.475   8.205
    3AU       S 1223  11.715  16.626   8.503
    3AU     LIG 1224  11.563  17.004   8.725
    3AU     LIG 1225  11.738  17.110   9.199
    3AU     LIG 1226  11.842  17.118   9.716
    3AU     LIG 1227  11.949  17.240  10.200
    3AU     LIG 1228  12.094  17.309  10.663
    3AU     LIG 1229  12.064  17.354  11.143
    3AU       S 1230  12.111  16.928   8.243
    3AU     LIG 1231  12.501  16.976   8.452
    3AU     LIG 1232  12.849  17.183   8.683
    3AU     LIG 1233  13.117  17.263   9.057
    3AU     LIG 1234  13.454  17.184   9.380
    3AU     LIG 1235  13.800  17.224   9.703
    3AU     LIG 1236  14.097  17.559   9.854
    3AU    AUSL 1237  11.768  16.481   6.885
    3AU    AUSL 1238  11.600  16.902   6.870
    3AU     AUL 1239  11.863  16.845   6.456
    3AU       S 1240  11.870  16.492   6.693
    3AU     LIG 1241  12.206  16.475   6.375
    3AU     LIG 1242  12.280  16.245   5.978
    3AU     LIG 1243  12.390  16.117   5.523
    3AU     LIG 1244  12.740  16.102   5.166
    3AU     LIG 1245  13.111  16.101   4.831
    3AU     LIG 1246  13.438  16.187   4.475
    3AU       S 1247  11.627  17.088   6.731
    3AU     LIG 1248  11.941  17.346   6.475
    3AU     LIG 1249  12.314  17.337   6.162
    3AU     LIG 1250  12.635  17.548   5.863
    3AU     LIG 1251  12.915  17.616   5.484
    3AU     LIG 1252  13.135  17.832   5.123
    3AU     LIG 1253  13.045  18.152   4.787
    3AU    AUSL 1254  11.552  16.173   6.681
    3AU    AUSL 1255  11.954  16.132   6.988
    3AU     AUL 1256  12.072  16.119   6.696
    3AU       S 1257  12.028  15.680   6.827
    3AU     LIG 1258  12.174  15.360   6.537
    3AU     LIG 1259  12.403  15.033   6.296
    3AU     LIG 1260  12.663  14.741   6.028
    3AU     LIG 1261  13.015  14.611   5.726
    3AU     LIG 1262  13.431  14.658   5.459
    3AU     LIG 1263  13.860  14.597   5.236
    3AU       S 1264  11.638  16.139   6.601
    3AU     LIG 1265  11.871  16.003   6.240
    3AU     LIG 1266  11.984  15.859   5.793
    3AU     LIG 1267  12.017  15.786   5.319
    3AU     LIG 1268  11.992  15.728   4.837
    3AU     LIG 1269  12.192  15.581   4.423
    3AU     LIG 1270  12.176  15.604   3.953
    3AU    AUSL 1271  11.441  16.595   6.643
    3AU    AUSL 1272  11.153  16.270   6.664
    3AU     AUL 1273  11.394  16.249   6.261
    3AU       S 1274  11.035  16.334   6.493
    3AU     LIG 1275  11.039  15.901   6.216
    3AU     LIG 1276  10.781  15.797   5.838
    3AU     LIG 1277  10.582  15.711   5.414
    3AU     LIG 1278  10.333  15.710   4.997
    3AU     LIG 1279  10.184  15.502   4.586
    3AU     LIG 1280  10.220  15.459   4.111
    3AU       S 1281  11.506  16.576   6.529
    3AU     LIG 1282  11.783  16.498   6.105
    3AU     LIG 1283  11.896  16.349   5.654
    3AU     LIG 1284  12.015  16.286   5.194
    3AU     LIG 1285  12.019  16.326   4.722
    3AU     LIG 1286  12.095  16.591   4.340
    3AU     LIG 1287  12.035  16.923   4.012
    3AU    AUSL 1288  10.849  16.540   8.193
    3AU    AUSL 1289  11.022  16.916   8.110
    3AU     AUL 1290  11.048  16.863   8.446
    3AU       S 1291  10.714  16.557   8.594
    3AU     LIG 1292  10.503  16.145   8.729
    3AU     LIG 1293  10.342  16.069   9.134
    3AU     LIG 1294  10.190  16.082   9.566
    3AU     LIG 1295   9.877  16.101   9.910
    3AU     LIG 1296   9.460  16.111  10.142
    3AU     LIG 1297   9.214  16.063  10.544
    3AU       S 1298  10.608  16.933   8.270
    3AU     LIG 1299  10.551  17.063   8.705
    3AU     LIG 1300  10.444  17.374   9.052
    3AU     LIG 1301  10.305  17.633   9.425
    3AU     LIG 1302  10.144  17.739   9.855
    3AU     LIG 1303   9.958  17.945  10.232
    3AU     LIG 1304   9.824  18.202  10.607
    3AU    AUSL 1305  11.143  16.320   8.035
    3AU    AUSL 1306  10.605  16.298   7.963
    3AU     AUL 1307  10.716  16.310   8.209
    3AU       S 1308  10.419  15.967   8.264
    3AU     LIG 1309  10.072  15.764   8.117
    3AU     LIG 1310   9.803  15.434   8.312
    3AU     LIG 1311   9.504  15.151   8.551
    3AU     LIG 1312   9.279  14.848   8.842
    3AU     LIG 1313   9.059  14.706   9.234
    3AU     LIG 1314   8.796  14.733   9.636
    3AU       S 1315  10.994  16.262   8.567
    3AU     LIG 1316  10.941  15.888   8.840
    3AU     LIG 1317  10.728  15.740   9.253
    3AU     LIG 1318  10.540  15.707   9.713
    3AU     LIG 1319  10.375  15.500  10.136
    3AU     LIG 1320  10.225  15.298  10.562
    3AU     LIG 1321  10.122  15.387  11.025
    3AU    AUSL 1322  10.804  16.385   6.878
    3AU    AUSL 1323  11.063  15.983   6.930
    3AU     AUL 1324  10.849  15.967   6.661
    3AU       S 1325  10.599  16.345   6.662
    3AU     LIG 1326  10.530  16.082   6.271
    3AU     LIG 1327  10.358  16.107   5.827
    3AU     LIG 1328  10.196  16.039   5.384
    3AU     LIG 1329   9.889  16.027   5.020
    3AU     LIG 1330   9.544  16.215   4.733
    3AU     LIG 1331   9.216  16.222   4.364
    3AU       S 1332  10.688  15.583   6.913
    3AU     LIG 1333  10.409  15.254   6.820
    3AU     LIG 1334  10.099  15.059   6.527
    3AU     LIG 1335   9.814  14.825   6.231
    3AU     LIG 1336   9.574  14.736   5.833
    3AU     LIG 1337   9.589  14.650   5.359
    3AU     LIG 1338   9.545  14.439   4.928
    3AU    AUSL 1339  11.160  16.588   6.925
    3AU    AUSL 1340  10.773  16.791   6.904
    3AU     AUL 1341  10.859  16.714   6.647
    3AU       S 1342  10.571  17.070   6.667
    3AU     LIG 1343  10.272  17.128   6.327
    3AU     LIG 1344  10.124  17.308   5.918
    3AU     LIG 1345   9.942  17.375   5.479
    3AU     LIG 1346   9.589  17.528   5.160
    3AU     LIG 1347   9.137  17.697   5.020
    3AU     LIG 1348   8.733  17.924   4.854
    3AU       S 1349  10.939  16.352   6.403
    3AU     LIG 1350  10.872  16.303   5.944
    3AU     LIG 1351  10.727  16.207   5.491
    3AU     LIG 1352  10.507  16.372   5.100
    3AU     LIG 1353  10.484  16.691   4.725
    3AU     LIG 1354  10.482  16.885   4.270
    3AU     LIG 1355  10.389  17.020   3.807
    3AU    AUSL 1356  12.040  16.933   7.439
    3AU    AUSL 1357  11.988  16.787   7.031
    3AU     AUL 1358  12.212  17.148   7.250
    3AU       S 1359  12.068  16.865   6.905
    3AU     LIG 1360  12.451  16.743   6.736
    3AU     LIG 1361  12.633  16.948   6.346
    3AU     LIG 1362  12.938  17.172   6.058
    3AU     LIG 1363  13.247  17.340   5.749
    3AU     LIG 1364  13.481  17.563   5.407
    3AU     LIG 1365  13.715  17.712   5.027
    3AU       S 1366  12.499  16.832   7.440
    3AU     LIG 1367  13.006  16.830   7.500
    3AU     LIG 1368  13.507  16.852   7.497
    3AU     LIG 1369  13.950  17.034   7.512
    3AU     LIG 1370  14.050  17.512   7.521
    3AU     LIG 1371  14.436  17.771   7.401
    3AU     LIG 1372  14.802  18.080   7.316
    3AU    AUSL 1373  12.153  16.515   7.288
    3AU    AUSL 1374  12.157  16.284   7.695
    3AU     AUL 1375  12.417  16.226   7.447
    3AU       S 1376  12.396  16.654   7.255
    3AU     LIG 1377  12.831  16.444   7.220
    3AU     LIG 1378  13.340  16.454   7.227
    3AU     LIG 1379  13.860  16.517   7.239
    3AU     LIG 1380  14.322  16.728   7.213
    3AU     LIG 1381  14.680  17.007   6.956
    3AU     LIG 1382  15.055  17.303   6.815
    3AU       S 1383  12.440  15.826   7.707
    3AU     LIG 1384  12.867  15.667   7.684
    3AU     LIG 1385  13.219  15.423   7.851
    3AU     LIG 1386  13.680  15.422   7.857
    3AU     LIG 1387  14.125  15.538   7.992
    3AU     LIG 1388  14.571  15.424   7.970
    3AU     LIG 1389  15.039  15.412   8.081
    3AU    AUSL 1390  11.911  16.593   7.619
    3AU    AUSL 1391  11.852  17.017   7.793
    3AU     AUL 1392  12.146  16.869   7.770
    3AU       S 1393  12.070  17.123   8.148
    3AU     LIG 1394  12.253  17.436   8.418
    3AU     LIG 1395  12.640  17.656   8.575
    3AU     LIG 1396  12.959  17.917   8.810
    3AU     LIG 1397  13.291  18.094   9.076
    3AU     LIG 1398  13.576  18.471   9.069
    3AU     LIG 1399  13.725  18.905   8.951
    3AU       S 1400  12.493  16.651   7.597
    3AU     LIG 1401  12.840  16.407   7.747
    3AU     LIG 1402  13.325  16.445   7.756
    3AU     LIG 1403  13.818  16.512   7.761
    3AU     LIG 1404  14.280  16.610   7.736
    3AU     LIG 1405  14.658  16.834   7.896
    3AU     LIG 1406  14.910  17.202   7.992
    3AU    AUSL 1407  10.685  16.980   7.478
    3AU    AUSL 1408  10.760  16.744   7.850
    3AU     AUL 1409  10.557  17.122   7.775
    3AU       S 1410  10.473  16.782   8.093
    3AU     LIG 1411  10.142  16.899   8.429
    3AU     LIG 1412  10.043  17.216   8.743
    3AU     LIG 1413   9.940  17.356   9.189
    3AU     LIG 1414   9.750  17.495   9.614
    3AU     LIG 1415   9.369  17.590   9.909
    3AU     LIG 1416   8.911  17.716  10.032
    3AU       S 1417  10.261  17.023   7.444
    3AU     LIG 1418  10.044  17.384   7.609
    3AU     LIG 1419   9.670  17.687   7.563
    3AU     LIG 1420   9.401  18.095   7.639
    3AU     LIG 1421   8.988  18.364   7.590
    3AU     LIG 1422   8.573  18.567   7.468
    3AU     LIG 1423   8.235  18.722   7.214
    3AU    AUSL 1424  10.667  16.632   7.256
    3AU    AUSL 1425  11.003  16.882   7.223
    3AU     AUL 1426  10.617  16.994   7.134
    3AU       S 1427  10.173  16.938   7.293
    3AU     LIG 1428  10.028  17.001   6.835
    3AU     LIG 1429   9.607  17.199   6.665
    3AU     LIG 1430   9.147  17.342   6.611
    3AU     LIG 1431   8.710  17.559   6.695
    3AU     LIG 1432   8.280  17.772   6.789
    3AU     LIG 1433   7.855  17.946   6.791
    3AU       S 1434  10.733  17.214   6.698
    3AU     LIG 1435  10.577  17.537   6.391
    3AU     LIG 1436  10.328  17.785   6.061
    3AU     LIG 1437  10.194  18.208   5.871
    3AU     LIG 1438   9.948  18.626   5.827
    3AU     LIG 1439   9.616  18.981   5.797
    3AU     LIG 1440   9.267  19.315   5.714
    3AU    AUSL 1441  10.469  16.617   7.616
    3AU    AUSL 1442  10.475  16.291   7.330
    3AU     AUL 1443  10.345  16.539   7.180
    3AU       S 1444  10.173  16.223   7.534
    3AU     LIG 1445   9.765  16.094   7.830
    3AU     LIG 1446   9.269  16.110   7.809
    3AU     LIG 1447   8.820  15.932   7.655
    3AU     LIG 1448   8.557  15.631   7.329
    3AU     LIG 1449   8.096  15.644   7.117
    3AU     LIG 1450   7.643  15.642   6.916
    3AU       S 1451  10.306  16.719   7.629
    3AU     LIG 1452  10.058  16.980   7.928
    3AU     LIG 1453   9.723  17.116   8.217
    3AU     LIG 1454   9.264  17.041   8.313
    3AU     LIG 1455   8.794  17.007   8.375
    3AU     LIG 1456   8.369  17.124   8.190
    3AU     LIG 1457   7.932  17.252   8.332
    3AU    AUSL 1458  12.000  15.921   7.554
    3AU    AUSL 1459  11.780  16.182   7.817
    3AU     AUL 1460  12.144  16.096   7.934
    3AU       S 1461  12.173  15.656   7.541
    3AU     LIG 1462  12.504  15.338   7.531
    3AU     LIG 1463  12.965  15.205   7.455
    3AU     LIG 1464  13.444  15.123   7.463
    3AU     LIG 1465  13.775  14.747   7.505
    3AU     LIG 1466  14.053  14.338   7.545
    3AU     LIG 1467  14.508  14.265   7.682
    3AU       S 1468  11.994  15.685   8.037
    3AU     LIG 1469  12.384  15.582   8.201
    3AU     LIG 1470  12.479  15.252   8.517
    3AU     LIG 1471  12.581  14.914   8.820
    3AU     LIG 1472  12.844  14.720   9.150
    3AU     LIG 1473  13.242  14.745   9.414
    3AU     LIG 1474  13.566  14.739   9.761
    3AU    AUSL 1475  11.865  16.248   7.363
    3AU    AUSL 1476  11.791  15.813   7.220
    3AU     AUL 1477  12.127  16.011   7.176
    3AU       S 1478  12.158  15.806   7.573
    3AU     LIG 1479  12.557  15.762   7.233
    3AU     LIG 1480  13.006  15.623   7.166
    3AU     LIG 1481  13.447  15.448   7.018
    3AU     LIG 1482  13.922  15.441   7.115
    3AU     LIG 1483  14.376  15.263   7.022
    3AU     LIG 1484  14.733  14.957   7.133
    3AU       S 1485  12.056  15.570   7.034
    3AU     LIG 1486  11.839  15.188   6.893
    3AU     LIG 1487  12.033  14.836   6.618
    3AU     LIG 1488  12.339  14.523   6.386
    3AU     LIG 1489  12.593  14.218   6.100
    3AU     LIG 1490  12.864  13.808   6.070
    3AU     LIG 1491  13.062  13.357   6.101
    3AU    AUSL 1492  10.636  15.944   7.502
    3AU    AUSL 1493  10.689  16.061   7.079
    3AU     AUL 1494  10.362  16.053   7.116
    3AU       S 1495  10.666  15.727   7.055
    3AU     LIG 1496  10.286  15.763   6.716
    3AU     LIG 1497   9.884  15.515   6.628
    3AU     LIG 1498   9.549  15.204   6.447
    3AU     LIG 1499   9.229  14.972   6.148
    3AU     LIG 1500   8.824  14.883   5.883
    3AU     LIG 1501   8.576  14.885   5.459
    3AU       S 1502  10.204  15.989   7.539
    3AU     LIG 1503   9.952  15.661   7.629
    3AU     LIG 1504   9.493  15.671   7.606
    3AU     LIG 1505   9.051  15.500   7.547
    3AU     LIG 1506   8.633  15.415   7.778
    3AU     LIG 1507   8.260  15.112   7.818
    3AU     LIG 1508   7.896  14.816   7.745
    3AU    AUSL 1509  10.770  16.341   7.604
    3AU    AUSL 1510  10.870  16.007   7.849
    3AU     AUL 1511  10.558  15.983   7.817
    3AU       S 1512  10.597  15.845   8.252
    3AU     LIG 1513  10.486  15.505   7.938
    3AU     LIG 1514  10.106  15.244   7.929
    3AU     LIG 1515   9.830  14.936   8.182
    3AU     LIG 1516   9.573  14.641   8.464
    3AU     LIG 1517   9.395  14.300   8.744
    3AU     LIG 1518   9.378  13.838   8.868
    3AU       S 1519  10.253  16.218   7.563
    3AU     LIG 1520   9.754  16.059   7.332
    3AU     LIG 1521   9.226  16.017   7.307
    3AU     LIG 1522   8.744  16.115   7.188
    3AU     LIG 1523   8.297  16.044   7.392
    3AU     LIG 1524   8.038  15.730   7.640
    3AU     LIG 1525   7.771  15.376   7.855
    3AU    AUSL 1526  11.336  17.129   7.983
    3AU    AUSL 1527  11.010  17.041   7.716
    3AU     AUL 1528  10.971  17.275   7.953
    3AU       S 1529  10.687  17.039   8.209
    3AU     LIG 1530  10.342  17.348   8.285
    3AU     LIG 1531  10.300  17.646   8.638
    3AU     LIG 1532  10.167  17.909   8.997
    3AU     LIG 1533   9.999  18.353   9.083
    3AU     LIG 1534   9.724  18.747   9.116
    3AU     LIG 1535   9.371  19.062   9.179
    3AU       S 1536  11.349  17.355   8.206
    3AU     LIG 1537  11.728  17.500   8.394
    3AU     LIG 1538  11.779  17.981   8.499
    3AU     LIG 1539  11.683  18.363   8.804
    3AU     LIG 1540  11.630  18.643   9.213
    3AU     LIG 1541  11.560  19.015   9.511
    3AU     LIG 1542  11.443  19.437   9.695
    3AU    AUSL 1543  11.300  17.313   7.611
    3AU    AUSL 1544  11.667  17.244   7.399
    3AU     AUL 1545  11.660  17.545   7.568
    3AU       S 1546  11.272  17.609   7.830
    3AU     LIG 1547  11.369  18.031   8.148
    3AU     LIG 1548  11.381  18.450   8.369
    3AU     LIG 1549  11.189  18.895   8.381
    3AU     LIG 1550  11.154  19.353   8.487
    3AU     LIG 1551  11.079  19.791   8.668
    3AU     LIG 1552  10.925  20.224   8.777
    3AU       S 1553  11.517  17.601   7.129
    3AU     LIG 1554  11.799  17.953   6.951
    3AU     LIG 1555  11.987  18.376   6.782
    3AU     LIG 1556  12.352  18.716   6.730
    3AU     LIG 1557  12.545  19.160   6.642
    3AU     LIG 1558  12.530  19.663   6.593
    3AU     LIG 1559  12.204  19.996   6.433
    3AU    AUSL 1560  11.488  16.964   7.641
    3AU    AUSL 1561  11.628  16.913   8.144
    3AU     AUL 1562  11.685  17.232   7.907
    3AU       S 1563  11.853  17.000   8.279
    3AU     LIG 1564  12.057  17.049   8.714
    3AU     LIG 1565  12.397  17.277   8.902
    3AU     LIG 1566  12.700  17.567   9.086
    3AU     LIG 1567  12.920  17.876   9.357
    3AU     LIG 1568  13.045  18.037   9.791
    3AU     LIG 1569  13.031  18.402  10.101
    3AU       S 1570  11.405  17.580   7.989
    3AU     LIG 1571  11.822  17.801   7.995
    3AU     LIG 1572  12.158  18.130   8.141
    3AU     LIG 1573  12.420  18.532   8.239
    3AU     LIG 1574  12.558  18.976   8.293
    3AU     LIG 1575  12.445  19.425   8.347
    3AU     LIG 1576  12.516  19.762   8.677
    3AU    AUSL 1577  11.277  15.868   7.867
    3AU    AUSL 1578  11.674  15.784   7.744
    3AU     AUL 1579  11.439  15.685   8.122
    3AU       S 1580  11.231  15.311   7.973
    3AU     LIG 1581  11.144  15.144   8.358
    3AU     LIG 1582  11.009  14.724   8.405
    3AU     LIG 1583  10.947  14.272   8.451
    3AU     LIG 1584  11.050  13.844   8.578
    3AU     LIG 1585  11.189  13.506   8.859
    3AU     LIG 1586  11.037  13.248   9.233
    3AU       S 1587  11.806  15.567   7.843
    3AU     LIG 1588  12.140  15.226   7.902
    3AU     LIG 1589  12.224  14.905   8.233
    3AU     LIG 1590  12.347  14.556   8.526
    3AU     LIG 1591  12.453  14.201   8.824
    3AU     LIG 1592  12.743  13.876   8.980
    3AU     LIG 1593  13.191  13.746   8.978
    3AU    AUSL 1594  10.984  15.690   7.632
    3AU    AUSL 1595  11.070  15.968   8.207
    3AU     AUL 1596  10.955  15.686   7.978
    3AU       S 1597  11.051  15.245   7.878
    3AU     LIG 1598  10.718  14.997   8.060
    3AU     LIG 1599  10.639  14.524   8.099
    3AU     LIG 1600  10.646  14.039   8.094
    3AU     LIG 1601  10.365  13.636   8.070
    3AU     LIG 1602  10.182  13.194   8.054
    3AU     LIG 1603  10.059  12.791   8.275
    3AU       S 1604  10.789  15.876   8.356
    3AU     LIG 1605  10.687  15.393   8.400
    3AU     LIG 1606  10.272  15.155   8.411
    3AU     LIG 1607   9.949  14.927   8.689
    3AU     LIG 1608   9.720  14.624   8.981
    3AU     LIG 1609   9.502  14.378   9.328
    3AU     LIG 1610   9.473  14.227   9.787
    3AU    AUSL 1611  11.376  15.554   7.602
    3AU    AUSL 1612  11.105  15.645   7.242
    3AU     AUL 1613  10.943  15.441   7.485
    3AU       S 1614  11.071  15.273   7.062
    3AU     LIG 1615  10.789  14.930   7.032
    3AU     LIG 1616  10.686  14.461   6.984
    3AU     LIG 1617  10.513  14.006   6.894
    3AU     LIG 1618  10.257  13.572   6.858
    3AU     LIG 1619  10.260  13.097   6.757
    3AU     LIG 1620  10.345  12.616   6.718
    3AU       S 1621  11.334  15.378   7.740
    3AU     LIG 1622  11.331  14.843   7.877
    3AU     LIG 1623  11.144  14.416   7.991
    3AU     LIG 1624  11.186  13.952   8.093
    3AU     LIG 1625  11.287  13.517   8.249
    3AU     LIG 1626  11.640  13.209   8.216
    3AU     LIG 1627  11.738  12.727   8.227
    3AU    AUSL 1628  11.365  17.103   7.151
    3AU    AUSL 1629  11.679  16.853   7.276
    3AU     AUL 1630  11.761  17.209   7.135
    3AU       S 1631  11.400  17.448   6.961
    3AU     LIG 1632  11.550  17.666   6.603
    3AU     LIG 1633  11.657  18.111   6.450
    3AU     LIG 1634  11.734  18.410   6.058
    3AU     LIG 1635  11.721  18.652   5.613
    3AU     LIG 1636  11.664  19.048   5.328
    3AU     LIG 1637  11.516  19.486   5.163
    3AU       S 1638  12.045  17.016   6.840
    3AU     LIG 1639  12.404  17.263   6.694
    3AU     LIG 1640  12.734  17.489   6.413
    3AU     LIG 1641  13.050  17.693   6.119
    3AU     LIG 1642  13.225  18.109   6.016
    3AU     LIG 1643  13.195  18.520   6.242
    3AU     LIG 1644  13.312  18.960   6.205
    3AU    AUSL 1645  11.018  17.260   7.334
    3AU    AUSL 1646  11.156  16.979   6.829
    3AU     AUL 1647  11.008  17.236   7.049
    3AU       S 1648  11.287  17.576   7.229
    3AU     LIG 1649  11.281  17.986   6.918
    3AU     LIG 1650  11.346  18.450   6.756
    3AU     LIG 1651  11.164  18.923   6.708
    3AU     LIG 1652  10.941  19.330   6.501
    3AU     LIG 1653  10.947  19.693   6.175
    3AU     LIG 1654  10.728  20.137   6.161
    3AU       S 1655  11.017  17.151   6.587
    3AU     LIG 1656  10.786  17.104   6.197
    3AU     LIG 1657  10.633  17.413   5.878
    3AU     LIG 1658  10.427  17.602   5.494
    3AU     LIG 1659  10.293  17.922   5.152
    3AU     LIG 1660  10.057  18.214   4.847
    3AU     LIG 1661   9.793  18.608   4.812
    3AU    AUSL 1662  11.405  15.762   6.963
    3AU    AUSL 1663  10.999  16.022   7.335
    3AU     AUL 1664  11.120  15.715   6.933
    3AU       S 1665  10.638  15.609   7.179
    3AU     LIG 1666  10.199  15.557   7.190
    3AU     LIG 1667   9.932  15.203   7.035
    3AU     LIG 1668   9.716  14.861   6.799
    3AU     LIG 1669   9.415  14.665   6.514
    3AU     LIG 1670   9.210  14.380   6.213
    3AU     LIG 1671   9.100  13.915   6.163
    3AU       S 1672  11.336  15.316   6.945
    3AU     LIG 1673  11.355  15.007   6.660
    3AU     LIG 1674  11.047  14.666   6.655
    3AU     LIG 1675  10.942  14.210   6.603
    3AU     LIG 1676  11.107  13.844   6.358
    3AU     LIG 1677  11.198  13.635   5.944
    3AU     LIG 1678  11.161  13.299   5.614
    3AU    AUSL 1679  11.422  15.874   7.379
    3AU    AUSL 1680  11.544  16.119   7.071
    3AU     AUL 1681  11.615  15.619   7.153
    3AU       S 1682  11.285  15.318   7.202
    3AU     LIG 1683  11.293  14.825   7.141
    3AU     LIG 1684  11.210  14.358   7.034
    3AU     LIG 1685  11.310  13.920   6.844
    3AU     LIG 1686  11.342  13.485   6.657
    3AU     LIG 1687  11.687  13.174   6.570
    3AU     LIG 1688  11.921  12.747   6.639
    3AU       S 1689  11.815  15.725   6.746
    3AU     LIG 1690  11.659  15.420   6.474
    3AU     LIG 1691  11.872  15.086   6.200
    3AU     LIG 1692  12.122  14.741   5.975
    3AU     LIG 1693  12.379  14.476   5.681
    3AU     LIG 1694  12.459  14.345   5.236
    3AU     LIG 1695  12.524  13.990   4.934
    4AU     AUC 1696  26.871  35.696   7.505
    4AU     AUC 1697  27.134  35.692   7.346
    4AU     AUC 1698  27.124  35.687   7.657
    4AU     AUC 1699  26.622  35.699   7.339
    4AU     AUC 1700  26.610  35.719   7.653
    4AU     AUC 1701  26.724  35.955   7.498
    4AU     AUC 1702  27.036  35.948   7.489
    4AU     AUC 1703  26.714  35.442   7.518
    4AU     AUC 1704  27.008  35.440   7.530
    4AU     AUC 1705  26.860  35.551   7.768
    4AU     AUC 1706  26.886  35.863   7.758
    4AU     AUC 1707  26.872  35.529   7.251
    4AU     AUC 1708  26.866  35.832   7.241
    4AU     AUC 1709  27.384  35.680   7.186
    4AU     AUC 1710  27.389  35.692   7.497
    4AU     AUC 1711  27.383  35.686   7.804
    4AU     AUC 1712  26.365  35.689   7.184
    4AU     AUC 1713  26.354  35.717   7.490
    4AU     AUC 1714  26.361  35.740   7.812
    4AU     AUC 1715  26.584  36.222   7.497
    4AU     AUC 1716  26.893  36.218   7.492
    4AU     AUC 1717  27.186  36.209   7.489
    4AU     AUC 1718  26.531  35.190   7.526
    4AU     AUC 1719  26.846  35.174   7.519
    4AU     AUC 1720  27.162  35.173   7.540
    4AU     AUC 1721  26.842  35.402   8.024
    4AU     AUC 1722  26.869  35.713   8.031
    4AU     AUC 1723  26.893  36.020   8.016
    4AU     AUC 1724  26.873  35.352   7.017
    4AU     AUC 1725  26.887  35.668   6.983
    4AU     AUC 1726  26.869  35.976   6.976
    4AU     AUC 1727  27.133  35.550   7.932
    4AU     AUC 1728  27.142  35.843   7.921
    4AU     AUC 1729  27.145  35.515   7.093
    4AU     AUC 1730  27.148  35.823   7.076
    4AU     AUC 1731  26.596  35.574   7.930
    4AU     AUC 1732  26.621  35.884   7.927
    4AU     AUC 1733  26.626  35.529   7.075
    4AU     AUC 1734  26.617  35.837   7.077
    4AU     AUC 1735  27.290  35.953   7.323
    4AU     AUC 1736  27.303  35.938   7.641
    4AU     AUC 1737  26.457  35.956   7.346
    4AU     AUC 1738  26.467  35.983   7.666
    4AU     AUC 1739  27.282  35.422   7.362
    4AU     AUC 1740  27.282  35.431   7.679
    4AU     AUC 1741  26.446  35.446   7.343
    4AU     AUC 1742  26.447  35.462   7.685
    4AU     AUC 1743  26.729  36.122   7.766
    4AU     AUC 1744  27.048  36.123   7.739
    4AU     AUC 1745  26.686  35.281   7.765
    4AU     AUC 1746  27.005  35.288   7.797
    4AU     AUC 1747  26.717  36.105   7.234
    4AU     AUC 1748  27.034  36.092   7.220
    4AU     AUC 1749  26.695  35.280   7.251
    4AU     AUC 1750  27.023  35.263   7.279
    4AU    AUSL 1751  27.221  35.644   8.093
    4AU    AUSL 1752  27.162  35.228   8.149
    4AU     AUL 1753  27.400  35.304   8.413
    4AU       S 1754  27.451  34.924   8.101
    4AU     LIG 1755  27.306  34.685   8.435
    4AU     LIG 1756  27.403  34.266   8.598
    4AU     LIG 1757  27.654  33.933   8.834
    4AU     LIG 1758  27.835  33.553   9.073
    4AU     LIG 1759  27.994  33.442   9.509
    4AU     LIG 1760  28.100  33.342   9.973
    4AU       S 1761  27.268  35.676   8.662
    4AU     LIG 1762  27.493  35.384   8.921
    4AU     LIG 1763  27.698  35.272   9.338
    4AU     LIG 1764  28.004  35.369   9.700
    4AU     LIG 1765  28.389  35.447   9.984
    4AU     LIG 1766  28.727  35.453  10.324
    4AU     LIG 1767  28.875  35.372  10.775
    4AU    AUSL 1768  26.940  35.510   8.360
    4AU    AUSL 1769  26.801  35.896   8.280
    4AU     AUL 1770  26.861  35.879   8.702
    4AU       S 1771  27.012  35.512   8.505
    4AU     LIG 1772  27.043  35.143   8.747
    4AU     LIG 1773  27.247  35.007   9.181
    4AU     LIG 1774  27.392  34.979   9.656
    4AU     LIG 1775  27.398  34.932  10.143
    4AU     LIG 1776  27.479  34.813  10.599
    4AU     LIG 1777  27.655  34.874  11.030
    4AU       S 1778  26.520  35.598   8.626
    4AU     LIG 1779  26.419  35.501   9.087
    4AU     LIG 1780  26.194  35.436   9.499
    4AU     LIG 1781  25.956  35.441   9.906
    4AU     LIG 1782  25.887  35.725  10.282
    4AU     LIG 1783  25.953  35.994  10.672
    4AU     LIG 1784  25.886  36.203  11.090
    4AU    AUSL 1785  27.188  35.997   8.290
    4AU    AUSL 1786  27.525  35.894   7.973
    4AU     AUL 1787  27.514  35.727   8.287
    4AU       S 1788  27.219  36.040   8.463
    4AU     LIG 1789  27.447  36.113   8.856
    4AU     LIG 1790  27.508  36.245   9.324
    4AU     LIG 1791  27.424  36.346   9.800
    4AU     LIG 1792  27.345  36.450  10.262
    4AU     LIG 1793  27.499  36.384  10.696
    4AU     LIG 1794  27.805  36.495  11.035
    4AU       S 1795  27.813  35.954   8.020
    4AU     LIG 1796  27.987  35.924   8.440
    4AU     LIG 1797  28.270  36.195   8.689
    4AU     LIG 1798  28.517  36.341   9.071
    4AU     LIG 1799  28.727  36.477   9.482
    4AU     LIG 1800  29.088  36.698   9.695
    4AU     LIG 1801  29.420  36.942   9.941
    4AU    AUSL 1802  27.419  35.710   6.876
    4AU    AUSL 1803  27.182  36.102   6.825
    4AU     AUL 1804  27.566  36.060   6.472
    4AU       S 1805  27.445  35.733   6.715
    4AU     LIG 1806  27.733  35.623   6.322
    4AU     LIG 1807  27.764  35.444   5.903
    4AU     LIG 1808  27.898  35.340   5.452
    4AU     LIG 1809  28.272  35.231   5.142
    4AU     LIG 1810  28.658  35.199   4.837
    4AU     LIG 1811  28.929  35.193   4.438
    4AU       S 1812  27.190  36.155   6.666
    4AU     LIG 1813  27.519  36.527   6.592
    4AU     LIG 1814  27.853  36.598   6.212
    4AU     LIG 1815  28.033  36.758   5.741
    4AU     LIG 1816  28.163  36.992   5.293
    4AU     LIG 1817  28.389  37.339   4.990
    4AU     LIG 1818  28.719  37.561   4.688
    4AU    AUSL 1819  27.157  35.392   6.728
    4AU    AUSL 1820  27.483  35.336   7.024
    4AU     AUL 1821  27.598  35.332   6.696
    4AU       S 1822  27.531  34.912   6.870
    4AU     LIG 1823  27.700  34.793   6.450
    4AU     LIG 1824  27.954  34.405   6.322
    4AU     LIG 1825  28.183  34.072   6.065
    4AU     LIG 1826  28.563  33.997   5.767
    4AU     LIG 1827  28.950  33.993   5.463
    4AU     LIG 1828  29.298  33.924   5.128
    4AU       S 1829  27.257  35.589   6.459
    4AU     LIG 1830  27.369  35.217   6.253
    4AU     LIG 1831  27.433  35.065   5.810
    4AU     LIG 1832  27.474  35.061   5.334
    4AU     LIG 1833  27.474  34.874   4.900
    4AU     LIG 1834  27.499  34.696   4.461
    4AU     LIG 1835  27.700  34.637   4.045
    4AU    AUSL 1836  27.009  35.745   6.893
    4AU    AUSL 1837  26.760  35.497   6.677
    4AU     AUL 1838  26.950  35.266   6.583
    4AU       S 1839  26.720  35.592   6.344
    4AU     LIG 1840  26.628  35.222   6.122
    4AU     LIG 1841  26.363  35.068   5.745
    4AU     LIG 1842  26.113  34.962   5.340
    4AU     LIG 1843  25.853  34.801   4.964
    4AU     LIG 1844  25.888  34.646   4.504
    4AU     LIG 1845  25.768  34.556   4.050
    4AU       S 1846  27.163  35.711   6.501
    4AU     LIG 1847  27.273  35.672   5.989
    4AU     LIG 1848  27.394  35.530   5.553
    4AU     LIG 1849  27.469  35.546   5.086
    4AU     LIG 1850  27.404  35.792   4.671
    4AU     LIG 1851  27.524  36.038   4.284
    4AU     LIG 1852  27.764  36.279   3.941
    4AU    AUSL 1853  26.419  35.779   8.212
    4AU    AUSL 1854  26.561  36.185   8.128
    4AU     AUL 1855  26.600  36.113   8.427
    4AU       S 1856  26.359  35.772   8.646
    4AU     LIG 1857  26.046  35.428   8.728
    4AU     LIG 1858  25.857  35.274   9.144
    4AU     LIG 1859  25.638  35.212   9.571
    4AU     LIG 1860  25.422  35.203   9.999
    4AU     LIG 1861  25.051  35.258  10.318
    4AU     LIG 1862  24.856  35.337  10.734
    4AU       S 1863  26.142  36.144   8.353
    4AU     LIG 1864  26.214  36.256   8.771
    4AU     LIG 1865  26.133  36.603   9.065
    4AU     LIG 1866  25.982  36.947   9.343
    4AU     LIG 1867  25.657  37.165   9.616
    4AU     LIG 1868  25.563  37.405  10.028
    4AU     LIG 1869  25.489  37.727  10.378
    4AU    AUSL 1870  26.718  35.572   8.029
    4AU    AUSL 1871  26.214  35.498   7.998
    4AU     AUL 1872  26.220  35.605   8.241
    4AU       S 1873  26.049  35.152   8.192
    4AU     LIG 1874  25.650  35.013   8.020
    4AU     LIG 1875  25.317  34.732   8.203
    4AU     LIG 1876  25.104  34.488   8.551
    4AU     LIG 1877  24.875  34.195   8.835
    4AU     LIG 1878  24.667  33.981   9.199
    4AU     LIG 1879  24.322  33.995   9.527
    4AU       S 1880  26.534  35.490   8.583
    4AU     LIG 1881  26.449  35.097   8.763
    4AU     LIG 1882  26.289  34.999   9.212
    4AU     LIG 1883  26.074  34.956   9.652
    4AU     LIG 1884  25.848  34.830  10.062
    4AU     LIG 1885  25.878  34.636  10.513
    4AU     LIG 1886  25.821  34.509  10.971
    4AU    AUSL 1887  26.479  35.658   6.918
    4AU    AUSL 1888  26.612  35.227   6.939
    4AU     AUL 1889  26.436  35.348   6.640
    4AU       S 1890  26.502  35.685   6.308
    4AU     LIG 1891  26.189  35.481   6.027
    4AU     LIG 1892  25.931  35.348   5.633
    4AU     LIG 1893  25.607  35.105   5.348
    4AU     LIG 1894  25.261  35.123   5.020
    4AU     LIG 1895  25.064  35.241   4.616
    4AU     LIG 1896  24.902  35.460   4.231
    4AU       S 1897  26.174  34.961   6.795
    4AU     LIG 1898  25.980  34.553   6.766
    4AU     LIG 1899  25.705  34.289   6.485
    4AU     LIG 1900  25.444  34.065   6.148
    4AU     LIG 1901  25.223  33.988   5.725
    4AU     LIG 1902  25.195  33.809   5.279
    4AU     LIG 1903  25.191  33.427   4.978
    4AU    AUSL 1904  26.719  35.930   6.678
    4AU    AUSL 1905  26.224  35.973   6.972
    4AU     AUL 1906  26.303  35.813   6.692
    4AU       S 1907  26.127  36.238   6.756
    4AU     LIG 1908  25.918  36.267   6.321
    4AU     LIG 1909  25.727  36.496   5.927
    4AU     LIG 1910  25.543  36.569   5.481
    4AU     LIG 1911  25.230  36.694   5.142
    4AU     LIG 1912  24.799  36.835   4.979
    4AU     LIG 1913  24.351  36.988   4.901
    4AU       S 1914  26.717  35.856   6.448
    4AU     LIG 1915  26.747  35.748   5.892
    4AU     LIG 1916  26.438  35.562   5.571
    4AU     LIG 1917  26.256  35.665   5.138
    4AU     LIG 1918  26.182  35.947   4.740
    4AU     LIG 1919  26.001  36.016   4.293
    4AU     LIG 1920  25.876  36.127   3.840
    4AU    AUSL 1921  27.491  36.298   7.425
    4AU    AUSL 1922  27.517  36.045   7.086
    4AU     AUL 1923  27.656  36.506   7.227
    4AU       S 1924  27.656  36.136   6.915
    4AU     LIG 1925  28.007  35.958   6.715
    4AU     LIG 1926  28.270  36.197   6.378
    4AU     LIG 1927  28.653  36.219   6.058
    4AU     LIG 1928  28.965  36.385   5.722
    4AU     LIG 1929  29.285  36.599   5.433
    4AU     LIG 1930  29.450  36.831   5.048
    4AU       S 1931  27.965  36.162   7.333
    4AU     LIG 1932  28.466  36.183   7.455
    4AU     LIG 1933  28.983  36.246   7.483
    4AU     LIG 1934  29.480  36.284   7.517
    4AU     LIG 1935  29.857  36.614   7.518
    4AU     LIG 1936  30.067  37.074   7.502
    4AU     LIG 1937  30.203  37.550   7.568
    4AU    AUSL 1938  27.711  35.730   7.250
    4AU    AUSL 1939  27.698  35.577   7.666
    4AU     AUL 1940  27.989  35.487   7.441
    4AU       S 1941  27.916  35.926   7.304
    4AU     LIG 1942  28.321  35.786   7.159
    4AU     LIG 1943  28.802  35.849   7.215
    4AU     LIG 1944  29.287  35.965   7.141
    4AU     LIG 1945  29.772  36.064   7.134
    4AU     LIG 1946  30.230  36.183   7.149
    4AU     LIG 1947  30.419  36.580   6.967
    4AU       S 1948  27.980  35.089   7.731
    4AU     LIG 1949  28.405  35.161   7.723
    4AU     LIG 1950  28.810  34.956   7.808
    4AU     LIG 1951  29.132  34.637   7.825
    4AU     LIG 1952  29.561  34.525   8.003
    4AU     LIG 1953  30.004  34.694   7.947
    4AU     LIG 1954  30.470  34.548   7.967
    4AU    AUSL 1955  27.499  35.913   7.566
    4AU    AUSL 1956  27.404  36.262   7.823
    4AU     AUL 1957  27.664  36.241   7.682
    4AU       S 1958  27.645  36.151   8.119
    4AU     LIG 1959  28.072  36.374   8.170
    4AU     LIG 1960  28.234  36.686   8.489
    4AU     LIG 1961  28.357  37.142   8.590
    4AU     LIG 1962  28.683  37.455   8.724
    4AU     LIG 1963  28.925  37.774   8.986
    4AU     LIG 1964  28.799  38.229   9.072
    4AU       S 1965  27.993  35.950   7.565
    4AU     LIG 1966  28.392  35.718   7.673
    4AU     LIG 1967  28.857  35.835   7.749
    4AU     LIG 1968  29.319  35.935   7.875
    4AU     LIG 1969  29.805  35.975   7.987
    4AU     LIG 1970  30.233  36.231   7.904
    4AU     LIG 1971  30.426  36.669   7.917
    4AU    AUSL 1972  26.220  36.256   7.576
    4AU    AUSL 1973  26.265  36.002   7.912
    4AU     AUL 1974  26.232  36.462   7.821
    4AU       S 1975  26.064  36.084   8.091
    4AU     LIG 1976  25.698  36.332   8.328
    4AU     LIG 1977  25.705  36.465   8.788
    4AU     LIG 1978  25.564  36.707   9.178
    4AU     LIG 1979  25.241  36.802   9.528
    4AU     LIG 1980  24.788  36.808   9.712
    4AU     LIG 1981  24.370  36.978   9.872
    4AU       S 1982  25.842  36.270   7.679
    4AU     LIG 1983  25.766  36.700   7.518
    4AU     LIG 1984  25.407  37.053   7.487
    4AU     LIG 1985  25.007  37.368   7.513
    4AU     LIG 1986  24.618  37.659   7.641
    4AU     LIG 1987  24.166  37.860   7.671
    4AU     LIG 1988  23.738  38.068   7.762
    4AU    AUSL 1989  26.291  35.918   7.362
    4AU    AUSL 1990  26.384  36.324   7.205
    4AU     AUL 1991  26.095  36.252   7.238
    4AU       S 1992  25.724  36.187   7.524
    4AU     LIG 1993  25.365  35.998   7.264
    4AU     LIG 1994  25.007  36.091   6.919
    4AU     LIG 1995  24.726  36.368   6.624
    4AU     LIG 1996  24.258  36.503   6.592
    4AU     LIG 1997  23.793  36.589   6.618
    4AU     LIG 1998  23.399  36.383   6.491
    4AU       S 1999  26.216  36.481   6.834
    4AU     LIG 2000  26.119  36.719   6.440
    4AU     LIG 2001  25.901  36.986   6.101
    4AU     LIG 2002  25.672  37.407   6.011
    4AU     LIG 2003  25.299  37.722   6.000
    4AU     LIG 2004  24.955  38.044   5.890
    4AU     LIG 2005  24.812  38.475   5.706
    4AU    AUSL 2006  26.014  35.834   7.656
    4AU    AUSL 2007  26.051  35.597   7.304
    4AU     AUL 2008  25.888  35.854   7.262
    4AU       S 2009  25.704  35.403   7.416
    4AU     LIG 2010  25.384  35.412   7.787
    4AU     LIG 2011  24.899  35.472   7.775
    4AU     LIG 2012  24.455  35.276   7.754
    4AU     LIG 2013  24.108  34.962   7.620
    4AU     LIG 2014  23.704  35.003   7.376
    4AU     LIG 2015  23.261  34.855   7.265
    4AU       S 2016  25.825  35.861   7.738
    4AU     LIG 2017  25.478  36.016   7.967
    4AU     LIG 2018  25.045  36.178   8.115
    4AU     LIG 2019  24.660  36.357   8.346
    4AU     LIG 2020  24.198  36.444   8.342
    4AU     LIG 2021  23.762  36.544   8.404
    4AU     LIG 2022  23.327  36.464   8.360
    4AU    AUSL 2023  27.552  35.188   7.583
    4AU    AUSL 2024  27.505  35.390   7.967
    4AU     AUL 2025  27.809  35.461   7.925
    4AU       S 2026  27.705  34.917   7.558
    4AU     LIG 2027  27.966  34.603   7.745
    4AU     LIG 2028  28.424  34.625   7.663
    4AU     LIG 2029  28.811  34.408   7.498
    4AU     LIG 2030  29.131  34.041   7.502
    4AU     LIG 2031  29.462  33.688   7.408
    4AU     LIG 2032  29.901  33.639   7.227
    4AU       S 2033  27.534  35.086   8.041
    4AU     LIG 2034  27.905  34.820   8.234
    4AU     LIG 2035  27.907  34.436   8.533
    4AU     LIG 2036  28.140  34.124   8.826
    4AU     LIG 2037  28.481  34.029   9.168
    4AU     LIG 2038  28.828  34.040   9.516
    4AU     LIG 2039  29.092  34.027   9.924
    4AU    AUSL 2040  27.403  35.511   7.379
    4AU    AUSL 2041  27.322  35.044   7.279
    4AU     AUL 2042  27.673  35.247   7.202
    4AU       S 2043  27.744  35.097   7.616
    4AU     LIG 2044  28.165  34.978   7.302
    4AU     LIG 2045  28.690  34.905   7.308
    4AU     LIG 2046  29.152  34.683   7.213
    4AU     LIG 2047  29.654  34.643   7.071
    4AU     LIG 2048  30.143  34.681   6.977
    4AU     LIG 2049  30.596  34.552   7.089
    4AU       S 2050  27.565  34.805   7.070
    4AU     LIG 2051  27.621  34.415   6.789
    4AU     LIG 2052  27.755  34.009   6.588
    4AU     LIG 2053  27.936  33.620   6.380
    4AU     LIG 2054  28.125  33.175   6.431
    4AU     LIG 2055  28.395  32.870   6.190
    4AU     LIG 2056  28.725  32.548   6.138
    4AU    AUSL 2057  26.155  35.216   7.470
    4AU    AUSL 2058  26.246  35.355   7.055
    4AU     AUL 2059  25.965  35.438   7.023
    4AU       S 2060  26.165  35.025   7.027
    4AU     LIG 2061  25.686  35.025   6.949
    4AU     LIG 2062  25.454  34.695   6.720
    4AU     LIG 2063  25.211  34.466   6.384
    4AU     LIG 2064  24.938  34.184   6.114
    4AU     LIG 2065  24.670  34.121   5.717
    4AU     LIG 2066  24.263  34.043   5.453
    4AU       S 2067  25.867  35.192   7.410
    4AU     LIG 2068  25.498  34.960   7.522
    4AU     LIG 2069  25.033  35.022   7.544
    4AU     LIG 2070  24.583  34.859   7.452
    4AU     LIG 2071  24.228  34.499   7.447
    4AU     LIG 2072  23.900  34.155   7.524
    4AU     LIG 2073  23.528  33.895   7.508
    4AU    AUSL 2074  26.317  35.570   7.622
    4AU    AUSL 2075  26.397  35.181   7.805
    4AU     AUL 2076  26.020  35.382   7.799
    4AU       S 2077  26.153  34.970   7.936
    4AU     LIG 2078  25.941  34.685   7.732
    4AU     LIG 2079  25.620  34.410   7.944
    4AU     LIG 2080  25.285  34.153   8.204
    4AU     LIG 2081  25.024  33.838   8.478
    4AU     LIG 2082  24.858  33.413   8.658
    4AU     LIG 2083  24.504  33.079   8.655
    4AU       S 2084  25.746  35.462   7.452
    4AU     LIG 2085  25.222  35.471   7.314
    4AU     LIG 2086  24.724  35.369   7.295
    4AU     LIG 2087  24.237  35.339   7.296
    4AU     LIG 2088  23.903  35.405   7.639
    4AU     LIG 2089  23.574  35.153   7.864
    4AU     LIG 2090  23.269  34.798   7.773
    4AU    AUSL 2091  26.909  36.369   8.019
    4AU    AUSL 2092  26.589  36.168   7.724
    4AU     AUL 2093  26.613  36.478   8.095
    4AU       S 2094  26.212  36.309   8.249
    4AU     LIG 2095  26.083  36.669   8.489
    4AU     LIG 2096  25.871  36.957   8.804
    4AU     LIG 2097  25.681  37.275   9.087
    4AU     LIG 2098  25.545  37.694   9.243
    4AU     LIG 2099  25.255  38.064   9.298
    4AU     LIG 2100  24.865  38.256   9.490
    4AU       S 2101  26.981  36.766   7.970
    4AU     LIG 2102  27.174  36.839   8.344
    4AU     LIG 2103  27.322  37.260   8.499
    4AU     LIG 2104  27.359  37.682   8.719
    4AU     LIG 2105  27.241  37.936   9.115
    4AU     LIG 2106  27.119  38.225   9.478
    4AU     LIG 2107  26.931  38.531   9.783
    4AU    AUSL 2108  26.674  36.551   7.654
    4AU    AUSL 2109  27.111  36.525   7.264
    4AU     AUL 2110  26.803  36.782   7.416
    4AU       S 2111  26.829  36.846   7.871
    4AU     LIG 2112  26.981  37.263   8.095
    4AU     LIG 2113  27.091  37.703   8.270
    4AU     LIG 2114  26.878  38.149   8.376
    4AU     LIG 2115  26.552  38.551   8.357
    4AU     LIG 2116  26.420  39.034   8.379
    4AU     LIG 2117  26.376  39.422   8.662
    4AU       S 2118  27.149  36.866   7.093
    4AU     LIG 2119  27.476  37.180   6.959
    4AU     LIG 2120  27.602  37.636   6.860
    4AU     LIG 2121  27.823  38.041   6.702
    4AU     LIG 2122  27.951  38.488   6.718
    4AU     LIG 2123  27.920  38.978   6.783
    4AU     LIG 2124  27.766  39.390   6.603
    4AU    AUSL 2125  27.066  36.389   7.642
    4AU    AUSL 2126  27.086  36.024   7.907
    4AU     AUL 2127  27.231  36.394   8.057
    4AU       S 2128  27.614  36.185   8.233
    4AU     LIG 2129  27.792  36.397   8.599
    4AU     LIG 2130  28.038  36.562   8.972
    4AU     LIG 2131  28.220  36.597   9.411
    4AU     LIG 2132  28.431  36.819   9.771
    4AU     LIG 2133  28.382  37.245   9.989
    4AU     LIG 2134  28.409  37.689  10.167
    4AU       S 2135  27.161  36.705   7.716
    4AU     LIG 2136  27.425  37.052   7.945
    4AU     LIG 2137  27.589  37.497   8.124
    4AU     LIG 2138  27.734  37.904   8.359
    4AU     LIG 2139  27.830  38.386   8.373
    4AU     LIG 2140  28.051  38.805   8.460
    4AU     LIG 2141  27.985  39.287   8.467
    4AU    AUSL 2142  26.827  35.138   7.938
    4AU    AUSL 2143  27.186  35.257   7.741
    4AU     AUL 2144  27.021  35.021   8.201
    4AU       S 2145  26.849  34.595   8.031
    4AU     LIG 2146  26.953  34.255   8.268
    4AU     LIG 2147  26.649  33.912   8.226
    4AU     LIG 2148  26.556  33.460   8.245
    4AU     LIG 2149  26.537  33.120   8.584
    4AU     LIG 2150  26.557  32.922   9.025
    4AU     LIG 2151  26.625  32.676   9.428
    4AU       S 2152  27.463  34.883   7.963
    4AU     LIG 2153  27.591  34.421   8.101
    4AU     LIG 2154  27.741  33.987   8.321
    4AU     LIG 2155  27.839  33.548   8.539
    4AU     LIG 2156  28.038  33.124   8.666
    4AU     LIG 2157  28.329  32.820   8.875
    4AU     LIG 2158  28.616  32.440   8.913
    4AU    AUSL 2159  26.651  34.894   7.668
    4AU    AUSL 2160  26.536  35.261   8.196
    4AU     AUL 2161  26.583  34.957   8.074
    4AU       S 2162  26.580  34.601   7.794
    4AU     LIG 2163  26.334  34.269   7.676
    4AU     LIG 2164  26.332  33.812   7.790
    4AU     LIG 2165  26.099  33.418   7.953
    4AU     LIG 2166  25.796  33.030   8.012
    4AU     LIG 2167  25.758  32.624   8.270
    4AU     LIG 2168  25.834  32.136   8.298
    4AU       S 2169  26.214  35.113   8.281
    4AU     LIG 2170  25.951  34.676   8.290
    4AU     LIG 2171  25.625  34.413   8.487
    4AU     LIG 2172  25.387  34.089   8.738
    4AU     LIG 2173  25.132  33.780   9.002
    4AU     LIG 2174  25.014  33.663   9.443
    4AU     LIG 2175  25.001  33.397   9.834
    4AU    AUSL 2176  27.085  34.868   7.718
    4AU    AUSL 2177  26.599  34.888   7.261
    4AU     AUL 2178  26.910  34.615   7.478
    4AU       S 2179  26.505  34.588   7.168
    4AU     LIG 2180  26.164  34.282   7.184
    4AU     LIG 2181  26.167  33.824   7.280
    4AU     LIG 2182  26.058  33.381   7.100
    4AU     LIG 2183  25.829  32.935   7.053
    4AU     LIG 2184  25.771  32.464   6.944
    4AU     LIG 2185  25.874  32.110   6.617
    4AU       S 2186  26.972  34.659   7.918
    4AU     LIG 2187  26.854  34.173   7.764
    4AU     LIG 2188  26.844  33.691   7.809
    4AU     LIG 2189  27.006  33.285   8.014
    4AU     LIG 2190  27.218  32.890   8.181
    4AU     LIG 2191  27.406  32.493   8.346
    4AU     LIG 2192  27.427  32.078   8.585
    4AU    AUSL 2193  26.875  36.336   6.950
    4AU    AUSL 2194  27.166  36.124   7.257
    4AU     AUL 2195  27.254  36.429   7.009
    4AU       S 2196  26.920  36.629   6.757
    4AU     LIG 2197  27.221  36.941   6.573
    4AU     LIG 2198  27.328  37.388   6.464
    4AU     LIG 2199  27.315  37.684   6.075
    4AU     LIG 2200  27.279  37.894   5.627
    4AU     LIG 2201  27.222  38.295   5.361
    4AU     LIG 2202  27.166  38.732   5.168
    4AU       S 2203  27.606  36.130   6.974
    4AU     LIG 2204  27.986  36.467   6.810
    4AU     LIG 2205  28.263  36.728   6.511
    4AU     LIG 2206  28.526  37.113   6.352
    4AU     LIG 2207  28.913  37.381   6.243
    4AU     LIG 2208  29.154  37.798   6.168
    4AU     LIG 2209  29.174  38.253   6.071
    4AU    AUSL 2210  26.765  36.311   7.344
    4AU    AUSL 2211  26.627  36.037   7.053
    4AU     AUL 2212  26.602  36.511   7.092
    4AU       S 2213  26.955  36.799   6.985
    4AU     LIG 2214  26.982  37.293   6.864
    4AU     LIG 2215  27.073  37.767   6.741
    4AU     LIG 2216  26.895  38.244   6.673
    4AU     LIG 2217  26.684  38.713   6.609
    4AU     LIG 2218  26.550  39.164   6.400
    4AU     LIG 2219  26.409  39.572   6.132
    4AU       S 2220  26.442  36.299   6.708
    4AU     LIG 2221  26.426  36.324   6.271
    4AU     LIG 2222  26.225  36.608   5.925
    4AU     LIG 2223  25.999  36.811   5.531
    4AU     LIG 2224  25.871  37.021   5.091
    4AU     LIG 2225  25.733  37.422   4.831
    4AU     LIG 2226  25.486  37.806   4.666
    4AU    AUSL 2227  26.931  34.983   6.996
    4AU    AUSL 2228  26.533  35.272   7.342
    4AU     AUL 2229  26.616  34.978   6.915
    4AU       S 2230  26.139  34.905   7.123
    4AU     LIG 2231  25.801  34.632   7.239
    4AU     LIG 2232  25.583  34.278   6.997
    4AU     LIG 2233  25.292  34.040   6.667
    4AU     LIG 2234  25.132  33.686   6.360
    4AU     LIG 2235  25.026  33.196   6.267
    4AU     LIG 2236  24.663  32.876   6.179
    4AU       S 2237  26.752  34.560   7.030
    4AU     LIG 2238  26.466  34.296   6.772
    4AU     LIG 2239  26.286  33.872   6.781
    4AU     LIG 2240  26.412  33.426   6.678
    4AU     LIG 2241  26.626  33.127   6.355
    4AU     LIG 2242  26.662  32.944   5.897
    4AU     LIG 2243  26.680  32.569   5.601
    4AU    AUSL 2244  26.937  35.071   7.405
    4AU    AUSL 2245  27.070  35.340   7.111
    4AU     AUL 2246  27.113  34.849   7.155
    4AU       S 2247  26.519  34.684   7.275
    4AU     LIG 2248  26.640  34.136   7.287
    4AU     LIG 2249  26.645  33.675   7.107
    4AU     LIG 2250  26.848  33.262   6.913
    4AU     LIG 2251  26.979  32.837   6.734
    4AU     LIG 2252  27.312  32.482   6.780
    4AU     LIG 2253  27.474  32.007   6.815
    4AU       S 2254  27.334  34.956   6.769
    4AU     LIG 2255  27.207  34.629   6.548
    4AU     LIG 2256  27.449  34.328   6.287
    4AU     LIG 2257  27.674  33.971   6.081
    4AU     LIG 2258  27.822  33.662   5.760
    4AU     LIG 2259  27.929  33.466   5.337
    4AU     LIG 2260  28.140  33.423   4.911
    5AU     AUC 2261  32.803  24.604   7.499
    5AU     AUC 2262  33.064  24.606   7.337
    5AU     AUC 2263  33.058  24.598   7.648
    5AU     AUC 2264  32.552  24.604   7.333
    5AU     AUC 2265  32.542  24.623   7.649
    5AU     AUC 2266  32.652  24.861   7.496
    5AU     AUC 2267  32.964  24.858   7.483
    5AU     AUC 2268  32.650  24.348   7.510
    5AU     AUC 2269  32.944  24.350   7.520
    5AU     AUC 2270  32.796  24.457   7.761
    5AU     AUC 2271  32.817  24.770   7.752
    5AU     AUC 2272  32.803  24.440   7.243
    5AU     AUC 2273  32.794  24.743   7.236
    5AU     AUC 2274  33.312  24.599   7.173
    5AU     AUC 2275  33.321  24.608   7.485
    5AU     AUC 2276  33.317  24.600   7.794
    5AU     AUC 2277  32.294  24.592   7.180
    5AU     AUC 2278  32.285  24.618   7.487
    5AU     AUC 2279  32.294  24.639   7.808
    5AU     AUC 2280  32.508  25.126   7.499
    5AU     AUC 2281  32.818  25.126   7.491
    5AU     AUC 2282  33.112  25.121   7.485
    5AU     AUC 2283  32.472  24.093   7.519
    5AU     AUC 2284  32.787  24.082   7.509
    5AU     AUC 2285  33.101  24.085   7.527
    5AU     AUC 2286  32.782  24.305   8.016
    5AU     AUC 2287  32.805  24.617   8.025
    5AU     AUC 2288  32.824  24.924   8.013
    5AU     AUC 2289  32.806  24.265   7.004
    5AU     AUC 2290  32.811  24.582   6.975
    5AU     AUC 2291  32.791  24.891   6.973
    5AU     AUC 2292  33.070  24.459   7.923
    5AU     AUC 2293  33.074  24.752   7.914
    5AU     AUC 2294  33.075  24.433   7.082
    5AU     AUC 2295  33.073  24.740   7.068
    5AU     AUC 2296  32.532  24.475   7.924
    5AU     AUC 2297  32.553  24.785   7.924
    5AU     AUC 2298  32.554  24.440   7.068
    5AU     AUC 2299  32.541  24.745   7.074
    5AU     AUC 2300  33.217  24.869   7.315
    5AU     AUC 2301  33.233  24.851   7.634
    5AU     AUC 2302  32.383  24.861   7.345
    5AU     AUC 2303  32.396  24.884   7.664
    5AU     AUC 2304  33.216  24.339   7.349
    5AU     AUC 2305  33.219  24.345   7.667
    5AU     AUC 2306  32.381  24.349   7.337
    5AU     AUC 2307  32.384  24.363   7.679
    5AU     AUC 2308  32.657  25.026   7.765
    5AU     AUC 2309  32.976  25.032   7.735
    5AU     AUC 2310  32.627  24.185   7.758
    5AU     AUC 2311  32.945  24.197   7.787
    5AU     AUC 2312  32.641  25.014   7.233
    5AU     AUC 2313  32.958  25.005   7.217
    5AU     AUC 2314  32.632  24.189   7.244
    5AU     AUC 2315  32.960  24.176   7.268
    5AU    AUSL 2316  33.154  24.554   8.090
    5AU    AUSL 2317  33.109  24.136   8.137
    5AU     AUL 2318  33.344  24.214   8.400
    5AU       S 2319  33.396  23.849   8.068
    5AU     LIG 2320  33.325  23.682   8.463
    5AU     LIG 2321  33.349  23.248   8.613
    5AU     LIG 2322  33.602  22.956   8.877
    5AU     LIG 2323  33.887  22.715   9.174
    5AU     LIG 2324  33.887  22.493   9.600
    5AU     LIG 2325  33.982  22.273  10.011
    5AU       S 2326  33.206  24.581   8.656
    5AU     LIG 2327  33.437  24.263   8.905
    5AU     LIG 2328  33.685  24.072   9.272
    5AU     LIG 2329  33.921  23.928   9.672
    5AU     LIG 2330  34.311  23.961   9.956
    5AU     LIG 2331  34.705  24.112  10.210
    5AU     LIG 2332  35.008  24.263  10.542
    5AU    AUSL 2333  32.875  24.405   8.352
    5AU    AUSL 2334  32.736  24.792   8.278
    5AU     AUL 2335  32.795  24.770   8.697
    5AU       S 2336  32.948  24.403   8.501
    5AU     LIG 2337  33.002  24.020   8.727
    5AU     LIG 2338  33.231  23.840   9.137
    5AU     LIG 2339  33.410  23.780   9.611
    5AU     LIG 2340  33.470  23.748  10.109
    5AU     LIG 2341  33.524  23.806  10.596
    5AU     LIG 2342  33.712  23.794  11.034
    5AU       S 2343  32.450  24.492   8.624
    5AU     LIG 2344  32.313  24.407   9.085
    5AU     LIG 2345  32.130  24.315   9.516
    5AU     LIG 2346  31.988  24.352   9.965
    5AU     LIG 2347  32.001  24.657  10.348
    5AU     LIG 2348  31.841  24.980  10.681
    5AU     LIG 2349  31.683  25.189  11.090
    5AU    AUSL 2350  33.120  24.909   8.283
    5AU    AUSL 2351  33.457  24.805   7.965
    5AU     AUL 2352  33.446  24.639   8.280
    5AU       S 2353  33.149  24.945   8.460
    5AU     LIG 2354  33.312  25.086   8.856
    5AU     LIG 2355  33.487  25.315   9.257
    5AU     LIG 2356  33.476  25.431   9.746
    5AU     LIG 2357  33.580  25.470  10.233
    5AU     LIG 2358  33.597  25.555  10.706
    5AU     LIG 2359  33.529  25.455  11.170
    5AU       S 2360  33.738  24.864   8.001
    5AU     LIG 2361  33.920  24.804   8.414
    5AU     LIG 2362  34.174  25.051   8.714
    5AU     LIG 2363  34.450  25.353   8.945
    5AU     LIG 2364  34.714  25.630   9.223
    5AU     LIG 2365  35.093  25.669   9.515
    5AU     LIG 2366  35.385  25.862   9.837
    5AU    AUSL 2367  33.340  24.634   6.860
    5AU    AUSL 2368  33.100  25.025   6.821
    5AU     AUL 2369  33.480  24.998   6.464
    5AU       S 2370  33.360  24.661   6.695
    5AU     LIG 2371  33.670  24.566   6.317
    5AU     LIG 2372  33.705  24.370   5.900
    5AU     LIG 2373  33.833  24.218   5.462
    5AU     LIG 2374  34.200  24.080   5.164
    5AU     LIG 2375  34.534  24.036   4.809
    5AU     LIG 2376  34.926  24.099   4.526
    5AU       S 2377  33.106  25.083   6.666
    5AU     LIG 2378  33.384  25.464   6.594
    5AU     LIG 2379  33.722  25.513   6.267
    5AU     LIG 2380  34.047  25.696   5.947
    5AU     LIG 2381  34.339  25.759   5.547
    5AU     LIG 2382  34.511  26.017   5.162
    5AU     LIG 2383  34.448  26.429   4.921
    5AU    AUSL 2384  33.078  24.313   6.715
    5AU    AUSL 2385  33.414  24.262   7.006
    5AU     AUL 2386  33.514  24.259   6.675
    5AU       S 2387  33.488  23.834   6.857
    5AU     LIG 2388  33.659  23.629   6.480
    5AU     LIG 2389  33.903  23.248   6.319
    5AU     LIG 2390  34.157  22.950   6.056
    5AU     LIG 2391  34.512  22.906   5.734
    5AU     LIG 2392  34.813  22.974   5.361
    5AU     LIG 2393  35.109  22.992   4.985
    5AU       S 2394  33.187  24.534   6.435
    5AU     LIG 2395  33.291  24.173   6.216
    5AU     LIG 2396  33.362  24.011   5.770
    5AU     LIG 2397  33.400  23.976   5.291
    5AU     LIG 2398  33.364  23.777   4.844
    5AU     LIG 2399  33.443  23.737   4.371
    5AU     LIG 2400  33.528  23.517   3.957
    5AU    AUSL 2401  32.931  24.665   6.887
    5AU    AUSL 2402  32.678  24.418   6.675
    5AU     AUL 2403  32.860  24.228   6.548
    5AU       S 2404  32.474  24.534   6.342
    5AU     LIG 2405  32.516  24.135   6.144
    5AU     LIG 2406  32.295  23.899   5.772
    5AU     LIG 2407  32.026  23.744   5.386
    5AU     LIG 2408  31.781  23.611   4.972
    5AU     LIG 2409  31.761  23.471   4.490
    5AU     LIG 2410  31.762  23.396   4.001
    5AU       S 2411  33.075  24.652   6.484
    5AU     LIG 2412  33.247  24.637   5.972
    5AU     LIG 2413  33.358  24.472   5.526
    5AU     LIG 2414  33.513  24.445   5.075
    5AU     LIG 2415  33.535  24.626   4.622
    5AU     LIG 2416  33.661  24.797   4.180
    5AU     LIG 2417  33.945  24.984   3.826
    5AU    AUSL 2418  32.354  24.674   8.208
    5AU    AUSL 2419  32.493  25.081   8.130
    5AU     AUL 2420  32.537  25.013   8.426
    5AU       S 2421  32.296  24.669   8.639
    5AU     LIG 2422  31.962  24.347   8.706
    5AU     LIG 2423  31.805  24.177   9.134
    5AU     LIG 2424  31.648  24.117   9.604
    5AU     LIG 2425  31.398  24.026  10.006
    5AU     LIG 2426  31.096  24.152  10.354
    5AU     LIG 2427  30.762  24.411  10.579
    5AU       S 2428  32.079  25.038   8.354
    5AU     LIG 2429  32.139  25.147   8.778
    5AU     LIG 2430  32.115  25.516   9.064
    5AU     LIG 2431  31.895  25.846   9.317
    5AU     LIG 2432  31.808  26.147   9.672
    5AU     LIG 2433  31.603  26.354  10.055
    5AU     LIG 2434  31.345  26.547  10.407
    5AU    AUSL 2435  32.656  24.473   8.021
    5AU    AUSL 2436  32.151  24.394   7.993
    5AU     AUL 2437  32.156  24.500   8.235
    5AU       S 2438  31.993  24.045   8.189
    5AU     LIG 2439  31.591  23.911   8.035
    5AU     LIG 2440  31.254  23.643   8.216
    5AU     LIG 2441  31.039  23.410   8.568
    5AU     LIG 2442  30.790  23.110   8.827
    5AU     LIG 2443  30.525  22.820   9.088
    5AU     LIG 2444  30.121  22.731   9.327
    5AU       S 2445  32.469  24.384   8.579
    5AU     LIG 2446  32.340  23.998   8.771
    5AU     LIG 2447  32.223  23.889   9.226
    5AU     LIG 2448  32.051  23.810   9.674
    5AU     LIG 2449  31.854  23.759  10.104
    5AU     LIG 2450  31.884  23.596  10.556
    5AU     LIG 2451  32.072  23.518  10.991
    5AU    AUSL 2452  32.379  24.569   6.901
    5AU    AUSL 2453  32.553  24.138   6.937
    5AU     AUL 2454  32.386  24.211   6.655
    5AU       S 2455  32.203  24.511   6.369
    5AU     LIG 2456  32.023  24.243   6.077
    5AU     LIG 2457  31.868  24.172   5.656
    5AU     LIG 2458  31.612  24.044   5.285
    5AU     LIG 2459  31.346  24.147   4.914
    5AU     LIG 2460  31.020  24.277   4.588
    5AU     LIG 2461  30.866  24.321   4.131
    5AU       S 2462  32.125  23.837   6.808
    5AU     LIG 2463  31.886  23.452   6.779
    5AU     LIG 2464  31.584  23.175   6.544
    5AU     LIG 2465  31.295  22.918   6.267
    5AU     LIG 2466  31.055  22.729   5.908
    5AU     LIG 2467  30.981  22.568   5.461
    5AU     LIG 2468  30.831  22.364   5.050
    5AU    AUSL 2469  32.640  24.850   6.674
    5AU    AUSL 2470  32.147  24.895   6.976
    5AU     AUL 2471  32.256  24.817   6.689
    5AU       S 2472  31.993  25.190   6.772
    5AU     LIG 2473  31.850  25.210   6.326
    5AU     LIG 2474  31.694  25.455   5.936
    5AU     LIG 2475  31.466  25.568   5.522
    5AU     LIG 2476  31.170  25.735   5.199
    5AU     LIG 2477  30.757  25.874   5.048
    5AU     LIG 2478  30.342  25.937   4.849
    5AU       S 2479  32.609  24.652   6.436
    5AU     LIG 2480  32.728  24.564   5.945
    5AU     LIG 2481  32.362  24.404   5.659
    5AU     LIG 2482  32.084  24.405   5.246
    5AU     LIG 2483  31.961  24.618   4.813
    5AU     LIG 2484  31.825  24.851   4.396
    5AU     LIG 2485  31.718  24.984   3.943
    5AU    AUSL 2486  33.417  25.212   7.419
    5AU    AUSL 2487  33.439  24.968   7.074
    5AU     AUL 2488  33.572  25.430   7.219
    5AU       S 2489  33.585  25.053   6.907
    5AU     LIG 2490  33.945  24.944   6.655
    5AU     LIG 2491  34.148  25.195   6.279
    5AU     LIG 2492  34.454  25.382   5.931
    5AU     LIG 2493  34.785  25.477   5.578
    5AU     LIG 2494  35.219  25.573   5.372
    5AU     LIG 2495  35.568  25.845   5.176
    5AU       S 2496  33.874  25.090   7.337
    5AU     LIG 2497  34.350  25.125   7.485
    5AU     LIG 2498  34.836  25.214   7.523
    5AU     LIG 2499  35.308  25.320   7.550
    5AU     LIG 2500  35.726  25.544   7.488
    5AU     LIG 2501  35.988  25.943   7.612
    5AU     LIG 2502  36.281  26.360   7.635
    5AU    AUSL 2503  33.635  24.653   7.233
    5AU    AUSL 2504  33.636  24.493   7.648
    5AU     AUL 2505  33.921  24.426   7.415
    5AU       S 2506  33.840  24.866   7.295
    5AU     LIG 2507  34.242  24.745   7.161
    5AU     LIG 2508  34.711  24.803   7.234
    5AU     LIG 2509  35.186  24.908   7.256
    5AU     LIG 2510  35.657  25.032   7.283
    5AU     LIG 2511  36.084  25.081   7.103
    5AU     LIG 2512  36.505  25.195   6.938
    5AU       S 2513  33.940  24.023   7.669
    5AU     LIG 2514  34.346  23.812   7.713
    5AU     LIG 2515  34.772  23.591   7.744
    5AU     LIG 2516  35.208  23.378   7.772
    5AU     LIG 2517  35.687  23.317   7.834
    5AU     LIG 2518  36.143  23.218   8.000
    5AU     LIG 2519  36.626  23.170   7.920
    5AU    AUSL 2520  33.429  24.828   7.558
    5AU    AUSL 2521  33.329  25.171   7.818
    5AU     AUL 2522  33.576  25.177   7.688
    5AU       S 2523  33.586  25.059   8.117
    5AU     LIG 2524  34.018  25.259   8.175
    5AU     LIG 2525  34.199  25.531   8.516
    5AU     LIG 2526  34.391  25.851   8.812
    5AU     LIG 2527  34.603  26.278   8.858
    5AU     LIG 2528  34.836  26.696   8.840
    5AU     LIG 2529  35.083  27.011   9.095
    5AU       S 2530  33.894  24.890   7.545
    5AU     LIG 2531  34.202  24.700   7.755
    5AU     LIG 2532  34.676  24.774   7.753
    5AU     LIG 2533  35.155  24.867   7.768
    5AU     LIG 2534  35.631  24.974   7.794
    5AU     LIG 2535  36.084  25.072   7.908
    5AU     LIG 2536  36.569  25.135   7.811
    5AU    AUSL 2537  32.145  25.153   7.578
    5AU    AUSL 2538  32.194  24.901   7.914
    5AU     AUL 2539  32.156  25.359   7.825
    5AU       S 2540  31.989  24.981   8.099
    5AU     LIG 2541  31.646  25.241   8.408
    5AU     LIG 2542  31.654  25.434   8.853
    5AU     LIG 2543  31.507  25.487   9.316
    5AU     LIG 2544  31.187  25.478   9.691
    5AU     LIG 2545  30.813  25.600   9.967
    5AU     LIG 2546  30.489  25.913  10.120
    5AU       S 2547  31.772  25.163   7.676
    5AU     LIG 2548  31.764  25.570   7.448
    5AU     LIG 2549  31.444  25.962   7.429
    5AU     LIG 2550  31.046  26.281   7.464
    5AU     LIG 2551  30.578  26.481   7.490
    5AU     LIG 2552  30.100  26.628   7.582
    5AU     LIG 2553  29.619  26.660   7.744
    5AU    AUSL 2554  32.221  24.818   7.360
    5AU    AUSL 2555  32.311  25.232   7.209
    5AU     AUL 2556  32.022  25.156   7.247
    5AU       S 2557  31.653  25.079   7.533
    5AU     LIG 2558  31.510  25.205   7.110
    5AU     LIG 2559  31.058  25.320   6.894
    5AU     LIG 2560  30.570  25.452   6.784
    5AU     LIG 2561  30.083  25.612   6.720
    5AU     LIG 2562  29.608  25.805   6.694
    5AU     LIG 2563  29.134  25.918   6.606
    5AU       S 2564  32.138  25.408   6.856
    5AU     LIG 2565  32.069  25.654   6.457
    5AU     LIG 2566  31.992  25.988   6.124
    5AU     LIG 2567  31.875  26.437   6.026
    5AU     LIG 2568  31.539  26.775   5.963
    5AU     LIG 2569  31.215  27.086   5.839
    5AU     LIG 2570  31.013  27.275   5.478
    5AU    AUSL 2571  31.947  24.729   7.656
    5AU    AUSL 2572  31.983  24.495   7.300
    5AU     AUL 2573  31.818  24.754   7.264
    5AU       S 2574  31.647  24.298   7.413
    5AU     LIG 2575  31.346  24.299   7.796
    5AU     LIG 2576  30.874  24.195   7.816
    5AU     LIG 2577  30.407  24.039   7.749
    5AU     LIG 2578  30.003  23.906   7.477
    5AU     LIG 2579  29.651  23.615   7.313
    5AU     LIG 2580  29.232  23.506   7.110
    5AU       S 2581  31.754  24.753   7.742
    5AU     LIG 2582  31.444  24.969   8.016
    5AU     LIG 2583  31.053  25.230   8.191
    5AU     LIG 2584  30.583  25.423   8.263
    5AU     LIG 2585  30.102  25.602   8.297
    5AU     LIG 2586  29.621  25.780   8.285
    5AU     LIG 2587  29.193  26.025   8.174
    5AU    AUSL 2588  33.490  24.101   7.572
    5AU    AUSL 2589  33.443  24.312   7.952
    5AU     AUL 2590  33.753  24.367   7.907
    5AU       S 2591  33.641  23.841   7.547
    5AU     LIG 2592  33.906  23.527   7.761
    5AU     LIG 2593  34.334  23.293   7.673
    5AU     LIG 2594  34.787  23.106   7.566
    5AU     LIG 2595  35.254  22.922   7.520
    5AU     LIG 2596  35.535  22.523   7.553
    5AU     LIG 2597  35.937  22.346   7.779
    5AU       S 2598  33.478  24.000   8.028
    5AU     LIG 2599  33.836  23.761   8.255
    5AU     LIG 2600  33.849  23.409   8.581
    5AU     LIG 2601  34.097  23.085   8.847
    5AU     LIG 2602  34.364  22.984   9.241
    5AU     LIG 2603  34.722  23.064   9.569
    5AU     LIG 2604  35.116  22.988   9.828
    5AU    AUSL 2605  33.338  24.423   7.368
    5AU    AUSL 2606  33.264  23.964   7.261
    5AU     AUL 2607  33.610  24.170   7.188
    5AU       S 2608  33.684  24.010   7.598
    5AU     LIG 2609  34.045  23.748   7.280
    5AU     LIG 2610  34.527  23.573   7.279
    5AU     LIG 2611  35.024  23.470   7.293
    5AU     LIG 2612  35.509  23.347   7.333
    5AU     LIG 2613  35.986  23.379   7.186
    5AU     LIG 2614  36.346  23.663   7.032
    5AU       S 2615  33.509  23.726   7.060
    5AU     LIG 2616  33.556  23.296   6.854
    5AU     LIG 2617  33.696  22.893   6.626
    5AU     LIG 2618  33.930  22.574   6.356
    5AU     LIG 2619  34.087  22.133   6.214
    5AU     LIG 2620  34.335  21.747   6.040
    5AU     LIG 2621  34.737  21.653   5.811
    5AU    AUSL 2622  32.094  24.113   7.465
    5AU    AUSL 2623  32.182  24.250   7.056
    5AU     AUL 2624  31.903  24.336   7.017
    5AU       S 2625  32.111  23.927   7.022
    5AU     LIG 2626  31.630  23.917   6.950
    5AU     LIG 2627  31.361  23.613   6.735
    5AU     LIG 2628  31.109  23.382   6.415
    5AU     LIG 2629  30.813  23.113   6.171
    5AU     LIG 2630  30.549  22.843   5.885
    5AU     LIG 2631  30.259  22.784   5.513
    5AU       S 2632  31.806  24.088   7.403
    5AU     LIG 2633  31.440  23.849   7.538
    5AU     LIG 2634  30.968  23.802   7.497
    5AU     LIG 2635  30.513  23.714   7.369
    5AU     LIG 2636  30.138  23.416   7.374
    5AU     LIG 2637  29.800  23.086   7.418
    5AU     LIG 2638  29.564  22.713   7.589
    5AU    AUSL 2639  32.252  24.469   7.617
    5AU    AUSL 2640  32.339  24.080   7.798
    5AU     AUL 2641  31.959  24.272   7.795
    5AU       S 2642  32.090  23.857   7.932
    5AU     LIG 2643  31.846  23.538   7.777
    5AU     LIG 2644  31.510  23.270   7.974
    5AU     LIG 2645  31.174  23.026   8.249
    5AU     LIG 2646  30.917  22.700   8.533
    5AU     LIG 2647  30.661  22.306   8.709
    5AU     LIG 2648  30.545  21.835   8.829
    5AU       S 2649  31.687  24.355   7.446
    5AU     LIG 2650  31.172  24.249   7.318
    5AU     LIG 2651  30.680  24.224   7.331
    5AU     LIG 2652  30.218  24.370   7.416
    5AU     LIG 2653  29.915  24.309   7.789
    5AU     LIG 2654  29.466  24.155   7.887
    5AU     LIG 2655  29.078  23.873   7.856
    5AU    AUSL 2656  32.835  25.274   8.017
    5AU    AUSL 2657  32.515  25.073   7.726
    5AU     AUL 2658  32.538  25.377   8.096
    5AU       S 2659  32.142  25.205   8.255
    5AU     LIG 2660  32.040  25.576   8.515
    5AU     LIG 2661  31.957  25.949   8.810
    5AU     LIG 2662  31.952  26.420   8.961
    5AU     LIG 2663  31.670  26.816   8.947
    5AU     LIG 2664  31.246  27.045   8.982
    5AU     LIG 2665  30.954  27.356   9.210
    5AU       S 2666  32.899  25.670   7.969
    5AU     LIG 2667  33.029  25.770   8.354
    5AU     LIG 2668  33.077  26.207   8.533
    5AU     LIG 2669  32.882  26.576   8.763
    5AU     LIG 2670  32.837  26.965   9.038
    5AU     LIG 2671  32.766  27.314   9.338
    5AU     LIG 2672  32.603  27.493   9.745
    5AU    AUSL 2673  32.595  25.457   7.654
    5AU    AUSL 2674  33.031  25.438   7.262
    5AU     AUL 2675  32.737  25.697   7.420
    5AU       S 2676  32.741  25.752   7.876
    5AU     LIG 2677  32.799  26.181   8.096
    5AU     LIG 2678  32.745  26.648   8.246
    5AU     LIG 2679  32.639  27.136   8.209
    5AU     LIG 2680  32.870  27.537   8.353
    5AU     LIG 2681  32.701  27.965   8.491
    5AU     LIG 2682  32.284  28.154   8.405
    5AU       S 2683  33.054  25.784   7.072
    5AU     LIG 2684  33.392  25.989   6.838
    5AU     LIG 2685  33.480  26.456   6.715
    5AU     LIG 2686  33.746  26.877   6.660
    5AU     LIG 2687  33.897  27.339   6.563
    5AU     LIG 2688  33.802  27.838   6.502
    5AU     LIG 2689  33.651  28.309   6.473
    5AU    AUSL 2690  32.992  25.302   7.641
    5AU    AUSL 2691  33.013  24.931   7.902
    5AU     AUL 2692  33.160  25.303   8.053
    5AU       S 2693  33.544  25.095   8.224
    5AU     LIG 2694  33.718  25.270   8.596
    5AU     LIG 2695  33.933  25.453   8.962
    5AU     LIG 2696  34.193  25.684   9.266
    5AU     LIG 2697  34.232  25.916   9.664
    5AU     LIG 2698  34.255  26.255   9.985
    5AU     LIG 2699  34.351  26.666  10.172
    5AU       S 2700  33.088  25.618   7.719
    5AU     LIG 2701  33.274  26.008   7.963
    5AU     LIG 2702  33.418  26.436   8.168
    5AU     LIG 2703  33.783  26.803   8.208
    5AU     LIG 2704  34.057  27.209   8.338
    5AU     LIG 2705  34.091  27.692   8.422
    5AU     LIG 2706  34.113  28.169   8.476
    5AU    AUSL 2707  32.771  24.041   7.932
    5AU    AUSL 2708  33.124  24.169   7.730
    5AU     AUL 2709  32.967  23.923   8.189
    5AU       S 2710  32.796  23.497   8.014
    5AU     LIG 2711  32.812  23.165   8.277
    5AU     LIG 2712  32.499  22.834   8.260
    5AU     LIG 2713  32.358  22.438   8.441
    5AU     LIG 2714  32.346  21.980   8.508
    5AU     LIG 2715  32.484  21.631   8.788
    5AU     LIG 2716  32.567  21.441   9.214
    5AU       S 2717  33.409  23.789   7.952
    5AU     LIG 2718  33.543  23.352   8.126
    5AU     LIG 2719  33.728  22.958   8.371
    5AU     LIG 2720  33.933  22.609   8.658
    5AU     LIG 2721  34.096  22.163   8.820
    5AU     LIG 2722  34.423  21.807   8.939
    5AU     LIG 2723  34.881  21.666   8.972
    5AU    AUSL 2724  32.598  23.800   7.658
    5AU    AUSL 2725  32.477  24.161   8.189
    5AU     AUL 2726  32.525  23.856   8.062
    5AU       S 2727  32.532  23.496   7.785
    5AU     LIG 2728  32.266  23.163   7.675
    5AU     LIG 2729  32.193  22.716   7.815
    5AU     LIG 2730  32.143  22.270   8.010
    5AU     LIG 2731  31.917  21.886   8.221
    5AU     LIG 2732  31.801  21.470   8.445
    5AU     LIG 2733  31.757  21.005   8.466
    5AU       S 2734  32.157  24.007   8.275
    5AU     LIG 2735  31.884  23.575   8.308
    5AU     LIG 2736  31.548  23.301   8.496
    5AU     LIG 2737  31.296  22.990   8.754
    5AU     LIG 2738  31.046  22.715   9.052
    5AU     LIG 2739  31.029  22.500   9.475
    5AU     LIG 2740  31.018  22.160   9.810
    5AU    AUSL 2741  33.032  23.779   7.706
    5AU    AUSL 2742  32.545  23.792   7.252
    5AU     AUL 2743  32.862  23.528   7.467
    5AU       S 2744  32.454  23.482   7.170
    5AU     LIG 2745  32.108  23.188   7.180
    5AU     LIG 2746  32.133  22.742   7.280
    5AU     LIG 2747  32.126  22.316   7.064
    5AU     LIG 2748  31.860  21.920   6.955
    5AU     LIG 2749  31.629  21.523   6.798
    5AU     LIG 2750  31.733  21.077   6.660
    5AU       S 2751  32.916  23.556   7.910
    5AU     LIG 2752  32.782  23.058   7.772
    5AU     LIG 2753  32.686  22.575   7.862
    5AU     LIG 2754  32.653  22.150   8.118
    5AU     LIG 2755  32.789  21.726   8.357
    5AU     LIG 2756  33.053  21.314   8.504
    5AU     LIG 2757  33.306  20.904   8.674
    5AU    AUSL 2758  32.788  25.251   6.951
    5AU    AUSL 2759  33.091  25.037   7.254
    5AU     AUL 2760  33.169  25.348   7.014
    5AU       S 2761  32.824  25.530   6.759
    5AU     LIG 2762  33.041  25.833   6.496
    5AU     LIG 2763  33.150  26.268   6.345
    5AU     LIG 2764  33.202  26.538   5.943
    5AU     LIG 2765  33.241  26.912   5.642
    5AU     LIG 2766  33.061  27.316   5.458
    5AU     LIG 2767  32.763  27.574   5.183
    5AU       S 2768  33.525  25.059   6.958
    5AU     LIG 2769  33.859  25.433   6.783
    5AU     LIG 2770  34.156  25.676   6.485
    5AU     LIG 2771  34.317  26.076   6.287
    5AU     LIG 2772  34.558  26.489   6.317
    5AU     LIG 2773  34.932  26.659   6.102
    5AU     LIG 2774  34.964  27.048   5.855
    5AU    AUSL 2775  32.691  25.215   7.347
    5AU    AUSL 2776  32.552  24.942   7.054
    5AU     AUL 2777  32.524  25.425   7.114
    5AU       S 2778  32.865  25.713   6.977
    5AU     LIG 2779  32.917  26.201   6.831
    5AU     LIG 2780  32.928  26.654   6.661
    5AU     LIG 2781  32.763  27.121   6.608
    5AU     LIG 2782  32.902  27.557   6.438
    5AU     LIG 2783  32.682  27.984   6.450
    5AU     LIG 2784  32.546  28.416   6.309
    5AU       S 2785  32.364  25.263   6.714
    5AU     LIG 2786  32.361  25.261   6.278
    5AU     LIG 2787  32.197  25.553   5.926
    5AU     LIG 2788  31.920  25.819   5.612
    5AU     LIG 2789  31.695  26.004   5.208
    5AU     LIG 2790  31.654  26.360   4.864
    5AU     LIG 2791  31.526  26.722   4.564
    5AU    AUSL 2792  32.875  23.896   6.983
    5AU    AUSL 2793  32.473  24.174   7.340
    5AU     AUL 2794  32.567  23.872   6.924
    5AU       S 2795  32.087  23.800   7.120
    5AU     LIG 2796  31.763  23.550   7.268
    5AU     LIG 2797  31.480  23.228   7.056
    5AU     LIG 2798  31.144  23.000   6.763
    5AU     LIG 2799  30.867  22.697   6.474
    5AU     LIG 2800  30.569  22.321   6.339
    5AU     LIG 2801  30.337  21.876   6.302
    5AU       S 2802  32.705  23.453   7.026
    5AU     LIG 2803  32.403  23.209   6.765
    5AU     LIG 2804  32.236  22.781   6.771
    5AU     LIG 2805  32.367  22.359   6.601
    5AU     LIG 2806  32.460  22.072   6.222
    5AU     LIG 2807  32.556  21.771   5.861
    5AU     LIG 2808  32.714  21.513   5.496
    5AU    AUSL 2809  32.880  23.982   7.393
    5AU    AUSL 2810  33.004  24.256   7.100
    5AU     AUL 2811  33.056  23.763   7.140
    5AU       S 2812  32.460  23.572   7.279
    5AU     LIG 2813  32.583  23.029   7.286
    5AU     LIG 2814  32.592  22.572   7.086
    5AU     LIG 2815  32.717  22.118   6.917
    5AU     LIG 2816  33.022  21.716   6.823
    5AU     LIG 2817  33.306  21.301   6.746
    5AU     LIG 2818  33.371  20.841   6.602
    5AU       S 2819  33.274  23.875   6.752
    5AU     LIG 2820  33.158  23.495   6.594
    5AU     LIG 2821  33.393  23.178   6.322
    5AU     LIG 2822  33.634  22.861   6.032
    5AU     LIG 2823  33.672  22.543   5.640
    5AU     LIG 2824  33.788  22.285   5.233
    5AU     LIG 2825  33.932  22.054   4.836
    6AU     AUC 2826  12.902  30.041   7.508
    6AU     AUC 2827  13.162  30.041   7.344
    6AU     AUC 2828  13.158  30.035   7.654
    6AU     AUC 2829  12.650  30.043   7.346
    6AU     AUC 2830  12.643  30.063   7.660
    6AU     AUC 2831  12.752  30.299   7.502
    6AU     AUC 2832  13.064  30.295   7.487
    6AU     AUC 2833  12.748  29.786   7.523
    6AU     AUC 2834  13.042  29.787   7.530
    6AU     AUC 2835  12.898  29.896   7.771
    6AU     AUC 2836  12.921  30.209   7.759
    6AU     AUC 2837  12.899  29.875   7.253
    6AU     AUC 2838  12.890  30.177   7.243
    6AU     AUC 2839  13.409  30.031   7.180
    6AU     AUC 2840  13.420  30.044   7.488
    6AU     AUC 2841  13.419  30.038   7.797
    6AU     AUC 2842  12.389  30.029   7.197
    6AU     AUC 2843  12.385  30.059   7.505
    6AU     AUC 2844  12.399  30.083   7.824
    6AU     AUC 2845  12.609  30.565   7.504
    6AU     AUC 2846  12.918  30.564   7.493
    6AU     AUC 2847  13.211  30.556   7.485
    6AU     AUC 2848  12.568  29.532   7.536
    6AU     AUC 2849  12.883  29.520   7.522
    6AU     AUC 2850  13.198  29.522   7.537
    6AU     AUC 2851  12.887  29.746   8.027
    6AU     AUC 2852  12.911  30.058   8.034
    6AU     AUC 2853  12.932  30.366   8.019
    6AU     AUC 2854  12.898  29.698   7.019
    6AU     AUC 2855  12.908  30.013   6.985
    6AU     AUC 2856  12.886  30.321   6.978
    6AU     AUC 2857  13.174  29.899   7.930
    6AU     AUC 2858  13.178  30.191   7.919
    6AU     AUC 2859  13.170  29.864   7.091
    6AU     AUC 2860  13.169  30.172   7.073
    6AU     AUC 2861  12.637  29.918   7.938
    6AU     AUC 2862  12.660  30.227   7.935
    6AU     AUC 2863  12.650  29.872   7.082
    6AU     AUC 2864  12.638  30.180   7.084
    6AU     AUC 2865  13.315  30.303   7.317
    6AU     AUC 2866  13.334  30.288   7.636
    6AU     AUC 2867  12.482  30.297   7.356
    6AU     AUC 2868  12.499  30.325   7.676
    6AU     AUC 2869  13.313  29.773   7.357
    6AU     AUC 2870  13.319  29.782   7.674
    6AU     AUC 2871  12.476  29.787   7.355
    6AU     AUC 2872  12.486  29.804   7.695
    6AU     AUC 2873  12.762  30.466   7.772
    6AU     AUC 2874  13.080  30.470   7.737
    6AU     AUC 2875  12.726  29.625   7.771
    6AU     AUC 2876  13.046  29.635   7.797
    6AU     AUC 2877  12.738  30.449   7.238
    6AU     AUC 2878  13.055  30.438   7.219
    6AU     AUC 2879  12.725  29.624   7.257
    6AU     AUC 2880  13.054  29.611   7.278
    6AU    AUSL 2881  13.259  29.996   8.102
    6AU    AUSL 2882  13.214  29.577   8.144
    6AU     AUL 2883  13.453  29.657   8.404
    6AU       S 2884  13.507  29.292   8.072
    6AU     LIG 2885  13.413  29.092   8.458
    6AU     LIG 2886  13.420  28.645   8.588
    6AU     LIG 2887  13.652  28.302   8.815
    6AU     LIG 2888  13.928  28.020   9.086
    6AU     LIG 2889  14.098  27.703   9.379
    6AU     LIG 2890  14.206  27.634   9.837
    6AU       S 2891  13.319  30.023   8.658
    6AU     LIG 2892  13.564  29.721   8.910
    6AU     LIG 2893  13.804  29.558   9.300
    6AU     LIG 2894  14.051  29.419   9.699
    6AU     LIG 2895  14.407  29.477  10.028
    6AU     LIG 2896  14.579  29.595  10.456
    6AU     LIG 2897  14.812  29.668  10.857
    6AU    AUSL 2898  12.981  29.842   8.362
    6AU    AUSL 2899  12.848  30.231   8.290
    6AU     AUL 2900  12.909  30.209   8.707
    6AU       S 2901  13.054  29.838   8.512
    6AU     LIG 2902  13.132  29.463   8.745
    6AU     LIG 2903  13.352  29.317   9.171
    6AU     LIG 2904  13.534  29.260   9.639
    6AU     LIG 2905  13.565  29.156  10.125
    6AU     LIG 2906  13.488  29.094  10.608
    6AU     LIG 2907  13.556  29.016  11.080
    6AU       S 2908  12.557  29.939   8.638
    6AU     LIG 2909  12.405  29.862   9.097
    6AU     LIG 2910  12.221  29.739   9.521
    6AU     LIG 2911  12.019  29.721   9.950
    6AU     LIG 2912  11.952  30.016  10.319
    6AU     LIG 2913  11.894  30.344  10.664
    6AU     LIG 2914  11.838  30.545  11.096
    6AU    AUSL 2915  13.229  30.359   8.284
    6AU    AUSL 2916  13.560  30.243   7.964
    6AU     AUL 2917  13.557  30.083   8.282
    6AU       S 2918  13.261  30.386   8.467
    6AU     LIG 2919  13.408  30.511   8.875
    6AU     LIG 2920  13.394  30.683   9.340
    6AU     LIG 2921  13.378  30.804   9.824
    6AU     LIG 2922  13.510  30.942  10.274
    6AU     LIG 2923  13.626  31.021  10.734
    6AU     LIG 2924  13.802  30.911  11.159
    6AU       S 2925  13.845  30.301   7.996
    6AU     LIG 2926  14.041  30.262   8.406
    6AU     LIG 2927  14.313  30.522   8.691
    6AU     LIG 2928  14.604  30.822   8.926
    6AU     LIG 2929  14.861  31.027   9.290
    6AU     LIG 2930  15.262  31.089   9.566
    6AU     LIG 2931  15.670  31.239   9.791
    6AU    AUSL 2932  13.438  30.063   6.869
    6AU    AUSL 2933  13.196  30.450   6.820
    6AU     AUL 2934  13.552  30.401   6.443
    6AU       S 2935  13.473  30.086   6.718
    6AU     LIG 2936  13.757  29.975   6.319
    6AU     LIG 2937  13.819  29.774   5.912
    6AU     LIG 2938  13.976  29.669   5.467
    6AU     LIG 2939  14.322  29.589   5.124
    6AU     LIG 2940  14.697  29.614   4.805
    6AU     LIG 2941  14.992  29.585   4.429
    6AU       S 2942  13.192  30.503   6.660
    6AU     LIG 2943  13.473  30.873   6.568
    6AU     LIG 2944  13.841  30.930   6.285
    6AU     LIG 2945  14.153  31.145   5.969
    6AU     LIG 2946  14.290  31.311   5.529
    6AU     LIG 2947  14.434  31.526   5.120
    6AU     LIG 2948  14.647  31.759   4.770
    6AU    AUSL 2949  13.179  29.743   6.724
    6AU    AUSL 2950  13.509  29.690   7.015
    6AU     AUL 2951  13.609  29.680   6.682
    6AU       S 2952  13.577  29.260   6.871
    6AU     LIG 2953  13.718  29.033   6.505
    6AU     LIG 2954  13.981  28.656   6.401
    6AU     LIG 2955  14.232  28.415   6.071
    6AU     LIG 2956  14.428  28.374   5.630
    6AU     LIG 2957  14.832  28.392   5.365
    6AU     LIG 2958  15.275  28.512   5.197
    6AU       S 2959  13.271  29.945   6.453
    6AU     LIG 2960  13.379  29.581   6.239
    6AU     LIG 2961  13.452  29.433   5.800
    6AU     LIG 2962  13.549  29.399   5.338
    6AU     LIG 2963  13.563  29.370   4.866
    6AU     LIG 2964  13.625  29.206   4.422
    6AU     LIG 2965  13.630  29.241   3.943
    6AU    AUSL 2966  13.028  30.092   6.894
    6AU    AUSL 2967  12.779  29.840   6.683
    6AU     AUL 2968  12.969  29.617   6.583
    6AU       S 2969  12.733  29.938   6.341
    6AU     LIG 2970  12.650  29.575   6.108
    6AU     LIG 2971  12.384  29.426   5.732
    6AU     LIG 2972  12.146  29.324   5.322
    6AU     LIG 2973  12.024  29.039   4.946
    6AU     LIG 2974  12.020  28.931   4.477
    6AU     LIG 2975  11.913  28.973   4.022
    6AU       S 2976  13.175  30.058   6.499
    6AU     LIG 2977  13.335  30.035   5.985
    6AU     LIG 2978  13.484  29.886   5.539
    6AU     LIG 2979  13.655  29.857   5.088
    6AU     LIG 2980  13.726  30.095   4.669
    6AU     LIG 2981  13.756  30.275   4.218
    6AU     LIG 2982  13.726  30.478   3.778
    6AU    AUSL 2983  12.465  30.121   8.220
    6AU    AUSL 2984  12.610  30.523   8.139
    6AU     AUL 2985  12.659  30.459   8.435
    6AU       S 2986  12.408  30.126   8.654
    6AU     LIG 2987  12.064  29.812   8.701
    6AU     LIG 2988  11.925  29.609   9.104
    6AU     LIG 2989  11.745  29.516   9.549
    6AU     LIG 2990  11.535  29.475   9.985
    6AU     LIG 2991  11.190  29.519  10.323
    6AU     LIG 2992  10.856  29.648  10.643
    6AU       S 2993  12.200  30.491   8.373
    6AU     LIG 2994  12.216  30.635   8.788
    6AU     LIG 2995  12.172  31.050   8.999
    6AU     LIG 2996  11.922  31.252   9.335
    6AU     LIG 2997  11.826  31.569   9.688
    6AU     LIG 2998  11.656  31.884  10.014
    6AU     LIG 2999  11.399  32.077  10.378
    6AU    AUSL 3000  12.763  29.916   8.032
    6AU    AUSL 3001  12.254  29.840   8.013
    6AU     AUL 3002  12.267  29.952   8.252
    6AU       S 3003  12.080  29.511   8.227
    6AU     LIG 3004  11.688  29.390   7.959
    6AU     LIG 3005  11.350  29.106   8.152
    6AU     LIG 3006  11.123  28.828   8.491
    6AU     LIG 3007  10.912  28.548   8.816
    6AU     LIG 3008  10.656  28.321   9.128
    6AU     LIG 3009  10.319  28.400   9.458
    6AU       S 3010  12.576  29.829   8.597
    6AU     LIG 3011  12.414  29.447   8.801
    6AU     LIG 3012  12.308  29.303   9.258
    6AU     LIG 3013  12.150  29.250   9.721
    6AU     LIG 3014  11.965  29.221  10.163
    6AU     LIG 3015  11.791  29.062  10.580
    6AU     LIG 3016  11.726  28.890  11.016
    6AU    AUSL 3017  12.500  30.000   6.927
    6AU    AUSL 3018  12.634  29.570   6.946
    6AU     AUL 3019  12.454  29.691   6.650
    6AU       S 3020  12.512  30.026   6.320
    6AU     LIG 3021  12.208  29.833   6.027
    6AU     LIG 3022  11.938  29.684   5.647
    6AU     LIG 3023  11.675  29.544   5.269
    6AU     LIG 3024  11.291  29.366   5.040
    6AU     LIG 3025  10.915  29.412   4.756
    6AU     LIG 3026  10.704  29.728   4.478
    6AU       S 3027  12.192  29.304   6.812
    6AU     LIG 3028  11.918  28.931   6.782
    6AU     LIG 3029  11.515  28.748   6.582
    6AU     LIG 3030  11.242  28.484   6.293
    6AU     LIG 3031  11.267  28.250   5.860
    6AU     LIG 3032  11.318  28.004   5.438
    6AU     LIG 3033  11.120  27.717   5.112
    6AU    AUSL 3034  12.733  30.273   6.682
    6AU    AUSL 3035  12.240  30.309   6.988
    6AU     AUL 3036  12.317  30.154   6.705
    6AU       S 3037  12.136  30.575   6.774
    6AU     LIG 3038  11.913  30.617   6.366
    6AU     LIG 3039  11.755  30.783   5.940
    6AU     LIG 3040  11.563  30.921   5.527
    6AU     LIG 3041  11.229  30.990   5.210
    6AU     LIG 3042  10.932  31.264   5.003
    6AU     LIG 3043  10.503  31.406   4.882
    6AU       S 3044  12.727  30.202   6.454
    6AU     LIG 3045  12.694  30.132   5.890
    6AU     LIG 3046  12.401  29.917   5.552
    6AU     LIG 3047  12.106  29.856   5.169
    6AU     LIG 3048  11.991  30.054   4.729
    6AU     LIG 3049  11.955  30.219   4.266
    6AU     LIG 3050  12.002  30.385   3.816
    6AU    AUSL 3051  13.513  30.649   7.418
    6AU    AUSL 3052  13.536  30.402   7.075
    6AU     AUL 3053  13.660  30.861   7.220
    6AU       S 3054  13.675  30.514   6.873
    6AU     LIG 3055  14.032  30.494   6.561
    6AU     LIG 3056  14.318  30.718   6.229
    6AU     LIG 3057  14.620  30.901   5.880
    6AU     LIG 3058  14.950  30.923   5.504
    6AU     LIG 3059  15.365  31.040   5.255
    6AU     LIG 3060  15.767  31.251   5.076
    6AU       S 3061  13.976  30.528   7.326
    6AU     LIG 3062  14.470  30.575   7.483
    6AU     LIG 3063  14.978  30.656   7.523
    6AU     LIG 3064  15.467  30.761   7.550
    6AU     LIG 3065  15.902  30.993   7.482
    6AU     LIG 3066  16.039  31.469   7.404
    6AU     LIG 3067  16.177  31.874   7.167
    6AU    AUSL 3068  13.732  30.086   7.233
    6AU    AUSL 3069  13.738  29.930   7.649
    6AU     AUL 3070  14.019  29.860   7.415
    6AU       S 3071  13.944  30.298   7.280
    6AU     LIG 3072  14.375  30.165   7.199
    6AU     LIG 3073  14.849  30.241   7.245
    6AU     LIG 3074  15.331  30.357   7.247
    6AU     LIG 3075  15.809  30.496   7.267
    6AU     LIG 3076  16.251  30.529   7.109
    6AU     LIG 3077  16.611  30.851   7.088
    6AU       S 3078  14.040  29.456   7.667
    6AU     LIG 3079  14.429  29.221   7.708
    6AU     LIG 3080  14.845  28.979   7.729
    6AU     LIG 3081  15.284  28.756   7.725
    6AU     LIG 3082  15.754  28.793   7.816
    6AU     LIG 3083  16.118  28.776   8.134
    6AU     LIG 3084  16.499  28.906   8.384
    6AU    AUSL 3085  13.530  30.265   7.558
    6AU    AUSL 3086  13.430  30.609   7.818
    6AU     AUL 3087  13.680  30.610   7.681
    6AU       S 3088  13.690  30.500   8.112
    6AU     LIG 3089  14.116  30.710   8.142
    6AU     LIG 3090  14.320  30.981   8.456
    6AU     LIG 3091  14.510  31.301   8.736
    6AU     LIG 3092  14.857  31.622   8.718
    6AU     LIG 3093  15.184  31.945   8.844
    6AU     LIG 3094  15.308  32.322   9.088
    6AU       S 3095  14.001  30.325   7.538
    6AU     LIG 3096  14.341  30.137   7.735
    6AU     LIG 3097  14.825  30.221   7.762
    6AU     LIG 3098  15.321  30.306   7.759
    6AU     LIG 3099  15.806  30.431   7.804
    6AU     LIG 3100  16.266  30.509   7.991
    6AU     LIG 3101  16.622  30.845   8.051
    6AU    AUSL 3102  12.250  30.598   7.590
    6AU    AUSL 3103  12.300  30.352   7.931
    6AU     AUL 3104  12.266  30.805   7.843
    6AU       S 3105  12.100  30.433   8.122
    6AU     LIG 3106  11.759  30.665   8.455
    6AU     LIG 3107  11.715  30.831   8.908
    6AU     LIG 3108  11.520  30.904   9.359
    6AU     LIG 3109  11.176  30.938   9.719
    6AU     LIG 3110  10.763  31.094   9.925
    6AU     LIG 3111  10.412  31.386  10.092
    6AU       S 3112  11.885  30.612   7.684
    6AU     LIG 3113  11.747  31.019   7.460
    6AU     LIG 3114  11.450  31.430   7.450
    6AU     LIG 3115  11.126  31.821   7.457
    6AU     LIG 3116  10.707  32.053   7.552
    6AU     LIG 3117  10.244  32.182   7.593
    6AU     LIG 3118   9.824  32.258   7.410
    6AU    AUSL 3119  12.315  30.258   7.377
    6AU    AUSL 3120  12.402  30.665   7.215
    6AU     AUL 3121  12.116  30.588   7.252
    6AU       S 3122  11.758  30.522   7.557
    6AU     LIG 3123  11.607  30.596   7.124
    6AU     LIG 3124  11.168  30.669   6.889
    6AU     LIG 3125  10.681  30.748   6.766
    6AU     LIG 3126  10.195  30.797   6.640
    6AU     LIG 3127   9.755  30.998   6.645
    6AU     LIG 3128   9.364  31.179   6.465
    6AU       S 3129  12.224  30.820   6.847
    6AU     LIG 3130  12.152  31.065   6.446
    6AU     LIG 3131  11.988  31.398   6.119
    6AU     LIG 3132  11.825  31.867   6.039
    6AU     LIG 3133  11.514  32.244   6.088
    6AU     LIG 3134  11.172  32.475   5.915
    6AU     LIG 3135  10.962  32.816   5.690
    6AU    AUSL 3136  12.051  30.171   7.682
    6AU    AUSL 3137  12.077  29.932   7.329
    6AU     AUL 3138  11.913  30.188   7.291
    6AU       S 3139  11.737  29.714   7.475
    6AU     LIG 3140  11.297  29.693   7.662
    6AU     LIG 3141  10.818  29.737   7.667
    6AU     LIG 3142  10.333  29.813   7.587
    6AU     LIG 3143   9.880  29.661   7.449
    6AU     LIG 3144   9.541  29.389   7.254
    6AU     LIG 3145   9.102  29.263   7.166
    6AU       S 3146  11.861  30.202   7.770
    6AU     LIG 3147  11.562  30.436   8.039
    6AU     LIG 3148  11.175  30.689   8.211
    6AU     LIG 3149  10.703  30.861   8.276
    6AU     LIG 3150  10.222  31.009   8.328
    6AU     LIG 3151   9.743  31.130   8.390
    6AU     LIG 3152   9.291  31.068   8.540
    6AU    AUSL 3153  13.589  29.538   7.577
    6AU    AUSL 3154  13.544  29.754   7.954
    6AU     AUL 3155  13.856  29.803   7.906
    6AU       S 3156  13.734  29.280   7.554
    6AU     LIG 3157  13.972  28.957   7.758
    6AU     LIG 3158  14.382  28.709   7.655
    6AU     LIG 3159  14.811  28.525   7.497
    6AU     LIG 3160  15.260  28.360   7.390
    6AU     LIG 3161  15.586  27.991   7.387
    6AU     LIG 3162  16.039  28.016   7.499
    6AU       S 3163  13.589  29.434   8.036
    6AU     LIG 3164  13.917  29.123   8.265
    6AU     LIG 3165  13.929  28.751   8.563
    6AU     LIG 3166  14.155  28.439   8.854
    6AU     LIG 3167  14.464  28.276   9.185
    6AU     LIG 3168  14.853  28.375   9.474
    6AU     LIG 3169  15.256  28.427   9.740
    6AU    AUSL 3170  13.435  29.859   7.373
    6AU    AUSL 3171  13.357  29.396   7.273
    6AU     AUL 3172  13.705  29.602   7.192
    6AU       S 3173  13.779  29.446   7.602
    6AU     LIG 3174  14.121  29.173   7.274
    6AU     LIG 3175  14.590  28.986   7.266
    6AU     LIG 3176  15.082  28.896   7.265
    6AU     LIG 3177  15.574  28.874   7.288
    6AU     LIG 3178  16.062  28.783   7.134
    6AU     LIG 3179  16.519  28.704   6.930
    6AU       S 3180  13.600  29.154   7.071
    6AU     LIG 3181  13.710  28.712   6.901
    6AU     LIG 3182  13.806  28.262   6.714
    6AU     LIG 3183  13.908  27.851   6.487
    6AU     LIG 3184  14.235  27.565   6.282
    6AU     LIG 3185  14.550  27.292   6.095
    6AU     LIG 3186  14.964  27.379   5.952
    6AU    AUSL 3187  12.192  29.552   7.488
    6AU    AUSL 3188  12.270  29.699   7.070
    6AU     AUL 3189  11.976  29.764   7.060
    6AU       S 3190  12.188  29.359   7.043
    6AU     LIG 3191  11.686  29.352   6.996
    6AU     LIG 3192  11.279  29.115   6.883
    6AU     LIG 3193  10.991  28.898   6.539
    6AU     LIG 3194  10.759  28.663   6.187
    6AU     LIG 3195  10.443  28.519   5.881
    6AU     LIG 3196  10.384  28.581   5.423
    6AU       S 3197  11.885  29.511   7.445
    6AU     LIG 3198  11.467  29.261   7.466
    6AU     LIG 3199  11.000  29.235   7.626
    6AU     LIG 3200  10.580  28.962   7.583
    6AU     LIG 3201  10.106  28.805   7.652
    6AU     LIG 3202   9.679  28.560   7.647
    6AU     LIG 3203   9.482  28.140   7.819
    6AU    AUSL 3204  12.355  29.910   7.636
    6AU    AUSL 3205  12.440  29.522   7.820
    6AU     AUL 3206  12.068  29.713   7.817
    6AU       S 3207  12.194  29.316   7.995
    6AU     LIG 3208  12.052  29.093   7.725
    6AU     LIG 3209  11.631  28.867   7.790
    6AU     LIG 3210  11.300  28.593   8.055
    6AU     LIG 3211  11.032  28.317   8.369
    6AU     LIG 3212  10.827  28.020   8.704
    6AU     LIG 3213  10.679  27.558   8.814
    6AU       S 3214  11.776  29.798   7.488
    6AU     LIG 3215  11.395  29.765   7.150
    6AU     LIG 3216  11.010  29.515   7.199
    6AU     LIG 3217  10.571  29.416   7.357
    6AU     LIG 3218  10.203  29.321   7.673
    6AU     LIG 3219   9.734  29.182   7.680
    6AU     LIG 3220   9.254  29.269   7.674
    6AU    AUSL 3221  12.948  30.718   8.019
    6AU    AUSL 3222  12.621  30.512   7.734
    6AU     AUL 3223  12.655  30.820   8.103
    6AU       S 3224  12.262  30.654   8.274
    6AU     LIG 3225  12.120  31.040   8.473
    6AU     LIG 3226  12.032  31.463   8.691
    6AU     LIG 3227  11.884  31.920   8.773
    6AU     LIG 3228  11.588  32.282   8.866
    6AU     LIG 3229  11.174  32.461   8.997
    6AU     LIG 3230  10.774  32.475   9.256
    6AU       S 3231  13.010  31.114   7.957
    6AU     LIG 3232  13.156  31.191   8.337
    6AU     LIG 3233  13.283  31.615   8.486
    6AU     LIG 3234  13.214  31.994   8.771
    6AU     LIG 3235  13.136  32.257   9.167
    6AU     LIG 3236  13.133  32.641   9.448
    6AU     LIG 3237  13.012  32.941   9.793
    6AU    AUSL 3238  12.698  30.895   7.658
    6AU    AUSL 3239  13.128  30.873   7.259
    6AU     AUL 3240  12.811  31.126   7.415
    6AU       S 3241  12.847  31.189   7.868
    6AU     LIG 3242  12.948  31.608   8.058
    6AU     LIG 3243  12.945  31.989   8.315
    6AU     LIG 3244  12.721  32.372   8.455
    6AU     LIG 3245  12.684  32.830   8.502
    6AU     LIG 3246  12.642  33.311   8.574
    6AU     LIG 3247  12.497  33.768   8.560
    6AU       S 3248  13.169  31.205   7.113
    6AU     LIG 3249  13.551  31.306   6.873
    6AU     LIG 3250  13.810  31.700   6.699
    6AU     LIG 3251  13.910  32.149   6.513
    6AU     LIG 3252  13.981  32.643   6.511
    6AU     LIG 3253  14.065  33.109   6.522
    6AU     LIG 3254  13.973  33.516   6.321
    6AU    AUSL 3255  13.093  30.736   7.638
    6AU    AUSL 3256  13.114  30.369   7.904
    6AU     AUL 3257  13.270  30.748   8.045
    6AU       S 3258  13.653  30.539   8.221
    6AU     LIG 3259  13.835  30.713   8.594
    6AU     LIG 3260  14.095  30.949   8.916
    6AU     LIG 3261  14.365  31.175   9.226
    6AU     LIG 3262  14.503  31.299   9.655
    6AU     LIG 3263  14.500  31.674   9.952
    6AU     LIG 3264  14.517  32.094  10.175
    6AU       S 3265  13.182  31.057   7.705
    6AU     LIG 3266  13.422  31.420   7.956
    6AU     LIG 3267  13.620  31.844   8.143
    6AU     LIG 3268  13.907  32.241   8.248
    6AU     LIG 3269  14.111  32.665   8.324
    6AU     LIG 3270  13.945  33.016   8.588
    6AU     LIG 3271  13.814  33.463   8.668
    6AU    AUSL 3272  12.872  29.481   7.946
    6AU    AUSL 3273  13.224  29.604   7.737
    6AU     AUL 3274  13.078  29.361   8.196
    6AU       S 3275  12.890  28.937   8.023
    6AU     LIG 3276  12.972  28.623   8.296
    6AU     LIG 3277  12.675  28.274   8.278
    6AU     LIG 3278  12.633  27.824   8.359
    6AU     LIG 3279  12.774  27.421   8.553
    6AU     LIG 3280  12.977  27.139   8.866
    6AU     LIG 3281  12.824  26.881   9.226
    6AU       S 3282  13.505  29.224   7.959
    6AU     LIG 3283  13.573  28.765   8.093
    6AU     LIG 3284  13.756  28.345   8.302
    6AU     LIG 3285  14.014  28.019   8.578
    6AU     LIG 3286  14.250  27.663   8.857
    6AU     LIG 3287  14.521  27.243   8.899
    6AU     LIG 3288  14.727  26.861   9.128
    6AU    AUSL 3289  12.693  29.240   7.674
    6AU    AUSL 3290  12.583  29.607   8.206
    6AU     AUL 3291  12.634  29.303   8.086
    6AU       S 3292  12.618  28.957   7.793
    6AU     LIG 3293  12.368  28.639   7.662
    6AU     LIG 3294  12.408  28.180   7.767
    6AU     LIG 3295  12.275  27.759   7.985
    6AU     LIG 3296  11.995  27.365   8.127
    6AU     LIG 3297  11.704  26.960   8.184
    6AU     LIG 3298  11.510  26.539   8.326
    6AU       S 3299  12.262  29.454   8.296
    6AU     LIG 3300  11.915  29.049   8.291
    6AU     LIG 3301  11.626  28.730   8.430
    6AU     LIG 3302  11.405  28.425   8.707
    6AU     LIG 3303  11.191  28.170   9.045
    6AU     LIG 3304  11.222  27.906   9.436
    6AU     LIG 3305  11.347  27.700   9.845
    6AU    AUSL 3306  13.127  29.215   7.715
    6AU    AUSL 3307  12.634  29.231   7.268
    6AU     AUL 3308  12.951  28.961   7.478
    6AU       S 3309  12.545  28.931   7.165
    6AU     LIG 3310  12.223  28.639   7.162
    6AU     LIG 3311  12.280  28.187   7.236
    6AU     LIG 3312  12.260  27.752   7.036
    6AU     LIG 3313  12.014  27.381   6.830
    6AU     LIG 3314  11.746  26.986   6.708
    6AU     LIG 3315  11.695  26.529   6.584
    6AU       S 3316  13.009  28.996   7.919
    6AU     LIG 3317  12.865  28.491   7.807
    6AU     LIG 3318  12.879  27.992   7.903
    6AU     LIG 3319  13.004  27.557   8.109
    6AU     LIG 3320  13.191  27.156   8.342
    6AU     LIG 3321  13.412  26.716   8.366
    6AU     LIG 3322  13.504  26.263   8.191
    6AU    AUSL 3323  12.888  30.681   6.951
    6AU    AUSL 3324  13.188  30.472   7.252
    6AU     AUL 3325  13.265  30.775   7.001
    6AU       S 3326  12.931  30.985   6.761
    6AU     LIG 3327  13.179  31.286   6.517
    6AU     LIG 3328  13.360  31.710   6.399
    6AU     LIG 3329  13.462  31.966   5.994
    6AU     LIG 3330  13.440  32.288   5.625
    6AU     LIG 3331  13.249  32.645   5.354
    6AU     LIG 3332  12.921  32.912   5.120
    6AU       S 3333  13.627  30.489   6.953
    6AU     LIG 3334  13.928  30.924   6.806
    6AU     LIG 3335  14.236  31.163   6.516
    6AU     LIG 3336  14.503  31.489   6.289
    6AU     LIG 3337  14.767  31.909   6.266
    6AU     LIG 3338  15.200  32.165   6.226
    6AU     LIG 3339  15.483  32.552   6.145
    6AU    AUSL 3340  12.786  30.654   7.347
    6AU    AUSL 3341  12.644  30.380   7.058
    6AU     AUL 3342  12.617  30.852   7.092
    6AU       S 3343  12.974  31.146   6.988
    6AU     LIG 3344  13.091  31.635   6.873
    6AU     LIG 3345  12.988  32.090   6.725
    6AU     LIG 3346  12.692  32.503   6.723
    6AU     LIG 3347  12.545  32.979   6.705
    6AU     LIG 3348  12.540  33.348   6.413
    6AU     LIG 3349  12.657  33.730   6.128
    6AU       S 3350  12.448  30.637   6.715
    6AU     LIG 3351  12.418  30.637   6.275
    6AU     LIG 3352  12.234  30.948   5.938
    6AU     LIG 3353  12.012  31.209   5.584
    6AU     LIG 3354  12.002  31.516   5.187
    6AU     LIG 3355  11.816  31.865   4.896
    6AU     LIG 3356  11.512  32.150   4.654
    6AU    AUSL 3357  12.958  29.331   6.996
    6AU    AUSL 3358  12.565  29.615   7.350
    6AU     AUL 3359  12.638  29.325   6.919
    6AU       S 3360  12.170  29.247   7.139
    6AU     LIG 3361  11.858  28.977   7.286
    6AU     LIG 3362  11.543  28.725   7.098
    6AU     LIG 3363  11.133  28.574   6.897
    6AU     LIG 3364  10.791  28.380   6.608
    6AU     LIG 3365  10.447  28.069   6.437
    6AU     LIG 3366  10.220  27.631   6.392
    6AU       S 3367  12.789  28.911   7.032
    6AU     LIG 3368  12.587  28.570   6.806
    6AU     LIG 3369  12.450  28.141   6.741
    6AU     LIG 3370  12.614  27.711   6.647
    6AU     LIG 3371  12.709  27.396   6.298
    6AU     LIG 3372  12.608  27.162   5.885
    6AU     LIG 3373  12.572  26.772   5.604
    6AU    AUSL 3374  12.972  29.418   7.404
    6AU    AUSL 3375  13.099  29.688   7.108
    6AU     AUL 3376  13.148  29.198   7.154
    6AU       S 3377  12.557  29.030   7.282
    6AU     LIG 3378  12.707  28.494   7.311
    6AU     LIG 3379  12.775  28.024   7.127
    6AU     LIG 3380  13.032  27.613   6.963
    6AU     LIG 3381  13.235  27.157   6.954
    6AU     LIG 3382  13.227  26.796   6.639
    6AU     LIG 3383  13.528  26.444   6.514
    6AU       S 3384  13.358  29.302   6.763
    6AU     LIG 3385  13.249  28.883   6.723
    6AU     LIG 3386  13.470  28.555   6.449
    6AU     LIG 3387  13.739  28.258   6.167
    6AU     LIG 3388  13.932  28.162   5.729
    6AU     LIG 3389  14.056  28.081   5.280
    6AU     LIG 3390  14.045  27.773   4.915
    7AU     AUC 3391  20.583   9.581   7.507
    7AU     AUC 3392  20.845   9.580   7.346
    7AU     AUC 3393  20.837   9.575   7.657
    7AU     AUC 3394  20.333   9.582   7.341
    7AU     AUC 3395  20.322   9.602   7.656
    7AU     AUC 3396  20.433   9.839   7.499
    7AU     AUC 3397  20.746   9.835   7.489
    7AU     AUC 3398  20.428   9.326   7.521
    7AU     AUC 3399  20.722   9.326   7.531
    7AU     AUC 3400  20.575   9.436   7.770
    7AU     AUC 3401  20.598   9.748   7.758
    7AU     AUC 3402  20.583   9.414   7.252
    7AU     AUC 3403  20.575   9.717   7.242
    7AU     AUC 3404  21.094   9.570   7.185
    7AU     AUC 3405  21.101   9.583   7.495
    7AU     AUC 3406  21.096   9.578   7.802
    7AU     AUC 3407  20.074   9.568   7.187
    7AU     AUC 3408  20.065   9.598   7.495
    7AU     AUC 3409  20.074   9.622   7.816
    7AU     AUC 3410  20.290  10.104   7.499
    7AU     AUC 3411  20.600  10.103   7.493
    7AU     AUC 3412  20.893  10.095   7.488
    7AU     AUC 3413  20.248   9.072   7.531
    7AU     AUC 3414  20.564   9.060   7.522
    7AU     AUC 3415  20.878   9.061   7.541
    7AU     AUC 3416  20.559   9.288   8.026
    7AU     AUC 3417  20.584   9.599   8.033
    7AU     AUC 3418  20.604   9.907   8.017
    7AU     AUC 3419  20.584   9.237   7.018
    7AU     AUC 3420  20.595   9.552   6.983
    7AU     AUC 3421  20.574   9.860   6.976
    7AU     AUC 3422  20.849   9.439   7.933
    7AU     AUC 3423  20.855   9.732   7.920
    7AU     AUC 3424  20.856   9.403   7.093
    7AU     AUC 3425  20.855   9.711   7.076
    7AU     AUC 3426  20.312   9.458   7.933
    7AU     AUC 3427  20.334   9.767   7.929
    7AU     AUC 3428  20.336   9.412   7.078
    7AU     AUC 3429  20.325   9.719   7.079
    7AU     AUC 3430  20.999   9.842   7.321
    7AU     AUC 3431  21.015   9.828   7.639
    7AU     AUC 3432  20.165   9.837   7.348
    7AU     AUC 3433  20.176   9.864   7.669
    7AU     AUC 3434  20.995   9.312   7.362
    7AU     AUC 3435  20.997   9.322   7.679
    7AU     AUC 3436  20.159   9.326   7.347
    7AU     AUC 3437  20.163   9.344   7.688
    7AU     AUC 3438  20.438  10.006   7.768
    7AU     AUC 3439  20.757  10.010   7.739
    7AU     AUC 3440  20.404   9.165   7.768
    7AU     AUC 3441  20.723   9.176   7.799
    7AU     AUC 3442  20.423   9.988   7.235
    7AU     AUC 3443  20.741   9.978   7.220
    7AU     AUC 3444  20.409   9.163   7.255
    7AU     AUC 3445  20.738   9.150   7.280
    7AU    AUSL 3446  20.934   9.535   8.097
    7AU    AUSL 3447  20.883   9.120   8.151
    7AU     AUL 3448  21.117   9.196   8.412
    7AU       S 3449  21.169   8.825   8.104
    7AU     LIG 3450  21.021   8.502   8.362
    7AU     LIG 3451  21.138   8.154   8.639
    7AU     LIG 3452  21.401   7.949   8.972
    7AU     LIG 3453  21.668   7.680   9.252
    7AU     LIG 3454  21.737   7.339   9.578
    7AU     LIG 3455  21.702   7.097   9.995
    7AU       S 3456  20.985   9.567   8.664
    7AU     LIG 3457  21.199   9.251   8.926
    7AU     LIG 3458  21.441   9.091   9.310
    7AU     LIG 3459  21.803   9.157   9.634
    7AU     LIG 3460  22.109   9.346   9.967
    7AU     LIG 3461  22.439   9.300  10.313
    7AU     LIG 3462  22.769   9.143  10.623
    7AU    AUSL 3463  20.654   9.395   8.363
    7AU    AUSL 3464  20.517   9.781   8.281
    7AU     AUL 3465  20.576   9.765   8.702
    7AU       S 3466  20.725   9.394   8.510
    7AU     LIG 3467  20.771   9.011   8.745
    7AU     LIG 3468  20.971   8.849   9.185
    7AU     LIG 3469  21.056   8.695   9.663
    7AU     LIG 3470  21.111   8.581  10.154
    7AU     LIG 3471  21.217   8.584  10.635
    7AU     LIG 3472  21.361   8.675  11.078
    7AU       S 3473  20.235   9.480   8.632
    7AU     LIG 3474  20.110   9.420   9.094
    7AU     LIG 3475  19.930   9.356   9.522
    7AU     LIG 3476  19.773   9.367   9.968
    7AU     LIG 3477  19.882   9.595  10.387
    7AU     LIG 3478  19.963   9.867  10.782
    7AU     LIG 3479  19.977   9.947  11.255
    7AU    AUSL 3480  20.902   9.892   8.288
    7AU    AUSL 3481  21.236   9.784   7.969
    7AU     AUL 3482  21.229   9.617   8.289
    7AU       S 3483  20.932   9.929   8.461
    7AU     LIG 3484  21.082  10.049   8.867
    7AU     LIG 3485  21.121  10.209   9.331
    7AU     LIG 3486  21.076  10.346   9.801
    7AU     LIG 3487  21.164  10.551  10.226
    7AU     LIG 3488  21.283  10.486  10.674
    7AU     LIG 3489  21.401  10.332  11.106
    7AU       S 3490  21.517   9.846   8.009
    7AU     LIG 3491  21.779   9.899   8.397
    7AU     LIG 3492  22.034  10.118   8.748
    7AU     LIG 3493  22.348  10.343   9.045
    7AU     LIG 3494  22.679  10.367   9.416
    7AU     LIG 3495  23.068  10.505   9.683
    7AU     LIG 3496  23.318  10.809   9.951
    7AU    AUSL 3497  21.125   9.602   6.873
    7AU    AUSL 3498  20.886   9.988   6.823
    7AU     AUL 3499  21.244   9.939   6.447
    7AU       S 3500  21.160   9.624   6.722
    7AU     LIG 3501  21.448   9.511   6.323
    7AU     LIG 3502  21.484   9.280   5.933
    7AU     LIG 3503  21.629   9.139   5.500
    7AU     LIG 3504  21.855   9.133   5.070
    7AU     LIG 3505  22.236   9.102   4.756
    7AU     LIG 3506  22.549   9.102   4.384
    7AU       S 3507  20.882  10.039   6.661
    7AU     LIG 3508  21.142  10.411   6.558
    7AU     LIG 3509  21.502  10.467   6.264
    7AU     LIG 3510  21.781  10.646   5.904
    7AU     LIG 3511  21.910  10.763   5.449
    7AU     LIG 3512  21.989  10.984   5.025
    7AU     LIG 3513  22.067  11.393   4.790
    7AU    AUSL 3514  20.868   9.281   6.727
    7AU    AUSL 3515  21.196   9.230   7.022
    7AU     AUL 3516  21.303   9.220   6.691
    7AU       S 3517  21.261   8.801   6.875
    7AU     LIG 3518  21.444   8.643   6.480
    7AU     LIG 3519  21.672   8.261   6.295
    7AU     LIG 3520  21.915   7.941   6.037
    7AU     LIG 3521  22.206   7.792   5.688
    7AU     LIG 3522  22.554   7.829   5.349
    7AU     LIG 3523  22.828   7.763   4.957
    7AU       S 3524  20.968   9.479   6.454
    7AU     LIG 3525  21.071   9.084   6.262
    7AU     LIG 3526  21.133   8.926   5.817
    7AU     LIG 3527  21.200   8.888   5.340
    7AU     LIG 3528  21.207   8.879   4.857
    7AU     LIG 3529  21.252   8.873   4.380
    7AU     LIG 3530  21.372   8.769   3.925
    7AU    AUSL 3531  20.715   9.631   6.894
    7AU    AUSL 3532  20.468   9.378   6.681
    7AU     AUL 3533  20.659   9.155   6.582
    7AU       S 3534  20.407   9.470   6.350
    7AU     LIG 3535  20.344   9.089   6.140
    7AU     LIG 3536  20.123   8.946   5.732
    7AU     LIG 3537  19.936   8.925   5.285
    7AU     LIG 3538  19.836   8.654   4.887
    7AU     LIG 3539  19.676   8.463   4.465
    7AU     LIG 3540  19.412   8.510   4.062
    7AU       S 3541  20.865   9.594   6.499
    7AU     LIG 3542  20.988   9.518   5.977
    7AU     LIG 3543  21.159   9.377   5.540
    7AU     LIG 3544  21.352   9.325   5.095
    7AU     LIG 3545  21.340   9.340   4.613
    7AU     LIG 3546  21.321   9.572   4.183
    7AU     LIG 3547  21.517   9.852   3.838
    7AU    AUSL 3548  20.135   9.662   8.218
    7AU    AUSL 3549  20.273  10.068   8.131
    7AU     AUL 3550  20.324  10.008   8.427
    7AU       S 3551  20.084   9.666   8.642
    7AU     LIG 3552  19.732   9.406   8.724
    7AU     LIG 3553  19.601   9.222   9.131
    7AU     LIG 3554  19.441   9.195   9.582
    7AU     LIG 3555  19.190   9.140   9.992
    7AU     LIG 3556  18.796   9.082  10.295
    7AU     LIG 3557  18.617   9.050  10.748
    7AU       S 3558  19.867  10.034   8.356
    7AU     LIG 3559  19.897  10.129   8.782
    7AU     LIG 3560  19.779  10.509   9.034
    7AU     LIG 3561  19.623  10.790   9.373
    7AU     LIG 3562  19.537  10.996   9.795
    7AU     LIG 3563  19.362  11.237  10.170
    7AU     LIG 3564  19.058  11.431  10.477
    7AU    AUSL 3565  20.433   9.456   8.032
    7AU    AUSL 3566  19.933   9.379   8.005
    7AU     AUL 3567  19.938   9.486   8.246
    7AU       S 3568  19.765   9.038   8.202
    7AU     LIG 3569  19.362   8.913   7.992
    7AU     LIG 3570  19.050   8.607   8.192
    7AU     LIG 3571  18.813   8.361   8.540
    7AU     LIG 3572  18.583   8.082   8.847
    7AU     LIG 3573  18.332   7.840   9.157
    7AU     LIG 3574  17.951   7.841   9.431
    7AU       S 3575  20.245   9.366   8.590
    7AU     LIG 3576  20.056   9.008   8.798
    7AU     LIG 3577  19.980   8.905   9.266
    7AU     LIG 3578  19.822   8.881   9.731
    7AU     LIG 3579  19.630   8.703  10.144
    7AU     LIG 3580  19.543   8.478  10.577
    7AU     LIG 3581  19.449   8.546  11.044
    7AU    AUSL 3582  20.183   9.540   6.917
    7AU    AUSL 3583  20.324   9.108   6.944
    7AU     AUL 3584  20.144   9.220   6.651
    7AU       S 3585  20.169   9.538   6.310
    7AU     LIG 3586  19.875   9.289   6.035
    7AU     LIG 3587  19.665   9.222   5.616
    7AU     LIG 3588  19.310   9.140   5.304
    7AU     LIG 3589  18.871   9.127   5.078
    7AU     LIG 3590  18.602   9.147   4.663
    7AU     LIG 3591  18.362   9.155   4.243
    7AU       S 3592  19.895   8.828   6.810
    7AU     LIG 3593  19.693   8.416   6.782
    7AU     LIG 3594  19.382   8.137   6.549
    7AU     LIG 3595  19.096   7.904   6.233
    7AU     LIG 3596  18.888   7.719   5.836
    7AU     LIG 3597  18.743   7.569   5.394
    7AU     LIG 3598  18.744   7.237   5.039
    7AU    AUSL 3599  20.424   9.812   6.677
    7AU    AUSL 3600  19.930   9.856   6.976
    7AU     AUL 3601  20.013   9.712   6.695
    7AU       S 3602  19.810  10.130   6.754
    7AU     LIG 3603  19.563  10.223   6.330
    7AU     LIG 3604  19.384  10.379   5.891
    7AU     LIG 3605  19.143  10.560   5.506
    7AU     LIG 3606  18.706  10.621   5.302
    7AU     LIG 3607  18.362  10.855   5.070
    7AU     LIG 3608  18.182  11.236   4.873
    7AU       S 3609  20.412   9.701   6.435
    7AU     LIG 3610  20.429   9.565   5.885
    7AU     LIG 3611  20.150   9.413   5.519
    7AU     LIG 3612  20.045   9.396   5.044
    7AU     LIG 3613  20.062   9.582   4.583
    7AU     LIG 3614  19.985   9.937   4.251
    7AU     LIG 3615  19.733  10.163   3.899
    7AU    AUSL 3616  21.194  10.191   7.423
    7AU    AUSL 3617  21.225   9.938   7.084
    7AU     AUL 3618  21.350  10.398   7.226
    7AU       S 3619  21.366  10.051   6.876
    7AU     LIG 3620  21.723  10.058   6.536
    7AU     LIG 3621  21.957  10.215   6.130
    7AU     LIG 3622  22.273  10.436   5.826
    7AU     LIG 3623  22.689  10.582   5.626
    7AU     LIG 3624  23.057  10.709   5.333
    7AU     LIG 3625  23.480  10.818   5.102
    7AU       S 3626  21.649  10.054   7.347
    7AU     LIG 3627  22.098  10.126   7.561
    7AU     LIG 3628  22.594  10.157   7.544
    7AU     LIG 3629  23.082  10.237   7.513
    7AU     LIG 3630  23.438  10.603   7.509
    7AU     LIG 3631  23.746  11.007   7.529
    7AU     LIG 3632  24.110  11.277   7.726
    7AU    AUSL 3633  21.417   9.619   7.240
    7AU    AUSL 3634  21.414   9.469   7.660
    7AU     AUL 3635  21.699   9.398   7.432
    7AU       S 3636  21.652   9.826   7.260
    7AU     LIG 3637  22.120   9.689   7.300
    7AU     LIG 3638  22.613   9.734   7.248
    7AU     LIG 3639  23.102   9.676   7.280
    7AU     LIG 3640  23.590   9.776   7.291
    7AU     LIG 3641  24.017   9.957   7.108
    7AU     LIG 3642  24.427  10.223   7.083
    7AU       S 3643  21.715   8.994   7.687
    7AU     LIG 3644  22.145   8.865   7.645
    7AU     LIG 3645  22.499   8.593   7.742
    7AU     LIG 3646  22.911   8.424   7.875
    7AU     LIG 3647  23.327   8.432   8.114
    7AU     LIG 3648  23.782   8.360   8.149
    7AU     LIG 3649  24.199   8.272   7.957
    7AU    AUSL 3650  21.216   9.807   7.562
    7AU    AUSL 3651  21.109  10.149   7.822
    7AU     AUL 3652  21.356  10.163   7.693
    7AU       S 3653  21.357  10.030   8.116
    7AU     LIG 3654  21.737  10.303   8.069
    7AU     LIG 3655  21.964  10.512   8.424
    7AU     LIG 3656  22.161  10.786   8.769
    7AU     LIG 3657  22.281  11.231   8.952
    7AU     LIG 3658  22.469  11.692   8.937
    7AU     LIG 3659  22.779  12.052   9.058
    7AU       S 3660  21.663   9.866   7.547
    7AU     LIG 3661  21.954   9.672   7.795
    7AU     LIG 3662  22.425   9.715   7.756
    7AU     LIG 3663  22.907   9.783   7.737
    7AU     LIG 3664  23.371   9.700   7.825
    7AU     LIG 3665  23.756   9.906   8.050
    7AU     LIG 3666  24.202  10.138   8.063
    7AU    AUSL 3667  19.926  10.132   7.579
    7AU    AUSL 3668  19.975   9.882   7.919
    7AU     AUL 3669  19.935  10.337   7.824
    7AU       S 3670  19.774   9.960   8.101
    7AU     LIG 3671  19.391  10.095   8.393
    7AU     LIG 3672  19.379  10.234   8.854
    7AU     LIG 3673  19.237  10.453   9.256
    7AU     LIG 3674  18.884  10.529   9.582
    7AU     LIG 3675  18.466  10.644   9.795
    7AU     LIG 3676  18.190  10.974   9.986
    7AU       S 3677  19.544  10.144   7.686
    7AU     LIG 3678  19.507  10.586   7.585
    7AU     LIG 3679  19.218  10.989   7.557
    7AU     LIG 3680  18.882  11.342   7.544
    7AU     LIG 3681  18.421  11.514   7.570
    7AU     LIG 3682  17.962  11.630   7.694
    7AU     LIG 3683  17.497  11.669   7.793
    7AU    AUSL 3684  20.002   9.795   7.363
    7AU    AUSL 3685  20.090  10.206   7.208
    7AU     AUL 3686  19.802  10.128   7.240
    7AU       S 3687  19.433  10.067   7.522
    7AU     LIG 3688  19.096  10.023   7.191
    7AU     LIG 3689  18.857  10.262   6.822
    7AU     LIG 3690  18.417  10.443   6.691
    7AU     LIG 3691  17.917  10.415   6.712
    7AU     LIG 3692  17.416  10.425   6.733
    7AU     LIG 3693  16.927  10.505   6.737
    7AU       S 3694  19.920  10.367   6.842
    7AU     LIG 3695  19.784  10.658   6.499
    7AU     LIG 3696  19.606  11.037   6.255
    7AU     LIG 3697  19.497  11.519   6.221
    7AU     LIG 3698  19.302  11.818   5.918
    7AU     LIG 3699  18.999  12.113   5.739
    7AU     LIG 3700  18.565  12.238   5.798
    7AU    AUSL 3701  19.726   9.714   7.661
    7AU    AUSL 3702  19.759   9.473   7.312
    7AU     AUL 3703  19.597   9.727   7.269
    7AU       S 3704  19.411   9.254   7.436
    7AU     LIG 3705  18.997   9.202   7.696
    7AU     LIG 3706  18.495   9.209   7.732
    7AU     LIG 3707  18.091   8.961   7.761
    7AU     LIG 3708  17.748   8.744   7.505
    7AU     LIG 3709  17.360   8.867   7.266
    7AU     LIG 3710  16.888   8.899   7.303
    7AU       S 3711  19.526   9.748   7.746
    7AU     LIG 3712  19.131   9.943   7.935
    7AU     LIG 3713  18.677  10.069   8.102
    7AU     LIG 3714  18.192  10.204   8.198
    7AU     LIG 3715  17.750  10.444   8.231
    7AU     LIG 3716  17.366  10.785   8.210
    7AU     LIG 3717  16.868  10.908   8.234
    7AU    AUSL 3718  21.268   9.078   7.585
    7AU    AUSL 3719  21.222   9.288   7.965
    7AU     AUL 3720  21.531   9.346   7.917
    7AU       S 3721  21.419   8.803   7.563
    7AU     LIG 3722  21.734   8.494   7.728
    7AU     LIG 3723  22.145   8.234   7.667
    7AU     LIG 3724  22.621   8.078   7.608
    7AU     LIG 3725  23.031   7.765   7.629
    7AU     LIG 3726  23.368   7.369   7.685
    7AU     LIG 3727  23.791   7.132   7.825
    7AU       S 3728  21.271   8.970   8.048
    7AU     LIG 3729  21.559   8.579   8.247
    7AU     LIG 3730  21.646   8.285   8.617
    7AU     LIG 3731  21.909   8.004   8.902
    7AU     LIG 3732  22.189   7.730   9.166
    7AU     LIG 3733  22.600   7.743   9.398
    7AU     LIG 3734  22.978   7.727   9.683
    7AU    AUSL 3735  21.116   9.399   7.380
    7AU    AUSL 3736  21.040   8.935   7.278
    7AU     AUL 3737  21.389   9.139   7.202
    7AU       S 3738  21.460   8.985   7.612
    7AU     LIG 3739  21.804   8.770   7.259
    7AU     LIG 3740  22.258   8.536   7.264
    7AU     LIG 3741  22.758   8.490   7.311
    7AU     LIG 3742  23.191   8.340   7.189
    7AU     LIG 3743  23.630   8.505   7.117
    7AU     LIG 3744  24.037   8.290   7.055
    7AU       S 3745  21.282   8.695   7.078
    7AU     LIG 3746  21.238   8.298   6.804
    7AU     LIG 3747  21.421   7.911   6.581
    7AU     LIG 3748  21.658   7.579   6.333
    7AU     LIG 3749  21.732   7.179   6.101
    7AU     LIG 3750  22.038   6.831   6.049
    7AU     LIG 3751  22.440   6.576   6.063
    7AU    AUSL 3752  19.871   9.093   7.477
    7AU    AUSL 3753  19.958   9.236   7.062
    7AU     AUL 3754  19.665   9.303   7.038
    7AU       S 3755  19.885   8.903   7.031
    7AU     LIG 3756  19.399   8.842   6.984
    7AU     LIG 3757  19.120   8.540   6.754
    7AU     LIG 3758  18.851   8.309   6.431
    7AU     LIG 3759  18.600   8.068   6.098
    7AU     LIG 3760  18.396   7.839   5.729
    7AU     LIG 3761  18.294   7.809   5.262
    7AU       S 3762  19.587   9.055   7.427
    7AU     LIG 3763  19.227   8.778   7.488
    7AU     LIG 3764  18.733   8.807   7.467
    7AU     LIG 3765  18.273   8.638   7.397
    7AU     LIG 3766  17.912   8.290   7.364
    7AU     LIG 3767  17.434   8.145   7.381
    7AU     LIG 3768  17.036   7.993   7.600
    7AU    AUSL 3769  20.029   9.450   7.626
    7AU    AUSL 3770  20.117   9.062   7.809
    7AU     AUL 3771  19.738   9.264   7.806
    7AU       S 3772  19.864   8.854   7.956
    7AU     LIG 3773  19.668   8.549   7.783
    7AU     LIG 3774  19.355   8.269   7.954
    7AU     LIG 3775  19.005   8.048   8.182
    7AU     LIG 3776  18.704   7.797   8.436
    7AU     LIG 3777  18.448   7.556   8.741
    7AU     LIG 3778  18.096   7.269   8.871
    7AU       S 3779  19.455   9.339   7.467
    7AU     LIG 3780  18.998   9.484   7.277
    7AU     LIG 3781  18.556   9.246   7.219
    7AU     LIG 3782  18.082   9.120   7.283
    7AU     LIG 3783  17.658   9.221   7.574
    7AU     LIG 3784  17.236   9.043   7.727
    7AU     LIG 3785  16.790   8.879   7.812
    7AU    AUSL 3786  20.618  10.256   8.021
    7AU    AUSL 3787  20.296  10.050   7.727
    7AU     AUL 3788  20.317  10.363   8.094
    7AU       S 3789  19.922  10.190   8.256
    7AU     LIG 3790  19.696  10.517   8.505
    7AU     LIG 3791  19.638  10.936   8.741
    7AU     LIG 3792  19.551  11.421   8.798
    7AU     LIG 3793  19.374  11.778   9.070
    7AU     LIG 3794  19.119  12.202   9.102
    7AU     LIG 3795  18.811  12.509   8.893
    7AU       S 3796  20.680  10.648   7.970
    7AU     LIG 3797  20.833  10.708   8.363
    7AU     LIG 3798  20.903  11.123   8.583
    7AU     LIG 3799  20.900  11.536   8.819
    7AU     LIG 3800  20.892  11.781   9.239
    7AU     LIG 3801  20.921  12.073   9.615
    7AU     LIG 3802  20.856  12.492   9.816
    7AU    AUSL 3803  20.376  10.433   7.654
    7AU    AUSL 3804  20.813  10.412   7.264
    7AU     AUL 3805  20.481  10.665   7.423
    7AU       S 3806  20.537  10.733   7.874
    7AU     LIG 3807  20.657  11.141   8.119
    7AU     LIG 3808  20.644  11.571   8.345
    7AU     LIG 3809  20.359  11.992   8.389
    7AU     LIG 3810  20.160  12.445   8.383
    7AU     LIG 3811  20.114  12.922   8.501
    7AU     LIG 3812  20.056  13.352   8.697
    7AU       S 3813  20.873  10.728   7.169
    7AU     LIG 3814  21.199  10.821   6.890
    7AU     LIG 3815  21.283  11.274   6.723
    7AU     LIG 3816  21.512  11.725   6.750
    7AU     LIG 3817  21.806  12.141   6.766
    7AU     LIG 3818  21.854  12.620   6.690
    7AU     LIG 3819  21.588  13.004   6.623
    7AU    AUSL 3820  20.771  10.276   7.643
    7AU    AUSL 3821  20.792   9.910   7.907
    7AU     AUL 3822  20.944  10.285   8.052
    7AU       S 3823  21.328  10.073   8.225
    7AU     LIG 3824  21.478  10.286   8.572
    7AU     LIG 3825  21.724  10.502   8.892
    7AU     LIG 3826  21.981  10.655   9.236
    7AU     LIG 3827  22.139  10.996   9.496
    7AU     LIG 3828  22.082  11.247   9.889
    7AU     LIG 3829  22.050  11.666  10.083
    7AU       S 3830  20.856  10.590   7.710
    7AU     LIG 3831  21.103  10.916   7.968
    7AU     LIG 3832  21.139  11.355   8.184
    7AU     LIG 3833  21.366  11.773   8.308
    7AU     LIG 3834  21.574  12.212   8.383
    7AU     LIG 3835  21.661  12.621   8.645
    7AU     LIG 3836  21.884  13.024   8.482
    7AU    AUSL 3837  20.548   9.022   7.942
    7AU    AUSL 3838  20.903   9.146   7.744
    7AU     AUL 3839  20.738   8.909   8.206
    7AU       S 3840  20.591   8.481   8.038
    7AU     LIG 3841  20.585   8.186   8.328
    7AU     LIG 3842  20.290   7.850   8.263
    7AU     LIG 3843  20.193   7.404   8.323
    7AU     LIG 3844  20.305   6.985   8.523
    7AU     LIG 3845  20.439   6.741   8.914
    7AU     LIG 3846  20.510   6.587   9.362
    7AU       S 3847  21.180   8.795   7.967
    7AU     LIG 3848  21.220   8.368   7.898
    7AU     LIG 3849  21.407   8.066   8.204
    7AU     LIG 3850  21.610   7.773   8.532
    7AU     LIG 3851  21.879   7.492   8.813
    7AU     LIG 3852  22.157   7.178   9.036
    7AU     LIG 3853  22.418   6.780   9.118
    7AU    AUSL 3854  20.373   8.777   7.673
    7AU    AUSL 3855  20.256   9.142   8.199
    7AU     AUL 3856  20.302   8.830   8.064
    7AU       S 3857  20.328   8.445   7.823
    7AU     LIG 3858  20.029   8.127   7.733
    7AU     LIG 3859  19.972   7.672   7.872
    7AU     LIG 3860  19.929   7.190   7.933
    7AU     LIG 3861  19.680   6.771   8.010
    7AU     LIG 3862  19.644   6.378   8.283
    7AU     LIG 3863  19.589   5.901   8.284
    7AU       S 3864  19.941   8.992   8.284
    7AU     LIG 3865  19.633   8.577   8.311
    7AU     LIG 3866  19.333   8.281   8.499
    7AU     LIG 3867  19.085   7.959   8.739
    7AU     LIG 3868  18.849   7.685   9.053
    7AU     LIG 3869  18.829   7.434   9.461
    7AU     LIG 3870  18.897   7.181   9.866
    7AU    AUSL 3871  20.808   8.756   7.718
    7AU    AUSL 3872  20.319   8.770   7.267
    7AU     AUL 3873  20.630   8.506   7.485
    7AU       S 3874  20.213   8.458   7.172
    7AU     LIG 3875  19.923   8.078   7.152
    7AU     LIG 3876  19.807   7.602   7.116
    7AU     LIG 3877  19.724   7.148   6.953
    7AU     LIG 3878  19.495   6.716   6.857
    7AU     LIG 3879  19.552   6.322   6.590
    7AU     LIG 3880  19.568   5.954   6.283
    7AU       S 3881  20.712   8.540   7.924
    7AU     LIG 3882  20.605   8.025   7.839
    7AU     LIG 3883  20.473   7.547   7.888
    7AU     LIG 3884  20.478   7.077   8.034
    7AU     LIG 3885  20.709   6.667   8.192
    7AU     LIG 3886  20.818   6.223   8.342
    7AU     LIG 3887  21.065   5.841   8.209
    7AU    AUSL 3888  20.579  10.222   6.951
    7AU    AUSL 3889  20.873  10.011   7.254
    7AU     AUL 3890  20.957  10.311   7.002
    7AU       S 3891  20.635  10.558   6.782
    7AU     LIG 3892  20.866  10.843   6.500
    7AU     LIG 3893  21.000  11.235   6.272
    7AU     LIG 3894  21.057  11.448   5.833
    7AU     LIG 3895  21.095  11.840   5.553
    7AU     LIG 3896  20.994  12.255   5.330
    7AU     LIG 3897  20.760  12.616   5.107
    7AU       S 3898  21.317  10.024   6.960
    7AU     LIG 3899  21.591  10.469   6.796
    7AU     LIG 3900  21.943  10.584   6.495
    7AU     LIG 3901  22.206  10.818   6.176
    7AU     LIG 3902  22.443  11.223   6.052
    7AU     LIG 3903  22.561  11.697   6.000
    7AU     LIG 3904  22.857  12.069   5.977
    7AU    AUSL 3905  20.472  10.192   7.346
    7AU    AUSL 3906  20.334   9.919   7.053
    7AU     AUL 3907  20.312  10.393   7.088
    7AU       S 3908  20.678  10.686   7.012
    7AU     LIG 3909  20.787  11.148   6.897
    7AU     LIG 3910  20.808  11.562   6.663
    7AU     LIG 3911  20.548  11.978   6.589
    7AU     LIG 3912  20.415  12.440   6.559
    7AU     LIG 3913  20.249  12.887   6.540
    7AU     LIG 3914  20.049  13.282   6.369
    7AU       S 3915  20.145  10.185   6.708
    7AU     LIG 3916  20.070  10.278   6.283
    7AU     LIG 3917  19.848  10.579   5.976
    7AU     LIG 3918  19.681  10.704   5.526
    7AU     LIG 3919  19.690  10.975   5.110
    7AU     LIG 3920  19.582  11.268   4.748
    7AU     LIG 3921  19.353  11.635   4.562
    7AU    AUSL 3922  20.648   8.869   6.998
    7AU    AUSL 3923  20.248   9.153   7.347
    7AU     AUL 3924  20.337   8.854   6.925
    7AU       S 3925  19.866   8.790   7.121
    7AU     LIG 3926  19.646   8.496   7.285
    7AU     LIG 3927  19.332   8.215   7.099
    7AU     LIG 3928  18.976   8.021   6.839
    7AU     LIG 3929  18.681   7.798   6.528
    7AU     LIG 3930  18.360   7.604   6.212
    7AU     LIG 3931  17.941   7.347   6.114
    7AU       S 3932  20.470   8.436   7.043
    7AU     LIG 3933  20.190   8.234   6.734
    7AU     LIG 3934  20.010   7.813   6.693
    7AU     LIG 3935  20.067   7.353   6.594
    7AU     LIG 3936  20.253   7.009   6.299
    7AU     LIG 3937  20.407   6.818   5.871
    7AU     LIG 3938  20.424   6.510   5.511
    7AU    AUSL 3939  20.655   8.959   7.407
    7AU    AUSL 3940  20.784   9.228   7.111
    7AU     AUL 3941  20.829   8.735   7.158
    7AU       S 3942  20.233   8.562   7.290
    7AU     LIG 3943  20.387   8.056   7.372
    7AU     LIG 3944  20.320   7.661   7.108
    7AU     LIG 3945  20.363   7.190   6.985
    7AU     LIG 3946  20.620   6.781   6.891
    7AU     LIG 3947  20.766   6.371   6.702
    7AU     LIG 3948  21.170   6.202   6.536
    7AU       S 3949  21.052   8.842   6.774
    7AU     LIG 3950  20.928   8.583   6.478
    7AU     LIG 3951  21.153   8.232   6.272
    7AU     LIG 3952  21.395   7.898   6.031
    7AU     LIG 3953  21.650   7.587   5.762
    7AU     LIG 3954  21.735   7.428   5.313
    7AU     LIG 3955  21.886   7.228   4.905
    8AU     AUC 3956  17.684  36.989   7.500
    8AU     AUC 3957  17.947  36.991   7.340
    8AU     AUC 3958  17.938  36.983   7.650
    8AU     AUC 3959  17.435  36.991   7.335
    8AU     AUC 3960  17.423  37.009   7.649
    8AU     AUC 3961  17.533  37.247   7.494
    8AU     AUC 3962  17.845  37.244   7.484
    8AU     AUC 3963  17.532  36.733   7.511
    8AU     AUC 3964  17.824  36.735   7.522
    8AU     AUC 3965  17.676  36.843   7.762
    8AU     AUC 3966  17.699  37.154   7.753
    8AU     AUC 3967  17.686  36.825   7.244
    8AU     AUC 3968  17.676  37.127   7.237
    8AU     AUC 3969  18.196  36.983   7.179
    8AU     AUC 3970  18.203  36.992   7.489
    8AU     AUC 3971  18.197  36.984   7.796
    8AU     AUC 3972  17.176  36.978   7.182
    8AU     AUC 3973  17.167  37.005   7.490
    8AU     AUC 3974  17.175  37.025   7.809
    8AU     AUC 3975  17.391  37.513   7.496
    8AU     AUC 3976  17.699  37.512   7.490
    8AU     AUC 3977  17.992  37.505   7.485
    8AU     AUC 3978  17.352  36.479   7.517
    8AU     AUC 3979  17.667  36.467   7.509
    8AU     AUC 3980  17.982  36.470   7.529
    8AU     AUC 3981  17.660  36.693   8.016
    8AU     AUC 3982  17.685  37.003   8.026
    8AU     AUC 3983  17.705  37.310   8.014
    8AU     AUC 3984  17.689  36.650   7.008
    8AU     AUC 3985  17.698  36.966   6.976
    8AU     AUC 3986  17.675  37.273   6.972
    8AU     AUC 3987  17.950  36.844   7.925
    8AU     AUC 3988  17.955  37.137   7.915
    8AU     AUC 3989  17.959  36.816   7.085
    8AU     AUC 3990  17.957  37.123   7.070
    8AU     AUC 3991  17.413  36.862   7.925
    8AU     AUC 3992  17.434  37.172   7.924
    8AU     AUC 3993  17.440  36.823   7.069
    8AU     AUC 3994  17.425  37.130   7.074
    8AU     AUC 3995  18.099  37.254   7.317
    8AU     AUC 3996  18.114  37.236   7.635
    8AU     AUC 3997  17.265  37.245   7.345
    8AU     AUC 3998  17.277  37.271   7.664
    8AU     AUC 3999  18.098  36.723   7.353
    8AU     AUC 4000  18.099  36.729   7.670
    8AU     AUC 4001  17.262  36.736   7.338
    8AU     AUC 4002  17.266  36.748   7.679
    8AU     AUC 4003  17.539  37.412   7.765
    8AU     AUC 4004  17.857  37.417   7.736
    8AU     AUC 4005  17.506  36.571   7.756
    8AU     AUC 4006  17.824  36.581   7.788
    8AU     AUC 4007  17.523  37.399   7.232
    8AU     AUC 4008  17.840  37.388   7.217
    8AU     AUC 4009  17.513  36.573   7.242
    8AU     AUC 4010  17.841  36.561   7.269
    8AU    AUSL 4011  18.036  36.938   8.089
    8AU    AUSL 4012  17.983  36.520   8.139
    8AU     AUL 4013  18.220  36.597   8.404
    8AU       S 4014  18.262  36.224   8.094
    8AU     LIG 4015  18.152  36.042   8.468
    8AU     LIG 4016  18.239  35.622   8.632
    8AU     LIG 4017  18.479  35.304   8.888
    8AU     LIG 4018  18.613  35.075   9.286
    8AU     LIG 4019  18.573  34.846   9.715
    8AU     LIG 4020  18.788  34.597  10.056
    8AU       S 4021  18.087  36.967   8.657
    8AU     LIG 4022  18.272  36.639   8.914
    8AU     LIG 4023  18.499  36.445   9.286
    8AU     LIG 4024  18.867  36.389   9.593
    8AU     LIG 4025  19.267  36.378   9.865
    8AU     LIG 4026  19.529  36.397  10.260
    8AU     LIG 4027  19.589  36.601  10.676
    8AU    AUSL 4028  17.757  36.795   8.354
    8AU    AUSL 4029  17.615  37.181   8.280
    8AU     AUL 4030  17.676  37.162   8.700
    8AU       S 4031  17.830  36.797   8.501
    8AU     LIG 4032  17.839  36.410   8.711
    8AU     LIG 4033  18.036  36.222   9.122
    8AU     LIG 4034  18.186  36.136   9.586
    8AU     LIG 4035  18.229  36.034  10.062
    8AU     LIG 4036  18.358  35.997  10.526
    8AU     LIG 4037  18.513  36.174  10.939
    8AU       S 4038  17.334  36.883   8.619
    8AU     LIG 4039  17.219  36.790   9.089
    8AU     LIG 4040  17.058  36.696   9.533
    8AU     LIG 4041  16.963  36.774   9.996
    8AU     LIG 4042  16.918  37.077  10.388
    8AU     LIG 4043  16.738  37.363  10.749
    8AU     LIG 4044  16.630  37.509  11.208
    8AU    AUSL 4045  18.000  37.292   8.284
    8AU    AUSL 4046  18.337  37.191   7.967
    8AU     AUL 4047  18.327  37.022   8.279
    8AU       S 4048  18.033  37.331   8.464
    8AU     LIG 4049  18.242  37.409   8.879
    8AU     LIG 4050  18.350  37.568   9.341
    8AU     LIG 4051  18.267  37.705   9.815
    8AU     LIG 4052  18.276  38.006  10.209
    8AU     LIG 4053  18.436  38.144  10.639
    8AU     LIG 4054  18.604  37.917  11.024
    8AU       S 4055  18.621  37.248   8.003
    8AU     LIG 4056  18.803  37.184   8.412
    8AU     LIG 4057  19.073  37.430   8.697
    8AU     LIG 4058  19.352  37.727   8.940
    8AU     LIG 4059  19.585  37.843   9.339
    8AU     LIG 4060  19.882  37.961   9.684
    8AU     LIG 4061  20.233  38.182   9.918
    8AU    AUSL 4062  18.230  37.017   6.868
    8AU    AUSL 4063  17.987  37.404   6.820
    8AU     AUL 4064  18.361  37.370   6.460
    8AU       S 4065  18.261  37.041   6.713
    8AU     LIG 4066  18.535  36.934   6.308
    8AU     LIG 4067  18.556  36.693   5.920
    8AU     LIG 4068  18.713  36.587   5.482
    8AU     LIG 4069  19.107  36.569   5.187
    8AU     LIG 4070  19.546  36.605   4.975
    8AU     LIG 4071  19.861  36.646   4.624
    8AU       S 4072  17.985  37.455   6.658
    8AU     LIG 4073  18.263  37.837   6.586
    8AU     LIG 4074  18.621  37.870   6.310
    8AU     LIG 4075  18.933  38.095   6.023
    8AU     LIG 4076  19.067  38.388   5.662
    8AU     LIG 4077  19.068  38.637   5.242
    8AU     LIG 4078  19.245  38.920   4.904
    8AU    AUSL 4079  17.973  36.696   6.718
    8AU    AUSL 4080  18.300  36.643   7.013
    8AU     AUL 4081  18.404  36.636   6.681
    8AU       S 4082  18.368  36.211   6.862
    8AU     LIG 4083  18.487  35.933   6.504
    8AU     LIG 4084  18.669  35.527   6.331
    8AU     LIG 4085  18.913  35.278   6.008
    8AU     LIG 4086  19.248  35.291   5.669
    8AU     LIG 4087  19.655  35.322   5.418
    8AU     LIG 4088  20.014  35.318   5.102
    8AU       S 4089  18.065  36.898   6.450
    8AU     LIG 4090  18.157  36.516   6.236
    8AU     LIG 4091  18.200  36.340   5.784
    8AU     LIG 4092  18.185  36.150   5.330
    8AU     LIG 4093  18.230  35.953   4.880
    8AU     LIG 4094  18.339  35.935   4.412
    8AU     LIG 4095  18.401  36.105   3.963
    8AU    AUSL 4096  17.819  37.044   6.888
    8AU    AUSL 4097  17.574  36.794   6.670
    8AU     AUL 4098  17.766  36.567   6.575
    8AU       S 4099  17.531  36.892   6.339
    8AU     LIG 4100  17.508  36.526   6.105
    8AU     LIG 4101  17.248  36.316   5.750
    8AU     LIG 4102  17.031  36.191   5.330
    8AU     LIG 4103  16.753  36.005   4.972
    8AU     LIG 4104  16.657  35.895   4.509
    8AU     LIG 4105  16.850  35.916   4.055
    8AU       S 4106  17.975  37.012   6.493
    8AU     LIG 4107  18.085  36.962   5.976
    8AU     LIG 4108  18.226  36.804   5.539
    8AU     LIG 4109  18.416  36.813   5.093
    8AU     LIG 4110  18.424  36.983   4.628
    8AU     LIG 4111  18.481  37.159   4.173
    8AU     LIG 4112  18.657  37.429   3.817
    8AU    AUSL 4113  17.233  37.066   8.202
    8AU    AUSL 4114  17.377  37.471   8.128
    8AU     AUL 4115  17.413  37.395   8.425
    8AU       S 4116  17.171  37.055   8.647
    8AU     LIG 4117  16.867  36.696   8.719
    8AU     LIG 4118  16.737  36.526   9.156
    8AU     LIG 4119  16.571  36.499   9.627
    8AU     LIG 4120  16.243  36.526  10.001
    8AU     LIG 4121  15.897  36.643  10.335
    8AU     LIG 4122  15.649  36.733  10.750
    8AU       S 4123  16.956  37.427   8.356
    8AU     LIG 4124  17.014  37.547   8.778
    8AU     LIG 4125  16.954  37.927   9.049
    8AU     LIG 4126  16.719  38.238   9.320
    8AU     LIG 4127  16.597  38.377   9.761
    8AU     LIG 4128  16.481  38.604  10.170
    8AU     LIG 4129  16.238  38.924  10.429
    8AU    AUSL 4130  17.536  36.860   8.024
    8AU    AUSL 4131  17.031  36.779   7.995
    8AU     AUL 4132  17.039  36.901   8.235
    8AU       S 4133  16.858  36.465   8.228
    8AU     LIG 4134  16.437  36.283   8.146
    8AU     LIG 4135  16.073  36.028   8.257
    8AU     LIG 4136  15.885  35.761   8.582
    8AU     LIG 4137  15.691  35.487   8.893
    8AU     LIG 4138  15.418  35.221   9.148
    8AU     LIG 4139  15.049  35.232   9.445
    8AU       S 4140  17.351  36.777   8.576
    8AU     LIG 4141  17.288  36.383   8.784
    8AU     LIG 4142  17.178  36.271   9.244
    8AU     LIG 4143  16.993  36.193   9.693
    8AU     LIG 4144  16.797  35.989  10.094
    8AU     LIG 4145  16.610  35.955  10.541
    8AU     LIG 4146  16.436  35.878  10.989
    8AU    AUSL 4147  17.291  36.950   6.912
    8AU    AUSL 4148  17.428  36.522   6.930
    8AU     AUL 4149  17.249  36.642   6.633
    8AU       S 4150  17.317  36.980   6.303
    8AU     LIG 4151  17.048  36.741   6.013
    8AU     LIG 4152  16.833  36.594   5.602
    8AU     LIG 4153  16.553  36.405   5.259
    8AU     LIG 4154  16.183  36.386   4.952
    8AU     LIG 4155  15.883  36.359   4.588
    8AU     LIG 4156  15.643  36.472   4.201
    8AU       S 4157  16.992  36.252   6.788
    8AU     LIG 4158  16.749  35.859   6.778
    8AU     LIG 4159  16.447  35.582   6.541
    8AU     LIG 4160  16.177  35.306   6.263
    8AU     LIG 4161  16.081  35.127   5.828
    8AU     LIG 4162  16.232  34.889   5.419
    8AU     LIG 4163  16.227  34.607   5.021
    8AU    AUSL 4164  17.527  37.227   6.674
    8AU    AUSL 4165  17.028  37.255   6.979
    8AU     AUL 4166  17.113  37.104   6.688
    8AU       S 4167  16.922  37.517   6.770
    8AU     LIG 4168  16.689  37.585   6.387
    8AU     LIG 4169  16.574  37.869   6.016
    8AU     LIG 4170  16.370  37.963   5.579
    8AU     LIG 4171  15.980  37.981   5.275
    8AU     LIG 4172  15.521  38.119   5.173
    8AU     LIG 4173  15.183  38.442   5.142
    8AU       S 4174  17.529  37.157   6.448
    8AU     LIG 4175  17.570  37.064   5.894
    8AU     LIG 4176  17.323  36.797   5.571
    8AU     LIG 4177  17.127  36.671   5.145
    8AU     LIG 4178  17.143  36.750   4.657
    8AU     LIG 4179  17.070  36.968   4.220
    8AU     LIG 4180  16.853  37.284   3.918
    8AU    AUSL 4181  18.294  37.600   7.422
    8AU    AUSL 4182  18.323  37.353   7.080
    8AU     AUL 4183  18.441  37.816   7.229
    8AU       S 4184  18.463  37.458   6.898
    8AU     LIG 4185  18.835  37.396   6.640
    8AU     LIG 4186  19.090  37.652   6.310
    8AU     LIG 4187  19.373  37.821   5.945
    8AU     LIG 4188  19.680  37.916   5.573
    8AU     LIG 4189  20.024  37.955   5.226
    8AU     LIG 4190  20.408  38.152   5.032
    8AU       S 4191  18.758  37.481   7.337
    8AU     LIG 4192  19.258  37.500   7.464
    8AU     LIG 4193  19.770  37.556   7.460
    8AU     LIG 4194  20.266  37.618   7.439
    8AU     LIG 4195  20.734  37.761   7.432
    8AU     LIG 4196  20.974  38.210   7.343
    8AU     LIG 4197  21.091  38.704   7.266
    8AU    AUSL 4198  18.520  37.037   7.239
    8AU    AUSL 4199  18.514  36.879   7.656
    8AU     AUL 4200  18.798  36.810   7.426
    8AU       S 4201  18.729  37.249   7.291
    8AU     LIG 4202  19.141  37.103   7.176
    8AU     LIG 4203  19.630  37.130   7.211
    8AU     LIG 4204  20.118  37.227   7.137
    8AU     LIG 4205  20.602  37.405   7.051
    8AU     LIG 4206  21.108  37.533   7.029
    8AU     LIG 4207  21.603  37.665   7.085
    8AU       S 4208  18.814  36.404   7.677
    8AU     LIG 4209  19.143  36.158   7.809
    8AU     LIG 4210  19.555  35.951   7.792
    8AU     LIG 4211  19.974  35.750   7.776
    8AU     LIG 4212  20.413  35.590   7.729
    8AU     LIG 4213  20.829  35.540   7.941
    8AU     LIG 4214  21.235  35.584   8.216
    8AU    AUSL 4215  18.312  37.215   7.560
    8AU    AUSL 4216  18.208  37.557   7.821
    8AU     AUL 4217  18.458  37.561   7.689
    8AU       S 4218  18.470  37.443   8.119
    8AU     LIG 4219  18.903  37.646   8.184
    8AU     LIG 4220  19.086  37.922   8.533
    8AU     LIG 4221  19.281  38.270   8.813
    8AU     LIG 4222  19.439  38.761   8.791
    8AU     LIG 4223  19.724  39.168   8.849
    8AU     LIG 4224  20.154  39.342   9.008
    8AU       S 4225  18.780  37.276   7.547
    8AU     LIG 4226  19.109  37.083   7.742
    8AU     LIG 4227  19.592  37.148   7.732
    8AU     LIG 4228  20.078  37.252   7.762
    8AU     LIG 4229  20.521  37.484   7.877
    8AU     LIG 4230  20.979  37.536   8.055
    8AU     LIG 4231  21.439  37.677   8.126
    8AU    AUSL 4232  17.032  37.553   7.578
    8AU    AUSL 4233  17.073  37.299   7.912
    8AU     AUL 4234  17.042  37.755   7.829
    8AU       S 4235  16.872  37.378   8.100
    8AU     LIG 4236  16.516  37.624   8.391
    8AU     LIG 4237  16.502  37.783   8.843
    8AU     LIG 4238  16.313  37.913   9.275
    8AU     LIG 4239  15.977  37.920   9.643
    8AU     LIG 4240  15.587  38.073   9.891
    8AU     LIG 4241  15.158  38.211  10.036
    8AU       S 4242  16.666  37.547   7.676
    8AU     LIG 4243  16.600  37.953   7.446
    8AU     LIG 4244  16.259  38.319   7.435
    8AU     LIG 4245  15.888  38.650   7.478
    8AU     LIG 4246  15.461  38.886   7.518
    8AU     LIG 4247  15.113  39.093   7.769
    8AU     LIG 4248  14.694  39.293   7.931
    8AU    AUSL 4249  17.095  37.210   7.370
    8AU    AUSL 4250  17.186  37.613   7.202
    8AU     AUL 4251  16.900  37.539   7.244
    8AU       S 4252  16.542  37.466   7.552
    8AU     LIG 4253  16.404  37.562   7.115
    8AU     LIG 4254  15.982  37.651   6.869
    8AU     LIG 4255  15.497  37.717   6.754
    8AU     LIG 4256  15.007  37.799   6.684
    8AU     LIG 4257  14.584  38.036   6.637
    8AU     LIG 4258  14.132  38.174   6.759
    8AU       S 4259  17.008  37.769   6.836
    8AU     LIG 4260  16.915  38.039   6.443
    8AU     LIG 4261  16.758  38.362   6.114
    8AU     LIG 4262  16.646  38.808   5.946
    8AU     LIG 4263  16.383  39.230   5.972
    8AU     LIG 4264  15.925  39.388   5.990
    8AU     LIG 4265  15.576  39.679   5.864
    8AU    AUSL 4266  16.827  37.105   7.668
    8AU    AUSL 4267  16.865  36.882   7.305
    8AU     AUL 4268  16.696  37.140   7.277
    8AU       S 4269  16.527  36.681   7.422
    8AU     LIG 4270  16.256  36.643   7.822
    8AU     LIG 4271  15.778  36.578   7.841
    8AU     LIG 4272  15.306  36.458   7.746
    8AU     LIG 4273  14.922  36.383   7.435
    8AU     LIG 4274  14.503  36.159   7.338
    8AU     LIG 4275  14.038  36.030   7.298
    8AU       S 4276  16.639  37.129   7.756
    8AU     LIG 4277  16.320  37.344   8.010
    8AU     LIG 4278  15.941  37.608   8.196
    8AU     LIG 4279  15.461  37.776   8.263
    8AU     LIG 4280  14.963  37.906   8.297
    8AU     LIG 4281  14.523  38.123   8.391
    8AU     LIG 4282  14.055  38.074   8.264
    8AU    AUSL 4283  18.369  36.487   7.574
    8AU    AUSL 4284  18.322  36.689   7.956
    8AU     AUL 4285  18.629  36.749   7.915
    8AU       S 4286  18.512  36.234   7.555
    8AU     LIG 4287  18.703  35.892   7.739
    8AU     LIG 4288  19.113  35.670   7.650
    8AU     LIG 4289  19.551  35.492   7.554
    8AU     LIG 4290  19.995  35.316   7.499
    8AU     LIG 4291  20.439  35.136   7.479
    8AU     LIG 4292  20.848  35.054   7.719
    8AU       S 4293  18.346  36.382   8.028
    8AU     LIG 4294  18.738  36.151   8.189
    8AU     LIG 4295  18.745  35.810   8.526
    8AU     LIG 4296  18.959  35.461   8.788
    8AU     LIG 4297  19.259  35.327   9.149
    8AU     LIG 4298  19.655  35.286   9.433
    8AU     LIG 4299  19.992  35.256   9.777
    8AU    AUSL 4300  18.219  36.810   7.371
    8AU    AUSL 4301  18.144  36.346   7.264
    8AU     AUL 4302  18.492  36.553   7.192
    8AU       S 4303  18.563  36.395   7.603
    8AU     LIG 4304  18.923  36.103   7.312
    8AU     LIG 4305  19.392  35.941   7.302
    8AU     LIG 4306  19.867  35.790   7.275
    8AU     LIG 4307  20.320  35.600   7.217
    8AU     LIG 4308  20.670  35.487   6.919
    8AU     LIG 4309  21.061  35.393   6.690
    8AU       S 4310  18.389  36.108   7.070
    8AU     LIG 4311  18.283  35.670   6.899
    8AU     LIG 4312  18.352  35.254   6.652
    8AU     LIG 4313  18.583  35.006   6.310
    8AU     LIG 4314  18.809  34.621   6.155
    8AU     LIG 4315  19.128  34.270   6.093
    8AU     LIG 4316  19.499  34.128   5.862
    8AU    AUSL 4317  16.976  36.499   7.463
    8AU    AUSL 4318  17.061  36.647   7.050
    8AU     AUL 4319  16.777  36.726   7.023
    8AU       S 4320  16.983  36.317   7.017
    8AU     LIG 4321  16.497  36.299   6.957
    8AU     LIG 4322  16.209  36.009   6.725
    8AU     LIG 4323  15.952  35.748   6.412
    8AU     LIG 4324  15.727  35.499   6.067
    8AU     LIG 4325  15.416  35.475   5.698
    8AU     LIG 4326  15.201  35.503   5.266
    8AU       S 4327  16.674  36.472   7.402
    8AU     LIG 4328  16.269  36.241   7.481
    8AU     LIG 4329  15.772  36.232   7.461
    8AU     LIG 4330  15.316  36.027   7.482
    8AU     LIG 4331  14.865  35.942   7.672
    8AU     LIG 4332  14.423  35.766   7.677
    8AU     LIG 4333  14.288  35.335   7.562
    8AU    AUSL 4334  17.136  36.853   7.619
    8AU    AUSL 4335  17.218  36.463   7.799
    8AU     AUL 4336  16.849  36.634   7.794
    8AU       S 4337  16.939  36.269   8.053
    8AU     LIG 4338  16.704  36.093   7.759
    8AU     LIG 4339  16.387  35.773   7.939
    8AU     LIG 4340  16.084  35.472   8.207
    8AU     LIG 4341  15.793  35.180   8.493
    8AU     LIG 4342  15.546  34.865   8.782
    8AU     LIG 4343  15.283  34.451   8.904
    8AU       S 4344  16.568  36.740   7.458
    8AU     LIG 4345  16.041  36.696   7.363
    8AU     LIG 4346  15.553  36.733   7.385
    8AU     LIG 4347  15.093  36.866   7.522
    8AU     LIG 4348  14.794  36.668   7.832
    8AU     LIG 4349  14.487  36.297   7.835
    8AU     LIG 4350  14.042  36.087   7.818
    8AU    AUSL 4351  17.721  37.661   8.018
    8AU    AUSL 4352  17.400  37.455   7.723
    8AU     AUL 4353  17.426  37.764   8.098
    8AU       S 4354  17.026  37.600   8.257
    8AU     LIG 4355  16.888  37.966   8.509
    8AU     LIG 4356  16.662  38.278   8.797
    8AU     LIG 4357  16.513  38.665   9.044
    8AU     LIG 4358  16.333  39.126   9.095
    8AU     LIG 4359  16.070  39.542   9.071
    8AU     LIG 4360  15.662  39.708   9.234
    8AU       S 4361  17.786  38.055   7.973
    8AU     LIG 4362  17.985  38.128   8.351
    8AU     LIG 4363  18.119  38.546   8.542
    8AU     LIG 4364  18.253  38.984   8.708
    8AU     LIG 4365  18.335  39.307   9.060
    8AU     LIG 4366  18.210  39.575   9.442
    8AU     LIG 4367  17.874  39.824   9.674
    8AU    AUSL 4368  17.477  37.841   7.656
    8AU    AUSL 4369  17.910  37.823   7.261
    8AU     AUL 4370  17.588  38.074   7.415
    8AU       S 4371  17.638  38.135   7.869
    8AU     LIG 4372  17.813  38.549   8.093
    8AU     LIG 4373  17.902  38.968   8.311
    8AU     LIG 4374  17.895  39.437   8.397
    8AU     LIG 4375  17.624  39.853   8.427
    8AU     LIG 4376  17.480  40.273   8.624
    8AU     LIG 4377  17.334  40.737   8.585
    8AU       S 4378  17.961  38.155   7.126
    8AU     LIG 4379  18.328  38.320   6.880
    8AU     LIG 4380  18.495  38.782   6.759
    8AU     LIG 4381  18.740  39.220   6.714
    8AU     LIG 4382  18.934  39.681   6.652
    8AU     LIG 4383  18.978  40.184   6.612
    8AU     LIG 4384  18.815  40.662   6.571
    8AU    AUSL 4385  17.871  37.682   7.639
    8AU    AUSL 4386  17.893  37.315   7.903
    8AU     AUL 4387  18.044  37.688   8.051
    8AU       S 4388  18.426  37.478   8.225
    8AU     LIG 4389  18.605  37.647   8.600
    8AU     LIG 4390  18.826  37.799   8.978
    8AU     LIG 4391  19.101  38.019   9.282
    8AU     LIG 4392  19.352  38.232   9.615
    8AU     LIG 4393  19.325  38.628   9.881
    8AU     LIG 4394  19.305  38.980  10.202
    8AU       S 4395  17.956  37.994   7.708
    8AU     LIG 4396  18.237  38.299   7.933
    8AU     LIG 4397  18.329  38.748   8.113
    8AU     LIG 4398  18.375  39.210   8.259
    8AU     LIG 4399  18.579  39.637   8.358
    8AU     LIG 4400  18.666  40.131   8.381
    8AU     LIG 4401  18.561  40.608   8.406
    8AU    AUSL 4402  17.648  36.425   7.929
    8AU    AUSL 4403  18.003  36.554   7.732
    8AU     AUL 4404  17.828  36.311   8.191
    8AU       S 4405  17.691  35.886   8.024
    8AU     LIG 4406  17.775  35.587   8.308
    8AU     LIG 4407  17.464  35.248   8.259
    8AU     LIG 4408  17.291  34.831   8.353
    8AU     LIG 4409  17.312  34.383   8.504
    8AU     LIG 4410  17.354  34.052   8.856
    8AU     LIG 4411  17.331  33.700   9.189
    8AU       S 4412  18.283  36.179   7.960
    8AU     LIG 4413  18.394  35.732   8.135
    8AU     LIG 4414  18.600  35.343   8.375
    8AU     LIG 4415  18.805  34.967   8.621
    8AU     LIG 4416  18.994  34.495   8.634
    8AU     LIG 4417  19.337  34.140   8.668
    8AU     LIG 4418  19.625  33.878   8.927
    8AU    AUSL 4419  17.477  36.183   7.654
    8AU    AUSL 4420  17.358  36.545   8.189
    8AU     AUL 4421  17.390  36.226   8.031
    8AU       S 4422  17.440  35.834   7.805
    8AU     LIG 4423  17.209  35.446   7.734
    8AU     LIG 4424  17.074  35.049   7.924
    8AU     LIG 4425  16.994  34.590   7.997
    8AU     LIG 4426  16.696  34.216   7.986
    8AU     LIG 4427  16.590  33.770   8.073
    8AU     LIG 4428  16.531  33.373   8.294
    8AU       S 4429  17.083  36.419   8.309
    8AU     LIG 4430  16.792  36.021   8.452
    8AU     LIG 4431  16.424  35.728   8.499
    8AU     LIG 4432  16.197  35.378   8.736
    8AU     LIG 4433  15.965  35.075   9.030
    8AU     LIG 4434  15.982  34.847   9.453
    8AU     LIG 4435  16.037  34.616   9.871
    8AU    AUSL 4436  17.911  36.164   7.705
    8AU    AUSL 4437  17.423  36.181   7.248
    8AU     AUL 4438  17.736  35.914   7.466
    8AU       S 4439  17.337  35.875   7.129
    8AU     LIG 4440  17.032  35.569   7.201
    8AU     LIG 4441  17.097  35.112   7.242
    8AU     LIG 4442  17.065  34.656   7.061
    8AU     LIG 4443  16.809  34.221   7.036
    8AU     LIG 4444  16.685  33.755   6.921
    8AU     LIG 4445  16.644  33.320   6.719
    8AU       S 4446  17.816  35.943   7.906
    8AU     LIG 4447  17.732  35.432   7.818
    8AU     LIG 4448  17.573  34.964   7.842
    8AU     LIG 4449  17.520  34.508   8.022
    8AU     LIG 4450  17.591  34.051   8.197
    8AU     LIG 4451  17.785  33.590   8.227
    8AU     LIG 4452  18.177  33.332   8.327
    8AU    AUSL 4453  17.675  37.633   6.947
    8AU    AUSL 4454  17.971  37.423   7.252
    8AU     AUL 4455  18.050  37.725   7.004
    8AU       S 4456  17.725  37.951   6.764
    8AU     LIG 4457  17.976  38.252   6.509
    8AU     LIG 4458  18.168  38.667   6.359
    8AU     LIG 4459  18.239  38.967   5.969
    8AU     LIG 4460  18.107  39.282   5.612
    8AU     LIG 4461  18.089  39.613   5.253
    8AU     LIG 4462  17.911  40.053   5.245
    8AU       S 4463  18.413  37.441   6.965
    8AU     LIG 4464  18.723  37.860   6.820
    8AU     LIG 4465  19.006  38.129   6.542
    8AU     LIG 4466  19.192  38.481   6.278
    8AU     LIG 4467  19.384  38.920   6.303
    8AU     LIG 4468  19.619  39.338   6.171
    8AU     LIG 4469  19.948  39.611   5.925
    8AU    AUSL 4470  17.568  37.605   7.342
    8AU    AUSL 4471  17.431  37.329   7.050
    8AU     AUL 4472  17.403  37.801   7.082
    8AU       S 4473  17.763  38.098   6.993
    8AU     LIG 4474  17.869  38.579   6.879
    8AU     LIG 4475  17.938  39.014   6.703
    8AU     LIG 4476  17.701  39.445   6.652
    8AU     LIG 4477  17.371  39.820   6.659
    8AU     LIG 4478  17.171  40.264   6.589
    8AU     LIG 4479  17.237  40.730   6.479
    8AU       S 4480  17.234  37.585   6.705
    8AU     LIG 4481  17.191  37.637   6.263
    8AU     LIG 4482  17.067  37.980   5.927
    8AU     LIG 4483  16.876  38.309   5.601
    8AU     LIG 4484  16.802  38.621   5.219
    8AU     LIG 4485  16.647  38.908   4.857
    8AU     LIG 4486  16.278  38.994   4.561
    8AU    AUSL 4487  17.752  36.283   6.983
    8AU    AUSL 4488  17.352  36.563   7.334
    8AU     AUL 4489  17.436  36.276   6.900
    8AU       S 4490  16.964  36.195   7.112
    8AU     LIG 4491  16.655  35.933   7.275
    8AU     LIG 4492  16.347  35.644   7.062
    8AU     LIG 4493  16.030  35.399   6.781
    8AU     LIG 4494  15.712  35.181   6.486
    8AU     LIG 4495  15.364  34.854   6.358
    8AU     LIG 4496  15.215  34.406   6.242
    8AU       S 4497  17.584  35.859   7.013
    8AU     LIG 4498  17.403  35.462   6.841
    8AU     LIG 4499  17.263  35.038   6.742
    8AU     LIG 4500  17.394  34.616   6.633
    8AU     LIG 4501  17.419  34.266   6.322
    8AU     LIG 4502  17.363  34.124   5.859
    8AU     LIG 4503  17.466  33.980   5.410
    8AU    AUSL 4504  17.759  36.367   7.393
    8AU    AUSL 4505  17.887  36.640   7.101
    8AU     AUL 4506  17.936  36.148   7.142
    8AU       S 4507  17.349  35.979   7.258
    8AU     LIG 4508  17.527  35.470   7.340
    8AU     LIG 4509  17.594  35.047   7.129
    8AU     LIG 4510  17.725  34.609   7.019
    8AU     LIG 4511  17.623  34.172   6.824
    8AU     LIG 4512  17.552  33.678   6.794
    8AU     LIG 4513  17.685  33.226   6.684
    8AU       S 4514  18.157  36.255   6.757
    8AU     LIG 4515  17.966  35.912   6.578
    8AU     LIG 4516  18.151  35.560   6.290
    8AU     LIG 4517  18.388  35.308   5.936
    8AU     LIG 4518  18.638  35.025   5.630
    8AU     LIG 4519  18.858  34.837   5.229
    8AU     LIG 4520  18.908  34.467   4.922
    9AU     AUC 4521  37.601  10.578   7.500
    9AU     AUC 4522  37.865  10.579   7.341
    9AU     AUC 4523  37.855  10.571   7.652
    9AU     AUC 4524  37.351  10.581   7.331
    9AU     AUC 4525  37.340  10.598   7.648
    9AU     AUC 4526  37.452  10.835   7.495
    9AU     AUC 4527  37.765  10.831   7.486
    9AU     AUC 4528  37.447  10.323   7.510
    9AU     AUC 4529  37.741  10.323   7.522
    9AU     AUC 4530  37.592  10.431   7.761
    9AU     AUC 4531  37.614  10.743   7.754
    9AU     AUC 4532  37.603  10.414   7.245
    9AU     AUC 4533  37.596  10.717   7.237
    9AU     AUC 4534  38.115  10.570   7.182
    9AU     AUC 4535  38.120  10.580   7.491
    9AU     AUC 4536  38.114  10.572   7.798
    9AU     AUC 4537  37.093  10.569   7.175
    9AU     AUC 4538  37.083  10.594   7.485
    9AU     AUC 4539  37.091  10.613   7.806
    9AU     AUC 4540  37.308  11.101   7.496
    9AU     AUC 4541  37.618  11.099   7.492
    9AU     AUC 4542  37.912  11.094   7.488
    9AU     AUC 4543  37.267  10.069   7.516
    9AU     AUC 4544  37.582  10.057   7.509
    9AU     AUC 4545  37.897  10.058   7.531
    9AU     AUC 4546  37.574  10.282   8.015
    9AU     AUC 4547  37.600  10.591   8.026
    9AU     AUC 4548  37.621  10.898   8.014
    9AU     AUC 4549  37.606  10.239   7.005
    9AU     AUC 4550  37.615  10.558   6.976
    9AU     AUC 4551  37.596  10.862   6.973
    9AU     AUC 4552  37.865  10.432   7.926
    9AU     AUC 4553  37.871  10.725   7.916
    9AU     AUC 4554  37.877  10.405   7.087
    9AU     AUC 4555  37.879  10.712   7.073
    9AU     AUC 4556  37.328  10.450   7.923
    9AU     AUC 4557  37.350  10.760   7.924
    9AU     AUC 4558  37.355  10.418   7.065
    9AU     AUC 4559  37.344  10.722   7.071
    9AU     AUC 4560  38.018  10.842   7.319
    9AU     AUC 4561  38.032  10.824   7.637
    9AU     AUC 4562  37.184  10.834   7.343
    9AU     AUC 4563  37.194  10.859   7.664
    9AU     AUC 4564  38.015  10.310   7.354
    9AU     AUC 4565  38.015  10.317   7.672
    9AU     AUC 4566  37.180  10.326   7.332
    9AU     AUC 4567  37.181  10.338   7.676
    9AU     AUC 4568  37.455  11.000   7.765
    9AU     AUC 4569  37.774  11.004   7.738
    9AU     AUC 4570  37.421  10.160   7.756
    9AU     AUC 4571  37.740  10.169   7.789
    9AU     AUC 4572  37.443  10.988   7.234
    9AU     AUC 4573  37.761  10.978   7.218
    9AU     AUC 4574  37.430  10.165   7.243
    9AU     AUC 4575  37.758  10.150   7.270
    9AU    AUSL 4576  37.950  10.526   8.091
    9AU    AUSL 4577  37.898  10.109   8.141
    9AU     AUL 4578  38.133  10.182   8.403
    9AU       S 4579  38.162   9.818   8.081
    9AU     LIG 4580  38.027   9.550   8.402
    9AU     LIG 4581  38.184   9.197   8.650
    9AU     LIG 4582  38.425   8.944   8.968
    9AU     LIG 4583  38.666   8.716   9.308
    9AU     LIG 4584  38.678   8.412   9.664
    9AU     LIG 4585  38.755   8.336  10.112
    9AU       S 4586  38.000  10.551   8.660
    9AU     LIG 4587  38.258  10.257   8.915
    9AU     LIG 4588  38.509  10.111   9.308
    9AU     LIG 4589  38.883  10.150   9.626
    9AU     LIG 4590  39.290  10.247   9.891
    9AU     LIG 4591  39.592  10.264  10.266
    9AU     LIG 4592  39.663  10.448  10.685
    9AU    AUSL 4593  37.670  10.385   8.354
    9AU    AUSL 4594  37.532  10.771   8.274
    9AU     AUL 4595  37.591  10.750   8.696
    9AU       S 4596  37.741  10.381   8.503
    9AU     LIG 4597  37.818  10.015   8.769
    9AU     LIG 4598  38.044   9.867   9.208
    9AU     LIG 4599  38.194   9.726   9.682
    9AU     LIG 4600  38.289   9.607  10.175
    9AU     LIG 4601  38.414   9.565  10.654
    9AU     LIG 4602  38.444   9.629  11.133
    9AU       S 4603  37.250  10.467   8.624
    9AU     LIG 4604  37.118  10.408   9.083
    9AU     LIG 4605  36.941  10.359   9.521
    9AU     LIG 4606  36.757  10.431   9.965
    9AU     LIG 4607  36.819  10.646  10.407
    9AU     LIG 4608  36.793  10.964  10.782
    9AU     LIG 4609  36.728  11.018  11.258
    9AU    AUSL 4610  37.917  10.880   8.287
    9AU    AUSL 4611  38.253  10.777   7.969
    9AU     AUL 4612  38.246  10.606   8.286
    9AU       S 4613  37.945  10.917   8.456
    9AU     LIG 4614  38.134  11.035   8.834
    9AU     LIG 4615  38.154  11.224   9.279
    9AU     LIG 4616  38.131  11.339   9.749
    9AU     LIG 4617  38.213  11.351  10.216
    9AU     LIG 4618  38.380  11.391  10.644
    9AU     LIG 4619  38.427  11.230  11.088
    9AU       S 4620  38.537  10.839   8.011
    9AU     LIG 4621  38.809  10.922   8.386
    9AU     LIG 4622  39.057  11.121   8.747
    9AU     LIG 4623  39.366  11.346   9.039
    9AU     LIG 4624  39.693  11.374   9.410
    9AU     LIG 4625  40.056  11.353   9.750
    9AU     LIG 4626  40.430  11.522  10.012
    9AU    AUSL 4627  38.151  10.604   6.867
    9AU    AUSL 4628  37.913  10.993   6.820
    9AU     AUL 4629  38.282  10.948   6.453
    9AU       S 4630  38.183  10.628   6.717
    9AU     LIG 4631  38.481  10.518   6.321
    9AU     LIG 4632  38.510  10.305   5.915
    9AU     LIG 4633  38.641  10.177   5.471
    9AU     LIG 4634  38.974  10.121   5.115
    9AU     LIG 4635  39.352  10.089   4.798
    9AU     LIG 4636  39.661  10.119   4.426
    9AU       S 4637  37.919  11.050   6.667
    9AU     LIG 4638  38.185  11.418   6.574
    9AU     LIG 4639  38.551  11.440   6.280
    9AU     LIG 4640  38.821  11.568   5.886
    9AU     LIG 4641  39.020  11.789   5.493
    9AU     LIG 4642  39.267  12.054   5.160
    9AU     LIG 4643  39.326  12.404   4.836
    9AU    AUSL 4644  37.886  10.288   6.718
    9AU    AUSL 4645  38.216  10.231   7.014
    9AU     AUL 4646  38.321  10.223   6.681
    9AU       S 4647  38.282   9.801   6.866
    9AU     LIG 4648  38.455   9.642   6.467
    9AU     LIG 4649  38.713   9.276   6.288
    9AU     LIG 4650  38.966   9.000   5.992
    9AU     LIG 4651  39.311   8.895   5.686
    9AU     LIG 4652  39.638   8.948   5.338
    9AU     LIG 4653  39.966   8.796   5.021
    9AU       S 4654  38.001  10.502   6.444
    9AU     LIG 4655  38.098  10.114   6.236
    9AU     LIG 4656  38.175   9.934   5.797
    9AU     LIG 4657  38.221   9.902   5.316
    9AU     LIG 4658  38.197   9.726   4.859
    9AU     LIG 4659  38.284   9.452   4.463
    9AU     LIG 4660  38.436   9.365   4.025
    9AU    AUSL 4661  37.743  10.636   6.897
    9AU    AUSL 4662  37.487  10.396   6.679
    9AU     AUL 4663  37.673  10.196   6.554
    9AU       S 4664  37.222  10.548   6.373
    9AU     LIG 4665  37.327  10.157   6.144
    9AU     LIG 4666  37.144   9.944   5.759
    9AU     LIG 4667  36.940   9.936   5.316
    9AU     LIG 4668  36.858   9.682   4.891
    9AU     LIG 4669  36.775   9.536   4.422
    9AU     LIG 4670  36.643   9.651   3.963
    9AU       S 4671  37.886  10.617   6.489
    9AU     LIG 4672  38.047  10.569   5.975
    9AU     LIG 4673  38.158  10.390   5.542
    9AU     LIG 4674  38.316  10.368   5.092
    9AU     LIG 4675  38.298  10.542   4.643
    9AU     LIG 4676  38.310  10.827   4.251
    9AU     LIG 4677  38.370  11.106   3.873
    9AU    AUSL 4678  37.151  10.650   8.211
    9AU    AUSL 4679  37.286  11.059   8.131
    9AU     AUL 4680  37.341  10.998   8.423
    9AU       S 4681  37.098  10.653   8.634
    9AU     LIG 4682  36.762  10.337   8.702
    9AU     LIG 4683  36.625  10.185   9.134
    9AU     LIG 4684  36.445  10.213   9.585
    9AU     LIG 4685  36.156  10.280   9.964
    9AU     LIG 4686  35.797  10.339  10.286
    9AU     LIG 4687  35.599  10.508  10.678
    9AU       S 4688  36.882  11.020   8.353
    9AU     LIG 4689  36.953  11.153   8.769
    9AU     LIG 4690  36.904  11.533   9.038
    9AU     LIG 4691  36.643  11.749   9.362
    9AU     LIG 4692  36.490  11.962   9.763
    9AU     LIG 4693  36.437  12.371  10.004
    9AU     LIG 4694  36.209  12.660  10.307
    9AU    AUSL 4695  37.449  10.446   8.023
    9AU    AUSL 4696  36.949  10.372   7.991
    9AU     AUL 4697  36.953  10.481   8.235
    9AU       S 4698  36.767  10.043   8.206
    9AU     LIG 4699  36.340   9.885   8.038
    9AU     LIG 4700  35.942   9.670   8.198
    9AU     LIG 4701  35.746   9.400   8.524
    9AU     LIG 4702  35.552   9.101   8.826
    9AU     LIG 4703  35.307   8.815   9.112
    9AU     LIG 4704  34.924   8.806   9.410
    9AU       S 4705  37.262  10.354   8.577
    9AU     LIG 4706  37.132   9.984   8.787
    9AU     LIG 4707  37.043   9.906   9.245
    9AU     LIG 4708  36.833   9.873   9.669
    9AU     LIG 4709  36.688   9.677  10.071
    9AU     LIG 4710  36.527   9.596  10.502
    9AU     LIG 4711  36.427   9.587  10.956
    9AU    AUSL 4712  37.178  10.560   6.880
    9AU    AUSL 4713  37.352  10.113   6.932
    9AU     AUL 4714  37.205  10.172   6.636
    9AU       S 4715  36.957  10.544   6.599
    9AU     LIG 4716  36.833  10.288   6.196
    9AU     LIG 4717  36.728  10.245   5.716
    9AU     LIG 4718  36.442  10.136   5.335
    9AU     LIG 4719  36.021  10.077   5.074
    9AU     LIG 4720  35.712  10.117   4.694
    9AU     LIG 4721  35.448  10.220   4.299
    9AU       S 4722  36.918   9.829   6.800
    9AU     LIG 4723  36.651   9.465   6.752
    9AU     LIG 4724  36.298   9.237   6.527
    9AU     LIG 4725  35.977   9.000   6.276
    9AU     LIG 4726  35.859   8.853   5.836
    9AU     LIG 4727  35.933   8.719   5.365
    9AU     LIG 4728  35.867   8.542   4.916
    9AU    AUSL 4729  37.467  10.832   6.676
    9AU    AUSL 4730  36.940  10.873   6.977
    9AU     AUL 4731  37.145  10.952   6.648
    9AU       S 4732  36.719  11.081   6.823
    9AU     LIG 4733  36.412  11.309   6.565
    9AU     LIG 4734  36.384  11.317   6.075
    9AU     LIG 4735  36.252  11.561   5.673
    9AU     LIG 4736  35.929  11.581   5.294
    9AU     LIG 4737  35.562  11.794   5.055
    9AU     LIG 4738  35.156  12.040   5.011
    9AU       S 4739  37.411  10.614   6.467
    9AU     LIG 4740  37.522  10.595   5.987
    9AU     LIG 4741  37.224  10.437   5.626
    9AU     LIG 4742  37.041  10.458   5.170
    9AU     LIG 4743  37.067  10.714   4.736
    9AU     LIG 4744  36.972  11.016   4.361
    9AU     LIG 4745  36.922  11.305   3.984
    9AU    AUSL 4746  38.213  11.189   7.425
    9AU    AUSL 4747  38.246  10.939   7.084
    9AU     AUL 4748  38.374  11.399   7.232
    9AU       S 4749  38.391  11.047   6.890
    9AU     LIG 4750  38.758  11.001   6.599
    9AU     LIG 4751  39.005  11.191   6.221
    9AU     LIG 4752  39.297  11.340   5.852
    9AU     LIG 4753  39.671  11.387   5.529
    9AU     LIG 4754  40.043  11.608   5.301
    9AU     LIG 4755  40.389  11.901   5.131
    9AU       S 4756  38.677  11.059   7.345
    9AU     LIG 4757  39.143  11.123   7.498
    9AU     LIG 4758  39.628  11.236   7.518
    9AU     LIG 4759  40.103  11.375   7.526
    9AU     LIG 4760  40.441  11.735   7.493
    9AU     LIG 4761  40.650  12.196   7.479
    9AU     LIG 4762  40.883  12.614   7.513
    9AU    AUSL 4763  38.439  10.621   7.242
    9AU    AUSL 4764  38.431  10.465   7.658
    9AU     AUL 4765  38.718  10.396   7.429
    9AU       S 4766  38.648  10.834   7.297
    9AU     LIG 4767  39.063  10.711   7.205
    9AU     LIG 4768  39.522  10.808   7.248
    9AU     LIG 4769  39.986  10.946   7.246
    9AU     LIG 4770  40.455  11.084   7.246
    9AU     LIG 4771  40.945  11.144   7.274
    9AU     LIG 4772  41.375  11.361   7.182
    9AU       S 4773  38.733   9.990   7.678
    9AU     LIG 4774  39.134   9.773   7.703
    9AU     LIG 4775  39.551   9.534   7.719
    9AU     LIG 4776  39.980   9.312   7.728
    9AU     LIG 4777  40.420   9.179   7.847
    9AU     LIG 4778  40.844   9.045   8.033
    9AU     LIG 4779  41.194   9.180   8.296
    9AU    AUSL 4780  38.231  10.803   7.562
    9AU    AUSL 4781  38.127  11.145   7.824
    9AU     AUL 4782  38.376  11.151   7.690
    9AU       S 4783  38.365  11.023   8.114
    9AU     LIG 4784  38.733  11.309   8.046
    9AU     LIG 4785  38.971  11.491   8.401
    9AU     LIG 4786  39.178  11.756   8.736
    9AU     LIG 4787  39.334  12.200   8.874
    9AU     LIG 4788  39.642  12.571   8.944
    9AU     LIG 4789  39.840  13.026   8.964
    9AU       S 4790  38.693  10.860   7.555
    9AU     LIG 4791  39.017  10.685   7.754
    9AU     LIG 4792  39.486  10.794   7.765
    9AU     LIG 4793  39.965  10.915   7.760
    9AU     LIG 4794  40.449  11.015   7.753
    9AU     LIG 4795  40.951  11.013   7.780
    9AU     LIG 4796  41.354  11.171   8.004
    9AU    AUSL 4797  36.943  11.124   7.580
    9AU    AUSL 4798  36.993  10.871   7.913
    9AU     AUL 4799  36.952  11.331   7.819
    9AU       S 4800  36.788  10.954   8.101
    9AU     LIG 4801  36.443  11.209   8.403
    9AU     LIG 4802  36.446  11.385   8.856
    9AU     LIG 4803  36.257  11.397   9.317
    9AU     LIG 4804  35.912  11.445   9.667
    9AU     LIG 4805  35.632  11.684   9.988
    9AU     LIG 4806  35.289  11.950  10.206
    9AU       S 4807  36.558  11.132   7.697
    9AU     LIG 4808  36.598  11.536   7.504
    9AU     LIG 4809  36.287  11.903   7.520
    9AU     LIG 4810  35.864  12.178   7.497
    9AU     LIG 4811  35.438  12.448   7.555
    9AU     LIG 4812  34.981  12.487   7.725
    9AU     LIG 4813  34.585  12.734   7.642
    9AU    AUSL 4814  37.021  10.791   7.359
    9AU    AUSL 4815  37.111  11.213   7.214
    9AU     AUL 4816  36.823  11.120   7.276
    9AU       S 4817  36.444  11.049   7.541
    9AU     LIG 4818  36.313  11.150   7.118
    9AU     LIG 4819  35.916  11.309   6.880
    9AU     LIG 4820  35.419  11.357   6.770
    9AU     LIG 4821  34.963  11.515   6.632
    9AU     LIG 4822  34.523  11.553   6.412
    9AU     LIG 4823  34.030  11.504   6.475
    9AU       S 4824  36.859  11.469   6.977
    9AU     LIG 4825  36.670  11.753   6.665
    9AU     LIG 4826  36.689  12.017   6.319
    9AU     LIG 4827  36.622  12.433   6.203
    9AU     LIG 4828  36.260  12.691   6.099
    9AU     LIG 4829  35.862  12.885   5.948
    9AU     LIG 4830  35.570  13.201   5.761
    9AU    AUSL 4831  36.744  10.704   7.654
    9AU    AUSL 4832  36.779  10.471   7.298
    9AU     AUL 4833  36.611  10.725   7.264
    9AU       S 4834  36.436  10.266   7.414
    9AU     LIG 4835  36.089  10.247   7.756
    9AU     LIG 4836  35.597  10.203   7.737
    9AU     LIG 4837  35.185   9.968   7.664
    9AU     LIG 4838  34.756   9.849   7.442
    9AU     LIG 4839  34.318   9.743   7.289
    9AU     LIG 4840  33.878   9.673   7.120
    9AU       S 4841  36.555  10.722   7.745
    9AU     LIG 4842  36.240  10.913   8.028
    9AU     LIG 4843  35.807  11.120   8.155
    9AU     LIG 4844  35.302  11.199   8.164
    9AU     LIG 4845  34.804  11.235   8.221
    9AU     LIG 4846  34.355  11.390   8.192
    9AU     LIG 4847  34.161  11.816   8.305
    9AU    AUSL 4848  38.286  10.074   7.577
    9AU    AUSL 4849  38.238  10.279   7.959
    9AU     AUL 4850  38.547  10.337   7.914
    9AU       S 4851  38.431   9.813   7.553
    9AU     LIG 4852  38.669   9.496   7.762
    9AU     LIG 4853  39.075   9.265   7.644
    9AU     LIG 4854  39.492   9.078   7.487
    9AU     LIG 4855  39.933   8.892   7.422
    9AU     LIG 4856  40.395   8.806   7.502
    9AU     LIG 4857  40.775   8.633   7.738
    9AU       S 4858  38.291   9.956   8.042
    9AU     LIG 4859  38.540   9.566   8.282
    9AU     LIG 4860  38.701   9.260   8.632
    9AU     LIG 4861  38.943   8.971   8.941
    9AU     LIG 4862  39.202   8.779   9.293
    9AU     LIG 4863  39.627   8.766   9.539
    9AU     LIG 4864  40.029   8.768   9.816
    9AU    AUSL 4865  38.136  10.397   7.373
    9AU    AUSL 4866  38.060   9.934   7.268
    9AU     AUL 4867  38.409  10.141   7.193
    9AU       S 4868  38.477   9.982   7.603
    9AU     LIG 4869  38.827   9.720   7.278
    9AU     LIG 4870  39.304   9.538   7.259
    9AU     LIG 4871  39.802   9.423   7.260
    9AU     LIG 4872  40.276   9.267   7.280
    9AU     LIG 4873  40.710   9.268   7.050
    9AU     LIG 4874  41.165   9.199   6.910
    9AU       S 4875  38.303   9.697   7.069
    9AU     LIG 4876  38.337   9.287   6.822
    9AU     LIG 4877  38.501   8.907   6.579
    9AU     LIG 4878  38.789   8.634   6.321
    9AU     LIG 4879  39.039   8.239   6.213
    9AU     LIG 4880  39.298   7.847   6.094
    9AU     LIG 4881  39.700   7.653   5.937
    9AU    AUSL 4882  36.891  10.088   7.456
    9AU    AUSL 4883  36.986  10.242   7.044
    9AU     AUL 4884  36.692  10.313   7.017
    9AU       S 4885  36.905   9.911   7.009
    9AU     LIG 4886  36.407   9.889   6.975
    9AU     LIG 4887  36.126   9.703   6.672
    9AU     LIG 4888  35.789   9.437   6.507
    9AU     LIG 4889  35.552   9.264   6.126
    9AU     LIG 4890  35.189   9.219   5.829
    9AU     LIG 4891  34.944   9.270   5.427
    9AU       S 4892  36.606  10.059   7.401
    9AU     LIG 4893  36.254   9.794   7.504
    9AU     LIG 4894  35.866   9.778   7.706
    9AU     LIG 4895  35.479   9.595   7.896
    9AU     LIG 4896  35.036   9.483   7.689
    9AU     LIG 4897  34.559   9.383   7.627
    9AU     LIG 4898  34.315   8.968   7.718
    9AU    AUSL 4899  37.047  10.442   7.613
    9AU    AUSL 4900  37.131  10.054   7.793
    9AU     AUL 4901  36.759  10.243   7.790
    9AU       S 4902  36.857   9.848   7.994
    9AU     LIG 4903  36.628   9.556   7.778
    9AU     LIG 4904  36.201   9.368   7.880
    9AU     LIG 4905  35.885   9.076   8.152
    9AU     LIG 4906  35.630   8.738   8.463
    9AU     LIG 4907  35.332   8.376   8.691
    9AU     LIG 4908  34.959   8.065   8.865
    9AU       S 4909  36.477  10.326   7.449
    9AU     LIG 4910  35.975  10.161   7.272
    9AU     LIG 4911  35.463  10.120   7.240
    9AU     LIG 4912  34.994  10.311   7.358
    9AU     LIG 4913  34.728  10.234   7.770
    9AU     LIG 4914  34.375   9.901   7.789
    9AU     LIG 4915  33.939   9.769   7.640
    9AU    AUSL 4916  37.631  11.247   8.019
    9AU    AUSL 4917  37.314  11.047   7.727
    9AU     AUL 4918  37.332  11.362   8.087
    9AU       S 4919  36.942  11.179   8.249
    9AU     LIG 4920  36.827  11.555   8.475
    9AU     LIG 4921  36.705  11.922   8.749
    9AU     LIG 4922  36.697  12.405   8.795
    9AU     LIG 4923  36.482  12.771   8.987
    9AU     LIG 4924  36.176  13.049   9.201
    9AU     LIG 4925  35.723  13.154   9.319
    9AU       S 4926  37.691  11.642   7.972
    9AU     LIG 4927  37.865  11.719   8.350
    9AU     LIG 4928  37.934  12.136   8.551
    9AU     LIG 4929  37.983  12.581   8.720
    9AU     LIG 4930  37.938  12.889   9.089
    9AU     LIG 4931  37.880  13.224   9.433
    9AU     LIG 4932  37.787  13.645   9.642
    9AU    AUSL 4933  37.396  11.428   7.645
    9AU    AUSL 4934  37.816  11.414   7.267
    9AU     AUL 4935  37.390  11.621   7.367
    9AU       S 4936  37.574  11.698   7.792
    9AU     LIG 4937  37.707  12.126   8.041
    9AU     LIG 4938  37.743  12.538   8.259
    9AU     LIG 4939  37.568  12.953   8.385
    9AU     LIG 4940  37.554  13.425   8.381
    9AU     LIG 4941  37.463  13.850   8.549
    9AU     LIG 4942  37.035  14.019   8.602
    9AU       S 4943  37.844  11.705   7.224
    9AU     LIG 4944  38.200  11.810   6.944
    9AU     LIG 4945  38.308  12.278   6.783
    9AU     LIG 4946  38.559  12.735   6.751
    9AU     LIG 4947  38.738  13.203   6.663
    9AU     LIG 4948  38.764  13.676   6.571
    9AU     LIG 4949  38.416  14.020   6.521
    9AU    AUSL 4950  37.789  11.268   7.643
    9AU    AUSL 4951  37.811  10.904   7.905
    9AU     AUL 4952  37.957  11.279   8.054
    9AU       S 4953  38.344  11.063   8.228
    9AU     LIG 4954  38.497  11.305   8.552
    9AU     LIG 4955  38.740  11.500   8.888
    9AU     LIG 4956  39.008  11.674   9.221
    9AU     LIG 4957  39.154  11.909   9.590
    9AU     LIG 4958  39.162  12.132  10.002
    9AU     LIG 4959  39.230  12.499  10.277
    9AU       S 4960  37.858  11.578   7.706
    9AU     LIG 4961  38.147  11.860   7.938
    9AU     LIG 4962  38.202  12.300   8.142
    9AU     LIG 4963  38.372  12.735   8.289
    9AU     LIG 4964  38.663  13.140   8.343
    9AU     LIG 4965  38.826  13.588   8.488
    9AU     LIG 4966  38.861  14.044   8.588
    9AU    AUSL 4967  37.564  10.015   7.930
    9AU    AUSL 4968  37.920  10.141   7.735
    9AU     AUL 4969  37.737   9.908   8.206
    9AU       S 4970  37.626   9.477   8.040
    9AU     LIG 4971  37.565   9.068   8.192
    9AU     LIG 4972  37.302   8.696   8.194
    9AU     LIG 4973  37.192   8.291   8.397
    9AU     LIG 4974  37.310   7.895   8.621
    9AU     LIG 4975  37.405   7.602   8.988
    9AU     LIG 4976  37.586   7.253   9.255
    9AU       S 4977  38.199   9.780   7.958
    9AU     LIG 4978  38.198   9.325   7.965
    9AU     LIG 4979  38.449   9.028   8.238
    9AU     LIG 4980  38.678   8.735   8.564
    9AU     LIG 4981  38.959   8.432   8.846
    9AU     LIG 4982  39.207   7.982   8.882
    9AU     LIG 4983  39.570   7.643   8.836
    9AU    AUSL 4984  37.392   9.772   7.657
    9AU    AUSL 4985  37.269  10.131   8.185
    9AU     AUL 4986  37.309   9.810   8.029
    9AU       S 4987  37.387   9.405   7.836
    9AU     LIG 4988  37.137   9.042   7.736
    9AU     LIG 4989  37.005   8.590   7.786
    9AU     LIG 4990  36.873   8.182   7.990
    9AU     LIG 4991  36.549   7.815   8.036
    9AU     LIG 4992  36.462   7.363   8.123
    9AU     LIG 4993  36.644   6.965   8.302
    9AU       S 4994  36.978   9.993   8.285
    9AU     LIG 4995  36.658   9.588   8.364
    9AU     LIG 4996  36.272   9.325   8.406
    9AU     LIG 4997  36.043   8.990   8.652
    9AU     LIG 4998  35.844   8.709   8.982
    9AU     LIG 4999  35.856   8.550   9.429
    9AU     LIG 5000  35.834   8.328   9.849
    9AU    AUSL 5001  37.826   9.752   7.704
    9AU    AUSL 5002  37.338   9.769   7.251
    9AU     AUL 5003  37.640   9.506   7.468
    9AU       S 5004  37.237   9.451   7.155
    9AU     LIG 5005  36.930   9.121   7.231
    9AU     LIG 5006  36.954   8.655   7.265
    9AU     LIG 5007  36.939   8.214   7.026
    9AU     LIG 5008  36.664   7.789   6.892
    9AU     LIG 5009  36.518   7.325   6.742
    9AU     LIG 5010  36.427   7.037   6.341
    9AU       S 5011  37.743   9.554   7.902
    9AU     LIG 5012  37.759   9.088   7.722
    9AU     LIG 5013  37.512   8.677   7.711
    9AU     LIG 5014  37.417   8.251   7.934
    9AU     LIG 5015  37.603   7.843   8.162
    9AU     LIG 5016  37.936   7.460   8.188
    9AU     LIG 5017  38.129   7.014   8.249
    9AU    AUSL 5018  37.600  11.217   6.951
    9AU    AUSL 5019  37.893  11.015   7.251
    9AU     AUL 5020  37.980  11.318   7.010
    9AU       S 5021  37.668  11.595   6.809
    9AU     LIG 5022  37.914  11.854   6.520
    9AU     LIG 5023  38.018  12.270   6.342
    9AU     LIG 5024  38.055  12.524   5.935
    9AU     LIG 5025  37.985  12.782   5.531
    9AU     LIG 5026  37.901  13.190   5.299
    9AU     LIG 5027  37.900  13.658   5.210
    9AU       S 5028  38.339  11.027   6.965
    9AU     LIG 5029  38.641  11.453   6.803
    9AU     LIG 5030  38.978  11.647   6.493
    9AU     LIG 5031  39.303  11.989   6.326
    9AU     LIG 5032  39.611  12.398   6.312
    9AU     LIG 5033  40.017  12.699   6.301
    9AU     LIG 5034  40.295  12.964   6.015
    9AU    AUSL 5035  37.491  11.175   7.344
    9AU    AUSL 5036  37.344  10.918   7.049
    9AU     AUL 5037  37.317  11.330   6.983
    9AU       S 5038  37.690  11.676   7.038
    9AU     LIG 5039  37.795  12.129   6.931
    9AU     LIG 5040  37.808  12.555   6.740
    9AU     LIG 5041  37.556  12.963   6.689
    9AU     LIG 5042  37.494  13.386   6.486
    9AU     LIG 5043  37.413  13.799   6.270
    9AU     LIG 5044  37.438  14.263   6.397
    9AU       S 5045  36.891  11.307   6.794
    9AU     LIG 5046  36.858  11.416   6.334
    9AU     LIG 5047  36.730  11.670   5.943
    9AU     LIG 5048  36.804  11.784   5.496
    9AU     LIG 5049  36.784  12.006   5.090
    9AU     LIG 5050  36.484  12.218   4.795
    9AU     LIG 5051  36.195  12.524   4.588
    9AU    AUSL 5052  37.671   9.870   6.985
    9AU    AUSL 5053  37.269  10.152   7.334
    9AU     AUL 5054  37.362   9.846   6.927
    9AU       S 5055  36.887   9.791   7.098
    9AU     LIG 5056  36.605   9.518   7.260
    9AU     LIG 5057  36.236   9.330   7.032
    9AU     LIG 5058  35.909   9.033   6.808
    9AU     LIG 5059  35.678   8.650   6.572
    9AU     LIG 5060  35.449   8.185   6.516
    9AU     LIG 5061  35.113   7.823   6.417
    9AU       S 5062  37.496   9.426   7.024
    9AU     LIG 5063  37.237   9.092   6.814
    9AU     LIG 5064  37.099   8.655   6.766
    9AU     LIG 5065  37.184   8.249   6.544
    9AU     LIG 5066  37.270   8.022   6.120
    9AU     LIG 5067  37.313   7.701   5.761
    9AU     LIG 5068  37.289   7.387   5.408
    9AU    AUSL 5069  37.674   9.957   7.394
    9AU    AUSL 5070  37.804  10.229   7.102
    9AU     AUL 5071  37.850   9.734   7.146
    9AU       S 5072  37.238   9.547   7.282
    9AU     LIG 5073  37.421   9.023   7.315
    9AU     LIG 5074  37.439   8.546   7.149
    9AU     LIG 5075  37.487   8.082   6.952
    9AU     LIG 5076  37.736   7.634   6.866
    9AU     LIG 5077  37.863   7.172   6.751
    9AU     LIG 5078  38.267   6.944   6.639
    9AU       S 5079  38.071   9.846   6.760
    9AU     LIG 5080  37.950   9.503   6.555
    9AU     LIG 5081  38.195   9.206   6.288
    9AU     LIG 5082  38.453   8.898   6.024
    9AU     LIG 5083  38.707   8.645   5.700
    9AU     LIG 5084  38.772   8.405   5.280
    9AU     LIG 5085  38.813   8.175   4.855
   10AU     AUC 5086   6.104  25.351   7.499
   10AU     AUC 5087   6.368  25.356   7.341
   10AU     AUC 5088   6.358  25.346   7.651
   10AU     AUC 5089   5.854  25.351   7.331
   10AU     AUC 5090   5.842  25.367   7.647
   10AU     AUC 5091   5.952  25.606   7.495
   10AU     AUC 5092   6.265  25.607   7.486
   10AU     AUC 5093   5.952  25.095   7.509
   10AU     AUC 5094   6.246  25.098   7.522
   10AU     AUC 5095   6.096  25.204   7.761
   10AU     AUC 5096   6.116  25.516   7.753
   10AU     AUC 5097   6.108  25.188   7.245
   10AU     AUC 5098   6.098  25.491   7.238
   10AU     AUC 5099   6.618  25.349   7.180
   10AU     AUC 5100   6.623  25.358   7.491
   10AU     AUC 5101   6.617  25.350   7.798
   10AU     AUC 5102   5.597  25.338   7.174
   10AU     AUC 5103   5.586  25.361   7.483
   10AU     AUC 5104   5.593  25.379   7.806
   10AU     AUC 5105   5.804  25.871   7.497
   10AU     AUC 5106   6.115  25.873   7.494
   10AU     AUC 5107   6.410  25.871   7.490
   10AU     AUC 5108   5.775  24.838   7.515
   10AU     AUC 5109   6.091  24.830   7.508
   10AU     AUC 5110   6.405  24.835   7.530
   10AU     AUC 5111   6.081  25.054   8.016
   10AU     AUC 5112   6.102  25.364   8.026
   10AU     AUC 5113   6.119  25.671   8.014
   10AU     AUC 5114   6.113  25.014   7.004
   10AU     AUC 5115   6.118  25.332   6.976
   10AU     AUC 5116   6.097  25.638   6.975
   10AU     AUC 5117   6.369  25.208   7.926
   10AU     AUC 5118   6.373  25.500   7.916
   10AU     AUC 5119   6.381  25.182   7.086
   10AU     AUC 5120   6.380  25.489   7.073
   10AU     AUC 5121   5.833  25.219   7.923
   10AU     AUC 5122   5.851  25.529   7.923
   10AU     AUC 5123   5.861  25.189   7.064
   10AU     AUC 5124   5.846  25.494   7.071
   10AU     AUC 5125   6.518  25.620   7.320
   10AU     AUC 5126   6.533  25.602   7.637
   10AU     AUC 5127   5.684  25.604   7.342
   10AU     AUC 5128   5.693  25.626   7.663
   10AU     AUC 5129   6.520  25.088   7.353
   10AU     AUC 5130   6.520  25.094   7.671
   10AU     AUC 5131   5.686  25.095   7.331
   10AU     AUC 5132   5.685  25.107   7.676
   10AU     AUC 5133   5.952  25.771   7.766
   10AU     AUC 5134   6.271  25.779   7.739
   10AU     AUC 5135   5.928  24.931   7.755
   10AU     AUC 5136   6.247  24.944   7.789
   10AU     AUC 5137   5.942  25.761   7.235
   10AU     AUC 5138   6.259  25.754   7.220
   10AU     AUC 5139   5.938  24.936   7.242
   10AU     AUC 5140   6.265  24.925   7.269
   10AU    AUSL 5141   6.455  25.302   8.087
   10AU    AUSL 5142   6.404  24.886   8.142
   10AU     AUL 5143   6.640  24.964   8.405
   10AU       S 5144   6.691  24.591   8.092
   10AU     LIG 5145   6.575  24.370   8.447
   10AU     LIG 5146   6.614  23.920   8.577
   10AU     LIG 5147   6.792  23.518   8.765
   10AU     LIG 5148   7.081  23.283   9.052
   10AU     LIG 5149   7.065  23.064   9.472
   10AU     LIG 5150   7.202  22.942   9.916
   10AU       S 5151   6.504  25.333   8.658
   10AU     LIG 5152   6.739  25.035   8.913
   10AU     LIG 5153   6.950  24.881   9.317
   10AU     LIG 5154   7.164  24.776   9.736
   10AU     LIG 5155   7.558  24.806  10.015
   10AU     LIG 5156   7.945  24.859  10.293
   10AU     LIG 5157   8.128  24.888  10.732
   10AU    AUSL 5158   6.176  25.163   8.354
   10AU    AUSL 5159   6.032  25.547   8.272
   10AU     AUL 5160   6.093  25.529   8.696
   10AU       S 5161   6.249  25.165   8.498
   10AU     LIG 5162   6.287  24.805   8.750
   10AU     LIG 5163   6.473  24.686   9.203
   10AU     LIG 5164   6.637  24.672   9.684
   10AU     LIG 5165   6.689  24.587  10.172
   10AU     LIG 5166   6.690  24.372  10.617
   10AU     LIG 5167   6.861  24.296  11.062
   10AU       S 5168   5.760  25.236   8.625
   10AU     LIG 5169   5.671  25.166   9.091
   10AU     LIG 5170   5.447  25.129   9.510
   10AU     LIG 5171   5.288  25.153   9.959
   10AU     LIG 5172   5.261  25.451  10.350
   10AU     LIG 5173   5.261  25.697  10.768
   10AU     LIG 5174   5.455  25.809  11.203
   10AU    AUSL 5175   6.418  25.654   8.286
   10AU    AUSL 5176   6.755  25.558   7.968
   10AU     AUL 5177   6.746  25.389   8.281
   10AU       S 5178   6.446  25.697   8.456
   10AU     LIG 5179   6.614  25.791   8.865
   10AU     LIG 5180   6.643  25.939   9.326
   10AU     LIG 5181   6.578  26.058   9.795
   10AU     LIG 5182   6.640  26.065  10.270
   10AU     LIG 5183   6.838  26.080  10.704
   10AU     LIG 5184   6.877  26.100  11.179
   10AU       S 5185   7.040  25.618   8.009
   10AU     LIG 5186   7.221  25.559   8.420
   10AU     LIG 5187   7.499  25.816   8.697
   10AU     LIG 5188   7.785  26.100   8.958
   10AU     LIG 5189   8.002  26.262   9.359
   10AU     LIG 5190   8.329  26.332   9.709
   10AU     LIG 5191   8.704  26.547   9.909
   10AU    AUSL 5192   6.653  25.385   6.866
   10AU    AUSL 5193   6.410  25.772   6.823
   10AU     AUL 5194   6.786  25.744   6.464
   10AU       S 5195   6.679  25.412   6.709
   10AU     LIG 5196   6.979  25.314   6.321
   10AU     LIG 5197   6.991  25.114   5.910
   10AU     LIG 5198   7.131  24.964   5.484
   10AU     LIG 5199   7.495  24.943   5.158
   10AU     LIG 5200   7.822  24.960   4.799
   10AU     LIG 5201   8.147  24.800   4.482
   10AU       S 5202   6.414  25.830   6.668
   10AU     LIG 5203   6.661  26.216   6.579
   10AU     LIG 5204   7.022  26.204   6.288
   10AU     LIG 5205   7.317  26.381   5.959
   10AU     LIG 5206   7.499  26.569   5.550
   10AU     LIG 5207   7.555  26.878   5.171
   10AU     LIG 5208   7.704  27.113   4.780
   10AU    AUSL 5209   6.391  25.066   6.718
   10AU    AUSL 5210   6.721  25.012   7.012
   10AU     AUL 5211   6.826  25.008   6.680
   10AU       S 5212   6.791  24.583   6.859
   10AU     LIG 5213   6.906  24.348   6.476
   10AU     LIG 5214   7.132  23.951   6.354
   10AU     LIG 5215   7.373  23.677   6.042
   10AU     LIG 5216   7.747  23.657   5.731
   10AU     LIG 5217   8.120  23.759   5.435
   10AU     LIG 5218   8.544  23.748   5.216
   10AU       S 5219   6.501  25.287   6.442
   10AU     LIG 5220   6.598  24.915   6.228
   10AU     LIG 5221   6.666  24.733   5.793
   10AU     LIG 5222   6.710  24.683   5.322
   10AU     LIG 5223   6.722  24.460   4.896
   10AU     LIG 5224   6.880  24.354   4.457
   10AU     LIG 5225   7.022  24.283   3.998
   10AU    AUSL 5226   6.244  25.413   6.897
   10AU    AUSL 5227   5.991  25.170   6.678
   10AU     AUL 5228   6.181  24.972   6.553
   10AU       S 5229   5.722  25.318   6.373
   10AU     LIG 5230   5.822  24.930   6.139
   10AU     LIG 5231   5.619  24.729   5.756
   10AU     LIG 5232   5.362  24.705   5.342
   10AU     LIG 5233   5.160  24.474   4.956
   10AU     LIG 5234   5.094  24.258   4.517
   10AU     LIG 5235   5.052  24.274   4.038
   10AU       S 5236   6.385  25.399   6.489
   10AU     LIG 5237   6.525  25.372   5.972
   10AU     LIG 5238   6.633  25.187   5.541
   10AU     LIG 5239   6.815  25.152   5.113
   10AU     LIG 5240   6.775  25.327   4.688
   10AU     LIG 5241   6.779  25.556   4.281
   10AU     LIG 5242   6.803  25.684   3.835
   10AU    AUSL 5243   5.653  25.415   8.213
   10AU    AUSL 5244   5.777  25.828   8.128
   10AU     AUL 5245   5.827  25.761   8.425
   10AU       S 5246   5.597  25.412   8.642
   10AU     LIG 5247   5.282  25.082   8.753
   10AU     LIG 5248   5.100  24.940   9.180
   10AU     LIG 5249   4.921  24.949   9.636
   10AU     LIG 5250   4.667  24.862  10.042
   10AU     LIG 5251   4.324  24.913  10.380
   10AU     LIG 5252   4.113  25.102  10.746
   10AU       S 5253   5.367  25.772   8.352
   10AU     LIG 5254   5.408  26.004   8.743
   10AU     LIG 5255   5.334  26.314   9.090
   10AU     LIG 5256   5.147  26.499   9.479
   10AU     LIG 5257   5.104  26.655   9.933
   10AU     LIG 5258   4.916  26.921  10.281
   10AU     LIG 5259   4.635  27.249  10.479
   10AU    AUSL 5260   5.954  25.219   8.023
   10AU    AUSL 5261   5.453  25.138   7.990
   10AU     AUL 5262   5.457  25.242   8.238
   10AU       S 5263   5.289  24.792   8.188
   10AU     LIG 5264   4.878  24.636   8.045
   10AU     LIG 5265   4.527  24.389   8.243
   10AU     LIG 5266   4.321  24.137   8.591
   10AU     LIG 5267   4.108  23.848   8.895
   10AU     LIG 5268   3.781  23.603   9.121
   10AU     LIG 5269   3.369  23.620   9.373
   10AU       S 5270   5.771  25.123   8.579
   10AU     LIG 5271   5.679  24.745   8.781
   10AU     LIG 5272   5.541  24.676   9.236
   10AU     LIG 5273   5.344  24.652   9.677
   10AU     LIG 5274   5.225  24.443  10.094
   10AU     LIG 5275   5.170  24.304  10.551
   10AU     LIG 5276   4.944  24.327  10.961
   10AU    AUSL 5277   5.683  25.329   6.884
   10AU    AUSL 5278   5.862  24.885   6.931
   10AU     AUL 5279   5.714  24.942   6.636
   10AU       S 5280   5.456  25.308   6.602
   10AU     LIG 5281   5.328  25.063   6.197
   10AU     LIG 5282   5.217  25.053   5.722
   10AU     LIG 5283   4.953  25.039   5.324
   10AU     LIG 5284   4.565  24.995   5.053
   10AU     LIG 5285   4.279  25.002   4.677
   10AU     LIG 5286   4.195  25.126   4.217
   10AU       S 5287   5.434  24.592   6.799
   10AU     LIG 5288   5.198  24.207   6.779
   10AU     LIG 5289   4.891  23.957   6.533
   10AU     LIG 5290   4.647  23.740   6.189
   10AU     LIG 5291   4.414  23.524   5.844
   10AU     LIG 5292   4.314  23.251   5.471
   10AU     LIG 5293   4.114  23.023   5.104
   10AU    AUSL 5294   5.966  25.605   6.677
   10AU    AUSL 5295   5.444  25.644   6.973
   10AU     AUL 5296   5.648  25.715   6.649
   10AU       S 5297   5.219  25.844   6.814
   10AU     LIG 5298   5.068  25.958   6.385
   10AU     LIG 5299   4.918  26.141   5.960
   10AU     LIG 5300   4.657  26.248   5.565
   10AU     LIG 5301   4.261  26.312   5.277
   10AU     LIG 5302   3.870  26.495   5.056
   10AU     LIG 5303   3.521  26.819   4.976
   10AU       S 5304   5.911  25.379   6.462
   10AU     LIG 5305   5.997  25.373   5.971
   10AU     LIG 5306   5.702  25.221   5.608
   10AU     LIG 5307   5.434  25.214   5.196
   10AU     LIG 5308   5.352  25.385   4.734
   10AU     LIG 5309   5.261  25.672   4.337
   10AU     LIG 5310   5.223  25.887   3.904
   10AU    AUSL 5311   6.711  25.969   7.426
   10AU    AUSL 5312   6.745  25.718   7.086
   10AU     AUL 5313   6.871  26.180   7.233
   10AU       S 5314   6.889  25.820   6.904
   10AU     LIG 5315   7.257  25.752   6.632
   10AU     LIG 5316   7.476  25.940   6.237
   10AU     LIG 5317   7.779  26.148   5.912
   10AU     LIG 5318   8.102  26.233   5.555
   10AU     LIG 5319   8.456  26.423   5.279
   10AU     LIG 5320   8.892  26.605   5.213
   10AU       S 5321   7.183  25.844   7.344
   10AU     LIG 5322   7.687  25.905   7.460
   10AU     LIG 5323   8.205  25.996   7.463
   10AU     LIG 5324   8.716  26.083   7.450
   10AU     LIG 5325   9.092  26.420   7.440
   10AU     LIG 5326   9.251  26.908   7.389
   10AU     LIG 5327   9.633  27.218   7.493
   10AU    AUSL 5328   6.942  25.402   7.242
   10AU    AUSL 5329   6.933  25.246   7.658
   10AU     AUL 5330   7.221  25.174   7.430
   10AU       S 5331   7.153  25.611   7.292
   10AU     LIG 5332   7.580  25.481   7.201
   10AU     LIG 5333   8.061  25.572   7.212
   10AU     LIG 5334   8.551  25.672   7.179
   10AU     LIG 5335   9.041  25.692   7.016
   10AU     LIG 5336   9.505  25.837   6.967
   10AU     LIG 5337   9.909  26.106   6.902
   10AU       S 5338   7.237  24.766   7.684
   10AU     LIG 5339   7.631  24.542   7.724
   10AU     LIG 5340   8.063  24.332   7.733
   10AU     LIG 5341   8.511  24.141   7.729
   10AU     LIG 5342   8.990  24.028   7.737
   10AU     LIG 5343   9.440  24.128   7.939
   10AU     LIG 5344   9.825  24.417   8.031
   10AU    AUSL 5345   6.732  25.582   7.561
   10AU    AUSL 5346   6.625  25.924   7.824
   10AU     AUL 5347   6.877  25.925   7.690
   10AU       S 5348   6.882  25.815   8.123
   10AU     LIG 5349   7.318  26.021   8.197
   10AU     LIG 5350   7.560  26.297   8.514
   10AU     LIG 5351   7.821  26.603   8.790
   10AU     LIG 5352   8.111  27.002   8.865
   10AU     LIG 5353   8.401  27.411   8.900
   10AU     LIG 5354   8.592  27.862   8.972
   10AU       S 5355   7.201  25.641   7.552
   10AU     LIG 5356   7.551  25.474   7.733
   10AU     LIG 5357   8.027  25.577   7.729
   10AU     LIG 5358   8.514  25.671   7.727
   10AU     LIG 5359   8.944  25.866   7.861
   10AU     LIG 5360   9.354  25.965   8.084
   10AU     LIG 5361   9.758  26.159   8.184
   10AU    AUSL 5362   5.438  25.887   7.580
   10AU    AUSL 5363   5.493  25.628   7.909
   10AU     AUL 5364   5.443  26.093   7.820
   10AU       S 5365   5.283  25.713   8.094
   10AU     LIG 5366   4.950  26.015   8.384
   10AU     LIG 5367   4.903  26.156   8.847
   10AU     LIG 5368   4.700  26.205   9.297
   10AU     LIG 5369   4.324  26.230   9.619
   10AU     LIG 5370   3.985  26.438   9.893
   10AU     LIG 5371   3.626  26.602  10.158
   10AU       S 5372   5.053  25.900   7.683
   10AU     LIG 5373   5.018  26.301   7.441
   10AU     LIG 5374   4.616  26.601   7.388
   10AU     LIG 5375   4.175  26.856   7.450
   10AU     LIG 5376   3.859  27.227   7.519
   10AU     LIG 5377   3.597  27.531   7.766
   10AU     LIG 5378   3.142  27.601   7.762
   10AU    AUSL 5379   5.522  25.558   7.355
   10AU    AUSL 5380   5.607  25.981   7.217
   10AU     AUL 5381   5.322  25.889   7.269
   10AU       S 5382   4.938  25.808   7.526
   10AU     LIG 5383   4.788  25.965   7.115
   10AU     LIG 5384   4.335  26.143   6.954
   10AU     LIG 5385   3.840  26.299   6.913
   10AU     LIG 5386   3.339  26.394   6.860
   10AU     LIG 5387   2.849  26.462   6.807
   10AU     LIG 5388   2.426  26.299   6.628
   10AU       S 5389   5.345  26.227   6.953
   10AU     LIG 5390   5.200  26.450   6.529
   10AU     LIG 5391   5.306  26.742   6.165
   10AU     LIG 5392   5.343  27.178   5.953
   10AU     LIG 5393   5.105  27.581   5.831
   10AU     LIG 5394   4.856  27.981   5.762
   10AU     LIG 5395   4.617  28.395   5.713
   10AU    AUSL 5396   5.243  25.470   7.646
   10AU    AUSL 5397   5.285  25.234   7.294
   10AU     AUL 5398   5.116  25.489   7.253
   10AU       S 5399   4.949  25.030   7.412
   10AU     LIG 5400   4.652  25.027   7.793
   10AU     LIG 5401   4.185  24.925   7.815
   10AU     LIG 5402   3.714  24.797   7.746
   10AU     LIG 5403   3.304  24.663   7.501
   10AU     LIG 5404   2.888  24.421   7.375
   10AU     LIG 5405   2.482  24.411   7.119
   10AU       S 5406   5.051  25.490   7.733
   10AU     LIG 5407   4.748  25.697   8.027
   10AU     LIG 5408   4.380  26.004   8.159
   10AU     LIG 5409   3.911  26.201   8.200
   10AU     LIG 5410   3.432  26.208   8.316
   10AU     LIG 5411   3.040  26.454   8.305
   10AU     LIG 5412   2.653  26.586   8.061
   10AU    AUSL 5413   6.793  24.854   7.575
   10AU    AUSL 5414   6.745  25.055   7.959
   10AU     AUL 5415   7.053  25.119   7.913
   10AU       S 5416   6.936  24.590   7.554
   10AU     LIG 5417   7.182  24.259   7.740
   10AU     LIG 5418   7.608  24.029   7.677
   10AU     LIG 5419   8.049  23.852   7.552
   10AU     LIG 5420   8.510  23.706   7.454
   10AU     LIG 5421   8.992  23.595   7.391
   10AU     LIG 5422   9.400  23.350   7.539
   10AU       S 5423   6.781  24.746   8.034
   10AU     LIG 5424   7.130  24.441   8.229
   10AU     LIG 5425   7.117  24.046   8.497
   10AU     LIG 5426   7.297  23.702   8.788
   10AU     LIG 5427   7.668  23.566   9.077
   10AU     LIG 5428   8.096  23.568   9.325
   10AU     LIG 5429   8.520  23.483   9.545
   10AU    AUSL 5430   6.640  25.176   7.372
   10AU    AUSL 5431   6.569  24.713   7.264
   10AU     AUL 5432   6.915  24.917   7.192
   10AU       S 5433   6.982  24.762   7.604
   10AU     LIG 5434   7.335  24.503   7.282
   10AU     LIG 5435   7.801  24.307   7.281
   10AU     LIG 5436   8.290  24.202   7.264
   10AU     LIG 5437   8.773  24.100   7.260
   10AU     LIG 5438   9.216  24.040   7.080
   10AU     LIG 5439   9.712  24.022   7.090
   10AU       S 5440   6.817  24.470   7.056
   10AU     LIG 5441   6.876  24.008   6.856
   10AU     LIG 5442   6.940  23.546   6.636
   10AU     LIG 5443   7.134  23.181   6.353
   10AU     LIG 5444   7.434  22.799   6.226
   10AU     LIG 5445   7.862  22.614   6.062
   10AU     LIG 5446   8.285  22.577   5.864
   10AU    AUSL 5447   5.399  24.854   7.456
   10AU    AUSL 5448   5.494  25.007   7.042
   10AU     AUL 5449   5.200  25.071   7.013
   10AU       S 5450   5.421  24.673   7.009
   10AU     LIG 5451   4.927  24.632   6.964
   10AU     LIG 5452   4.621  24.354   6.729
   10AU     LIG 5453   4.369  24.120   6.392
   10AU     LIG 5454   4.128  23.907   6.035
   10AU     LIG 5455   3.801  23.865   5.670
   10AU     LIG 5456   3.390  23.724   5.453
   10AU       S 5457   5.115  24.822   7.400
   10AU     LIG 5458   4.742  24.571   7.527
   10AU     LIG 5459   4.244  24.523   7.494
   10AU     LIG 5460   3.759  24.377   7.457
   10AU     LIG 5461   3.312  24.146   7.546
   10AU     LIG 5462   2.900  23.927   7.707
   10AU     LIG 5463   2.592  23.591   7.503
   10AU    AUSL 5464   5.550  25.211   7.612
   10AU    AUSL 5465   5.640  24.824   7.793
   10AU     AUL 5466   5.261  25.015   7.790
   10AU       S 5467   5.384  24.606   7.948
   10AU     LIG 5468   5.163  24.289   7.795
   10AU     LIG 5469   4.818  24.055   7.986
   10AU     LIG 5470   4.496  23.800   8.244
   10AU     LIG 5471   4.223  23.512   8.526
   10AU     LIG 5472   4.000  23.198   8.819
   10AU     LIG 5473   3.898  22.727   8.916
   10AU       S 5474   4.988  25.091   7.441
   10AU     LIG 5475   4.477  24.969   7.316
   10AU     LIG 5476   3.991  24.961   7.330
   10AU     LIG 5477   3.551  25.148   7.412
   10AU     LIG 5478   3.181  25.123   7.697
   10AU     LIG 5479   2.835  24.815   7.720
   10AU     LIG 5480   2.454  24.555   7.641
   10AU    AUSL 5481   6.124  26.016   8.024
   10AU    AUSL 5482   5.810  25.813   7.725
   10AU     AUL 5483   5.819  26.125   8.093
   10AU       S 5484   5.430  25.926   8.244
   10AU     LIG 5485   5.379  26.328   8.329
   10AU     LIG 5486   5.251  26.613   8.674
   10AU     LIG 5487   5.242  27.038   8.896
   10AU     LIG 5488   5.059  27.451   9.059
   10AU     LIG 5489   4.687  27.734   9.182
   10AU     LIG 5490   4.334  28.063   9.196
   10AU       S 5491   6.175  26.417   8.003
   10AU     LIG 5492   6.340  26.603   8.371
   10AU     LIG 5493   6.331  27.006   8.610
   10AU     LIG 5494   6.495  27.396   8.796
   10AU     LIG 5495   6.470  27.617   9.204
   10AU     LIG 5496   6.400  27.900   9.569
   10AU     LIG 5497   6.157  28.266   9.748
   10AU    AUSL 5498   5.886  26.197   7.654
   10AU    AUSL 5499   6.317  26.190   7.271
   10AU     AUL 5500   5.906  26.404   7.386
   10AU       S 5501   6.059  26.470   7.821
   10AU     LIG 5502   6.193  26.921   7.985
   10AU     LIG 5503   6.242  27.331   8.227
   10AU     LIG 5504   6.292  27.756   8.423
   10AU     LIG 5505   6.003  28.139   8.438
   10AU     LIG 5506   5.836  28.607   8.536
   10AU     LIG 5507   5.718  29.097   8.588
   10AU       S 5508   6.348  26.486   7.224
   10AU     LIG 5509   6.657  26.657   6.961
   10AU     LIG 5510   6.641  27.118   6.793
   10AU     LIG 5511   6.666  27.585   6.622
   10AU     LIG 5512   6.917  28.040   6.615
   10AU     LIG 5513   7.189  28.484   6.636
   10AU     LIG 5514   7.228  28.974   6.644
   10AU    AUSL 5515   6.283  26.047   7.648
   10AU    AUSL 5516   6.312  25.680   7.904
   10AU     AUL 5517   6.453  26.055   8.053
   10AU       S 5518   6.841  25.848   8.228
   10AU     LIG 5519   7.017  26.008   8.615
   10AU     LIG 5520   7.276  26.224   8.943
   10AU     LIG 5521   7.548  26.484   9.224
   10AU     LIG 5522   7.652  26.759   9.592
   10AU     LIG 5523   7.610  27.148   9.871
   10AU     LIG 5524   7.774  27.427  10.209
   10AU       S 5525   6.339  26.357   7.712
   10AU     LIG 5526   6.636  26.607   7.945
   10AU     LIG 5527   6.663  27.010   8.209
   10AU     LIG 5528   6.728  27.471   8.339
   10AU     LIG 5529   6.779  27.953   8.383
   10AU     LIG 5530   6.933  28.421   8.382
   10AU     LIG 5531   6.944  28.853   8.583
   10AU    AUSL 5532   6.072  24.787   7.929
   10AU    AUSL 5533   6.427  24.918   7.734
   10AU     AUL 5534   6.259  24.676   8.195
   10AU       S 5535   6.117  24.245   8.027
   10AU     LIG 5536   6.214  23.863   8.235
   10AU     LIG 5537   5.965  23.463   8.195
   10AU     LIG 5538   5.880  23.065   8.407
   10AU     LIG 5539   5.974  22.725   8.710
   10AU     LIG 5540   5.966  22.559   9.162
   10AU     LIG 5541   5.848  22.270   9.533
   10AU       S 5542   6.707  24.548   7.961
   10AU     LIG 5543   6.766  24.074   8.076
   10AU     LIG 5544   6.912  23.628   8.266
   10AU     LIG 5545   7.166  23.278   8.505
   10AU     LIG 5546   7.399  22.939   8.778
   10AU     LIG 5547   7.806  22.649   8.849
   10AU     LIG 5548   8.191  22.490   9.102
   10AU    AUSL 5549   5.903  24.544   7.656
   10AU    AUSL 5550   5.777  24.903   8.185
   10AU     AUL 5551   5.825  24.594   8.048
   10AU       S 5552   5.864  24.215   7.803
   10AU     LIG 5553   5.576  23.946   7.649
   10AU     LIG 5554   5.590  23.496   7.777
   10AU     LIG 5555   5.487  23.109   8.041
   10AU     LIG 5556   5.233  22.690   8.104
   10AU     LIG 5557   4.956  22.277   8.135
   10AU     LIG 5558   5.009  21.843   8.331
   10AU       S 5559   5.470  24.754   8.279
   10AU     LIG 5560   5.190  24.326   8.328
   10AU     LIG 5561   4.845  24.071   8.515
   10AU     LIG 5562   4.615  23.743   8.766
   10AU     LIG 5563   4.391  23.442   9.059
   10AU     LIG 5564   4.386  23.150   9.441
   10AU     LIG 5565   4.494  22.944   9.867
   10AU    AUSL 5566   6.337  24.527   7.705
   10AU    AUSL 5567   5.852  24.539   7.250
   10AU     AUL 5568   6.164  24.278   7.465
   10AU       S 5569   5.755  24.224   7.153
   10AU     LIG 5570   5.439  23.909   7.147
   10AU     LIG 5571   5.482  23.470   7.266
   10AU     LIG 5572   5.475  23.040   7.061
   10AU     LIG 5573   5.175  22.666   6.941
   10AU     LIG 5574   4.902  22.259   6.959
   10AU     LIG 5575   4.973  21.803   6.884
   10AU       S 5576   6.242  24.313   7.905
   10AU     LIG 5577   6.183  23.832   7.733
   10AU     LIG 5578   6.079  23.370   7.705
   10AU     LIG 5579   5.970  22.984   7.912
   10AU     LIG 5580   6.201  22.701   8.212
   10AU     LIG 5581   6.354  22.256   8.290
   10AU     LIG 5582   6.325  21.766   8.278
   10AU    AUSL 5583   6.096  25.994   6.953
   10AU    AUSL 5584   6.392  25.791   7.254
   10AU     AUL 5585   6.476  26.096   7.013
   10AU       S 5586   6.164  26.369   6.809
   10AU     LIG 5587   6.371  26.685   6.544
   10AU     LIG 5588   6.383  27.115   6.350
   10AU     LIG 5589   6.547  27.463   6.089
   10AU     LIG 5590   6.623  27.687   5.673
   10AU     LIG 5591   6.496  27.896   5.265
   10AU     LIG 5592   6.442  28.312   5.043
   10AU       S 5593   6.835  25.807   6.970
   10AU     LIG 5594   7.133  26.221   6.797
   10AU     LIG 5595   7.463  26.396   6.480
   10AU     LIG 5596   7.753  26.614   6.156
   10AU     LIG 5597   8.065  26.976   6.040
   10AU     LIG 5598   8.296  27.413   5.992
   10AU     LIG 5599   8.462  27.881   5.967
   10AU    AUSL 5600   5.988  25.954   7.347
   10AU    AUSL 5601   5.847  25.691   7.052
   10AU     AUL 5602   5.815  26.118   7.005
   10AU       S 5603   6.183  26.454   7.038
   10AU     LIG 5604   6.179  26.917   6.966
   10AU     LIG 5605   6.153  27.341   6.758
   10AU     LIG 5606   6.180  27.793   6.705
   10AU     LIG 5607   5.924  28.185   6.579
   10AU     LIG 5608   5.602  28.506   6.390
   10AU     LIG 5609   5.388  28.907   6.198
   10AU       S 5610   5.409  26.076   6.785
   10AU     LIG 5611   5.549  26.123   6.334
   10AU     LIG 5612   5.403  26.299   5.899
   10AU     LIG 5613   5.160  26.440   5.486
   10AU     LIG 5614   5.081  26.708   5.067
   10AU     LIG 5615   4.945  27.064   4.753
   10AU     LIG 5616   4.638  27.371   4.540
   10AU    AUSL 5617   6.183  24.644   6.985
   10AU    AUSL 5618   5.777  24.921   7.333
   10AU     AUL 5619   5.877  24.617   6.924
   10AU       S 5620   5.403  24.557   7.099
   10AU     LIG 5621   5.139  24.301   7.288
   10AU     LIG 5622   4.812  24.033   7.085
   10AU     LIG 5623   4.475  23.825   6.798
   10AU     LIG 5624   4.235  23.574   6.450
   10AU     LIG 5625   4.067  23.137   6.287
   10AU     LIG 5626   3.867  22.681   6.254
   10AU       S 5627   6.015  24.200   7.026
   10AU     LIG 5628   5.806  23.887   6.784
   10AU     LIG 5629   5.684  23.455   6.795
   10AU     LIG 5630   5.695  23.051   6.577
   10AU     LIG 5631   5.771  22.843   6.159
   10AU     LIG 5632   5.948  22.513   5.872
   10AU     LIG 5633   5.981  22.184   5.526
   10AU    AUSL 5634   6.184  24.731   7.394
   10AU    AUSL 5635   6.310  25.005   7.101
   10AU     AUL 5636   6.366  24.513   7.143
   10AU       S 5637   5.760  24.316   7.280
   10AU     LIG 5638   5.915  23.790   7.306
   10AU     LIG 5639   5.987  23.336   7.198
   10AU     LIG 5640   6.102  22.997   6.904
   10AU     LIG 5641   6.393  22.620   6.872
   10AU     LIG 5642   6.509  22.156   6.863
   10AU     LIG 5643   6.378  21.698   6.761
   10AU       S 5644   6.579  24.628   6.752
   10AU     LIG 5645   6.431  24.226   6.694
   10AU     LIG 5646   6.615  23.887   6.410
   10AU     LIG 5647   6.854  23.577   6.124
   10AU     LIG 5648   7.079  23.287   5.836
   10AU     LIG 5649   7.215  23.234   5.385
   10AU     LIG 5650   7.251  23.036   4.944
   11POPC   NC3 5651   0.059  19.812   9.727
   11POPC   PO4 5652   0.668  19.901   9.272
   11POPC   GL1 5653   0.421  19.694   9.032
   11POPC   GL2 5654   0.168  19.584   9.263
   11POPC   C1A 5655   0.293  19.812   8.610
   11POPC   D2A 5656   0.266  20.112   8.269
   11POPC   C3A 5657   0.470  19.934   7.902
   11POPC   C4A 5658   0.803  19.946   7.598
   11POPC   C1B 5659   0.065  19.404   8.846
   11POPC   C2B 5660   0.078  19.367   8.413
   11POPC   C3B 5661   0.123  19.534   8.018
   11POPC   C4B 5662   0.262  19.565   7.567
   12POPC   NC3 5663  37.840  30.750   9.574
   12POPC   PO4 5664  37.203  31.022   9.482
   12POPC   GL1 5665  37.495  30.753   9.181
   12POPC   GL2 5666  37.859  30.607   9.099
   12POPC   C1A 5667  37.447  30.666   8.761
   12POPC   D2A 5668  37.440  31.030   8.513
   12POPC   C3A 5669  37.555  30.958   8.112
   12POPC   C4A 5670  37.469  30.573   7.922
   12POPC   C1B 5671  37.955  30.787   8.719
   12POPC   C2B 5672  37.914  30.655   8.309
   12POPC   C3B 5673  37.984  30.674   7.879
   12POPC   C4B 5674  38.162  30.398   7.607
   13POPC   NC3 5675  13.380  26.871   9.600
   13POPC   PO4 5676  13.625  26.304   9.489
   13POPC   GL1 5677  13.761  26.631   9.148
   13POPC   GL2 5678  13.700  26.990   9.216
   13POPC   C1A 5679  13.895  26.706   8.677
   13POPC   D2A 5680  13.987  26.719   8.197
   13POPC   C3A 5681  13.637  26.672   7.901
   13POPC   C4A 5682  13.412  26.356   7.665
   13POPC   C1B 5683  13.514  27.085   8.812
   13POPC   C2B 5684  13.704  27.125   8.422
   13POPC   C3B 5685  13.743  27.155   7.997
   13POPC   C4B 5686  13.609  27.066   7.559
   14POPC   NC3 5687  30.867  44.778   9.423
   14POPC   PO4 5688  30.676  44.131   9.309
   14POPC   GL1 5689  30.553  44.505   9.101
   14POPC   GL2 5690  30.393  44.819   9.240
   14POPC   C1A 5691  30.875  44.601   8.792
   14POPC   D2A 5692  31.068  44.306   8.498
   14POPC   C3A 5693  30.809  44.384   8.135
   14POPC   C4A 5694  30.705  44.679   7.804
   14POPC   C1B 5695  30.504  44.979   8.847
   14POPC   C2B 5696  30.548  44.847   8.430
   14POPC   C3B 5697  30.302  44.880   8.075
   14POPC   C4B 5698  30.243  44.881   7.653
   15POPC   NC3 5699  38.437  27.411   9.494
   15POPC   PO4 5700  38.256  27.986   9.207
   15POPC   GL1 5701  38.551  27.693   9.064
   15POPC   GL2 5702  38.290  27.412   9.028
   15POPC   C1A 5703  38.652  27.788   8.648
   15POPC   D2A 5704  38.311  28.032   8.443
   15POPC   C3A 5705  38.102  27.899   8.085
   15POPC   C4A 5706  38.316  27.754   7.741
   15POPC   C1B 5707  38.376  27.374   8.636
   15POPC   C2B 5708  38.440  27.514   8.238
   15POPC   C3B 5709  38.520  27.307   7.878
   15POPC   C4B 5710  38.563  27.410   7.462
   16POPC   NC3 5711  38.757  26.305   9.656
   16POPC   PO4 5712  38.257  25.880   9.595
   16POPC   GL1 5713  38.337  26.034   9.213
   16POPC   GL2 5714  38.712  26.053   9.197
   16POPC   C1A 5715  38.215  25.868   8.835
   16POPC   D2A 5716  38.284  25.584   8.524
   16POPC   C3A 5717  38.277  25.694   8.171
   16POPC   C4A 5718  38.294  25.690   7.762
   16POPC   C1B 5719  38.650  26.117   8.755
   16POPC   C2B 5720  38.704  25.910   8.363
   16POPC   C3B 5721  38.629  26.030   7.946
   16POPC   C4B 5722  38.833  26.260   7.619
   17POPC   NC3 5723  40.111   0.845   9.449
   17POPC   PO4 5724  40.343   1.409   9.650
   17POPC   GL1 5725  40.050   1.338   9.237
   17POPC   GL2 5726  39.711   1.118   9.204
   17POPC   C1A 5727  39.943   1.213   8.781
   17POPC   D2A 5728  39.923   1.015   8.372
   17POPC   C3A 5729  39.775   1.242   8.019
   17POPC   C4A 5730  39.988   1.275   7.615
   17POPC   C1B 5731  39.660   0.774   8.824
   17POPC   C2B 5732  39.651   0.575   8.385
   17POPC   C3B 5733  39.588   0.781   7.935
   17POPC   C4B 5734  39.566   1.026   7.489
   18POPC   NC3 5735  40.003  42.835   9.527
   18POPC   PO4 5736  39.794  43.443   9.466
   18POPC   GL1 5737  40.063  43.216   9.149
   18POPC   GL2 5738  40.230  42.882   9.106
   18POPC   C1A 5739  39.913  43.139   8.755
   18POPC   D2A 5740  39.648  43.348   8.488
   18POPC   C3A 5741  39.903  43.379   8.189
   18POPC   C4A 5742  39.941  43.231   7.790
   18POPC   C1B 5743  40.111  42.668   8.782
   18POPC   C2B 5744  40.252  42.810   8.426
   18POPC   C3B 5745  40.026  42.823   8.083
   18POPC   C4B 5746  40.202  42.825   7.677
   19POPC   NC3 5747  25.984  40.363   9.564
   19POPC   PO4 5748  26.050  39.760   9.744
   19POPC   GL1 5749  25.999  39.781   9.264
   19POPC   GL2 5750  25.981  40.118   9.127
   19POPC   C1A 5751  26.005  39.764   8.771
   19POPC   D2A 5752  26.020  40.026   8.374
   19POPC   C3A 5753  26.040  39.854   7.950
   19POPC   C4A 5754  26.162  39.638   7.561
   19POPC   C1B 5755  26.165  40.327   8.772
   19POPC   C2B 5756  26.110  40.557   8.398
   19POPC   C3B 5757  26.081  40.404   7.983
   19POPC   C4B 5758  25.991  40.375   7.544
   20POPC   NC3 5759  29.979   2.133   9.568
   20POPC   PO4 5760  29.519   1.691   9.644
   20POPC   GL1 5761  29.622   1.724   9.195
   20POPC   GL2 5762  29.849   2.006   9.113
   20POPC   C1A 5763  29.602   1.829   8.731
   20POPC   D2A 5764  29.878   2.086   8.426
   20POPC   C3A 5765  29.789   2.090   7.968
   20POPC   C4A 5766  29.640   1.702   7.737
   20POPC   C1B 5767  30.165   2.231   8.861
   20POPC   C2B 5768  30.411   2.206   8.464
   20POPC   C3B 5769  30.347   2.127   8.072
   20POPC   C4B 5770  30.362   2.270   7.678
   21POPC   NC3 5771   9.047   1.004   9.423
   21POPC   PO4 5772   9.118   0.424   9.752
   21POPC   GL1 5773   9.081   0.319   9.291
   21POPC   GL2 5774   8.867   0.567   9.229
   21POPC   C1A 5775   9.235   0.276   8.811
   21POPC   D2A 5776   9.424   0.145   8.364
   21POPC   C3A 5777   9.159   0.151   7.966
   21POPC   C4A 5778   8.837   0.263   7.649
   21POPC   C1B 5779   8.809   0.565   8.768
   21POPC   C2B 5780   8.989   0.514   8.353
   21POPC   C3B 5781   8.904   0.659   7.944
   21POPC   C4B 5782   9.053   0.752   7.501
   22POPC   NC3 5783  37.807  39.756   9.463
   22POPC   PO4 5784  37.428  40.372   9.588
   22POPC   GL1 5785  37.499  40.100   9.278
   22POPC   GL2 5786  37.779  40.209   9.194
   22POPC   C1A 5787  37.598  39.861   8.851
   22POPC   D2A 5788  37.383  39.671   8.501
   22POPC   C3A 5789  37.520  39.785   8.091
   22POPC   C4A 5790  37.533  39.946   7.673
   22POPC   C1B 5791  37.520  40.363   8.855
   22POPC   C2B 5792  37.569  40.184   8.454
   22POPC   C3B 5793  37.513  40.302   8.044
   22POPC   C4B 5794  37.522  40.491   7.654
   23POPC   NC3 5795   6.747  44.200   9.414
   23POPC   PO4 5796   6.504  43.597   9.497
   23POPC   GL1 5797   6.464  43.872   9.152
   23POPC   GL2 5798   6.287  44.192   9.206
   23POPC   C1A 5799   6.681  43.925   8.787
   23POPC   D2A 5800   6.871  43.660   8.526
   23POPC   C3A 5801   6.840  43.831   8.143
   23POPC   C4A 5802   6.848  43.819   7.724
   23POPC   C1B 5803   6.320  44.290   8.769
   23POPC   C2B 5804   6.303  44.048   8.374
   23POPC   C3B 5805   6.447  44.165   7.971
   23POPC   C4B 5806   6.355  44.040   7.549
   24POPC   NC3 5807   0.080   8.187   9.427
   24POPC   PO4 5808   0.565   8.607   9.481
   24POPC   GL1 5809   0.636   8.221   9.210
   24POPC   GL2 5810   0.335   8.088   9.010
   24POPC   C1A 5811   0.780   8.089   8.805
   24POPC   D2A 5812   0.606   8.296   8.454
   24POPC   C3A 5813   0.669   8.142   8.063
   24POPC   C4A 5814   0.832   8.412   7.789
   24POPC   C1B 5815   0.154   8.378   8.693
   24POPC   C2B 5816   0.144   8.458   8.234
   24POPC   C3B 5817   0.065   8.267   7.826
   24POPC   C4B 5818  44.945   8.455   7.408
   25POPC   NC3 5819  40.345   4.641   9.442
   25POPC   PO4 5820  40.851   5.013   9.327
   25POPC   GL1 5821  40.555   4.950   9.064
   25POPC   GL2 5822  40.457   5.264   9.018
   25POPC   C1A 5823  40.630   4.861   8.652
   25POPC   D2A 5824  40.909   4.734   8.330
   25POPC   C3A 5825  40.837   4.880   7.925
   25POPC   C4A 5826  41.050   5.211   7.771
   25POPC   C1B 5827  40.438   5.370   8.606
   25POPC   C2B 5828  40.484   5.326   8.186
   25POPC   C3B 5829  40.491   5.251   7.761
   25POPC   C4B 5830  40.483   4.932   7.439
   26POPC   NC3 5831  19.174   6.589   9.609
   26POPC   PO4 5832  19.437   7.055   9.444
   26POPC   GL1 5833  19.195   6.760   9.128
   26POPC   GL2 5834  19.203   6.372   9.130
   26POPC   C1A 5835  19.087   6.637   8.691
   26POPC   D2A 5836  19.219   6.691   8.252
   26POPC   C3A 5837  18.894   6.529   7.985
   26POPC   C4A 5838  18.534   6.486   7.705
   26POPC   C1B 5839  19.362   6.207   8.706
   26POPC   C2B 5840  19.160   6.190   8.290
   26POPC   C3B 5841  19.335   6.297   7.883
   26POPC   C4B 5842  19.435   6.597   7.528
   27POPC   NC3 5843  33.536  10.525   9.514
   27POPC   PO4 5844  34.073  10.252   9.596
   27POPC   GL1 5845  33.919  10.409   9.172
   27POPC   GL2 5846  33.832  10.769   9.161
   27POPC   C1A 5847  33.817  10.421   8.710
   27POPC   D2A 5848  34.010  10.577   8.318
   27POPC   C3A 5849  33.766  10.598   7.941
   27POPC   C4A 5850  33.679  10.258   7.698
   27POPC   C1B 5851  33.523  10.814   8.842
   27POPC   C2B 5852  33.542  10.756   8.405
   27POPC   C3B 5853  33.326  10.851   7.994
   27POPC   C4B 5854  33.402  10.945   7.600
   28POPC   NC3 5855  39.427  16.203   9.584
   28POPC   PO4 5856  39.025  15.741   9.439
   28POPC   GL1 5857  39.316  15.955   9.135
   28POPC   GL2 5858  39.437  16.335   9.102
   28POPC   C1A 5859  39.158  16.089   8.742
   28POPC   D2A 5860  39.126  15.873   8.360
   28POPC   C3A 5861  39.317  15.974   7.976
   28POPC   C4A 5862  39.002  15.947   7.658
   28POPC   C1B 5863  39.379  16.562   8.696
   28POPC   C2B 5864  39.153  16.388   8.313
   28POPC   C3B 5865  39.096  16.430   7.866
   28POPC   C4B 5866  39.437  16.335   7.564
   29POPC   NC3 5867   6.594  43.148   9.533
   29POPC   PO4 5868   6.882  42.633   9.349
   29POPC   GL1 5869   6.832  43.014   9.087
   29POPC   GL2 5870   6.716  43.388   9.087
   29POPC   C1A 5871   6.921  43.174   8.689
   29POPC   D2A 5872   7.134  43.265   8.315
   29POPC   C3A 5873   6.827  43.341   8.048
   29POPC   C4A 5874   6.472  43.214   7.861
   29POPC   C1B 5875   6.404  43.501   8.761
   29POPC   C2B 5876   6.424  43.529   8.313
   29POPC   C3B 5877   6.358  43.682   7.907
   29POPC   C4B 5878   6.500  43.545   7.465
   30POPC   NC3 5879  21.813  38.356   9.968
   30POPC   PO4 5880  21.479  38.288   9.514
   30POPC   GL1 5881  21.708  38.458   9.153
   30POPC   GL2 5882  21.656  38.825   9.191
   30POPC   C1A 5883  21.707  38.343   8.703
   30POPC   D2A 5884  21.567  38.462   8.277
   30POPC   C3A 5885  21.601  38.154   7.947
   30POPC   C4A 5886  21.602  37.815   7.626
   30POPC   C1B 5887  21.510  39.032   8.780
   30POPC   C2B 5888  21.285  38.945   8.379
   30POPC   C3B 5889  21.320  38.809   7.963
   30POPC   C4B 5890  21.704  38.665   7.806
   31POPC   NC3 5891  15.452  12.792   9.555
   31POPC   PO4 5892  14.972  13.211   9.360
   31POPC   GL1 5893  15.204  12.906   9.111
   31POPC   GL2 5894  15.499  13.090   9.120
   31POPC   C1A 5895  15.276  12.612   8.740
   31POPC   D2A 5896  15.079  12.381   8.364
   31POPC   C3A 5897  15.098  12.611   7.955
   31POPC   C4A 5898  15.043  13.054   7.835
   31POPC   C1B 5899  15.322  13.172   8.698
   31POPC   C2B 5900  15.533  13.183   8.297
   31POPC   C3B 5901  15.524  13.174   7.827
   31POPC   C4B 5902  15.538  12.719   7.697
   32POPC   NC3 5903  44.110  24.092   9.609
   32POPC   PO4 5904  43.713  23.584   9.777
   32POPC   GL1 5905  43.760  23.738   9.342
   32POPC   GL2 5906  44.101  23.705   9.254
   32POPC   C1A 5907  43.610  23.640   8.914
   32POPC   D2A 5908  43.529  23.430   8.500
   32POPC   C3A 5909  43.743  23.646   8.169
   32POPC   C4A 5910  43.703  23.626   7.757
   32POPC   C1B 5911  43.972  24.008   8.935
   32POPC   C2B 5912  43.939  23.996   8.503
   32POPC   C3B 5913  43.987  24.105   8.056
   32POPC   C4B 5914  44.135  23.922   7.683
   33POPC   NC3 5915  28.609  20.128   9.562
   33POPC   PO4 5916  28.127  19.858   9.626
   33POPC   GL1 5917  28.344  19.858   9.179
   33POPC   GL2 5918  28.718  19.798   9.170
   33POPC   C1A 5919  28.305  19.982   8.700
   33POPC   D2A 5920  28.295  20.194   8.254
   33POPC   C3A 5921  28.113  19.989   7.872
   33POPC   C4A 5922  28.300  19.728   7.525
   33POPC   C1B 5923  28.666  19.624   8.737
   33POPC   C2B 5924  28.584  19.766   8.288
   33POPC   C3B 5925  28.620  19.967   7.873
   33POPC   C4B 5926  28.819  19.844   7.480
   34POPC   NC3 5927  35.082  38.861   9.238
   34POPC   PO4 5928  35.529  38.461   9.466
   34POPC   GL1 5929  35.367  38.498   9.042
   34POPC   GL2 5930  35.061  38.334   9.078
   34POPC   C1A 5931  35.422  38.839   8.699
   34POPC   D2A 5932  35.595  38.854   8.304
   34POPC   C3A 5933  35.330  38.759   7.961
   34POPC   C4A 5934  35.555  38.811   7.626
   34POPC   C1B 5935  35.005  38.530   8.679
   34POPC   C2B 5936  35.259  38.437   8.377
   34POPC   C3B 5937  35.165  38.136   8.087
   34POPC   C4B 5938  35.424  38.262   7.716
   35POPC   NC3 5939  13.868   8.024   9.648
   35POPC   PO4 5940  13.480   8.527   9.679
   35POPC   GL1 5941  13.629   8.281   9.264
   35POPC   GL2 5942  13.679   7.948   9.195
   35POPC   C1A 5943  13.771   8.168   8.779
   35POPC   D2A 5944  13.738   8.426   8.434
   35POPC   C3A 5945  13.982   8.272   8.089
   35POPC   C4A 5946  13.750   8.185   7.729
   35POPC   C1B 5947  13.381   7.800   8.861
   35POPC   C2B 5948  13.255   7.866   8.463
   35POPC   C3B 5949  13.555   7.952   8.138
   35POPC   C4B 5950  13.443   7.763   7.713
   36POPC   NC3 5951  26.977  26.068   9.378
   36POPC   PO4 5952  26.362  25.887   9.584
   36POPC   GL1 5953  26.467  25.878   9.153
   36POPC   GL2 5954  26.513  26.227   9.138
   36POPC   C1A 5955  26.777  25.858   8.801
   36POPC   D2A 5956  26.870  26.079   8.438
   36POPC   C3A 5957  26.914  25.898   8.026
   36POPC   C4A 5958  27.137  26.158   7.748
   36POPC   C1B 5959  26.428  26.201   8.703
   36POPC   C2B 5960  26.531  26.506   8.395
   36POPC   C3B 5961  26.705  26.371   8.051
   36POPC   C4B 5962  26.612  26.175   7.669
   37POPC   NC3 5963  40.279   3.731   9.233
   37POPC   PO4 5964  39.660   3.614   9.582
   37POPC   GL1 5965  39.813   3.582   9.142
   37POPC   GL2 5966  39.808   3.952   9.156
   37POPC   C1A 5967  39.981   3.402   8.713
   37POPC   D2A 5968  40.168   3.375   8.258
   37POPC   C3A 5969  40.063   3.438   7.772
   37POPC   C4A 5970  40.212   3.325   7.324
   37POPC   C1B 5971  39.948   3.996   8.760
   37POPC   C2B 5972  39.842   3.788   8.418
   37POPC   C3B 5973  39.905   3.890   8.031
   37POPC   C4B 5974  39.660   3.781   7.721
   38POPC   NC3 5975  16.867  22.455   9.513
   38POPC   PO4 5976  16.915  23.146   9.469
   38POPC   GL1 5977  16.674  22.994   9.112
   38POPC   GL2 5978  16.552  22.658   9.139
   38POPC   C1A 5979  16.602  23.160   8.695
   38POPC   D2A 5980  16.641  22.936   8.319
   38POPC   C3A 5981  16.672  23.035   7.934
   38POPC   C4A 5982  16.948  22.769   7.713
   38POPC   C1B 5983  16.600  22.633   8.723
   38POPC   C2B 5984  16.440  22.459   8.325
   38POPC   C3B 5985  16.441  22.596   7.907
   38POPC   C4B 5986  16.587  22.461   7.492
   39POPC   NC3 5987   9.415  42.619   9.583
   39POPC   PO4 5988   8.774  42.358   9.429
   39POPC   GL1 5989   9.009  42.404   9.083
   39POPC   GL2 5990   9.221  42.685   9.100
   39POPC   C1A 5991   8.858  42.550   8.705
   39POPC   D2A 5992   8.481  42.389   8.476
   39POPC   C3A 5993   8.588  42.476   8.051
   39POPC   C4A 5994   8.839  42.338   7.741
   39POPC   C1B 5995   9.374  42.804   8.681
   39POPC   C2B 5996   9.343  42.590   8.265
   39POPC   C3B 5997   9.348  42.385   7.842
   39POPC   C4B 5998   9.197  42.589   7.431
   40POPC   NC3 5999  23.854  13.923   9.470
   40POPC   PO4 6000  23.737  13.208   9.447
   40POPC   GL1 6001  23.876  13.472   9.113
   40POPC   GL2 6002  23.587  13.690   9.111
   40POPC   C1A 6003  23.943  13.695   8.733
   40POPC   D2A 6004  23.644  13.713   8.421
   40POPC   C3A 6005  23.750  13.734   7.999
   40POPC   C4A 6006  23.907  13.433   7.743
   40POPC   C1B 6007  23.285  13.727   8.807
   40POPC   C2B 6008  23.185  13.455   8.501
   40POPC   C3B 6009  23.301  13.489   8.095
   40POPC   C4B 6010  23.407  13.485   7.677
   41POPC   NC3 6011  30.336  35.384   9.616
   41POPC   PO4 6012  29.768  35.525   9.775
   41POPC   GL1 6013  29.912  35.458   9.294
   41POPC   GL2 6014  29.777  35.192   9.083
   41POPC   C1A 6015  30.107  35.468   8.820
   41POPC   D2A 6016  29.942  35.523   8.349
   41POPC   C3A 6017  30.003  35.228   7.981
   41POPC   C4A 6018  30.192  35.284   7.575
   41POPC   C1B 6019  29.601  35.529   8.767
   41POPC   C2B 6020  29.435  35.618   8.328
   41POPC   C3B 6021  29.576  35.500   7.922
   41POPC   C4B 6022  29.686  35.250   7.539
   42POPC   NC3 6023  34.123   0.286   9.680
   42POPC   PO4 6024  33.735   0.835   9.492
   42POPC   GL1 6025  33.913   0.588   9.148
   42POPC   GL2 6026  33.853   0.235   9.145
   42POPC   C1A 6027  34.120   0.623   8.721
   42POPC   D2A 6028  33.948   0.370   8.300
   42POPC   C3A 6029  34.048   0.441   7.822
   42POPC   C4A 6030  34.095   0.198   7.384
   42POPC   C1B 6031  33.656   0.414   8.738
   42POPC   C2B 6032  33.474   0.533   8.324
   42POPC   C3B 6033  33.534   0.425   7.872
   42POPC   C4B 6034  33.348   0.692   7.532
   43POPC   NC3 6035   1.503  31.925   9.435
   43POPC   PO4 6036   0.954  32.321   9.470
   43POPC   GL1 6037   1.192  32.188   9.108
   43POPC   GL2 6038   1.069  31.875   9.139
   43POPC   C1A 6039   1.353  32.323   8.699
   43POPC   D2A 6040   1.176  32.503   8.323
   43POPC   C3A 6041   1.297  32.263   7.978
   43POPC   C4A 6042   1.603  32.286   7.722
   43POPC   C1B 6043   1.361  31.810   8.784
   43POPC   C2B 6044   1.356  31.900   8.350
   43POPC   C3B 6045   1.062  31.771   8.019
   43POPC   C4B 6046   1.112  31.895   7.614
   44POPC   NC3 6047  38.718  33.015   9.629
   44POPC   PO4 6048  38.100  32.632   9.659
   44POPC   GL1 6049  38.322  32.856   9.331
   44POPC   GL2 6050  38.553  32.583   9.305
   44POPC   C1A 6051  38.575  32.998   8.962
   44POPC   D2A 6052  38.686  33.181   8.580
   44POPC   C3A 6053  38.648  32.994   8.189
   44POPC   C4A 6054  38.434  33.202   7.850
   44POPC   C1B 6055  38.271  32.596   8.909
   44POPC   C2B 6056  38.351  32.694   8.491
   44POPC   C3B 6057  38.245  32.669   8.047
   44POPC   C4B 6058  38.386  32.714   7.620
   45POPC   NC3 6059  42.210  35.325   9.421
   45POPC   PO4 6060  41.504  35.226   9.453
   45POPC   GL1 6061  41.510  35.447   9.089
   45POPC   GL2 6062  41.848  35.521   9.078
   45POPC   C1A 6063  41.613  35.325   8.659
   45POPC   D2A 6064  41.864  35.011   8.415
   45POPC   C3A 6065  41.763  35.090   8.000
   45POPC   C4A 6066  41.423  35.366   7.846
   45POPC   C1B 6067  41.829  35.838   8.743
   45POPC   C2B 6068  41.729  36.001   8.348
   45POPC   C3B 6069  41.773  35.629   8.104
   45POPC   C4B 6070  41.901  35.584   7.687
   46POPC   NC3 6071  31.172  36.021   9.617
   46POPC   PO4 6072  30.723  35.604   9.491
   46POPC   GL1 6073  31.035  35.763   9.173
   46POPC   GL2 6074  31.079  36.127   9.122
   46POPC   C1A 6075  31.182  35.787   8.741
   46POPC   D2A 6076  30.940  35.851   8.360
   46POPC   C3A 6077  30.723  35.829   7.946
   46POPC   C4A 6078  30.298  35.751   7.734
   46POPC   C1B 6079  30.895  36.237   8.707
   46POPC   C2B 6080  30.705  36.291   8.266
   46POPC   C3B 6081  30.778  36.315   7.820
   46POPC   C4B 6082  30.572  36.486   7.452
   47POPC   NC3 6083  33.385   6.682   9.475
   47POPC   PO4 6084  32.769   6.717   9.472
   47POPC   GL1 6085  33.009   6.642   9.102
   47POPC   GL2 6086  33.188   6.327   9.156
   47POPC   C1A 6087  32.895   6.721   8.671
   47POPC   D2A 6088  32.886   6.475   8.277
   47POPC   C3A 6089  32.849   6.749   7.916
   47POPC   C4A 6090  33.001   7.000   7.570
   47POPC   C1B 6091  33.227   6.340   8.708
   47POPC   C2B 6092  33.326   6.196   8.285
   47POPC   C3B 6093  33.220   6.342   7.890
   47POPC   C4B 6094  33.131   6.509   7.513
   48POPC   NC3 6095  42.423  36.582   9.753
   48POPC   PO4 6096  42.218  37.235   9.547
   48POPC   GL1 6097  42.201  36.952   9.184
   48POPC   GL2 6098  42.437  36.677   9.171
   48POPC   C1A 6099  42.168  36.816   8.743
   48POPC   D2A 6100  42.223  36.993   8.332
   48POPC   C3A 6101  42.097  36.908   7.910
   48POPC   C4A 6102  42.440  36.871   7.632
   48POPC   C1B 6103  42.512  36.427   8.770
   48POPC   C2B 6104  42.686  36.539   8.388
   48POPC   C3B 6105  42.519  36.561   8.029
   48POPC   C4B 6106  42.750  36.469   7.680
   49POPC   NC3 6107  44.074  32.841   9.445
   49POPC   PO4 6108  43.570  33.369   9.560
   49POPC   GL1 6109  43.605  33.286   9.137
   49POPC   GL2 6110  43.951  33.268   9.186
   49POPC   C1A 6111  43.707  33.187   8.709
   49POPC   D2A 6112  43.727  32.912   8.362
   49POPC   C3A 6113  43.714  33.172   7.992
   49POPC   C4A 6114  43.770  32.983   7.604
   49POPC   C1B 6115  44.219  33.139   8.856
   49POPC   C2B 6116  44.200  33.098   8.424
   49POPC   C3B 6117  44.140  32.916   8.031
   49POPC   C4B 6118  44.274  33.048   7.634
   50POPC   NC3 6119  35.280  36.070   9.508
   50POPC   PO4 6120  35.049  36.627   9.683
   50POPC   GL1 6121  35.177  36.428   9.178
   50POPC   GL2 6122  35.570  36.255   9.113
   50POPC   C1A 6123  35.243  36.046   8.828
   50POPC   D2A 6124  35.434  35.921   8.405
   50POPC   C3A 6125  35.247  36.046   8.013
   50POPC   C4A 6126  35.104  36.178   7.623
   50POPC   C1B 6127  35.513  36.481   8.763
   50POPC   C2B 6128  35.584  36.714   8.425
   50POPC   C3B 6129  35.433  36.564   8.085
   50POPC   C4B 6130  35.637  36.309   7.817
   51POPC   NC3 6131  35.738  20.227   9.490
   51POPC   PO4 6132  35.112  20.365   9.704
   51POPC   GL1 6133  35.301  20.438   9.293
   51POPC   GL2 6134  35.068  20.641   9.100
   51POPC   C1A 6135  35.548  20.559   8.910
   51POPC   D2A 6136  35.559  20.481   8.514
   51POPC   C3A 6137  35.423  20.697   8.136
   51POPC   C4A 6138  35.521  20.639   7.690
   51POPC   C1B 6139  35.088  20.626   8.636
   51POPC   C2B 6140  35.016  20.412   8.228
   51POPC   C3B 6141  35.060  20.403   7.771
   51POPC   C4B 6142  34.810  20.275   7.386
   52POPC   NC3 6143   2.342  32.301   9.429
   52POPC   PO4 6144   1.765  32.553   9.209
   52POPC   GL1 6145   2.000  32.320   9.003
   52POPC   GL2 6146   1.730  32.078   8.993
   52POPC   C1A 6147   1.979  32.497   8.601
   52POPC   D2A 6148   1.695  32.431   8.283
   52POPC   C3A 6149   1.962  32.175   8.057
   52POPC   C4A 6150   2.321  32.200   7.794
   52POPC   C1B 6151   1.868  31.999   8.574
   52POPC   C2B 6152   2.201  31.791   8.341
   52POPC   C3B 6153   2.038  31.649   7.985
   52POPC   C4B 6154   1.620  31.813   7.871
   53POPC   NC3 6155  43.330  23.781   9.611
   53POPC   PO4 6156  42.697  23.836   9.341
   53POPC   GL1 6157  43.096  23.785   9.150
   53POPC   GL2 6158  43.351  24.042   9.187
   53POPC   C1A 6159  43.123  23.626   8.760
   53POPC   D2A 6160  42.965  23.702   8.354
   53POPC   C3A 6161  43.231  23.579   8.028
   53POPC   C4A 6162  43.227  23.811   7.648
   53POPC   C1B 6163  43.458  24.138   8.803
   53POPC   C2B 6164  43.421  23.932   8.442
   53POPC   C3B 6165  43.421  24.071   8.033
   53POPC   C4B 6166  43.649  24.114   7.646
   54POPC   NC3 6167  41.317  29.223   9.425
   54POPC   PO4 6168  41.471  28.650   9.805
   54POPC   GL1 6169  41.475  28.776   9.348
   54POPC   GL2 6170  41.782  29.013   9.209
   54POPC   C1A 6171  41.447  28.849   8.872
   54POPC   D2A 6172  41.535  29.066   8.496
   54POPC   C3A 6173  41.335  28.954   8.123
   54POPC   C4A 6174  41.421  29.241   7.735
   54POPC   C1B 6175  41.957  28.856   8.756
   54POPC   C2B 6176  42.044  28.873   8.311
   54POPC   C3B 6177  41.802  28.953   7.930
   54POPC   C4B 6178  41.804  29.000   7.461
   55POPC   NC3 6179  40.784   9.759   9.786
   55POPC   PO4 6180  41.167  10.227   9.583
   55POPC   GL1 6181  40.967  10.014   9.186
   55POPC   GL2 6182  40.905   9.640   9.102
   55POPC   C1A 6183  41.006   9.962   8.706
   55POPC   D2A 6184  41.222   9.748   8.334
   55POPC   C3A 6185  41.111   9.856   7.882
   55POPC   C4A 6186  40.860   9.899   7.473
   55POPC   C1B 6187  40.880   9.465   8.640
   55POPC   C2B 6188  40.775   9.538   8.181
   55POPC   C3B 6189  40.823   9.461   7.738
   55POPC   C4B 6190  40.840   9.086   7.505
   56POPC   NC3 6191  35.623   5.211  10.123
   56POPC   PO4 6192  35.595   4.749   9.581
   56POPC   GL1 6193  35.487   5.047   9.168
   56POPC   GL2 6194  35.179   5.290   9.207
   56POPC   C1A 6195  35.535   5.265   8.773
   56POPC   D2A 6196  35.710   5.250   8.399
   56POPC   C3A 6197  35.554   5.403   8.016
   56POPC   C4A 6198  35.438   5.105   7.717
   56POPC   C1B 6199  35.040   5.143   8.825
   56POPC   C2B 6200  35.203   5.163   8.405
   56POPC   C3B 6201  35.036   5.258   8.030
   56POPC   C4B 6202  34.956   5.183   7.619
   57POPC   NC3 6203  29.884  44.921   9.537
   57POPC   PO4 6204  30.248  44.418   9.529
   57POPC   GL1 6205  30.006  44.525   9.114
   57POPC   GL2 6206  29.688  44.683   9.120
   57POPC   C1A 6207  30.088  44.636   8.664
   57POPC   D2A 6208  30.275  44.420   8.280
   57POPC   C3A 6209  30.040  44.407   7.896
   57POPC   C4A 6210  29.638  44.377   7.737
   57POPC   C1B 6211  29.696  44.997   8.776
   57POPC   C2B 6212  29.862   0.044   8.339
   57POPC   C3B 6213  29.806  44.838   7.960
   57POPC   C4B 6214  29.674  44.869   7.557
   58POPC   NC3 6215  12.305  20.495   9.487
   58POPC   PO4 6216  11.620  20.561   9.463
   58POPC   GL1 6217  11.934  20.683   9.121
   58POPC   GL2 6218  12.306  20.720   9.042
   58POPC   C1A 6219  11.983  20.529   8.702
   58POPC   D2A 6220  11.829  20.577   8.313
   58POPC   C3A 6221  12.138  20.622   8.077
   58POPC   C4A 6222  12.055  20.590   7.669
   58POPC   C1B 6223  12.398  20.277   8.848
   58POPC   C2B 6224  12.264  20.156   8.401
   58POPC   C3B 6225  12.270  20.149   7.906
   58POPC   C4B 6226  12.339  20.241   7.429
   59POPC   NC3 6227  34.219   0.917   9.372
   59POPC   PO4 6228  34.556   0.262   9.534
   59POPC   GL1 6229  34.358   0.331   9.182
   59POPC   GL2 6230  34.522   0.630   9.070
   59POPC   C1A 6231  34.273   0.148   8.786
   59POPC   D2A 6232  34.432   0.361   8.410
   59POPC   C3A 6233  34.384   0.149   8.058
   59POPC   C4A 6234  34.556   0.197   7.648
   59POPC   C1B 6235  34.756   0.320   8.815
   59POPC   C2B 6236  34.920   0.473   8.429
   59POPC   C3B 6237  34.848   0.386   8.037
   59POPC   C4B 6238  34.542   0.659   7.887
   60POPC   NC3 6239   1.444  26.195   9.573
   60POPC   PO4 6240   1.048  25.746   9.410
   60POPC   GL1 6241   1.284  26.037   9.127
   60POPC   GL2 6242   1.293  26.428   9.165
   60POPC   C1A 6243   1.254  26.129   8.728
   60POPC   D2A 6244   1.461  25.955   8.382
   60POPC   C3A 6245   1.302  26.155   8.061
   60POPC   C4A 6246   1.071  26.047   7.753
   60POPC   C1B 6247   1.439  26.600   8.803
   60POPC   C2B 6248   1.551  26.456   8.436
   60POPC   C3B 6249   1.504  26.614   8.047
   60POPC   C4B 6250   1.691  26.553   7.669
   61POPC   NC3 6251  39.513  33.157   9.529
   61POPC   PO4 6252  39.065  32.667   9.618
   61POPC   GL1 6253  39.007  32.865   9.190
   61POPC   GL2 6254  39.275  33.076   9.091
   61POPC   C1A 6255  39.070  32.843   8.695
   61POPC   D2A 6256  39.378  32.850   8.348
   61POPC   C3A 6257  39.236  32.836   7.930
   61POPC   C4A 6258  38.882  33.021   7.723
   61POPC   C1B 6259  39.259  33.314   8.711
   61POPC   C2B 6260  39.409  33.351   8.278
   61POPC   C3B 6261  39.305  33.348   7.830
   61POPC   C4B 6262  39.442  33.447   7.428
   62POPC   NC3 6263  33.283  37.120   9.448
   62POPC   PO4 6264  33.137  36.454   9.403
   62POPC   GL1 6265  33.217  36.741   9.104
   62POPC   GL2 6266  32.898  36.918   9.157
   62POPC   C1A 6267  33.211  36.993   8.742
   62POPC   D2A 6268  33.018  37.008   8.358
   62POPC   C3A 6269  33.223  37.031   7.989
   62POPC   C4A 6270  33.099  36.793   7.664
   62POPC   C1B 6271  32.689  37.061   8.783
   62POPC   C2B 6272  32.496  37.045   8.371
   62POPC   C3B 6273  32.678  36.946   7.945
   62POPC   C4B 6274  32.794  37.151   7.523
   63POPC   NC3 6275  39.681  41.889   9.498
   63POPC   PO4 6276  39.638  41.198   9.193
   63POPC   GL1 6277  39.934  41.492   9.056
   63POPC   GL2 6278  39.856  41.850   9.041
   63POPC   C1A 6279  40.161  41.374   8.680
   63POPC   D2A 6280  40.114  41.103   8.301
   63POPC   C3A 6281  40.094  41.363   7.927
   63POPC   C4A 6282  40.182  41.370   7.480
   63POPC   C1B 6283  40.035  41.880   8.660
   63POPC   C2B 6284  39.972  41.787   8.231
   63POPC   C3B 6285  40.237  41.872   7.880
   63POPC   C4B 6286  40.631  42.093   7.814
   64POPC   NC3 6287  27.894   6.559   9.587
   64POPC   PO4 6288  27.384   6.128   9.478
   64POPC   GL1 6289  27.493   6.470   9.213
   64POPC   GL2 6290  27.775   6.315   9.152
   64POPC   C1A 6291  27.579   6.634   8.787
   64POPC   D2A 6292  27.397   6.641   8.374
   64POPC   C3A 6293  27.573   6.785   7.983
   64POPC   C4A 6294  27.501   6.557   7.593
   64POPC   C1B 6295  27.872   6.214   8.745
   64POPC   C2B 6296  27.868   6.416   8.363
   64POPC   C3B 6297  27.765   6.299   7.942
   64POPC   C4B 6298  28.017   6.448   7.572
   65POPC   NC3 6299   9.652  43.439   9.709
   65POPC   PO4 6300  10.152  43.046   9.705
   65POPC   GL1 6301   9.958  43.105   9.272
   65POPC   GL2 6302   9.610  43.038   9.245
   65POPC   C1A 6303   9.908  43.092   8.801
   65POPC   D2A 6304  10.022  43.282   8.388
   65POPC   C3A 6305   9.752  43.190   8.029
   65POPC   C4A 6306   9.786  43.086   7.630
   65POPC   C1B 6307   9.425  43.274   8.903
   65POPC   C2B 6308   9.462  43.296   8.435
   65POPC   C3B 6309   9.290  43.406   7.990
   65POPC   C4B 6310   9.324  43.332   7.516
   66POPC   NC3 6311  21.654  23.167   9.401
   66POPC   PO4 6312  21.036  23.221   9.463
   66POPC   GL1 6313  21.239  22.965   9.166
   66POPC   GL2 6314  21.280  23.303   9.003
   66POPC   C1A 6315  21.521  22.902   8.816
   66POPC   D2A 6316  21.463  22.746   8.447
   66POPC   C3A 6317  21.552  22.894   8.058
   66POPC   C4A 6318  21.612  22.863   7.630
   66POPC   C1B 6319  21.275  23.253   8.555
   66POPC   C2B 6320  21.270  23.325   8.135
   66POPC   C3B 6321  20.927  23.293   7.868
   66POPC   C4B 6322  21.061  23.222   7.419
   67POPC   NC3 6323   8.374  28.820   9.541
   67POPC   PO4 6324   7.763  28.770   9.521
   67POPC   GL1 6325   8.029  28.533   9.235
   67POPC   GL2 6326   8.159  28.792   9.089
   67POPC   C1A 6327   8.220  28.363   8.809
   67POPC   D2A 6328   8.429  28.449   8.360
   67POPC   C3A 6329   8.242  28.426   7.924
   67POPC   C4A 6330   8.204  28.280   7.471
   67POPC   C1B 6331   8.390  28.829   8.718
   67POPC   C2B 6332   8.580  28.933   8.354
   67POPC   C3B 6333   8.653  28.738   7.948
   67POPC   C4B 6334   8.420  28.737   7.538
   68POPC   NC3 6335  21.293  40.956   9.634
   68POPC   PO4 6336  21.621  41.513   9.481
   68POPC   GL1 6337  21.560  41.126   9.164
   68POPC   GL2 6338  21.270  40.818   9.154
   68POPC   C1A 6339  21.596  40.841   8.799
   68POPC   D2A 6340  21.560  40.530   8.468
   68POPC   C3A 6341  21.559  40.720   8.075
   68POPC   C4A 6342  21.746  40.822   7.714
   68POPC   C1B 6343  21.109  40.661   8.731
   68POPC   C2B 6344  21.089  40.677   8.256
   68POPC   C3B 6345  21.171  40.462   7.849
   68POPC   C4B 6346  21.116  40.526   7.380
   69POPC   NC3 6347  34.111   6.181   9.431
   69POPC   PO4 6348  33.679   5.617   9.442
   69POPC   GL1 6349  33.802   5.897   9.154
   69POPC   GL2 6350  33.543   6.000   8.981
   69POPC   C1A 6351  34.007   5.956   8.777
   69POPC   D2A 6352  33.818   5.925   8.371
   69POPC   C3A 6353  34.070   6.008   8.019
   69POPC   C4A 6354  33.831   6.014   7.641
   69POPC   C1B 6355  33.654   5.570   8.742
   69POPC   C2B 6356  33.742   5.363   8.308
   69POPC   C3B 6357  33.704   5.491   7.861
   69POPC   C4B 6358  33.556   5.609   7.423
   70POPC   NC3 6359  22.753  15.683   9.743
   70POPC   PO4 6360  23.265  16.039   9.683
   70POPC   GL1 6361  22.924  16.183   9.355
   70POPC   GL2 6362  22.749  15.901   9.240
   70POPC   C1A 6363  22.784  16.263   8.901
   70POPC   D2A 6364  22.799  16.129   8.486
   70POPC   C3A 6365  22.938  16.170   8.081
   70POPC   C4A 6366  23.148  16.039   7.719
   70POPC   C1B 6367  22.860  15.733   8.809
   70POPC   C2B 6368  22.977  15.453   8.414
   70POPC   C3B 6369  23.026  15.606   8.007
   70POPC   C4B 6370  22.694  15.810   7.762
   71POPC   NC3 6371  28.553   9.833   9.477
   71POPC   PO4 6372  27.913   9.437   9.395
   71POPC   GL1 6373  28.157   9.665   9.131
   71POPC   GL2 6374  28.274   9.975   9.090
   71POPC   C1A 6375  28.370   9.614   8.752
   71POPC   D2A 6376  28.557   9.850   8.426
   71POPC   C3A 6377  28.425   9.705   8.040
   71POPC   C4A 6378  28.630   9.811   7.646
   71POPC   C1B 6379  28.205  10.148   8.690
   71POPC   C2B 6380  28.040  10.280   8.289
   71POPC   C3B 6381  28.047  10.039   7.910
   71POPC   C4B 6382  28.139   9.737   7.619
   72POPC   NC3 6383  44.156  42.804   9.543
   72POPC   PO4 6384  43.695  43.269   9.437
   72POPC   GL1 6385  44.084  43.265   9.178
   72POPC   GL2 6386  44.236  42.938   9.064
   72POPC   C1A 6387  44.037  43.258   8.737
   72POPC   D2A 6388  43.735  43.314   8.453
   72POPC   C3A 6389  43.901  43.345   8.097
   72POPC   C4A 6390  43.769  43.410   7.700
   72POPC   C1B 6391  44.009  42.726   8.698
   72POPC   C2B 6392  43.986  42.798   8.204
   72POPC   C3B 6393  44.109  43.004   7.778
   72POPC   C4B 6394  44.197  42.872   7.324
   73POPC   NC3 6395  20.005  14.320   9.424
   73POPC   PO4 6396  19.444  14.642   9.534
   73POPC   GL1 6397  19.740  14.690   9.167
   73POPC   GL2 6398  20.098  14.811   9.150
   73POPC   C1A 6399  19.850  14.451   8.766
   73POPC   D2A 6400  19.992  14.194   8.378
   73POPC   C3A 6401  19.761  14.226   7.951
   73POPC   C4A 6402  19.849  14.372   7.515
   73POPC   C1B 6403  20.159  14.831   8.677
   73POPC   C2B 6404  19.906  14.682   8.290
   73POPC   C3B 6405  19.849  14.886   7.881
   73POPC   C4B 6406  19.889  14.868   7.422
   74POPC   NC3 6407   1.712  12.403   9.640
   74POPC   PO4 6408   2.115  13.009   9.536
   74POPC   GL1 6409   1.958  12.905   9.172
   74POPC   GL2 6410   1.955  12.540   9.190
   74POPC   C1A 6411   1.987  13.100   8.786
   74POPC   D2A 6412   1.785  13.191   8.414
   74POPC   C3A 6413   1.945  12.989   8.068
   74POPC   C4A 6414   2.184  13.011   7.712
   74POPC   C1B 6415   1.780  12.584   8.791
   74POPC   C2B 6416   1.756  12.386   8.403
   74POPC   C3B 6417   1.694  12.549   8.016
   74POPC   C4B 6418   1.870  12.640   7.594
   75POPC   NC3 6419  14.640  20.177   9.412
   75POPC   PO4 6420  14.292  20.780   9.418
   75POPC   GL1 6421  14.388  20.508   9.098
   75POPC   GL2 6422  14.149  20.280   9.174
   75POPC   C1A 6423  14.565  20.439   8.701
   75POPC   D2A 6424  14.447  20.297   8.317
   75POPC   C3A 6425  14.450  20.603   7.967
   75POPC   C4A 6426  14.886  20.559   7.859
   75POPC   C1B 6427  14.084  20.248   8.716
   75POPC   C2B 6428  13.964  20.414   8.306
   75POPC   C3B 6429  14.086  20.234   7.924
   75POPC   C4B 6430  14.213  20.341   7.531
   76POPC   NC3 6431  32.226   5.988   9.482
   76POPC   PO4 6432  31.912   5.402   9.539
   76POPC   GL1 6433  32.093   5.555   9.171
   76POPC   GL2 6434  31.829   5.725   9.082
   76POPC   C1A 6435  32.324   5.776   8.818
   76POPC   D2A 6436  32.392   5.995   8.413
   76POPC   C3A 6437  32.364   5.844   7.993
   76POPC   C4A 6438  32.024   6.028   7.762
   76POPC   C1B 6439  31.826   5.859   8.683
   76POPC   C2B 6440  31.936   5.742   8.285
   76POPC   C3B 6441  31.944   5.533   7.917
   76POPC   C4B 6442  32.151   5.561   7.522
   77POPC   NC3 6443   7.771  29.179   9.726
   77POPC   PO4 6444   8.424  29.305   9.597
   77POPC   GL1 6445   8.169  29.273   9.250
   77POPC   GL2 6446   7.819  29.186   9.179
   77POPC   C1A 6447   8.238  29.298   8.817
   77POPC   D2A 6448   8.313  29.386   8.382
   77POPC   C3A 6449   8.399  29.209   7.982
   77POPC   C4A 6450   8.747  29.171   7.706
   77POPC   C1B 6451   7.865  28.960   8.737
   77POPC   C2B 6452   8.068  28.884   8.304
   77POPC   C3B 6453   8.025  28.894   7.840
   77POPC   C4B 6454   8.174  29.160   7.498
   78POPC   NC3 6455  30.360  41.630   9.550
   78POPC   PO4 6456  29.914  41.191   9.592
   78POPC   GL1 6457  29.835  41.470   9.207
   78POPC   GL2 6458  29.798  41.858   9.248
   78POPC   C1A 6459  29.637  41.516   8.779
   78POPC   D2A 6460  29.731  41.419   8.368
   78POPC   C3A 6461  29.710  41.731   8.064
   78POPC   C4A 6462  29.886  41.557   7.713
   78POPC   C1B 6463  29.862  41.964   8.811
   78POPC   C2B 6464  30.095  41.764   8.441
   78POPC   C3B 6465  30.215  41.824   7.991
   78POPC   C4B 6466  30.293  41.759   7.520
   79POPC   NC3 6467  24.738  42.743   9.252
   79POPC   PO4 6468  25.279  42.500   9.537
   79POPC   GL1 6469  25.224  42.633   9.099
   79POPC   GL2 6470  25.069  42.312   9.025
   79POPC   C1A 6471  25.074  42.624   8.638
   79POPC   D2A 6472  24.990  42.264   8.360
   79POPC   C3A 6473  25.272  42.353   8.066
   79POPC   C4A 6474  25.277  42.394   7.667
   79POPC   C1B 6475  25.503  42.334   8.748
   79POPC   C2B 6476  25.722  42.350   8.308
   79POPC   C3B 6477  25.668  42.088   7.880
   79POPC   C4B 6478  25.660  42.176   7.409
   80POPC   NC3 6479  38.883   4.106   9.579
   80POPC   PO4 6480  39.302   4.547   9.549
   80POPC   GL1 6481  39.422   4.332   9.177
   80POPC   GL2 6482  39.120   4.230   9.164
   80POPC   C1A 6483  39.474   4.202   8.752
   80POPC   D2A 6484  39.735   4.315   8.391
   80POPC   C3A 6485  39.456   4.368   8.051
   80POPC   C4A 6486  39.305   4.152   7.670
   80POPC   C1B 6487  38.908   4.137   8.837
   80POPC   C2B 6488  39.014   4.184   8.452
   80POPC   C3B 6489  38.978   4.202   8.046
   80POPC   C4B 6490  38.817   3.970   7.713
   81POPC   NC3 6491   8.851  10.819   9.597
   81POPC   PO4 6492   8.724  11.423   9.640
   81POPC   GL1 6493   8.889  11.367   9.229
   81POPC   GL2 6494   8.642  11.126   9.183
   81POPC   C1A 6495   9.051  11.279   8.799
   81POPC   D2A 6496   8.956  11.383   8.398
   81POPC   C3A 6497   9.218  11.317   8.033
   81POPC   C4A 6498   9.079  11.162   7.663
   81POPC   C1B 6499   8.704  10.896   8.819
   81POPC   C2B 6500   8.583  10.998   8.434
   81POPC   C3B 6501   8.758  11.071   8.060
   81POPC   C4B 6502   8.572  11.184   7.723
   82POPC   NC3 6503  44.628  32.012   9.523
   82POPC   PO4 6504  44.400  32.576   9.280
   82POPC   GL1 6505  44.538  32.292   8.966
   82POPC   GL2 6506  44.830  32.176   9.094
   82POPC   C1A 6507  44.718  31.940   8.680
   82POPC   D2A 6508  44.947  31.984   8.319
   82POPC   C3A 6509  44.643  32.223   8.097
   82POPC   C4A 6510  44.437  32.219   7.677
   82POPC   C1B 6511  44.965  32.553   8.877
   82POPC   C2B 6512  44.943  32.508   8.465
   82POPC   C3B 6513   0.044  32.570   8.052
   82POPC   C4B 6514  44.942  32.340   7.698
   83POPC   NC3 6515  38.058  19.227   9.351
   83POPC   PO4 6516  38.617  19.051   9.645
   83POPC   GL1 6517  38.714  19.075   9.204
   83POPC   GL2 6518  38.551  18.762   9.209
   83POPC   C1A 6519  38.620  19.356   8.810
   83POPC   D2A 6520  38.652  19.575   8.397
   83POPC   C3A 6521  38.643  19.263   8.022
   83POPC   C4A 6522  38.475  19.317   7.570
   83POPC   C1B 6523  38.376  18.903   8.834
   83POPC   C2B 6524  38.600  18.884   8.473
   83POPC   C3B 6525  38.587  18.708   8.088
   83POPC   C4B 6526  38.646  18.851   7.671
   84POPC   NC3 6527   4.850   9.547   9.429
   84POPC   PO4 6528   5.481   9.856   9.487
   84POPC   GL1 6529   5.207   9.780   9.152
   84POPC   GL2 6530   5.330   9.459   9.132
   84POPC   C1A 6531   5.031   9.598   8.756
   84POPC   D2A 6532   5.076   9.841   8.440
   84POPC   C3A 6533   4.892   9.638   8.151
   84POPC   C4A 6534   4.860   9.773   7.747
   84POPC   C1B 6535   5.525   9.498   8.767
   84POPC   C2B 6536   5.412   9.484   8.359
   84POPC   C3B 6537   5.381   9.660   7.968
   84POPC   C4B 6538   5.327   9.466   7.587
   85POPC   NC3 6539  44.253  17.014   9.306
   85POPC   PO4 6540  44.795  16.870   9.697
   85POPC   GL1 6541  44.731  16.813   9.267
   85POPC   GL2 6542  44.478  16.554   9.213
   85POPC   C1A 6543  44.769  16.735   8.818
   85POPC   D2A 6544   0.061  16.888   8.525
   85POPC   C3A 6545  44.955  16.855   8.101
   85POPC   C4A 6546  44.814  16.777   7.690
   85POPC   C1B 6547  44.275  16.588   8.767
   85POPC   C2B 6548  44.488  16.568   8.350
   85POPC   C3B 6549  44.441  16.862   8.003
   85POPC   C4B 6550  44.309  16.859   7.574
   86POPC   NC3 6551   8.184  18.041   9.628
   86POPC   PO4 6552   7.584  18.282   9.598
   86POPC   GL1 6553   7.782  18.244   9.191
   86POPC   GL2 6554   7.765  18.581   9.108
   86POPC   C1A 6555   7.942  18.064   8.774
   86POPC   D2A 6556   8.010  17.862   8.342
   86POPC   C3A 6557   7.966  18.113   7.930
   86POPC   C4A 6558   8.091  18.350   7.549
   86POPC   C1B 6559   7.936  18.574   8.702
   86POPC   C2B 6560   8.146  18.370   8.352
   86POPC   C3B 6561   8.316  18.529   7.959
   86POPC   C4B 6562   8.174  18.880   7.699
   87POPC   NC3 6563  43.497  24.693   9.528
   87POPC   PO4 6564  42.996  24.273   9.670
   87POPC   GL1 6565  43.101  24.471   9.266
   87POPC   GL2 6566  42.849  24.273   9.134
   87POPC   C1A 6567  43.113  24.548   8.800
   87POPC   D2A 6568  43.174  24.373   8.409
   87POPC   C3A 6569  43.030  24.524   8.032
   87POPC   C4A 6570  43.215  24.376   7.647
   87POPC   C1B 6571  42.868  24.083   8.728
   87POPC   C2B 6572  42.715  24.161   8.310
   87POPC   C3B 6573  42.852  24.062   7.877
   87POPC   C4B 6574  42.850  24.131   7.395
   88POPC   NC3 6575  17.731  13.196   9.831
   88POPC   PO4 6576  17.199  12.759   9.708
   88POPC   GL1 6577  17.203  12.699   9.226
   88POPC   GL2 6578  17.202  12.356   9.122
   88POPC   C1A 6579  17.322  12.811   8.777
   88POPC   D2A 6580  17.591  12.663   8.427
   88POPC   C3A 6581  17.732  12.936   8.072
   88POPC   C4A 6582  17.472  12.962   7.689
   88POPC   C1B 6583  17.255  12.279   8.672
   88POPC   C2B 6584  17.085  12.372   8.268
   88POPC   C3B 6585  17.373  12.559   7.979
   88POPC   C4B 6586  17.856  12.470   7.934
   89POPC   NC3 6587  36.186  19.696   9.599
   89POPC   PO4 6588  36.493  20.208   9.509
   89POPC   GL1 6589  36.265  19.953   9.165
   89POPC   GL2 6590  35.919  19.848   9.161
   89POPC   C1A 6591  36.171  19.816   8.725
   89POPC   D2A 6592  36.272  20.158   8.473
   89POPC   C3A 6593  36.455  20.160   8.075
   89POPC   C4A 6594  36.342  20.028   7.651
   89POPC   C1B 6595  35.697  19.996   8.814
   89POPC   C2B 6596  35.785  19.931   8.393
   89POPC   C3B 6597  35.951  20.021   8.003
   89POPC   C4B 6598  35.892  19.793   7.638
   90POPC   NC3 6599  22.961   2.184   9.789
   90POPC   PO4 6600  22.771   1.628   9.438
   90POPC   GL1 6601  22.941   1.881   9.112
   90POPC   GL2 6602  22.959   2.246   9.249
   90POPC   C1A 6603  23.002   1.802   8.657
   90POPC   D2A 6604  22.853   2.067   8.348
   90POPC   C3A 6605  22.692   1.877   7.982
   90POPC   C4A 6606  22.921   1.645   7.686
   90POPC   C1B 6607  23.068   2.287   8.812
   90POPC   C2B 6608  23.339   2.221   8.438
   90POPC   C3B 6609  23.163   2.349   8.044
   90POPC   C4B 6610  22.966   2.183   7.701
   91POPC   NC3 6611  10.798   9.863   9.473
   91POPC   PO4 6612  11.410   9.565   9.561
   91POPC   GL1 6613  11.279   9.810   9.237
   91POPC   GL2 6614  10.983   9.665   9.054
   91POPC   C1A 6615  11.455   9.673   8.859
   91POPC   D2A 6616  11.264   9.684   8.495
   91POPC   C3A 6617  11.468   9.853   8.152
   91POPC   C4A 6618  11.437   9.791   7.709
   91POPC   C1B 6619  11.053  10.039   8.805
   91POPC   C2B 6620  11.096  10.138   8.383
   91POPC   C3B 6621  10.969   9.898   8.022
   91POPC   C4B 6622  10.977   9.990   7.579
   92POPC   NC3 6623  31.019  40.173   9.457
   92POPC   PO4 6624  31.731  39.939   9.507
   92POPC   GL1 6625  31.415  40.051   9.111
   92POPC   GL2 6626  31.194  39.816   8.954
   92POPC   C1A 6627  31.366  40.153   8.620
   92POPC   D2A 6628  31.517  40.284   8.190
   92POPC   C3A 6629  31.191  40.288   7.835
   92POPC   C4A 6630  31.258  40.433   7.391
   92POPC   C1B 6631  31.632  39.756   8.778
   92POPC   C2B 6632  31.711  39.794   8.368
   92POPC   C3B 6633  31.435  39.796   8.052
   92POPC   C4B 6634  31.552  39.958   7.686
   93POPC   NC3 6635  32.638  12.118   9.495
   93POPC   PO4 6636  33.267  11.935   9.442
   93POPC   GL1 6637  32.906  11.898   9.124
   93POPC   GL2 6638  32.649  11.633   9.240
   93POPC   C1A 6639  32.911  11.789   8.663
   93POPC   D2A 6640  33.069  11.586   8.315
   93POPC   C3A 6641  33.265  11.868   8.029
   93POPC   C4A 6642  33.017  12.134   7.732
   93POPC   C1B 6643  32.456  11.718   8.853
   93POPC   C2B 6644  32.386  11.874   8.441
   93POPC   C3B 6645  32.716  11.914   8.131
   93POPC   C4B 6646  32.880  11.630   7.792
   94POPC   NC3 6647   4.256  35.516   9.599
   94POPC   PO4 6648   3.859  36.028   9.294
   94POPC   GL1 6649   4.043  35.580   9.147
   94POPC   GL2 6650   4.314  35.263   9.178
   94POPC   C1A 6651   4.296  35.521   8.762
   94POPC   D2A 6652   4.263  35.212   8.453
   94POPC   C3A 6653   4.258  35.384   8.032
   94POPC   C4A 6654   4.085  35.102   7.723
   94POPC   C1B 6655   4.629  35.080   8.886
   94POPC   C2B 6656   4.750  34.936   8.461
   94POPC   C3B 6657   4.474  34.904   8.083
   94POPC   C4B 6658   4.626  35.065   7.705
   95POPC   NC3 6659   2.462  11.838   9.546
   95POPC   PO4 6660   2.859  12.355   9.400
   95POPC   GL1 6661   2.789  12.353   8.969
   95POPC   GL2 6662   2.795  11.993   8.918
   95POPC   C1A 6663   2.902  12.290   8.515
   95POPC   D2A 6664   2.842  11.862   8.306
   95POPC   C3A 6665   2.533  11.896   7.984
   95POPC   C4A 6666   2.659  12.302   7.879
   95POPC   C1B 6667   3.185  11.870   8.680
   95POPC   C2B 6668   3.379  12.050   8.353
   95POPC   C3B 6669   3.155  12.248   8.048
   95POPC   C4B 6670   3.006  11.933   7.814
   96POPC   NC3 6671  42.011   8.642   9.575
   96POPC   PO4 6672  42.375   9.147   9.824
   96POPC   GL1 6673  42.549   8.817   9.372
   96POPC   GL2 6674  42.372   8.591   9.216
   96POPC   C1A 6675  42.640   8.836   8.840
   96POPC   D2A 6676  42.561   9.197   8.502
   96POPC   C3A 6677  42.415   9.221   8.049
   96POPC   C4A 6678  42.253   9.107   7.608
   96POPC   C1B 6679  42.279   8.479   8.824
   96POPC   C2B 6680  42.235   8.717   8.463
   96POPC   C3B 6681  42.308   8.728   8.043
   96POPC   C4B 6682  42.375   8.607   7.633
   97POPC   NC3 6683   0.755  41.972   9.610
   97POPC   PO4 6684   0.468  42.612   9.531
   97POPC   GL1 6685   0.543  42.430   9.138
   97POPC   GL2 6686   0.457  42.052   9.162
   97POPC   C1A 6687   0.444  42.589   8.718
   97POPC   D2A 6688   0.236  42.524   8.333
   97POPC   C3A 6689   0.433  42.546   7.914
   97POPC   C4A 6690   0.382  42.400   7.469
   97POPC   C1B 6691   0.284  42.099   8.723
   97POPC   C2B 6692   0.176  42.021   8.296
   97POPC   C3B 6693   0.338  42.058   7.880
   97POPC   C4B 6694   0.376  41.882   7.473
   98POPC   NC3 6695  39.117  37.149   9.487
   98POPC   PO4 6696  39.656  36.811   9.642
   98POPC   GL1 6697  39.358  36.810   9.205
   98POPC   GL2 6698  39.228  37.102   9.005
   98POPC   C1A 6699  39.372  36.744   8.709
   98POPC   D2A 6700  39.337  37.099   8.462
   98POPC   C3A 6701  39.336  37.066   8.009
   98POPC   C4A 6702  39.309  36.648   7.803
   98POPC   C1B 6703  38.947  37.313   8.736
   98POPC   C2B 6704  39.031  37.451   8.288
   98POPC   C3B 6705  38.869  37.303   7.916
   98POPC   C4B 6706  38.959  37.290   7.492
   99POPC   NC3 6707  28.510  30.374   9.515
   99POPC   PO4 6708  27.961  30.802   9.602
   99POPC   GL1 6709  28.285  30.693   9.177
   99POPC   GL2 6710  28.495  31.027   9.007
   99POPC   C1A 6711  28.428  30.607   8.753
   99POPC   D2A 6712  28.338  30.790   8.337
   99POPC   C3A 6713  28.443  30.523   8.006
   99POPC   C4A 6714  28.488  30.345   7.643
   99POPC   C1B 6715  28.751  30.992   8.659
   99POPC   C2B 6716  28.832  30.791   8.247
   99POPC   C3B 6717  28.623  30.965   7.866
   99POPC   C4B 6718  28.723  31.169   7.462
  100POPC   NC3 6719   3.394  22.122   9.451
  100POPC   PO4 6720   4.081  22.083   9.490
  100POPC   GL1 6721   3.784  21.891   9.142
  100POPC   GL2 6722   3.393  21.874   9.021
  100POPC   C1A 6723   3.745  21.822   8.680
  100POPC   D2A 6724   3.332  21.837   8.424
  100POPC   C3A 6725   3.423  21.902   7.990
  100POPC   C4A 6726   3.796  22.116   7.942
  100POPC   C1B 6727   3.465  22.241   8.738
  100POPC   C2B 6728   3.458  22.331   8.275
  100POPC   C3B 6729   3.333  22.410   7.812
  100POPC   C4B 6730   3.296  22.482   7.293
  101POPC   NC3 6731  44.626  22.588   9.541
  101POPC   PO4 6732  44.316  23.237   9.347
  101POPC   GL1 6733  44.488  22.861   9.137
  101POPC   GL2 6734  44.289  22.530   9.134
  101POPC   C1A 6735  44.755  22.832   8.774
  101POPC   D2A 6736  44.647  23.075   8.405
  101POPC   C3A 6737  44.784  22.958   8.007
  101POPC   C4A 6738  44.962  23.155   7.683
  101POPC   C1B 6739  44.247  22.748   8.692
  101POPC   C2B 6740  44.204  22.831   8.228
  101POPC   C3B 6741  44.352  22.716   7.814
  101POPC   C4B 6742  44.548  22.974   7.466
  102POPC   NC3 6743  20.390  33.344   9.385
  102POPC   PO4 6744  20.927  33.703   9.674
  102POPC   GL1 6745  20.869  33.491   9.248
  102POPC   GL2 6746  20.736  33.800   9.112
  102POPC   C1A 6747  20.701  33.416   8.789
  102POPC   D2A 6748  20.444  33.570   8.429
  102POPC   C3A 6749  20.585  33.768   8.014
  102POPC   C4A 6750  20.348  33.697   7.603
  102POPC   C1B 6751  20.753  33.937   8.661
  102POPC   C2B 6752  20.997  34.069   8.291
  102POPC   C3B 6753  20.866  34.223   7.892
  102POPC   C4B 6754  20.471  34.180   7.684
  103POPC   NC3 6755  27.891  29.614   9.490
  103POPC   PO4 6756  27.309  30.009   9.525
  103POPC   GL1 6757  27.563  29.899   9.204
  103POPC   GL2 6758  27.865  30.051   9.168
  103POPC   C1A 6759  27.696  29.724   8.810
  103POPC   D2A 6760  27.545  29.957   8.469
  103POPC   C3A 6761  27.333  29.774   8.130
  103POPC   C4A 6762  27.306  29.915   7.714
  103POPC   C1B 6763  28.162  29.984   8.837
  103POPC   C2B 6764  28.037  29.865   8.438
  103POPC   C3B 6765  27.849  29.876   8.043
  103POPC   C4B 6766  28.114  29.988   7.715
  104POPC   NC3 6767  20.456  25.634   9.544
  104POPC   PO4 6768  20.831  25.087   9.637
  104POPC   GL1 6769  20.664  25.090   9.169
  104POPC   GL2 6770  20.539  25.398   9.087
  104POPC   C1A 6771  20.582  25.000   8.740
  104POPC   D2A 6772  20.457  25.219   8.372
  104POPC   C3A 6773  20.530  25.034   8.010
  104POPC   C4A 6774  20.849  25.251   7.795
  104POPC   C1B 6775  20.206  25.354   8.795
  104POPC   C2B 6776  19.968  25.340   8.426
  104POPC   C3B 6777  20.102  25.340   8.001
  104POPC   C4B 6778  20.359  25.364   7.651
  105POPC   NC3 6779  29.136  17.401   9.503
  105POPC   PO4 6780  29.732  17.781   9.388
  105POPC   GL1 6781  29.361  17.609   9.075
  105POPC   GL2 6782  29.194  17.230   9.028
  105POPC   C1A 6783  29.098  17.593   8.668
  105POPC   D2A 6784  28.816  17.575   8.295
  105POPC   C3A 6785  28.969  17.691   7.904
  105POPC   C4A 6786  29.380  17.656   7.778
  105POPC   C1B 6787  28.920  17.092   8.658
  105POPC   C2B 6788  28.882  17.097   8.182
  105POPC   C3B 6789  29.100  17.198   7.787
  105POPC   C4B 6790  29.465  17.149   7.464
  106POPC   NC3 6791  15.458   7.335   9.513
  106POPC   PO4 6792  14.954   7.617   9.804
  106POPC   GL1 6793  15.021   7.480   9.291
  106POPC   GL2 6794  15.187   7.217   9.113
  106POPC   C1A 6795  15.218   7.569   8.788
  106POPC   D2A 6796  15.375   7.465   8.393
  106POPC   C3A 6797  15.080   7.546   8.085
  106POPC   C4A 6798  14.893   7.397   7.734
  106POPC   C1B 6799  15.413   7.079   8.735
  106POPC   C2B 6800  15.473   6.882   8.350
  106POPC   C3B 6801  15.554   7.100   8.010
  106POPC   C4B 6802  15.378   7.198   7.670
  107POPC   NC3 6803  11.529  36.398   9.704
  107POPC   PO4 6804  12.116  36.101   9.551
  107POPC   GL1 6805  12.234  36.064   9.155
  107POPC   GL2 6806  12.209  36.383   9.118
  107POPC   C1A 6807  12.152  35.972   8.734
  107POPC   D2A 6808  12.156  36.169   8.338
  107POPC   C3A 6809  12.004  35.943   7.995
  107POPC   C4A 6810  11.792  36.042   7.599
  107POPC   C1B 6811  12.130  36.497   8.731
  107POPC   C2B 6812  12.258  36.715   8.377
  107POPC   C3B 6813  12.394  36.595   7.969
  107POPC   C4B 6814  12.265  36.292   7.656
  108POPC   NC3 6815   6.186   4.132   9.398
  108POPC   PO4 6816   5.552   4.307   9.385
  108POPC   GL1 6817   5.622   4.484   9.011
  108POPC   GL2 6818   5.550   4.171   8.842
  108POPC   C1A 6819   5.962   4.427   8.699
  108POPC   D2A 6820   6.214   4.191   8.378
  108POPC   C3A 6821   6.244   4.399   7.977
  108POPC   C4A 6822   6.041   4.659   7.722
  108POPC   C1B 6823   5.489   4.504   8.525
  108POPC   C2B 6824   5.567   4.588   8.120
  108POPC   C3B 6825   5.774   4.248   7.930
  108POPC   C4B 6826   5.905   3.993   7.577
  109POPC   NC3 6827  28.020  27.155   9.418
  109POPC   PO4 6828  27.414  26.758   9.584
  109POPC   GL1 6829  27.539  26.615   9.192
  109POPC   GL2 6830  27.912  26.685   9.126
  109POPC   C1A 6831  27.415  26.519   8.764
  109POPC   D2A 6832  27.596  26.614   8.337
  109POPC   C3A 6833  27.458  26.554   7.889
  109POPC   C4A 6834  27.733  26.668   7.513
  109POPC   C1B 6835  27.718  26.952   8.835
  109POPC   C2B 6836  27.616  27.163   8.449
  109POPC   C3B 6837  27.642  27.035   8.023
  109POPC   C4B 6838  27.932  27.112   7.710
  110POPC   NC3 6839   2.013  32.781   9.514
  110POPC   PO4 6840   2.205  33.425   9.537
  110POPC   GL1 6841   2.109  33.179   9.152
  110POPC   GL2 6842   2.198  32.816   9.040
  110POPC   C1A 6843   1.949  33.173   8.713
  110POPC   D2A 6844   2.177  33.287   8.331
  110POPC   C3A 6845   2.011  33.220   7.922
  110POPC   C4A 6846   2.001  33.504   7.567
  110POPC   C1B 6847   2.341  32.873   8.599
  110POPC   C2B 6848   2.156  32.766   8.205
  110POPC   C3B 6849   1.871  32.700   7.879
  110POPC   C4B 6850   1.902  32.585   7.465
  111POPC   NC3 6851  15.742   4.936   9.490
  111POPC   PO4 6852  16.389   4.887   9.597
  111POPC   GL1 6853  16.182   5.083   9.234
  111POPC   GL2 6854  16.015   5.391   9.294
  111POPC   C1A 6855  15.949   5.161   8.833
  111POPC   D2A 6856  16.011   4.944   8.464
  111POPC   C3A 6857  15.817   5.007   8.083
  111POPC   C4A 6858  15.963   4.853   7.707
  111POPC   C1B 6859  16.319   5.504   8.950
  111POPC   C2B 6860  16.317   5.434   8.536
  111POPC   C3B 6861  16.026   5.439   8.234
  111POPC   C4B 6862  16.068   5.336   7.813
  112POPC   NC3 6863  16.387  21.967   9.519
  112POPC   PO4 6864  16.940  22.096   9.797
  112POPC   GL1 6865  16.879  21.910   9.317
  112POPC   GL2 6866  16.675  22.152   9.140
  112POPC   C1A 6867  16.954  21.929   8.791
  112POPC   D2A 6868  16.957  22.337   8.513
  112POPC   C3A 6869  16.896  22.348   8.061
  112POPC   C4A 6870  16.979  21.953   7.875
  112POPC   C1B 6871  16.493  22.121   8.722
  112POPC   C2B 6872  16.575  21.955   8.293
  112POPC   C3B 6873  16.465  22.089   7.862
  112POPC   C4B 6874  16.280  21.901   7.502
  113POPC   NC3 6875  42.212   9.611   9.719
  113POPC   PO4 6876  42.492   9.293   9.261
  113POPC   GL1 6877  42.445   9.738   9.216
  113POPC   GL2 6878  42.111   9.847   9.156
  113POPC   C1A 6879  42.556   9.827   8.796
  113POPC   D2A 6880  42.417   9.701   8.372
  113POPC   C3A 6881  42.446   9.939   7.959
  113POPC   C4A 6882  42.394   9.594   7.649
  113POPC   C1B 6883  42.038   9.924   8.692
  113POPC   C2B 6884  42.070  10.058   8.257
  113POPC   C3B 6885  41.957   9.921   7.797
  113POPC   C4B 6886  41.973   9.718   7.371
  114POPC   NC3 6887   5.171  35.208   9.625
  114POPC   PO4 6888   4.712  35.640   9.640
  114POPC   GL1 6889   4.852  35.439   9.219
  114POPC   GL2 6890   5.078  35.125   9.137
  114POPC   C1A 6891   4.912  35.496   8.763
  114POPC   D2A 6892   4.707  35.440   8.360
  114POPC   C3A 6893   4.795  35.505   7.928
  114POPC   C4A 6894   4.932  35.421   7.496
  114POPC   C1B 6895   5.387  35.259   8.843
  114POPC   C2B 6896   5.209  35.247   8.433
  114POPC   C3B 6897   5.148  35.143   8.017
  114POPC   C4B 6898   5.202  34.922   7.638
  115POPC   NC3 6899  16.498  18.671   9.647
  115POPC   PO4 6900  16.895  19.181   9.466
  115POPC   GL1 6901  16.792  18.959   9.132
  115POPC   GL2 6902  16.447  18.961   9.209
  115POPC   C1A 6903  16.765  19.051   8.688
  115POPC   D2A 6904  16.954  18.976   8.297
  115POPC   C3A 6905  16.782  19.217   7.947
  115POPC   C4A 6906  16.635  19.176   7.534
  115POPC   C1B 6907  16.344  18.790   8.853
  115POPC   C2B 6908  16.282  18.950   8.479
  115POPC   C3B 6909  16.422  18.834   8.097
  115POPC   C4B 6910  16.302  18.574   7.728
  116POPC   NC3 6911  35.278  44.768   9.552
  116POPC   PO4 6912  35.785  44.381   9.317
  116POPC   GL1 6913  35.493  44.659   9.099
  116POPC   GL2 6914  35.633   0.006   9.072
  116POPC   C1A 6915  35.196  44.588   8.735
  116POPC   D2A 6916  35.068  44.516   8.308
  116POPC   C3A 6917  35.417  44.339   8.084
  116POPC   C4A 6918  35.663  44.521   7.797
  116POPC   C1B 6919  35.238   0.074   8.879
  116POPC   C2B 6920  35.142   0.038   8.442
  116POPC   C3B 6921  35.289   0.040   8.015
  116POPC   C4B 6922  35.193  44.665   7.753
  117POPC   NC3 6923  43.984  30.465   9.391
  117POPC   PO4 6924  44.029  31.062   9.605
  117POPC   GL1 6925  43.889  30.917   9.153
  117POPC   GL2 6926  44.106  30.613   8.931
  117POPC   C1A 6927  43.720  30.877   8.742
  117POPC   D2A 6928  43.919  30.667   8.418
  117POPC   C3A 6929  43.701  30.807   8.101
  117POPC   C4A 6930  43.833  30.889   7.729
  117POPC   C1B 6931  43.720  30.366   8.797
  117POPC   C2B 6932  43.549  30.280   8.392
  117POPC   C3B 6933  43.640  30.321   7.957
  117POPC   C4B 6934  43.488  30.193   7.565
  118POPC   NC3 6935  33.268  11.453   9.478
  118POPC   PO4 6936  32.645  11.199   9.581
  118POPC   GL1 6937  32.894  11.180   9.159
  118POPC   GL2 6938  33.098  11.454   9.015
  118POPC   C1A 6939  32.728  11.294   8.735
  118POPC   D2A 6940  32.590  11.411   8.331
  118POPC   C3A 6941  32.864  11.162   8.076
  118POPC   C4A 6942  32.949  11.161   7.641
  118POPC   C1B 6943  33.235  11.210   8.704
  118POPC   C2B 6944  33.404  11.219   8.323
  118POPC   C3B 6945  33.329  11.355   7.932
  118POPC   C4B 6946  33.363  11.576   7.610
  119POPC   NC3 6947  38.651   5.761   9.530
  119POPC   PO4 6948  38.096   6.128   9.434
  119POPC   GL1 6949  38.198   5.792   9.137
  119POPC   GL2 6950  38.568   5.738   9.035
  119POPC   C1A 6951  38.102   5.919   8.713
  119POPC   D2A 6952  38.316   5.905   8.311
  119POPC   C3A 6953  38.195   6.041   7.918
  119POPC   C4A 6954  38.596   6.242   7.795
  119POPC   C1B 6955  38.869   5.521   8.767
  119POPC   C2B 6956  38.744   5.566   8.340
  119POPC   C3B 6957  38.727   5.782   7.981
  119POPC   C4B 6958  38.943   5.583   7.684
  120POPC   NC3 6959  21.817  38.011   9.394
  120POPC   PO4 6960  22.240  38.414   9.760
  120POPC   GL1 6961  22.278  38.364   9.298
  120POPC   GL2 6962  22.174  38.680   9.205
  120POPC   C1A 6963  22.233  38.341   8.809
  120POPC   D2A 6964  22.284  38.584   8.409
  120POPC   C3A 6965  22.290  38.355   8.003
  120POPC   C4A 6966  22.463  38.373   7.569
  120POPC   C1B 6967  21.957  38.767   8.798
  120POPC   C2B 6968  21.831  38.881   8.397
  120POPC   C3B 6969  22.058  38.941   8.053
  120POPC   C4B 6970  22.188  38.767   7.693
  121POPC   NC3 6971  28.912   5.500   9.628
  121POPC   PO4 6972  28.285   5.949   9.492
  121POPC   GL1 6973  28.224   5.624   9.222
  121POPC   GL2 6974  28.067   5.861   9.045
  121POPC   C1A 6975  28.279   5.428   8.816
  121POPC   D2A 6976  28.422   5.542   8.410
  121POPC   C3A 6977  28.265   5.616   7.994
  121POPC   C4A 6978  28.559   5.805   7.686
  121POPC   C1B 6979  28.313   5.950   8.710
  121POPC   C2B 6980  28.139   5.981   8.334
  121POPC   C3B 6981  28.232   6.127   7.943
  121POPC   C4B 6982  28.081   5.946   7.589
  122POPC   NC3 6983  41.146  26.707   9.737
  122POPC   PO4 6984  41.801  26.579   9.566
  122POPC   GL1 6985  41.545  26.727   9.205
  122POPC   GL2 6986  41.253  26.970   9.215
  122POPC   C1A 6987  41.583  26.768   8.747
  122POPC   D2A 6988  41.767  26.801   8.340
  122POPC   C3A 6989  41.542  26.630   8.001
  122POPC   C4A 6990  41.770  26.675   7.641
  122POPC   C1B 6991  41.121  26.993   8.774
  122POPC   C2B 6992  41.291  26.988   8.353
  122POPC   C3B 6993  41.174  27.074   7.933
  122POPC   C4B 6994  41.303  26.880   7.556
  123POPC   NC3 6995  33.381  34.500   9.619
  123POPC   PO4 6996  32.886  34.886   9.609
  123POPC   GL1 6997  33.094  34.664   9.222
  123POPC   GL2 6998  33.117  34.330   9.178
  123POPC   C1A 6999  33.030  34.792   8.780
  123POPC   D2A 7000  33.249  34.878   8.393
  123POPC   C3A 7001  33.045  34.751   8.006
  123POPC   C4A 7002  32.723  34.748   7.737
  123POPC   C1B 7003  33.105  34.227   8.766
  123POPC   C2B 7004  33.040  34.379   8.370
  123POPC   C3B 7005  33.242  34.224   8.002
  123POPC   C4B 7006  32.951  34.304   7.724
  124POPC   NC3 7007  34.204   1.917   9.387
  124POPC   PO4 7008  33.558   2.161   9.526
  124POPC   GL1 7009  33.729   1.896   9.218
  124POPC   GL2 7010  33.888   2.180   9.075
  124POPC   C1A 7011  33.915   1.750   8.817
  124POPC   D2A 7012  33.763   1.815   8.401
  124POPC   C3A 7013  34.055   1.866   8.110
  124POPC   C4A 7014  34.080   1.512   7.847
  124POPC   C1B 7015  33.942   2.235   8.628
  124POPC   C2B 7016  33.635   2.283   8.258
  124POPC   C3B 7017  33.669   2.097   7.847
  124POPC   C4B 7018  34.043   2.010   7.597
  125POPC   NC3 7019  17.209  26.608   9.520
  125POPC   PO4 7020  16.844  27.123   9.622
  125POPC   GL1 7021  16.763  26.867   9.225
  125POPC   GL2 7022  16.854  26.497   9.169
  125POPC   C1A 7023  16.613  26.764   8.801
  125POPC   D2A 7024  16.888  26.851   8.454
  125POPC   C3A 7025  16.716  26.930   8.081
  125POPC   C4A 7026  16.417  26.761   7.822
  125POPC   C1B 7027  16.988  26.417   8.733
  125POPC   C2B 7028  16.872  26.357   8.283
  125POPC   C3B 7029  16.962  26.528   7.839
  125POPC   C4B 7030  17.144  26.636   7.390
  126POPC   NC3 7031  43.482   2.707   9.436
  126POPC   PO4 7032  42.810   2.589   9.621
  126POPC   GL1 7033  43.010   2.793   9.226
  126POPC   GL2 7034  43.021   3.162   9.218
  126POPC   C1A 7035  43.261   2.682   8.818
  126POPC   D2A 7036  43.096   2.436   8.481
  126POPC   C3A 7037  43.246   2.491   8.077
  126POPC   C4A 7038  43.221   2.806   7.745
  126POPC   C1B 7039  43.082   3.159   8.802
  126POPC   C2B 7040  43.360   3.104   8.488
  126POPC   C3B 7041  43.110   2.994   8.188
  126POPC   C4B 7042  42.889   3.173   7.804
  127POPC   NC3 7043  39.434   6.381   9.589
  127POPC   PO4 7044  39.137   6.984   9.643
  127POPC   GL1 7045  39.127   6.684   9.306
  127POPC   GL2 7046  39.455   6.714   9.151
  127POPC   C1A 7047  39.092   6.689   8.827
  127POPC   D2A 7048  39.169   6.426   8.487
  127POPC   C3A 7049  39.157   6.649   8.119
  127POPC   C4A 7050  38.989   6.565   7.742
  127POPC   C1B 7051  39.613   6.489   8.765
  127POPC   C2B 7052  39.632   6.394   8.294
  127POPC   C3B 7053  39.484   6.407   7.836
  127POPC   C4B 7054  39.358   6.421   7.385
  128POPC   NC3 7055  42.479   6.916   9.613
  128POPC   PO4 7056  41.919   7.299   9.532
  128POPC   GL1 7057  42.207   7.326   9.192
  128POPC   GL2 7058  42.025   7.624   9.091
  128POPC   C1A 7059  42.400   7.231   8.776
  128POPC   D2A 7060  42.632   7.282   8.370
  128POPC   C3A 7061  42.355   7.312   7.993
  128POPC   C4A 7062  42.395   6.987   7.727
  128POPC   C1B 7063  42.456   7.703   8.942
  128POPC   C2B 7064  42.560   7.759   8.522
  128POPC   C3B 7065  42.487   7.802   8.083
  128POPC   C4B 7066  42.144   7.764   7.755
  129POPC   NC3 7067  36.390  20.675   9.610
  129POPC   PO4 7068  35.714  20.681   9.502
  129POPC   GL1 7069  36.015  20.810   9.149
  129POPC   GL2 7070  36.404  20.915   9.172
  129POPC   C1A 7071  36.072  20.716   8.681
  129POPC   D2A 7072  35.979  20.502   8.267
  129POPC   C3A 7073  35.972  20.703   7.925
  129POPC   C4A 7074  36.333  20.534   7.760
  129POPC   C1B 7075  36.569  20.882   8.774
  129POPC   C2B 7076  36.511  20.699   8.367
  129POPC   C3B 7077  36.404  20.950   8.037
  129POPC   C4B 7078  36.444  21.005   7.625
  130POPC   NC3 7079  22.558  29.605   9.725
  130POPC   PO4 7080  22.196  30.107   9.484
  130POPC   GL1 7081  22.258  29.944   9.085
  130POPC   GL2 7082  22.276  29.606   9.070
  130POPC   C1A 7083  22.321  29.946   8.638
  130POPC   D2A 7084  22.531  30.019   8.276
  130POPC   C3A 7085  22.312  29.926   7.914
  130POPC   C4A 7086  22.139  30.246   7.711
  130POPC   C1B 7087  21.929  29.659   8.742
  130POPC   C2B 7088  22.047  29.657   8.292
  130POPC   C3B 7089  21.903  29.595   7.870
  130POPC   C4B 7090  21.690  29.542   7.454
  131POPC   NC3 7091  18.141  18.538   9.551
  131POPC   PO4 7092  18.160  17.900   9.614
  131POPC   GL1 7093  18.224  18.114   9.250
  131POPC   GL2 7094  18.511  18.356   9.212
  131POPC   C1A 7095  18.241  18.122   8.824
  131POPC   D2A 7096  18.058  18.270   8.462
  131POPC   C3A 7097  18.238  18.108   8.109
  131POPC   C4A 7098  18.120  18.249   7.716
  131POPC   C1B 7099  18.428  18.583   8.811
  131POPC   C2B 7100  18.538  18.422   8.421
  131POPC   C3B 7101  18.707  18.370   8.045
  131POPC   C4B 7102  18.558  18.560   7.677
  132POPC   NC3 7103  25.317  11.072   9.685
  132POPC   PO4 7104  25.099  10.532   9.266
  132POPC   GL1 7105  25.365  10.434   8.918
  132POPC   GL2 7106  25.440  10.754   8.744
  132POPC   C1A 7107  25.217  10.394   8.470
  132POPC   D2A 7108  25.020  10.741   8.237
  132POPC   C3A 7109  24.898  10.684   7.804
  132POPC   C4A 7110  24.920  10.310   7.507
  132POPC   C1B 7111  25.754  10.985   8.558
  132POPC   C2B 7112  25.907  10.750   8.242
  132POPC   C3B 7113  25.658  10.379   8.167
  132POPC   C4B 7114  25.253  10.316   7.945
  133POPC   NC3 7115  30.901  14.058   9.517
  133POPC   PO4 7116  30.411  13.522   9.450
  133POPC   GL1 7117  30.604  13.578   9.067
  133POPC   GL2 7118  30.573  13.903   9.108
  133POPC   C1A 7119  30.488  13.672   8.646
  133POPC   D2A 7120  30.455  13.910   8.287
  133POPC   C3A 7121  30.606  13.728   7.927
  133POPC   C4A 7122  30.405  13.556   7.594
  133POPC   C1B 7123  30.950  13.832   8.832
  133POPC   C2B 7124  30.970  13.902   8.414
  133POPC   C3B 7125  31.048  14.097   8.042
  133POPC   C4B 7126  31.010  13.919   7.675
  134POPC   NC3 7127  42.219  17.173   9.285
  134POPC   PO4 7128  42.436  17.833   9.419
  134POPC   GL1 7129  42.429  17.600   9.050
  134POPC   GL2 7130  42.082  17.553   8.984
  134POPC   C1A 7131  42.477  17.327   8.676
  134POPC   D2A 7132  42.614  17.174   8.261
  134POPC   C3A 7133  42.607  17.494   7.940
  134POPC   C4A 7134  42.435  17.675   7.591
  134POPC   C1B 7135  41.969  17.181   8.680
  134POPC   C2B 7136  41.821  17.203   8.245
  134POPC   C3B 7137  42.050  17.479   7.936
  134POPC   C4B 7138  42.032  17.932   7.836
  135POPC   NC3 7139   2.163  26.228   9.678
  135POPC   PO4 7140   1.713  25.756   9.664
  135POPC   GL1 7141   1.796  25.983   9.283
  135POPC   GL2 7142   2.111  26.086   9.195
  135POPC   C1A 7143   1.738  26.055   8.847
  135POPC   D2A 7144   1.964  25.974   8.475
  135POPC   C3A 7145   1.844  26.203   8.098
  135POPC   C4A 7146   1.662  26.031   7.733
  135POPC   C1B 7147   2.299  26.184   8.807
  135POPC   C2B 7148   2.281  26.361   8.381
  135POPC   C3B 7149   2.344  26.194   7.972
  135POPC   C4B 7150   2.215  26.006   7.602
  136POPC   NC3 7151   8.579  38.075   9.343
  136POPC   PO4 7152   8.336  37.522   9.696
  136POPC   GL1 7153   8.180  37.584   9.225
  136POPC   GL2 7154   8.326  37.813   8.995
  136POPC   C1A 7155   7.951  37.563   8.801
  136POPC   D2A 7156   8.199  37.555   8.391
  136POPC   C3A 7157   8.321  37.591   7.929
  136POPC   C4A 7158   8.149  37.660   7.518
  136POPC   C1B 7159   8.300  38.043   8.642
  136POPC   C2B 7160   8.308  38.021   8.228
  136POPC   C3B 7161   8.070  38.036   7.904
  136POPC   C4B 7162   8.069  38.267   7.563
  137POPC   NC3 7163  12.208  41.981   9.509
  137POPC   PO4 7164  11.794  41.457   9.474
  137POPC   GL1 7165  11.953  41.576   9.113
  137POPC   GL2 7166  12.276  41.540   9.212
  137POPC   C1A 7167  12.127  41.480   8.711
  137POPC   D2A 7168  12.284  41.289   8.378
  137POPC   C3A 7169  12.156  41.440   7.976
  137POPC   C4A 7170  12.021  41.470   7.563
  137POPC   C1B 7171  12.391  41.866   8.887
  137POPC   C2B 7172  12.527  41.763   8.473
  137POPC   C3B 7173  12.569  41.858   8.052
  137POPC   C4B 7174  12.428  41.745   7.634
  138POPC   NC3 7175   0.620  15.822   9.491
  138POPC   PO4 7176   0.109  16.315   9.451
  138POPC   GL1 7177   0.362  16.103   9.136
  138POPC   GL2 7178   0.395  15.729   9.046
  138POPC   C1A 7179   0.596  16.105   8.758
  138POPC   D2A 7180   0.426  16.016   8.365
  138POPC   C3A 7181   0.642  16.300   8.052
  138POPC   C4A 7182   0.576  16.296   7.626
  138POPC   C1B 7183   0.735  15.613   8.738
  138POPC   C2B 7184   0.760  15.631   8.294
  138POPC   C3B 7185   0.568  15.829   7.913
  138POPC   C4B 7186   0.870  15.867   7.616
  139POPC   NC3 7187   8.067   0.227   9.423
  139POPC   PO4 7188   8.147  44.572   9.409
  139POPC   GL1 7189   8.436  44.708   9.130
  139POPC   GL2 7190   8.499  44.424   8.934
  139POPC   C1A 7191   8.277  44.929   8.780
  139POPC   D2A 7192   7.915  44.885   8.492
  139POPC   C3A 7193   8.100  44.754   8.104
  139POPC   C4A 7194   7.926  44.774   7.709
  139POPC   C1B 7195   8.045  44.455   8.759
  139POPC   C2B 7196   7.823  44.375   8.352
  139POPC   C3B 7197   7.949  44.309   7.905
  139POPC   C4B 7198   8.382  44.348   7.716
  140POPC   NC3 7199  31.106  32.364   9.569
  140POPC   PO4 7200  31.371  33.006   9.432
  140POPC   GL1 7201  31.362  33.131   9.049
  140POPC   GL2 7202  31.730  33.039   9.052
  140POPC   C1A 7203  31.464  33.299   8.662
  140POPC   D2A 7204  31.646  33.277   8.266
  140POPC   C3A 7205  31.330  33.190   7.931
  140POPC   C4A 7206  31.677  33.196   7.627
  140POPC   C1B 7207  31.555  32.760   8.765
  140POPC   C2B 7208  31.404  32.844   8.365
  140POPC   C3B 7209  31.643  32.806   8.019
  140POPC   C4B 7210  31.524  32.709   7.663
  141POPC   NC3 7211  40.297  17.836   9.729
  141POPC   PO4 7212  40.925  17.528   9.516
  141POPC   GL1 7213  40.851  17.439   9.097
  141POPC   GL2 7214  40.643  17.186   8.949
  141POPC   C1A 7215  40.894  17.696   8.757
  141POPC   D2A 7216  41.062  17.554   8.382
  141POPC   C3A 7217  40.966  17.603   7.996
  141POPC   C4A 7218  40.907  17.855   7.655
  141POPC   C1B 7219  40.616  17.316   8.540
  141POPC   C2B 7220  40.517  17.703   8.305
  141POPC   C3B 7221  40.469  17.678   7.869
  141POPC   C4B 7222  40.697  17.302   7.690
  142POPC   NC3 7223  37.517   3.892   9.623
  142POPC   PO4 7224  37.897   4.438   9.765
  142POPC   GL1 7225  37.789   4.206   9.313
  142POPC   GL2 7226  37.455   4.236   9.202
  142POPC   C1A 7227  37.858   4.207   8.853
  142POPC   D2A 7228  38.004   4.397   8.467
  142POPC   C3A 7229  37.887   4.170   8.101
  142POPC   C4A 7230  37.682   4.386   7.754
  142POPC   C1B 7231  37.352   4.339   8.766
  142POPC   C2B 7232  37.423   4.301   8.303
  142POPC   C3B 7233  37.218   4.455   7.904
  142POPC   C4B 7234  37.331   4.491   7.395
  143POPC   NC3 7235   8.819   0.064   9.669
  143POPC   PO4 7236   9.120  44.432   9.622
  143POPC   GL1 7237   8.959  44.466   9.202
  143POPC   GL2 7238   8.941  44.806   9.238
  143POPC   C1A 7239   8.963  44.627   8.756
  143POPC   D2A 7240   9.032  44.814   8.344
  143POPC   C3A 7241   8.935  44.653   7.929
  143POPC   C4A 7242   9.065  44.306   7.692
  143POPC   C1B 7243   8.764   0.076   8.947
  143POPC   C2B 7244   8.684   0.138   8.524
  143POPC   C3B 7245   8.674   0.083   8.088
  143POPC   C4B 7246   8.498  44.844   7.754
  144POPC   NC3 7247  44.304  14.585   9.645
  144POPC   PO4 7248  44.993  14.730   9.502
  144POPC   GL1 7249  44.614  14.461   9.265
  144POPC   GL2 7250  44.268  14.643   9.147
  144POPC   C1A 7251  44.422  14.240   8.870
  144POPC   D2A 7252  44.623  14.146   8.459
  144POPC   C3A 7253  44.551  14.360   8.060
  144POPC   C4A 7254  44.703  14.258   7.657
  144POPC   C1B 7255  44.238  14.786   8.733
  144POPC   C2B 7256  44.232  14.690   8.295
  144POPC   C3B 7257  44.214  14.700   7.845
  144POPC   C4B 7258  44.293  14.503   7.408
  145POPC   NC3 7259  39.547  19.583   9.325
  145POPC   PO4 7260  39.025  19.994   9.498
  145POPC   GL1 7261  39.135  19.849   9.146
  145POPC   GL2 7262  39.056  19.471   9.174
  145POPC   C1A 7263  39.361  20.006   8.801
  145POPC   D2A 7264  39.416  20.216   8.406
  145POPC   C3A 7265  39.266  20.064   8.014
  145POPC   C4A 7266  39.044  19.850   7.728
  145POPC   C1B 7267  39.079  19.570   8.740
  145POPC   C2B 7268  39.336  19.647   8.428
  145POPC   C3B 7269  39.278  19.540   8.051
  145POPC   C4B 7270  39.542  19.610   7.708
  146POPC   NC3 7271  18.963  28.054   9.520
  146POPC   PO4 7272  19.398  28.544   9.598
  146POPC   GL1 7273  19.230  28.387   9.204
  146POPC   GL2 7274  18.902  28.578   9.218
  146POPC   C1A 7275  19.257  28.199   8.767
  146POPC   D2A 7276  19.280  27.980   8.344
  146POPC   C3A 7277  19.293  28.183   7.927
  146POPC   C4A 7278  18.975  28.266   7.618
  146POPC   C1B 7279  19.047  28.669   8.784
  146POPC   C2B 7280  18.997  28.446   8.361
  146POPC   C3B 7281  19.060  28.653   7.949
  146POPC   C4B 7282  18.812  28.734   7.574
  147POPC   NC3 7283  41.067  15.039   9.524
  147POPC   PO4 7284  40.450  15.154   9.363
  147POPC   GL1 7285  40.695  15.323   9.018
  147POPC   GL2 7286  40.989  15.129   9.040
  147POPC   C1A 7287  40.742  15.183   8.573
  147POPC   D2A 7288  40.421  15.037   8.245
  147POPC   C3A 7289  40.616  15.073   7.861
  147POPC   C4A 7290  40.890  15.386   7.750
  147POPC   C1B 7291  41.248  14.904   8.773
  147POPC   C2B 7292  41.389  14.851   8.364
  147POPC   C3B 7293  41.100  14.944   8.045
  147POPC   C4B 7294  41.102  14.949   7.625
  148POPC   NC3 7295  17.488  43.595   9.552
  148POPC   PO4 7296  17.984  44.082   9.490
  148POPC   GL1 7297  17.598  44.032   9.169
  148POPC   GL2 7298  17.529  43.686   9.066
  148POPC   C1A 7299  17.391  43.988   8.718
  148POPC   D2A 7300  17.545  43.895   8.309
  148POPC   C3A 7301  17.334  43.973   7.913
  148POPC   C4A 7302  17.658  43.902   7.586
  148POPC   C1B 7303  17.293  43.485   8.713
  148POPC   C2B 7304  17.472  43.360   8.347
  148POPC   C3B 7305  17.524  43.493   7.936
  148POPC   C4B 7306  17.283  43.252   7.714
  149POPC   NC3 7307   2.598  22.477   9.484
  149POPC   PO4 7308   2.955  21.944   9.318
  149POPC   GL1 7309   2.538  22.019   9.167
  149POPC   GL2 7310   2.664  22.290   9.024
  149POPC   C1A 7311   2.495  21.935   8.727
  149POPC   D2A 7312   2.826  21.734   8.493
  149POPC   C3A 7313   2.917  21.951   8.122
  149POPC   C4A 7314   2.677  21.925   7.739
  149POPC   C1B 7315   2.939  22.219   8.672
  149POPC   C2B 7316   2.953  22.444   8.289
  149POPC   C3B 7317   2.789  22.396   7.884
  149POPC   C4B 7318   2.932  22.651   7.587
  150POPC   NC3 7319  19.564  42.267   9.346
  150POPC   PO4 7320  20.036  42.682   9.290
  150POPC   GL1 7321  20.155  42.527   8.964
  150POPC   GL2 7322  20.207  42.202   9.049
  150POPC   C1A 7323  20.161  42.550   8.523
  150POPC   D2A 7324  19.948  42.682   8.180
  150POPC   C3A 7325  19.775  42.456   7.838
  150POPC   C4A 7326  19.540  42.387   7.456
  150POPC   C1B 7327  19.849  42.205   8.728
  150POPC   C2B 7328  19.963  42.067   8.318
  150POPC   C3B 7329  19.746  41.936   7.938
  150POPC   C4B 7330  19.934  42.047   7.539
  151POPC   NC3 7331  10.191  20.322   9.460
  151POPC   PO4 7332  10.820  20.008   9.446
  151POPC   GL1 7333  10.577  19.904   9.101
  151POPC   GL2 7334  10.253  19.843   9.201
  151POPC   C1A 7335  10.561  19.851   8.664
  151POPC   D2A 7336  10.697  19.543   8.376
  151POPC   C3A 7337  10.593  19.534   7.940
  151POPC   C4A 7338  10.537  19.763   7.543
  151POPC   C1B 7339  10.083  19.970   8.796
  151POPC   C2B 7340  10.176  20.050   8.361
  151POPC   C3B 7341  10.205  19.885   7.934
  151POPC   C4B 7342  10.124  19.489   7.704
  152POPC   NC3 7343  22.304  36.403   9.586
  152POPC   PO4 7344  21.807  36.723   9.433
  152POPC   GL1 7345  22.111  36.377   9.091
  152POPC   GL2 7346  22.470  36.259   9.130
  152POPC   C1A 7347  22.306  35.997   8.734
  152POPC   D2A 7348  22.575  35.853   8.349
  152POPC   C3A 7349  22.342  35.835   7.947
  152POPC   C4A 7350  21.920  35.992   7.938
  152POPC   C1B 7351  22.494  36.459   8.700
  152POPC   C2B 7352  22.339  36.315   8.282
  152POPC   C3B 7353  22.473  36.357   7.858
  152POPC   C4B 7354  22.438  36.519   7.425
  153POPC   NC3 7355  29.100   4.760   9.506
  153POPC   PO4 7356  29.417   5.370   9.572
  153POPC   GL1 7357  29.140   5.200   9.234
  153POPC   GL2 7358  28.815   5.355   9.151
  153POPC   C1A 7359  29.210   5.169   8.782
  153POPC   D2A 7360  29.390   5.306   8.368
  153POPC   C3A 7361  29.132   5.075   8.073
  153POPC   C4A 7362  29.033   4.902   7.684
  153POPC   C1B 7363  28.854   5.584   8.777
  153POPC   C2B 7364  28.909   5.444   8.365
  153POPC   C3B 7365  28.737   5.388   7.966
  153POPC   C4B 7366  28.802   5.385   7.533
  154POPC   NC3 7367  41.351  17.266   9.541
  154POPC   PO4 7368  41.556  17.903   9.748
  154POPC   GL1 7369  41.648  17.738   9.240
  154POPC   GL2 7370  41.355  17.539   9.127
  154POPC   C1A 7371  41.651  17.597   8.741
  154POPC   D2A 7372  41.512  17.793   8.352
  154POPC   C3A 7373  41.527  17.602   7.967
  154POPC   C4A 7374  41.415  17.762   7.582
  154POPC   C1B 7375  41.246  17.290   8.772
  154POPC   C2B 7376  41.285  17.117   8.299
  154POPC   C3B 7377  41.220  17.180   7.835
  154POPC   C4B 7378  41.443  17.100   7.456
  155POPC   NC3 7379  42.919   1.168   9.548
  155POPC   PO4 7380  43.488   1.505   9.444
  155POPC   GL1 7381  43.407   1.329   9.098
  155POPC   GL2 7382  43.080   1.354   9.110
  155POPC   C1A 7383  43.380   1.115   8.723
  155POPC   D2A 7384  43.094   0.960   8.411
  155POPC   C3A 7385  43.287   0.981   8.007
  155POPC   C4A 7386  43.056   1.248   7.755
  155POPC   C1B 7387  42.899   1.347   8.724
  155POPC   C2B 7388  42.705   1.350   8.319
  155POPC   C3B 7389  42.728   1.597   7.923
  155POPC   C4B 7390  42.696   1.496   7.458
  156POPC   NC3 7391  13.957  11.194  10.107
  156POPC   PO4 7392  13.593  11.293   9.504
  156POPC   GL1 7393  13.679  11.272   9.074
  156POPC   GL2 7394  13.912  11.086   9.008
  156POPC   C1A 7395  13.536  11.210   8.638
  156POPC   D2A 7396  13.685  11.271   8.202
  156POPC   C3A 7397  13.550  11.099   7.804
  156POPC   C4A 7398  13.457  11.309   7.406
  156POPC   C1B 7399  14.047  11.309   8.685
  156POPC   C2B 7400  14.163  11.122   8.318
  156POPC   C3B 7401  14.054  11.089   7.908
  156POPC   C4B 7402  14.248  11.262   7.594
  157POPC   NC3 7403  29.751  28.848   9.398
  157POPC   PO4 7404  29.184  29.271   9.556
  157POPC   GL1 7405  29.454  29.238   9.247
  157POPC   GL2 7406  29.331  28.975   9.125
  157POPC   C1A 7407  29.458  29.391   8.841
  157POPC   D2A 7408  29.089  29.357   8.547
  157POPC   C3A 7409  29.162  29.184   8.125
  157POPC   C4A 7410  29.416  29.287   7.754
  157POPC   C1B 7411  28.993  28.880   8.856
  157POPC   C2B 7412  28.978  28.792   8.455
  157POPC   C3B 7413  28.834  28.744   8.040
  157POPC   C4B 7414  28.994  28.934   7.717
  158POPC   NC3 7415  40.076  25.137   9.480
  158POPC   PO4 7416  40.077  25.803   9.342
  158POPC   GL1 7417  40.185  25.457   9.080
  158POPC   GL2 7418  39.856  25.319   9.048
  158POPC   C1A 7419  40.229  25.336   8.633
  158POPC   D2A 7420  39.853  25.242   8.383
  158POPC   C3A 7421  39.805  25.145   7.924
  158POPC   C4A 7422  39.995  25.326   7.516
  158POPC   C1B 7423  39.994  24.922   8.848
  158POPC   C2B 7424  40.116  24.815   8.447
  158POPC   C3B 7425  40.314  25.031   8.121
  158POPC   C4B 7426  40.216  24.911   7.728
  159POPC   NC3 7427   2.789   0.941   9.866
  159POPC   PO4 7428   2.495   0.443   9.471
  159POPC   GL1 7429   2.806   0.445   9.155
  159POPC   GL2 7430   2.888   0.776   9.073
  159POPC   C1A 7431   2.933   0.285   8.714
  159POPC   D2A 7432   2.883   0.162   8.269
  159POPC   C3A 7433   3.102   0.254   7.893
  159POPC   C4A 7434   2.889   0.429   7.542
  159POPC   C1B 7435   2.631   0.694   8.746
  159POPC   C2B 7436   2.742   0.767   8.351
  159POPC   C3B 7437   2.679   0.571   7.987
  159POPC   C4B 7438   2.448   0.736   7.653
  160POPC   NC3 7439   7.373  11.505   9.606
  160POPC   PO4 7440   7.158  10.858   9.437
  160POPC   GL1 7441   7.424  11.120   9.162
  160POPC   GL2 7442   7.629  11.452   9.158
  160POPC   C1A 7443   7.340  11.260   8.754
  160POPC   D2A 7444   7.114  11.085   8.414
  160POPC   C3A 7445   7.307  11.188   7.984
  160POPC   C4A 7446   7.387  11.300   7.537
  160POPC   C1B 7447   7.751  11.555   8.711
  160POPC   C2B 7448   7.713  11.440   8.246
  160POPC   C3B 7449   7.549  11.647   7.837
  160POPC   C4B 7450   7.725  11.615   7.344
  161POPC   NC3 7451  30.414  39.964   9.745
  161POPC   PO4 7452  30.944  39.719   9.395
  161POPC   GL1 7453  30.709  39.858   9.098
  161POPC   GL2 7454  30.628  40.178   9.141
  161POPC   C1A 7455  30.700  39.805   8.679
  161POPC   D2A 7456  31.017  39.796   8.351
  161POPC   C3A 7457  30.849  39.913   7.927
  161POPC   C4A 7458  30.478  39.869   7.642
  161POPC   C1B 7459  30.875  40.268   8.774
  161POPC   C2B 7460  30.690  40.190   8.359
  161POPC   C3B 7461  30.407  40.176   8.020
  161POPC   C4B 7462  30.409  40.369   7.594
  162POPC   NC3 7463  20.768  28.537   9.898
  162POPC   PO4 7464  20.320  28.219   9.387
  162POPC   GL1 7465  20.666  28.237   9.059
  162POPC   GL2 7466  20.916  28.494   9.100
  162POPC   C1A 7467  20.708  28.215   8.600
  162POPC   D2A 7468  20.734  28.484   8.257
  162POPC   C3A 7469  20.410  28.358   7.999
  162POPC   C4A 7470  20.337  28.311   7.564
  162POPC   C1B 7471  20.974  28.663   8.708
  162POPC   C2B 7472  21.150  28.810   8.348
  162POPC   C3B 7473  21.098  28.678   7.948
  162POPC   C4B 7474  20.810  28.477   7.675
  163POPC   NC3 7475  42.908  40.698   9.543
  163POPC   PO4 7476  43.638  40.885   9.545
  163POPC   GL1 7477  43.291  40.904   9.197
  163POPC   GL2 7478  43.045  40.639   9.077
  163POPC   C1A 7479  43.079  41.051   8.798
  163POPC   D2A 7480  43.263  40.955   8.431
  163POPC   C3A 7481  43.133  40.766   8.069
  163POPC   C4A 7482  43.418  40.610   7.786
  163POPC   C1B 7483  43.207  40.528   8.708
  163POPC   C2B 7484  43.186  40.320   8.338
  163POPC   C3B 7485  43.052  40.221   7.991
  163POPC   C4B 7486  42.926  40.467   7.686
  164POPC   NC3 7487   9.162  21.843   9.714
  164POPC   PO4 7488   8.680  22.193   9.876
  164POPC   GL1 7489   8.868  22.255   9.431
  164POPC   GL2 7490   8.911  21.955   9.279
  164POPC   C1A 7491   8.972  22.316   8.929
  164POPC   D2A 7492   9.173  22.205   8.482
  164POPC   C3A 7493   8.949  22.259   8.068
  164POPC   C4A 7494   8.888  22.478   7.662
  164POPC   C1B 7495   9.208  21.865   8.879
  164POPC   C2B 7496   9.248  21.695   8.445
  164POPC   C3B 7497   9.099  21.772   8.029
  164POPC   C4B 7498   9.096  21.990   7.640
  165POPC   NC3 7499   6.664   5.182   9.470
  165POPC   PO4 7500   7.151   4.710   9.405
  165POPC   GL1 7501   6.941   5.032   9.057
  165POPC   GL2 7502   6.838   5.407   9.062
  165POPC   C1A 7503   6.657   5.016   8.665
  165POPC   D2A 7504   6.457   5.059   8.245
  165POPC   C3A 7505   6.529   4.831   7.879
  165POPC   C4A 7506   6.857   4.880   7.583
  165POPC   C1B 7507   6.970   5.428   8.686
  165POPC   C2B 7508   6.795   5.433   8.318
  165POPC   C3B 7509   6.850   5.303   7.927
  165POPC   C4B 7510   6.543   5.291   7.647
  166POPC   NC3 7511   2.983  11.176   9.248
  166POPC   PO4 7512   2.328  11.345   9.491
  166POPC   GL1 7513   2.454  11.300   9.057
  166POPC   GL2 7514   2.773  11.477   8.898
  166POPC   C1A 7515   2.602  11.016   8.738
  166POPC   D2A 7516   2.721  11.244   8.383
  166POPC   C3A 7517   2.653  11.059   7.962
  166POPC   C4A 7518   2.527  11.087   7.524
  166POPC   C1B 7519   3.183  11.358   8.651
  166POPC   C2B 7520   3.284  11.537   8.271
  166POPC   C3B 7521   2.962  11.466   7.987
  166POPC   C4B 7522   2.924  11.442   7.571
  167POPC   NC3 7523  12.695  12.184   9.607
  167POPC   PO4 7524  13.052  11.654   9.323
  167POPC   GL1 7525  12.800  11.926   9.111
  167POPC   GL2 7526  12.964  12.237   9.174
  167POPC   C1A 7527  12.717  11.855   8.680
  167POPC   D2A 7528  12.925  11.967   8.315
  167POPC   C3A 7529  12.791  11.835   7.937
  167POPC   C4A 7530  12.607  11.515   7.759
  167POPC   C1B 7531  13.022  12.276   8.727
  167POPC   C2B 7532  12.921  12.482   8.345
  167POPC   C3B 7533  12.934  12.347   7.924
  167POPC   C4B 7534  12.715  12.217   7.581
  168POPC   NC3 7535  16.567  29.899   9.538
  168POPC   PO4 7536  17.133  29.730   9.649
  168POPC   GL1 7537  17.168  29.757   9.183
  168POPC   GL2 7538  16.947  30.049   9.120
  168POPC   C1A 7539  17.037  29.776   8.708
  168POPC   D2A 7540  17.103  30.024   8.346
  168POPC   C3A 7541  17.049  29.926   7.924
  168POPC   C4A 7542  16.873  30.012   7.528
  168POPC   C1B 7543  16.804  30.251   8.704
  168POPC   C2B 7544  16.741  30.365   8.245
  168POPC   C3B 7545  16.791  30.439   7.808
  168POPC   C4B 7546  16.472  30.655   7.551
  169POPC   NC3 7547  14.487   6.329   9.463
  169POPC   PO4 7548  14.289   7.018   9.580
  169POPC   GL1 7549  14.215   6.870   9.161
  169POPC   GL2 7550  14.504   6.651   9.064
  169POPC   C1A 7551  14.179   6.797   8.714
  169POPC   D2A 7552  14.156   6.524   8.382
  169POPC   C3A 7553  14.219   6.749   8.040
  169POPC   C4A 7554  14.348   6.546   7.689
  169POPC   C1B 7555  14.622   6.495   8.633
  169POPC   C2B 7556  14.684   6.725   8.253
  169POPC   C3B 7557  14.821   6.582   7.829
  169POPC   C4B 7558  14.724   6.525   7.334
  170POPC   NC3 7559  26.527  14.551   9.682
  170POPC   PO4 7560  27.148  14.407   9.508
  170POPC   GL1 7561  26.971  14.536   9.150
  170POPC   GL2 7562  26.726  14.277   9.178
  170POPC   C1A 7563  27.087  14.485   8.719
  170POPC   D2A 7564  26.857  14.299   8.362
  170POPC   C3A 7565  26.911  14.549   8.043
  170POPC   C4A 7566  26.845  14.699   7.686
  170POPC   C1B 7567  26.583  14.452   8.778
  170POPC   C2B 7568  26.411  14.572   8.401
  170POPC   C3B 7569  26.422  14.401   8.026
  170POPC   C4B 7570  26.439  14.428   7.624
  171POPC   NC3 7571  13.200   9.886   9.347
  171POPC   PO4 7572  13.665   9.461   9.373
  171POPC   GL1 7573  13.594   9.732   9.019
  171POPC   GL2 7574  13.882   9.574   8.884
  171POPC   C1A 7575  13.586   9.835   8.552
  171POPC   D2A 7576  13.681   9.507   8.235
  171POPC   C3A 7577  13.673   9.620   7.809
  171POPC   C4A 7578  13.637   9.886   7.428
  171POPC   C1B 7579  13.994  10.038   8.841
  171POPC   C2B 7580  13.951  10.274   8.475
  171POPC   C3B 7581  13.809  10.099   8.068
  171POPC   C4B 7582  14.071   9.939   7.726
  172POPC   NC3 7583   8.732   3.261   9.418
  172POPC   PO4 7584   8.069   3.530   9.441
  172POPC   GL1 7585   8.311   3.354   9.137
  172POPC   GL2 7586   8.508   3.667   9.152
  172POPC   C1A 7587   8.602   3.377   8.766
  172POPC   D2A 7588   8.547   3.604   8.385
  172POPC   C3A 7589   8.244   3.531   8.098
  172POPC   C4A 7590   8.205   3.304   7.707
  172POPC   C1B 7591   8.176   3.677   8.770
  172POPC   C2B 7592   7.812   3.747   8.489
  172POPC   C3B 7593   7.808   3.900   8.072
  172POPC   C4B 7594   7.969   3.741   7.706
  173POPC   NC3 7595   9.801  33.989   9.583
  173POPC   PO4 7596   9.504  33.324   9.570
  173POPC   GL1 7597   9.760  33.599   9.265
  173POPC   GL2 7598   9.489  33.762   9.180
  173POPC   C1A 7599   9.910  33.888   8.914
  173POPC   D2A 7600   9.743  33.984   8.495
  173POPC   C3A 7601   9.857  33.942   8.069
  173POPC   C4A 7602  10.037  33.992   7.679
  173POPC   C1B 7603   9.409  34.104   8.877
  173POPC   C2B 7604   9.291  34.225   8.450
  173POPC   C3B 7605   9.333  33.972   8.074
  173POPC   C4B 7606   9.506  33.879   7.661
  174POPC   NC3 7607  43.614  40.374   9.206
  174POPC   PO4 7608  44.186  40.705   9.395
  174POPC   GL1 7609  43.925  40.860   9.099
  174POPC   GL2 7610  43.802  41.169   9.161
  174POPC   C1A 7611  43.811  40.783   8.691
  174POPC   D2A 7612  43.620  40.579   8.386
  174POPC   C3A 7613  43.905  40.521   8.086
  174POPC   C4A 7614  43.906  40.362   7.692
  174POPC   C1B 7615  43.575  41.193   8.827
  174POPC   C2B 7616  43.683  41.235   8.408
  174POPC   C3B 7617  43.665  40.992   8.079
  174POPC   C4B 7618  43.796  40.922   7.700
  175POPC   NC3 7619   1.787  20.219   9.403
  175POPC   PO4 7620   2.241  19.755   9.323
  175POPC   GL1 7621   1.993  19.936   9.022
  175POPC   GL2 7622   1.624  19.890   9.057
  175POPC   C1A 7623   1.858  19.833   8.625
  175POPC   D2A 7624   1.890  20.073   8.294
  175POPC   C3A 7625   2.020  19.804   8.014
  175POPC   C4A 7626   1.844  19.733   7.647
  175POPC   C1B 7627   1.512  20.217   8.716
  175POPC   C2B 7628   1.418  20.269   8.256
  175POPC   C3B 7629   1.682  20.298   7.848
  175POPC   C4B 7630   1.834  20.163   7.404
  176POPC   NC3 7631   7.219  36.695   9.374
  176POPC   PO4 7632   7.799  36.933   9.747
  176POPC   GL1 7633   7.710  36.862   9.276
  176POPC   GL2 7634   7.480  37.144   9.300
  176POPC   C1A 7635   7.550  36.714   8.826
  176POPC   D2A 7636   7.359  36.941   8.464
  176POPC   C3A 7637   7.568  36.901   8.064
  176POPC   C4A 7638   7.344  37.038   7.700
  176POPC   C1B 7639   7.552  37.238   8.862
  176POPC   C2B 7640   7.683  37.358   8.423
  176POPC   C3B 7641   7.922  37.286   8.041
  176POPC   C4B 7642   7.807  37.276   7.646
  177POPC   NC3 7643   8.706  36.176   9.391
  177POPC   PO4 7644   9.033  35.623   9.522
  177POPC   GL1 7645   8.855  35.743   9.080
  177POPC   GL2 7646   8.763  36.102   8.898
  177POPC   C1A 7647   9.093  35.791   8.664
  177POPC   D2A 7648   9.086  36.103   8.320
  177POPC   C3A 7649   8.919  35.982   7.937
  177POPC   C4A 7650   9.114  35.624   7.799
  177POPC   C1B 7651   8.928  36.479   8.625
  177POPC   C2B 7652   9.285  36.581   8.308
  177POPC   C3B 7653   9.153  36.433   7.914
  177POPC   C4B 7654   8.832  36.407   7.614
  178POPC   NC3 7655   5.183  29.845   9.519
  178POPC   PO4 7656   5.073  30.418   9.790
  178POPC   GL1 7657   5.195  30.252   9.256
  178POPC   GL2 7658   4.940  30.036   9.125
  178POPC   C1A 7659   5.292  30.220   8.817
  178POPC   D2A 7660   5.163  30.070   8.450
  178POPC   C3A 7661   5.433  30.133   8.135
  178POPC   C4A 7662   5.276  30.117   7.725
  178POPC   C1B 7663   4.986  29.749   8.814
  178POPC   C2B 7664   4.878  29.669   8.378
  178POPC   C3B 7665   5.010  29.710   7.950
  178POPC   C4B 7666   5.216  29.424   7.623
  179POPC   NC3 7667   4.106  30.993   9.497
  179POPC   PO4 7668   4.153  31.707   9.505
  179POPC   GL1 7669   4.329  31.400   9.245
  179POPC   GL2 7670   4.001  31.346   9.089
  179POPC   C1A 7671   4.492  31.442   8.837
  179POPC   D2A 7672   4.529  31.614   8.440
  179POPC   C3A 7673   4.265  31.420   8.142
  179POPC   C4A 7674   4.575  31.398   7.828
  179POPC   C1B 7675   4.005  31.335   8.626
  179POPC   C2B 7676   3.757  31.231   8.298
  179POPC   C3B 7677   3.844  31.139   7.889
  179POPC   C4B 7678   4.096  31.418   7.639
  180POPC   NC3 7679  28.020   5.144   9.351
  180POPC   PO4 7680  28.668   5.028   9.555
  180POPC   GL1 7681  28.476   4.973   9.142
  180POPC   GL2 7682  28.816   4.823   9.055
  180POPC   C1A 7683  28.217   4.889   8.721
  180POPC   D2A 7684  27.890   4.732   8.382
  180POPC   C3A 7685  28.076   4.780   7.963
  180POPC   C4A 7686  28.311   5.157   7.792
  180POPC   C1B 7687  28.686   5.098   8.692
  180POPC   C2B 7688  28.483   5.048   8.282
  180POPC   C3B 7689  28.611   4.778   7.930
  180POPC   C4B 7690  28.786   4.436   7.686
  181POPC   NC3 7691  26.391   4.123   9.560
  181POPC   PO4 7692  27.017   4.518   9.620
  181POPC   GL1 7693  26.817   4.297   9.315
  181POPC   GL2 7694  26.571   4.515   9.250
  181POPC   C1A 7695  26.834   4.211   8.892
  181POPC   D2A 7696  26.630   4.234   8.487
  181POPC   C3A 7697  26.710   4.011   8.135
  181POPC   C4A 7698  26.759   4.004   7.729
  181POPC   C1B 7699  26.547   4.621   8.833
  181POPC   C2B 7700  26.802   4.700   8.461
  181POPC   C3B 7701  26.799   4.542   8.037
  181POPC   C4B 7702  26.432   4.542   7.769
  182POPC   NC3 7703  41.225  17.936   9.424
  182POPC   PO4 7704  40.851  18.408   9.831
  182POPC   GL1 7705  40.769  18.354   9.383
  182POPC   GL2 7706  41.092  18.439   9.235
  182POPC   C1A 7707  40.694  18.379   8.922
  182POPC   D2A 7708  40.860  18.524   8.523
  182POPC   C3A 7709  40.718  18.286   8.153
  182POPC   C4A 7710  40.783  18.362   7.717
  182POPC   C1B 7711  41.181  18.210   8.828
  182POPC   C2B 7712  41.066  18.056   8.438
  182POPC   C3B 7713  41.172  18.061   8.027
  182POPC   C4B 7714  41.263  18.259   7.641
  183POPC   NC3 7715  16.552  12.345   9.635
  183POPC   PO4 7716  16.855  11.791   9.695
  183POPC   GL1 7717  16.846  12.027   9.306
  183POPC   GL2 7718  16.522  12.021   9.215
  183POPC   C1A 7719  16.860  11.960   8.834
  183POPC   D2A 7720  16.533  11.871   8.481
  183POPC   C3A 7721  16.693  11.957   8.070
  183POPC   C4A 7722  16.854  12.285   7.816
  183POPC   C1B 7723  16.446  12.239   8.825
  183POPC   C2B 7724  16.546  12.385   8.379
  183POPC   C3B 7725  16.372  12.342   7.962
  183POPC   C4B 7726  16.439  12.036   7.606
  184POPC   NC3 7727   3.037   2.584   9.804
  184POPC   PO4 7728   2.571   2.925   9.433
  184POPC   GL1 7729   2.555   2.585   9.108
  184POPC   GL2 7730   2.759   2.826   8.930
  184POPC   C1A 7731   2.651   2.435   8.664
  184POPC   D2A 7732   2.724   2.808   8.390
  184POPC   C3A 7733   3.104   2.833   8.153
  184POPC   C4A 7734   3.015   2.581   7.789
  184POPC   C1B 7735   2.464   3.111   8.735
  184POPC   C2B 7736   2.268   3.053   8.344
  184POPC   C3B 7737   2.394   2.934   7.945
  184POPC   C4B 7738   2.773   3.036   7.792
  185POPC   NC3 7739   1.859  33.764   9.619
  185POPC   PO4 7740   2.321  34.197   9.641
  185POPC   GL1 7741   2.238  33.859   9.274
  185POPC   GL2 7742   1.893  33.868   9.137
  185POPC   C1A 7743   2.232  33.602   8.864
  185POPC   D2A 7744   2.078  33.782   8.469
  185POPC   C3A 7745   2.215  33.728   8.039
  185POPC   C4A 7746   2.018  34.000   7.734
  185POPC   C1B 7747   1.729  33.617   8.825
  185POPC   C2B 7748   1.664  33.479   8.386
  185POPC   C3B 7749   1.703  33.672   7.975
  185POPC   C4B 7750   1.463  33.824   7.583
  186POPC   NC3 7751  44.793   5.706   9.623
  186POPC   PO4 7752  44.236   5.709   9.882
  186POPC   GL1 7753  44.385   5.710   9.354
  186POPC   GL2 7754  44.639   5.956   9.191
  186POPC   C1A 7755  44.358   5.710   8.859
  186POPC   D2A 7756  44.625   5.999   8.575
  186POPC   C3A 7757  44.629   5.992   8.108
  186POPC   C4A 7758  44.590   5.769   7.692
  186POPC   C1B 7759  44.900   5.678   8.862
  186POPC   C2B 7760  44.974   5.684   8.390
  186POPC   C3B 7761   0.057   5.738   7.940
  186POPC   C4B 7762   0.074   5.563   7.497
  187POPC   NC3 7763  41.186   1.598   9.364
  187POPC   PO4 7764  41.760   1.348   9.612
  187POPC   GL1 7765  41.647   1.223   9.169
  187POPC   GL2 7766  41.913   1.032   9.028
  187POPC   C1A 7767  41.509   1.332   8.742
  187POPC   D2A 7768  41.377   1.139   8.328
  187POPC   C3A 7769  41.412   1.427   7.971
  187POPC   C4A 7770  41.824   1.471   7.746
  187POPC   C1B 7771  41.703   0.847   8.673
  187POPC   C2B 7772  41.838   0.761   8.253
  187POPC   C3B 7773  41.968   0.977   7.900
  187POPC   C4B 7774  41.575   0.992   7.759
  188POPC   NC3 7775  42.562   3.890   9.224
  188POPC   PO4 7776  42.279   4.362   9.663
  188POPC   GL1 7777  42.280   4.470   9.234
  188POPC   GL2 7778  42.616   4.626   9.294
  188POPC   C1A 7779  42.236   4.291   8.807
  188POPC   D2A 7780  42.441   4.132   8.423
  188POPC   C3A 7781  42.214   4.245   8.060
  188POPC   C4A 7782  42.208   4.042   7.688
  188POPC   C1B 7783  42.556   4.736   8.883
  188POPC   C2B 7784  42.458   4.622   8.467
  188POPC   C3B 7785  42.591   4.584   8.039
  188POPC   C4B 7786  42.353   4.558   7.615
  189POPC   NC3 7787  15.293   0.350   9.525
  189POPC   PO4 7788  15.118   1.000   9.347
  189POPC   GL1 7789  15.030   0.592   9.100
  189POPC   GL2 7790  15.096   0.215   9.083
  189POPC   C1A 7791  15.153   0.489   8.670
  189POPC   D2A 7792  15.412   0.769   8.406
  189POPC   C3A 7793  15.286   0.693   8.007
  189POPC   C4A 7794  15.017   0.563   7.672
  189POPC   C1B 7795  14.829   0.073   8.735
  189POPC   C2B 7796  14.970   0.108   8.311
  189POPC   C3B 7797  15.226   0.148   7.936
  189POPC   C4B 7798  15.654   0.061   7.833
  190POPC   NC3 7799   2.642  33.202   9.538
  190POPC   PO4 7800   3.081  32.762   9.428
  190POPC   GL1 7801   2.961  33.181   9.126
  190POPC   GL2 7802   2.616  33.118   9.043
  190POPC   C1A 7803   3.200  33.442   8.769
  190POPC   D2A 7804   3.223  33.441   8.305
  190POPC   C3A 7805   3.295  33.067   8.090
  190POPC   C4A 7806   3.025  32.882   7.814
  190POPC   C1B 7807   2.827  32.864   8.740
  190POPC   C2B 7808   2.834  33.021   8.321
  190POPC   C3B 7809   2.540  33.052   7.992
  190POPC   C4B 7810   2.340  32.778   7.720
  191POPC   NC3 7811   2.141   2.975   9.592
  191POPC   PO4 7812   1.833   3.599   9.472
  191POPC   GL1 7813   2.105   3.632   9.138
  191POPC   GL2 7814   2.314   3.906   9.236
  191POPC   C1A 7815   2.045   3.409   8.745
  191POPC   D2A 7816   1.816   3.236   8.397
  191POPC   C3A 7817   1.987   3.436   8.049
  191POPC   C4A 7818   1.999   3.180   7.721
  191POPC   C1B 7819   2.246   4.011   8.799
  191POPC   C2B 7820   2.354   4.129   8.383
  191POPC   C3B 7821   2.319   3.904   7.962
  191POPC   C4B 7822   2.392   4.122   7.545
  192POPC   NC3 7823  12.662   2.708   9.403
  192POPC   PO4 7824  12.487   3.371   9.395
  192POPC   GL1 7825  12.727   3.165   9.047
  192POPC   GL2 7826  12.774   2.841   8.944
  192POPC   C1A 7827  13.044   3.201   8.715
  192POPC   D2A 7828  13.081   3.384   8.294
  192POPC   C3A 7829  12.920   3.065   7.998
  192POPC   C4A 7830  13.028   2.654   7.838
  192POPC   C1B 7831  12.786   2.441   8.755
  192POPC   C2B 7832  12.856   2.507   8.333
  192POPC   C3B 7833  12.606   2.413   7.985
  192POPC   C4B 7834  12.529   2.755   7.710
  193POPC   NC3 7835  42.508  37.430   9.229
  193POPC   PO4 7836  42.117  37.870   9.578
  193POPC   GL1 7837  41.972  37.733   9.184
  193POPC   GL2 7838  41.847  37.392   9.246
  193POPC   C1A 7839  42.158  37.750   8.783
  193POPC   D2A 7840  42.378  37.740   8.399
  193POPC   C3A 7841  42.206  37.900   8.022
  193POPC   C4A 7842  42.275  37.830   7.562
  193POPC   C1B 7843  41.901  37.298   8.815
  193POPC   C2B 7844  41.944  37.475   8.376
  193POPC   C3B 7845  42.232  37.399   7.997
  193POPC   C4B 7846  42.214  37.328   7.553
  194POPC   NC3 7847  32.672   1.573   9.536
  194POPC   PO4 7848  32.187   1.167   9.584
  194POPC   GL1 7849  32.166   1.161   9.168
  194POPC   GL2 7850  32.230   1.488   9.165
  194POPC   C1A 7851  32.145   0.942   8.796
  194POPC   D2A 7852  32.039   1.156   8.441
  194POPC   C3A 7853  32.031   1.005   8.052
  194POPC   C4A 7854  32.365   1.224   7.893
  194POPC   C1B 7855  31.941   1.563   8.817
  194POPC   C2B 7856  31.749   1.557   8.429
  194POPC   C3B 7857  31.960   1.533   8.039
  194POPC   C4B 7858  31.824   1.524   7.656
  195POPC   NC3 7859  43.268  37.097   9.418
  195POPC   PO4 7860  42.875  36.492   9.672
  195POPC   GL1 7861  42.965  36.684   9.257
  195POPC   GL2 7862  42.828  37.015   9.135
  195POPC   C1A 7863  42.960  36.668   8.797
  195POPC   D2A 7864  43.207  36.734   8.411
  195POPC   C3A 7865  43.035  36.774   7.977
  195POPC   C4A 7866  43.266  36.797   7.560
  195POPC   C1B 7867  43.140  37.148   8.774
  195POPC   C2B 7868  43.356  37.243   8.354
  195POPC   C3B 7869  43.273  37.234   7.894
  195POPC   C4B 7870  43.584  37.183   7.589
  196POPC   NC3 7871  28.132  10.367   9.408
  196POPC   PO4 7872  28.759  10.262   9.440
  196POPC   GL1 7873  28.540  10.633   9.227
  196POPC   GL2 7874  28.492  10.413   9.014
  196POPC   C1A 7875  28.177  10.747   8.859
  196POPC   D2A 7876  28.082  10.789   8.425
  196POPC   C3A 7877  28.436  10.852   8.179
  196POPC   C4A 7878  28.382  10.782   7.768
  196POPC   C1B 7879  28.676  10.662   8.705
  196POPC   C2B 7880  28.541  10.407   8.404
  196POPC   C3B 7881  28.501  10.212   8.047
  196POPC   C4B 7882  28.419  10.282   7.655
  197POPC   NC3 7883  41.996  18.031   9.492
  197POPC   PO4 7884  42.478  18.629   9.409
  197POPC   GL1 7885  42.543  18.290   9.094
  197POPC   GL2 7886  42.224  18.100   9.033
  197POPC   C1A 7887  42.528  18.315   8.623
  197POPC   D2A 7888  42.392  18.684   8.349
  197POPC   C3A 7889  42.590  18.562   7.961
  197POPC   C4A 7890  42.517  18.107   7.854
  197POPC   C1B 7891  42.070  18.461   8.800
  197POPC   C2B 7892  42.016  18.319   8.395
  197POPC   C3B 7893  42.105  18.420   8.012
  197POPC   C4B 7894  42.104  18.481   7.628
  198POPC   NC3 7895  27.863  43.616   9.540
  198POPC   PO4 7896  27.445  44.086   9.606
  198POPC   GL1 7897  27.721  44.009   9.264
  198POPC   GL2 7898  27.431  43.751   9.208
  198POPC   C1A 7899  27.773  43.779   8.854
  198POPC   D2A 7900  27.409  43.778   8.572
  198POPC   C3A 7901  27.573  43.741   8.150
  198POPC   C4A 7902  27.675  43.917   7.707
  198POPC   C1B 7903  27.400  43.392   8.916
  198POPC   C2B 7904  27.501  43.279   8.480
  198POPC   C3B 7905  27.352  43.275   8.097
  198POPC   C4B 7906  27.361  43.517   7.736
  199POPC   NC3 7907  41.733  38.843   9.745
  199POPC   PO4 7908  41.590  38.219   9.583
  199POPC   GL1 7909  41.518  38.540   9.272
  199POPC   GL2 7910  41.787  38.581   9.034
  199POPC   C1A 7911  41.313  38.663   8.851
  199POPC   D2A 7912  41.194  38.762   8.397
  199POPC   C3A 7913  41.480  38.587   8.131
  199POPC   C4A 7914  41.480  38.416   7.719
  199POPC   C1B 7915  41.935  38.212   8.837
  199POPC   C2B 7916  41.927  38.043   8.436
  199POPC   C3B 7917  41.761  38.159   8.067
  199POPC   C4B 7918  41.877  38.111   7.665
  200POPC   NC3 7919  14.788   1.325   9.425
  200POPC   PO4 7920  15.349   1.604   9.537
  200POPC   GL1 7921  15.308   1.422   9.111
  200POPC   GL2 7922  14.988   1.319   8.962
  200POPC   C1A 7923  15.463   1.234   8.712
  200POPC   D2A 7924  15.617   1.330   8.282
  200POPC   C3A 7925  15.324   1.366   7.920
  200POPC   C4A 7926  14.923   1.523   7.785
  200POPC   C1B 7927  15.013   0.981   8.685
  200POPC   C2B 7928  15.064   1.117   8.287
  200POPC   C3B 7929  14.914   1.015   7.912
  200POPC   C4B 7930  14.747   0.999   7.525
  201POPC   NC3 7931  40.076  35.697   9.460
  201POPC   PO4 7932  40.371  36.303   9.626
  201POPC   GL1 7933  40.218  36.335   9.198
  201POPC   GL2 7934  40.013  36.045   9.084
  201POPC   C1A 7935  40.342  36.288   8.763
  201POPC   D2A 7936  40.157  36.048   8.401
  201POPC   C3A 7937  39.974  36.336   8.091
  201POPC   C4A 7938  39.672  36.304   7.774
  201POPC   C1B 7939  40.293  35.778   8.836
  201POPC   C2B 7940  40.210  35.515   8.493
  201POPC   C3B 7941  40.304  35.649   8.094
  201POPC   C4B 7942  40.296  36.023   7.854
  202POPC   NC3 7943  16.534  23.392   9.412
  202POPC   PO4 7944  17.202  23.773   9.424
  202POPC   GL1 7945  16.855  23.753   9.134
  202POPC   GL2 7946  16.938  23.431   9.057
  202POPC   C1A 7947  16.540  23.667   8.775
  202POPC   D2A 7948  16.379  23.775   8.336
  202POPC   C3A 7949  16.719  24.004   8.085
  202POPC   C4A 7950  16.766  23.947   7.646
  202POPC   C1B 7951  17.045  23.501   8.658
  202POPC   C2B 7952  16.784  23.441   8.310
  202POPC   C3B 7953  16.702  23.524   7.905
  202POPC   C4B 7954  17.096  23.582   7.724
  203POPC   NC3 7955  18.173  30.326   9.441
  203POPC   PO4 7956  18.595  30.849   9.414
  203POPC   GL1 7957  18.351  30.703   9.080
  203POPC   GL2 7958  17.993  30.587   9.060
  203POPC   C1A 7959  18.358  30.637   8.651
  203POPC   D2A 7960  18.454  30.689   8.224
  203POPC   C3A 7961  18.162  30.825   7.901
  203POPC   C4A 7962  18.072  30.723   7.469
  203POPC   C1B 7963  17.944  30.334   8.694
  203POPC   C2B 7964  18.214  30.231   8.360
  203POPC   C3B 7965  18.215  30.319   7.931
  203POPC   C4B 7966  17.866  30.297   7.692
  204POPC   NC3 7967  32.367  42.022   9.531
  204POPC   PO4 7968  32.076  42.664   9.464
  204POPC   GL1 7969  32.169  42.356   9.138
  204POPC   GL2 7970  32.515  42.263   9.121
  204POPC   C1A 7971  32.331  42.510   8.730
  204POPC   D2A 7972  32.238  42.588   8.299
  204POPC   C3A 7973  32.216  42.290   7.974
  204POPC   C4A 7974  32.076  42.516   7.611
  204POPC   C1B 7975  32.719  42.189   8.733
  204POPC   C2B 7976  32.808  42.064   8.324
  204POPC   C3B 7977  32.723  42.050   7.854
  204POPC   C4B 7978  32.360  42.078   7.531
  205POPC   NC3 7979  28.991  27.329   9.394
  205POPC   PO4 7980  29.366  27.829   9.658
  205POPC   GL1 7981  29.165  27.788   9.237
  205POPC   GL2 7982  29.402  28.036   9.157
  205POPC   C1A 7983  29.140  27.513   8.803
  205POPC   D2A 7984  28.892  27.418   8.424
  205POPC   C3A 7985  29.099  27.489   8.042
  205POPC   C4A 7986  28.910  27.483   7.650
  205POPC   C1B 7987  29.216  28.016   8.785
  205POPC   C2B 7988  29.256  27.831   8.403
  205POPC   C3B 7989  29.141  28.001   8.006
  205POPC   C4B 7990  29.275  27.961   7.606
  206POPC   NC3 7991  13.229   2.392   9.360
  206POPC   PO4 7992  13.742   1.966   9.513
  206POPC   GL1 7993  13.528   1.755   9.147
  206POPC   GL2 7994  13.478   2.082   9.061
  206POPC   C1A 7995  13.409   1.810   8.657
  206POPC   D2A 7996  13.662   1.985   8.308
  206POPC   C3A 7997  13.479   1.883   7.929
  206POPC   C4A 7998  13.518   1.850   7.512
  206POPC   C1B 7999  13.615   2.302   8.709
  206POPC   C2B 8000  13.382   2.418   8.341
  206POPC   C3B 8001  13.538   2.396   7.939
  206POPC   C4B 8002  13.579   2.385   7.498
  207POPC   NC3 8003   0.583   6.091   9.402
  207POPC   PO4 8004   0.539   6.793   9.531
  207POPC   GL1 8005   0.297   6.833   9.165
  207POPC   GL2 8006   0.321   6.471   9.128
  207POPC   C1A 8007   0.177   6.720   8.725
  207POPC   D2A 8008   0.358   6.679   8.344
  207POPC   C3A 8009   0.179   6.716   7.935
  207POPC   C4A 8010   0.459   6.534   7.628
  207POPC   C1B 8011   0.602   6.328   8.785
  207POPC   C2B 8012   0.719   6.295   8.368
  207POPC   C3B 8013   0.849   6.358   7.972
  207POPC   C4B 8014   0.766   6.131   7.635
  208POPC   NC3 8015  34.926  38.057   9.485
  208POPC   PO4 8016  35.403  37.497   9.474
  208POPC   GL1 8017  35.310  37.612   9.073
  208POPC   GL2 8018  34.991  37.796   9.026
  208POPC   C1A 8019  35.280  37.401   8.699
  208POPC   D2A 8020  35.403  37.539   8.342
  208POPC   C3A 8021  35.190  37.422   8.013
  208POPC   C4A 8022  35.425  37.354   7.636
  208POPC   C1B 8023  35.274  38.013   8.706
  208POPC   C2B 8024  35.593  38.012   8.351
  208POPC   C3B 8025  35.498  37.814   7.928
  208POPC   C4B 8026  35.127  37.796   7.659
  209POPC   NC3 8027  21.705  36.821  10.027
  209POPC   PO4 8028  21.173  36.955   9.650
  209POPC   GL1 8029  21.354  36.872   9.203
  209POPC   GL2 8030  21.320  37.209   9.106
  209POPC   C1A 8031  21.514  36.866   8.769
  209POPC   D2A 8032  21.592  36.620   8.417
  209POPC   C3A 8033  21.544  36.796   8.038
  209POPC   C4A 8034  21.765  36.938   7.726
  209POPC   C1B 8035  21.108  37.169   8.698
  209POPC   C2B 8036  21.290  37.174   8.282
  209POPC   C3B 8037  21.378  37.247   7.853
  209POPC   C4B 8038  21.400  37.353   7.429
  210POPC   NC3 8039  24.891   7.343   9.400
  210POPC   PO4 8040  25.474   7.665   9.569
  210POPC   GL1 8041  25.262   7.605   9.143
  210POPC   GL2 8042  25.200   7.241   9.021
  210POPC   C1A 8043  25.157   7.666   8.703
  210POPC   D2A 8044  24.973   7.513   8.321
  210POPC   C3A 8045  25.236   7.413   7.990
  210POPC   C4A 8046  25.403   7.752   7.742
  210POPC   C1B 8047  25.484   7.251   8.678
  210POPC   C2B 8048  25.602   7.130   8.281
  210POPC   C3B 8049  25.541   7.018   7.859
  210POPC   C4B 8050  25.543   7.290   7.518
  211POPC   NC3 8051  15.545   1.104   9.499
  211POPC   PO4 8052  16.087   1.550   9.514
  211POPC   GL1 8053  15.824   1.477   9.202
  211POPC   GL2 8054  15.673   1.790   9.117
  211POPC   C1A 8055  15.984   1.184   8.891
  211POPC   D2A 8056  15.884   0.906   8.563
  211POPC   C3A 8057  15.973   0.983   8.153
  211POPC   C4A 8058  15.684   1.017   7.853
  211POPC   C1B 8059  15.803   1.622   8.702
  211POPC   C2B 8060  16.113   1.420   8.438
  211POPC   C3B 8061  16.064   1.463   8.008
  211POPC   C4B 8062  16.153   1.720   7.681
  212POPC   NC3 8063  35.211   4.555   9.784
  212POPC   PO4 8064  35.405   3.975   9.519
  212POPC   GL1 8065  35.157   4.276   9.300
  212POPC   GL2 8066  35.183   4.636   9.267
  212POPC   C1A 8067  35.143   4.247   8.861
  212POPC   D2A 8068  35.332   3.991   8.494
  212POPC   C3A 8069  35.327   4.271   8.131
  212POPC   C4A 8070  35.134   4.403   7.725
  212POPC   C1B 8071  35.327   4.716   8.835
  212POPC   C2B 8072  35.141   4.661   8.449
  212POPC   C3B 8073  35.292   4.778   8.060
  212POPC   C4B 8074  35.602   4.581   7.795
  213POPC   NC3 8075   9.884  16.785   9.569
  213POPC   PO4 8076  10.365  16.749   9.291
  213POPC   GL1 8077   9.954  16.844   9.070
  213POPC   GL2 8078   9.716  16.570   9.118
  213POPC   C1A 8079   9.700  16.822   8.669
  213POPC   D2A 8080   9.708  16.596   8.263
  213POPC   C3A 8081   9.469  16.777   7.918
  213POPC   C4A 8082   9.670  17.016   7.582
  213POPC   C1B 8083  10.056  16.437   8.791
  213POPC   C2B 8084  10.259  16.423   8.392
  213POPC   C3B 8085  10.131  16.418   8.007
  213POPC   C4B 8086   9.862  16.565   7.703
  214POPC   NC3 8087  32.015   3.247   9.417
  214POPC   PO4 8088  31.263   3.308   9.545
  214POPC   GL1 8089  31.357   3.444   9.170
  214POPC   GL2 8090  31.657   3.627   9.248
  214POPC   C1A 8091  31.205   3.332   8.763
  214POPC   D2A 8092  31.154   3.289   8.324
  214POPC   C3A 8093  31.349   3.561   8.022
  214POPC   C4A 8094  31.346   3.718   7.578
  214POPC   C1B 8095  31.621   3.693   8.809
  214POPC   C2B 8096  31.626   3.413   8.492
  214POPC   C3B 8097  31.792   3.255   8.155
  214POPC   C4B 8098  31.722   3.371   7.722
  215POPC   NC3 8099  16.611  14.736   9.469
  215POPC   PO4 8100  17.131  15.133   9.480
  215POPC   GL1 8101  16.783  15.173   9.195
  215POPC   GL2 8102  16.587  15.481   9.194
  215POPC   C1A 8103  16.685  15.023   8.794
  215POPC   D2A 8104  16.859  14.990   8.400
  215POPC   C3A 8105  16.618  15.000   8.022
  215POPC   C4A 8106  16.708  15.203   7.658
  215POPC   C1B 8107  16.697  15.546   8.757
  215POPC   C2B 8108  16.613  15.448   8.325
  215POPC   C3B 8109  16.346  15.458   7.979
  215POPC   C4B 8110  16.300  15.458   7.554
  216POPC   NC3 8111  13.490   6.328   9.385
  216POPC   PO4 8112  13.466   7.008   9.427
  216POPC   GL1 8113  13.716   6.740   9.186
  216POPC   GL2 8114  13.405   6.685   9.028
  216POPC   C1A 8115  13.776   6.475   8.786
  216POPC   D2A 8116  13.473   6.420   8.433
  216POPC   C3A 8117  13.679   6.441   8.052
  216POPC   C4A 8118  13.885   6.338   7.662
  216POPC   C1B 8119  13.296   6.866   8.666
  216POPC   C2B 8120  13.298   7.060   8.290
  216POPC   C3B 8121  13.257   6.834   7.959
  216POPC   C4B 8122  13.484   6.651   7.628
  217POPC   NC3 8123  20.069  17.790   9.578
  217POPC   PO4 8124  19.630  17.331   9.636
  217POPC   GL1 8125  19.792  17.406   9.186
  217POPC   GL2 8126  20.063  17.636   9.095
  217POPC   C1A 8127  19.712  17.381   8.707
  217POPC   D2A 8128  19.478  17.570   8.331
  217POPC   C3A 8129  19.649  17.598   7.888
  217POPC   C4A 8130  19.786  17.589   7.397
  217POPC   C1B 8131  20.128  17.657   8.664
  217POPC   C2B 8132  20.016  17.550   8.248
  217POPC   C3B 8133  20.150  17.586   7.816
  217POPC   C4B 8134  20.042  17.978   7.600
  218POPC   NC3 8135   7.709   7.186   9.545
  218POPC   PO4 8136   7.019   7.553   9.530
  218POPC   GL1 8137   7.301   7.372   9.241
  218POPC   GL2 8138   7.576   7.580   9.210
  218POPC   C1A 8139   7.274   7.169   8.838
  218POPC   D2A 8140   7.006   7.328   8.495
  218POPC   C3A 8141   7.119   7.379   8.089
  218POPC   C4A 8142   7.237   7.541   7.700
  218POPC   C1B 8143   7.730   7.385   8.832
  218POPC   C2B 8144   7.538   7.388   8.428
  218POPC   C3B 8145   7.622   7.386   8.003
  218POPC   C4B 8146   7.754   7.268   7.600
  219POPC   NC3 8147  44.428  12.726   9.454
  219POPC   PO4 8148   0.028  12.933   9.244
  219POPC   GL1 8149  44.755  12.743   9.040
  219POPC   GL2 8150  44.471  12.926   9.000
  219POPC   C1A 8151  44.763  12.558   8.664
  219POPC   D2A 8152  44.580  12.570   8.262
  219POPC   C3A 8153  44.865  12.612   7.928
  219POPC   C4A 8154   0.110  12.965   7.761
  219POPC   C1B 8155  44.257  12.757   8.665
  219POPC   C2B 8156  44.197  12.915   8.267
  219POPC   C3B 8157  44.359  12.825   7.860
  219POPC   C4B 8158  44.518  12.577   7.537
  220POPC   NC3 8159  12.646   4.206   9.624
  220POPC   PO4 8160  13.283   4.439   9.632
  220POPC   GL1 8161  13.013   4.456   9.235
  220POPC   GL2 8162  12.629   4.462   9.177
  220POPC   C1A 8163  12.928   4.292   8.802
  220POPC   D2A 8164  12.694   4.277   8.409
  220POPC   C3A 8165  12.914   4.355   8.042
  220POPC   C4A 8166  12.849   4.345   7.627
  220POPC   C1B 8167  12.392   4.299   8.821
  220POPC   C2B 8168  12.209   4.431   8.438
  220POPC   C3B 8169  12.453   4.605   8.075
  220POPC   C4B 8170  12.412   4.571   7.637
  221POPC   NC3 8171   6.139   7.692   9.594
  221POPC   PO4 8172   5.846   8.357   9.483
  221POPC   GL1 8173   5.822   8.222   9.101
  221POPC   GL2 8174   5.921   7.916   9.190
  221POPC   C1A 8175   5.897   8.221   8.669
  221POPC   D2A 8176   5.756   7.953   8.349
  221POPC   C3A 8177   5.904   8.177   8.042
  221POPC   C4A 8178   5.763   8.229   7.636
  221POPC   C1B 8179   5.914   7.746   8.820
  221POPC   C2B 8180   6.206   7.752   8.496
  221POPC   C3B 8181   6.165   7.708   8.066
  221POPC   C4B 8182   6.214   7.968   7.698
  222POPC   NC3 8183   4.602  17.609   9.672
  222POPC   PO4 8184   4.018  17.333   9.505
  222POPC   GL1 8185   4.332  17.485   9.203
  222POPC   GL2 8186   4.408  17.173   9.011
  222POPC   C1A 8187   4.530  17.654   8.818
  222POPC   D2A 8188   4.691  17.375   8.504
  222POPC   C3A 8189   4.562  17.281   8.091
  222POPC   C4A 8190   4.405  17.487   7.757
  222POPC   C1B 8191   4.123  17.378   8.711
  222POPC   C2B 8192   4.059  17.365   8.269
  222POPC   C3B 8193   3.958  17.202   7.861
  222POPC   C4B 8194   4.170  17.173   7.434
  223POPC   NC3 8195   8.558  35.455   9.475
  223POPC   PO4 8196   9.126  35.069   9.383
  223POPC   GL1 8197   8.823  35.197   9.104
  223POPC   GL2 8198   8.480  35.052   9.105
  223POPC   C1A 8199   8.893  35.302   8.683
  223POPC   D2A 8200   9.078  35.419   8.292
  223POPC   C3A 8201   8.945  35.138   7.966
  223POPC   C4A 8202   8.981  35.194   7.539
  223POPC   C1B 8203   8.430  35.424   8.829
  223POPC   C2B 8204   8.434  35.407   8.381
  223POPC   C3B 8205   8.648  35.567   8.029
  223POPC   C4B 8206   8.671  35.586   7.557
  224POPC   NC3 8207  26.031  41.894   9.494
  224POPC   PO4 8208  26.371  41.346   9.711
  224POPC   GL1 8209  26.252  41.442   9.251
  224POPC   GL2 8210  25.913  41.568   9.109
  224POPC   C1A 8211  26.283  41.397   8.777
  224POPC   D2A 8212  26.070  41.416   8.370
  224POPC   C3A 8213  26.219  41.332   7.952
  224POPC   C4A 8214  26.163  41.447   7.529
  224POPC   C1B 8215  25.588  41.558   8.760
  224POPC   C2B 8216  25.548  41.466   8.331
  224POPC   C3B 8217  25.730  41.537   7.944
  224POPC   C4B 8218  25.738  41.201   7.670
  225POPC   NC3 8219  38.798   1.716   9.815
  225POPC   PO4 8220  38.868   1.123   9.563
  225POPC   GL1 8221  39.172   1.240   9.252
  225POPC   GL2 8222  39.222   1.615   9.242
  225POPC   C1A 8223  39.365   1.199   8.846
  225POPC   D2A 8224  39.402   1.014   8.463
  225POPC   C3A 8225  39.141   1.176   8.233
  225POPC   C4A 8226  39.251   1.167   7.840
  225POPC   C1B 8227  39.583   1.633   8.933
  225POPC   C2B 8228  39.631   1.490   8.479
  225POPC   C3B 8229  39.403   1.597   8.109
  225POPC   C4B 8230  38.967   1.571   7.923
  226POPC   NC3 8231  27.564   7.481   9.384
  226POPC   PO4 8232  27.945   6.996   9.500
  226POPC   GL1 8233  27.818   6.911   9.146
  226POPC   GL2 8234  27.496   7.016   9.171
  226POPC   C1A 8235  27.832   7.139   8.755
  226POPC   D2A 8236  27.596   7.403   8.465
  226POPC   C3A 8237  27.688   7.493   8.020
  226POPC   C4A 8238  27.415   7.741   7.725
  226POPC   C1B 8239  27.311   7.065   8.779
  226POPC   C2B 8240  27.171   7.108   8.385
  226POPC   C3B 8241  27.170   7.424   8.082
  226POPC   C4B 8242  27.355   7.230   7.728
  227POPC   NC3 8243  31.207   7.429   9.713
  227POPC   PO4 8244  31.699   7.107   9.443
  227POPC   GL1 8245  31.535   7.422   9.124
  227POPC   GL2 8246  31.230   7.573   9.217
  227POPC   C1A 8247  31.662   7.558   8.698
  227POPC   D2A 8248  31.712   7.313   8.302
  227POPC   C3A 8249  31.676   7.534   7.916
  227POPC   C4A 8250  31.621   7.413   7.490
  227POPC   C1B 8251  31.159   7.589   8.783
  227POPC   C2B 8252  31.212   7.501   8.356
  227POPC   C3B 8253  31.194   7.439   7.941
  227POPC   C4B 8254  31.234   7.703   7.601
  228POPC   NC3 8255  39.434  38.922   9.336
  228POPC   PO4 8256  38.878  39.403   9.535
  228POPC   GL1 8257  39.080  39.267   9.178
  228POPC   GL2 8258  38.995  38.917   9.116
  228POPC   C1A 8259  39.276  39.293   8.798
  228POPC   D2A 8260  39.405  39.565   8.514
  228POPC   C3A 8261  39.304  39.434   8.123
  228POPC   C4A 8262  39.352  39.516   7.713
  228POPC   C1B 8263  39.293  38.803   8.723
  228POPC   C2B 8264  39.497  39.017   8.396
  228POPC   C3B 8265  39.386  38.911   8.012
  228POPC   C4B 8266  39.120  39.079   7.758
  229POPC   NC3 8267  28.787  40.572   9.211
  229POPC   PO4 8268  28.234  40.946   9.537
  229POPC   GL1 8269  28.292  40.843   9.159
  229POPC   GL2 8270  28.282  40.478   9.227
  229POPC   C1A 8271  28.075  40.958   8.774
  229POPC   D2A 8272  28.342  40.878   8.431
  229POPC   C3A 8273  28.254  40.712   8.025
  229POPC   C4A 8274  28.558  41.000   7.853
  229POPC   C1B 8275  28.257  40.486   8.793
  229POPC   C2B 8276  28.242  40.306   8.429
  229POPC   C3B 8277  28.607  40.471   8.264
  229POPC   C4B 8278  28.700  40.488   7.835
  230POPC   NC3 8279  43.011  25.557   9.392
  230POPC   PO4 8280  43.473  25.162   9.503
  230POPC   GL1 8281  43.229  25.146   9.112
  230POPC   GL2 8282  43.414  24.854   9.046
  230POPC   C1A 8283  43.089  25.362   8.709
  230POPC   D2A 8284  43.153  25.582   8.291
  230POPC   C3A 8285  43.018  25.301   7.943
  230POPC   C4A 8286  42.704  24.967   8.032
  230POPC   C1B 8287  43.496  25.007   8.625
  230POPC   C2B 8288  43.429  24.970   8.160
  230POPC   C3B 8289  43.249  24.892   7.735
  230POPC   C4B 8290  43.398  25.021   7.336
  231POPC   NC3 8291   0.296  31.858   9.420
  231POPC   PO4 8292   0.545  31.318   9.399
  231POPC   GL1 8293   0.283  31.461   9.098
  231POPC   GL2 8294   0.595  31.673   8.999
  231POPC   C1A 8295   0.158  31.681   8.756
  231POPC   D2A 8296   0.430  31.788   8.403
  231POPC   C3A 8297   0.342  31.556   8.016
  231POPC   C4A 8298   0.173  31.622   7.591
  231POPC   C1B 8299   0.596  31.260   8.756
  231POPC   C2B 8300   0.227  31.075   8.577
  231POPC   C3B 8301   0.156  31.074   8.131
  231POPC   C4B 8302   0.474  31.070   7.837
  232POPC   NC3 8303  17.581   2.483   9.686
  232POPC   PO4 8304  17.198   2.515   9.198
  232POPC   GL1 8305  17.588   2.344   9.147
  232POPC   GL2 8306  17.746   2.635   9.154
  232POPC   C1A 8307  17.611   2.378   8.703
  232POPC   D2A 8308  17.306   2.652   8.496
  232POPC   C3A 8309  17.434   2.711   8.094
  232POPC   C4A 8310  17.410   2.492   7.742
  232POPC   C1B 8311  17.639   2.923   8.808
  232POPC   C2B 8312  17.743   2.960   8.426
  232POPC   C3B 8313  17.909   2.882   8.037
  232POPC   C4B 8314  17.697   2.947   7.688
  233POPC   NC3 8315  39.022  18.829   9.636
  233POPC   PO4 8316  39.619  19.136   9.473
  233POPC   GL1 8317  39.345  18.957   9.143
  233POPC   GL2 8318  39.101  18.673   9.167
  233POPC   C1A 8319  39.053  19.035   8.790
  233POPC   D2A 8320  38.987  19.211   8.390
  233POPC   C3A 8321  39.131  19.028   8.023
  233POPC   C4A 8322  39.251  18.903   7.638
  233POPC   C1B 8323  39.261  18.560   8.755
  233POPC   C2B 8324  39.057  18.662   8.358
  233POPC   C3B 8325  39.013  18.532   7.899
  233POPC   C4B 8326  38.974  18.541   7.429
  234POPC   NC3 8327  33.630  12.246   9.482
  234POPC   PO4 8328  33.671  12.845   9.540
  234POPC   GL1 8329  33.824  12.817   9.090
  234POPC   GL2 8330  33.989  12.491   9.071
  234POPC   C1A 8331  33.850  12.972   8.626
  234POPC   D2A 8332  34.051  12.861   8.191
  234POPC   C3A 8333  33.845  12.942   7.792
  234POPC   C4A 8334  33.537  13.002   7.450
  234POPC   C1B 8335  34.105  12.533   8.615
  234POPC   C2B 8336  34.084  12.335   8.190
  234POPC   C3B 8337  34.130  12.510   7.771
  234POPC   C4B 8338  34.209  12.560   7.323
  235POPC   NC3 8339  30.713   1.500   9.602
  235POPC   PO4 8340  30.798   0.857   9.570
  235POPC   GL1 8341  30.837   1.025   9.171
  235POPC   GL2 8342  30.567   1.276   9.163
  235POPC   C1A 8343  30.950   1.242   8.801
  235POPC   D2A 8344  30.737   1.285   8.408
  235POPC   C3A 8345  30.951   1.198   8.021
  235POPC   C4A 8346  30.846   1.457   7.670
  235POPC   C1B 8347  30.323   1.231   8.795
  235POPC   C2B 8348  30.209   1.225   8.389
  235POPC   C3B 8349  30.359   1.257   7.989
  235POPC   C4B 8350  30.569   1.050   7.690
  236POPC   NC3 8351  16.616   2.285   9.519
  236POPC   PO4 8352  16.891   1.653   9.466
  236POPC   GL1 8353  16.655   1.870   9.182
  236POPC   GL2 8354  16.823   2.163   9.059
  236POPC   C1A 8355  16.644   1.745   8.768
  236POPC   D2A 8356  16.824   1.661   8.406
  236POPC   C3A 8357  16.518   1.695   8.096
  236POPC   C4A 8358  16.637   1.935   7.762
  236POPC   C1B 8359  16.510   2.239   8.748
  236POPC   C2B 8360  16.679   2.181   8.321
  236POPC   C3B 8361  16.760   2.396   7.916
  236POPC   C4B 8362  16.661   2.734   7.631
  237POPC   NC3 8363  22.689  40.473   9.515
  237POPC   PO4 8364  22.528  41.093   9.494
  237POPC   GL1 8365  22.831  40.901   9.197
  237POPC   GL2 8366  23.031  40.618   9.101
  237POPC   C1A 8367  22.938  40.955   8.745
  237POPC   D2A 8368  22.854  41.090   8.309
  237POPC   C3A 8369  22.684  40.738   8.090
  237POPC   C4A 8370  22.881  40.615   7.721
  237POPC   C1B 8371  23.289  40.578   8.721
  237POPC   C2B 8372  23.219  40.703   8.279
  237POPC   C3B 8373  23.326  40.498   7.898
  237POPC   C4B 8374  23.329  40.597   7.456
  238POPC   NC3 8375  25.867   3.929   9.245
  238POPC   PO4 8376  26.136   4.556   9.513
  238POPC   GL1 8377  26.108   4.369   9.107
  238POPC   GL2 8378  26.356   4.103   9.057
  238POPC   C1A 8379  26.137   4.367   8.656
  238POPC   D2A 8380  26.275   4.552   8.272
  238POPC   C3A 8381  25.951   4.458   7.964
  238POPC   C4A 8382  25.951   4.338   7.517
  238POPC   C1B 8383  26.352   3.886   8.706
  238POPC   C2B 8384  26.221   3.943   8.277
  238POPC   C3B 8385  26.255   4.058   7.839
  238POPC   C4B 8386  26.388   4.108   7.385
  239POPC   NC3 8387   1.957  11.128   9.715
  239POPC   PO4 8388   1.392  11.545   9.580
  239POPC   GL1 8389   1.809  11.436   9.329
  239POPC   GL2 8390   1.940  11.091   9.210
  239POPC   C1A 8391   1.915  11.509   8.905
  239POPC   D2A 8392   1.668  11.361   8.556
  239POPC   C3A 8393   1.848  11.443   8.156
  239POPC   C4A 8394   1.692  11.613   7.776
  239POPC   C1B 8395   2.077  11.024   8.779
  239POPC   C2B 8396   2.253  10.976   8.355
  239POPC   C3B 8397   2.134  11.063   7.932
  239POPC   C4B 8398   1.728  11.083   7.787
  240POPC   NC3 8399  32.066  41.260   9.579
  240POPC   PO4 8400  31.889  41.957   9.494
  240POPC   GL1 8401  32.130  41.708   9.200
  240POPC   GL2 8402  32.338  41.474   9.027
  240POPC   C1A 8403  32.253  41.938   8.833
  240POPC   D2A 8404  32.295  42.080   8.430
  240POPC   C3A 8405  32.422  41.772   8.131
  240POPC   C4A 8406  32.345  41.620   7.731
  240POPC   C1B 8407  32.372  41.516   8.564
  240POPC   C2B 8408  32.073  41.407   8.238
  240POPC   C3B 8409  32.059  41.198   7.825
  240POPC   C4B 8410  32.246  41.241   7.406
  241POPC   NC3 8411  41.555   7.588   9.395
  241POPC   PO4 8412  41.305   6.980   9.330
  241POPC   GL1 8413  41.465   7.221   9.033
  241POPC   GL2 8414  41.763   7.129   9.072
  241POPC   C1A 8415  41.406   7.394   8.616
  241POPC   D2A 8416  41.416   7.685   8.254
  241POPC   C3A 8417  41.324   7.540   7.843
  241POPC   C4A 8418  41.380   7.581   7.397
  241POPC   C1B 8419  41.899   7.327   8.721
  241POPC   C2B 8420  42.113   7.511   8.417
  241POPC   C3B 8421  41.862   7.510   8.067
  241POPC   C4B 8422  41.783   7.382   7.648
  242POPC   NC3 8423  34.962  32.373   9.651
  242POPC   PO4 8424  34.302  32.617   9.512
  242POPC   GL1 8425  34.322  32.356   9.149
  242POPC   GL2 8426  34.533  32.079   9.259
  242POPC   C1A 8427  34.331  32.339   8.698
  242POPC   D2A 8428  34.605  32.378   8.297
  242POPC   C3A 8429  34.357  32.453   7.863
  242POPC   C4A 8430  34.279  32.215   7.436
  242POPC   C1B 8431  34.729  32.030   8.845
  242POPC   C2B 8432  35.005  31.960   8.512
  242POPC   C3B 8433  35.040  32.035   8.065
  242POPC   C4B 8434  34.876  32.383   7.793
  243POPC   NC3 8435  21.410  27.458   9.724
  243POPC   PO4 8436  20.987  27.577   9.239
  243POPC   GL1 8437  21.277  27.548   8.973
  243POPC   GL2 8438  21.512  27.634   9.241
  243POPC   C1A 8439  21.272  27.328   8.573
  243POPC   D2A 8440  21.534  27.247   8.203
  243POPC   C3A 8441  21.308  27.399   7.849
  243POPC   C4A 8442  21.252  27.771   7.605
  243POPC   C1B 8443  21.597  27.908   8.867
  243POPC   C2B 8444  21.457  27.806   8.432
  243POPC   C3B 8445  21.568  27.932   7.997
  243POPC   C4B 8446  21.720  27.957   7.563
  244POPC   NC3 8447   5.796  12.654   9.441
  244POPC   PO4 8448   6.460  12.544   9.621
  244POPC   GL1 8449   6.332  12.435   9.167
  244POPC   GL2 8450   6.151  12.686   8.981
  244POPC   C1A 8451   6.309  12.308   8.702
  244POPC   D2A 8452   6.226  12.699   8.452
  244POPC   C3A 8453   6.150  12.714   8.028
  244POPC   C4A 8454   6.285  12.857   7.627
  244POPC   C1B 8455   5.865  12.944   8.698
  244POPC   C2B 8456   5.707  12.822   8.289
  244POPC   C3B 8457   5.687  12.767   7.829
  244POPC   C4B 8458   5.542  12.606   7.398
  245POPC   NC3 8459   3.080  31.499   9.441
  245POPC   PO4 8460   2.559  31.928   9.603
  245POPC   GL1 8461   2.580  31.595   9.250
  245POPC   GL2 8462   2.830  31.704   9.053
  245POPC   C1A 8463   2.728  31.242   8.887
  245POPC   D2A 8464   2.750  31.060   8.444
  245POPC   C3A 8465   2.807  31.259   8.011
  245POPC   C4A 8466   2.569  31.624   7.833
  245POPC   C1B 8467   3.109  31.569   8.737
  245POPC   C2B 8468   2.963  31.599   8.357
  245POPC   C3B 8469   3.133  31.688   7.985
  245POPC   C4B 8470   3.073  31.537   7.592
  246POPC   NC3 8471   5.537  40.875   9.674
  246POPC   PO4 8472   4.913  40.659   9.691
  246POPC   GL1 8473   5.161  40.604   9.284
  246POPC   GL2 8474   5.196  40.938   9.188
  246POPC   C1A 8475   5.110  40.593   8.804
  246POPC   D2A 8476   5.017  40.917   8.460
  246POPC   C3A 8477   5.041  40.850   8.005
  246POPC   C4A 8478   4.725  41.072   7.724
  246POPC   C1B 8479   5.421  41.008   8.785
  246POPC   C2B 8480   5.539  40.934   8.393
  246POPC   C3B 8481   5.420  41.185   8.081
  246POPC   C4B 8482   5.409  41.012   7.692
  247POPC   NC3 8483   7.805  35.773   9.426
  247POPC   PO4 8484   8.160  35.172   9.497
  247POPC   GL1 8485   8.070  35.411   9.178
  247POPC   GL2 8486   7.948  35.122   9.029
  247POPC   C1A 8487   7.945  35.585   8.779
  247POPC   D2A 8488   7.742  35.489   8.387
  247POPC   C3A 8489   8.015  35.392   8.059
  247POPC   C4A 8490   8.216  35.657   7.793
  247POPC   C1B 8491   8.060  35.125   8.614
  247POPC   C2B 8492   8.078  34.898   8.271
  247POPC   C3B 8493   8.104  34.923   7.851
  247POPC   C4B 8494   8.454  35.176   7.772
  248POPC   NC3 8495  30.255  12.241   9.766
  248POPC   PO4 8496  30.721  11.899   9.485
  248POPC   GL1 8497  30.674  11.926   9.098
  248POPC   GL2 8498  30.346  11.785   9.080
  248POPC   C1A 8499  30.728  12.173   8.704
  248POPC   D2A 8500  30.599  12.074   8.274
  248POPC   C3A 8501  30.492  12.285   7.917
  248POPC   C4A 8502  30.845  12.417   7.703
  248POPC   C1B 8503  30.438  11.772   8.666
  248POPC   C2B 8504  30.234  11.740   8.303
  248POPC   C3B 8505  30.476  11.744   7.890
  248POPC   C4B 8506  30.691  11.956   7.558
  249POPC   NC3 8507  30.217  20.661   9.436
  249POPC   PO4 8508  30.817  20.517   9.717
  249POPC   GL1 8509  30.701  20.582   9.274
  249POPC   GL2 8510  30.789  20.933   9.301
  249POPC   C1A 8511  30.529  20.649   8.845
  249POPC   D2A 8512  30.455  20.456   8.451
  249POPC   C3A 8513  30.550  20.629   8.058
  249POPC   C4A 8514  30.607  20.443   7.681
  249POPC   C1B 8515  30.919  20.992   8.868
  249POPC   C2B 8516  30.711  20.958   8.451
  249POPC   C3B 8517  30.580  21.139   8.042
  249POPC   C4B 8518  30.753  20.952   7.688
  250POPC   NC3 8519  19.319  23.974   9.443
  250POPC   PO4 8520  18.879  23.448   9.449
  250POPC   GL1 8521  19.039  23.618   9.108
  250POPC   GL2 8522  18.915  23.955   9.164
  250POPC   C1A 8523  18.975  23.515   8.689
  250POPC   D2A 8524  18.889  23.400   8.281
  250POPC   C3A 8525  19.022  23.700   7.969
  250POPC   C4A 8526  19.245  23.688   7.597
  250POPC   C1B 8527  18.848  24.014   8.762
  250POPC   C2B 8528  18.680  23.954   8.388
  250POPC   C3B 8529  18.649  24.205   8.038
  250POPC   C4B 8530  18.806  24.043   7.658
  251POPC   NC3 8531  17.823   1.034   9.612
  251POPC   PO4 8532  18.418   1.340   9.553
  251POPC   GL1 8533  18.338   1.274   9.170
  251POPC   GL2 8534  18.248   1.580   9.090
  251POPC   C1A 8535  18.418   1.230   8.737
  251POPC   D2A 8536  18.442   0.988   8.380
  251POPC   C3A 8537  18.408   1.145   7.977
  251POPC   C4A 8538  18.270   0.738   7.835
  251POPC   C1B 8539  18.063   1.599   8.732
  251POPC   C2B 8540  18.097   1.426   8.349
  251POPC   C3B 8541  18.021   1.523   7.953
  251POPC   C4B 8542  18.248   1.561   7.526
  252POPC   NC3 8543   1.722   1.621   9.299
  252POPC   PO4 8544   2.119   1.087   9.513
  252POPC   GL1 8545   1.908   1.117   9.143
  252POPC   GL2 8546   2.211   1.052   8.977
  252POPC   C1A 8547   1.856   1.275   8.702
  252POPC   D2A 8548   1.838   1.121   8.298
  252POPC   C3A 8549   1.904   1.429   7.971
  252POPC   C4A 8550   1.783   1.381   7.554
  252POPC   C1B 8551   2.302   1.016   8.552
  252POPC   C2B 8552   2.277   0.904   8.131
  252POPC   C3B 8553   1.963   0.949   7.812
  252POPC   C4B 8554   2.057   0.903   7.383
  253POPC   NC3 8555  17.490  28.754   9.456
  253POPC   PO4 8556  17.513  28.014   9.555
  253POPC   GL1 8557  17.595  28.288   9.209
  253POPC   GL2 8558  17.366  28.105   9.046
  253POPC   C1A 8559  17.660  28.407   8.747
  253POPC   D2A 8560  17.736  28.285   8.305
  253POPC   C3A 8561  17.449  28.388   7.957
  253POPC   C4A 8562  17.508  28.611   7.596
  253POPC   C1B 8563  17.373  27.890   8.670
  253POPC   C2B 8564  17.374  27.898   8.238
  253POPC   C3B 8565  17.297  27.939   7.819
  253POPC   C4B 8566  17.078  28.281   7.554
  254POPC   NC3 8567   9.130  12.851   9.599
  254POPC   PO4 8568   8.595  13.029   9.423
  254POPC   GL1 8569   8.889  12.794   9.124
  254POPC   GL2 8570   9.221  12.634   9.142
  254POPC   C1A 8571   8.796  12.518   8.799
  254POPC   D2A 8572   8.667  12.610   8.381
  254POPC   C3A 8573   8.917  12.677   8.054
  254POPC   C4A 8574   8.918  12.771   7.670
  254POPC   C1B 8575   9.288  12.877   8.785
  254POPC   C2B 8576   9.139  13.017   8.382
  254POPC   C3B 8577   9.234  13.088   7.941
  254POPC   C4B 8578   9.389  12.968   7.517
  255POPC   NC3 8579  31.110  40.972   9.516
  255POPC   PO4 8580  31.401  40.418   9.446
  255POPC   GL1 8581  31.502  40.601   9.113
  255POPC   GL2 8582  31.725  40.410   8.917
  255POPC   C1A 8583  31.275  40.637   8.749
  255POPC   D2A 8584  31.289  40.932   8.445
  255POPC   C3A 8585  31.253  40.726   8.085
  255POPC   C4A 8586  31.290  40.848   7.681
  255POPC   C1B 8587  31.729  40.870   8.739
  255POPC   C2B 8588  31.771  41.009   8.337
  255POPC   C3B 8589  31.746  40.817   7.946
  255POPC   C4B 8590  31.654  40.464   7.698
  256POPC   NC3 8591  16.786  42.148   9.481
  256POPC   PO4 8592  16.702  41.421   9.503
  256POPC   GL1 8593  16.730  41.668   9.105
  256POPC   GL2 8594  16.781  41.356   8.968
  256POPC   C1A 8595  16.646  41.691   8.606
  256POPC   D2A 8596  16.362  41.924   8.313
  256POPC   C3A 8597  16.405  41.767   7.874
  256POPC   C4A 8598  16.681  41.440   7.714
  256POPC   C1B 8599  16.543  41.187   8.620
  256POPC   C2B 8600  16.647  41.242   8.186
  256POPC   C3B 8601  16.635  40.970   7.843
  256POPC   C4B 8602  16.704  40.915   7.424
  257POPC   NC3 8603  19.107  39.409   9.622
  257POPC   PO4 8604  19.606  39.587   9.500
  257POPC   GL1 8605  19.312  39.490   9.136
  257POPC   GL2 8606  18.931  39.396   9.130
  257POPC   C1A 8607  19.241  39.322   8.710
  257POPC   D2A 8608  19.411  39.124   8.338
  257POPC   C3A 8609  19.261  39.243   7.898
  257POPC   C4A 8610  19.386  39.215   7.439
  257POPC   C1B 8611  18.729  39.261   8.717
  257POPC   C2B 8612  18.890  39.217   8.285
  257POPC   C3B 8613  18.738  39.312   7.856
  257POPC   C4B 8614  18.679  39.296   7.378
  258POPC   NC3 8615  41.226  40.107   9.448
  258POPC   PO4 8616  41.815  39.768   9.303
  258POPC   GL1 8617  41.505  39.928   9.023
  258POPC   GL2 8618  41.496  40.285   9.036
  258POPC   C1A 8619  41.521  40.050   8.590
  258POPC   D2A 8620  41.303  40.229   8.263
  258POPC   C3A 8621  41.536  40.107   7.928
  258POPC   C4A 8622  41.493  39.700   7.767
  258POPC   C1B 8623  41.165  40.436   8.753
  258POPC   C2B 8624  40.904  40.554   8.368
  258POPC   C3B 8625  40.912  40.352   7.942
  258POPC   C4B 8626  41.156  40.098   7.614
  259POPC   NC3 8627  43.576   5.299   9.406
  259POPC   PO4 8628  42.897   5.106   9.408
  259POPC   GL1 8629  43.032   4.883   9.045
  259POPC   GL2 8630  43.409   4.886   9.147
  259POPC   C1A 8631  42.955   4.915   8.617
  259POPC   D2A 8632  43.030   5.221   8.315
  259POPC   C3A 8633  43.019   4.946   7.998
  259POPC   C4A 8634  42.715   4.931   7.699
  259POPC   C1B 8635  43.385   5.147   8.796
  259POPC   C2B 8636  43.460   4.984   8.447
  259POPC   C3B 8637  43.494   5.146   8.138
  259POPC   C4B 8638  43.468   5.074   7.776
  260POPC   NC3 8639  10.935  42.564   9.363
  260POPC   PO4 8640  11.581  42.327   9.346
  260POPC   GL1 8641  11.217  42.170   9.159
  260POPC   GL2 8642  11.404  41.964   8.971
  260POPC   C1A 8643  11.074  42.278   8.734
  260POPC   D2A 8644  11.319  42.359   8.374
  260POPC   C3A 8645  11.148  42.499   7.980
  260POPC   C4A 8646  11.425  42.585   7.628
  260POPC   C1B 8647  11.309  41.778   8.615
  260POPC   C2B 8648  11.059  41.827   8.246
  260POPC   C3B 8649  11.251  41.994   7.914
  260POPC   C4B 8650  11.618  42.240   7.975
  261POPC   NC3 8651   6.397  12.062   9.595
  261POPC   PO4 8652   6.979  11.717   9.407
  261POPC   GL1 8653   6.715  12.076   9.183
  261POPC   GL2 8654   6.371  11.933   9.097
  261POPC   C1A 8655   6.828  12.252   8.753
  261POPC   D2A 8656   7.144  12.242   8.359
  261POPC   C3A 8657   6.965  12.427   7.965
  261POPC   C4A 8658   6.504  12.391   7.837
  261POPC   C1B 8659   6.715  11.745   8.821
  261POPC   C2B 8660   6.842  11.841   8.460
  261POPC   C3B 8661   6.669  12.081   8.206
  261POPC   C4B 8662   6.574  11.878   7.859
  262POPC   NC3 8663  40.287  16.229   9.424
  262POPC   PO4 8664  39.737  15.836   9.527
  262POPC   GL1 8665  39.832  15.779   9.132
  262POPC   GL2 8666  39.904  16.129   9.098
  262POPC   C1A 8667  40.152  15.802   8.821
  262POPC   D2A 8668  40.091  16.016   8.446
  262POPC   C3A 8669  40.240  15.936   8.055
  262POPC   C4A 8670  40.235  15.835   7.609
  262POPC   C1B 8671  39.670  16.101   8.716
  262POPC   C2B 8672  39.666  16.344   8.321
  262POPC   C3B 8673  39.794  16.197   7.934
  262POPC   C4B 8674  39.800  15.743   7.853
  263POPC   NC3 8675  31.916  39.113   9.431
  263POPC   PO4 8676  32.607  39.362   9.504
  263POPC   GL1 8677  32.479  39.152   9.132
  263POPC   GL2 8678  32.155  39.008   9.015
  263POPC   C1A 8679  32.453  39.301   8.740
  263POPC   D2A 8680  32.101  39.521   8.582
  263POPC   C3A 8681  32.083  39.491   8.136
  263POPC   C4A 8682  32.123  39.190   7.781
  263POPC   C1B 8683  32.055  38.997   8.588
  263POPC   C2B 8684  32.348  39.098   8.290
  263POPC   C3B 8685  32.589  39.082   7.962
  263POPC   C4B 8686  32.376  38.744   7.742
  264POPC   NC3 8687  23.542   0.841   9.564
  264POPC   PO4 8688  23.877   0.278   9.422
  264POPC   GL1 8689  23.688   0.373   9.049
  264POPC   GL2 8690  23.441   0.647   9.083
  264POPC   C1A 8691  23.898   0.293   8.674
  264POPC   D2A 8692  24.170   0.369   8.330
  264POPC   C3A 8693  23.899   0.329   7.981
  264POPC   C4A 8694  23.857   0.443   7.558
  264POPC   C1B 8695  23.473   0.593   8.628
  264POPC   C2B 8696  23.403   0.535   8.179
  264POPC   C3B 8697  23.501   0.719   7.790
  264POPC   C4B 8698  23.436   0.624   7.323
  265POPC   NC3 8699   7.232  41.499   9.962
  265POPC   PO4 8700   7.707  41.340   9.500
  265POPC   GL1 8701   7.582  41.495   9.106
  265POPC   GL2 8702   7.663  41.833   8.992
  265POPC   C1A 8703   7.494  41.480   8.663
  265POPC   D2A 8704   7.546  41.220   8.336
  265POPC   C3A 8705   7.490  41.441   7.987
  265POPC   C4A 8706   7.250  41.416   7.613
  265POPC   C1B 8707   7.182  41.815   8.870
  265POPC   C2B 8708   7.034  41.786   8.453
  265POPC   C3B 8709   7.079  41.796   7.999
  265POPC   C4B 8710   7.429  41.883   7.722
  266POPC   NC3 8711  44.380   0.892   9.427
  266POPC   PO4 8712   0.001   1.001   9.634
  266POPC   GL1 8713  44.906   1.057   9.175
  266POPC   GL2 8714  44.600   1.253   9.165
  266POPC   C1A 8715  44.871   1.324   8.773
  266POPC   D2A 8716  44.635   1.176   8.447
  266POPC   C3A 8717  44.825   1.291   8.065
  266POPC   C4A 8718  44.974   1.212   7.663
  266POPC   C1B 8719  44.330   1.379   8.823
  266POPC   C2B 8720  44.181   1.452   8.401
  266POPC   C3B 8721  44.271   1.148   8.100
  266POPC   C4B 8722  44.465   1.163   7.699
  267POPC   NC3 8723   8.384  21.969   9.604
  267POPC   PO4 8724   7.749  22.170   9.519
  267POPC   GL1 8725   7.915  22.059   9.133
  267POPC   GL2 8726   8.252  21.922   9.118
  267POPC   C1A 8727   8.057  22.175   8.717
  267POPC   D2A 8728   8.276  22.032   8.385
  267POPC   C3A 8729   8.127  22.152   8.013
  267POPC   C4A 8730   7.825  21.998   7.782
  267POPC   C1B 8731   8.631  21.922   8.840
  267POPC   C2B 8732   8.766  21.880   8.411
  267POPC   C3B 8733   8.603  21.876   7.992
  267POPC   C4B 8734   8.506  22.156   7.683
  268POPC   NC3 8735  40.137  28.280   9.718
  268POPC   PO4 8736  39.986  28.709   9.249
  268POPC   GL1 8737  39.957  28.333   9.112
  268POPC   GL2 8738  39.882  28.472   8.792
  268POPC   C1A 8739  40.151  28.029   8.837
  268POPC   D2A 8740  40.273  27.863   8.439
  268POPC   C3A 8741  40.029  27.870   8.071
  268POPC   C4A 8742  39.988  28.119   7.697
  268POPC   C1B 8743  40.193  28.388   8.479
  268POPC   C2B 8744  40.257  28.344   8.060
  268POPC   C3B 8745  40.103  28.652   7.783
  268POPC   C4B 8746  39.706  28.814   7.644
  269POPC   NC3 8747  30.958  39.176   9.458
  269POPC   PO4 8748  30.445  39.558   9.527
  269POPC   GL1 8749  30.591  39.350   9.154
  269POPC   GL2 8750  30.449  38.986   9.170
  269POPC   C1A 8751  30.887  39.368   8.824
  269POPC   D2A 8752  30.804  39.330   8.407
  269POPC   C3A 8753  30.819  39.408   8.000
  269POPC   C4A 8754  30.917  39.104   7.735
  269POPC   C1B 8755  30.525  39.041   8.708
  269POPC   C2B 8756  30.348  39.109   8.274
  269POPC   C3B 8757  30.441  38.999   7.829
  269POPC   C4B 8758  30.529  39.213   7.418
  270POPC   NC3 8759   0.880  25.344   9.276
  270POPC   PO4 8760   0.251  25.290   9.566
  270POPC   GL1 8761   0.380  25.227   9.149
  270POPC   GL2 8762   0.591  24.891   9.176
  270POPC   C1A 8763   0.358  25.600   8.853
  270POPC   D2A 8764   0.450  25.744   8.439
  270POPC   C3A 8765   0.444  25.360   8.200
  270POPC   C4A 8766   0.479  25.352   7.761
  270POPC   C1B 8767   0.695  24.969   8.760
  270POPC   C2B 8768   0.494  24.873   8.383
  270POPC   C3B 8769   0.602  24.907   7.967
  270POPC   C4B 8770   0.673  24.953   7.535
  271POPC   NC3 8771  14.824  39.989   9.655
  271POPC   PO4 8772  14.189  39.829   9.637
  271POPC   GL1 8773  14.257  39.919   9.205
  271POPC   GL2 8774  14.203  40.249   9.147
  271POPC   C1A 8775  14.167  39.885   8.745
  271POPC   D2A 8776  14.069  39.854   8.283
  271POPC   C3A 8777  14.340  39.818   7.889
  271POPC   C4A 8778  14.716  40.091   7.740
  271POPC   C1B 8779  14.391  40.343   8.704
  271POPC   C2B 8780  14.464  40.535   8.281
  271POPC   C3B 8781  14.290  40.328   7.907
  271POPC   C4B 8782  14.227  40.157   7.483
  272POPC   NC3 8783  31.887  34.377   9.382
  272POPC   PO4 8784  31.458  34.982   9.305
  272POPC   GL1 8785  31.735  34.758   9.048
  272POPC   GL2 8786  31.534  34.408   9.024
  272POPC   C1A 8787  31.678  34.672   8.607
  272POPC   D2A 8788  31.583  34.269   8.364
  272POPC   C3A 8789  31.529  34.394   7.921
  272POPC   C4A 8790  31.602  34.415   7.440
  272POPC   C1B 8791  31.222  34.445   8.701
  272POPC   C2B 8792  31.190  34.582   8.268
  272POPC   C3B 8793  31.027  34.511   7.854
  272POPC   C4B 8794  31.099  34.584   7.411
  273POPC   NC3 8795   7.633   1.606   9.845
  273POPC   PO4 8796   7.162   2.032   9.522
  273POPC   GL1 8797   7.336   2.060   9.132
  273POPC   GL2 8798   7.245   1.770   8.933
  273POPC   C1A 8799   7.679   2.066   8.821
  273POPC   D2A 8800   7.785   2.342   8.464
  273POPC   C3A 8801   7.818   2.082   8.078
  273POPC   C4A 8802   7.618   1.853   7.744
  273POPC   C1B 8803   7.088   2.078   8.707
  273POPC   C2B 8804   7.323   2.149   8.404
  273POPC   C3B 8805   7.269   2.059   8.035
  273POPC   C4B 8806   7.032   2.022   7.699
  274POPC   NC3 8807  17.433  15.190   9.812
  274POPC   PO4 8808  17.883  14.861   9.442
  274POPC   GL1 8809  17.567  15.103   9.175
  274POPC   GL2 8810  17.230  14.946   9.017
  274POPC   C1A 8811  17.630  15.202   8.802
  274POPC   D2A 8812  17.829  15.159   8.441
  274POPC   C3A 8813  17.564  15.351   8.148
  274POPC   C4A 8814  17.636  15.202   7.744
  274POPC   C1B 8815  17.137  15.303   8.806
  274POPC   C2B 8816  17.126  15.436   8.420
  274POPC   C3B 8817  17.059  15.296   8.027
  274POPC   C4B 8818  17.199  15.427   7.620
  275POPC   NC3 8819   6.415   9.372   9.491
  275POPC   PO4 8820   6.929   9.859   9.687
  275POPC   GL1 8821   6.734   9.796   9.244
  275POPC   GL2 8822   6.859  10.050   9.015
  275POPC   C1A 8823   6.471   9.730   8.828
  275POPC   D2A 8824   6.332   9.859   8.347
  275POPC   C3A 8825   6.407   9.755   7.882
  275POPC   C4A 8826   6.557   9.870   7.426
  275POPC   C1B 8827   6.870   9.982   8.583
  275POPC   C2B 8828   6.843   9.868   8.178
  275POPC   C3B 8829   6.911   9.786   7.792
  275POPC   C4B 8830   7.030  10.100   7.528
  276POPC   NC3 8831  12.598  23.025   9.440
  276POPC   PO4 8832  13.220  22.729   9.574
  276POPC   GL1 8833  12.935  22.703   9.192
  276POPC   GL2 8834  12.930  23.081   9.061
  276POPC   C1A 8835  12.678  22.752   8.795
  276POPC   D2A 8836  12.883  23.014   8.513
  276POPC   C3A 8837  12.919  23.047   8.092
  276POPC   C4A 8838  12.788  23.007   7.692
  276POPC   C1B 8839  12.574  23.280   8.808
  276POPC   C2B 8840  12.377  23.131   8.409
  276POPC   C3B 8841  12.440  23.281   7.972
  276POPC   C4B 8842  12.419  23.267   7.458
  277POPC   NC3 8843   8.943   9.624   9.746
  277POPC   PO4 8844   8.820  10.188   9.512
  277POPC   GL1 8845   8.918   9.757   9.239
  277POPC   GL2 8846   9.272   9.636   9.263
  277POPC   C1A 8847   8.971   9.556   8.793
  277POPC   D2A 8848   8.960   9.414   8.321
  277POPC   C3A 8849   8.938   9.750   7.994
  277POPC   C4A 8850   8.765   9.656   7.566
  277POPC   C1B 8851   9.425   9.776   8.824
  277POPC   C2B 8852   9.322   9.767   8.403
  277POPC   C3B 8853   9.428   9.545   8.037
  277POPC   C4B 8854   9.309   9.677   7.630
  278POPC   NC3 8855  14.315   5.430   9.577
  278POPC   PO4 8856  14.783   5.996   9.661
  278POPC   GL1 8857  14.660   5.817   9.259
  278POPC   GL2 8858  14.298   5.844   9.223
  278POPC   C1A 8859  14.597   5.816   8.796
  278POPC   D2A 8860  14.380   6.056   8.481
  278POPC   C3A 8861  14.623   6.221   8.152
  278POPC   C4A 8862  14.776   6.067   7.769
  278POPC   C1B 8863  14.060   5.819   8.819
  278POPC   C2B 8864  14.061   5.642   8.401
  278POPC   C3B 8865  14.381   5.753   8.057
  278POPC   C4B 8866  14.279   5.988   7.668
  279POPC   NC3 8867   5.491  34.342   9.455
  279POPC   PO4 8868   4.994  34.780   9.519
  279POPC   GL1 8869   4.879  34.616   9.092
  279POPC   GL2 8870   5.180  34.450   9.082
  279POPC   C1A 8871   4.914  34.335   8.698
  279POPC   D2A 8872   5.147  34.472   8.328
  279POPC   C3A 8873   4.925  34.681   8.008
  279POPC   C4A 8874   4.813  34.599   7.593
  279POPC   C1B 8875   5.198  34.791   8.741
  279POPC   C2B 8876   5.531  34.859   8.428
  279POPC   C3B 8877   5.475  34.721   8.015
  279POPC   C4B 8878   5.281  34.397   7.783
  280POPC   NC3 8879  22.913  32.918   9.532
  280POPC   PO4 8880  23.437  32.655   9.318
  280POPC   GL1 8881  23.167  32.967   9.046
  280POPC   GL2 8882  22.805  33.074   9.080
  280POPC   C1A 8883  22.972  32.904   8.648
  280POPC   D2A 8884  23.013  32.604   8.404
  280POPC   C3A 8885  22.883  32.729   8.035
  280POPC   C4A 8886  23.021  33.023   7.770
  280POPC   C1B 8887  22.527  33.158   8.741
  280POPC   C2B 8888  22.641  33.232   8.275
  280POPC   C3B 8889  22.551  33.249   7.820
  280POPC   C4B 8890  22.760  33.255   7.398
  281POPC   NC3 8891  32.387  33.540   9.609
  281POPC   PO4 8892  32.288  34.124   9.373
  281POPC   GL1 8893  32.337  33.726   9.129
  281POPC   GL2 8894  32.631  33.476   9.173
  281POPC   C1A 8895  32.250  33.774   8.696
  281POPC   D2A 8896  32.175  34.049   8.357
  281POPC   C3A 8897  32.261  33.741   8.081
  281POPC   C4A 8898  32.398  33.934   7.756
  281POPC   C1B 8899  32.566  33.384   8.771
  281POPC   C2B 8900  32.659  33.568   8.404
  281POPC   C3B 8901  32.682  33.426   8.003
  281POPC   C4B 8902  32.508  33.465   7.611
  282POPC   NC3 8903   1.621   2.197   9.710
  282POPC   PO4 8904   2.129   1.848   9.421
  282POPC   GL1 8905   2.106   1.927   9.064
  282POPC   GL2 8906   2.124   2.247   8.942
  282POPC   C1A 8907   1.989   1.766   8.711
  282POPC   D2A 8908   1.780   1.779   8.333
  282POPC   C3A 8909   2.081   1.968   8.059
  282POPC   C4A 8910   2.152   1.804   7.666
  282POPC   C1B 8911   1.908   2.243   8.568
  282POPC   C2B 8912   1.599   2.252   8.251
  282POPC   C3B 8913   1.590   2.330   7.854
  282POPC   C4B 8914   1.927   2.250   7.567
  283POPC   NC3 8915  35.688   6.244   9.751
  283POPC   PO4 8916  35.521   6.861   9.450
  283POPC   GL1 8917  35.592   6.613   9.134
  283POPC   GL2 8918  35.694   6.251   9.217
  283POPC   C1A 8919  35.379   6.658   8.720
  283POPC   D2A 8920  35.072   6.927   8.493
  283POPC   C3A 8921  35.237   7.018   8.111
  283POPC   C4A 8922  35.223   6.833   7.722
  283POPC   C1B 8923  35.822   6.375   8.774
  283POPC   C2B 8924  35.765   6.581   8.374
  283POPC   C3B 8925  35.450   6.523   8.089
  283POPC   C4B 8926  35.627   6.473   7.705
  284POPC   NC3 8927  38.690  20.401   9.465
  284POPC   PO4 8928  38.350  21.047   9.444
  284POPC   GL1 8929  38.374  20.683   9.205
  284POPC   GL2 8930  38.689  20.849   9.068
  284POPC   C1A 8931  38.499  20.450   8.814
  284POPC   D2A 8932  38.387  20.230   8.449
  284POPC   C3A 8933  38.538  20.457   8.104
  284POPC   C4A 8934  38.861  20.358   7.815
  284POPC   C1B 8935  38.290  20.918   8.786
  284POPC   C2B 8936  38.200  20.793   8.386
  284POPC   C3B 8937  38.501  20.960   8.128
  284POPC   C4B 8938  38.516  20.817   7.716
  285POPC   NC3 8939  18.631  21.083   9.596
  285POPC   PO4 8940  18.139  20.563   9.547
  285POPC   GL1 8941  18.294  20.544   9.150
  285POPC   GL2 8942  18.299  20.890   9.165
  285POPC   C1A 8943  18.529  20.690   8.754
  285POPC   D2A 8944  18.354  20.811   8.368
  285POPC   C3A 8945  18.378  20.615   7.975
  285POPC   C4A 8946  18.134  20.481   7.665
  285POPC   C1B 8947  18.028  20.877   8.785
  285POPC   C2B 8948  17.949  21.103   8.366
  285POPC   C3B 8949  17.925  20.873   7.983
  285POPC   C4B 8950  17.680  20.798   7.596
  286POPC   NC3 8951  42.433  33.402   9.465
  286POPC   PO4 8952  42.066  32.867   9.479
  286POPC   GL1 8953  42.264  33.005   9.152
  286POPC   GL2 8954  42.623  32.992   9.221
  286POPC   C1A 8955  42.161  32.902   8.752
  286POPC   D2A 8956  42.027  33.187   8.436
  286POPC   C3A 8957  42.217  33.089   8.056
  286POPC   C4A 8958  42.154  32.830   7.741
  286POPC   C1B 8959  42.592  33.209   8.814
  286POPC   C2B 8960  42.555  33.040   8.429
  286POPC   C3B 8961  42.767  33.032   8.060
  286POPC   C4B 8962  42.597  33.106   7.696
  287POPC   NC3 8963   0.944  31.098   9.369
  287POPC   PO4 8964   1.532  31.453   9.485
  287POPC   GL1 8965   1.402  31.299   9.085
  287POPC   GL2 8966   1.088  31.411   8.957
  287POPC   C1A 8967   1.516  31.127   8.707
  287POPC   D2A 8968   1.321  31.396   8.460
  287POPC   C3A 8969   1.415  31.418   8.082
  287POPC   C4A 8970   1.285  31.435   7.691
  287POPC   C1B 8971   0.908  31.647   8.602
  287POPC   C2B 8972   0.776  31.380   8.290
  287POPC   C3B 8973   0.961  31.167   7.991
  287POPC   C4B 8974   0.790  31.445   7.684
  288POPC   NC3 8975  37.964  33.151   9.535
  288POPC   PO4 8976  37.522  32.751   9.387
  288POPC   GL1 8977  37.521  33.131   9.196
  288POPC   GL2 8978  37.834  33.102   9.061
  288POPC   C1A 8979  37.410  33.246   8.809
  288POPC   D2A 8980  37.644  33.251   8.438
  288POPC   C3A 8981  37.444  33.160   8.044
  288POPC   C4A 8982  37.589  33.307   7.655
  288POPC   C1B 8983  38.111  33.081   8.744
  288POPC   C2B 8984  38.182  33.216   8.327
  288POPC   C3B 8985  37.950  33.096   7.965
  288POPC   C4B 8986  37.873  32.798   7.631
  289POPC   NC3 8987   3.949  21.290   9.450
  289POPC   PO4 8988   3.507  21.679   9.558
  289POPC   GL1 8989   3.550  21.407   9.148
  289POPC   GL2 8990   3.871  21.409   8.969
  289POPC   C1A 8991   3.467  21.413   8.675
  289POPC   D2A 8992   3.679  21.489   8.252
  289POPC   C3A 8993   3.439  21.391   7.890
  289POPC   C4A 8994   3.067  21.609   7.758
  289POPC   C1B 8995   3.905  21.103   8.628
  289POPC   C2B 8996   4.008  21.068   8.194
  289POPC   C3B 8997   3.956  21.310   7.823
  289POPC   C4B 8998   3.789  21.699   7.652
  290POPC   NC3 8999  21.619  16.912   9.385
  290POPC   PO4 9000  21.592  17.500   9.726
  290POPC   GL1 9001  21.368  17.518   9.304
  290POPC   GL2 9002  21.432  17.245   9.061
  290POPC   C1A 9003  21.291  17.667   8.858
  290POPC   D2A 9004  21.382  17.637   8.430
  290POPC   C3A 9005  21.182  17.534   8.057
  290POPC   C4A 9006  21.318  17.780   7.725
  290POPC   C1B 9007  21.598  17.246   8.689
  290POPC   C2B 9008  21.488  17.148   8.275
  290POPC   C3B 9009  21.610  17.258   7.890
  290POPC   C4B 9010  21.341  17.294   7.595
  291POPC   NC3 9011   7.566   5.604   9.516
  291POPC   PO4 9012   7.211   6.199   9.504
  291POPC   GL1 9013   7.298   5.925   9.170
  291POPC   GL2 9014   7.664   5.949   9.148
  291POPC   C1A 9015   7.361   6.072   8.753
  291POPC   D2A 9016   7.567   5.960   8.366
  291POPC   C3A 9017   7.321   5.894   7.966
  291POPC   C4A 9018   7.330   6.036   7.510
  291POPC   C1B 9019   7.910   5.760   8.810
  291POPC   C2B 9020   7.910   5.563   8.405
  291POPC   C3B 9021   7.807   5.711   7.982
  291POPC   C4B 9022   7.603   5.628   7.594
  292POPC   NC3 9023   1.492  23.652   9.481
  292POPC   PO4 9024   0.815  23.373   9.561
  292POPC   GL1 9025   1.127  23.359   9.216
  292POPC   GL2 9026   1.171  23.711   9.071
  292POPC   C1A 9027   1.187  23.327   8.760
  292POPC   D2A 9028   1.187  23.643   8.420
  292POPC   C3A 9029   1.079  23.588   8.021
  292POPC   C4A 9030   1.429  23.655   7.813
  292POPC   C1B 9031   1.517  23.804   8.761
  292POPC   C2B 9032   1.685  23.861   8.303
  292POPC   C3B 9033   1.644  24.117   7.918
  292POPC   C4B 9034   1.425  24.065   7.507
  293POPC   NC3 9035  43.531  26.323   9.427
  293POPC   PO4 9036  44.139  26.270   9.661
  293POPC   GL1 9037  43.966  26.031   9.308
  293POPC   GL2 9038  44.140  26.185   9.044
  293POPC   C1A 9039  43.724  25.963   8.887
  293POPC   D2A 9040  43.825  26.094   8.453
  293POPC   C3A 9041  43.576  25.951   8.100
  293POPC   C4A 9042  43.742  25.870   7.683
  293POPC   C1B 9043  44.158  26.470   8.673
  293POPC   C2B 9044  44.093  26.478   8.202
  293POPC   C3B 9045  44.143  26.175   7.861
  293POPC   C4B 9046  44.227  26.013   7.444
  294POPC   NC3 9047  30.257  27.621   9.438
  294POPC   PO4 9048  29.753  27.362   9.607
  294POPC   GL1 9049  29.701  27.647   9.257
  294POPC   GL2 9050  29.915  27.939   9.182
  294POPC   C1A 9051  29.627  27.680   8.787
  294POPC   D2A 9052  29.580  27.458   8.356
  294POPC   C3A 9053  29.585  27.731   7.974
  294POPC   C4A 9054  29.771  27.874   7.573
  294POPC   C1B 9055  30.122  27.886   8.779
  294POPC   C2B 9056  29.979  27.850   8.353
  294POPC   C3B 9057  30.107  28.001   7.933
  294POPC   C4B 9058  30.278  27.802   7.541
  295POPC   NC3 9059  12.416   0.582   9.479
  295POPC   PO4 9060  13.053   0.381   9.494
  295POPC   GL1 9061  12.781   0.413   9.157
  295POPC   GL2 9062  12.894   0.702   9.116
  295POPC   C1A 9063  12.695   0.355   8.705
  295POPC   D2A 9064  12.769   0.195   8.264
  295POPC   C3A 9065  12.735   0.561   7.972
  295POPC   C4A 9066  12.639   0.588   7.520
  295POPC   C1B 9067  13.148   0.724   8.750
  295POPC   C2B 9068  13.166   0.502   8.380
  295POPC   C3B 9069  13.270   0.617   7.983
  295POPC   C4B 9070  13.194   0.608   7.584
  296POPC   NC3 9071  38.541  14.956   9.510
  296POPC   PO4 9072  38.298  15.593   9.418
  296POPC   GL1 9073  38.578  15.361   9.134
  296POPC   GL2 9074  38.381  15.076   9.044
  296POPC   C1A 9075  38.727  15.227   8.684
  296POPC   D2A 9076  38.437  15.205   8.276
  296POPC   C3A 9077  38.557  15.131   7.855
  296POPC   C4A 9078  38.966  15.077   7.748
  296POPC   C1B 9079  38.203  15.318   8.719
  296POPC   C2B 9080  37.922  15.203   8.357
  296POPC   C3B 9081  38.024  15.109   7.921
  296POPC   C4B 9082  38.192  15.323   7.547
  297POPC   NC3 9083  33.902   3.675   9.648
  297POPC   PO4 9084  33.685   3.125   9.354
  297POPC   GL1 9085  33.928   3.443   9.150
  297POPC   GL2 9086  33.838   3.772   9.158
  297POPC   C1A 9087  33.973   3.602   8.707
  297POPC   D2A 9088  34.203   3.541   8.343
  297POPC   C3A 9089  33.960   3.529   8.018
  297POPC   C4A 9090  33.827   3.399   7.663
  297POPC   C1B 9091  33.614   3.956   8.793
  297POPC   C2B 9092  33.493   3.767   8.406
  297POPC   C3B 9093  33.570   3.871   7.971
  297POPC   C4B 9094  33.726   3.892   7.537
  298POPC   NC3 9095  19.943  26.371   9.550
  298POPC   PO4 9096  19.561  25.831   9.503
  298POPC   GL1 9097  19.909  25.937   9.258
  298POPC   GL2 9098  20.087  25.651   9.196
  298POPC   C1A 9099  19.951  26.201   8.897
  298POPC   D2A 9100  20.081  26.187   8.466
  298POPC   C3A 9101  19.773  26.300   8.159
  298POPC   C4A 9102  19.692  26.181   7.729
  298POPC   C1B 9103  19.848  25.712   8.796
  298POPC   C2B 9104  19.698  25.803   8.393
  298POPC   C3B 9105  19.917  25.816   8.022
  298POPC   C4B 9106  19.870  25.696   7.590
  299POPC   NC3 9107  24.467  39.755   9.739
  299POPC   PO4 9108  24.775  40.206   9.414
  299POPC   GL1 9109  24.580  40.042   9.110
  299POPC   GL2 9110  24.294  39.956   9.291
  299POPC   C1A 9111  24.513  40.184   8.676
  299POPC   D2A 9112  24.519  40.080   8.234
  299POPC   C3A 9113  24.590  40.323   7.876
  299POPC   C4A 9114  24.952  40.148   7.701
  299POPC   C1B 9115  24.171  39.834   8.902
  299POPC   C2B 9116  24.171  39.803   8.484
  299POPC   C3B 9117  24.198  39.750   8.073
  299POPC   C4B 9118  24.547  39.807   7.777
  300POPC   NC3 9119  13.819  12.834   9.432
  300POPC   PO4 9120  13.300  13.169   9.291
  300POPC   GL1 9121  13.497  12.866   9.050
  300POPC   GL2 9122  13.449  12.526   9.178
  300POPC   C1A 9123  13.741  12.931   8.677
  300POPC   D2A 9124  13.877  12.823   8.266
  300POPC   C3A 9125  13.666  12.969   7.863
  300POPC   C4A 9126  13.871  13.120   7.451
  300POPC   C1B 9127  13.557  12.461   8.732
  300POPC   C2B 9128  13.812  12.325   8.389
  300POPC   C3B 9129  13.762  12.434   7.968
  300POPC   C4B 9130  13.392  12.544   7.815
  301POPC   NC3 9131   7.330  42.574   9.495
  301POPC   PO4 9132   7.449  43.284   9.582
  301POPC   GL1 9133   7.402  43.079   9.182
  301POPC   GL2 9134   7.625  42.768   9.096
  301POPC   C1A 9135   7.433  43.213   8.755
  301POPC   D2A 9136   7.567  42.986   8.386
  301POPC   C3A 9137   7.449  43.113   7.943
  301POPC   C4A 9138   7.248  43.466   7.795
  301POPC   C1B 9139   7.260  42.729   8.817
  301POPC   C2B 9140   7.090  42.777   8.434
  301POPC   C3B 9141   7.095  42.785   8.038
  301POPC   C4B 9142   7.256  42.683   7.641
  302POPC   NC3 9143   7.382  43.728   9.650
  302POPC   PO4 9144   7.188  44.325   9.529
  302POPC   GL1 9145   7.365  44.037   9.173
  302POPC   GL2 9146   7.457  43.635   9.153
  302POPC   C1A 9147   7.285  43.899   8.739
  302POPC   D2A 9148   7.335  43.730   8.309
  302POPC   C3A 9149   7.334  43.950   7.915
  302POPC   C4A 9150   7.337  43.860   7.471
  302POPC   C1B 9151   7.774  43.628   8.828
  302POPC   C2B 9152   7.756  43.454   8.428
  302POPC   C3B 9153   7.722  43.556   8.011
  302POPC   C4B 9154   7.753  43.374   7.618
  303POPC   NC3 9155   2.138  42.737   9.372
  303POPC   PO4 9156   1.941  42.118   9.356
  303POPC   GL1 9157   1.871  42.423   9.020
  303POPC   GL2 9158   1.636  42.708   9.127
  303POPC   C1A 9159   2.084  42.357   8.605
  303POPC   D2A 9160   2.402  42.317   8.251
  303POPC   C3A 9161   2.245  42.068   7.935
  303POPC   C4A 9162   1.784  42.026   7.784
  303POPC   C1B 9163   1.502  42.676   8.695
  303POPC   C2B 9164   1.689  42.543   8.305
  303POPC   C3B 9165   1.581  42.676   7.891
  303POPC   C4B 9166   1.735  42.641   7.453
  304POPC   NC3 9167  38.691  39.823   9.662
  304POPC   PO4 9168  38.344  40.413   9.679
  304POPC   GL1 9169  38.270  40.255   9.119
  304POPC   GL2 9170  38.562  39.948   9.029
  304POPC   C1A 9171  38.137  39.950   8.770
  304POPC   D2A 9172  38.457  39.818   8.457
  304POPC   C3A 9173  38.403  39.924   8.007
  304POPC   C4A 9174  38.015  39.787   7.848
  304POPC   C1B 9175  38.672  40.238   8.730
  304POPC   C2B 9176  38.727  40.255   8.283
  304POPC   C3B 9177  38.931  40.271   7.904
  304POPC   C4B 9178  38.785  40.082   7.560
  305POPC   NC3 9179  26.689   0.017   9.898
  305POPC   PO4 9180  26.544  44.460   9.454
  305POPC   GL1 9181  26.766  44.799   9.160
  305POPC   GL2 9182  27.095  44.886   9.308
  305POPC   C1A 9183  26.689  44.938   8.699
  305POPC   D2A 9184  26.381  44.926   8.304
  305POPC   C3A 9185  26.535  44.628   7.966
  305POPC   C4A 9186  26.604  44.206   7.817
  305POPC   C1B 9187  27.172   0.145   8.915
  305POPC   C2B 9188  27.224   0.090   8.443
  305POPC   C3B 9189  27.075   0.169   7.995
  305POPC   C4B 9190  26.916  44.850   7.677
  306POPC   NC3 9191  27.601   9.151   9.579
  306POPC   PO4 9192  27.536   8.512   9.436
  306POPC   GL1 9193  27.428   8.750   9.061
  306POPC   GL2 9194  27.734   8.943   9.111
  306POPC   C1A 9195  27.370   8.851   8.591
  306POPC   D2A 9196  27.668   8.757   8.313
  306POPC   C3A 9197  27.708   8.843   7.889
  306POPC   C4A 9198  27.373   8.955   7.646
  306POPC   C1B 9199  27.458   9.257   8.885
  306POPC   C2B 9200  27.506   9.370   8.455
  306POPC   C3B 9201  27.441   9.304   8.015
  306POPC   C4B 9202  27.801   9.352   7.745
  307POPC   NC3 9203  30.649   6.795   9.887
  307POPC   PO4 9204  30.889   6.527   9.358
  307POPC   GL1 9205  30.629   6.472   9.041
  307POPC   GL2 9206  30.646   6.796   8.882
  307POPC   C1A 9207  30.880   6.331   8.702
  307POPC   D2A 9208  31.092   6.380   8.293
  307POPC   C3A 9209  30.851   6.608   7.961
  307POPC   C4A 9210  30.978   7.005   7.757
  307POPC   C1B 9211  30.635   6.717   8.454
  307POPC   C2B 9212  30.270   6.634   8.191
  307POPC   C3B 9213  30.240   6.463   7.813
  307POPC   C4B 9214  30.470   6.711   7.550
  308POPC   NC3 9215  40.906  30.083   9.437
  308POPC   PO4 9216  40.286  29.716   9.524
  308POPC   GL1 9217  40.688  29.652   9.280
  308POPC   GL2 9218  40.607  29.966   9.053
  308POPC   C1A 9219  40.874  29.578   8.861
  308POPC   D2A 9220  40.765  29.766   8.484
  308POPC   C3A 9221  40.867  29.754   8.065
  308POPC   C4A 9222  41.191  29.756   7.785
  308POPC   C1B 9223  40.667  30.238   8.704
  308POPC   C2B 9224  40.836  30.226   8.293
  308POPC   C3B 9225  40.624  30.141   7.870
  308POPC   C4B 9226  40.384  30.450   7.612
  309POPC   NC3 9227  19.548   0.907   9.441
  309POPC   PO4 9228  19.709   0.228   9.383
  309POPC   GL1 9229  19.996   0.406   9.120
  309POPC   GL2 9230  20.240   0.126   9.149
  309POPC   C1A 9231  19.855   0.523   8.715
  309POPC   D2A 9232  19.692   0.172   8.481
  309POPC   C3A 9233  19.630   0.220   8.045
  309POPC   C4A 9234  19.912   0.339   7.748
  309POPC   C1B 9235  20.314   0.288   8.723
  309POPC   C2B 9236  20.294   0.649   8.452
  309POPC   C3B 9237  20.033   0.715   8.082
  309POPC   C4B 9238  20.234   0.709   7.659
  310POPC   NC3 9239  16.650   4.517   9.468
  310POPC   PO4 9240  16.650   3.937   9.766
  310POPC   GL1 9241  16.809   3.995   9.281
  310POPC   GL2 9242  16.886   4.307   9.106
  310POPC   C1A 9243  16.932   3.923   8.831
  310POPC   D2A 9244  16.848   4.205   8.483
  310POPC   C3A 9245  16.934   4.057   8.070
  310POPC   C4A 9246  16.665   4.118   7.740
  310POPC   C1B 9247  16.617   4.512   8.813
  310POPC   C2B 9248  16.509   4.596   8.390
  310POPC   C3B 9249  16.730   4.640   7.985
  310POPC   C4B 9250  16.734   4.592   7.532
  311POPC   NC3 9251  23.981  43.252   9.453
  311POPC   PO4 9252  23.699  42.579   9.564
  311POPC   GL1 9253  23.731  42.863   9.171
  311POPC   GL2 9254  23.562  43.192   9.145
  311POPC   C1A 9255  23.974  43.052   8.808
  311POPC   D2A 9256  24.072  43.439   8.560
  311POPC   C3A 9257  24.034  43.456   8.108
  311POPC   C4A 9258  24.060  43.180   7.755
  311POPC   C1B 9259  23.590  43.419   8.736
  311POPC   C2B 9260  23.412  43.406   8.307
  311POPC   C3B 9261  23.569  43.182   7.929
  311POPC   C4B 9262  23.647  43.097   7.451
  312POPC   NC3 9263  15.487   2.703   9.455
  312POPC   PO4 9264  16.214   2.539   9.476
  312POPC   GL1 9265  15.980   2.779   9.172
  312POPC   GL2 9266  15.762   3.092   9.207
  312POPC   C1A 9267  16.065   2.782   8.731
  312POPC   D2A 9268  16.138   2.465   8.401
  312POPC   C3A 9269  16.207   2.641   7.961
  312POPC   C4A 9270  15.983   2.954   7.708
  312POPC   C1B 9271  15.659   3.106   8.739
  312POPC   C2B 9272  15.652   2.791   8.392
  312POPC   C3B 9273  15.679   2.464   8.036
  312POPC   C4B 9274  15.788   2.489   7.577
  313POPC   NC3 9275  11.211   6.398   9.827
  313POPC   PO4 9276  11.619   6.783   9.482
  313POPC   GL1 9277  11.325   6.628   9.184
  313POPC   GL2 9278  11.111   6.907   9.081
  313POPC   C1A 9279  11.196   6.514   8.761
  313POPC   D2A 9280  11.467   6.429   8.419
  313POPC   C3A 9281  11.370   6.520   7.996
  313POPC   C4A 9282  11.331   6.387   7.548
  313POPC   C1B 9283  11.090   6.997   8.637
  313POPC   C2B 9284  11.317   6.973   8.306
  313POPC   C3B 9285  11.274   7.134   7.931
  313POPC   C4B 9286  11.300   6.872   7.625
  314POPC   NC3 9287  18.488  16.233   9.557
  314POPC   PO4 9288  18.312  15.673   9.391
  314POPC   GL1 9289  18.460  15.915   9.073
  314POPC   GL2 9290  18.209  16.129   9.121
  314POPC   C1A 9291  18.408  15.854   8.638
  314POPC   D2A 9292  18.438  15.634   8.257
  314POPC   C3A 9293  18.176  15.867   7.973
  314POPC   C4A 9294  18.392  16.028   7.714
  314POPC   C1B 9295  18.296  16.339   8.715
  314POPC   C2B 9296  18.406  16.228   8.267
  314POPC   C3B 9297  18.152  16.413   7.927
  314POPC   C4B 9298  17.961  16.234   7.549
  315POPC   NC3 9299  42.318  25.766   9.230
  315POPC   PO4 9300  42.490  25.125   9.369
  315POPC   GL1 9301  42.363  25.284   9.022
  315POPC   GL2 9302  42.682  25.484   9.008
  315POPC   C1A 9303  42.223  25.089   8.652
  315POPC   D2A 9304  42.149  25.338   8.317
  315POPC   C3A 9305  42.180  25.148   7.930
  315POPC   C4A 9306  42.103  25.321   7.520
  315POPC   C1B 9307  42.527  25.581   8.612
  315POPC   C2B 9308  42.618  25.491   8.200
  315POPC   C3B 9309  42.534  25.492   7.770
  315POPC   C4B 9310  42.540  25.495   7.331
  316POPC   NC3 9311   5.008   4.836   9.897
  316POPC   PO4 9312   5.482   5.250   9.630
  316POPC   GL1 9313   5.186   5.271   9.265
  316POPC   GL2 9314   5.047   4.947   9.179
  316POPC   C1A 9315   5.125   5.252   8.790
  316POPC   D2A 9316   4.808   5.273   8.462
  316POPC   C3A 9317   4.966   5.335   8.029
  316POPC   C4A 9318   5.193   5.250   7.630
  316POPC   C1B 9319   5.131   4.740   8.807
  316POPC   C2B 9320   5.199   4.919   8.407
  316POPC   C3B 9321   5.130   4.845   8.012
  316POPC   C4B 9322   5.193   4.541   7.714
  317POPC   NC3 9323  19.240  25.763   9.181
  317POPC   PO4 9324  18.972  26.284   9.551
  317POPC   GL1 9325  18.818  26.236   9.164
  317POPC   GL2 9326  18.749  25.891   9.204
  317POPC   C1A 9327  19.042  26.283   8.783
  317POPC   D2A 9328  19.159  26.407   8.381
  317POPC   C3A 9329  19.282  26.091   8.092
  317POPC   C4A 9330  19.186  26.158   7.675
  317POPC   C1B 9331  18.743  25.867   8.750
  317POPC   C2B 9332  18.720  26.127   8.378
  317POPC   C3B 9333  18.753  26.056   7.948
  317POPC   C4B 9334  18.777  25.641   7.745
  318POPC   NC3 9335  27.405   2.728   9.679
  318POPC   PO4 9336  27.978   2.905   9.375
  318POPC   GL1 9337  27.623   2.745   9.123
  318POPC   GL2 9338  27.352   2.527   9.220
  318POPC   C1A 9339  27.457   3.004   8.761
  318POPC   D2A 9340  27.332   2.949   8.348
  318POPC   C3A 9341  27.659   2.969   8.027
  318POPC   C4A 9342  27.677   2.699   7.665
  318POPC   C1B 9343  27.447   2.416   8.783
  318POPC   C2B 9344  27.347   2.237   8.374
  318POPC   C3B 9345  27.372   2.518   8.023
  318POPC   C4B 9346  27.180   2.591   7.623
  319POPC   NC3 9347  40.095  36.692   9.563
  319POPC   PO4 9348  39.709  36.467   9.157
  319POPC   GL1 9349  39.850  36.847   9.027
  319POPC   GL2 9350  40.184  36.849   9.087
  319POPC   C1A 9351  39.915  36.806   8.588
  319POPC   D2A 9352  39.617  36.683   8.240
  319POPC   C3A 9353  39.803  36.824   7.841
  319POPC   C4A 9354  39.735  36.680   7.434
  319POPC   C1B 9355  40.254  37.162   8.787
  319POPC   C2B 9356  40.383  37.046   8.404
  319POPC   C3B 9357  40.228  37.108   8.031
  319POPC   C4B 9358  40.241  37.156   7.634
  320POPC   NC3 9359  25.986   1.405   9.627
  320POPC   PO4 9360  26.356   0.952   9.296
  320POPC   GL1 9361  26.055   1.043   9.029
  320POPC   GL2 9362  25.915   1.363   9.122
  320POPC   C1A 9363  26.089   0.935   8.622
  320POPC   D2A 9364  25.964   1.157   8.304
  320POPC   C3A 9365  26.100   1.084   7.909
  320POPC   C4A 9366  26.035   1.477   7.708
  320POPC   C1B 9367  26.124   1.455   8.743
  320POPC   C2B 9368  26.306   1.539   8.369
  320POPC   C3B 9369  26.461   1.434   7.994
  320POPC   C4B 9370  26.520   1.387   7.545
  321POPC   NC3 9371  32.790   7.990   9.396
  321POPC   PO4 9372  33.099   8.583   9.461
  321POPC   GL1 9373  33.151   8.321   9.109
  321POPC   GL2 9374  33.429   8.041   9.107
  321POPC   C1A 9375  32.862   8.210   8.764
  321POPC   D2A 9376  32.948   7.925   8.375
  321POPC   C3A 9377  32.801   8.037   7.936
  321POPC   C4A 9378  32.787   8.406   7.635
  321POPC   C1B 9379  33.350   8.168   8.657
  321POPC   C2B 9380  33.131   8.421   8.370
  321POPC   C3B 9381  33.192   8.376   7.960
  321POPC   C4B 9382  33.318   7.999   7.785
  322POPC   NC3 9383  39.726  29.387   9.535
  322POPC   PO4 9384  40.160  28.900   9.679
  322POPC   GL1 9385  39.955  29.179   9.150
  322POPC   GL2 9386  39.722  28.976   8.916
  322POPC   C1A 9387  39.938  29.365   8.689
  322POPC   D2A 9388  40.099  29.333   8.287
  322POPC   C3A 9389  39.933  29.164   7.937
  322POPC   C4A 9390  39.750  29.315   7.558
  322POPC   C1B 9391  40.114  28.894   8.632
  322POPC   C2B 9392  40.313  28.862   8.226
  322POPC   C3B 9393  40.437  29.092   7.850
  322POPC   C4B 9394  40.213  29.067   7.466
  323POPC   NC3 9395  17.090   3.833   9.657
  323POPC   PO4 9396  16.667   3.330   9.430
  323POPC   GL1 9397  16.812   3.506   9.102
  323POPC   GL2 9398  17.152   3.596   9.199
  323POPC   C1A 9399  16.540   3.632   8.763
  323POPC   D2A 9400  16.649   3.758   8.372
  323POPC   C3A 9401  16.512   3.668   7.988
  323POPC   C4A 9402  16.811   3.631   7.700
  323POPC   C1B 9403  17.259   3.317   8.853
  323POPC   C2B 9404  17.098   3.160   8.459
  323POPC   C3B 9405  17.023   3.355   8.054
  323POPC   C4B 9406  17.261   3.416   7.635
  324POPC   NC3 9407  12.307   2.249   9.571
  324POPC   PO4 9408  11.909   1.716   9.615
  324POPC   GL1 9409  12.116   1.899   9.243
  324POPC   GL2 9410  11.803   1.869   9.077
  324POPC   C1A 9411  12.402   2.061   8.889
  324POPC   D2A 9412  12.323   2.306   8.475
  324POPC   C3A 9413  12.166   2.145   8.071
  324POPC   C4A 9414  12.270   2.209   7.612
  324POPC   C1B 9415  11.954   1.961   8.646
  324POPC   C2B 9416  11.933   1.677   8.276
  324POPC   C3B 9417  11.801   1.803   7.894
  324POPC   C4B 9418  11.760   2.204   7.730
  325POPC   NC3 9419  24.888  39.580   9.381
  325POPC   PO4 9420  25.437  39.110   9.607
  325POPC   GL1 9421  25.350  39.369   9.269
  325POPC   GL2 9422  25.134  39.151   9.154
  325POPC   C1A 9423  25.390  39.654   8.905
  325POPC   D2A 9424  25.235  39.605   8.479
  325POPC   C3A 9425  25.510  39.679   8.158
  325POPC   C4A 9426  25.692  39.471   7.851
  325POPC   C1B 9427  24.967  39.257   8.748
  325POPC   C2B 9428  25.000  39.155   8.317
  325POPC   C3B 9429  25.136  39.272   7.915
  325POPC   C4B 9430  24.798  39.401   7.649
  326POPC   NC3 9431  11.457  38.320   9.736
  326POPC   PO4 9432  12.086  38.415   9.833
  326POPC   GL1 9433  12.180  38.437   9.314
  326POPC   GL2 9434  12.513  38.314   9.306
  326POPC   C1A 9435  12.075  38.651   8.864
  326POPC   D2A 9436  11.877  38.834   8.456
  326POPC   C3A 9437  12.001  38.591   8.119
  326POPC   C4A 9438  11.935  38.439   7.749
  326POPC   C1B 9439  12.485  38.327   8.841
  326POPC   C2B 9440  12.528  38.177   8.394
  326POPC   C3B 9441  12.313  38.155   7.985
  326POPC   C4B 9442  12.422  38.421   7.593
  327POPC   NC3 9443   4.528  43.039   9.631
  327POPC   PO4 9444   4.029  43.377   9.533
  327POPC   GL1 9445   4.282  43.163   9.207
  327POPC   GL2 9446   4.311  42.778   9.202
  327POPC   C1A 9447   4.441  43.135   8.807
  327POPC   D2A 9448   4.448  42.998   8.405
  327POPC   C3A 9449   4.201  43.153   8.069
  327POPC   C4A 9450   4.439  43.253   7.741
  327POPC   C1B 9451   4.171  42.671   8.757
  327POPC   C2B 9452   4.281  42.530   8.319
  327POPC   C3B 9453   4.140  42.578   7.898
  327POPC   C4B 9454   4.072  42.914   7.603
  328POPC   NC3 9455  43.819   7.837   9.500
  328POPC   PO4 9456  44.230   7.328   9.476
  328POPC   GL1 9457  44.057   7.540   9.147
  328POPC   GL2 9458  43.673   7.484   9.128
  328POPC   C1A 9459  43.952   7.687   8.756
  328POPC   D2A 9460  43.947   7.457   8.378
  328POPC   C3A 9461  43.887   7.707   8.000
  328POPC   C4A 9462  43.508   7.657   7.740
  328POPC   C1B 9463  43.800   7.155   8.799
  328POPC   C2B 9464  43.886   6.947   8.382
  328POPC   C3B 9465  43.839   7.173   7.953
  328POPC   C4B 9466  43.717   7.095   7.508
  329POPC   NC3 9467  36.894  26.543   9.884
  329POPC   PO4 9468  37.033  27.144   9.572
  329POPC   GL1 9469  36.958  27.065   9.144
  329POPC   GL2 9470  36.825  26.736   9.014
  329POPC   C1A 9471  36.752  27.169   8.737
  329POPC   D2A 9472  36.927  27.047   8.306
  329POPC   C3A 9473  36.734  27.050   7.879
  329POPC   C4A 9474  36.525  26.822   7.509
  329POPC   C1B 9475  37.167  26.856   8.723
  329POPC   C2B 9476  37.338  26.717   8.321
  329POPC   C3B 9477  37.229  26.880   7.902
  329POPC   C4B 9478  37.018  26.693   7.562
  330POPC   NC3 9479   9.180  30.193   9.559
  330POPC   PO4 9480   8.997  29.628   9.543
  330POPC   GL1 9481   8.757  29.722   9.133
  330POPC   GL2 9482   8.845  30.059   9.173
  330POPC   C1A 9483   8.660  29.635   8.660
  330POPC   D2A 9484   8.817  29.391   8.263
  330POPC   C3A 9485   8.928  29.620   7.875
  330POPC   C4A 9486   8.855  29.624   7.430
  330POPC   C1B 9487   8.970  30.048   8.736
  330POPC   C2B 9488   8.932  30.014   8.279
  330POPC   C3B 9489   9.102  30.103   7.872
  330POPC   C4B 9490   9.003  30.115   7.441
  331POPC   NC3 9491  43.824   9.578   9.437
  331POPC   PO4 9492  43.724  10.227   9.460
  331POPC   GL1 9493  43.746   9.985   9.113
  331POPC   GL2 9494  44.104   9.836   9.076
  331POPC   C1A 9495  43.741   9.762   8.752
  331POPC   D2A 9496  44.033   9.752   8.466
  331POPC   C3A 9497  43.851   9.486   8.182
  331POPC   C4A 9498  43.641   9.643   7.849
  331POPC   C1B 9499  44.228   9.452   8.840
  331POPC   C2B 9500  44.337   9.352   8.396
  331POPC   C3B 9501  44.315   9.562   7.992
  331POPC   C4B 9502  44.052   9.456   7.662
  332POPC   NC3 9503  33.337  20.957   9.461
  332POPC   PO4 9504  33.929  21.041   9.771
  332POPC   GL1 9505  33.830  21.127   9.313
  332POPC   GL2 9506  33.918  21.494   9.231
  332POPC   C1A 9507  33.678  21.216   8.871
  332POPC   D2A 9508  33.572  21.281   8.427
  332POPC   C3A 9509  33.789  21.142   8.053
  332POPC   C4A 9510  33.992  21.290   7.657
  332POPC   C1B 9511  33.992  21.602   8.759
  332POPC   C2B 9512  33.969  21.580   8.285
  332POPC   C3B 9513  33.674  21.614   7.912
  332POPC   C4B 9514  33.656  21.627   7.441
  333POPC   NC3 9515  44.798  20.724   9.596
  333POPC   PO4 9516  44.125  20.382   9.680
  333POPC   GL1 9517  44.469  20.404   9.343
  333POPC   GL2 9518  44.534  20.747   9.174
  333POPC   C1A 9519  44.535  20.295   8.910
  333POPC   D2A 9520  44.612  20.465   8.488
  333POPC   C3A 9521  44.327  20.391   8.154
  333POPC   C4A 9522  44.423  20.466   7.721
  333POPC   C1B 9523  44.812  20.830   8.786
  333POPC   C2B 9524  44.837  21.043   8.361
  333POPC   C3B 9525  44.641  20.968   7.916
  333POPC   C4B 9526  44.763  20.783   7.502
  334POPC   NC3 9527   0.284  17.711   9.323
  334POPC   PO4 9528   0.593  17.174   9.618
  334POPC   GL1 9529   0.539  17.277   9.203
  334POPC   GL2 9530   0.164  17.187   9.281
  334POPC   C1A 9531   0.636  17.473   8.770
  334POPC   D2A 9532   0.453  17.712   8.428
  334POPC   C3A 9533   0.580  17.676   8.020
  334POPC   C4A 9534   0.638  17.287   7.806
  334POPC   C1B 9535   0.184  17.247   8.846
  334POPC   C2B 9536   0.052  17.393   8.455
  334POPC   C3B 9537   0.201  17.296   8.046
  334POPC   C4B 9538   0.009  17.252   7.658
  335POPC   NC3 9539  24.217  13.170   9.388
  335POPC   PO4 9540  24.200  12.551   9.516
  335POPC   GL1 9541  24.504  12.682   9.183
  335POPC   GL2 9542  24.627  13.020   9.131
  335POPC   C1A 9543  24.535  12.749   8.727
  335POPC   D2A 9544  24.738  12.872   8.360
  335POPC   C3A 9545  24.454  12.857   8.033
  335POPC   C4A 9546  24.101  12.917   7.786
  335POPC   C1B 9547  24.824  13.225   8.786
  335POPC   C2B 9548  24.684  13.416   8.416
  335POPC   C3B 9549  24.734  13.274   8.033
  335POPC   C4B 9550  24.782  13.030   7.702
  336POPC   NC3 9551  14.050   1.649   9.370
  336POPC   PO4 9552  14.384   1.132   9.577
  336POPC   GL1 9553  14.308   1.148   9.171
  336POPC   GL2 9554  14.102   0.882   9.068
  336POPC   C1A 9555  14.524   1.026   8.805
  336POPC   D2A 9556  14.548   1.220   8.403
  336POPC   C3A 9557  14.437   1.137   7.987
  336POPC   C4A 9558  14.456   1.401   7.651
  336POPC   C1B 9559  14.055   1.119   8.659
  336POPC   C2B 9560  13.986   1.238   8.234
  336POPC   C3B 9561  13.970   1.259   7.781
  336POPC   C4B 9562  14.130   1.123   7.407
  337POPC   NC3 9563  44.175  41.979   9.407
  337POPC   PO4 9564  43.739  42.513   9.510
  337POPC   GL1 9565  43.775  42.471   9.109
  337POPC   GL2 9566  44.135  42.445   9.150
  337POPC   C1A 9567  43.799  42.193   8.761
  337POPC   D2A 9568  44.008  42.289   8.382
  337POPC   C3A 9569  43.805  42.336   7.991
  337POPC   C4A 9570  43.981  42.538   7.657
  337POPC   C1B 9571  44.298  42.252   8.809
  337POPC   C2B 9572  44.332  41.915   8.548
  337POPC   C3B 9573  44.322  41.914   8.100
  337POPC   C4B 9574  44.264  42.093   7.672
  338POPC   NC3 9575  18.959  33.052   9.613
  338POPC   PO4 9576  18.733  32.476   9.669
  338POPC   GL1 9577  18.905  32.646   9.216
  338POPC   GL2 9578  19.130  32.979   9.145
  338POPC   C1A 9579  18.944  32.719   8.736
  338POPC   D2A 9580  18.662  32.657   8.365
  338POPC   C3A 9581  18.787  32.723   7.921
  338POPC   C4A 9582  18.877  32.581   7.504
  338POPC   C1B 9583  19.266  33.103   8.733
  338POPC   C2B 9584  19.084  33.042   8.315
  338POPC   C3B 9585  19.145  33.110   7.868
  338POPC   C4B 9586  19.319  33.361   7.548
  339POPC   NC3 9587  41.241   9.063  10.055
  339POPC   PO4 9588  41.542   8.621   9.654
  339POPC   GL1 9589  41.528   8.548   9.186
  339POPC   GL2 9590  41.856   8.593   9.065
  339POPC   C1A 9591  41.405   8.721   8.747
  339POPC   D2A 9592  41.273   8.591   8.312
  339POPC   C3A 9593  41.309   8.812   7.899
  339POPC   C4A 9594  41.293   9.263   7.786
  339POPC   C1B 9595  41.808   8.431   8.625
  339POPC   C2B 9596  41.785   8.628   8.195
  339POPC   C3B 9597  41.878   8.804   7.780
  339POPC   C4B 9598  41.920   8.673   7.344
  340POPC   NC3 9599  10.226  34.883   9.318
  340POPC   PO4 9600  10.651  35.408   9.528
  340POPC   GL1 9601  10.365  35.381   9.182
  340POPC   GL2 9602  10.571  35.127   9.027
  340POPC   C1A 9603  10.428  35.540   8.752
  340POPC   D2A 9604  10.760  35.471   8.453
  340POPC   C3A 9605  10.612  35.591   8.049
  340POPC   C4A 9606  10.729  35.446   7.649
  340POPC   C1B 9607  10.307  35.016   8.673
  340POPC   C2B 9608  10.312  35.270   8.316
  340POPC   C3B 9609  10.353  35.178   7.880
  340POPC   C4B 9610  10.135  34.823   7.714
  341POPC   NC3 9611  11.194  20.329   9.453
  341POPC   PO4 9612  11.008  20.944   9.568
  341POPC   GL1 9613  11.116  20.757   9.162
  341POPC   GL2 9614  11.441  20.848   9.061
  341POPC   C1A 9615  11.065  20.733   8.687
  341POPC   D2A 9616  11.299  20.497   8.340
  341POPC   C3A 9617  11.307  20.581   7.869
  341POPC   C4A 9618  11.192  20.551   7.389
  341POPC   C1B 9619  11.559  20.816   8.663
  341POPC   C2B 9620  11.441  20.993   8.282
  341POPC   C3B 9621  11.726  20.935   7.929
  341POPC   C4B 9622  11.598  20.815   7.528
  342POPC   NC3 9623   2.038  14.929   9.467
  342POPC   PO4 9624   1.933  15.602   9.509
  342POPC   GL1 9625   2.095  15.344   9.159
  342POPC   GL2 9626   1.848  15.057   9.015
  342POPC   C1A 9627   2.126  15.353   8.701
  342POPC   D2A 9628   2.029  15.020   8.387
  342POPC   C3A 9629   2.091  15.173   7.969
  342POPC   C4A 9630   2.397  15.486   7.855
  342POPC   C1B 9631   1.741  14.719   8.703
  342POPC   C2B 9632   1.639  14.714   8.249
  342POPC   C3B 9633   1.697  14.850   7.815
  342POPC   C4B 9634   1.842  14.846   7.372
  343POPC   NC3 9635   7.594  20.137   9.574
  343POPC   PO4 9636   7.460  19.541   9.256
  343POPC   GL1 9637   7.486  19.983   9.068
  343POPC   GL2 9638   7.791  20.220   9.133
  343POPC   C1A 9639   7.480  19.986   8.614
  343POPC   D2A 9640   7.265  19.788   8.318
  343POPC   C3A 9641   7.359  19.646   7.977
  343POPC   C4A 9642   7.281  19.937   7.698
  343POPC   C1B 9643   7.669  20.420   8.798
  343POPC   C2B 9644   7.840  20.293   8.426
  343POPC   C3B 9645   7.626  20.128   8.074
  343POPC   C4B 9646   7.784  19.840   7.785
  344POPC   NC3 9647  42.926  11.160   9.479
  344POPC   PO4 9648  43.321  11.675   9.695
  344POPC   GL1 9649  43.284  11.552   9.242
  344POPC   GL2 9650  42.992  11.429   9.059
  344POPC   C1A 9651  43.394  11.545   8.778
  344POPC   D2A 9652  43.271  11.204   8.518
  344POPC   C3A 9653  43.258  11.229   8.084
  344POPC   C4A 9654  43.243  11.562   7.777
  344POPC   C1B 9655  42.856  11.145   8.796
  344POPC   C2B 9656  42.771  11.139   8.361
  344POPC   C3B 9657  42.783  11.354   7.960
  344POPC   C4B 9658  42.883  11.280   7.546
  345POPC   NC3 9659  15.639   9.895   9.648
  345POPC   PO4 9660  16.080   9.448   9.665
  345POPC   GL1 9661  15.908   9.645   9.298
  345POPC   GL2 9662  15.992   9.978   9.239
  345POPC   C1A 9663  15.926   9.640   8.857
  345POPC   D2A 9664  15.709   9.725   8.497
  345POPC   C3A 9665  15.919   9.589   8.126
  345POPC   C4A 9666  15.902   9.626   7.688
  345POPC   C1B 9667  16.169  10.106   8.867
  345POPC   C2B 9668  16.158   9.954   8.450
  345POPC   C3B 9669  16.008  10.082   8.025
  345POPC   C4B 9670  15.684  10.101   7.709
  346POPC   NC3 9671  25.687  28.595   9.583
  346POPC   PO4 9672  26.345  28.328   9.493
  346POPC   GL1 9673  26.210  28.392   9.086
  346POPC   GL2 9674  25.877  28.465   9.106
  346POPC   C1A 9675  26.213  28.525   8.684
  346POPC   D2A 9676  26.370  28.785   8.384
  346POPC   C3A 9677  26.259  28.576   8.026
  346POPC   C4A 9678  26.282  28.369   7.654
  346POPC   C1B 9679  25.695  28.576   8.699
  346POPC   C2B 9680  25.780  28.405   8.273
  346POPC   C3B 9681  25.791  28.509   7.816
  346POPC   C4B 9682  25.852  28.265   7.415
  347POPC   NC3 9683   7.702  34.937   9.445
  347POPC   PO4 9684   7.356  35.549   9.470
  347POPC   GL1 9685   7.525  35.437   9.095
  347POPC   GL2 9686   7.343  35.132   9.100
  347POPC   C1A 9687   7.328  35.477   8.693
  347POPC   D2A 9688   7.204  35.378   8.273
  347POPC   C3A 9689   7.353  35.656   7.944
  347POPC   C4A 9690   7.164  35.756   7.519
  347POPC   C1B 9691   7.557  35.010   8.739
  347POPC   C2B 9692   7.587  35.021   8.325
  347POPC   C3B 9693   7.562  35.197   7.932
  347POPC   C4B 9694   7.719  35.099   7.557
  348POPC   NC3 9695   3.339   9.391   9.349
  348POPC   PO4 9696   2.869   9.001   9.594
  348POPC   GL1 9697   2.701   8.990   9.194
  348POPC   GL2 9698   2.847   9.314   9.168
  348POPC   C1A 9699   2.820   8.844   8.809
  348POPC   D2A 9700   2.665   8.669   8.444
  348POPC   C3A 9701   2.725   8.862   8.029
  348POPC   C4A 9702   2.532   8.980   7.654
  348POPC   C1B 9703   2.915   9.465   8.755
  348POPC   C2B 9704   2.835   9.222   8.392
  348POPC   C3B 9705   2.950   9.333   7.979
  348POPC   C4B 9706   3.093   9.207   7.607
  349POPC   NC3 9707  32.948  19.522   9.596
  349POPC   PO4 9708  32.604  18.947   9.620
  349POPC   GL1 9709  32.757  19.136   9.203
  349POPC   GL2 9710  33.003  19.358   9.095
  349POPC   C1A 9711  32.744  19.171   8.721
  349POPC   D2A 9712  32.980  19.022   8.360
  349POPC   C3A 9713  32.909  19.179   7.927
  349POPC   C4A 9714  33.096  18.986   7.530
  349POPC   C1B 9715  33.264  19.283   8.715
  349POPC   C2B 9716  33.267  19.428   8.267
  349POPC   C3B 9717  33.374  19.365   7.804
  349POPC   C4B 9718  33.395  19.351   7.325
  350POPC   NC3 9719  33.128  41.651   9.545
  350POPC   PO4 9720  32.506  41.414   9.499
  350POPC   GL1 9721  32.815  41.444   9.190
  350POPC   GL2 9722  32.738  41.796   9.118
  350POPC   C1A 9723  32.815  41.330   8.758
  350POPC   D2A 9724  32.861  41.556   8.343
  350POPC   C3A 9725  33.005  41.403   7.932
  350POPC   C4A 9726  32.831  41.642   7.573
  350POPC   C1B 9727  33.036  41.797   8.781
  350POPC   C2B 9728  33.315  41.936   8.455
  350POPC   C3B 9729  33.163  41.864   8.033
  350POPC   C4B 9730  33.210  41.965   7.650
  351POPC   NC3 9731  25.096  16.104   9.560
  351POPC   PO4 9732  25.316  15.539   9.524
  351POPC   GL1 9733  25.380  15.890   9.195
  351POPC   GL2 9734  25.078  16.058   9.048
  351POPC   C1A 9735  25.486  16.080   8.762
  351POPC   D2A 9736  25.187  15.965   8.423
  351POPC   C3A 9737  25.217  16.010   7.979
  351POPC   C4A 9738  25.338  15.827   7.602
  351POPC   C1B 9739  24.774  16.085   8.692
  351POPC   C2B 9740  24.792  16.225   8.224
  351POPC   C3B 9741  24.947  16.423   7.832
  351POPC   C4B 9742  25.234  16.314   7.475
  352POPC   NC3 9743  37.300  33.891   9.642
  352POPC   PO4 9744  36.648  33.925   9.629
  352POPC   GL1 9745  36.903  33.843   9.229
  352POPC   GL2 9746  37.175  33.560   9.276
  352POPC   C1A 9747  36.905  33.937   8.751
  352POPC   D2A 9748  36.852  33.703   8.325
  352POPC   C3A 9749  36.845  33.955   7.933
  352POPC   C4A 9750  36.921  34.026   7.495
  352POPC   C1B 9751  37.356  33.756   8.939
  352POPC   C2B 9752  37.345  33.661   8.517
  352POPC   C3B 9753  37.297  33.653   8.088
  352POPC   C4B 9754  37.207  33.646   7.655
  353POPC   NC3 9755  22.315  22.943   9.455
  353POPC   PO4 9756  21.687  22.717   9.513
  353POPC   GL1 9757  21.906  22.820   9.125
  353POPC   GL2 9758  22.134  22.586   9.075
  353POPC   C1A 9759  22.013  22.957   8.680
  353POPC   D2A 9760  22.025  22.833   8.231
  353POPC   C3A 9761  22.165  23.199   7.949
  353POPC   C4A 9762  22.458  23.207   7.571
  353POPC   C1B 9763  21.842  22.485   8.714
  353POPC   C2B 9764  21.711  22.330   8.299
  353POPC   C3B 9765  21.794  22.460   7.881
  353POPC   C4B 9766  22.108  22.759   7.709
  354POPC   NC3 9767  40.682  17.096   9.449
  354POPC   PO4 9768  41.259  16.808   9.562
  354POPC   GL1 9769  41.069  16.939   9.138
  354POPC   GL2 9770  40.759  16.710   9.078
  354POPC   C1A 9771  40.993  16.879   8.661
  354POPC   D2A 9772  40.882  16.642   8.292
  354POPC   C3A 9773  40.848  16.808   7.864
  354POPC   C4A 9774  40.707  16.568   7.489
  354POPC   C1B 9775  40.501  16.732   8.679
  354POPC   C2B 9776  40.434  16.909   8.255
  354POPC   C3B 9777  40.350  16.813   7.795
  354POPC   C4B 9778  40.448  16.986   7.394
  355POPC   NC3 9779   1.604  11.899   9.376
  355POPC   PO4 9780   2.149  12.199   9.562
  355POPC   GL1 9781   2.061  12.011   9.171
  355POPC   GL2 9782   2.324  11.810   9.045
  355POPC   C1A 9783   1.811  12.021   8.778
  355POPC   D2A 9784   1.567  11.891   8.420
  355POPC   C3A 9785   1.867  11.975   8.101
  355POPC   C4A 9786   2.093  11.915   7.698
  355POPC   C1B 9787   2.319  12.202   8.768
  355POPC   C2B 9788   2.320  12.261   8.311
  355POPC   C3B 9789   2.151  12.361   7.910
  355POPC   C4B 9790   2.320  12.334   7.491
  356POPC   NC3 9791  11.605  33.765   9.459
  356POPC   PO4 9792  11.119  33.982   9.818
  356POPC   GL1 9793  11.143  34.023   9.265
  356POPC   GL2 9794  11.431  34.125   9.116
  356POPC   C1A 9795  11.222  33.799   8.799
  356POPC   D2A 9796  11.160  33.659   8.319
  356POPC   C3A 9797  11.439  33.648   7.920
  356POPC   C4A 9798  11.525  33.623   7.476
  356POPC   C1B 9799  11.562  34.154   8.704
  356POPC   C2B 9800  11.242  34.171   8.404
  356POPC   C3B 9801  11.230  34.089   8.006
  356POPC   C4B 9802  11.542  34.166   7.752
  357POPC   NC3 9803   5.291  43.319   9.564
  357POPC   PO4 9804   4.860  42.713   9.563
  357POPC   GL1 9805   4.999  43.014   9.246
  357POPC   GL2 9806   5.370  43.036   9.144
  357POPC   C1A 9807   4.948  43.086   8.800
  357POPC   D2A 9808   4.997  43.280   8.401
  357POPC   C3A 9809   4.826  43.024   8.075
  357POPC   C4A 9810   4.888  43.051   7.655
  357POPC   C1B 9811   5.401  43.318   8.789
  357POPC   C2B 9812   5.523  43.267   8.350
  357POPC   C3B 9813   5.295  43.231   7.962
  357POPC   C4B 9814   5.490  43.437   7.636
  358POPC   NC3 9815   3.424  10.818   9.486
  358POPC   PO4 9816   3.705  10.209   9.606
  358POPC   GL1 9817   3.655  10.456   9.229
  358POPC   GL2 9818   3.937  10.662   9.139
  358POPC   C1A 9819   3.318  10.423   8.893
  358POPC   D2A 9820   3.242  10.329   8.447
  358POPC   C3A 9821   3.359  10.592   8.106
  358POPC   C4A 9822   3.305  10.539   7.682
  358POPC   C1B 9823   3.771  10.619   8.751
  358POPC   C2B 9824   3.773  10.497   8.364
  358POPC   C3B 9825   3.824  10.753   7.988
  358POPC   C4B 9826   3.749  10.789   7.587
  359POPC   NC3 9827  24.669  44.287   9.454
  359POPC   PO4 9828  24.066  44.643   9.450
  359POPC   GL1 9829  24.388  44.600   9.140
  359POPC   GL2 9830  24.277  44.236   9.124
  359POPC   C1A 9831  24.669  44.644   8.757
  359POPC   D2A 9832  24.874  44.479   8.363
  359POPC   C3A 9833  24.692  44.582   7.932
  359POPC   C4A 9834  24.702  44.537   7.456
  359POPC   C1B 9835  24.262  44.329   8.710
  359POPC   C2B 9836  24.342  44.485   8.322
  359POPC   C3B 9837  24.200  44.336   7.946
  359POPC   C4B 9838  24.191  44.405   7.521
  360POPC   NC3 9839  38.163  29.823   9.485
  360POPC   PO4 9840  38.767  30.160   9.423
  360POPC   GL1 9841  38.519  29.940   9.116
  360POPC   GL2 9842  38.212  30.176   9.110
  360POPC   C1A 9843  38.309  29.807   8.728
  360POPC   D2A 9844  38.260  29.498   8.390
  360POPC   C3A 9845  38.597  29.595   8.136
  360POPC   C4A 9846  38.794  29.759   7.794
  360POPC   C1B 9847  38.116  30.305   8.687
  360POPC   C2B 9848  38.053  30.160   8.274
  360POPC   C3B 9849  38.258  29.966   7.920
  360POPC   C4B 9850  38.063  29.885   7.529
  361POPC   NC3 9851  10.084  22.169   9.505
  361POPC   PO4 9852   9.529  21.968   9.478
  361POPC   GL1 9853   9.767  22.016   9.115
  361POPC   GL2 9854   9.928  22.362   9.064
  361POPC   C1A 9855   9.637  22.144   8.712
  361POPC   D2A 9856   9.770  22.241   8.319
  361POPC   C3A 9857   9.473  22.105   8.055
  361POPC   C4A 9858   9.581  22.096   7.647
  361POPC   C1B 9859   9.993  22.566   8.659
  361POPC   C2B 9860  10.016  22.667   8.203
  361POPC   C3B 9861   9.749  22.524   7.892
  361POPC   C4B 9862   9.330  22.569   7.873
  362POPC   NC3 9863  37.401  36.945   9.374
  362POPC   PO4 9864  38.080  36.582   9.350
  362POPC   GL1 9865  37.755  36.691   9.082
  362POPC   GL2 9866  37.835  37.034   8.998
  362POPC   C1A 9867  37.514  36.756   8.715
  362POPC   D2A 9868  37.656  36.990   8.365
  362POPC   C3A 9869  37.515  36.826   7.969
  362POPC   C4A 9870  37.726  36.531   7.698
  362POPC   C1B 9871  37.527  37.275   8.786
  362POPC   C2B 9872  37.432  37.466   8.398
  362POPC   C3B 9873  37.644  37.374   8.027
  362POPC   C4B 9874  37.581  37.230   7.645
  363POPC   NC3 9875  14.369  22.879   9.647
  363POPC   PO4 9876  14.873  23.250   9.438
  363POPC   GL1 9877  14.493  23.230   9.162
  363POPC   GL2 9878  14.574  22.932   9.136
  363POPC   C1A 9879  14.219  22.956   8.814
  363POPC   D2A 9880  14.179  22.593   8.512
  363POPC   C3A 9881  14.158  22.743   8.074
  363POPC   C4A 9882  14.305  22.874   7.654
  363POPC   C1B 9883  14.664  22.697   8.768
  363POPC   C2B 9884  14.595  22.867   8.362
  363POPC   C3B 9885  14.665  22.678   7.980
  363POPC   C4B 9886  14.829  22.748   7.604
  364POPC   NC3 9887  39.956  41.148   9.516
  364POPC   PO4 9888  40.043  40.403   9.645
  364POPC   GL1 9889  39.883  40.427   9.195
  364POPC   GL2 9890  39.962  40.774   9.151
  364POPC   C1A 9891  39.759  40.347   8.733
  364POPC   D2A 9892  39.839  40.467   8.306
  364POPC   C3A 9893  39.925  40.551   7.877
  364POPC   C4A 9894  40.187  40.892   7.707
  364POPC   C1B 9895  39.855  40.847   8.701
  364POPC   C2B 9896  39.538  40.868   8.392
  364POPC   C3B 9897  39.704  40.999   8.015
  364POPC   C4B 9898  39.705  41.173   7.634
  365POPC   NC3 9899   6.753   6.186   9.489
  365POPC   PO4 9900   6.209   5.802   9.534
  365POPC   GL1 9901   6.521   5.809   9.232
  365POPC   GL2 9902   6.373   6.134   9.146
  365POPC   C1A 9903   6.807   5.898   8.855
  365POPC   D2A 9904   7.024   5.885   8.422
  365POPC   C3A 9905   6.805   5.859   8.016
  365POPC   C4A 9906   6.951   5.700   7.605
  365POPC   C1B 9907   6.258   5.848   8.811
  365POPC   C2B 9908   6.469   5.838   8.420
  365POPC   C3B 9909   6.345   6.117   8.088
  365POPC   C4B 9910   6.497   6.276   7.696
  366POPC   NC3 9911  22.227  13.076   9.454
  366POPC   PO4 9912  22.323  12.448   9.493
  366POPC   GL1 9913  22.265  12.664   9.077
  366POPC   GL2 9914  22.033  12.957   9.005
  366POPC   C1A 9915  22.181  12.616   8.629
  366POPC   D2A 9916  21.964  12.562   8.260
  366POPC   C3A 9917  21.981  12.861   7.957
  366POPC   C4A 9918  22.277  12.681   7.721
  366POPC   C1B 9919  22.334  13.083   8.705
  366POPC   C2B 9920  22.389  12.924   8.253
  366POPC   C3B 9921  22.401  13.159   7.816
  366POPC   C4B 9922  22.316  13.465   7.481
  367POPC   NC3 9923  25.191  14.450   9.558
  367POPC   PO4 9924  25.597  14.687   9.081
  367POPC   GL1 9925  25.163  14.607   9.062
  367POPC   GL2 9926  25.167  14.226   9.102
  367POPC   C1A 9927  25.015  14.455   8.668
  367POPC   D2A 9928  25.250  14.272   8.341
  367POPC   C3A 9929  25.479  14.538   8.080
  367POPC   C4A 9930  25.061  14.531   7.894
  367POPC   C1B 9931  25.421  14.058   8.770
  367POPC   C2B 9932  25.418  13.783   8.418
  367POPC   C3B 9933  25.468  13.932   8.033
  367POPC   C4B 9934  25.513  14.187   7.732
  368POPC   NC3 9935  44.293  19.214   9.494
  368POPC   PO4 9936  43.659  18.919   9.504
  368POPC   GL1 9937  43.884  19.134   9.189
  368POPC   GL2 9938  43.678  18.963   8.987
  368POPC   C1A 9939  44.054  19.361   8.830
  368POPC   D2A 9940  44.216  19.213   8.426
  368POPC   C3A 9941  43.882  19.264   8.164
  368POPC   C4A 9942  43.805  19.355   7.746
  368POPC   C1B 9943  43.797  18.927   8.595
  368POPC   C2B 9944  43.587  18.839   8.248
  368POPC   C3B 9945  43.722  18.876   7.885
  368POPC   C4B 9946  44.193  18.971   7.864
  369POPC   NC3 9947  15.015   9.125   9.518
  369POPC   PO4 9948  14.817   8.514   9.464
  369POPC   GL1 9949  15.052   8.774   9.131
  369POPC   GL2 9950  15.293   9.108   9.108
  369POPC   C1A 9951  15.051   8.931   8.725
  369POPC   D2A 9952  15.255   8.788   8.355
  369POPC   C3A 9953  15.130   9.018   8.004
  369POPC   C4A 9954  15.042   9.261   7.662
  369POPC   C1B 9955  15.512   9.332   8.772
  369POPC   C2B 9956  15.620   9.205   8.341
  369POPC   C3B 9957  15.557   9.295   7.901
  369POPC   C4B 9958  15.509   9.419   7.445
  370POPC   NC3 9959   3.604  44.393   9.633
  370POPC   PO4 9960   3.317  44.946   9.593
  370POPC   GL1 9961   3.301  44.723   9.218
  370POPC   GL2 9962   3.135   0.051   9.127
  370POPC   C1A 9963   3.551  44.513   8.873
  370POPC   D2A 9964   3.514  44.594   8.425
  370POPC   C3A 9965   3.719  44.387   8.116
  370POPC   C4A 9966   3.776  44.542   7.717
  370POPC   C1B 9967   3.357  44.985   8.757
  370POPC   C2B 9968   3.404   0.102   8.345
  370POPC   C3B 9969   3.666  44.944   8.027
  370POPC   C4B 9970   3.519   0.076   7.635
  371POPC   NC3 9971  43.431  38.871   9.374
  371POPC   PO4 9972  42.971  39.372   9.520
  371POPC   GL1 9973  43.173  39.273   9.146
  371POPC   GL2 9974  43.451  39.448   9.197
  371POPC   C1A 9975  43.150  39.162   8.712
  371POPC   D2A 9976  43.330  39.231   8.318
  371POPC   C3A 9977  43.031  39.319   8.020
  371POPC   C4A 9978  42.883  39.005   7.757
  371POPC   C1B 9979  43.505  39.525   8.731
  371POPC   C2B 9980  43.680  39.606   8.286
  371POPC   C3B 9981  43.584  39.360   7.884
  371POPC   C4B 9982  43.408  38.950   7.772
  372POPC   NC3 9983  24.858  31.174   9.814
  372POPC   PO4 9984  24.604  31.693   9.465
  372POPC   GL1 9985  24.426  31.513   9.084
  372POPC   GL2 9986  24.726  31.413   8.842
  372POPC   C1A 9987  24.227  31.217   8.768
  372POPC   D2A 9988  24.391  31.114   8.324
  372POPC   C3A 9989  24.210  31.255   7.943
  372POPC   C4A 9990  24.229  31.668   7.727
  372POPC   C1B 9991  24.452  31.638   8.593
  372POPC   C2B 9992  24.428  31.617   8.208
  372POPC   C3B 9993  24.716  31.388   7.974
  372POPC   C4B 9994  24.737  31.469   7.563
  373POPC   NC3 9995  13.734  21.709   9.723
  373POPC   PO4 9996  13.379  21.179   9.497
  373POPC   GL1 9997  13.675  21.369   9.181
  373POPC   GL2 9998  13.846  21.690   9.186
  373POPC   C1A 9999  13.622  21.486   8.737
  373POPC   D2A10000  13.439  21.269   8.382
  373POPC   C3A10001  13.694  21.327   8.008
  373POPC   C4A10002  13.876  21.142   7.644
  373POPC   C1B10003  14.111  21.641   8.771
  373POPC   C2B10004  14.182  21.540   8.321
  373POPC   C3B10005  13.997  21.712   7.936
  373POPC   C4B10006  13.584  21.854   7.790
  374POPC   NC310007  15.846  43.724   9.518
  374POPC   PO410008  16.241  44.273   9.648
  374POPC   GL110009  16.168  44.035   9.272
  374POPC   GL210010  15.817  44.136   9.155
  374POPC   C1A10011  16.078  43.839   8.845
  374POPC   D2A10012  15.938  43.997   8.452
  374POPC   C3A10013  15.923  43.779   8.057
  374POPC   C4A10014  16.095  43.983   7.655
  374POPC   C1B10015  15.571  43.876   8.822
  374POPC   C2B10016  15.359  43.760   8.431
  374POPC   C3B10017  15.367  43.936   8.024
  374POPC   C4B10018  15.595  43.900   7.636
  375POPC   NC310019  18.372  21.828   9.474
  375POPC   PO410020  18.202  21.228   9.560
  375POPC   GL110021  18.399  21.413   9.176
  375POPC   GL210022  18.189  21.326   8.926
  375POPC   C1A10023  18.508  21.672   8.763
  375POPC   D2A10024  18.314  21.485   8.342
  375POPC   C3A10025  18.448  21.629   7.884
  375POPC   C4A10026  18.650  21.336   7.545
  375POPC   C1B10027  18.538  21.183   8.689
  375POPC   C2B10028  18.730  21.159   8.279
  375POPC   C3B10029  18.416  21.131   7.968
  375POPC   C4B10030  18.225  20.994   7.610
  376POPC   NC310031  12.591  24.672   9.456
  376POPC   PO410032  13.159  24.454   9.558
  376POPC   GL110033  12.962  24.382   9.189
  376POPC   GL210034  12.679  24.201   9.162
  376POPC   C1A10035  13.005  24.517   8.802
  376POPC   D2A10036  13.127  24.868   8.525
  376POPC   C3A10037  13.031  24.892   8.074
  376POPC   C4A10038  12.963  24.642   7.717
  376POPC   C1B10039  12.509  24.434   8.785
  376POPC   C2B10040  12.715  24.556   8.388
  376POPC   C3B10041  12.666  24.348   8.011
  376POPC   C4B10042  12.343  24.179   7.737
  377POPC   NC310043  44.640   3.040   9.650
  377POPC   PO410044   0.134   2.697   9.529
  377POPC   GL110045  44.823   2.821   9.219
  377POPC   GL210046  44.589   2.570   9.217
  377POPC   C1A10047  44.815   2.935   8.782
  377POPC   D2A10048  44.940   3.002   8.342
  377POPC   C3A10049  44.943   2.694   8.037
  377POPC   C4A10050  44.535   2.635   7.897
  377POPC   C1B10051  44.551   2.438   8.779
  377POPC   C2B10052  44.305   2.510   8.391
  377POPC   C3B10053  44.092   2.393   8.017
  377POPC   C4B10054  44.366   2.203   7.707
  378POPC   NC310055  42.563  19.111   9.520
  378POPC   PO410056  41.944  19.124   9.513
  378POPC   GL110057  42.193  19.381   9.252
  378POPC   GL210058  42.305  19.069   9.076
  378POPC   C1A10059  42.133  19.474   8.818
  378POPC   D2A10060  42.143  19.154   8.469
  378POPC   C3A10061  42.313  19.205   8.047
  378POPC   C4A10062  42.160  19.307   7.623
  378POPC   C1B10063  42.599  19.287   8.796
  378POPC   C2B10064  42.671  19.110   8.410
  378POPC   C3B10065  42.796  19.051   8.005
  378POPC   C4B10066  42.706  19.361   7.734
  379POPC   NC310067  23.913  25.442   9.518
  379POPC   PO410068  23.517  24.969   9.520
  379POPC   GL110069  23.533  25.278   9.206
  379POPC   GL210070  23.849  25.238   9.063
  379POPC   C1A10071  23.477  25.396   8.754
  379POPC   D2A10072  23.689  25.279   8.356
  379POPC   C3A10073  23.417  25.135   7.993
  379POPC   C4A10074  23.394  25.307   7.564
  379POPC   C1B10075  24.014  25.054   8.722
  379POPC   C2B10076  24.245  25.295   8.420
  379POPC   C3B10077  24.069  25.512   8.080
  379POPC   C4B10078  23.869  25.200   7.867
  380POPC   NC310079   7.002  35.204   9.486
  380POPC   PO410080   6.593  35.753   9.594
  380POPC   GL110081   6.720  35.500   9.211
  380POPC   GL210082   7.009  35.611   9.117
  380POPC   C1A10083   6.829  35.302   8.771
  380POPC   D2A10084   6.699  35.516   8.370
  380POPC   C3A10085   6.765  35.250   8.013
  380POPC   C4A10086   7.100  35.268   7.696
  380POPC   C1B10087   6.941  35.813   8.738
  380POPC   C2B10088   7.099  35.894   8.343
  380POPC   C3B10089   6.890  35.818   7.958
  380POPC   C4B10090   6.681  35.586   7.645
  381POPC   NC310091  29.362  44.386   9.409
  381POPC   PO410092  29.459   0.065   9.445
  381POPC   GL110093  29.185  44.820   9.137
  381POPC   GL210094  28.940  44.505   9.152
  381POPC   C1A10095  29.325  44.616   8.746
  381POPC   D2A10096  29.591  44.597   8.362
  381POPC   C3A10097  29.319  44.671   7.981
  381POPC   C4A10098  28.991  44.388   7.830
  381POPC   C1B10099  28.835  44.419   8.719
  381POPC   C2B10100  28.962  44.662   8.354
  381POPC   C3B10101  28.924   0.000   8.045
  381POPC   C4B10102  28.727  44.893   7.662
  382POPC   NC310103   1.589  13.227   9.465
  382POPC   PO410104   2.170  13.732   9.468
  382POPC   GL110105   2.048  13.457   9.165
  382POPC   GL210106   1.727  13.629   9.174
  382POPC   C1A10107   2.087  13.636   8.741
  382POPC   D2A10108   2.076  13.931   8.398
  382POPC   C3A10109   2.071  13.689   8.041
  382POPC   C4A10110   2.416  13.586   7.815
  382POPC   C1B10111   1.600  13.503   8.788
  382POPC   C2B10112   1.600  13.695   8.404
  382POPC   C3B10113   1.598  13.485   8.038
  382POPC   C4B10114   1.615  13.677   7.686
  383POPC   NC310115  30.806   3.622   9.542
  383POPC   PO410116  30.392   3.094   9.394
  383POPC   GL110117  30.733   3.180   9.056
  383POPC   GL210118  30.848   3.529   9.059
  383POPC   C1A10119  30.707   3.342   8.612
  383POPC   D2A10120  30.671   3.270   8.183
  383POPC   C3A10121  30.443   3.532   7.938
  383POPC   C4A10122  30.481   3.272   7.582
  383POPC   C1B10123  31.143   3.829   8.897
  383POPC   C2B10124  31.227   3.839   8.466
  383POPC   C3B10125  30.886   3.769   8.190
  383POPC   C4B10126  30.863   3.759   7.750
  384POPC   NC310127  40.523  31.800   9.431
  384POPC   PO410128  40.853  31.233   9.657
  384POPC   GL110129  40.863  31.398   9.203
  384POPC   GL210130  40.975  31.752   9.191
  384POPC   C1A10131  40.680  31.512   8.782
  384POPC   D2A10132  40.847  31.537   8.399
  384POPC   C3A10133  40.678  31.462   7.951
  384POPC   C4A10134  40.515  31.656   7.582
  384POPC   C1B10135  41.101  31.959   8.815
  384POPC   C2B10136  41.218  31.870   8.403
  384POPC   C3B10137  40.932  31.889   8.061
  384POPC   C4B10138  40.996  31.803   7.696
  385POPC   NC310139   9.286  32.809   9.304
  385POPC   PO410140   8.806  32.988   9.799
  385POPC   GL110141   8.829  33.183   9.267
  385POPC   GL210142   9.109  33.366   9.181
  385POPC   C1A10143   8.719  32.999   8.776
  385POPC   D2A10144   8.999  32.850   8.453
  385POPC   C3A10145   8.900  32.869   8.005
  385POPC   C4A10146   9.248  32.774   7.723
  385POPC   C1B10147   9.117  33.290   8.737
  385POPC   C2B10148   9.158  33.502   8.328
  385POPC   C3B10149   9.285  33.487   7.893
  385POPC   C4B10150   9.016  33.247   7.687
  386POPC   NC310151  21.544   0.035   9.529
  386POPC   PO410152  21.500   0.690   9.507
  386POPC   GL110153  21.400   0.458   9.162
  386POPC   GL210154  21.159   0.178   9.204
  386POPC   C1A10155  21.230   0.640   8.780
  386POPC   D2A10156  21.204   0.473   8.399
  386POPC   C3A10157  21.458   0.554   8.066
  386POPC   C4A10158  21.330   0.746   7.680
  386POPC   C1B10159  21.316   0.125   8.782
  386POPC   C2B10160  21.530   0.107   8.383
  386POPC   C3B10161  21.681   0.072   7.993
  386POPC   C4B10162  21.436   0.213   7.679
  387POPC   NC310163  25.674  42.823   9.590
  387POPC   PO410164  26.141  42.331   9.634
  387POPC   GL110165  26.016  42.408   9.198
  387POPC   GL210166  25.860  42.111   9.076
  387POPC   C1A10167  26.071  42.408   8.721
  387POPC   D2A10168  26.290  42.235   8.339
  387POPC   C3A10169  26.096  42.348   7.942
  387POPC   C4A10170  25.735  42.608   7.789
  387POPC   C1B10171  25.973  41.892   8.707
  387POPC   C2B10172  25.912  41.881   8.291
  387POPC   C3B10173  26.192  41.840   7.969
  387POPC   C4B10174  26.064  41.938   7.588
  388POPC   NC310175  29.596  14.412   9.737
  388POPC   PO410176  30.154  14.365   9.472
  388POPC   GL110177  29.799  14.408   9.219
  388POPC   GL210178  29.739  14.104   9.051
  388POPC   C1A10179  29.796  14.555   8.789
  388POPC   D2A10180  29.887  14.721   8.383
  388POPC   C3A10181  29.598  14.596   8.122
  388POPC   C4A10182  29.680  14.457   7.749
  388POPC   C1B10183  30.142  14.149   8.850
  388POPC   C2B10184  30.159  14.291   8.440
  388POPC   C3B10185  29.933  14.140   8.095
  388POPC   C4B10186  30.110  14.087   7.680
  389POPC   NC310187   7.775  41.890   9.481
  389POPC   PO410188   7.185  42.153   9.694
  389POPC   GL110189   7.301  42.113   9.246
  389POPC   GL210190   7.094  42.284   9.077
  389POPC   C1A10191   7.523  42.281   8.811
  389POPC   D2A10192   7.423  42.414   8.407
  389POPC   C3A10193   7.602  42.613   8.062
  389POPC   C4A10194   7.728  42.341   7.813
  389POPC   C1B10195   6.989  42.282   8.681
  389POPC   C2B10196   6.913  42.330   8.275
  389POPC   C3B10197   7.196  42.293   7.964
  389POPC   C4B10198   7.000  42.173   7.650
  390POPC   NC310199   1.279  25.726   9.798
  390POPC   PO410200   1.223  25.070   9.486
  390POPC   GL110201   1.367  25.240   9.103
  390POPC   GL210202   1.508  25.577   9.157
  390POPC   C1A10203   1.233  25.101   8.682
  390POPC   D2A10204   0.959  25.072   8.317
  390POPC   C3A10205   1.126  25.134   7.915
  390POPC   C4A10206   0.972  25.412   7.603
  390POPC   C1B10207   1.309  25.622   8.754
  390POPC   C2B10208   1.288  25.476   8.320
  390POPC   C3B10209   1.345  25.643   7.915
  390POPC   C4B10210   1.349  25.725   7.449
  391POPC   NC310211  10.748  25.974   9.491
  391POPC   PO410212  10.030  25.821   9.436
  391POPC   GL110213  10.337  25.996   9.191
  391POPC   GL210214  10.158  26.225   9.029
  391POPC   C1A10215  10.603  25.969   8.818
  391POPC   D2A10216  10.700  26.130   8.384
  391POPC   C3A10217  10.618  25.930   7.956
  391POPC   C4A10218  10.561  26.125   7.545
  391POPC   C1B10219  10.151  26.129   8.583
  391POPC   C2B10220  10.250  26.259   8.171
  391POPC   C3B10221  10.110  26.084   7.788
  391POPC   C4B10222  10.041  26.251   7.382
  392POPC   NC310223  27.987   8.515   9.370
  392POPC   PO410224  27.762   7.891   9.480
  392POPC   GL110225  27.780   8.039   9.095
  392POPC   GL210226  27.483   8.208   9.044
  392POPC   C1A10227  27.600   7.857   8.711
  392POPC   D2A10228  27.411   7.863   8.299
  392POPC   C3A10229  27.639   8.104   7.990
  392POPC   C4A10230  27.744   8.299   7.584
  392POPC   C1B10231  27.526   8.379   8.674
  392POPC   C2B10232  27.304   8.387   8.276
  392POPC   C3B10233  27.309   8.486   7.820
  392POPC   C4B10234  27.337   8.537   7.338
  393POPC   NC310235  40.261   5.567   9.364
  393POPC   PO410236  39.846   6.070   9.515
  393POPC   GL110237  40.078   6.013   9.147
  393POPC   GL210238  40.387   6.197   9.071
  393POPC   C1A10239  39.872   5.991   8.754
  393POPC   D2A10240  39.656   5.869   8.392
  393POPC   C3A10241  39.816   5.993   8.005
  393POPC   C4A10242  39.972   5.741   7.665
  393POPC   C1B10243  40.394   5.888   8.749
  393POPC   C2B10244  40.181   5.765   8.405
  393POPC   C3B10245  40.311   5.781   8.036
  393POPC   C4B10246  40.300   6.136   7.794
  394POPC   NC310247  26.148  40.985   9.512
  394POPC   PO410248  26.426  40.323   9.451
  394POPC   GL110249  26.227  40.623   9.156
  394POPC   GL210250  25.872  40.624   9.123
  394POPC   C1A10251  26.094  40.913   8.789
  394POPC   D2A10252  25.795  41.012   8.461
  394POPC   C3A10253  25.948  40.930   8.072
  394POPC   C4A10254  26.095  40.866   7.665
  394POPC   C1B10255  25.682  40.574   8.717
  394POPC   C2B10256  25.607  40.583   8.262
  394POPC   C3B10257  25.638  40.601   7.829
  394POPC   C4B10258  25.685  40.763   7.397
  395POPC   NC310259   7.055  40.583   9.603
  395POPC   PO410260   6.407  40.774   9.457
  395POPC   GL110261   6.738  40.709   9.216
  395POPC   GL210262   6.556  40.533   9.000
  395POPC   C1A10263   6.876  40.910   8.845
  395POPC   D2A10264   6.622  41.000   8.498
  395POPC   C3A10265   6.779  40.831   8.123
  395POPC   C4A10266   6.609  40.835   7.716
  395POPC   C1B10267   6.668  40.503   8.582
  395POPC   C2B10268   6.389  40.555   8.292
  395POPC   C3B10269   6.193  40.629   7.956
  395POPC   C4B10270   6.331  40.426   7.614
  396POPC   NC310271  25.008   3.927   9.448
  396POPC   PO410272  25.675   3.734   9.621
  396POPC   GL110273  25.602   3.505   9.154
  396POPC   GL210274  25.429   3.185   9.155
  396POPC   C1A10275  25.368   3.530   8.746
  396POPC   D2A10276  25.088   3.763   8.477
  396POPC   C3A10277  25.316   3.776   8.089
  396POPC   C4A10278  25.225   3.779   7.637
  396POPC   C1B10279  25.312   3.041   8.706
  396POPC   C2B10280  25.191   3.283   8.333
  396POPC   C3B10281  25.275   3.307   7.936
  396POPC   C4B10282  25.364   2.974   7.701
  397POPC   NC310283  41.472  34.782   9.588
  397POPC   PO410284  42.033  34.467   9.622
  397POPC   GL110285  41.820  34.446   9.202
  397POPC   GL210286  41.459  34.587   9.137
  397POPC   C1A10287  41.781  34.645   8.778
  397POPC   D2A10288  41.498  34.630   8.464
  397POPC   C3A10289  41.734  34.558   8.106
  397POPC   C4A10290  41.855  34.652   7.694
  397POPC   C1B10291  41.251  34.872   8.855
  397POPC   C2B10292  41.055  34.880   8.433
  397POPC   C3B10293  41.294  34.812   8.027
  397POPC   C4B10294  41.234  34.942   7.605
  398POPC   NC310295   6.700   1.819   9.554
  398POPC   PO410296   6.646   2.492   9.589
  398POPC   GL110297   6.790   2.184   9.168
  398POPC   GL210298   6.759   1.825   9.066
  398POPC   C1A10299   6.589   2.151   8.717
  398POPC   D2A10300   6.349   2.087   8.331
  398POPC   C3A10301   6.386   2.336   7.955
  398POPC   C4A10302   6.457   2.249   7.523
  398POPC   C1B10303   6.837   1.622   8.667
  398POPC   C2B10304   6.842   1.869   8.299
  398POPC   C3B10305   6.630   1.884   7.949
  398POPC   C4B10306   6.593   1.761   7.545
  399POPC   NC310307  11.363  23.439   9.479
  399POPC   PO410308  10.934  24.033   9.470
  399POPC   GL110309  11.193  23.831   9.165
  399POPC   GL210310  10.997  23.528   9.151
  399POPC   C1A10311  11.472  23.796   8.769
  399POPC   D2A10312  11.660  23.655   8.363
  399POPC   C3A10313  11.492  23.859   8.018
  399POPC   C4A10314  11.321  23.740   7.619
  399POPC   C1B10315  10.960  23.688   8.735
  399POPC   C2B10316  11.154  23.607   8.350
  399POPC   C3B10317  10.987  23.645   7.974
  399POPC   C4B10318  10.832  23.516   7.593
  400POPC   NC310319   2.433  10.900   9.376
  400POPC   PO410320   1.824  10.678   9.555
  400POPC   GL110321   1.835  10.576   9.129
  400POPC   GL210322   2.132  10.607   9.108
  400POPC   C1A10323   1.779  10.619   8.689
  400POPC   D2A10324   1.726  10.890   8.344
  400POPC   C3A10325   1.831  10.649   8.012
  400POPC   C4A10326   1.679  10.573   7.612
  400POPC   C1B10327   2.308  10.544   8.741
  400POPC   C2B10328   2.212  10.458   8.350
  400POPC   C3B10329   2.360  10.613   7.989
  400POPC   C4B10330   2.176  10.490   7.660
  401POPC   NC310331  16.064  16.039   9.567
  401POPC   PO410332  15.580  15.553   9.523
  401POPC   GL110333  15.754  15.825   9.167
  401POPC   GL210334  15.879  16.176   9.139
  401POPC   C1A10335  15.977  15.874   8.752
  401POPC   D2A10336  16.078  15.599   8.407
  401POPC   C3A10337  15.924  15.794   8.033
  401POPC   C4A10338  15.892  15.706   7.626
  401POPC   C1B10339  16.178  16.354   8.861
  401POPC   C2B10340  16.151  16.316   8.427
  401POPC   C3B10341  16.031  16.317   7.995
  401POPC   C4B10342  15.954  16.196   7.593
  402POPC   NC310343  32.911  39.019   9.407
  402POPC   PO410344  32.877  38.370   9.451
  402POPC   GL110345  33.202  38.463   9.166
  402POPC   GL210346  32.989  38.695   9.018
  402POPC   C1A10347  33.245  38.402   8.712
  402POPC   D2A10348  33.208  38.601   8.286
  402POPC   C3A10349  33.150  38.272   7.953
  402POPC   C4A10350  32.953  38.145   7.564
  402POPC   C1B10351  32.768  38.312   8.806
  402POPC   C2B10352  32.800  38.276   8.357
  402POPC   C3B10353  32.768  38.596   8.033
  402POPC   C4B10354  32.855  38.689   7.630
  403POPC   NC310355   9.540  20.706   9.523
  403POPC   PO410356  10.195  20.789   9.430
  403POPC   GL110357   9.855  20.570   9.138
  403POPC   GL210358   9.463  20.485   9.080
  403POPC   C1A10359   9.855  20.422   8.715
  403POPC   D2A10360   9.871  20.516   8.291
  403POPC   C3A10361   9.598  20.430   7.961
  403POPC   C4A10362   9.960  20.382   7.731
  403POPC   C1B10363   9.532  20.819   8.760
  403POPC   C2B10364   9.442  20.791   8.313
  403POPC   C3B10365   9.303  20.827   7.889
  403POPC   C4B10366   9.457  20.632   7.511
  404POPC   NC310367  29.738   6.786   9.476
  404POPC   PO410368  30.372   6.564   9.541
  404POPC   GL110369  30.174   6.719   9.140
  404POPC   GL210370  29.809   6.594   9.018
  404POPC   C1A10371  30.163   6.715   8.690
  404POPC   D2A10372  29.831   6.939   8.471
  404POPC   C3A10373  29.919   7.034   8.048
  404POPC   C4A10374  29.947   6.842   7.647
  404POPC   C1B10375  29.473   6.409   8.754
  404POPC   C2B10376  29.550   6.248   8.353
  404POPC   C3B10377  29.750   6.524   8.063
  404POPC   C4B10378  29.529   6.575   7.707
  405POPC   NC310379  35.622   7.286   9.598
  405POPC   PO410380  34.955   7.299   9.483
  405POPC   GL110381  35.281   7.303   9.193
  405POPC   GL210382  35.347   7.626   9.252
  405POPC   C1A10383  35.394   7.189   8.786
  405POPC   D2A10384  35.366   7.436   8.390
  405POPC   C3A10385  35.548   7.412   7.969
  405POPC   C4A10386  35.338   7.317   7.579
  405POPC   C1B10387  35.377   7.749   8.814
  405POPC   C2B10388  35.135   7.885   8.425
  405POPC   C3B10389  35.160   7.737   8.009
  405POPC   C4B10390  35.367   7.837   7.597
  406POPC   NC310391  32.733  31.294   9.486
  406POPC   PO410392  33.278  31.652   9.437
  406POPC   GL110393  33.055  31.504   9.131
  406POPC   GL210394  32.755  31.703   9.158
  406POPC   C1A10395  33.058  31.613   8.713
  406POPC   D2A10396  33.222  31.448   8.305
  406POPC   C3A10397  33.214  31.533   7.870
  406POPC   C4A10398  33.072  31.237   7.588
  406POPC   C1B10399  32.571  31.448   8.834
  406POPC   C2B10400  32.649  31.381   8.403
  406POPC   C3B10401  32.739  31.345   7.973
  406POPC   C4B10402  32.675  31.535   7.550
  407POPC   NC310403  40.462  30.961   9.481
  407POPC   PO410404  39.908  30.639   9.448
  407POPC   GL110405  40.171  30.646   9.108
  407POPC   GL210406  40.189  30.989   9.063
  407POPC   C1A10407  40.018  30.703   8.692
  407POPC   D2A10408  39.689  30.810   8.454
  407POPC   C3A10409  39.814  30.531   8.165
  407POPC   C4A10410  39.961  30.643   7.797
  407POPC   C1B10411  40.374  31.054   8.641
  407POPC   C2B10412  40.257  30.959   8.172
  407POPC   C3B10413  40.446  30.987   7.731
  407POPC   C4B10414  40.356  31.231   7.298
  408POPC   NC310415  44.875   3.971   9.928
  408POPC   PO410416  44.526   4.545   9.556
  408POPC   GL110417  44.657   4.371   9.141
  408POPC   GL210418  44.965   4.499   9.025
  408POPC   C1A10419  44.713   4.163   8.714
  408POPC   D2A10420  44.826   3.998   8.302
  408POPC   C3A10421  44.553   4.146   7.962
  408POPC   C4A10422  44.168   3.950   7.773
  408POPC   C1B10423  44.770   4.683   8.687
  408POPC   C2B10424  44.711   4.539   8.286
  408POPC   C3B10425  44.768   4.703   7.912
  408POPC   C4B10426  44.719   4.474   7.547
  409POPC   NC310427   1.855  14.075   9.407
  409POPC   PO410428   2.281  14.521   9.422
  409POPC   GL110429   2.002  14.510   9.098
  409POPC   GL210430   1.646  14.486   9.161
  409POPC   C1A10431   2.127  14.347   8.707
  409POPC   D2A10432   2.365  14.388   8.348
  409POPC   C3A10433   2.168  14.643   8.044
  409POPC   C4A10434   2.262  14.813   7.649
  409POPC   C1B10435   1.666  14.175   8.804
  409POPC   C2B10436   1.649  14.216   8.373
  409POPC   C3B10437   1.757  14.103   7.960
  409POPC   C4B10438   1.937  14.397   7.660
  410POPC   NC310439  10.199  12.859   9.548
  410POPC   PO410440   9.560  12.778   9.493
  410POPC   GL110441   9.713  12.797   9.090
  410POPC   GL210442  10.038  12.716   9.052
  410POPC   C1A10443   9.695  12.603   8.644
  410POPC   D2A10444   9.567  12.604   8.216
  410POPC   C3A10445   9.677  12.765   7.892
  410POPC   C4A10446  10.053  12.597   7.795
  410POPC   C1B10447   9.900  13.053   8.711
  410POPC   C2B10448   9.646  13.080   8.320
  410POPC   C3B10449   9.711  13.252   7.908
  410POPC   C4B10450   9.936  13.054   7.569
  411POPC   NC310451   4.579  11.282   9.460
  411POPC   PO410452   3.855  10.983   9.503
  411POPC   GL110453   4.156  11.131   9.178
  411POPC   GL210454   4.444  10.919   9.130
  411POPC   C1A10455   4.363  11.335   8.827
  411POPC   D2A10456   4.463  11.250   8.402
  411POPC   C3A10457   4.110  11.398   8.147
  411POPC   C4A10458   4.192  11.495   7.722
  411POPC   C1B10459   4.252  10.825   8.755
  411POPC   C2B10460   4.149  10.856   8.345
  411POPC   C3B10461   4.294  10.986   7.926
  411POPC   C4B10462   4.200  11.027   7.477
  412POPC   NC310463  38.511  24.646   9.473
  412POPC   PO410464  38.280  23.990   9.544
  412POPC   GL110465  38.439  24.276   9.131
  412POPC   GL210466  38.346  24.677   9.006
  412POPC   C1A10467  38.563  24.371   8.678
  412POPC   D2A10468  38.813  24.419   8.318
  412POPC   C3A10469  38.628  24.450   7.936
  412POPC   C4A10470  38.269  24.333   7.719
  412POPC   C1B10471  38.681  24.883   8.699
  412POPC   C2B10472  38.610  24.886   8.248
  412POPC   C3B10473  38.208  24.706   8.072
  412POPC   C4B10474  38.026  24.777   7.671
  413POPC   NC310475  28.029  16.352   9.534
  413POPC   PO410476  28.332  15.786   9.686
  413POPC   GL110477  28.318  15.739   9.251
  413POPC   GL210478  28.184  16.041   9.157
  413POPC   C1A10479  28.150  15.635   8.840
  413POPC   D2A10480  28.247  15.580   8.432
  413POPC   C3A10481  28.075  15.779   8.074
  413POPC   C4A10482  28.186  15.772   7.680
  413POPC   C1B10483  28.399  16.098   8.755
  413POPC   C2B10484  28.581  16.185   8.369
  413POPC   C3B10485  28.469  16.089   7.974
  413POPC   C4B10486  28.307  16.334   7.647
  414POPC   NC310487  19.259  43.860   9.468
  414POPC   PO410488  18.675  43.360   9.504
  414POPC   GL110489  18.831  43.662   9.161
  414POPC   GL210490  18.932  44.019   9.107
  414POPC   C1A10491  18.970  43.682   8.709
  414POPC   D2A10492  18.889  43.920   8.313
  414POPC   C3A10493  19.028  43.802   7.920
  414POPC   C4A10494  19.002  43.439   7.659
  414POPC   C1B10495  18.868  44.216   8.709
  414POPC   C2B10496  19.170  44.377   8.363
  414POPC   C3B10497  19.259  44.313   7.901
  414POPC   C4B10498  18.965  44.217   7.557
  415POPC   NC310499  18.930   4.938   9.578
  415POPC   PO410500  19.366   5.409   9.597
  415POPC   GL110501  19.149   5.235   9.199
  415POPC   GL210502  18.868   4.999   9.081
  415POPC   C1A10503  19.067   5.335   8.764
  415POPC   D2A10504  19.014   5.211   8.331
  415POPC   C3A10505  19.248   4.990   8.058
  415POPC   C4A10506  19.078   5.206   7.720
  415POPC   C1B10507  18.659   5.040   8.680
  415POPC   C2B10508  18.532   5.077   8.235
  415POPC   C3B10509  18.723   4.872   7.879
  415POPC   C4B10510  18.825   4.809   7.393
  416POPC   NC310511  35.182  31.405   9.529
  416POPC   PO410512  35.627  31.842   9.310
  416POPC   GL110513  35.535  31.454   9.039
  416POPC   GL210514  35.236  31.266   9.030
  416POPC   C1A10515  35.626  31.285   8.612
  416POPC   D2A10516  35.703  31.511   8.217
  416POPC   C3A10517  35.419  31.546   7.839
  416POPC   C4A10518  35.521  31.584   7.379
  416POPC   C1B10519  35.140  31.445   8.650
  416POPC   C2B10520  35.203  31.312   8.243
  416POPC   C3B10521  34.987  31.264   7.880
  416POPC   C4B10522  34.831  31.639   7.760
  417POPC   NC310523  42.518   2.262   9.451
  417POPC   PO410524  41.869   2.090   9.513
  417POPC   GL110525  42.068   2.134   9.138
  417POPC   GL210526  42.296   1.856   9.181
  417POPC   C1A10527  42.278   2.316   8.789
  417POPC   D2A10528  42.602   2.286   8.478
  417POPC   C3A10529  42.525   2.234   8.036
  417POPC   C4A10530  42.277   2.344   7.670
  417POPC   C1B10531  42.397   1.812   8.746
  417POPC   C2B10532  42.380   1.789   8.305
  417POPC   C3B10533  42.177   1.868   7.912
  417POPC   C4B10534  42.220   1.750   7.491
  418POPC   NC310535  41.760   6.841   9.493
  418POPC   PO410536  41.482   6.185   9.636
  418POPC   GL110537  41.427   6.480   9.245
  418POPC   GL210538  41.687   6.616   9.038
  418POPC   C1A10539  41.228   6.466   8.818
  418POPC   D2A10540  41.007   6.679   8.469
  418POPC   C3A10541  41.227   6.568   8.083
  418POPC   C4A10542  41.630   6.528   7.829
  418POPC   C1B10543  41.535   6.872   8.673
  418POPC   C2B10544  41.688   7.086   8.300
  418POPC   C3B10545  41.926   6.975   7.933
  418POPC   C4B10546  41.899   6.895   7.494
  419POPC   NC310547  42.113  44.485   9.653
  419POPC   PO410548  42.351   0.071   9.512
  419POPC   GL110549  42.325  44.891   9.106
  419POPC   GL210550  42.356  44.514   9.054
  419POPC   C1A10551  42.493  44.851   8.709
  419POPC   D2A10552  42.575  44.603   8.371
  419POPC   C3A10553  42.420  44.677   7.963
  419POPC   C4A10554  42.310  44.748   7.538
  419POPC   C1B10555  42.088  44.510   8.641
  419POPC   C2B10556  42.153  44.307   8.214
  419POPC   C3B10557  42.104  44.269   7.750
  419POPC   C4B10558  42.084  44.363   7.287
  420POPC   NC310559  28.046  23.180   9.564
  420POPC   PO410560  28.152  22.533   9.633
  420POPC   GL110561  28.330  22.830   9.310
  420POPC   GL210562  28.033  22.834   9.133
  420POPC   C1A10563  28.368  23.145   8.913
  420POPC   D2A10564  28.228  23.055   8.457
  420POPC   C3A10565  28.381  23.082   7.994
  420POPC   C4A10566  28.275  23.244   7.556
  420POPC   C1B10567  28.328  22.644   8.823
  420POPC   C2B10568  28.433  22.547   8.401
  420POPC   C3B10569  28.308  22.520   7.969
  420POPC   C4B10570  28.458  22.729   7.598
  421POPC   NC310571  36.582  43.414   9.458
  421POPC   PO410572  37.116  43.001   9.467
  421POPC   GL110573  37.021  42.963   9.061
  421POPC   GL210574  36.700  43.068   9.076
  421POPC   C1A10575  37.028  42.968   8.631
  421POPC   D2A10576  37.094  43.080   8.217
  421POPC   C3A10577  36.836  42.992   7.889
  421POPC   C4A10578  37.170  42.822   7.734
  421POPC   C1B10579  36.715  43.340   8.774
  421POPC   C2B10580  36.626  43.264   8.348
  421POPC   C3B10581  36.554  43.425   7.959
  421POPC   C4B10582  36.705  43.396   7.529
  422POPC   NC310583  27.059  24.929   9.460
  422POPC   PO410584  27.081  25.619   9.359
  422POPC   GL110585  26.739  25.433   9.119
  422POPC   GL210586  26.743  25.087   9.106
  422POPC   C1A10587  26.721  25.380   8.675
  422POPC   D2A10588  26.999  25.521   8.370
  422POPC   C3A10589  26.916  25.365   7.961
  422POPC   C4A10590  26.561  25.572   7.756
  422POPC   C1B10591  27.058  25.020   8.791
  422POPC   C2B10592  26.877  24.981   8.394
  422POPC   C3B10593  26.895  24.836   8.011
  422POPC   C4B10594  26.686  24.968   7.701
  423POPC   NC310595  26.522  42.395   9.383
  423POPC   PO410596  27.127  42.478   9.714
  423POPC   GL110597  26.993  42.324   9.262
  423POPC   GL210598  26.990  41.989   9.190
  423POPC   C1A10599  26.854  42.356   8.802
  423POPC   D2A10600  26.975  42.378   8.356
  423POPC   C3A10601  26.690  42.308   7.983
  423POPC   C4A10602  26.455  42.654   7.771
  423POPC   C1B10603  27.144  41.949   8.760
  423POPC   C2B10604  27.368  41.979   8.348
  423POPC   C3B10605  27.211  42.147   7.982
  423POPC   C4B10606  27.053  42.126   7.632
  424POPC   NC310607  11.688   6.325   9.496
  424POPC   PO410608  12.350   6.127   9.577
  424POPC   GL110609  12.158   6.429   9.232
  424POPC   GL210610  11.812   6.489   9.054
  424POPC   C1A10611  12.222   6.592   8.791
  424POPC   D2A10612  12.225   6.393   8.389
  424POPC   C3A10613  11.899   6.426   8.112
  424POPC   C4A10614  12.208   6.701   7.924
  424POPC   C1B10615  11.640   6.799   8.775
  424POPC   C2B10616  11.799   6.851   8.367
  424POPC   C3B10617  11.726   6.911   7.954
  424POPC   C4B10618  11.788   6.614   7.644
  425POPC   NC310619  22.386  25.909   9.452
  425POPC   PO410620  21.682  25.801   9.360
  425POPC   GL110621  21.891  25.970   9.011
  425POPC   GL210622  22.231  26.146   9.008
  425POPC   C1A10623  21.966  26.034   8.575
  425POPC   D2A10624  22.317  26.160   8.325
  425POPC   C3A10625  22.098  26.284   7.996
  425POPC   C4A10626  21.936  26.201   7.588
  425POPC   C1B10627  22.404  25.819   8.715
  425POPC   C2B10628  22.221  25.639   8.315
  425POPC   C3B10629  22.175  25.794   7.883
  425POPC   C4B10630  22.439  26.129   7.658
  426POPC   NC310631  43.390   3.702   9.458
  426POPC   PO410632  42.738   3.566   9.506
  426POPC   GL110633  43.025   3.732   9.112
  426POPC   GL210634  43.294   3.560   8.980
  426POPC   C1A10635  43.260   4.021   8.769
  426POPC   D2A10636  43.463   4.104   8.338
  426POPC   C3A10637  43.311   3.887   7.968
  426POPC   C4A10638  42.984   3.700   7.754
  426POPC   C1B10639  42.961   3.623   8.631
  426POPC   C2B10640  43.037   3.498   8.226
  426POPC   C3B10641  43.352   3.357   7.920
  426POPC   C4B10642  43.260   3.314   7.471
  427POPC   NC310643  42.610   3.076   9.479
  427POPC   PO410644  41.980   2.804   9.412
  427POPC   GL110645  42.246   2.947   9.124
  427POPC   GL210646  42.491   2.690   9.150
  427POPC   C1A10647  42.251   2.851   8.713
  427POPC   D2A10648  42.072   2.597   8.420
  427POPC   C3A10649  42.252   2.681   8.069
  427POPC   C4A10650  42.080   2.839   7.726
  427POPC   C1B10651  42.742   2.792   8.784
  427POPC   C2B10652  42.669   2.798   8.378
  427POPC   C3B10653  42.750   2.704   7.993
  427POPC   C4B10654  42.570   2.792   7.612
  428POPC   NC310655  35.038  36.836  10.103
  428POPC   PO410656  34.611  36.893   9.552
  428POPC   GL110657  34.779  36.903   9.155
  428POPC   GL210658  34.783  37.270   9.079
  428POPC   C1A10659  34.572  36.797   8.792
  428POPC   D2A10660  34.748  36.741   8.396
  428POPC   C3A10661  34.543  36.797   8.009
  428POPC   C4A10662  34.624  36.865   7.598
  428POPC   C1B10663  34.808  37.219   8.618
  428POPC   C2B10664  34.732  37.247   8.168
  428POPC   C3B10665  34.456  37.296   7.795
  428POPC   C4B10666  34.418  37.249   7.336
  429POPC   NC310667  18.615   0.422   9.443
  429POPC   PO410668  18.042   0.659   9.468
  429POPC   GL110669  18.157   0.271   9.252
  429POPC   GL210670  17.882   0.205   9.085
  429POPC   C1A10671  18.343   0.138   8.842
  429POPC   D2A10672  18.204   0.075   8.429
  429POPC   C3A10673  18.502   0.309   8.182
  429POPC   C4A10674  18.557   0.299   7.796
  429POPC   C1B10675  17.968   0.525   8.757
  429POPC   C2B10676  18.103   0.581   8.301
  429POPC   C3B10677  18.034   0.267   7.937
  429POPC   C4B10678  17.865   0.187   7.509
  430POPC   NC310679  22.985  27.487   9.676
  430POPC   PO410680  22.604  27.837   9.317
  430POPC   GL110681  22.826  27.499   9.189
  430POPC   GL210682  23.176  27.617   9.189
  430POPC   C1A10683  22.930  27.351   8.819
  430POPC   D2A10684  23.120  27.310   8.449
  430POPC   C3A10685  22.913  27.333   8.064
  430POPC   C4A10686  23.033  27.563   7.706
  430POPC   C1B10687  23.241  27.750   8.731
  430POPC   C2B10688  23.292  27.800   8.278
  430POPC   C3B10689  23.378  27.915   7.862
  430POPC   C4B10690  23.272  27.914   7.410
  431POPC   NC310691  11.752   0.415   9.474
  431POPC   PO410692  12.293   0.130   9.507
  431POPC   GL110693  12.151   0.327   9.123
  431POPC   GL210694  12.313   0.645   8.990
  431POPC   C1A10695  12.154   0.262   8.691
  431POPC   D2A10696  12.296   0.420   8.322
  431POPC   C3A10697  11.992   0.341   8.010
  431POPC   C4A10698  12.347   0.239   7.780
  431POPC   C1B10699  12.039   0.761   8.636
  431POPC   C2B10700  12.199   0.920   8.267
  431POPC   C3B10701  12.252   0.745   7.885
  431POPC   C4B10702  12.110   0.594   7.492
  432POPC   NC310703  43.298  36.350   9.811
  432POPC   PO410704  42.874  35.912   9.527
  432POPC   GL110705  43.110  36.193   9.287
  432POPC   GL210706  43.234  35.902   9.128
  432POPC   C1A10707  43.316  36.334   8.876
  432POPC   D2A10708  43.252  36.089   8.505
  432POPC   C3A10709  43.135  36.291   8.155
  432POPC   C4A10710  43.343  36.368   7.794
  432POPC   C1B10711  42.889  36.027   8.841
  432POPC   C2B10712  42.745  36.039   8.431
  432POPC   C3B10713  42.706  36.063   7.991
  432POPC   C4B10714  43.058  35.940   7.731
  433POPC   NC310715   3.946   8.950   9.453
  433POPC   PO410716   4.525   9.209   9.347
  433POPC   GL110717   4.263   9.112   9.021
  433POPC   GL210718   4.264   8.772   9.075
  433POPC   C1A10719   4.374   8.966   8.601
  433POPC   D2A10720   4.580   9.192   8.263
  433POPC   C3A10721   4.147   9.228   8.129
  433POPC   C4A10722   3.975   8.951   7.781
  433POPC   C1B10723   3.927   8.750   8.756
  433POPC   C2B10724   4.002   8.759   8.290
  433POPC   C3B10725   4.389   8.787   8.012
  433POPC   C4B10726   4.586   8.537   7.712
  434POPC   NC310727  11.439  10.456   9.551
  434POPC   PO410728  11.044  10.967   9.478
  434POPC   GL110729  11.311  10.749   9.138
  434POPC   GL210730  11.325  10.369   9.070
  434POPC   C1A10731  11.433  10.686   8.693
  434POPC   D2A10732  11.219  10.635   8.332
  434POPC   C3A10733  11.321  10.834   7.945
  434POPC   C4A10734  11.253  10.679   7.533
  434POPC   C1B10735  11.556  10.160   8.737
  434POPC   C2B10736  11.596  10.306   8.329
  434POPC   C3B10737  11.343  10.309   7.952
  434POPC   C4B10738  11.557  10.286   7.612
  435POPC   NC310739  31.899  40.364   9.424
  435POPC   PO410740  32.243  40.869   9.743
  435POPC   GL110741  32.287  40.972   9.234
  435POPC   GL210742  32.017  40.775   9.125
  435POPC   C1A10743  32.222  41.071   8.760
  435POPC   D2A10744  32.262  40.937   8.318
  435POPC   C3A10745  32.505  40.765   7.966
  435POPC   C4A10746  32.352  40.775   7.563
  435POPC   C1B10747  32.161  40.571   8.701
  435POPC   C2B10748  32.324  40.435   8.319
  435POPC   C3B10749  32.127  40.446   7.886
  435POPC   C4B10750  32.069  40.404   7.403
  436POPC   NC310751  28.108  42.090   9.445
  436POPC   PO410752  28.613  42.503   9.430
  436POPC   GL110753  28.258  42.422   9.098
  436POPC   GL210754  28.229  42.041   8.962
  436POPC   C1A10755  28.089  42.428   8.678
  436POPC   D2A10756  28.393  42.419   8.322
  436POPC   C3A10757  28.177  42.380   7.948
  436POPC   C4A10758  27.886  42.630   7.753
  436POPC   C1B10759  28.607  42.261   8.786
  436POPC   C2B10760  28.876  42.119   8.468
  436POPC   C3B10761  28.700  41.997   8.063
  436POPC   C4B10762  28.414  42.015   7.685
  437POPC   NC310763  13.836  40.141   9.617
  437POPC   PO410764  13.357  39.735   9.835
  437POPC   GL110765  13.556  39.796   9.331
  437POPC   GL210766  13.680  40.141   9.134
  437POPC   C1A10767  13.669  39.766   8.837
  437POPC   D2A10768  13.596  40.031   8.457
  437POPC   C3A10769  13.616  39.825   8.068
  437POPC   C4A10770  13.347  39.736   7.770
  437POPC   C1B10771  13.874  40.315   8.772
  437POPC   C2B10772  13.991  40.357   8.356
  437POPC   C3B10773  13.797  40.448   7.964
  437POPC   C4B10774  13.728  40.137   7.657
  438POPC   NC310775  39.474  20.227   9.479
  438POPC   PO410776  39.053  20.709   9.448
  438POPC   GL110777  39.190  20.505   9.119
  438POPC   GL210778  39.360  20.806   9.014
  438POPC   C1A10779  39.030  20.402   8.731
  438POPC   D2A10780  39.008  20.531   8.298
  438POPC   C3A10781  39.361  20.564   8.016
  438POPC   C4A10782  39.300  20.462   7.592
  438POPC   C1B10783  39.088  20.920   8.676
  438POPC   C2B10784  39.024  21.042   8.237
  438POPC   C3B10785  39.009  20.856   7.810
  438POPC   C4B10786  38.898  20.688   7.391
  439POPC   NC310787   4.711   8.741   9.434
  439POPC   PO410788   5.249   9.157   9.541
  439POPC   GL110789   5.000   9.080   9.189
  439POPC   GL210790   5.164   8.783   9.142
  439POPC   C1A10791   4.840   8.961   8.770
  439POPC   D2A10792   4.754   8.684   8.380
  439POPC   C3A10793   4.908   8.846   7.990
  439POPC   C4A10794   4.905   9.250   7.832
  439POPC   C1B10795   5.341   9.027   8.814
  439POPC   C2B10796   5.193   9.023   8.392
  439POPC   C3B10797   5.362   9.107   7.991
  439POPC   C4B10798   5.698   9.023   7.754
  440POPC   NC310799  26.631   0.699   9.559
  440POPC   PO410800  27.044   0.240   9.723
  440POPC   GL110801  26.875   0.337   9.316
  440POPC   GL210802  27.167   0.537   9.276
  440POPC   C1A10803  26.750   0.416   8.881
  440POPC   D2A10804  26.903   0.500   8.454
  440POPC   C3A10805  26.593   0.396   8.157
  440POPC   C4A10806  26.518   0.141   7.819
  440POPC   C1B10807  27.247   0.667   8.833
  440POPC   C2B10808  27.200   0.922   8.444
  440POPC   C3B10809  27.081   0.833   8.002
  440POPC   C4B10810  26.839   0.545   7.725
  441POPC   NC310811  10.323  27.017   9.449
  441POPC   PO410812  10.525  26.392   9.570
  441POPC   GL110813  10.665  26.390   9.167
  441POPC   GL210814  10.621  26.719   9.155
  441POPC   C1A10815  10.491  26.463   8.755
  441POPC   D2A10816  10.534  26.629   8.389
  441POPC   C3A10817  10.280  26.780   8.104
  441POPC   C4A10818  10.419  26.542   7.774
  441POPC   C1B10819  10.542  26.978   8.785
  441POPC   C2B10820  10.706  27.096   8.369
  441POPC   C3B10821  10.768  26.891   7.944
  441POPC   C4B10822  10.630  26.975   7.490
  442POPC   NC310823  26.247  27.084   9.454
  442POPC   PO410824  25.808  26.594   9.374
  442POPC   GL110825  25.964  26.864   9.098
  442POPC   GL210826  26.283  26.701   9.098
  442POPC   C1A10827  26.014  27.067   8.722
  442POPC   D2A10828  26.139  26.878   8.346
  442POPC   C3A10829  26.027  27.043   7.954
  442POPC   C4A10830  26.150  26.866   7.545
  442POPC   C1B10831  26.061  26.527   8.718
  442POPC   C2B10832  26.082  26.306   8.300
  442POPC   C3B10833  26.208  26.417   7.874
  442POPC   C4B10834  26.025  26.355   7.450
  443POPC   NC310835   4.669  44.027   9.577
  443POPC   PO410836   4.022  44.184   9.457
  443POPC   GL110837   4.317  44.224   9.123
  443POPC   GL210838   4.115  44.535   9.006
  443POPC   C1A10839   4.515  43.925   8.804
  443POPC   D2A10840   4.606  43.612   8.452
  443POPC   C3A10841   4.413  43.686   8.043
  443POPC   C4A10842   4.065  43.654   7.757
  443POPC   C1B10843   4.064  44.236   8.686
  443POPC   C2B10844   4.317  44.115   8.351
  443POPC   C3B10845   4.129  44.100   7.982
  443POPC   C4B10846   4.183  44.213   7.595
  444POPC   NC310847   2.774   6.378   9.512
  444POPC   PO410848   2.786   6.957   9.718
  444POPC   GL110849   2.869   6.685   9.152
  444POPC   GL210850   3.186   6.657   9.001
  444POPC   C1A10851   2.823   6.858   8.697
  444POPC   D2A10852   3.032   7.005   8.301
  444POPC   C3A10853   2.709   6.912   7.984
  444POPC   C4A10854   2.447   6.659   7.737
  444POPC   C1B10855   2.992   6.263   8.786
  444POPC   C2B10856   2.847   6.058   8.378
  444POPC   C3B10857   2.762   6.223   7.949
  444POPC   C4B10858   2.951   6.534   7.645
  445POPC   NC310859   7.431  18.709   9.512
  445POPC   PO410860   6.887  19.143   9.557
  445POPC   GL110861   7.232  19.052   9.194
  445POPC   GL210862   7.602  19.061   9.193
  445POPC   C1A10863   7.384  18.787   8.821
  445POPC   D2A10864   7.589  18.811   8.409
  445POPC   C3A10865   7.306  18.889   8.085
  445POPC   C4A10866   7.031  19.235   8.017
  445POPC   C1B10867   7.678  19.190   8.761
  445POPC   C2B10868   7.571  19.391   8.395
  445POPC   C3B10869   7.780  19.376   8.016
  445POPC   C4B10870   7.664  19.069   7.763
  446POPC   NC310871  28.056  11.169   9.796
  446POPC   PO410872  27.444  11.334   9.445
  446POPC   GL110873  27.467  11.338   9.046
  446POPC   GL210874  27.748  11.536   9.037
  446POPC   C1A10875  27.511  11.324   8.621
  446POPC   D2A10876  27.448  11.119   8.252
  446POPC   C3A10877  27.297  11.347   7.915
  446POPC   C4A10878  27.640  11.379   7.634
  446POPC   C1B10879  27.862  11.694   8.697
  446POPC   C2B10880  27.810  11.814   8.309
  446POPC   C3B10881  27.987  11.650   7.936
  446POPC   C4B10882  28.153  11.444   7.594
  447POPC   NC310883   3.264   1.647   9.539
  447POPC   PO410884   3.277   2.260   9.548
  447POPC   GL110885   3.354   1.951   9.151
  447POPC   GL210886   3.678   1.881   9.108
  447POPC   C1A10887   3.423   1.879   8.678
  447POPC   D2A10888   3.429   1.958   8.223
  447POPC   C3A10889   3.513   1.639   7.990
  447POPC   C4A10890   3.308   1.623   7.587
  447POPC   C1B10891   3.903   2.101   8.801
  447POPC   C2B10892   3.816   2.241   8.381
  447POPC   C3B10893   3.919   2.100   7.998
  447POPC   C4B10894   3.631   2.037   7.690
  448POPC   NC310895  19.260   0.098   9.485
  448POPC   PO410896  19.004   0.706   9.456
  448POPC   GL110897  19.261   0.651   9.098
  448POPC   GL210898  19.209   1.022   9.059
  448POPC   C1A10899  19.274   0.349   8.731
  448POPC   D2A10900  19.211   0.059   8.342
  448POPC   C3A10901  19.025   0.280   8.004
  448POPC   C4A10902  19.219   0.630   7.745
  448POPC   C1B10903  18.894   0.824   8.781
  448POPC   C2B10904  18.863   0.620   8.388
  448POPC   C3B10905  18.764   0.759   7.979
  448POPC   C4B10906  18.744   0.669   7.533
  449POPC   NC310907  31.629  33.396   9.414
  449POPC   PO410908  31.422  34.013   9.506
  449POPC   GL110909  31.656  33.916   9.171
  449POPC   GL210910  31.462  33.667   9.019
  449POPC   C1A10911  31.813  34.028   8.774
  449POPC   D2A10912  31.778  33.760   8.407
  449POPC   C3A10913  31.797  33.960   7.999
  449POPC   C4A10914  31.565  33.633   7.888
  449POPC   C1B10915  31.347  33.883   8.651
  449POPC   C2B10916  31.247  33.616   8.312
  449POPC   C3B10917  31.055  33.662   7.950
  449POPC   C4B10918  31.216  34.030   7.776
  450POPC   NC310919  42.685   6.587   9.181
  450POPC   PO410920  42.148   6.572   9.554
  450POPC   GL110921  42.182   6.777   9.177
  450POPC   GL210922  42.204   6.428   9.024
  450POPC   C1A10923  42.056   6.845   8.757
  450POPC   D2A10924  42.199   6.996   8.373
  450POPC   C3A10925  42.421   6.704   8.138
  450POPC   C4A10926  42.239   6.488   7.814
  450POPC   C1B10927  42.415   6.488   8.606
  450POPC   C2B10928  42.676   6.272   8.300
  450POPC   C3B10929  42.738   6.327   7.868
  450POPC   C4B10930  42.526   6.275   7.448
  451POPC   NC310931   2.055  16.697   9.615
  451POPC   PO410932   2.472  17.013   9.178
  451POPC   GL110933   2.011  16.906   9.126
  451POPC   GL210934   1.864  16.555   9.165
  451POPC   C1A10935   1.928  16.789   8.689
  451POPC   D2A10936   2.164  16.801   8.286
  451POPC   C3A10937   1.947  16.981   7.938
  451POPC   C4A10938   2.104  17.245   7.608
  451POPC   C1B10939   1.756  16.274   8.830
  451POPC   C2B10940   1.874  16.355   8.394
  451POPC   C3B10941   1.999  16.453   7.946
  451POPC   C4B10942   1.842  16.624   7.559
  452POPC   NC310943  43.450  41.308   9.483
  452POPC   PO410944  42.855  41.176   9.402
  452POPC   GL110945  42.987  41.495   9.076
  452POPC   GL210946  43.346  41.580   9.041
  452POPC   C1A10947  42.857  41.753   8.704
  452POPC   D2A10948  43.131  41.953   8.367
  452POPC   C3A10949  43.316  41.740   7.978
  452POPC   C4A10950  42.977  41.570   7.715
  452POPC   C1B10951  43.264  41.493   8.572
  452POPC   C2B10952  43.090  41.345   8.175
  452POPC   C3B10953  43.279  41.168   7.794
  452POPC   C4B10954  43.315  40.975   7.388
  453POPC   NC310955  24.296   0.075   9.427
  453POPC   PO410956  24.748   0.650   9.417
  453POPC   GL110957  24.644   0.441   9.079
  453POPC   GL210958  24.707   0.086   9.104
  453POPC   C1A10959  24.847   0.361   8.704
  453POPC   D2A10960  24.703   0.497   8.321
  453POPC   C3A10961  24.693   0.302   7.927
  453POPC   C4A10962  24.351   0.443   7.677
  453POPC   C1B10963  24.400   0.092   8.759
  453POPC   C2B10964  24.529  44.983   8.354
  453POPC   C3B10965  24.309  44.977   7.985
  453POPC   C4B10966  24.364  44.901   7.571
  454POPC   NC310967  14.081   2.279   9.616
  454POPC   PO410968  14.499   1.777   9.456
  454POPC   GL110969  14.313   2.006   9.109
  454POPC   GL210970  13.986   2.192   9.112
  454POPC   C1A10971  14.335   2.177   8.691
  454POPC   D2A10972  14.335   2.479   8.366
  454POPC   C3A10973  14.251   2.124   8.125
  454POPC   C4A10974  14.398   1.885   7.772
  454POPC   C1B10975  13.907   1.877   8.784
  454POPC   C2B10976  14.083   1.697   8.418
  454POPC   C3B10977  13.961   1.719   7.975
  454POPC   C4B10978  13.936   2.098   7.709
  455POPC   NC310979  34.759  33.626   9.504
  455POPC   PO410980  34.681  34.206   9.559
  455POPC   GL110981  34.740  34.027   9.174
  455POPC   GL210982  34.497  33.745   9.083
  455POPC   C1A10983  34.609  34.103   8.768
  455POPC   D2A10984  34.510  33.843   8.431
  455POPC   C3A10985  34.713  34.020   8.075
  455POPC   C4A10986  34.599  33.797   7.750
  455POPC   C1B10987  34.858  33.662   8.798
  455POPC   C2B10988  34.979  33.666   8.341
  455POPC   C3B10989  34.864  33.404   7.989
  455POPC   C4B10990  34.814  33.395   7.531
  456POPC   NC310991   9.521   3.345   9.548
  456POPC   PO410992  10.029   3.726   9.753
  456POPC   GL110993   9.827   3.626   9.272
  456POPC   GL210994   9.877   3.313   9.113
  456POPC   C1A10995   9.784   3.674   8.780
  456POPC   D2A10996   9.449   3.515   8.488
  456POPC   C3A10997   9.376   3.692   8.077
  456POPC   C4A10998   9.526   3.682   7.656
  456POPC   C1B10999   9.690   3.155   8.778
  456POPC   C2B11000   9.867   3.187   8.366
  456POPC   C3B11001   9.872   3.480   8.017
  456POPC   C4B11002   9.975   3.453   7.559
  457POPC   NC311003  34.357  42.802   9.592
  457POPC   PO411004  34.587  43.468   9.576
  457POPC   GL111005  34.431  43.272   9.232
  457POPC   GL211006  34.622  42.972   9.151
  457POPC   C1A11007  34.430  43.249   8.772
  457POPC   D2A11008  34.743  43.130   8.435
  457POPC   C3A11009  34.646  43.259   8.037
  457POPC   C4A11010  34.364  43.129   7.736
  457POPC   C1B11011  34.550  42.753   8.751
  457POPC   C2B11012  34.448  42.570   8.328
  457POPC   C3B11013  34.515  42.658   7.882
  457POPC   C4B11014  34.540  42.690   7.429
  458POPC   NC311015  22.393  43.607   9.502
  458POPC   PO411016  21.828  43.970   9.585
  458POPC   GL111017  21.953  43.797   9.177
  458POPC   GL211018  22.326  43.893   9.107
  458POPC   C1A11019  21.919  43.913   8.727
  458POPC   D2A11020  21.779  44.049   8.290
  458POPC   C3A11021  22.020  43.841   7.922
  458POPC   C4A11022  21.970  43.821   7.460
  458POPC   C1B11023  22.447  44.063   8.744
  458POPC   C2B11024  22.309  43.958   8.358
  458POPC   C3B11025  22.545  43.926   8.010
  458POPC   C4B11026  22.655  44.185   7.688
  459POPC   NC311027  22.035   0.823   9.552
  459POPC   PO411028  22.368   0.221   9.664
  459POPC   GL111029  22.106   0.205   9.232
  459POPC   GL211030  21.779   0.079   9.076
  459POPC   C1A11031  22.249   0.386   8.816
  459POPC   D2A11032  22.506   0.305   8.416
  459POPC   C3A11033  22.551   0.678   8.157
  459POPC   C4A11034  22.398   0.694   7.748
  459POPC   C1B11035  21.727   0.428   8.768
  459POPC   C2B11036  21.865   0.624   8.386
  459POPC   C3B11037  22.082   0.424   8.050
  459POPC   C4B11038  21.997   0.241   7.629
  460POPC   NC311039  41.052  38.457   9.508
  460POPC   PO411040  40.525  38.874   9.556
  460POPC   GL111041  40.662  38.619   9.153
  460POPC   GL211042  40.942  38.350   9.045
  460POPC   C1A11043  40.817  38.737   8.736
  460POPC   D2A11044  40.660  38.915   8.365
  460POPC   C3A11045  40.704  38.740   7.983
  460POPC   C4A11046  41.020  38.522   7.874
  460POPC   C1B11047  40.726  38.217   8.724
  460POPC   C2B11048  40.856  38.361   8.344
  460POPC   C3B11049  40.661  38.186   8.005
  460POPC   C4B11050  40.617  38.340   7.596
  461POPC   NC311051  31.688  37.518   9.476
  461POPC   PO411052  31.129  38.023   9.503
  461POPC   GL111053  31.507  37.973   9.260
  461POPC   GL211054  31.491  37.665   9.037
  461POPC   C1A11055  31.616  38.119   8.845
  461POPC   D2A11056  31.672  37.939   8.438
  461POPC   C3A11057  31.412  37.959   8.088
  461POPC   C4A11058  31.547  37.935   7.676
  461POPC   C1B11059  31.668  37.445   8.668
  461POPC   C2B11060  31.629  37.445   8.221
  461POPC   C3B11061  31.489  37.444   7.826
  461POPC   C4B11062  31.520  37.511   7.377
  462POPC   NC311063  17.369  23.312   9.528
  462POPC   PO411064  17.632  22.694   9.684
  462POPC   GL111065  17.354  22.781   9.244
  462POPC   GL211066  17.355  23.114   9.067
  462POPC   C1A11067  17.453  22.654   8.752
  462POPC   D2A11068  17.704  22.789   8.387
  462POPC   C3A11069  17.524  22.796   7.981
  462POPC   C4A11070  17.645  22.743   7.535
  462POPC   C1B11071  17.063  22.970   8.767
  462POPC   C2B11072  17.135  22.826   8.350
  462POPC   C3B11073  17.144  23.146   8.043
  462POPC   C4B11074  17.339  23.142   7.671
  463POPC   NC311075  29.582  32.628   9.315
  463POPC   PO411076  30.171  32.828   9.394
  463POPC   GL111077  30.434  32.807   9.044
  463POPC   GL211078  30.181  32.631   8.892
  463POPC   C1A11079  30.451  32.898   8.572
  463POPC   D2A11080  30.174  33.070   8.254
  463POPC   C3A11081  29.924  32.965   7.898
  463POPC   C4A11082  29.748  33.249   7.547
  463POPC   C1B11083  29.912  32.921   8.684
  463POPC   C2B11084  29.589  32.943   8.343
  463POPC   C3B11085  29.477  32.666   7.978
  463POPC   C4B11086  29.610  32.752   7.550
  464POPC   NC311087  15.454  20.753   9.335
  464POPC   PO411088  15.119  20.177   9.477
  464POPC   GL111089  15.071  20.457   9.151
  464POPC   GL211090  14.838  20.746   9.228
  464POPC   C1A11091  15.355  20.491   8.766
  464POPC   D2A11092  15.597  20.616   8.412
  464POPC   C3A11093  15.371  20.611   8.022
  464POPC   C4A11094  15.292  20.466   7.567
  464POPC   C1B11095  14.923  20.784   8.780
  464POPC   C2B11096  14.768  20.765   8.353
  464POPC   C3B11097  14.774  21.020   7.983
  464POPC   C4B11098  15.166  20.959   7.683
  465POPC   NC311099   5.344  19.144   9.534
  465POPC   PO411100   4.693  19.032   9.559
  465POPC   GL111101   4.974  19.006   9.157
  465POPC   GL211102   5.223  19.275   9.072
  465POPC   C1A11103   5.123  18.913   8.695
  465POPC   D2A11104   5.015  19.049   8.237
  465POPC   C3A11105   4.766  18.894   7.858
  465POPC   C4A11106   4.625  18.861   7.425
  465POPC   C1B11107   5.438  19.362   8.689
  465POPC   C2B11108   5.532  19.328   8.268
  465POPC   C3B11109   5.465  19.205   7.862
  465POPC   C4B11110   5.285  18.824   7.774
  466POPC   NC311111   2.803  36.533   9.633
  466POPC   PO411112   2.949  37.252   9.551
  466POPC   GL111113   2.764  37.014   9.138
  466POPC   GL211114   2.772  36.623   9.122
  466POPC   C1A11115   2.975  36.848   8.731
  466POPC   D2A11116   2.814  36.770   8.338
  466POPC   C3A11117   2.889  36.974   7.953
  466POPC   C4A11118   3.056  36.726   7.632
  466POPC   C1B11119   2.512  36.630   8.743
  466POPC   C2B11120   2.346  36.933   8.457
  466POPC   C3B11121   2.377  36.922   8.020
  466POPC   C4B11122   2.442  37.142   7.669
  467POPC   NC311123   9.859  39.044   9.733
  467POPC   PO411124   9.848  39.676   9.528
  467POPC   GL111125   9.829  39.267   9.271
  467POPC   GL211126   9.595  39.422   9.118
  467POPC   C1A11127   9.835  39.087   8.824
  467POPC   D2A11128   9.975  39.216   8.385
  467POPC   C3A11129   9.854  39.040   7.967
  467POPC   C4A11130  10.031  38.975   7.538
  467POPC   C1B11131   9.672  39.587   8.687
  467POPC   C2B11132   9.620  39.527   8.233
  467POPC   C3B11133   9.648  39.492   7.790
  467POPC   C4B11134   9.384  39.332   7.483
  468POPC   NC311135   3.264  28.275   9.620
  468POPC   PO411136   2.702  28.281   9.595
  468POPC   GL111137   2.870  28.385   9.204
  468POPC   GL211138   2.511  28.439   9.123
  468POPC   C1A11139   2.842  28.252   8.758
  468POPC   D2A11140   2.777  28.496   8.371
  468POPC   C3A11141   2.716  28.222   8.039
  468POPC   C4A11142   2.946  28.079   7.707
  468POPC   C1B11143   2.382  28.471   8.706
  468POPC   C2B11144   2.288  28.296   8.313
  468POPC   C3B11145   2.209  28.373   7.894
  468POPC   C4B11146   2.507  28.329   7.572
  469POPC   NC311147  44.203  26.720   9.568
  469POPC   PO411148  43.781  27.197   9.624
  469POPC   GL111149  43.787  26.934   9.246
  469POPC   GL211150  43.874  26.601   9.155
  469POPC   C1A11151  43.668  26.965   8.817
  469POPC   D2A11152  43.856  26.842   8.462
  469POPC   C3A11153  43.764  26.874   8.037
  469POPC   C4A11154  43.767  26.863   7.592
  469POPC   C1B11155  43.635  26.466   8.761
  469POPC   C2B11156  43.511  26.482   8.295
  469POPC   C3B11157  43.673  26.403   7.876
  469POPC   C4B11158  43.778  26.343   7.468
  470POPC   NC311159  41.031  30.932   9.358
  470POPC   PO411160  40.548  30.407   9.394
  470POPC   GL111161  40.839  30.519   9.106
  470POPC   GL211162  40.676  30.826   9.014
  470POPC   C1A11163  41.086  30.574   8.722
  470POPC   D2A11164  41.121  30.707   8.271
  470POPC   C3A11165  40.759  30.615   7.988
  470POPC   C4A11166  40.886  30.477   7.584
  470POPC   C1B11167  40.890  31.050   8.691
  470POPC   C2B11168  40.765  31.064   8.259
  470POPC   C3B11169  40.947  31.045   7.842
  470POPC   C4B11170  40.831  31.229   7.437
  471POPC   NC311171  17.101  11.403   9.634
  471POPC   PO411172  17.727  11.316   9.572
  471POPC   GL111173  17.414  11.352   9.208
  471POPC   GL211174  17.104  11.153   9.163
  471POPC   C1A11175  17.486  11.403   8.740
  471POPC   D2A11176  17.711  11.158   8.398
  471POPC   C3A11177  17.636  11.197   7.938
  471POPC   C4A11178  17.525  10.977   7.545
  471POPC   C1B11179  17.079  11.111   8.682
  471POPC   C2B11180  17.227  11.279   8.267
  471POPC   C3B11181  17.133  11.099   7.843
  471POPC   C4B11182  16.962  10.944   7.429
  472POPC   NC311183  23.611  41.663   9.563
  472POPC   PO411184  22.986  41.942   9.587
  472POPC   GL111185  23.300  41.819   9.198
  472POPC   GL211186  23.666  41.586   9.079
  472POPC   C1A11187  23.305  41.709   8.778
  472POPC   D2A11188  23.609  41.594   8.478
  472POPC   C3A11189  23.522  41.758   8.068
  472POPC   C4A11190  23.868  41.847   7.792
  472POPC   C1B11191  23.898  41.265   8.812
  472POPC   C2B11192  23.952  41.178   8.365
  472POPC   C3B11193  23.783  41.339   7.955
  472POPC   C4B11194  23.947  41.333   7.538
  473POPC   NC311195  25.554  26.979   9.390
  473POPC   PO411196  24.949  26.736   9.589
  473POPC   GL111197  25.151  26.741   9.203
  473POPC   GL211198  25.375  26.504   9.121
  473POPC   C1A11199  25.189  27.011   8.816
  473POPC   D2A11200  25.505  27.098   8.452
  473POPC   C3A11201  25.375  26.911   8.038
  473POPC   C4A11202  25.288  26.660   7.665
  473POPC   C1B11203  25.589  26.697   8.761
  473POPC   C2B11204  25.703  26.631   8.311
  473POPC   C3B11205  25.757  26.642   7.829
  473POPC   C4B11206  25.692  26.744   7.364
  474POPC   NC311207  31.169   0.622   9.457
  474POPC   PO411208  31.729   0.914   9.363
  474POPC   GL111209  31.742   0.513   9.109
  474POPC   GL211210  31.387   0.451   9.035
  474POPC   C1A11211  31.677   0.174   8.754
  474POPC   D2A11212  31.424   0.212   8.355
  474POPC   C3A11213  31.600   0.324   7.924
  474POPC   C4A11214  31.501   0.315   7.454
  474POPC   C1B11215  31.240   0.820   8.816
  474POPC   C2B11216  31.050   0.849   8.419
  474POPC   C3B11217  31.087   0.547   8.124
  474POPC   C4B11218  31.241   0.641   7.741
  475POPC   NC311219  36.957  20.315   9.448
  475POPC   PO411220  37.362  19.714   9.546
  475POPC   GL111221  37.012  19.772   9.218
  475POPC   GL211222  36.691  19.695   9.386
  475POPC   C1A11223  36.806  20.065   8.882
  475POPC   D2A11224  36.793  20.269   8.458
  475POPC   C3A11225  36.972  20.064   8.122
  475POPC   C4A11226  36.830  20.033   7.697
  475POPC   C1B11227  36.566  19.612   8.954
  475POPC   C2B11228  36.642  19.781   8.499
  475POPC   C3B11229  36.632  19.682   8.051
  475POPC   C4B11230  36.756  19.521   7.654
  476POPC   NC311231  18.799  20.243   9.552
  476POPC   PO411232  19.029  20.829   9.604
  476POPC   GL111233  19.123  20.634   9.170
  476POPC   GL211234  18.802  20.538   9.148
  476POPC   C1A11235  19.053  20.515   8.708
  476POPC   D2A11236  18.856  20.650   8.357
  476POPC   C3A11237  19.223  20.648   8.138
  476POPC   C4A11238  19.257  20.575   7.717
  476POPC   C1B11239  18.652  20.218   8.862
  476POPC   C2B11240  18.825  20.082   8.481
  476POPC   C3B11241  18.911  20.235   8.062
  476POPC   C4B11242  18.744  20.313   7.681
  477POPC   NC311243  18.047  19.334   9.411
  477POPC   PO411244  18.497  18.827   9.449
  477POPC   GL111245  18.145  18.861   9.154
  477POPC   GL211246  17.985  18.532   9.077
  477POPC   C1A11247  18.225  19.065   8.778
  477POPC   D2A11248  18.504  18.967   8.429
  477POPC   C3A11249  18.299  19.118   8.061
  477POPC   C4A11250  18.355  19.226   7.619
  477POPC   C1B11251  17.790  18.623   8.740
  477POPC   C2B11252  18.025  18.773   8.415
  477POPC   C3B11253  18.227  18.626   8.063
  477POPC   C4B11254  18.077  18.756   7.664
  478POPC   NC311255   0.410  34.946   9.610
  478POPC   PO411256   0.591  35.588   9.677
  478POPC   GL111257   0.481  35.372   9.270
  478POPC   GL211258   0.153  35.163   9.186
  478POPC   C1A11259   0.536  35.348   8.819
  478POPC   D2A11260   0.539  35.201   8.398
  478POPC   C3A11261   0.427  35.508   8.085
  478POPC   C4A11262   0.463  35.432   7.644
  478POPC   C1B11263   0.112  35.050   8.717
  478POPC   C2B11264   0.045  35.223   8.288
  478POPC   C3B11265   0.199  35.065   7.873
  478POPC   C4B11266   0.118  35.083   7.404
  479POPC   NC311267  21.628  26.247   9.378
  479POPC   PO411268  21.115  25.739   9.403
  479POPC   GL111269  21.292  25.950   9.066
  479POPC   GL211270  21.270  26.304   9.020
  479POPC   C1A11271  21.469  25.961   8.680
  479POPC   D2A11272  21.409  26.256   8.372
  479POPC   C3A11273  21.599  26.166   7.990
  479POPC   C4A11274  21.353  26.079   7.647
  479POPC   C1B11275  21.152  26.593   8.730
  479POPC   C2B11276  20.953  26.520   8.324
  479POPC   C3B11277  21.195  26.476   7.933
  479POPC   C4B11278  21.090  26.463   7.449
  480POPC   NC311279  27.868  26.475   9.578
  480POPC   PO411280  27.340  26.080   9.665
  480POPC   GL111281  27.449  26.030   9.211
  480POPC   GL211282  27.727  26.162   9.077
  480POPC   C1A11283  27.287  26.022   8.769
  480POPC   D2A11284  27.365  26.156   8.337
  480POPC   C3A11285  27.643  25.991   8.060
  480POPC   C4A11286  27.661  25.841   7.649
  480POPC   C1B11287  27.906  26.400   8.718
  480POPC   C2B11288  28.081  26.365   8.303
  480POPC   C3B11289  27.940  26.366   7.880
  480POPC   C4B11290  27.968  26.213   7.453
  481POPC   NC311291   0.238  10.901   9.537
  481POPC   PO411292   0.561  11.505   9.772
  481POPC   GL111293   0.502  11.301   9.315
  481POPC   GL211294   0.733  11.102   9.107
  481POPC   C1A11295   0.304  11.213   8.868
  481POPC   D2A11296   0.140  11.018   8.481
  481POPC   C3A11297   0.237  11.190   8.099
  481POPC   C4A11298   0.170  11.503   7.789
  481POPC   C1B11299   0.814  11.375   8.761
  481POPC   C2B11300   0.592  11.489   8.395
  481POPC   C3B11301   0.646  11.465   7.960
  481POPC   C4B11302   0.853  11.470   7.569
  482POPC   NC311303  28.495   1.680   9.421
  482POPC   PO411304  28.384   0.985   9.651
  482POPC   GL111305  28.421   1.168   9.231
  482POPC   GL211306  28.113   1.321   9.156
  482POPC   C1A11307  28.526   1.351   8.818
  482POPC   D2A11308  28.705   1.329   8.398
  482POPC   C3A11309  28.563   1.045   8.093
  482POPC   C4A11310  28.531   1.310   7.767
  482POPC   C1B11311  28.077   1.064   8.815
  482POPC   C2B11312  28.192   1.224   8.417
  482POPC   C3B11313  28.041   1.217   7.999
  482POPC   C4B11314  28.147   1.011   7.623
  483POPC   NC311315   8.882  29.194   9.561
  483POPC   PO411316   8.752  28.547   9.536
  483POPC   GL111317   8.622  28.579   9.130
  483POPC   GL211318   8.655  28.953   9.131
  483POPC   C1A11319   8.738  28.349   8.755
  483POPC   D2A11320   9.053  28.374   8.411
  483POPC   C3A11321   8.999  28.303   7.961
  483POPC   C4A11322   8.715  28.335   7.628
  483POPC   C1B11323   8.911  28.835   8.729
  483POPC   C2B11324   9.067  28.872   8.256
  483POPC   C3B11325   9.192  28.777   7.812
  483POPC   C4B11326   9.392  28.879   7.370
  484POPC   NC311327   5.105  15.837   9.712
  484POPC   PO411328   5.394  16.477   9.602
  484POPC   GL111329   5.130  16.198   9.279
  484POPC   GL211330   5.029  15.824   9.216
  484POPC   C1A11331   5.031  16.149   8.816
  484POPC   D2A11332   5.259  16.250   8.412
  484POPC   C3A11333   5.087  16.153   8.004
  484POPC   C4A11334   4.946  15.943   7.625
  484POPC   C1B11335   5.260  15.640   8.868
  484POPC   C2B11336   5.179  15.491   8.433
  484POPC   C3B11337   5.134  15.619   8.006
  484POPC   C4B11338   5.452  15.852   7.779
  485POPC   NC311339   7.410  15.608   9.777
  485POPC   PO411340   7.276  16.150   9.483
  485POPC   GL111341   7.212  16.100   9.070
  485POPC   GL211342   6.920  16.281   9.093
  485POPC   C1A11343   7.396  15.943   8.668
  485POPC   D2A11344   7.561  15.994   8.228
  485POPC   C3A11345   7.521  15.821   7.823
  485POPC   C4A11346   7.592  15.632   7.414
  485POPC   C1B11347   7.013  16.271   8.644
  485POPC   C2B11348   7.181  16.352   8.240
  485POPC   C3B11349   7.128  16.143   7.836
  485POPC   C4B11350   7.331  16.091   7.432
  486POPC   NC311351  38.310  18.662   9.675
  486POPC   PO411352  38.584  18.094   9.721
  486POPC   GL111353  38.728  18.297   9.307
  486POPC   GL211354  38.445  18.196   9.123
  486POPC   C1A11355  38.743  18.473   8.825
  486POPC   D2A11356  38.456  18.321   8.477
  486POPC   C3A11357  38.170  18.414   8.139
  486POPC   C4A11358  38.198  18.587   7.740
  486POPC   C1B11359  38.617  17.944   8.774
  486POPC   C2B11360  38.597  17.822   8.362
  486POPC   C3B11361  38.601  18.107   8.028
  486POPC   C4B11362  38.736  18.085   7.624
  487POPC   NC311363  36.923  22.480   9.609
  487POPC   PO411364  36.835  21.769   9.529
  487POPC   GL111365  37.008  22.080   9.279
  487POPC   GL211366  36.728  22.216   9.121
  487POPC   C1A11367  37.183  22.251   8.902
  487POPC   D2A11368  37.021  22.088   8.486
  487POPC   C3A11369  36.977  22.280   8.080
  487POPC   C4A11370  37.054  22.118   7.668
  487POPC   C1B11371  36.584  22.007   8.745
  487POPC   C2B11372  36.532  22.112   8.301
  487POPC   C3B11373  36.552  21.998   7.857
  487POPC   C4B11374  36.587  22.361   7.621
  488POPC   NC311375   4.971  41.386   9.457
  488POPC   PO411376   5.584  41.232   9.368
  488POPC   GL111377   5.341  41.421   9.079
  488POPC   GL211378   5.194  41.715   9.153
  488POPC   C1A11379   5.013  41.293   8.829
  488POPC   D2A11380   5.179  41.416   8.476
  488POPC   C3A11381   4.922  41.343   8.136
  488POPC   C4A11382   5.082  41.406   7.720
  488POPC   C1B11383   5.431  41.946   8.856
  488POPC   C2B11384   5.556  41.846   8.443
  488POPC   C3B11385   5.363  41.696   8.081
  488POPC   C4B11386   5.276  41.853   7.693
  489POPC   NC311387  36.280  44.183   9.399
  489POPC   PO411388  36.135  43.473   9.547
  489POPC   GL111389  36.076  43.768   9.175
  489POPC   GL211390  36.392  43.754   9.022
  489POPC   C1A11391  36.096  44.074   8.787
  489POPC   D2A11392  36.187  44.009   8.360
  489POPC   C3A11393  35.798  43.967   8.134
  489POPC   C4A11394  35.733  44.044   7.697
  489POPC   C1B11395  36.294  43.579   8.626
  489POPC   C2B11396  36.082  43.521   8.230
  489POPC   C3B11397  36.190  43.789   7.867
  489POPC   C4B11398  36.587  43.874   7.717
  490POPC   NC311399  38.699  43.910   9.519
  490POPC   PO411400  38.279  44.401   9.581
  490POPC   GL111401  38.346  44.136   9.133
  490POPC   GL211402  38.556  43.819   9.049
  490POPC   C1A11403  38.400  44.118   8.653
  490POPC   D2A11404  38.244  44.168   8.216
  490POPC   C3A11405  38.477  44.211   7.817
  490POPC   C4A11406  38.527  44.232   7.330
  490POPC   C1B11407  38.463  43.578   8.708
  490POPC   C2B11408  38.591  43.729   8.330
  490POPC   C3B11409  38.466  43.709   7.915
  490POPC   C4B11410  38.307  43.817   7.514
  491POPC   NC311411  19.261  18.378   9.615
  491POPC   PO411412  18.891  17.926   9.450
  491POPC   GL111413  19.235  18.032   9.173
  491POPC   GL211414  19.054  18.307   9.099
  491POPC   C1A11415  19.310  18.013   8.721
  491POPC   D2A11416  19.039  18.015   8.339
  491POPC   C3A11417  19.200  18.233   7.948
  491POPC   C4A11418  19.086  18.617   7.743
  491POPC   C1B11419  18.774  18.150   8.788
  491POPC   C2B11420  18.556  17.855   8.498
  491POPC   C3B11421  18.636  17.797   8.067
  491POPC   C4B11422  18.578  18.035   7.693
  492POPC   NC311423  30.731   6.952   9.353
  492POPC   PO411424  30.491   7.557   9.551
  492POPC   GL111425  30.710   7.597   9.187
  492POPC   GL211426  30.598   7.313   9.031
  492POPC   C1A11427  30.682   7.732   8.774
  492POPC   D2A11428  30.719   7.402   8.507
  492POPC   C3A11429  30.723   7.544   8.120
  492POPC   C4A11430  30.755   7.483   7.707
  492POPC   C1B11431  30.251   7.241   8.783
  492POPC   C2B11432  30.310   7.120   8.381
  492POPC   C3B11433  30.575   7.057   8.072
  492POPC   C4B11434  30.351   7.141   7.762
  493POPC   NC311435  43.397  28.891   9.434
  493POPC   PO411436  43.880  29.416   9.460
  493POPC   GL111437  43.827  29.072   9.175
  493POPC   GL211438  43.561  28.984   8.960
  493POPC   C1A11439  44.045  29.051   8.781
  493POPC   D2A11440  43.829  28.815   8.490
  493POPC   C3A11441  43.834  29.016   8.093
  493POPC   C4A11442  43.822  28.864   7.683
  493POPC   C1B11443  43.650  29.402   8.821
  493POPC   C2B11444  43.856  29.433   8.438
  493POPC   C3B11445  43.852  29.551   8.017
  493POPC   C4B11446  44.016  29.323   7.702
  494POPC   NC311447  12.217  34.181   9.490
  494POPC   PO411448  12.056  33.572   9.524
  494POPC   GL111449  11.997  33.814   9.140
  494POPC   GL211450  12.297  33.990   9.026
  494POPC   C1A11451  11.738  33.663   8.808
  494POPC   D2A11452  11.660  33.736   8.388
  494POPC   C3A11453  11.907  33.513   8.056
  494POPC   C4A11454  11.917  33.826   7.728
  494POPC   C1B11455  12.068  34.027   8.648
  494POPC   C2B11456  12.136  33.926   8.209
  494POPC   C3B11457  12.377  33.696   7.869
  494POPC   C4B11458  12.377  33.931   7.472
  495POPC   NC311459   6.838  10.270   9.484
  495POPC   PO411460   6.214  10.536   9.509
  495POPC   GL111461   6.501  10.489   9.155
  495POPC   GL211462   6.366  10.163   9.145
  495POPC   C1A11463   6.808  10.529   8.798
  495POPC   D2A11464   7.031  10.580   8.408
  495POPC   C3A11465   6.908  10.789   8.046
  495POPC   C4A11466   6.843  10.621   7.665
  495POPC   C1B11467   6.426  10.209   8.715
  495POPC   C2B11468   6.581  10.331   8.296
  495POPC   C3B11469   6.611  10.217   7.850
  495POPC   C4B11470   6.301  10.307   7.516
  496POPC   NC311471  29.734   1.306   9.540
  496POPC   PO411472  30.021   0.782   9.287
  496POPC   GL111473  29.904   1.156   9.074
  496POPC   GL211474  30.071   1.475   9.172
  496POPC   C1A11475  29.787   1.350   8.699
  496POPC   D2A11476  29.778   1.573   8.311
  496POPC   C3A11477  29.824   1.262   8.036
  496POPC   C4A11478  29.770   1.163   7.652
  496POPC   C1B11479  30.128   1.721   8.804
  496POPC   C2B11480  30.250   1.725   8.396
  496POPC   C3B11481  30.118   1.696   7.947
  496POPC   C4B11482  30.336   1.600   7.582
  497POPC   NC311483   8.085  37.179   9.497
  497POPC   PO411484   8.506  36.597   9.356
  497POPC   GL111485   8.234  36.825   9.162
  497POPC   GL211486   8.456  37.105   9.187
  497POPC   C1A11487   8.003  36.960   8.834
  497POPC   D2A11488   8.121  37.053   8.441
  497POPC   C3A11489   8.122  36.792   8.056
  497POPC   C4A11490   8.347  36.561   7.735
  497POPC   C1B11491   8.398  37.330   8.833
  497POPC   C2B11492   8.616  37.300   8.483
  497POPC   C3B11493   8.501  37.150   8.118
  497POPC   C4B11494   8.359  37.096   7.703
  498POPC   NC311495  24.518   6.742   9.523
  498POPC   PO411496  24.906   6.059   9.500
  498POPC   GL111497  24.623   6.304   9.192
  498POPC   GL211498  24.354   6.524   9.121
  498POPC   C1A11499  24.673   6.595   8.767
  498POPC   D2A11500  24.674   6.768   8.345
  498POPC   C3A11501  24.413   6.860   7.983
  498POPC   C4A11502  24.544   6.667   7.608
  498POPC   C1B11503  24.268   6.247   8.815
  498POPC   C2B11504  24.263   6.402   8.421
  498POPC   C3B11505  24.477   6.348   8.054
  498POPC   C4B11506  24.267   6.252   7.708
  499POPC   NC311507  24.640  27.125   9.528
  499POPC   PO411508  24.178  26.700   9.541
  499POPC   GL111509  24.520  26.644   9.238
  499POPC   GL211510  24.694  26.906   9.071
  499POPC   C1A11511  24.384  26.562   8.800
  499POPC   D2A11512  23.999  26.603   8.534
  499POPC   C3A11513  24.067  26.587   8.081
  499POPC   C4A11514  24.484  26.599   7.862
  499POPC   C1B11515  24.700  26.918   8.625
  499POPC   C2B11516  24.374  26.889   8.336
  499POPC   C3B11517  24.450  27.106   7.977
  499POPC   C4B11518  24.875  26.997   7.894
  500POPC   NC311519  42.136  20.361   9.394
  500POPC   PO411520  42.408  19.806   9.504
  500POPC   GL111521  42.260  19.898   9.116
  500POPC   GL211522  41.899  19.823   9.141
  500POPC   C1A11523  42.440  19.864   8.701
  500POPC   D2A11524  42.452  19.586   8.364
  500POPC   C3A11525  42.352  19.720   7.938
  500POPC   C4A11526  42.628  19.853   7.599
  500POPC   C1B11527  41.975  20.049   8.717
  500POPC   C2B11528  42.147  20.061   8.269
  500POPC   C3B11529  41.881  20.014   7.887
  500POPC   C4B11530  41.884  20.218   7.434
  501POPC   NC311531  44.154  41.144   9.536
  501POPC   PO411532  43.708  41.698   9.430
  501POPC   GL111533  43.876  41.690   9.060
  501POPC   GL211534  44.161  41.517   9.144
  501POPC   C1A11535  43.742  41.683   8.662
  501POPC   D2A11536  43.663  41.929   8.310
  501POPC   C3A11537  43.848  41.807   7.919
  501POPC   C4A11538  43.698  41.432   7.752
  501POPC   C1B11539  44.083  41.297   8.754
  501POPC   C2B11540  44.116  41.495   8.351
  501POPC   C3B11541  44.142  41.350   7.963
  501POPC   C4B11542  44.237  41.189   7.548
  502POPC   NC311543  11.224  32.912   9.493
  502POPC   PO411544  11.135  33.548   9.398
  502POPC   GL111545  11.414  33.365   9.097
  502POPC   GL211546  11.358  32.990   9.022
  502POPC   C1A11547  11.342  33.326   8.651
  502POPC   D2A11548  11.513  33.254   8.267
  502POPC   C3A11549  11.200  33.192   7.958
  502POPC   C4A11550  11.182  33.236   7.499
  502POPC   C1B11551  11.444  32.755   8.661
  502POPC   C2B11552  11.391  32.757   8.203
  502POPC   C3B11553  11.489  32.727   7.780
  502POPC   C4B11554  11.455  32.705   7.353
  503POPC   NC311555  34.740  43.925   9.585
  503POPC   PO411556  34.089  44.022   9.581
  503POPC   GL111557  34.376  43.848   9.207
  503POPC   GL211558  34.749  43.692   9.133
  503POPC   C1A11559  34.509  44.020   8.796
  503POPC   D2A11560  34.863  44.087   8.538
  503POPC   C3A11561  34.765  43.905   8.139
  503POPC   C4A11562  34.471  44.117   7.829
  503POPC   C1B11563  34.814  43.589   8.689
  503POPC   C2B11564  34.453  43.606   8.418
  503POPC   C3B11565  34.297  43.651   8.029
  503POPC   C4B11566  34.567  43.641   7.686
  504POPC   NC311567  15.741   1.824   9.633
  504POPC   PO411568  15.331   2.285   9.676
  504POPC   GL111569  15.720   2.270   9.324
  504POPC   GL211570  16.065   2.070   9.320
  504POPC   C1A11571  15.876   2.299   8.878
  504POPC   D2A11572  15.737   2.095   8.495
  504POPC   C3A11573  15.806   1.912   8.092
  504POPC   C4A11574  15.732   1.983   7.650
  504POPC   C1B11575  16.176   1.879   8.925
  504POPC   C2B11576  16.225   1.924   8.456
  504POPC   C3B11577  16.257   2.132   8.036
  504POPC   C4B11578  16.222   2.227   7.605
  505POPC   NC311579  39.333  33.806   9.729
  505POPC   PO411580  39.072  33.294   9.521
  505POPC   GL111581  39.217  33.599   9.146
  505POPC   GL211582  39.109  33.956   9.104
  505POPC   C1A11583  39.284  33.821   8.659
  505POPC   D2A11584  39.385  33.848   8.214
  505POPC   C3A11585  39.151  33.839   7.846
  505POPC   C4A11586  39.071  33.865   7.407
  505POPC   C1B11587  38.886  34.140   8.715
  505POPC   C2B11588  38.894  34.067   8.237
  505POPC   C3B11589  38.790  34.223   7.826
  505POPC   C4B11590  39.079  34.362   7.498
  506POPC   NC311591  36.899  40.170   9.528
  506POPC   PO411592  36.768  39.483   9.664
  506POPC   GL111593  36.866  39.733   9.226
  506POPC   GL211594  37.056  40.011   9.086
  506POPC   C1A11595  36.894  39.709   8.737
  506POPC   D2A11596  36.537  39.789   8.484
  506POPC   C3A11597  36.626  39.903   8.085
  506POPC   C4A11598  36.724  39.693   7.737
  506POPC   C1B11599  37.046  40.249   8.710
  506POPC   C2B11600  37.086  40.055   8.313
  506POPC   C3B11601  37.082  40.049   7.889
  506POPC   C4B11602  37.055  40.350   7.586
  507POPC   NC311603  37.528  24.865   9.580
  507POPC   PO411604  37.605  25.556   9.608
  507POPC   GL111605  37.538  25.550   9.174
  507POPC   GL211606  37.874  25.735   9.189
  507POPC   C1A11607  37.449  25.245   8.763
  507POPC   D2A11608  37.619  24.925   8.429
  507POPC   C3A11609  37.723  25.055   8.003
  507POPC   C4A11610  37.532  25.301   7.674
  507POPC   C1B11611  37.884  25.481   8.806
  507POPC   C2B11612  37.848  25.407   8.349
  507POPC   C3B11613  37.817  25.620   7.937
  507POPC   C4B11614  37.822  25.629   7.430
  508POPC   NC311615  21.356  24.440   9.421
  508POPC   PO411616  20.722  24.119   9.410
  508POPC   GL111617  21.093  24.222   9.063
  508POPC   GL211618  21.522  24.245   8.990
  508POPC   C1A11619  21.189  24.402   8.661
  508POPC   D2A11620  21.412  24.179   8.372
  508POPC   C3A11621  21.379  24.366   7.973
  508POPC   C4A11622  21.146  24.764   7.956
  508POPC   C1B11623  21.592  24.710   8.763
  508POPC   C2B11624  21.560  24.965   8.363
  508POPC   C3B11625  21.698  24.863   7.981
  508POPC   C4B11626  21.555  24.730   7.640
  509POPC   NC311627  42.174  40.022   9.456
  509POPC   PO411628  42.280  39.348   9.584
  509POPC   GL111629  42.343  39.598   9.209
  509POPC   GL211630  42.641  39.840   9.237
  509POPC   C1A11631  42.306  39.823   8.818
  509POPC   D2A11632  42.221  40.035   8.455
  509POPC   C3A11633  42.287  39.837   8.081
  509POPC   C4A11634  42.018  40.014   7.789
  509POPC   C1B11635  42.716  40.151   8.881
  509POPC   C2B11636  42.735  40.094   8.428
  509POPC   C3B11637  42.549  40.275   8.056
  509POPC   C4B11638  42.505  40.088   7.665
  510POPC   NC311639  14.292  43.095   9.591
  510POPC   PO411640  14.800  42.748   9.376
  510POPC   GL111641  14.562  43.133   9.153
  510POPC   GL211642  14.268  43.412   9.192
  510POPC   C1A11643  14.268  43.068   8.813
  510POPC   D2A11644  14.551  43.056   8.473
  510POPC   C3A11645  14.424  42.927   8.074
  510POPC   C4A11646  14.700  42.885   7.715
  510POPC   C1B11647  14.297  43.591   8.766
  510POPC   C2B11648  14.186  43.376   8.381
  510POPC   C3B11649  14.109  43.427   7.967
  510POPC   C4B11650  14.447  43.335   7.762
  511POPC   NC311651  14.068  26.100   9.539
  511POPC   PO411652  14.682  25.892   9.754
  511POPC   GL111653  14.536  26.098   9.297
  511POPC   GL211654  14.234  25.938   9.083
  511POPC   C1A11655  14.568  26.233   8.852
  511POPC   D2A11656  14.277  26.201   8.487
  511POPC   C3A11657  14.435  26.197   8.060
  511POPC   C4A11658  14.624  25.893   7.818
  511POPC   C1B11659  14.204  25.652   8.692
  511POPC   C2B11660  14.123  25.469   8.266
  511POPC   C3B11661  14.090  25.812   7.945
  511POPC   C4B11662  13.959  26.271   7.846
  512POPC   NC311663   6.998  19.505   9.288
  512POPC   PO411664   7.081  20.186   9.542
  512POPC   GL111665   6.948  20.004   9.159
  512POPC   GL211666   6.595  19.951   9.122
  512POPC   C1A11667   6.983  19.838   8.733
  512POPC   D2A11668   6.846  19.536   8.414
  512POPC   C3A11669   6.851  19.737   8.007
  512POPC   C4A11670   6.625  19.803   7.625
  512POPC   C1B11671   6.615  20.194   8.788
  512POPC   C2B11672   6.651  20.043   8.384
  512POPC   C3B11673   6.712  20.236   8.006
  512POPC   C4B11674   6.819  20.261   7.586
  513POPC   NC311675   7.743  40.911   9.335
  513POPC   PO411676   7.127  41.098   9.710
  513POPC   GL111677   7.237  40.998   9.259
  513POPC   GL211678   7.237  40.656   9.134
  513POPC   C1A11679   7.381  40.989   8.792
  513POPC   D2A11680   7.219  40.805   8.416
  513POPC   C3A11681   7.510  40.776   8.084
  513POPC   C4A11682   7.504  40.994   7.738
  513POPC   C1B11683   7.131  40.421   8.747
  513POPC   C2B11684   7.065  40.348   8.262
  513POPC   C3B11685   7.086  40.541   7.814
  513POPC   C4B11686   7.142  40.436   7.325
  514POPC   NC311687  20.713  33.354   9.892
  514POPC   PO411688  20.361  32.897   9.506
  514POPC   GL111689  20.422  32.816   9.109
  514POPC   GL211690  20.726  32.994   9.122
  514POPC   C1A11691  20.229  32.681   8.716
  514POPC   D2A11692  20.298  32.881   8.335
  514POPC   C3A11693  20.585  32.674   8.161
  514POPC   C4A11694  20.666  32.831   7.785
  514POPC   C1B11695  20.673  32.929   8.678
  514POPC   C2B11696  20.765  33.130   8.340
  514POPC   C3B11697  20.584  33.265   8.032
  514POPC   C4B11698  20.686  33.330   7.634
  515POPC   NC311699   5.528   7.997   9.494
  515POPC   PO411700   5.037   8.395   9.507
  515POPC   GL111701   4.932   8.344   9.105
  515POPC   GL211702   5.289   8.218   9.078
  515POPC   C1A11703   5.074   8.489   8.720
  515POPC   D2A11704   5.332   8.219   8.499
  515POPC   C3A11705   5.128   8.181   8.123
  515POPC   C4A11706   5.095   8.434   7.751
  515POPC   C1B11707   5.047   7.918   8.818
  515POPC   C2B11708   5.139   7.625   8.470
  515POPC   C3B11709   4.952   7.626   8.067
  515POPC   C4B11710   4.993   7.907   7.719
  516POPC   NC311711  43.140  38.163   9.481
  516POPC   PO411712  43.010  38.776   9.211
  516POPC   GL111713  43.297  38.641   8.927
  516POPC   GL211714  43.456  38.362   9.095
  516POPC   C1A11715  43.157  38.665   8.519
  516POPC   D2A11716  42.779  38.610   8.297
  516POPC   C3A11717  42.943  38.523   7.926
  516POPC   C4A11718  42.975  38.134   7.759
  516POPC   C1B11719  43.230  38.176   8.726
  516POPC   C2B11720  43.198  38.222   8.259
  516POPC   C3B11721  43.450  38.092   7.912
  516POPC   C4B11722  43.656  38.037   7.504
  517POPC   NC311723   1.996  35.443   9.463
  517POPC   PO411724   2.430  34.944   9.693
  517POPC   GL111725   2.145  35.040   9.202
  517POPC   GL211726   2.292  35.213   8.869
  517POPC   C1A11727   1.819  35.330   8.851
  517POPC   D2A11728   1.925  35.507   8.425
  517POPC   C3A11729   1.824  35.363   7.991
  517POPC   C4A11730   1.805  35.398   7.503
  517POPC   C1B11731   2.067  34.997   8.542
  517POPC   C2B11732   2.166  34.973   8.118
  517POPC   C3B11733   2.276  35.261   7.772
  517POPC   C4B11734   2.418  35.188   7.349
  518POPC   NC311735  44.850  15.186   9.535
  518POPC   PO411736  44.187  15.020   9.504
  518POPC   GL111737  44.447  15.187   9.161
  518POPC   GL211738  44.706  14.943   9.116
  518POPC   C1A11739  44.760  15.350   8.820
  518POPC   D2A11740  44.868  15.222   8.405
  518POPC   C3A11741  44.774  15.417   8.011
  518POPC   C4A11742  44.468  15.270   7.724
  518POPC   C1B11743  44.718  14.639   8.804
  518POPC   C2B11744  44.759  14.676   8.407
  518POPC   C3B11745  44.648  14.909   8.053
  518POPC   C4B11746  44.653  14.784   7.627
  519POPC   NC311747  27.821   5.900   9.495
  519POPC   PO411748  27.616   5.307   9.477
  519POPC   GL111749  27.715   5.506   9.100
  519POPC   GL211750  27.534   5.836   9.069
  519POPC   C1A11751  27.812   5.670   8.671
  519POPC   D2A11752  27.614   5.932   8.381
  519POPC   C3A11753  27.765   5.777   8.012
  519POPC   C4A11754  27.584   5.847   7.638
  519POPC   C1B11755  27.349   6.152   8.783
  519POPC   C2B11756  27.143   6.194   8.367
  519POPC   C3B11757  27.252   6.140   7.912
  519POPC   C4B11758  27.240   6.151   7.431
  520POPC   NC311759  37.723  14.392   9.626
  520POPC   PO411760  38.138  14.702   9.642
  520POPC   GL111761  37.997  14.572   9.185
  520POPC   GL211762  37.656  14.406   9.104
  520POPC   C1A11763  37.942  14.529   8.693
  520POPC   D2A11764  37.710  14.609   8.268
  520POPC   C3A11765  37.767  14.383   7.843
  520POPC   C4A11766  37.920  14.388   7.393
  520POPC   C1B11767  37.445  14.357   8.673
  520POPC   C2B11768  37.328  14.244   8.227
  520POPC   C3B11769  37.261  14.422   7.817
  520POPC   C4B11770  37.401  14.256   7.437
  521POPC   NC311771   0.189  24.910   9.824
  521POPC   PO411772   0.552  24.337   9.599
  521POPC   GL111773   0.458  24.379   9.198
  521POPC   GL211774   0.422  24.037   9.117
  521POPC   C1A11775   0.620  24.451   8.791
  521POPC   D2A11776   0.897  24.577   8.477
  521POPC   C3A11777   0.729  24.431   8.143
  521POPC   C4A11778   0.546  24.441   7.763
  521POPC   C1B11779   0.164  24.232   8.799
  521POPC   C2B11780   0.261  24.424   8.414
  521POPC   C3B11781   0.161  24.623   8.045
  521POPC   C4B11782  44.956  24.392   7.741
  522POPC   NC311783  42.611   0.440   9.392
  522POPC   PO411784  43.198   0.792   9.571
  522POPC   GL111785  43.194   0.817   9.127
  522POPC   GL211786  42.877   0.654   8.994
  522POPC   C1A11787  43.313   0.612   8.736
  522POPC   D2A11788  42.998   0.466   8.453
  522POPC   C3A11789  42.986   0.544   8.032
  522POPC   C4A11790  43.337   0.454   7.813
  522POPC   C1B11791  42.584   0.376   8.721
  522POPC   C2B11792  42.629   0.135   8.310
  522POPC   C3B11793  42.631   0.187   7.862
  522POPC   C4B11794  42.751   0.521   7.563
  523POPC   NC311795   0.263   8.990   9.485
  523POPC   PO411796   0.825   9.358   9.320
  523POPC   GL111797   0.555   9.052   9.042
  523POPC   GL211798   0.395   8.693   9.029
  523POPC   C1A11799   0.470   8.930   8.597
  523POPC   D2A11800   0.181   8.987   8.273
  523POPC   C3A11801   0.316   9.178   7.929
  523POPC   C4A11802   0.468   9.224   7.505
  523POPC   C1B11803   0.820   8.607   8.825
  523POPC   C2B11804   0.950   8.700   8.406
  523POPC   C3B11805   0.613   8.743   8.114
  523POPC   C4B11806   0.316   8.704   7.781
  524POPC   NC311807  28.942  16.421   9.471
  524POPC   PO411808  29.307  16.943   9.524
  524POPC   GL111809  29.206  16.719   9.169
  524POPC   GL211810  28.844  16.804   9.132
  524POPC   C1A11811  29.176  16.647   8.746
  524POPC   D2A11812  29.331  16.879   8.409
  524POPC   C3A11813  29.195  16.734   8.020
  524POPC   C4A11814  29.110  16.633   7.597
  524POPC   C1B11815  28.691  16.534   8.786
  524POPC   C2B11816  28.805  16.633   8.367
  524POPC   C3B11817  28.743  16.517   7.933
  524POPC   C4B11818  28.803  16.221   7.586
  525POPC   NC311819  32.195  11.287   9.649
  525POPC   PO411820  31.743  11.307   9.160
  525POPC   GL111821  32.166  11.394   9.117
  525POPC   GL211822  32.382  11.152   9.171
  525POPC   C1A11823  32.225  11.289   8.700
  525POPC   D2A11824  31.972  11.251   8.368
  525POPC   C3A11825  32.148  11.463   8.057
  525POPC   C4A11826  32.026  11.480   7.641
  525POPC   C1B11827  32.489  10.862   8.851
  525POPC   C2B11828  32.447  10.921   8.415
  525POPC   C3B11829  32.441  10.843   8.011
  525POPC   C4B11830  32.454  11.181   7.759
  526POPC   NC311831   6.023  35.156   9.285
  526POPC   PO411832   5.956  34.460   9.494
  526POPC   GL111833   5.887  34.654   9.125
  526POPC   GL211834   5.565  34.792   9.102
  526POPC   C1A11835   5.963  34.821   8.728
  526POPC   D2A11836   6.160  34.761   8.373
  526POPC   C3A11837   5.958  34.847   8.065
  526POPC   C4A11838   5.894  34.629   7.727
  526POPC   C1B11839   5.588  34.451   8.750
  526POPC   C2B11840   5.761  34.397   8.326
  526POPC   C3B11841   5.728  34.189   7.925
  526POPC   C4B11842   5.671  34.280   7.462
  527POPC   NC311843  24.196  15.718   9.360
  527POPC   PO411844  24.686  16.214   9.422
  527POPC   GL111845  24.647  15.807   9.136
  527POPC   GL211846  24.932  15.576   9.177
  527POPC   C1A11847  24.398  15.710   8.732
  527POPC   D2A11848  24.385  15.956   8.335
  527POPC   C3A11849  24.306  15.796   7.901
  527POPC   C4A11850  24.337  16.085   7.545
  527POPC   C1B11851  24.837  15.429   8.768
  527POPC   C2B11852  24.805  15.644   8.428
  527POPC   C3B11853  24.805  15.720   8.035
  527POPC   C4B11854  24.700  15.520   7.685
  528POPC   NC311855  15.700  40.472   9.617
  528POPC   PO411856  15.004  40.408   9.621
  528POPC   GL111857  14.988  40.598   9.180
  528POPC   GL211858  14.743  40.388   9.058
  528POPC   C1A11859  15.199  40.884   8.864
  528POPC   D2A11860  15.367  41.080   8.462
  528POPC   C3A11861  15.277  40.966   8.022
  528POPC   C4A11862  15.519  40.614   7.837
  528POPC   C1B11863  14.724  40.746   8.734
  528POPC   C2B11864  14.909  40.806   8.331
  528POPC   C3B11865  15.041  40.484   8.009
  528POPC   C4B11866  15.065  40.495   7.544
  529POPC   NC311867  41.979  30.772   9.558
  529POPC   PO411868  41.290  30.551   9.442
  529POPC   GL111869  41.630  30.607   9.176
  529POPC   GL211870  41.772  30.903   9.107
  529POPC   C1A11871  41.696  30.450   8.785
  529POPC   D2A11872  41.465  30.374   8.446
  529POPC   C3A11873  41.594  30.522   8.090
  529POPC   C4A11874  41.826  30.499   7.740
  529POPC   C1B11875  41.526  30.940   8.740
  529POPC   C2B11876  41.712  31.028   8.334
  529POPC   C3B11877  41.459  31.003   7.990
  529POPC   C4B11878  41.314  30.710   7.705
  530POPC   NC311879  35.905  40.227   9.439
  530POPC   PO411880  36.360  39.844   9.243
  530POPC   GL111881  36.044  40.035   8.980
  530POPC   GL211882  35.841  40.347   8.960
  530POPC   C1A11883  36.109  40.129   8.570
  530POPC   D2A11884  36.059  39.838   8.279
  530POPC   C3A11885  36.166  40.030   7.927
  530POPC   C4A11886  36.226  39.725   7.683
  530POPC   C1B11887  35.668  40.404   8.577
  530POPC   C2B11888  35.713  40.224   8.190
  530POPC   C3B11889  35.820  40.351   7.775
  530POPC   C4B11890  36.226  40.527   7.713
  531POPC   NC311891  21.433  20.706   9.530
  531POPC   PO411892  21.582  20.098   9.745
  531POPC   GL111893  21.276  20.212   9.398
  531POPC   GL211894  21.512  20.340   9.186
  531POPC   C1A11895  21.083  20.283   8.934
  531POPC   D2A11896  21.014  20.599   8.566
  531POPC   C3A11897  21.061  20.479   8.098
  531POPC   C4A11898  21.403  20.291   7.853
  531POPC   C1B11899  21.480  20.587   8.817
  531POPC   C2B11900  21.490  20.516   8.370
  531POPC   C3B11901  21.532  20.766   7.993
  531POPC   C4B11902  21.896  20.928   7.752
  532POPC   NC311903  25.776   3.267   9.550
  532POPC   PO411904  26.282   3.698   9.358
  532POPC   GL111905  26.117   3.544   9.005
  532POPC   GL211906  26.072   3.237   9.122
  532POPC   C1A11907  26.140   3.458   8.556
  532POPC   D2A11908  26.147   3.453   8.130
  532POPC   C3A11909  25.831   3.691   7.884
  532POPC   C4A11910  25.847   3.844   7.439
  532POPC   C1B11911  25.781   3.197   8.785
  532POPC   C2B11912  25.677   3.365   8.353
  532POPC   C3B11913  25.760   3.175   7.957
  532POPC   C4B11914  26.018   3.054   7.662
  533POPC   NC311915   6.776  42.200   9.483
  533POPC   PO411916   6.297  42.767   9.594
  533POPC   GL111917   6.436  42.664   9.130
  533POPC   GL211918   6.553  42.323   9.041
  533POPC   C1A11919   6.682  42.699   8.711
  533POPC   D2A11920   6.612  42.959   8.330
  533POPC   C3A11921   6.615  42.751   7.939
  533POPC   C4A11922   6.734  42.590   7.557
  533POPC   C1B11923   6.253  42.446   8.698
  533POPC   C2B11924   6.370  42.443   8.270
  533POPC   C3B11925   6.552  42.259   7.904
  533POPC   C4B11926   6.350  42.114   7.587
  534POPC   NC311927  31.652  21.674   9.984
  534POPC   PO411928  31.155  21.339   9.696
  534POPC   GL111929  31.229  21.212   9.267
  534POPC   GL211930  31.273  21.565   9.161
  534POPC   C1A11931  31.393  21.211   8.830
  534POPC   D2A11932  31.247  21.029   8.468
  534POPC   C3A11933  31.426  21.247   8.145
  534POPC   C4A11934  31.175  21.135   7.862
  534POPC   C1B11935  31.430  21.720   8.733
  534POPC   C2B11936  31.412  21.744   8.267
  534POPC   C3B11937  31.616  21.616   7.831
  534POPC   C4B11938  31.638  21.616   7.341
  535POPC   NC311939   6.870  31.384   9.565
  535POPC   PO411940   6.286  31.510   9.458
  535POPC   GL111941   6.566  31.289   9.145
  535POPC   GL211942   6.944  31.346   9.087
  535POPC   C1A11943   6.576  31.455   8.729
  535POPC   D2A11944   6.524  31.716   8.382
  535POPC   C3A11945   6.418  31.474   8.071
  535POPC   C4A11946   6.487  31.496   7.673
  535POPC   C1B11947   7.015  31.199   8.721
  535POPC   C2B11948   6.948  31.380   8.345
  535POPC   C3B11949   6.915  31.262   7.939
  535POPC   C4B11950   6.716  31.072   7.607
  536POPC   NC311951  25.063  42.040   9.473
  536POPC   PO411952  25.550  41.540   9.474
  536POPC   GL111953  25.254  41.596   9.165
  536POPC   GL211954  25.395  41.907   9.110
  536POPC   C1A11955  25.037  41.445   8.805
  536POPC   D2A11956  25.048  41.583   8.392
  536POPC   C3A11957  25.031  41.342   8.049
  536POPC   C4A11958  25.288  41.425   7.689
  536POPC   C1B11959  25.206  41.924   8.731
  536POPC   C2B11960  25.401  41.948   8.343
  536POPC   C3B11961  25.219  41.854   7.945
  536POPC   C4B11962  25.213  41.915   7.470
  537POPC   NC311963  44.412  17.989   9.462
  537POPC   PO411964  44.467  18.710   9.520
  537POPC   GL111965  44.685  18.520   9.153
  537POPC   GL211966  44.457  18.256   9.016
  537POPC   C1A11967  44.719  18.559   8.695
  537POPC   D2A11968  44.498  18.226   8.444
  537POPC   C3A11969  44.689  18.170   8.048
  537POPC   C4A11970  44.591  18.334   7.684
  537POPC   C1B11971  44.829  18.068   8.818
  537POPC   C2B11972   0.015  18.010   8.419
  537POPC   C3B11973   0.001  17.758   8.084
  537POPC   C4B11974   0.030  17.910   7.710
  538POPC   NC311975  35.825   4.280   9.443
  538POPC   PO411976  36.484   4.496   9.362
  538POPC   GL111977  36.266   4.213   9.111
  538POPC   GL211978  35.975   4.394   8.972
  538POPC   C1A11979  36.155   3.985   8.745
  538POPC   D2A11980  36.042   4.300   8.442
  538POPC   C3A11981  35.827   4.169   8.090
  538POPC   C4A11982  35.889   4.182   7.671
  538POPC   C1B11983  36.283   4.657   8.752
  538POPC   C2B11984  36.446   4.616   8.329
  538POPC   C3B11985  36.199   4.524   7.988
  538POPC   C4B11986  36.075   4.699   7.614
  539POPC   NC311987   2.043   0.345   9.569
  539POPC   PO411988   1.553   0.317   9.160
  539POPC   GL111989   1.860   0.605   9.023
  539POPC   GL211990   2.161   0.575   9.124
  539POPC   C1A11991   1.987   0.609   8.592
  539POPC   D2A11992   1.951   0.258   8.277
  539POPC   C3A11993   2.060   0.456   7.894
  539POPC   C4A11994   1.735   0.542   7.620
  539POPC   C1B11995   2.332   0.284   8.843
  539POPC   C2B11996   2.430   0.356   8.417
  539POPC   C3B11997   2.418   0.121   8.056
  539POPC   C4B11998   2.452   0.205   7.645
  540POPC   NC311999   7.881  12.274   9.483
  540POPC   PO412000   8.548  12.082   9.445
  540POPC   GL112001   8.254  12.178   9.164
  540POPC   GL212002   8.057  11.854   9.197
  540POPC   C1A12003   8.180  12.345   8.795
  540POPC   D2A12004   8.386  12.196   8.480
  540POPC   C3A12005   8.180  12.226   8.113
  540POPC   C4A12006   8.338  12.145   7.701
  540POPC   C1B12007   8.210  11.814   8.780
  540POPC   C2B12008   8.075  11.786   8.356
  540POPC   C3B12009   7.996  11.808   7.923
  540POPC   C4B12010   7.813  12.049   7.583
  541POPC   NC312011   2.465  20.094   9.532
  541POPC   PO412012   2.791  19.421   9.541
  541POPC   GL112013   2.675  19.688   9.076
  541POPC   GL212014   2.389  19.583   8.870
  541POPC   C1A12015   2.772  20.120   8.849
  541POPC   D2A12016   2.876  20.285   8.417
  541POPC   C3A12017   3.170  20.058   8.134
  541POPC   C4A12018   3.126  19.966   7.689
  541POPC   C1B12019   2.334  19.997   8.639
  541POPC   C2B12020   2.405  20.129   8.218
  541POPC   C3B12021   2.536  19.810   7.889
  541POPC   C4B12022   2.296  19.475   7.709
  542POPC   NC312023   1.675   1.198   9.710
  542POPC   PO412024   1.192   1.551   9.363
  542POPC   GL112025   1.109   1.241   9.079
  542POPC   GL212026   1.445   1.295   8.997
  542POPC   C1A12027   1.079   1.097   8.646
  542POPC   D2A12028   1.342   0.963   8.274
  542POPC   C3A12029   1.384   1.221   7.880
  542POPC   C4A12030   1.129   1.229   7.483
  542POPC   C1B12031   1.314   1.579   8.676
  542POPC   C2B12032   1.116   1.473   8.286
  542POPC   C3B12033   0.838   1.323   7.970
  542POPC   C4B12034   0.797   1.580   7.633
  543POPC   NC312035  20.780  18.923   9.505
  543POPC   PO412036  20.160  19.165   9.356
  543POPC   GL112037  20.396  19.001   9.106
  543POPC   GL212038  20.650  19.249   9.115
  543POPC   C1A12039  20.352  18.937   8.684
  543POPC   D2A12040  20.592  18.690   8.407
  543POPC   C3A12041  20.518  18.757   7.990
  543POPC   C4A12042  20.808  19.023   7.764
  543POPC   C1B12043  20.650  19.401   8.681
  543POPC   C2B12044  20.776  19.320   8.228
  543POPC   C3B12045  20.792  19.553   7.835
  543POPC   C4B12046  20.578  19.401   7.494
  544POPC   NC312047  36.003  44.845   9.391
  544POPC   PO412048  36.641  44.491   9.414
  544POPC   GL112049  36.345  44.618   9.055
  544POPC   GL212050  36.155  44.932   8.909
  544POPC   C1A12051  36.281  44.536   8.598
  544POPC   D2A12052  35.942  44.441   8.291
  544POPC   C3A12053  36.127  44.328   7.920
  544POPC   C4A12054  36.118  44.677   7.667
  544POPC   C1B12055  35.810  44.708   8.714
  544POPC   C2B12056  35.554  44.753   8.374
  544POPC   C3B12057  35.795  44.922   8.054
  544POPC   C4B12058  35.685   0.018   7.649
  545POPC   NC312059  41.662  37.766   9.596
  545POPC   PO412060  41.376  37.247   9.479
  545POPC   GL112061  41.408  37.631   9.162
  545POPC   GL212062  41.237  37.949   9.296
  545POPC   C1A12063  41.643  37.765   8.763
  545POPC   D2A12064  41.513  37.762   8.298
  545POPC   C3A12065  41.786  37.654   7.907
  545POPC   C4A12066  41.815  37.667   7.424
  545POPC   C1B12067  41.405  38.164   8.939
  545POPC   C2B12068  41.345  38.228   8.498
  545POPC   C3B12069  41.239  38.120   8.062
  545POPC   C4B12070  41.388  37.898   7.694
  546POPC   NC312071   0.785   3.667   9.645
  546POPC   PO412072   0.142   3.693   9.620
  546POPC   GL112073   0.454   3.477   9.303
  546POPC   GL212074   0.316   3.730   9.102
  546POPC   C1A12075   0.598   3.423   8.833
  546POPC   D2A12076   0.709   3.324   8.391
  546POPC   C3A12077   0.622   3.598   8.025
  546POPC   C4A12078   0.426   3.414   7.712
  546POPC   C1B12079   0.165   3.874   8.699
  546POPC   C2B12080   0.341   3.930   8.295
  546POPC   C3B12081   0.152   3.802   7.915
  546POPC   C4B12082  44.923   4.016   7.642
  547POPC   NC312083  29.699  38.288   9.572
  547POPC   PO412084  30.306  38.591   9.522
  547POPC   GL112085  30.031  38.517   9.223
  547POPC   GL212086  30.290  38.300   9.098
  547POPC   C1A12087  29.768  38.655   8.874
  547POPC   D2A12088  29.832  38.692   8.416
  547POPC   C3A12089  29.594  38.655   8.029
  547POPC   C4A12090  29.657  38.777   7.592
  547POPC   C1B12091  30.299  38.621   8.806
  547POPC   C2B12092  30.341  38.599   8.362
  547POPC   C3B12093  30.106  38.664   7.994
  547POPC   C4B12094  29.934  38.366   7.733
  548POPC   NC312095  27.003  30.374   9.507
  548POPC   PO412096  26.844  31.100   9.415
  548POPC   GL112097  26.754  30.814   9.113
  548POPC   GL212098  27.098  30.760   9.110
  548POPC   C1A12099  26.531  30.752   8.705
  548POPC   D2A12100  26.672  30.600   8.318
  548POPC   C3A12101  26.680  30.895   7.992
  548POPC   C4A12102  26.612  30.602   7.667
  548POPC   C1B12103  26.989  30.544   8.728
  548POPC   C2B12104  27.157  30.740   8.357
  548POPC   C3B12105  27.108  30.633   7.949
  548POPC   C4B12106  27.201  30.425   7.586
  549POPC   NC312107  44.916  37.489   9.375
  549POPC   PO412108  44.302  37.462   9.717
  549POPC   GL112109  44.438  37.628   9.281
  549POPC   GL212110  44.410  37.259   9.194
  549POPC   C1A12111  44.691  37.741   8.853
  549POPC   D2A12112  44.835  37.456   8.530
  549POPC   C3A12113  44.920  37.724   8.194
  549POPC   C4A12114  44.967  37.695   7.771
  549POPC   C1B12115  44.306  37.437   8.791
  549POPC   C2B12116  44.396  37.665   8.419
  549POPC   C3B12117  44.459  37.461   8.042
  549POPC   C4B12118  44.486  37.577   7.639
  550POPC   NC312119   1.943  27.183   9.476
  550POPC   PO412120   1.752  26.528   9.628
  550POPC   GL112121   1.792  26.492   9.199
  550POPC   GL212122   1.717  26.821   9.146
  550POPC   C1A12123   1.943  26.537   8.759
  550POPC   D2A12124   1.940  26.767   8.356
  550POPC   C3A12125   2.103  26.659   7.967
  550POPC   C4A12126   2.221  26.978   7.652
  550POPC   C1B12127   1.691  27.045   8.724
  550POPC   C2B12128   1.527  27.064   8.320
  550POPC   C3B12129   1.747  27.040   7.914
  550POPC   C4B12130   1.767  27.122   7.470
  551POPC   NC312131   9.381  19.726   9.406
  551POPC   PO412132   9.741  20.250   9.626
  551POPC   GL112133   9.754  20.057   9.199
  551POPC   GL212134   9.771  19.686   9.077
  551POPC   C1A12135   9.539  20.054   8.809
  551POPC   D2A12136   9.423  20.234   8.440
  551POPC   C3A12137   9.704  20.020   8.194
  551POPC   C4A12138   9.735  19.925   7.771
  551POPC   C1B12139   9.751  19.630   8.597
  551POPC   C2B12140   9.813  19.539   8.139
  551POPC   C3B12141   9.604  19.434   7.744
  551POPC   C4B12142   9.639  19.318   7.302
  552POPC   NC312143  10.289  23.018   9.690
  552POPC   PO412144  10.925  23.181   9.532
  552POPC   GL112145  10.642  23.015   9.266
  552POPC   GL212146  10.516  23.323   9.157
  552POPC   C1A12147  10.613  22.736   8.895
  552POPC   D2A12148  10.453  22.703   8.484
  552POPC   C3A12149  10.488  22.726   8.023
  552POPC   C4A12150  10.154  22.771   7.694
  552POPC   C1B12151  10.813  23.202   8.814
  552POPC   C2B12152  10.939  22.970   8.438
  552POPC   C3B12153  10.906  23.134   8.013
  552POPC   C4B12154  10.516  23.161   7.754
  553POPC   NC312155  26.276  11.203   9.433
  553POPC   PO412156  25.693  11.214   9.165
  553POPC   GL112157  25.886  11.557   9.007
  553POPC   GL212158  26.230  11.432   8.984
  553POPC   C1A12159  25.864  11.552   8.563
  553POPC   D2A12160  26.082  11.280   8.326
  553POPC   C3A12161  25.848  11.189   7.982
  553POPC   C4A12162  25.920  11.201   7.557
  553POPC   C1B12163  26.326  11.694   8.647
  553POPC   C2B12164  26.243  11.753   8.214
  553POPC   C3B12165  26.276  11.459   7.895
  553POPC   C4B12166  26.431  11.227   7.566
  554POPC   NC312167  24.025  39.174   9.609
  554POPC   PO412168  23.342  39.555   9.543
  554POPC   GL112169  23.564  39.310   9.191
  554POPC   GL212170  23.905  39.406   9.150
  554POPC   C1A12171  23.742  38.971   8.887
  554POPC   D2A12172  23.840  38.841   8.433
  554POPC   C3A12173  23.621  38.968   8.049
  554POPC   C4A12174  23.667  39.101   7.599
  554POPC   C1B12175  24.010  39.378   8.718
  554POPC   C2B12176  24.027  39.290   8.296
  554POPC   C3B12177  23.873  39.408   7.916
  554POPC   C4B12178  24.097  39.576   7.583
  555POPC   NC312179   1.425  43.166   9.318
  555POPC   PO412180   2.088  43.196   9.343
  555POPC   GL112181   1.961  43.327   8.956
  555POPC   GL212182   1.646  43.167   8.840
  555POPC   C1A12183   2.029  43.312   8.510
  555POPC   D2A12184   1.713  43.051   8.290
  555POPC   C3A12185   1.677  43.221   7.888
  555POPC   C4A12186   2.103  43.377   7.762
  555POPC   C1B12187   1.982  42.855   8.726
  555POPC   C2B12188   2.186  42.785   8.331
  555POPC   C3B12189   2.104  42.644   7.891
  555POPC   C4B12190   2.229  42.838   7.467
  556POPC   NC312191  16.966  20.315   9.654
  556POPC   PO412192  16.565  20.848   9.466
  556POPC   GL112193  16.830  20.656   9.151
  556POPC   GL212194  17.072  20.333   9.168
  556POPC   C1A12195  16.765  20.785   8.719
  556POPC   D2A12196  16.591  20.510   8.396
  556POPC   C3A12197  16.432  20.630   8.007
  556POPC   C4A12198  16.665  20.732   7.680
  556POPC   C1B12199  16.900  20.279   8.770
  556POPC   C2B12200  17.111  20.526   8.457
  556POPC   C3B12201  16.953  20.664   8.086
  556POPC   C4B12202  17.088  20.429   7.731
  557POPC   NC312203  21.276  16.349   9.647
  557POPC   PO412204  21.153  16.982   9.374
  557POPC   GL112205  21.284  16.735   9.047
  557POPC   GL212206  21.471  16.451   9.178
  557POPC   C1A12207  21.376  16.801   8.636
  557POPC   D2A12208  21.216  16.648   8.265
  557POPC   C3A12209  21.258  16.845   7.889
  557POPC   C4A12210  20.978  16.684   7.560
  557POPC   C1B12211  21.433  16.320   8.748
  557POPC   C2B12212  21.647  16.398   8.380
  557POPC   C3B12213  21.725  16.255   7.974
  557POPC   C4B12214  21.428  16.406   7.687
  558POPC   NC312215  40.447  44.279   9.518
  558POPC   PO412216  40.751  43.685   9.507
  558POPC   GL112217  40.711  43.993   9.162
  558POPC   GL212218  40.484  43.748   9.013
  558POPC   C1A12219  40.881  44.142   8.739
  558POPC   D2A12220  41.219  44.147   8.414
  558POPC   C3A12221  40.947  44.103   8.066
  558POPC   C4A12222  40.648  43.903   7.800
  558POPC   C1B12223  40.847  43.588   8.817
  558POPC   C2B12224  40.904  43.721   8.404
  558POPC   C3B12225  40.811  43.489   8.035
  558POPC   C4B12226  40.993  43.437   7.632
  559POPC   NC312227  27.309  14.910   9.376
  559POPC   PO412228  27.910  15.010   9.744
  559POPC   GL112229  27.709  15.335   9.345
  559POPC   GL212230  27.391  15.343   9.147
  559POPC   C1A12231  27.739  15.297   8.821
  559POPC   D2A12232  27.731  15.049   8.456
  559POPC   C3A12233  27.833  15.362   8.195
  559POPC   C4A12234  27.790  15.453   7.793
  559POPC   C1B12235  27.241  15.153   8.752
  559POPC   C2B12236  27.336  15.349   8.369
  559POPC   C3B12237  27.429  15.151   7.984
  559POPC   C4B12238  27.344  14.739   7.843
  560POPC   NC312239  25.079   9.307   9.616
  560POPC   PO412240  25.289   8.664   9.547
  560POPC   GL112241  25.403   8.795   9.128
  560POPC   GL212242  25.154   9.033   9.168
  560POPC   C1A12243  25.304   8.844   8.689
  560POPC   D2A12244  25.285   9.030   8.283
  560POPC   C3A12245  25.262   8.766   7.959
  560POPC   C4A12246  24.905   8.551   7.765
  560POPC   C1B12247  25.046   9.282   8.824
  560POPC   C2B12248  25.029   9.468   8.426
  560POPC   C3B12249  24.901   9.341   8.071
  560POPC   C4B12250  24.940   9.087   7.739
  561POPC   NC312251   6.761  12.981   9.743
  561POPC   PO412252   6.370  13.539   9.671
  561POPC   GL112253   6.631  13.458   9.285
  561POPC   GL212254   6.346  13.378   9.129
  561POPC   C1A12255   6.647  13.581   8.801
  561POPC   D2A12256   6.789  13.753   8.399
  561POPC   C3A12257   6.699  13.680   7.977
  561POPC   C4A12258   6.347  13.758   7.746
  561POPC   C1B12259   6.378  13.145   8.734
  561POPC   C2B12260   6.580  13.217   8.347
  561POPC   C3B12261   6.389  13.266   7.941
  561POPC   C4B12262   6.514  13.310   7.528
  562POPC   NC312263  29.714   8.652   9.511
  562POPC   PO412264  29.896   9.296   9.469
  562POPC   GL112265  29.980   8.956   9.157
  562POPC   GL212266  30.130   9.223   8.964
  562POPC   C1A12267  30.155   8.764   8.746
  562POPC   D2A12268  30.100   8.910   8.321
  562POPC   C3A12269  30.121   8.821   7.891
  562POPC   C4A12270  30.279   9.221   7.724
  562POPC   C1B12271  29.779   9.087   8.667
  562POPC   C2B12272  29.642   9.122   8.231
  562POPC   C3B12273  29.817   9.306   7.877
  562POPC   C4B12274  29.857   9.439   7.435
  563POPC   NC312275  33.211  43.325   9.538
  563POPC   PO412276  33.896  43.048   9.460
  563POPC   GL112277  33.938  43.215   9.076
  563POPC   GL212278  34.124  42.925   9.009
  563POPC   C1A12279  33.690  43.135   8.711
  563POPC   D2A12280  33.610  42.831   8.372
  563POPC   C3A12281  33.590  43.114   8.042
  563POPC   C4A12282  33.924  43.361   7.829
  563POPC   C1B12283  34.089  42.855   8.596
  563POPC   C2B12284  34.214  43.111   8.283
  563POPC   C3B12285  34.036  42.858   8.023
  563POPC   C4B12286  34.033  42.701   7.664
  564POPC   NC312287   8.627  12.543   9.470
  564POPC   PO412288   7.981  12.804   9.625
  564POPC   GL112289   8.019  12.705   9.189
  564POPC   GL212290   8.356  12.712   9.083
  564POPC   C1A12291   7.955  12.817   8.747
  564POPC   D2A12292   8.166  12.665   8.377
  564POPC   C3A12293   8.349  12.669   7.946
  564POPC   C4A12294   7.969  12.520   7.738
  564POPC   C1B12295   8.472  12.942   8.723
  564POPC   C2B12296   8.430  13.100   8.291
  564POPC   C3B12297   8.597  13.111   7.863
  564POPC   C4B12298   8.540  13.062   7.398
  565POPC   NC312299   2.528   1.734   9.605
  565POPC   PO412300   2.684   2.346   9.573
  565POPC   GL112301   2.597   2.076   9.214
  565POPC   GL212302   2.858   1.817   9.208
  565POPC   C1A12303   2.520   1.960   8.789
  565POPC   D2A12304   2.626   1.822   8.388
  565POPC   C3A12305   2.678   2.150   8.080
  565POPC   C4A12306   2.626   2.063   7.651
  565POPC   C1B12307   2.942   1.650   8.795
  565POPC   C2B12308   3.093   1.596   8.364
  565POPC   C3B12309   2.971   1.732   7.969
  565POPC   C4B12310   3.133   2.085   7.744
  566POPC   NC312311   6.913  15.860   9.441
  566POPC   PO412312   6.306  16.084   9.717
  566POPC   GL112313   6.446  16.134   9.266
  566POPC   GL212314   6.507  15.809   9.113
  566POPC   C1A12315   6.525  16.205   8.794
  566POPC   D2A12316   6.507  15.943   8.429
  566POPC   C3A12317   6.646  16.068   8.016
  566POPC   C4A12318   6.578  16.245   7.637
  566POPC   C1B12319   6.864  15.805   8.788
  566POPC   C2B12320   7.009  15.863   8.347
  566POPC   C3B12321   6.978  15.668   7.986
  566POPC   C4B12322   7.087  15.678   7.581
  567POPC   NC312323  28.577  24.025   9.496
  567POPC   PO412324  28.431  23.419   9.540
  567POPC   GL112325  28.247  23.629   9.158
  567POPC   GL212326  28.224  23.996   9.115
  567POPC   C1A12327  28.377  23.651   8.711
  567POPC   D2A12328  28.127  23.577   8.330
  567POPC   C3A12329  28.331  23.600   7.942
  567POPC   C4A12330  28.683  23.572   7.657
  567POPC   C1B12331  28.278  24.160   8.700
  567POPC   C2B12332  28.426  24.029   8.281
  567POPC   C3B12333  28.326  24.096   7.844
  567POPC   C4B12334  28.272  23.845   7.483
  568POPC   NC312335  25.166  40.439   9.532
  568POPC   PO412336  25.241  39.758   9.603
  568POPC   GL112337  25.192  39.995   9.216
  568POPC   GL212338  25.488  40.271   9.191
  568POPC   C1A12339  24.950  39.908   8.796
  568POPC   D2A12340  25.000  40.054   8.370
  568POPC   C3A12341  25.001  39.769   8.041
  568POPC   C4A12342  25.263  39.738   7.715
  568POPC   C1B12343  25.374  40.175   8.781
  568POPC   C2B12344  25.511  40.113   8.412
  568POPC   C3B12345  25.400  40.162   7.993
  568POPC   C4B12346  25.661  40.025   7.665
  569POPC   NC312347  40.477  40.532   9.756
  569POPC   PO412348  40.565  41.141   9.565
  569POPC   GL112349  40.549  40.767   9.252
  569POPC   GL212350  40.387  40.431   9.256
  569POPC   C1A12351  40.763  40.761   8.842
  569POPC   D2A12352  40.555  40.918   8.476
  569POPC   C3A12353  40.769  40.999   8.099
  569POPC   C4A12354  40.747  40.784   7.732
  569POPC   C1B12355  40.287  40.581   8.836
  569POPC   C2B12356  40.333  40.440   8.439
  569POPC   C3B12357  40.429  40.580   8.079
  569POPC   C4B12358  40.395  40.380   7.723
  570POPC   NC312359  14.757  40.803   9.577
  570POPC   PO412360  14.142  40.973   9.480
  570POPC   GL112361  14.466  41.000   9.184
  570POPC   GL212362  14.356  40.723   9.066
  570POPC   C1A12363  14.457  41.191   8.807
  570POPC   D2A12364  14.460  41.050   8.401
  570POPC   C3A12365  14.633  41.177   8.046
  570POPC   C4A12366  14.782  40.855   7.802
  570POPC   C1B12367  14.132  40.775   8.671
  570POPC   C2B12368  14.046  40.844   8.212
  570POPC   C3B12369  14.216  40.800   7.781
  570POPC   C4B12370  13.950  40.600   7.448
  571POPC   NC312371   9.090  30.908   9.601
  571POPC   PO412372   8.716  30.295   9.612
  571POPC   GL112373   8.923  30.549   9.293
  571POPC   GL212374   8.648  30.572   9.166
  571POPC   C1A12375   9.014  30.865   8.949
  571POPC   D2A12376   8.764  31.028   8.599
  571POPC   C3A12377   8.897  31.025   8.149
  571POPC   C4A12378   8.852  31.054   7.680
  571POPC   C1B12379   8.721  30.517   8.728
  571POPC   C2B12380   8.753  30.521   8.279
  571POPC   C3B12381   8.954  30.585   7.866
  571POPC   C4B12382   9.322  30.838   7.693
  572POPC   NC312383  34.705  36.453   9.432
  572POPC   PO412384  34.861  35.794   9.443
  572POPC   GL112385  34.695  35.968   9.077
  572POPC   GL212386  34.457  36.267   9.030
  572POPC   C1A12387  34.813  35.863   8.657
  572POPC   D2A12388  34.971  35.708   8.275
  572POPC   C3A12389  34.755  35.875   7.891
  572POPC   C4A12390  34.318  36.042   7.923
  572POPC   C1B12391  34.854  36.375   8.790
  572POPC   C2B12392  35.101  36.348   8.421
  572POPC   C3B12393  34.938  36.459   8.008
  572POPC   C4B12394  34.624  36.375   7.710
  573POPC   NC312395  37.591  23.190   9.387
  573POPC   PO412396  38.075  22.829   9.656
  573POPC   GL112397  37.870  22.739   9.186
  573POPC   GL212398  37.506  22.788   9.028
  573POPC   C1A12399  37.858  22.753   8.688
  573POPC   D2A12400  37.618  22.610   8.338
  573POPC   C3A12401  37.873  22.717   7.992
  573POPC   C4A12402  38.105  23.113   7.982
  573POPC   C1B12403  37.565  23.172   8.736
  573POPC   C2B12404  37.747  23.231   8.324
  573POPC   C3B12405  37.572  23.109   7.898
  573POPC   C4B12406  37.529  23.317   7.508
  574POPC   NC312407  26.556   1.596   9.305
  574POPC   PO412408  26.356   2.151   9.620
  574POPC   GL112409  26.206   1.974   9.219
  574POPC   GL212410  25.831   1.928   9.191
  574POPC   C1A12411  26.115   1.974   8.760
  574POPC   D2A12412  26.310   2.049   8.359
  574POPC   C3A12413  26.098   1.906   8.001
  574POPC   C4A12414  26.217   2.168   7.683
  574POPC   C1B12415  25.668   1.713   8.797
  574POPC   C2B12416  25.803   1.676   8.363
  574POPC   C3B12417  25.613   1.668   7.934
  574POPC   C4B12418  25.650   1.689   7.449
  575POPC   NC312419  30.746  21.562   9.574
  575POPC   PO412420  30.300  21.112   9.410
  575POPC   GL112421  30.518  21.258   9.015
  575POPC   GL212422  30.780  21.437   9.087
  575POPC   C1A12423  30.506  21.388   8.565
  575POPC   D2A12424  30.316  21.551   8.220
  575POPC   C3A12425  30.607  21.678   7.958
  575POPC   C4A12426  30.745  21.447   7.620
  575POPC   C1B12427  30.981  21.476   8.690
  575POPC   C2B12428  30.958  21.424   8.249
  575POPC   C3B12429  31.114  21.652   7.874
  575POPC   C4B12430  31.002  21.866   7.465
  576POPC   NC312431  33.459   1.229   9.464
  576POPC   PO412432  34.023   1.501   9.542
  576POPC   GL112433  33.852   1.255   9.163
  576POPC   GL212434  33.560   1.449   9.036
  576POPC   C1A12435  33.692   0.930   8.832
  576POPC   D2A12436  33.849   0.885   8.393
  576POPC   C3A12437  33.627   0.899   7.994
  576POPC   C4A12438  33.721   1.190   7.708
  576POPC   C1B12439  33.631   1.372   8.622
  576POPC   C2B12440  33.717   1.349   8.210
  576POPC   C3B12441  33.566   1.616   7.936
  576POPC   C4B12442  33.256   1.560   7.637
  577POPC   NC312443  26.750  22.374   9.459
  577POPC   PO412444  26.663  21.834   9.356
  577POPC   GL112445  26.668  22.132   8.995
  577POPC   GL212446  26.934  22.411   8.986
  577POPC   C1A12447  26.692  22.060   8.550
  577POPC   D2A12448  27.079  22.110   8.331
  577POPC   C3A12449  27.043  22.133   7.888
  577POPC   C4A12450  26.728  21.954   7.583
  577POPC   C1B12451  26.833  22.540   8.578
  577POPC   C2B12452  26.753  22.467   8.145
  577POPC   C3B12453  26.680  22.453   7.708
  577POPC   C4B12454  27.023  22.347   7.413
  578POPC   NC312455  18.426  42.910   9.473
  578POPC   PO412456  17.924  43.375   9.493
  578POPC   GL112457  18.183  43.286   9.132
  578POPC   GL212458  18.528  43.211   9.040
  578POPC   C1A12459  18.204  43.387   8.689
  578POPC   D2A12460  18.249  43.120   8.345
  578POPC   C3A12461  18.486  43.231   7.985
  578POPC   C4A12462  18.154  43.426   7.776
  578POPC   C1B12463  18.634  42.977   8.635
  578POPC   C2B12464  18.505  42.713   8.221
  578POPC   C3B12465  18.548  42.752   7.758
  578POPC   C4B12466  18.538  42.752   7.306
  579POPC   NC312467  36.929   4.577   9.276
  579POPC   PO412468  37.095   3.945   9.428
  579POPC   GL112469  37.038   3.985   9.005
  579POPC   GL212470  36.778   4.159   9.030
  579POPC   C1A12471  37.025   4.016   8.551
  579POPC   D2A12472  36.918   4.400   8.333
  579POPC   C3A12473  36.719   4.339   7.937
  579POPC   C4A12474  36.839   4.440   7.504
  579POPC   C1B12475  36.584   4.265   8.692
  579POPC   C2B12476  36.495   4.069   8.321
  579POPC   C3B12477  36.313   4.005   7.930
  579POPC   C4B12478  36.375   4.280   7.569
  580POPC   NC312479  42.932  26.421   9.416
  580POPC   PO412480  43.364  25.886   9.435
  580POPC   GL112481  43.184  25.982   9.061
  580POPC   GL212482  43.207  26.324   8.997
  580POPC   C1A12483  42.948  25.874   8.699
  580POPC   D2A12484  42.739  25.980   8.317
  580POPC   C3A12485  42.890  25.832   7.924
  580POPC   C4A12486  43.259  25.710   7.759
  580POPC   C1B12487  42.861  26.395   8.706
  580POPC   C2B12488  42.600  26.470   8.335
  580POPC   C3B12489  42.716  26.346   7.944
  580POPC   C4B12490  43.179  26.249   7.881
  581POPC   NC312491  10.699  38.763   9.545
  581POPC   PO412492  10.739  38.115   9.539
  581POPC   GL112493  10.734  38.349   9.185
  581POPC   GL212494  10.435  38.569   9.145
  581POPC   C1A12495  10.754  38.359   8.749
  581POPC   D2A12496  10.480  38.235   8.397
  581POPC   C3A12497  10.536  38.513   8.043
  581POPC   C4A12498  10.227  38.550   7.719
  581POPC   C1B12499  10.718  38.841   8.890
  581POPC   C2B12500  10.801  38.829   8.434
  581POPC   C3B12501  10.704  39.014   8.019
  581POPC   C4B12502  10.538  38.946   7.619
  582POPC   NC312503   5.480  35.975   9.444
  582POPC   PO412504   5.969  36.458   9.430
  582POPC   GL112505   5.793  36.254   9.091
  582POPC   GL212506   5.497  36.413   9.076
  582POPC   C1A12507   5.808  36.356   8.644
  582POPC   D2A12508   6.127  36.238   8.328
  582POPC   C3A12509   6.007  36.084   7.933
  582POPC   C4A12510   5.866  35.661   7.868
  582POPC   C1B12511   5.328  36.616   8.722
  582POPC   C2B12512   5.340  36.510   8.312
  582POPC   C3B12513   5.549  36.144   8.208
  582POPC   C4B12514   5.482  35.995   7.826
  583POPC   NC312515  42.209   7.713   9.562
  583POPC   PO412516  42.511   8.372   9.650
  583POPC   GL112517  42.564   8.108   9.276
  583POPC   GL212518  42.235   8.099   9.158
  583POPC   C1A12519  42.687   8.158   8.827
  583POPC   D2A12520  42.476   8.260   8.416
  583POPC   C3A12521  42.628   8.312   8.026
  583POPC   C4A12522  42.500   8.107   7.670
  583POPC   C1B12523  42.126   7.999   8.720
  583POPC   C2B12524  42.047   8.001   8.285
  583POPC   C3B12525  42.097   8.273   7.956
  583POPC   C4B12526  42.032   8.214   7.524
  584POPC   NC312527  31.901  36.642   9.329
  584POPC   PO412528  31.933  37.176   9.772
  584POPC   GL112529  32.204  37.072   9.308
  584POPC   GL212530  32.381  36.753   9.153
  584POPC   C1A12531  32.179  37.102   8.810
  584POPC   D2A12532  31.971  37.103   8.392
  584POPC   C3A12533  32.192  37.250   8.004
  584POPC   C4A12534  32.252  36.917   7.673
  584POPC   C1B12535  32.318  36.604   8.705
  584POPC   C2B12536  32.193  36.627   8.251
  584POPC   C3B12537  32.397  36.463   7.862
  584POPC   C4B12538  32.641  36.592   7.540
  585POPC   NC312539  17.080  28.309   9.754
  585POPC   PO412540  17.049  28.806   9.275
  585POPC   GL112541  16.988  28.422   9.123
  585POPC   GL212542  17.164  28.512   8.813
  585POPC   C1A12543  16.892  28.045   8.873
  585POPC   D2A12544  16.890  27.913   8.439
  585POPC   C3A12545  16.890  28.180   8.041
  585POPC   C4A12546  16.554  28.205   7.686
  585POPC   C1B12547  16.736  28.475   8.641
  585POPC   C2B12548  16.492  28.413   8.263
  585POPC   C3B12549  16.632  28.652   7.928
  585POPC   C4B12550  17.063  28.763   7.786
  586POPC   NC312551  29.371  27.393   9.843
  586POPC   PO412552  28.834  26.969   9.634
  586POPC   GL112553  28.930  26.794   9.189
  586POPC   GL212554  29.127  27.031   9.011
  586POPC   C1A12555  29.032  26.587   8.734
  586POPC   D2A12556  29.277  26.542   8.308
  586POPC   C3A12557  29.059  26.476   7.912
  586POPC   C4A12558  28.664  26.657   7.863
  586POPC   C1B12559  28.773  27.021   8.737
  586POPC   C2B12560  28.856  26.861   8.301
  586POPC   C3B12561  29.080  26.990   7.926
  586POPC   C4B12562  29.473  27.192   7.796
  587POPC   NC312563  41.697  35.912   9.596
  587POPC   PO412564  42.055  36.512   9.491
  587POPC   GL112565  41.678  36.343   9.206
  587POPC   GL212566  41.579  35.993   9.130
  587POPC   C1A12567  41.434  36.317   8.780
  587POPC   D2A12568  41.305  36.577   8.408
  587POPC   C3A12569  41.406  36.353   8.008
  587POPC   C4A12570  41.712  36.062   7.794
  587POPC   C1B12571  41.310  35.815   8.815
  587POPC   C2B12572  41.158  35.908   8.429
  587POPC   C3B12573  41.300  35.839   8.031
  587POPC   C4B12574  41.221  35.865   7.606
  588POPC   NC312575   1.816  36.973   9.332
  588POPC   PO412576   2.386  36.657   9.441
  588POPC   GL112577   2.252  36.883   9.086
  588POPC   GL212578   2.318  37.236   9.056
  588POPC   C1A12579   1.996  36.691   8.769
  588POPC   D2A12580   2.084  36.487   8.405
  588POPC   C3A12581   1.908  36.751   8.081
  588POPC   C4A12582   1.885  37.077   7.755
  588POPC   C1B12583   1.992  37.204   8.726
  588POPC   C2B12584   1.962  37.234   8.274
  588POPC   C3B12585   2.148  37.451   7.951
  588POPC   C4B12586   2.024  37.480   7.488
  589POPC   NC312587  10.610  21.880   9.442
  589POPC   PO412588  10.338  22.552   9.554
  589POPC   GL112589  10.456  22.296   9.141
  589POPC   GL212590  10.279  21.990   9.062
  589POPC   C1A12591  10.662  22.250   8.699
  589POPC   D2A12592  10.831  22.434   8.269
  589POPC   C3A12593  10.694  22.301   7.810
  589POPC   C4A12594  10.865  22.369   7.327
  589POPC   C1B12595  10.155  22.080   8.659
  589POPC   C2B12596  10.316  22.248   8.283
  589POPC   C3B12597  10.180  22.261   7.878
  589POPC   C4B12598  10.259  21.976   7.573
  590POPC   NC312599  36.185   1.507   9.404
  590POPC   PO412600  36.046   2.258   9.519
  590POPC   GL112601  35.953   1.983   9.178
  590POPC   GL212602  36.301   1.967   9.107
  590POPC   C1A12603  35.893   2.080   8.726
  590POPC   D2A12604  36.175   2.038   8.357
  590POPC   C3A12605  35.967   1.844   8.018
  590POPC   C4A12606  35.870   2.189   7.738
  590POPC   C1B12607  36.237   1.701   8.746
  590POPC   C2B12608  36.405   1.578   8.342
  590POPC   C3B12609  36.432   1.609   7.900
  590POPC   C4B12610  36.175   1.767   7.556
  591POPC   NC312611   5.437  11.793   9.513
  591POPC   PO412612   5.983  12.208   9.462
  591POPC   GL112613   5.712  12.189   9.155
  591POPC   GL212614   5.798  11.818   9.152
  591POPC   C1A12615   5.762  12.439   8.763
  591POPC   D2A12616   5.882  12.302   8.361
  591POPC   C3A12617   5.599  12.080   8.098
  591POPC   C4A12618   5.801  12.268   7.751
  591POPC   C1B12619   5.903  11.941   8.755
  591POPC   C2B12620   5.848  11.738   8.393
  591POPC   C3B12621   6.043  11.871   8.007
  591POPC   C4B12622   5.781  11.742   7.686
  592POPC   NC312623   2.165  31.695   9.756
  592POPC   PO412624   1.864  32.211   9.584
  592POPC   GL112625   2.104  31.898   9.287
  592POPC   GL212626   1.929  31.631   9.226
  592POPC   C1A12627   2.280  31.782   8.859
  592POPC   D2A12628   2.309  31.354   8.617
  592POPC   C3A12629   2.316  31.222   8.171
  592POPC   C4A12630   2.271  31.167   7.711
  592POPC   C1B12631   1.807  31.540   8.805
  592POPC   C2B12632   1.844  31.382   8.390
  592POPC   C3B12633   1.836  31.164   8.003
  592POPC   C4B12634   1.769  31.347   7.657
  593POPC   NC312635  14.809  18.662   9.832
  593POPC   PO412636  14.434  19.104   9.555
  593POPC   GL112637  14.529  19.232   9.118
  593POPC   GL212638  14.180  19.259   9.025
  593POPC   C1A12639  14.506  19.266   8.649
  593POPC   D2A12640  14.307  19.420   8.276
  593POPC   C3A12641  14.556  19.335   7.934
  593POPC   C4A12642  14.592  19.085   7.588
  593POPC   C1B12643  13.965  19.248   8.637
  593POPC   C2B12644  13.910  19.096   8.215
  593POPC   C3B12645  14.129  19.042   7.825
  593POPC   C4B12646  14.309  18.651   7.629
  594POPC   NC312647  11.810   4.313   9.618
  594POPC   PO412648  11.123   4.178   9.592
  594POPC   GL112649  11.165   4.118   9.158
  594POPC   GL212650  11.530   4.092   9.126
  594POPC   C1A12651  11.191   3.868   8.764
  594POPC   D2A12652  11.447   3.903   8.358
  594POPC   C3A12653  11.305   4.151   8.000
  594POPC   C4A12654  11.022   4.400   7.746
  594POPC   C1B12655  11.370   4.350   8.757
  594POPC   C2B12656  11.173   4.505   8.372
  594POPC   C3B12657  11.374   4.659   8.017
  594POPC   C4B12658  11.539   4.495   7.608
  595POPC   NC312659  24.153  14.849   9.240
  595POPC   PO412660  24.732  14.729   9.581
  595POPC   GL112661  24.715  14.323   9.348
  595POPC   GL212662  24.353  14.234   9.294
  595POPC   C1A12663  24.698  14.134   8.930
  595POPC   D2A12664  24.521  14.331   8.553
  595POPC   C3A12665  24.607  14.264   8.116
  595POPC   C4A12666  24.570  14.538   7.747
  595POPC   C1B12667  24.144  14.180   8.880
  595POPC   C2B12668  24.017  14.269   8.438
  595POPC   C3B12669  24.146  14.529   8.061
  595POPC   C4B12670  24.082  14.470   7.584
  596POPC   NC312671   6.042  44.527   9.510
  596POPC   PO412672   5.634   0.018   9.424
  596POPC   GL112673   5.958  44.866   9.121
  596POPC   GL212674   5.902  44.512   9.020
  596POPC   C1A12675   6.106  44.838   8.691
  596POPC   D2A12676   5.885  44.822   8.299
  596POPC   C3A12677   5.932  44.439   8.099
  596POPC   C4A12678   6.106  44.455   7.701
  596POPC   C1B12679   5.593  44.649   8.697
  596POPC   C2B12680   5.437  44.520   8.267
  596POPC   C3B12681   5.474  44.268   7.846
  596POPC   C4B12682   5.584  44.419   7.385
  597POPC   NC312683  42.561  15.300   9.727
  597POPC   PO412684  41.910  15.286   9.562
  597POPC   GL112685  42.301  15.335   9.283
  597POPC   GL212686  42.675  15.446   9.254
  597POPC   C1A12687  42.517  15.025   8.997
  597POPC   D2A12688  42.498  14.882   8.539
  597POPC   C3A12689  42.319  15.040   8.099
  597POPC   C4A12690  42.428  15.005   7.641
  597POPC   C1B12691  42.492  15.507   8.836
  597POPC   C2B12692  42.342  15.413   8.445
  597POPC   C3B12693  42.545  15.521   8.064
  597POPC   C4B12694  42.488  15.498   7.639
  598POPC   NC312695   8.760   0.722   9.780
  598POPC   PO412696   8.914   1.395   9.629
  598POPC   GL112697   8.873   1.363   9.145
  598POPC   GL212698   8.830   1.028   8.974
  598POPC   C1A12699   9.179   1.349   8.781
  598POPC   D2A12700   9.065   1.512   8.411
  598POPC   C3A12701   8.784   1.369   8.129
  598POPC   C4A12702   9.005   1.523   7.774
  598POPC   C1B12703   8.851   1.032   8.536
  598POPC   C2B12704   9.156   1.010   8.257
  598POPC   C3B12705   9.182   1.070   7.868
  598POPC   C4B12706   8.727   1.082   7.685
  599POPC   NC312707  43.139   1.833   9.426
  599POPC   PO412708  42.830   2.293   9.127
  599POPC   GL112709  42.818   1.872   9.002
  599POPC   GL212710  43.142   1.840   8.940
  599POPC   C1A12711  42.864   1.815   8.534
  599POPC   D2A12712  43.205   1.958   8.317
  599POPC   C3A12713  43.007   2.046   7.954
  599POPC   C4A12714  42.947   2.391   7.669
  599POPC   C1B12715  43.331   1.619   8.684
  599POPC   C2B12716  43.249   1.440   8.294
  599POPC   C3B12717  43.336   1.639   7.917
  599POPC   C4B12718  43.153   1.692   7.520
  600POPC   NC312719  38.125  32.166   9.565
  600POPC   PO412720  38.664  31.902   9.274
  600POPC   GL112721  38.397  32.133   9.060
  600POPC   GL212722  38.078  31.998   9.094
  600POPC   C1A12723  38.432  32.154   8.603
  600POPC   D2A12724  38.605  31.843   8.326
  600POPC   C3A12725  38.747  32.089   8.011
  600POPC   C4A12726  38.573  32.207   7.612
  600POPC   C1B12727  37.956  32.221   8.769
  600POPC   C2B12728  37.997  32.320   8.374
  600POPC   C3B12729  38.188  32.115   8.074
  600POPC   C4B12730  38.089  32.282   7.705
  601POPC   NC312731  42.288  11.646   9.516
  601POPC   PO412732  42.483  11.028   9.440
  601POPC   GL112733  42.475  11.324   9.134
  601POPC   GL212734  42.167  11.537   9.039
  601POPC   C1A12735  42.366  11.216   8.710
  601POPC   D2A12736  42.225  10.970   8.395
  601POPC   C3A12737  42.301  11.197   8.056
  601POPC   C4A12738  42.035  11.228   7.716
  601POPC   C1B12739  42.521  11.701   8.798
  601POPC   C2B12740  42.581  11.593   8.382
  601POPC   C3B12741  42.412  11.697   7.990
  601POPC   C4B12742  42.419  11.513   7.574
  602POPC   NC312743   0.088   9.913   9.497
  602POPC   PO412744  44.374   9.837   9.493
  602POPC   GL112745  44.676   9.805   9.189
  602POPC   GL212746  44.733  10.165   9.233
  602POPC   C1A12747  44.693   9.655   8.770
  602POPC   D2A12748  44.572   9.858   8.385
  602POPC   C3A12749  44.778   9.750   8.002
  602POPC   C4A12750  44.632   9.720   7.562
  602POPC   C1B12751  44.777  10.181   8.809
  602POPC   C2B12752  44.803  10.379   8.440
  602POPC   C3B12753  44.723  10.252   8.041
  602POPC   C4B12754   0.010  10.113   7.715
  603POPC   NC312755  28.657   6.069   9.258
  603POPC   PO412756  28.676   6.692   9.470
  603POPC   GL112757  28.259   6.614   9.217
  603POPC   GL212758  28.268   6.323   9.091
  603POPC   C1A12759  28.089   6.692   8.790
  603POPC   D2A12760  28.238   6.843   8.412
  603POPC   C3A12761  28.152   6.680   8.017
  603POPC   C4A12762  28.418   6.771   7.699
  603POPC   C1B12763  28.522   6.444   8.742
  603POPC   C2B12764  28.453   6.387   8.338
  603POPC   C3B12765  28.639   6.423   7.962
  603POPC   C4B12766  28.515   6.293   7.518
  604POPC   NC312767   1.698   7.295   9.460
  604POPC   PO412768   0.973   7.450   9.538
  604POPC   GL112769   1.166   7.462   9.114
  604POPC   GL212770   1.475   7.295   9.021
  604POPC   C1A12771   1.096   7.201   8.712
  604POPC   D2A12772   1.167   7.395   8.325
  604POPC   C3A12773   1.113   7.161   7.945
  604POPC   C4A12774   0.903   7.285   7.559
  604POPC   C1B12775   1.612   7.416   8.628
  604POPC   C2B12776   1.605   7.693   8.278
  604POPC   C3B12777   1.385   7.579   7.895
  604POPC   C4B12778   1.395   7.444   7.500
  605POPC   NC312779  37.751  42.366   9.511
  605POPC   PO412780  38.204  41.877   9.354
  605POPC   GL112781  37.987  42.102   9.043
  605POPC   GL212782  37.625  42.218   9.044
  605POPC   C1A12783  37.890  42.176   8.636
  605POPC   D2A12784  37.782  42.566   8.471
  605POPC   C3A12785  37.882  42.481   8.059
  605POPC   C4A12786  37.796  42.069   7.902
  605POPC   C1B12787  37.299  42.370   8.752
  605POPC   C2B12788  37.267  42.522   8.320
  605POPC   C3B12789  37.396  42.394   7.872
  605POPC   C4B12790  37.295  42.482   7.368
  606POPC   NC312791  37.647  32.538   9.765
  606POPC   PO412792  37.728  31.861   9.624
  606POPC   GL112793  37.623  32.168   9.275
  606POPC   GL212794  37.884  32.459   9.211
  606POPC   C1A12795  37.524  31.989   8.843
  606POPC   D2A12796  37.773  31.859   8.451
  606POPC   C3A12797  37.600  31.949   8.022
  606POPC   C4A12798  37.688  31.978   7.545
  606POPC   C1B12799  37.766  32.681   8.795
  606POPC   C2B12800  37.853  32.800   8.393
  606POPC   C3B12801  37.629  32.685   8.069
  606POPC   C4B12802  37.588  32.405   7.770
  607POPC   NC312803  12.993   7.426   9.506
  607POPC   PO412804  12.493   7.042   9.199
  607POPC   GL112805  12.795   7.348   9.014
  607POPC   GL212806  12.940   7.673   9.056
  607POPC   C1A12807  13.030   7.379   8.624
  607POPC   D2A12808  12.830   7.269   8.237
  607POPC   C3A12809  13.069   7.333   7.860
  607POPC   C4A12810  13.138   7.048   7.522
  607POPC   C1B12811  12.664   7.738   8.698
  607POPC   C2B12812  12.473   7.631   8.301
  607POPC   C3B12813  12.542   7.529   7.870
  607POPC   C4B12814  12.833   7.757   7.621
  608POPC   NC312815  11.043  43.558   9.379
  608POPC   PO412816  11.136  42.942   9.564
  608POPC   GL112817  11.120  43.020   9.118
  608POPC   GL212818  10.882  42.809   8.916
  608POPC   C1A12819  11.462  43.117   8.802
  608POPC   D2A12820  11.756  42.861   8.516
  608POPC   C3A12821  11.614  42.765   8.096
  608POPC   C4A12822  11.627  43.118   7.817
  608POPC   C1B12823  11.130  42.830   8.528
  608POPC   C2B12824  11.345  43.170   8.293
  608POPC   C3B12825  11.152  43.348   7.935
  608POPC   C4B12826  11.139  42.966   7.770
  609POPC   NC312827  43.993  37.815   9.579
  609POPC   PO412828  43.703  37.253   9.343
  609POPC   GL112829  43.625  37.693   9.232
  609POPC   GL212830  43.968  37.638   9.103
  609POPC   C1A12831  43.680  37.954   8.866
  609POPC   D2A12832  43.903  37.698   8.577
  609POPC   C3A12833  43.918  37.738   8.124
  609POPC   C4A12834  43.609  37.624   7.829
  609POPC   C1B12835  44.218  37.967   8.875
  609POPC   C2B12836  44.160  38.115   8.425
  609POPC   C3B12837  44.354  37.976   7.998
  609POPC   C4B12838  44.175  37.967   7.566
  610POPC   NC312839  21.551   4.636   9.477
  610POPC   PO412840  21.132   4.261   9.915
  610POPC   GL112841  21.109   4.337   9.358
  610POPC   GL212842  21.410   4.300   9.155
  610POPC   C1A12843  21.074   4.295   8.815
  610POPC   D2A12844  20.871   4.471   8.423
  610POPC   C3A12845  21.137   4.417   8.074
  610POPC   C4A12846  21.071   4.213   7.680
  610POPC   C1B12847  21.610   4.479   8.806
  610POPC   C2B12848  21.733   4.725   8.440
  610POPC   C3B12849  21.645   4.689   8.007
  610POPC   C4B12850  21.558   4.321   7.791
  611POPC   NC312851  15.185  15.794   9.480
  611POPC   PO412852  15.598  16.303   9.561
  611POPC   GL112853  15.360  16.183   9.183
  611POPC   GL212854  14.989  16.181   9.198
  611POPC   C1A12855  15.396  15.939   8.793
  611POPC   D2A12856  15.132  15.785   8.426
  611POPC   C3A12857  15.300  15.886   8.029
  611POPC   C4A12858  15.470  15.965   7.653
  611POPC   C1B12859  14.879  16.058   8.771
  611POPC   C2B12860  14.822  16.267   8.348
  611POPC   C3B12861  14.724  16.336   7.892
  611POPC   C4B12862  15.007  16.144   7.606
  612POPC   NC312863  44.246   2.325   9.528
  612POPC   PO412864  44.193   2.975   9.722
  612POPC   GL112865  44.109   2.799   9.291
  612POPC   GL212866  44.338   3.048   9.149
  612POPC   C1A12867  43.886   2.646   8.875
  612POPC   D2A12868  43.878   2.782   8.425
  612POPC   C3A12869  43.617   2.862   8.078
  612POPC   C4A12870  43.664   2.545   7.781
  612POPC   C1B12871  44.309   2.924   8.701
  612POPC   C2B12872  44.324   3.008   8.230
  612POPC   C3B12873  44.085   2.914   7.835
  612POPC   C4B12874  44.096   3.102   7.415
  613POPC   NC312875   7.254  16.619   9.461
  613POPC   PO412876   7.665  17.067   9.391
  613POPC   GL112877   7.370  16.966   9.075
  613POPC   GL212878   7.499  17.208   8.841
  613POPC   C1A12879   7.312  16.646   8.775
  613POPC   D2A12880   7.620  16.400   8.527
  613POPC   C3A12881   7.664  16.474   8.071
  613POPC   C4A12882   7.371  16.595   7.772
  613POPC   C1B12883   7.110  17.105   8.630
  613POPC   C2B12884   7.051  16.882   8.240
  613POPC   C3B12885   7.097  17.027   7.797
  613POPC   C4B12886   7.468  17.155   7.535
  614POPC   NC312887  32.117  20.262   9.695
  614POPC   PO412888  32.651  19.945   9.575
  614POPC   GL112889  32.465  19.905   9.156
  614POPC   GL212890  32.563  19.592   9.055
  614POPC   C1A12891  32.538  19.945   8.682
  614POPC   D2A12892  32.418  19.979   8.234
  614POPC   C3A12893  32.518  19.698   7.877
  614POPC   C4A12894  32.456  19.603   7.462
  614POPC   C1B12895  32.339  19.476   8.670
  614POPC   C2B12896  32.193  19.513   8.226
  614POPC   C3B12897  32.027  19.595   7.773
  614POPC   C4B12898  31.965  19.677   7.309
  615POPC   NC312899  10.211  42.407   9.272
  615POPC   PO412900   9.611  42.209   9.619
  615POPC   GL112901   9.494  42.252   9.181
  615POPC   GL212902   9.713  42.536   9.125
  615POPC   C1A12903   9.454  42.289   8.702
  615POPC   D2A12904   9.748  42.278   8.298
  615POPC   C3A12905   9.841  42.164   7.841
  615POPC   C4A12906  10.113  42.302   7.477
  615POPC   C1B12907   9.886  42.595   8.711
  615POPC   C2B12908   9.796  42.811   8.361
  615POPC   C3B12909   9.787  42.675   7.956
  615POPC   C4B12910   9.696  42.600   7.535
  616POPC   NC312911   2.363  15.779   9.478
  616POPC   PO412912   2.744  16.282   9.526
  616POPC   GL112913   2.697  15.975   9.156
  616POPC   GL212914   2.954  16.038   8.951
  616POPC   C1A12915   2.537  15.707   8.788
  616POPC   D2A12916   2.436  15.790   8.314
  616POPC   C3A12917   2.786  15.852   7.986
  616POPC   C4A12918   3.138  15.762   7.685
  616POPC   C1B12919   2.741  16.156   8.592
  616POPC   C2B12920   2.901  16.385   8.232
  616POPC   C3B12921   3.177  16.215   7.921
  616POPC   C4B12922   3.210  16.216   7.446
  617POPC   NC312923  16.844  32.399   9.690
  617POPC   PO412924  17.496  32.262   9.750
  617POPC   GL112925  17.465  32.213   9.269
  617POPC   GL212926  17.467  32.500   9.058
  617POPC   C1A12927  17.465  32.045   8.818
  617POPC   D2A12928  17.568  32.235   8.371
  617POPC   C3A12929  17.604  31.995   7.991
  617POPC   C4A12930  17.473  32.020   7.556
  617POPC   C1B12931  17.719  32.643   8.714
  617POPC   C2B12932  17.995  32.591   8.393
  617POPC   C3B12933  17.824  32.603   8.013
  617POPC   C4B12934  17.464  32.468   7.805
  618POPC   NC312935  22.812   0.247   9.804
  618POPC   PO412936  23.140   0.844   9.790
  618POPC   GL112937  22.994   0.688   9.336
  618POPC   GL212938  22.874   0.341   9.257
  618POPC   C1A12939  22.989   0.621   8.833
  618POPC   D2A12940  23.069   0.275   8.484
  618POPC   C3A12941  22.926   0.350   8.053
  618POPC   C4A12942  22.526   0.208   7.842
  618POPC   C1B12943  23.223   0.167   8.971
  618POPC   C2B12944  23.488  44.978   8.635
  618POPC   C3B12945  23.496   0.037   8.179
  618POPC   C4B12946  23.423   0.215   7.742
  619POPC   NC312947   3.436   9.860   9.760
  619POPC   PO412948   3.659   9.262   9.683
  619POPC   GL112949   3.657   9.758   9.310
  619POPC   GL212950   3.372   9.997   9.231
  619POPC   C1A12951   3.474   9.682   8.805
  619POPC   D2A12952   3.792   9.494   8.500
  619POPC   C3A12953   3.722   9.626   8.089
  619POPC   C4A12954   3.340   9.657   7.869
  619POPC   C1B12955   3.724  10.094   8.902
  619POPC   C2B12956   3.685  10.004   8.457
  619POPC   C3B12957   3.516  10.103   8.058
  619POPC   C4B12958   3.734  10.315   7.761
  620POPC   NC312959  39.515  24.312   9.416
  620POPC   PO412960  38.931  24.662   9.275
  620POPC   GL112961  39.154  24.746   8.961
  620POPC   GL212962  39.352  24.469   8.970
  620POPC   C1A12963  39.188  24.741   8.531
  620POPC   D2A12964  39.459  24.697   8.195
  620POPC   C3A12965  39.129  24.537   7.923
  620POPC   C4A12966  39.023  24.566   7.506
  620POPC   C1B12967  39.064  24.239   8.727
  620POPC   C2B12968  39.279  24.224   8.323
  620POPC   C3B12969  39.506  24.223   7.960
  620POPC   C4B12970  39.212  24.106   7.629
  621POPC   NC312971  24.237  12.084   9.577
  621POPC   PO412972  24.856  12.089   9.466
  621POPC   GL112973  24.615  12.181   9.097
  621POPC   GL212974  24.267  12.226   9.095
  621POPC   C1A12975  24.615  12.239   8.640
  621POPC   D2A12976  24.561  12.001   8.247
  621POPC   C3A12977  24.805  12.123   7.877
  621POPC   C4A12978  24.699  12.380   7.534
  621POPC   C1B12979  24.111  12.441   8.750
  621POPC   C2B12980  24.247  12.501   8.336
  621POPC   C3B12981  24.332  12.393   7.904
  621POPC   C4B12982  24.214  12.484   7.488
  622POPC   NC312983  33.836   9.307   9.866
  622POPC   PO412984  34.023   8.778   9.599
  622POPC   GL112985  33.829   8.882   9.211
  622POPC   GL212986  34.074   8.768   9.013
  622POPC   C1A12987  33.659   9.005   8.773
  622POPC   D2A12988  33.828   8.996   8.318
  622POPC   C3A12989  33.798   9.233   7.884
  622POPC   C4A12990  33.995   9.276   7.451
  622POPC   C1B12991  34.108   8.575   8.604
  622POPC   C2B12992  34.180   8.627   8.156
  622POPC   C3B12993  33.897   8.718   7.881
  622POPC   C4B12994  33.494   8.789   7.981
  623POPC   NC312995   0.664  13.277   9.658
  623POPC   PO412996   0.206  13.753   9.513
  623POPC   GL112997   0.420  13.543   9.187
  623POPC   GL212998   0.758  13.511   9.213
  623POPC   C1A12999   0.281  13.482   8.774
  623POPC   D2A13000   0.308  13.812   8.478
  623POPC   C3A13001   0.127  13.829   8.069
  623POPC   C4A13002   0.321  13.733   7.693
  623POPC   C1B13003   0.744  13.723   8.825
  623POPC   C2B13004   0.855  13.679   8.428
  623POPC   C3B13005   0.652  13.687   8.084
  623POPC   C4B13006   0.825  13.670   7.723
  624POPC   NC313007  20.878  17.209   9.672
  624POPC   PO413008  20.531  17.748   9.513
  624POPC   GL113009  20.584  17.496   9.133
  624POPC   GL213010  20.930  17.393   9.075
  624POPC   C1A13011  20.614  17.421   8.667
  624POPC   D2A13012  20.509  17.660   8.314
  624POPC   C3A13013  20.679  17.618   7.923
  624POPC   C4A13014  20.534  17.840   7.579
  624POPC   C1B13015  21.085  17.233   8.650
  624POPC   C2B13016  20.933  17.111   8.230
  624POPC   C3B13017  20.883  17.157   7.768
  624POPC   C4B13018  20.977  17.116   7.285
  625POPC   NC313019  16.018  42.091   9.535
  625POPC   PO413020  15.657  42.675   9.399
  625POPC   GL113021  15.858  42.360   9.125
  625POPC   GL213022  16.202  42.458   9.089
  625POPC   C1A13023  16.011  42.147   8.731
  625POPC   D2A13024  15.843  42.046   8.329
  625POPC   C3A13025  16.078  42.201   7.977
  625POPC   C4A13026  16.103  42.107   7.550
  625POPC   C1B13027  15.977  42.672   8.745
  625POPC   C2B13028  15.873  42.552   8.342
  625POPC   C3B13029  16.008  42.712   7.978
  625POPC   C4B13030  15.976  42.638   7.576
  626POPC   NC313031  23.523  40.038   9.572
  626POPC   PO413032  24.051  39.635   9.599
  626POPC   GL113033  23.784  39.901   9.189
  626POPC   GL213034  23.554  40.263   9.125
  626POPC   C1A13035  23.679  39.811   8.749
  626POPC   D2A13036  23.711  39.692   8.311
  626POPC   C3A13037  23.743  39.907   7.929
  626POPC   C4A13038  24.117  40.062   7.686
  626POPC   C1B13039  23.775  40.323   8.744
  626POPC   C2B13040  23.682  40.280   8.294
  626POPC   C3B13041  23.806  40.399   7.873
  626POPC   C4B13042  23.619  40.175   7.496
  627POPC   NC313043  22.199  30.570   9.516
  627POPC   PO413044  21.762  30.966   9.210
  627POPC   GL113045  22.010  30.648   9.026
  627POPC   GL213046  22.386  30.562   9.048
  627POPC   C1A13047  22.056  30.619   8.570
  627POPC   D2A13048  22.232  30.443   8.187
  627POPC   C3A13049  22.143  30.721   7.863
  627POPC   C4A13050  21.817  30.978   7.720
  627POPC   C1B13051  22.515  30.411   8.656
  627POPC   C2B13052  22.740  30.492   8.268
  627POPC   C3B13053  22.620  30.475   7.812
  627POPC   C4B13054  22.389  30.619   7.424
  628POPC   NC313055   6.193  21.006   9.608
  628POPC   PO413056   5.602  21.425   9.562
  628POPC   GL113057   5.819  21.233   9.164
  628POPC   GL213058   6.190  21.194   9.138
  628POPC   C1A13059   5.657  21.130   8.726
  628POPC   D2A13060   5.537  20.955   8.288
  628POPC   C3A13061   5.723  21.135   7.916
  628POPC   C4A13062   5.857  21.323   7.507
  628POPC   C1B13063   6.168  21.160   8.689
  628POPC   C2B13064   5.983  21.329   8.313
  628POPC   C3B13065   6.186  21.421   7.904
  628POPC   C4B13066   6.576  21.654   7.818
  629POPC   NC313067  11.513   7.892   9.470
  629POPC   PO413068  11.364   8.572   9.440
  629POPC   GL113069  11.355   8.248   9.137
  629POPC   GL213070  11.245   7.895   9.029
  629POPC   C1A13071  11.412   8.259   8.716
  629POPC   D2A13072  11.484   7.995   8.390
  629POPC   C3A13073  11.396   8.267   8.096
  629POPC   C4A13074  11.547   8.401   7.759
  629POPC   C1B13075  11.008   7.936   8.618
  629POPC   C2B13076  10.993   7.971   8.142
  629POPC   C3B13077  11.280   7.905   7.741
  629POPC   C4B13078  11.083   7.906   7.267
  630POPC   NC313079  34.258   8.407   9.493
  630POPC   PO413080  34.792   8.141   9.533
  630POPC   GL113081  34.522   8.047   9.169
  630POPC   GL213082  34.303   7.783   9.242
  630POPC   C1A13083  34.439   8.173   8.724
  630POPC   D2A13084  34.263   8.150   8.298
  630POPC   C3A13085  34.541   8.273   7.982
  630POPC   C4A13086  34.930   8.139   7.780
  630POPC   C1B13087  34.341   7.678   8.806
  630POPC   C2B13088  34.608   7.770   8.448
  630POPC   C3B13089  34.642   7.759   8.006
  630POPC   C4B13090  34.480   7.946   7.590
  631POPC   NC313091  16.166  39.551   9.726
  631POPC   PO413092  15.954  40.103   9.677
  631POPC   GL113093  16.049  40.081   9.222
  631POPC   GL213094  15.734  40.217   9.144
  631POPC   C1A13095  16.113  40.288   8.792
  631POPC   D2A13096  16.319  40.254   8.357
  631POPC   C3A13097  16.153  40.100   7.966
  631POPC   C4A13098  15.929  40.342   7.731
  631POPC   C1B13099  15.774  39.922   8.778
  631POPC   C2B13100  15.805  40.038   8.329
  631POPC   C3B13101  15.606  39.980   7.897
  631POPC   C4B13102  15.425  39.766   7.502
  632POPC   NC313103  29.684   0.488   9.399
  632POPC   PO413104  30.232   0.208   9.515
  632POPC   GL113105  30.080   0.241   9.065
  632POPC   GL213106  29.833   0.488   8.916
  632POPC   C1A13107  30.194   0.332   8.593
  632POPC   D2A13108  30.256   0.384   8.121
  632POPC   C3A13109  29.961   0.296   7.803
  632POPC   C4A13110  29.996   0.189   7.332
  632POPC   C1B13111  29.982   0.826   8.644
  632POPC   C2B13112  29.988   0.804   8.221
  632POPC   C3B13113  30.135   0.814   7.834
  632POPC   C4B13114  29.931   0.705   7.484
  633POPC   NC313115  35.619  35.208   9.482
  633POPC   PO413116  35.028  34.809   9.485
  633POPC   GL113117  35.432  34.691   9.244
  633POPC   GL213118  35.203  34.579   9.023
  633POPC   C1A13119  35.601  34.308   8.940
  633POPC   D2A13120  35.488  34.244   8.494
  633POPC   C3A13121  35.729  34.257   8.106
  633POPC   C4A13122  35.577  34.367   7.693
  633POPC   C1B13123  35.354  34.854   8.744
  633POPC   C2B13124  35.233  34.780   8.366
  633POPC   C3B13125  35.390  34.747   7.979
  633POPC   C4B13126  35.211  34.688   7.617
  634POPC   NC313127  16.027   8.975   9.598
  634POPC   PO413128  15.379   8.799   9.518
  634POPC   GL113129  15.705   8.823   9.194
  634POPC   GL213130  15.826   9.160   9.144
  634POPC   C1A13131  15.592   8.832   8.745
  634POPC   D2A13132  15.823   8.709   8.366
  634POPC   C3A13133  15.610   8.764   7.969
  634POPC   C4A13134  15.620   8.944   7.562
  634POPC   C1B13135  15.999   9.142   8.713
  634POPC   C2B13136  16.134   9.151   8.279
  634POPC   C3B13137  16.070   9.135   7.825
  634POPC   C4B13138  16.427   9.103   7.479
  635POPC   NC313139   1.680  25.277   9.523
  635POPC   PO413140   2.210  24.921   9.425
  635POPC   GL113141   1.963  25.218   9.112
  635POPC   GL213142   2.043  25.583   9.043
  635POPC   C1A13143   1.725  25.329   8.736
  635POPC   D2A13144   1.826  25.488   8.335
  635POPC   C3A13145   1.663  25.197   8.038
  635POPC   C4A13146   1.552  25.268   7.632
  635POPC   C1B13147   2.240  25.326   8.679
  635POPC   C2B13148   2.252  25.189   8.228
  635POPC   C3B13149   2.132  25.384   7.830
  635POPC   C4B13150   2.332  25.548   7.457
  636POPC   NC313151  21.325  31.044   9.406
  636POPC   PO413152  21.305  31.631   9.711
  636POPC   GL113153  21.320  31.708   9.292
  636POPC   GL213154  21.069  31.510   9.144
  636POPC   C1A13155  21.447  31.760   8.867
  636POPC   D2A13156  21.619  31.540   8.486
  636POPC   C3A13157  21.490  31.629   8.055
  636POPC   C4A13158  21.766  31.748   7.728
  636POPC   C1B13159  21.227  31.303   8.780
  636POPC   C2B13160  21.102  31.374   8.355
  636POPC   C3B13161  21.151  31.235   7.947
  636POPC   C4B13162  21.445  31.301   7.616
  637POPC   NC313163  33.932  32.887   9.641
  637POPC   PO413164  34.366  33.386   9.417
  637POPC   GL113165  34.072  33.119   9.191
  637POPC   GL213166  33.713  32.969   9.178
  637POPC   C1A13167  34.062  33.010   8.774
  637POPC   D2A13168  33.933  33.174   8.390
  637POPC   C3A13169  33.711  32.850   8.188
  637POPC   C4A13170  33.735  32.799   7.753
  637POPC   C1B13171  33.573  33.211   8.804
  637POPC   C2B13172  33.394  33.220   8.372
  637POPC   C3B13173  33.592  33.285   7.943
  637POPC   C4B13174  33.496  33.174   7.498
  638POPC   NC313175   2.662  16.733   9.495
  638POPC   PO413176   3.327  16.804   9.571
  638POPC   GL113177   3.041  16.577   9.180
  638POPC   GL213178   2.646  16.482   9.062
  638POPC   C1A13179   2.967  16.603   8.702
  638POPC   D2A13180   2.705  16.894   8.405
  638POPC   C3A13181   2.827  16.963   7.968
  638POPC   C4A13182   3.003  16.629   7.716
  638POPC   C1B13183   2.414  16.557   8.674
  638POPC   C2B13184   2.380  16.317   8.269
  638POPC   C3B13185   2.533  16.463   7.886
  638POPC   C4B13186   2.386  16.826   7.736
  639POPC   NC313187  26.110  29.500   9.535
  639POPC   PO413188  25.617  29.040   9.712
  639POPC   GL113189  25.870  29.007   9.257
  639POPC   GL213190  25.897  29.349   9.106
  639POPC   C1A13191  25.975  28.995   8.751
  639POPC   D2A13192  25.790  28.912   8.300
  639POPC   C3A13193  26.036  29.033   7.931
  639POPC   C4A13194  26.493  29.138   8.008
  639POPC   C1B13195  25.747  29.513   8.710
  639POPC   C2B13196  25.810  29.443   8.282
  639POPC   C3B13197  25.703  29.658   7.897
  639POPC   C4B13198  25.754  29.399   7.547
  640POPC   NC313199  30.162  13.115   9.416
  640POPC   PO413200  29.896  12.407   9.476
  640POPC   GL113201  29.852  12.546   9.069
  640POPC   GL213202  29.887  12.930   9.020
  640POPC   C1A13203  30.007  12.612   8.657
  640POPC   D2A13204  29.934  12.968   8.386
  640POPC   C3A13205  30.041  12.795   7.994
  640POPC   C4A13206  29.924  12.463   7.719
  640POPC   C1B13207  29.667  13.245   8.727
  640POPC   C2B13208  29.587  13.406   8.343
  640POPC   C3B13209  29.759  13.243   7.981
  640POPC   C4B13210  29.610  13.178   7.576
  641POPC   NC313211  18.955   5.614   9.560
  641POPC   PO413212  18.852   6.265   9.528
  641POPC   GL113213  18.827   5.988   9.156
  641POPC   GL213214  18.803   5.630   9.099
  641POPC   C1A13215  18.918   5.966   8.706
  641POPC   D2A13216  19.148   5.699   8.437
  641POPC   C3A13217  19.149   5.754   8.010
  641POPC   C4A13218  18.833   6.031   7.884
  641POPC   C1B13219  18.518   5.690   8.826
  641POPC   C2B13220  18.651   5.521   8.468
  641POPC   C3B13221  18.706   5.504   8.022
  641POPC   C4B13222  18.410   5.662   7.751
  642POPC   NC313223  40.077  30.206   9.427
  642POPC   PO413224  39.761  29.682   9.199
  642POPC   GL113225  40.101  29.859   9.036
  642POPC   GL213226  40.287  29.557   9.005
  642POPC   C1A13227  40.145  30.202   8.720
  642POPC   D2A13228  40.314  30.288   8.278
  642POPC   C3A13229  40.086  30.124   7.905
  642POPC   C4A13230  39.646  30.170   7.816
  642POPC   C1B13231  40.282  29.731   8.579
  642POPC   C2B13232  39.949  29.833   8.321
  642POPC   C3B13233  39.786  29.680   7.924
  642POPC   C4B13234  39.830  29.826   7.482
  643POPC   NC313235  27.474   0.202   9.538
  643POPC   PO413236  27.486   0.892   9.544
  643POPC   GL113237  27.654   0.733   9.157
  643POPC   GL213238  27.614   0.351   9.082
  643POPC   C1A13239  27.803   0.639   8.730
  643POPC   D2A13240  27.542   0.496   8.411
  643POPC   C3A13241  27.586   0.694   8.032
  643POPC   C4A13242  27.388   0.493   7.668
  643POPC   C1B13243  27.667   0.077   8.723
  643POPC   C2B13244  27.793   0.019   8.316
  643POPC   C3B13245  27.699   0.209   7.949
  643POPC   C4B13246  27.808   0.191   7.484
  644POPC   NC313247  37.677   0.759   9.529
  644POPC   PO413248  37.252   0.282   9.455
  644POPC   GL113249  37.657   0.320   9.225
  644POPC   GL213250  38.017   0.465   9.278
  644POPC   C1A13251  37.573   0.353   8.816
  644POPC   D2A13252  37.333   0.470   8.485
  644POPC   C3A13253  37.411   0.301   8.111
  644POPC   C4A13254  37.301   0.419   7.726
  644POPC   C1B13255  38.082   0.362   8.824
  644POPC   C2B13256  37.885   0.294   8.391
  644POPC   C3B13257  37.896   0.303   7.919
  644POPC   C4B13258  38.163   0.490   7.597
  645POPC   NC313259   1.744   8.711   9.467
  645POPC   PO413260   2.401   8.667   9.461
  645POPC   GL113261   2.112   8.880   9.130
  645POPC   GL213262   2.010   9.222   9.185
  645POPC   C1A13263   1.881   8.745   8.730
  645POPC   D2A13264   1.958   8.891   8.313
  645POPC   C3A13265   2.001   8.653   7.927
  645POPC   C4A13266   2.079   8.805   7.477
  645POPC   C1B13267   1.960   9.250   8.738
  645POPC   C2B13268   1.870   9.387   8.297
  645POPC   C3B13269   1.946   9.176   7.871
  645POPC   C4B13270   1.755   9.208   7.407
  646POPC   NC313271  34.994  43.184   9.473
  646POPC   PO413272  35.600  42.852   9.631
  646POPC   GL113273  35.582  42.760   9.201
  646POPC   GL213274  35.258  42.885   9.183
  646POPC   C1A13275  35.537  42.955   8.776
  646POPC   D2A13276  35.293  42.990   8.360
  646POPC   C3A13277  35.363  43.094   7.896
  646POPC   C4A13278  35.620  43.192   7.496
  646POPC   C1B13279  35.022  42.915   8.810
  646POPC   C2B13280  34.950  42.623   8.443
  646POPC   C3B13281  35.009  42.721   8.012
  646POPC   C4B13282  34.878  42.980   7.681
  647POPC   NC313283  16.910   7.464   9.608
  647POPC   PO413284  16.487   6.877   9.490
  647POPC   GL113285  16.557   7.222   9.230
  647POPC   GL213286  16.899   7.202   9.174
  647POPC   C1A13287  16.548   7.381   8.817
  647POPC   D2A13288  16.747   7.470   8.418
  647POPC   C3A13289  16.579   7.296   8.038
  647POPC   C4A13290  16.414   7.471   7.669
  647POPC   C1B13291  17.057   7.454   8.849
  647POPC   C2B13292  17.265   7.407   8.455
  647POPC   C3B13293  17.242   7.381   7.997
  647POPC   C4B13294  16.925   7.504   7.732
  648POPC   NC313295  18.931  18.739   9.322
  648POPC   PO413296  19.290  19.285   9.223
  648POPC   GL113297  19.130  19.012   8.938
  648POPC   GL213298  18.734  18.987   8.935
  648POPC   C1A13299  19.342  18.974   8.542
  648POPC   D2A13300  19.382  19.273   8.175
  648POPC   C3A13301  19.172  19.167   7.770
  648POPC   C4A13302  19.145  19.306   7.316
  648POPC   C1B13303  18.916  18.662   8.656
  648POPC   C2B13304  18.955  18.776   8.232
  648POPC   C3B13305  18.739  18.966   7.894
  648POPC   C4B13306  18.826  18.936   7.431
  649POPC   NC313307  28.889   8.091   9.451
  649POPC   PO413308  29.252   8.539   9.579
  649POPC   GL113309  29.033   8.465   9.094
  649POPC   GL213310  29.044   8.090   8.995
  649POPC   C1A13311  29.203   8.374   8.632
  649POPC   D2A13312  29.407   8.140   8.293
  649POPC   C3A13313  29.307   8.298   7.889
  649POPC   C4A13314  28.898   8.458   7.747
  649POPC   C1B13315  29.199   7.837   8.690
  649POPC   C2B13316  28.982   7.771   8.291
  649POPC   C3B13317  29.114   7.828   7.882
  649POPC   C4B13318  29.519   7.814   7.673
  650POPC   NC313319  31.638   9.224   9.836
  650POPC   PO413320  32.189   8.938   9.607
  650POPC   GL113321  32.115   8.866   9.185
  650POPC   GL213322  32.395   9.014   9.028
  650POPC   C1A13323  31.983   8.864   8.769
  650POPC   D2A13324  32.246   8.865   8.441
  650POPC   C3A13325  32.041   8.949   8.089
  650POPC   C4A13326  32.186   8.710   7.738
  650POPC   C1B13327  32.647   8.712   8.820
  650POPC   C2B13328  32.748   8.748   8.393
  650POPC   C3B13329  32.561   8.922   8.012
  650POPC   C4B13330  32.340   9.182   7.740
  651POPC   NC313331  17.261  44.569   9.516
  651POPC   PO413332  17.878  44.893   9.533
  651POPC   GL113333  17.708  44.573   9.251
  651POPC   GL213334  17.501  44.836   9.138
  651POPC   C1A13335  17.558  44.445   8.821
  651POPC   D2A13336  17.342  44.371   8.406
  651POPC   C3A13337  17.587  44.403   8.049
  651POPC   C4A13338  17.575  44.404   7.617
  651POPC   C1B13339  17.646  44.942   8.756
  651POPC   C2B13340  17.572  44.814   8.397
  651POPC   C3B13341  17.601  44.926   8.002
  651POPC   C4B13342  17.461  44.885   7.626
  652POPC   NC313343  20.686   3.370   9.646
  652POPC   PO413344  20.687   2.792   9.625
  652POPC   GL113345  20.649   3.027   9.239
  652POPC   GL213346  20.975   3.095   9.129
  652POPC   C1A13347  20.612   2.885   8.804
  652POPC   D2A13348  20.732   2.578   8.490
  652POPC   C3A13349  20.567   2.763   8.140
  652POPC   C4A13350  20.590   2.757   7.681
  652POPC   C1B13351  20.884   3.312   8.736
  652POPC   C2B13352  20.739   3.443   8.329
  652POPC   C3B13353  20.771   3.176   7.940
  652POPC   C4B13354  20.950   3.088   7.512
  653POPC   NC313355  24.907  43.613   9.570
  653POPC   PO413356  24.375  43.912   9.535
  653POPC   GL113357  24.403  43.727   9.160
  653POPC   GL213358  24.705  43.890   9.117
  653POPC   C1A13359  24.347  43.826   8.735
  653POPC   D2A13360  24.199  43.967   8.351
  653POPC   C3A13361  24.389  43.852   7.996
  653POPC   C4A13362  24.625  44.098   7.699
  653POPC   C1B13363  24.764  44.121   8.746
  653POPC   C2B13364  24.755  43.966   8.331
  653POPC   C3B13365  24.867  43.700   7.947
  653POPC   C4B13366  24.758  43.662   7.468
  654POPC   NC313367  29.497  20.446   9.585
  654POPC   PO413368  30.164  20.196   9.418
  654POPC   GL113369  29.940  20.439   9.079
  654POPC   GL213370  29.810  20.790   9.146
  654POPC   C1A13371  29.994  20.564   8.656
  654POPC   D2A13372  29.897  20.478   8.229
  654POPC   C3A13373  30.083  20.571   7.835
  654POPC   C4A13374  30.280  20.864   7.621
  654POPC   C1B13375  29.697  20.983   8.748
  654POPC   C2B13376  29.662  20.933   8.306
  654POPC   C3B13377  29.613  20.781   7.893
  654POPC   C4B13378  29.609  20.327   7.839
  655POPC   NC313379   6.663  41.175   9.488
  655POPC   PO413380   6.409  41.771   9.532
  655POPC   GL113381   6.671  41.643   9.200
  655POPC   GL213382   6.412  41.727   9.010
  655POPC   C1A13383   6.775  41.442   8.787
  655POPC   D2A13384   7.049  41.276   8.478
  655POPC   C3A13385   6.896  41.329   8.071
  655POPC   C4A13386   6.773  41.313   7.654
  655POPC   C1B13387   6.587  41.957   8.688
  655POPC   C2B13388   6.593  41.922   8.265
  655POPC   C3B13389   6.583  41.735   7.863
  655POPC   C4B13390   6.584  41.704   7.404
  656POPC   NC313391  15.592  19.266   9.715
  656POPC   PO413392  16.094  18.885   9.568
  656POPC   GL113393  15.919  19.131   9.231
  656POPC   GL213394  15.646  19.383   9.213
  656POPC   C1A13395  16.098  19.283   8.862
  656POPC   D2A13396  15.948  19.363   8.448
  656POPC   C3A13397  16.203  19.304   8.109
  656POPC   C4A13398  16.184  19.072   7.736
  656POPC   C1B13399  15.578  19.294   8.808
  656POPC   C2B13400  15.433  19.316   8.411
  656POPC   C3B13401  15.649  19.262   8.021
  656POPC   C4B13402  15.557  19.226   7.614
  657POPC   NC313403   6.878   7.034   9.541
  657POPC   PO413404   6.403   6.529   9.529
  657POPC   GL113405   6.545   6.770   9.210
  657POPC   GL213406   6.313   7.007   9.072
  657POPC   C1A13407   6.632   6.517   8.863
  657POPC   D2A13408   6.714   6.273   8.515
  657POPC   C3A13409   6.792   6.395   8.103
  657POPC   C4A13410   6.850   6.678   7.779
  657POPC   C1B13411   6.309   6.868   8.696
  657POPC   C2B13412   6.408   6.653   8.365
  657POPC   C3B13413   6.349   6.673   7.967
  657POPC   C4B13414   6.424   6.903   7.616
  658POPC   NC313415   0.546   2.948   9.534
  658POPC   PO413416   0.889   2.393   9.534
  658POPC   GL113417   0.543   2.552   9.198
  658POPC   GL213418   0.326   2.885   9.084
  658POPC   C1A13419   0.538   2.505   8.746
  658POPC   D2A13420   0.716   2.361   8.362
  658POPC   C3A13421   0.595   2.445   7.944
  658POPC   C4A13422   0.809   2.669   7.652
  658POPC   C1B13423   0.357   2.972   8.648
  658POPC   C2B13424   0.414   2.823   8.241
  658POPC   C3B13425   0.382   2.911   7.810
  658POPC   C4B13426   0.476   3.000   7.365
  659POPC   NC313427   7.845   9.718   9.529
  659POPC   PO413428   8.497   9.700   9.733
  659POPC   GL113429   8.435   9.893   9.292
  659POPC   GL213430   8.144   9.908   9.098
  659POPC   C1A13431   8.568   9.874   8.833
  659POPC   D2A13432   8.508   9.525   8.517
  659POPC   C3A13433   8.442   9.652   8.080
  659POPC   C4A13434   8.318   9.869   7.708
  659POPC   C1B13435   8.053   9.645   8.715
  659POPC   C2B13436   8.004   9.457   8.286
  659POPC   C3B13437   7.874   9.714   7.934
  659POPC   C4B13438   7.876   9.670   7.493
  660POPC   NC313439  33.472  35.339   9.225
  660POPC   PO413440  34.167  35.286   9.308
  660POPC   GL113441  34.046  35.488   9.003
  660POPC   GL213442  34.190  35.829   9.010
  660POPC   C1A13443  33.834  35.305   8.665
  660POPC   D2A13444  33.742  35.026   8.320
  660POPC   C3A13445  33.886  35.210   7.940
  660POPC   C4A13446  33.562  35.434   7.760
  660POPC   C1B13447  33.978  35.834   8.636
  660POPC   C2B13448  33.900  35.621   8.273
  660POPC   C3B13449  33.895  35.767   7.896
  660POPC   C4B13450  33.942  35.740   7.475
  661POPC   NC313451  34.099  33.832   9.424
  661POPC   PO413452  33.549  33.274   9.565
  661POPC   GL113453  33.695  33.537   9.213
  661POPC   GL213454  33.618  33.916   9.216
  661POPC   C1A13455  33.898  33.615   8.805
  661POPC   D2A13456  33.663  33.642   8.416
  661POPC   C3A13457  33.687  33.883   8.041
  661POPC   C4A13458  33.962  33.650   7.765
  661POPC   C1B13459  33.722  34.104   8.790
  661POPC   C2B13460  34.017  34.033   8.437
  661POPC   C3B13461  34.205  34.027   8.003
  661POPC   C4B13462  34.233  34.073   7.524
  662POPC   NC313463   4.787  19.973   9.478
  662POPC   PO413464   5.360  19.777   9.443
  662POPC   GL113465   5.041  19.752   9.105
  662POPC   GL213466   4.740  19.518   9.131
  662POPC   C1A13467   5.179  19.802   8.728
  662POPC   D2A13468   5.364  19.971   8.359
  662POPC   C3A13469   5.126  19.963   7.974
  662POPC   C4A13470   5.076  20.091   7.565
  662POPC   C1B13471   4.905  19.383   8.706
  662POPC   C2B13472   5.074  19.550   8.309
  662POPC   C3B13473   5.047  19.473   7.892
  662POPC   C4B13474   4.823  19.666   7.564
  663POPC   NC313475  36.726  36.608   9.373
  663POPC   PO413476  37.010  37.258   9.477
  663POPC   GL113477  36.906  37.059   9.100
  663POPC   GL213478  36.566  37.081   9.155
  663POPC   C1A13479  36.987  36.748   8.759
  663POPC   D2A13480  37.149  36.854   8.362
  663POPC   C3A13481  36.969  36.755   7.982
  663POPC   C4A13482  37.118  37.051   7.717
  663POPC   C1B13483  36.498  36.888   8.767
  663POPC   C2B13484  36.611  36.846   8.359
  663POPC   C3B13485  36.533  37.035   7.995
  663POPC   C4B13486  36.627  36.957   7.586
  664POPC   NC313487  18.008  27.207   9.562
  664POPC   PO413488  18.406  26.652   9.399
  664POPC   GL113489  18.320  26.758   9.007
  664POPC   GL213490  18.368  27.090   9.070
  664POPC   C1A13491  18.315  26.921   8.584
  664POPC   D2A13492  18.151  27.115   8.232
  664POPC   C3A13493  18.286  26.797   7.994
  664POPC   C4A13494  18.430  26.451   7.815
  664POPC   C1B13495  18.584  27.342   8.769
  664POPC   C2B13496  18.767  27.137   8.441
  664POPC   C3B13497  18.720  27.109   8.010
  664POPC   C4B13498  18.400  27.213   7.723
  665POPC   NC313499  15.801  25.700   9.509
  665POPC   PO413500  16.341  25.294   9.518
  665POPC   GL113501  16.043  25.396   9.203
  665POPC   GL213502  16.238  25.672   9.131
  665POPC   C1A13503  15.724  25.330   8.826
  665POPC   D2A13504  15.622  25.320   8.375
  665POPC   C3A13505  15.820  25.066   8.083
  665POPC   C4A13506  16.057  25.081   7.725
  665POPC   C1B13507  16.164  25.545   8.743
  665POPC   C2B13508  16.187  25.603   8.367
  665POPC   C3B13509  16.287  25.369   8.057
  665POPC   C4B13510  16.542  25.484   7.739
  666POPC   NC313511   6.356   8.662   9.707
  666POPC   PO413512   6.750   8.203   9.497
  666POPC   GL113513   6.713   8.282   9.068
  666POPC   GL213514   6.368   8.135   9.051
  666POPC   C1A13515   6.811   8.569   8.712
  666POPC   D2A13516   6.629   8.609   8.280
  666POPC   C3A13517   6.721   8.437   7.888
  666POPC   C4A13518   7.033   8.403   7.598
  666POPC   C1B13519   6.446   8.204   8.607
  666POPC   C2B13520   6.517   8.065   8.176
  666POPC   C3B13521   6.879   7.969   7.869
  666POPC   C4B13522   6.664   8.093   7.461
  667POPC   NC313523  22.279   4.409   9.633
  667POPC   PO413524  21.637   4.119   9.557
  667POPC   GL113525  21.941   4.319   9.215
  667POPC   GL213526  22.335   4.224   9.169
  667POPC   C1A13527  22.090   4.318   8.755
  667POPC   D2A13528  22.497   4.364   8.549
  667POPC   C3A13529  22.373   4.370   8.139
  667POPC   C4A13530  22.061   4.459   7.816
  667POPC   C1B13531  22.483   3.950   8.812
  667POPC   C2B13532  22.283   3.860   8.449
  667POPC   C3B13533  22.443   3.869   8.062
  667POPC   C4B13534  22.359   4.073   7.717
  668POPC   NC313535   8.774  21.127   9.294
  668POPC   PO413536   9.268  21.391   9.771
  668POPC   GL113537   9.223  21.516   9.266
  668POPC   GL213538   8.899  21.523   9.047
  668POPC   C1A13539   9.280  21.313   8.805
  668POPC   D2A13540   9.539  21.274   8.438
  668POPC   C3A13541   9.296  21.285   8.081
  668POPC   C4A13542   9.050  21.379   7.701
  668POPC   C1B13543   8.795  21.420   8.628
  668POPC   C2B13544   8.811  21.395   8.177
  668POPC   C3B13545   8.555  21.404   7.804
  668POPC   C4B13546   8.709  21.702   7.497
  669POPC   NC313547  44.049  37.018   9.537
  669POPC   PO413548  43.533  36.604   9.506
  669POPC   GL113549  43.650  36.778   9.139
  669POPC   GL213550  43.994  36.884   9.068
  669POPC   C1A13551  43.595  36.890   8.719
  669POPC   D2A13552  43.782  36.869   8.324
  669POPC   C3A13553  43.551  36.818   8.008
  669POPC   C4A13554  43.754  36.672   7.686
  669POPC   C1B13555  44.117  36.985   8.688
  669POPC   C2B13556  44.069  37.276   8.348
  669POPC   C3B13557  43.960  37.212   7.940
  669POPC   C4B13558  44.101  37.005   7.575
  670POPC   NC313559  39.075  38.984   9.692
  670POPC   PO413560  39.354  38.474   9.293
  670POPC   GL113561  39.060  38.377   9.052
  670POPC   GL213562  38.808  38.454   9.227
  670POPC   C1A13563  39.158  38.264   8.675
  670POPC   D2A13564  39.508  38.410   8.422
  670POPC   C3A13565  39.441  38.402   7.981
  670POPC   C4A13566  39.428  38.128   7.644
  670POPC   C1B13567  38.828  38.663   8.705
  670POPC   C2B13568  39.050  38.583   8.284
  670POPC   C3B13569  39.006  38.585   7.829
  670POPC   C4B13570  38.622  38.588   7.624
  671POPC   NC313571  36.411   5.036   9.533
  671POPC   PO413572  35.835   5.399   9.756
  671POPC   GL113573  35.961   5.200   9.322
  671POPC   GL213574  36.005   4.828   9.261
  671POPC   C1A13575  36.217   5.146   8.897
  671POPC   D2A13576  36.164   5.047   8.432
  671POPC   C3A13577  36.357   5.035   7.997
  671POPC   C4A13578  36.488   5.204   7.592
  671POPC   C1B13579  35.816   4.849   8.826
  671POPC   C2B13580  35.707   4.728   8.396
  671POPC   C3B13581  35.849   4.942   8.025
  671POPC   C4B13582  35.925   5.191   7.678
  672POPC   NC313583   5.488   4.781   9.427
  672POPC   PO413584   6.210   5.044   9.467
  672POPC   GL113585   6.026   5.140   9.095
  672POPC   GL213586   5.678   5.203   9.156
  672POPC   C1A13587   6.115   4.947   8.689
  672POPC   D2A13588   6.035   4.743   8.298
  672POPC   C3A13589   6.007   5.069   8.010
  672POPC   C4A13590   6.078   5.153   7.591
  672POPC   C1B13591   5.595   4.978   8.797
  672POPC   C2B13592   5.684   5.118   8.415
  672POPC   C3B13593   5.507   5.184   8.036
  672POPC   C4B13594   5.582   4.899   7.713
  673POPC   NC313595  41.083   6.135   9.395
  673POPC   PO413596  40.634   6.684   9.456
  673POPC   GL113597  40.793   6.517   9.094
  673POPC   GL213598  40.924   6.830   8.976
  673POPC   C1A13599  40.710   6.302   8.678
  673POPC   D2A13600  40.615   6.164   8.238
  673POPC   C3A13601  40.761   6.399   7.875
  673POPC   C4A13602  41.050   6.672   7.608
  673POPC   C1B13603  40.527   6.785   8.730
  673POPC   C2B13604  40.510   6.672   8.307
  673POPC   C3B13605  40.774   6.882   8.002
  673POPC   C4B13606  40.607   6.926   7.609
  674POPC   NC313607  43.560  17.690   9.560
  674POPC   PO413608  44.101  17.273   9.652
  674POPC   GL113609  43.847  17.372   9.277
  674POPC   GL213610  43.552  17.212   9.250
  674POPC   C1A13611  43.930  17.550   8.862
  674POPC   D2A13612  44.189  17.393   8.512
  674POPC   C3A13613  44.015  17.427   8.095
  674POPC   C4A13614  44.052  17.620   7.674
  674POPC   C1B13615  43.440  17.372   8.853
  674POPC   C2B13616  43.594  17.452   8.426
  674POPC   C3B13617  43.502  17.341   7.995
  674POPC   C4B13618  43.438  17.290   7.558
  675POPC   NC313619   8.416  44.188   9.402
  675POPC   PO413620   7.777  43.882   9.464
  675POPC   GL113621   7.999  44.040   9.114
  675POPC   GL213622   8.209  43.758   9.148
  675POPC   C1A13623   8.278  44.008   8.714
  675POPC   D2A13624   8.319  44.181   8.290
  675POPC   C3A13625   8.233  43.910   7.927
  675POPC   C4A13626   7.863  43.867   7.618
  675POPC   C1B13627   8.286  43.504   8.759
  675POPC   C2B13628   8.227  43.607   8.344
  675POPC   C3B13629   8.216  43.424   7.960
  675POPC   C4B13630   8.465  43.479   7.617
  676POPC   NC313631  40.862   7.102   9.399
  676POPC   PO413632  41.110   7.779   9.469
  676POPC   GL113633  41.096   7.561   9.101
  676POPC   GL213634  40.769   7.467   9.054
  676POPC   C1A13635  41.039   7.725   8.684
  676POPC   D2A13636  40.936   7.542   8.270
  676POPC   C3A13637  40.880   7.808   7.914
  676POPC   C4A13638  40.898   7.674   7.491
  676POPC   C1B13639  40.817   7.225   8.669
  676POPC   C2B13640  40.535   7.212   8.294
  676POPC   C3B13641  40.578   7.378   7.838
  676POPC   C4B13642  40.502   7.390   7.364
  677POPC   NC313643  24.790  25.485   9.354
  677POPC   PO413644  24.203  25.080   9.432
  677POPC   GL113645  24.377  25.287   9.067
  677POPC   GL213646  24.707  25.162   8.976
  677POPC   C1A13647  24.431  25.612   8.766
  677POPC   D2A13648  24.405  25.797   8.369
  677POPC   C3A13649  24.590  25.549   8.032
  677POPC   C4A13650  24.565  25.358   7.617
  677POPC   C1B13651  24.889  25.415   8.659
  677POPC   C2B13652  25.059  25.368   8.260
  677POPC   C3B13653  24.882  25.123   7.965
  677POPC   C4B13654  24.946  25.019   7.566
  678POPC   NC313655   1.861  30.164   9.917
  678POPC   PO413656   2.018  29.651   9.529
  678POPC   GL113657   1.944  29.867   9.141
  678POPC   GL213658   2.135  30.194   9.169
  678POPC   C1A13659   1.673  29.987   8.797
  678POPC   D2A13660   1.461  30.109   8.431
  678POPC   C3A13661   1.772  29.947   8.158
  678POPC   C4A13662   1.901  29.825   7.778
  678POPC   C1B13663   2.276  30.114   8.741
  678POPC   C2B13664   2.455  30.236   8.331
  678POPC   C3B13665   2.186  30.224   7.959
  678POPC   C4B13666   2.288  30.079   7.535
  679POPC   NC313667   0.577  32.604   9.535
  679POPC   PO413668   0.045  32.240   9.537
  679POPC   GL113669   0.306  32.322   9.180
  679POPC   GL213670   0.608  32.172   9.145
  679POPC   C1A13671   0.281  32.175   8.741
  679POPC   D2A13672   0.412  32.346   8.350
  679POPC   C3A13673   0.314  32.112   7.986
  679POPC   C4A13674   0.579  31.899   7.722
  679POPC   C1B13675   0.814  32.138   8.757
  679POPC   C2B13676   0.855  32.098   8.329
  679POPC   C3B13677   0.804  32.283   7.921
  679POPC   C4B13678   0.820  32.229   7.404
  680POPC   NC313679  19.803  28.343   9.720
  680POPC   PO413680  20.028  27.681   9.500
  680POPC   GL113681  19.703  27.630   9.133
  680POPC   GL213682  19.966  27.694   8.955
  680POPC   C1A13683  19.527  27.739   8.724
  680POPC   D2A13684  19.809  27.783   8.419
  680POPC   C3A13685  19.676  27.850   8.023
  680POPC   C4A13686  19.662  27.518   7.780
  680POPC   C1B13687  20.112  27.415   8.670
  680POPC   C2B13688  20.025  27.340   8.231
  680POPC   C3B13689  20.092  27.244   7.817
  680POPC   C4B13690  20.320  27.398   7.457
  681POPC   NC313691  37.049  32.093   9.364
  681POPC   PO413692  37.116  32.558   9.822
  681POPC   GL113693  37.064  32.604   9.307
  681POPC   GL213694  36.832  32.503   9.083
  681POPC   C1A13695  37.297  32.450   8.861
  681POPC   D2A13696  37.474  32.324   8.416
  681POPC   C3A13697  37.166  32.250   8.033
  681POPC   C4A13698  36.792  32.378   7.746
  681POPC   C1B13699  36.855  32.235   8.691
  681POPC   C2B13700  36.692  32.237   8.261
  681POPC   C3B13701  36.598  31.938   7.928
  681POPC   C4B13702  36.830  31.880   7.573
  682POPC   NC313703   6.477   2.925   9.490
  682POPC   PO413704   5.765   2.832   9.485
  682POPC   GL113705   6.076   2.805   9.170
  682POPC   GL213706   6.248   3.107   9.090
  682POPC   C1A13707   6.000   2.704   8.755
  682POPC   D2A13708   5.771   2.823   8.401
  682POPC   C3A13709   5.981   2.661   8.039
  682POPC   C4A13710   5.747   2.700   7.669
  682POPC   C1B13711   6.130   3.228   8.705
  682POPC   C2B13712   6.209   3.068   8.274
  682POPC   C3B13713   6.237   3.042   7.799
  682POPC   C4B13714   6.008   3.172   7.427
  683POPC   NC313715  23.524   6.639   9.489
  683POPC   PO413716  24.112   6.301   9.499
  683POPC   GL113717  23.859   6.417   9.140
  683POPC   GL213718  23.916   6.775   9.172
  683POPC   C1A13719  23.756   6.246   8.733
  683POPC   D2A13720  23.665   6.360   8.321
  683POPC   C3A13721  23.966   6.543   8.027
  683POPC   C4A13722  23.780   6.479   7.664
  683POPC   C1B13723  23.984   6.718   8.722
  683POPC   C2B13724  23.770   6.885   8.346
  683POPC   C3B13725  23.483   6.758   8.011
  683POPC   C4B13726  23.399   6.841   7.575
  684POPC   NC313727  28.852   8.799   9.461
  684POPC   PO413728  29.464   8.744   9.132
  684POPC   GL113729  29.198   9.058   9.066
  684POPC   GL213730  29.513   9.253   9.058
  684POPC   C1A13731  29.007   9.025   8.677
  684POPC   D2A13732  29.268   8.794   8.360
  684POPC   C3A13733  29.256   8.817   7.897
  684POPC   C4A13734  29.052   8.866   7.454
  684POPC   C1B13735  29.374   9.388   8.662
  684POPC   C2B13736  29.165   9.285   8.264
  684POPC   C3B13737  29.306   9.340   7.864
  684POPC   C4B13738  29.491   9.097   7.555
  685POPC   NC313739  11.005  36.094   9.316
  685POPC   PO413740  11.474  35.932   9.745
  685POPC   GL113741  11.692  36.212   9.278
  685POPC   GL213742  11.395  36.390   9.179
  685POPC   C1A13743  11.697  36.222   8.789
  685POPC   D2A13744  11.375  36.195   8.432
  685POPC   C3A13745  11.456  36.051   7.999
  685POPC   C4A13746  11.274  36.038   7.560
  685POPC   C1B13747  11.129  36.457   8.812
  685POPC   C2B13748  10.861  36.387   8.454
  685POPC   C3B13749  11.036  36.371   8.037
  685POPC   C4B13750  10.944  36.454   7.631
  686POPC   NC313751  34.184  36.713   9.596
  686POPC   PO413752  33.747  37.222   9.594
  686POPC   GL113753  33.877  36.941   9.251
  686POPC   GL213754  34.252  37.010   9.178
  686POPC   C1A13755  33.862  36.935   8.792
  686POPC   D2A13756  33.599  37.010   8.409
  686POPC   C3A13757  33.603  36.708   8.098
  686POPC   C4A13758  33.640  36.805   7.694
  686POPC   C1B13759  34.309  37.233   8.788
  686POPC   C2B13760  34.278  37.079   8.365
  686POPC   C3B13761  34.067  36.979   7.957
  686POPC   C4B13762  34.127  36.848   7.490
  687POPC   NC313763  38.613  19.731   9.497
  687POPC   PO413764  38.162  20.314   9.534
  687POPC   GL113765  38.379  20.123   9.177
  687POPC   GL213766  38.114  20.084   8.990
  687POPC   C1A13767  38.710  19.971   8.843
  687POPC   D2A13768  38.932  20.001   8.421
  687POPC   C3A13769  38.648  19.950   8.053
  687POPC   C4A13770  38.243  20.103   7.914
  687POPC   C1B13771  38.255  19.779   8.677
  687POPC   C2B13772  38.167  19.767   8.294
  687POPC   C3B13773  38.268  19.589   7.964
  687POPC   C4B13774  38.116  19.727   7.605
  688POPC   NC313775  33.727  39.421   9.371
  688POPC   PO413776  34.040  38.764   9.553
  688POPC   GL113777  33.922  38.979   9.134
  688POPC   GL213778  33.962  39.311   8.937
  688POPC   C1A13779  34.070  38.895   8.681
  688POPC   D2A13780  34.029  39.199   8.320
  688POPC   C3A13781  34.177  39.128   7.873
  688POPC   C4A13782  33.898  39.191   7.519
  688POPC   C1B13783  33.591  39.215   8.710
  688POPC   C2B13784  33.507  39.296   8.266
  688POPC   C3B13785  33.763  39.488   7.949
  688POPC   C4B13786  34.092  39.769   7.845
  689POPC   NC313787  16.913  13.036   9.934
  689POPC   PO413788  16.752  13.534   9.448
  689POPC   GL113789  16.671  13.597   9.036
  689POPC   GL213790  16.420  13.898   9.049
  689POPC   C1A13791  16.852  13.494   8.621
  689POPC   D2A13792  17.057  13.775   8.325
  689POPC   C3A13793  17.082  13.615   7.926
  689POPC   C4A13794  16.870  13.628   7.550
  689POPC   C1B13795  16.317  13.648   8.686
  689POPC   C2B13796  16.501  13.663   8.296
  689POPC   C3B13797  16.513  13.726   7.881
  689POPC   C4B13798  16.348  13.622   7.473
  690POPC   NC313799  16.499   1.373   9.366
  690POPC   PO413800  16.564   0.715   9.349
  690POPC   GL113801  16.759   1.009   9.061
  690POPC   GL213802  17.001   1.236   9.184
  690POPC   C1A13803  16.583   1.229   8.703
  690POPC   D2A13804  16.435   1.015   8.358
  690POPC   C3A13805  16.564   1.191   7.999
  690POPC   C4A13806  16.911   1.101   7.727
  690POPC   C1B13807  17.094   1.272   8.722
  690POPC   C2B13808  17.048   1.219   8.251
  690POPC   C3B13809  16.970   1.560   7.922
  690POPC   C4B13810  16.952   1.678   7.471
  691POPC   NC313811  31.972   8.535   9.577
  691POPC   PO413812  32.314   7.971   9.384
  691POPC   GL113813  32.064   8.137   9.025
  691POPC   GL213814  31.860   8.434   9.052
  691POPC   C1A13815  32.254   8.398   8.701
  691POPC   D2A13816  32.534   8.272   8.392
  691POPC   C3A13817  32.487   8.428   8.040
  691POPC   C4A13818  32.313   8.188   7.735
  691POPC   C1B13819  31.760   8.427   8.581
  691POPC   C2B13820  32.006   8.426   8.192
  691POPC   C3B13821  31.845   8.366   7.754
  691POPC   C4B13822  31.818   8.588   7.336
  692POPC   NC313823   5.301  39.179   9.550
  692POPC   PO413824   4.710  38.975   9.349
  692POPC   GL113825   5.015  39.202   9.094
  692POPC   GL213826   5.355  39.376   9.082
  692POPC   C1A13827   4.963  39.433   8.731
  692POPC   D2A13828   4.771  39.451   8.344
  692POPC   C3A13829   5.014  39.217   8.029
  692POPC   C4A13830   5.009  38.844   7.821
  692POPC   C1B13831   5.481  39.339   8.655
  692POPC   C2B13832   5.541  39.046   8.346
  692POPC   C3B13833   5.484  38.886   7.964
  692POPC   C4B13834   5.542  39.159   7.631
  693POPC   NC313835   6.441  12.916   9.348
  693POPC   PO413836   7.029  12.639   9.546
  693POPC   GL113837   6.809  12.626   9.177
  693POPC   GL213838   6.882  13.003   9.134
  693POPC   C1A13839   6.652  12.722   8.765
  693POPC   D2A13840   6.713  12.582   8.365
  693POPC   C3A13841   6.661  12.838   7.996
  693POPC   C4A13842   6.772  12.843   7.538
  693POPC   C1B13843   6.972  13.134   8.714
  693POPC   C2B13844   7.063  13.016   8.274
  693POPC   C3B13845   6.939  13.240   7.880
  693POPC   C4B13846   7.006  13.281   7.429
  694POPC   NC313847   3.227  20.613   9.476
  694POPC   PO413848   3.844  20.838   9.532
  694POPC   GL113849   3.587  20.810   9.154
  694POPC   GL213850   3.242  20.989   9.113
  694POPC   C1A13851   3.468  20.451   8.855
  694POPC   D2A13852   3.407  20.468   8.386
  694POPC   C3A13853   3.782  20.515   8.105
  694POPC   C4A13854   3.936  20.778   7.761
  694POPC   C1B13855   3.417  20.920   8.694
  694POPC   C2B13856   3.511  21.004   8.289
  694POPC   C3B13857   3.451  20.859   7.902
  694POPC   C4B13858   3.205  20.860   7.554
  695POPC   NC313859  26.458  39.748   9.523
  695POPC   PO413860  27.062  39.942   9.511
  695POPC   GL113861  26.842  39.974   9.135
  695POPC   GL213862  26.471  39.975   9.073
  695POPC   C1A13863  27.022  40.117   8.762
  695POPC   D2A13864  26.851  40.314   8.405
  695POPC   C3A13865  26.975  40.085   8.036
  695POPC   C4A13866  26.836  40.199   7.647
  695POPC   C1B13867  26.507  39.962   8.641
  695POPC   C2B13868  26.443  39.742   8.260
  695POPC   C3B13869  26.557  39.802   7.840
  695POPC   C4B13870  26.699  39.680   7.429
  696POPC   NC313871  37.177  25.801   9.598
  696POPC   PO413872  36.723  26.340   9.502
  696POPC   GL113873  36.984  26.176   9.146
  696POPC   GL213874  37.078  25.836   9.098
  696POPC   C1A13875  37.115  26.210   8.714
  696POPC   D2A13876  37.121  26.024   8.319
  696POPC   C3A13877  37.078  26.253   7.947
  696POPC   C4A13878  37.129  26.184   7.527
  696POPC   C1B13879  37.152  25.660   8.694
  696POPC   C2B13880  37.386  25.588   8.313
  696POPC   C3B13881  37.247  25.704   7.907
  696POPC   C4B13882  36.850  25.793   7.703
  697POPC   NC313883  44.241  12.107   9.565
  697POPC   PO413884  43.738  11.801   9.295
  697POPC   GL113885  43.935  12.139   9.108
  697POPC   GL213886  44.229  11.929   9.056
  697POPC   C1A13887  43.883  12.385   8.702
  697POPC   D2A13888  44.066  12.399   8.243
  697POPC   C3A13889  43.890  12.074   7.939
  697POPC   C4A13890  43.662  11.844   7.577
  697POPC   C1B13891  44.333  11.734   8.644
  697POPC   C2B13892  44.166  11.709   8.191
  697POPC   C3B13893  44.176  11.713   7.717
  697POPC   C4B13894  44.043  11.732   7.271
  698POPC   NC313895   6.437  34.498   9.609
  698POPC   PO413896   6.439  35.151   9.492
  698POPC   GL113897   6.386  34.778   9.170
  698POPC   GL213898   6.349  34.372   9.136
  698POPC   C1A13899   6.497  34.692   8.746
  698POPC   D2A13900   6.695  34.802   8.338
  698POPC   C3A13901   6.463  34.828   7.948
  698POPC   C4A13902   6.381  34.591   7.585
  698POPC   C1B13903   6.678  34.201   8.827
  698POPC   C2B13904   6.905  34.260   8.407
  698POPC   C3B13905   6.743  34.386   7.994
  698POPC   C4B13906   6.697  34.155   7.619
  699POPC   NC313907  30.227  39.816   9.220
  699POPC   PO413908  29.865  40.254   9.608
  699POPC   GL113909  29.873  40.336   9.183
  699POPC   GL213910  30.187  40.461   9.115
  699POPC   C1A13911  29.605  40.195   8.852
  699POPC   D2A13912  29.545  40.163   8.410
  699POPC   C3A13913  29.661  39.757   8.230
  699POPC   C4A13914  29.836  39.647   7.853
  699POPC   C1B13915  30.337  40.225   8.738
  699POPC   C2B13916  30.099  40.026   8.427
  699POPC   C3B13917  29.909  40.169   8.055
  699POPC   C4B13918  29.983  40.098   7.628
  700POPC   NC313919  31.870  35.839   9.455
  700POPC   PO413920  31.511  36.336   9.730
  700POPC   GL113921  31.584  36.242   9.241
  700POPC   GL213922  31.559  35.929   9.089
  700POPC   C1A13923  31.425  36.259   8.765
  700POPC   D2A13924  31.277  36.226   8.359
  700POPC   C3A13925  31.499  36.456   8.074
  700POPC   C4A13926  31.356  36.493   7.632
  700POPC   C1B13927  31.705  35.726   8.723
  700POPC   C2B13928  31.484  35.593   8.362
  700POPC   C3B13929  31.339  35.815   8.031
  700POPC   C4B13930  31.588  36.062   7.777
  701POPC   NC313931  26.592   4.804   9.652
  701POPC   PO413932  27.112   5.168   9.555
  701POPC   GL113933  26.827   5.041   9.263
  701POPC   GL213934  26.990   4.773   9.177
  701POPC   C1A13935  26.647   5.112   8.861
  701POPC   D2A13936  26.913   5.185   8.498
  701POPC   C3A13937  26.675   5.089   8.118
  701POPC   C4A13938  26.832   5.301   7.775
  701POPC   C1B13939  27.201   4.712   8.805
  701POPC   C2B13940  27.349   4.904   8.434
  701POPC   C3B13941  27.182   5.012   8.052
  701POPC   C4B13942  27.117   4.796   7.682
  702POPC   NC313943  25.925   2.387   9.541
  702POPC   PO413944  26.289   2.977   9.525
  702POPC   GL113945  26.092   2.739   9.181
  702POPC   GL213946  26.007   2.414   9.042
  702POPC   C1A13947  26.169   2.851   8.767
  702POPC   D2A13948  26.012   2.985   8.370
  702POPC   C3A13949  26.017   2.701   8.064
  702POPC   C4A13950  25.702   2.628   7.833
  702POPC   C1B13951  26.420   2.397   8.818
  702POPC   C2B13952  26.386   2.557   8.395
  702POPC   C3B13953  26.491   2.444   8.005
  702POPC   C4B13954  26.344   2.655   7.653
  703POPC   NC313955  37.494  20.900   9.428
  703POPC   PO413956  36.822  20.771   9.471
  703POPC   GL113957  37.112  20.693   9.120
  703POPC   GL213958  37.359  20.933   8.961
  703POPC   C1A13959  37.010  20.645   8.698
  703POPC   D2A13960  37.098  20.732   8.281
  703POPC   C3A13961  36.824  20.536   7.966
  703POPC   C4A13962  36.774  20.642   7.520
  703POPC   C1B13963  37.488  20.529   8.778
  703POPC   C2B13964  37.343  20.279   8.446
  703POPC   C3B13965  37.369  20.382   8.029
  703POPC   C4B13966  37.196  20.358   7.644
  704POPC   NC313967  28.193  42.812   9.433
  704POPC   PO413968  28.719  43.240   9.448
  704POPC   GL113969  28.458  43.172   9.092
  704POPC   GL213970  28.582  42.855   9.080
  704POPC   C1A13971  28.438  43.299   8.647
  704POPC   D2A13972  28.740  43.445   8.335
  704POPC   C3A13973  28.546  43.402   7.966
  704POPC   C4A13974  28.312  43.383   7.603
  704POPC   C1B13975  28.458  42.762   8.721
  704POPC   C2B13976  28.178  42.915   8.414
  704POPC   C3B13977  28.218  42.995   7.988
  704POPC   C4B13978  28.524  42.748   7.811
  705POPC   NC313979  14.573  42.252   9.409
  705POPC   PO413980  14.168  42.662   9.724
  705POPC   GL113981  14.333  42.686   9.229
  705POPC   GL213982  14.230  42.377   9.050
  705POPC   C1A13983  14.568  42.644   8.799
  705POPC   D2A13984  14.376  42.523   8.424
  705POPC   C3A13985  14.621  42.435   8.068
  705POPC   C4A13986  14.431  42.447   7.672
  705POPC   C1B13987  14.302  42.086   8.718
  705POPC   C2B13988  14.064  41.954   8.369
  705POPC   C3B13989  14.100  42.103   7.943
  705POPC   C4B13990  14.099  42.051   7.486
  706POPC   NC313991  10.391  37.812   9.511
  706POPC   PO413992  10.961  37.342   9.495
  706POPC   GL113993  10.663  37.412   9.192
  706POPC   GL213994  10.754  37.748   9.167
  706POPC   C1A13995  10.642  37.412   8.750
  706POPC   D2A13996  10.847  37.292   8.394
  706POPC   C3A13997  10.617  37.339   8.067
  706POPC   C4A13998  10.731  37.566   7.730
  706POPC   C1B13999  10.529  37.923   8.863
  706POPC   C2B14000  10.797  37.874   8.556
  706POPC   C3B14001  10.807  37.861   8.146
  706POPC   C4B14002  10.527  38.038   7.845
  707POPC   NC314003  37.134  44.150   9.850
  707POPC   PO414004  36.657  43.889   9.423
  707POPC   GL114005  36.886  43.703   9.111
  707POPC   GL214006  37.048  43.461   9.260
  707POPC   C1A14007  36.800  43.838   8.698
  707POPC   D2A14008  36.666  43.820   8.271
  707POPC   C3A14009  36.973  44.056   7.997
  707POPC   C4A14010  37.074  43.931   7.578
  707POPC   C1B14011  37.233  43.404   8.868
  707POPC   C2B14012  37.132  43.529   8.457
  707POPC   C3B14013  37.041  43.551   8.027
  707POPC   C4B14014  37.181  43.357   7.689
  708POPC   NC314015   5.899   2.352   9.424
  708POPC   PO414016   6.213   1.716   9.516
  708POPC   GL114017   6.046   1.913   9.151
  708POPC   GL214018   5.791   1.723   8.943
  708POPC   C1A14019   6.076   2.120   8.761
  708POPC   D2A14020   5.930   1.807   8.422
  708POPC   C3A14021   5.926   1.980   8.001
  708POPC   C4A14022   5.914   1.756   7.599
  708POPC   C1B14023   5.584   2.076   8.719
  708POPC   C2B14024   5.761   2.316   8.398
  708POPC   C3B14025   5.538   2.406   8.050
  708POPC   C4B14026   5.512   2.148   7.723
  709POPC   NC314027  10.348   8.808   9.566
  709POPC   PO414028  10.578   9.457   9.350
  709POPC   GL114029  10.479   9.026   9.123
  709POPC   GL214030  10.581   8.649   9.132
  709POPC   C1A14031  10.289   8.868   8.721
  709POPC   D2A14032  10.507   9.109   8.358
  709POPC   C3A14033  10.413   9.058   7.907
  709POPC   C4A14034  10.529   9.161   7.455
  709POPC   C1B14035  10.784   8.826   8.737
  709POPC   C2B14036  11.019   8.914   8.341
  709POPC   C3B14037  10.940   9.019   7.894
  709POPC   C4B14038  10.783   8.750   7.576
  710POPC   NC314039  17.962   3.345   9.635
  710POPC   PO414040  18.534   3.671   9.626
  710POPC   GL114041  18.432   3.687   9.222
  710POPC   GL214042  18.233   3.396   9.195
  710POPC   C1A14043  18.305   3.725   8.808
  710POPC   D2A14044  18.212   3.746   8.390
  710POPC   C3A14045  18.453   3.716   7.985
  710POPC   C4A14046  18.219   3.646   7.614
  710POPC   C1B14047  18.127   3.129   8.854
  710POPC   C2B14048  18.232   3.054   8.441
  710POPC   C3B14049  18.143   3.318   8.086
  710POPC   C4B14050  18.179   3.157   7.688
  711POPC   NC314051  23.873  32.528   9.251
  711POPC   PO414052  23.912  31.934   9.429
  711POPC   GL114053  23.658  32.051   9.058
  711POPC   GL214054  23.540  32.371   8.913
  711POPC   C1A14055  23.752  31.975   8.631
  711POPC   D2A14056  23.905  32.053   8.185
  711POPC   C3A14057  23.772  31.904   7.747
  711POPC   C4A14058  23.879  31.777   7.296
  711POPC   C1B14059  23.894  32.464   8.621
  711POPC   C2B14060  23.840  32.576   8.218
  711POPC   C3B14061  23.835  32.413   7.803
  711POPC   C4B14062  24.001  32.596   7.435
  712POPC   NC314063  38.352  34.913   9.569
  712POPC   PO414064  38.283  34.201   9.525
  712POPC   GL114065  38.488  34.392   9.164
  712POPC   GL214066  38.662  34.664   9.245
  712POPC   C1A14067  38.383  34.553   8.764
  712POPC   D2A14068  38.580  34.430   8.407
  712POPC   C3A14069  38.355  34.561   8.073
  712POPC   C4A14070  38.298  34.452   7.672
  712POPC   C1B14071  38.804  34.852   8.849
  712POPC   C2B14072  38.702  34.932   8.421
  712POPC   C3B14073  38.892  34.688   8.081
  712POPC   C4B14074  38.726  34.727   7.693
  713POPC   NC314075  16.845   6.258   9.388
  713POPC   PO414076  16.620   5.665   9.581
  713POPC   GL114077  16.642   5.835   9.181
  713POPC   GL214078  17.009   5.825   9.104
  713POPC   C1A14079  16.619   6.076   8.806
  713POPC   D2A14080  16.444   5.916   8.462
  713POPC   C3A14081  16.583   5.998   8.069
  713POPC   C4A14082  16.915   5.865   7.792
  713POPC   C1B14083  16.853   5.626   8.721
  713POPC   C2B14084  16.815   5.565   8.295
  713POPC   C3B14085  16.512   5.484   8.054
  713POPC   C4B14086  16.496   5.576   7.678
  714POPC   NC314087  34.081  40.016   9.444
  714POPC   PO414088  33.420  39.785   9.394
  714POPC   GL114089  33.688  39.937   9.116
  714POPC   GL214090  33.658  39.701   8.932
  714POPC   C1A14091  33.886  40.159   8.769
  714POPC   D2A14092  34.053  40.077   8.336
  714POPC   C3A14093  33.774  40.161   8.004
  714POPC   C4A14094  33.745  40.115   7.562
  714POPC   C1B14095  33.763  39.679   8.521
  714POPC   C2B14096  33.440  39.809   8.246
  714POPC   C3B14097  33.396  39.839   7.808
  714POPC   C4B14098  33.386  39.774   7.391
  715POPC   NC314099  23.533  17.243   9.595
  715POPC   PO414100  23.039  17.499   9.347
  715POPC   GL114101  23.469  17.503   9.122
  715POPC   GL214102  23.679  17.196   9.123
  715POPC   C1A14103  23.703  17.495   8.706
  715POPC   D2A14104  23.539  17.479   8.279
  715POPC   C3A14105  23.776  17.648   7.905
  715POPC   C4A14106  23.690  17.725   7.451
  715POPC   C1B14107  23.582  16.983   8.761
  715POPC   C2B14108  23.833  17.061   8.398
  715POPC   C3B14109  23.798  17.138   7.963
  715POPC   C4B14110  23.956  17.300   7.566
  716POPC   NC314111  13.480  43.415   9.439
  716POPC   PO414112  13.798  44.026   9.531
  716POPC   GL114113  13.608  43.878   9.190
  716POPC   GL214114  13.283  44.007   9.263
  716POPC   C1A14115  13.752  43.644   8.827
  716POPC   D2A14116  13.904  43.771   8.429
  716POPC   C3A14117  13.650  43.574   8.137
  716POPC   C4A14118  13.496  43.623   7.755
  716POPC   C1B14119  13.228  43.772   8.863
  716POPC   C2B14120  13.422  43.906   8.472
  716POPC   C3B14121  13.549  44.096   8.058
  716POPC   C4B14122  13.330  44.083   7.659
  717POPC   NC314123  27.201  15.864   9.657
  717POPC   PO414124  26.622  15.852   9.915
  717POPC   GL114125  26.724  15.785   9.366
  717POPC   GL214126  27.033  15.696   9.214
  717POPC   C1A14127  26.810  15.972   8.864
  717POPC   D2A14128  26.611  15.842   8.436
  717POPC   C3A14129  26.713  15.953   7.981
  717POPC   C4A14130  26.632  16.001   7.513
  717POPC   C1B14131  27.197  15.654   8.788
  717POPC   C2B14132  27.136  15.834   8.386
  717POPC   C3B14133  27.092  15.583   8.001
  717POPC   C4B14134  26.859  15.565   7.649
  718POPC   NC314135  26.360  12.979   9.406
  718POPC   PO414136  26.091  12.283   9.443
  718POPC   GL114137  26.040  12.581   9.127
  718POPC   GL214138  26.351  12.669   8.982
  718POPC   C1A14139  25.950  12.559   8.686
  718POPC   D2A14140  26.053  12.770   8.310
  718POPC   C3A14141  25.997  12.531   7.908
  718POPC   C4A14142  25.870  12.541   7.456
  718POPC   C1B14143  26.118  13.049   8.792
  718POPC   C2B14144  26.204  13.262   8.403
  718POPC   C3B14145  26.349  13.033   7.998
  718POPC   C4B14146  26.210  12.889   7.596
  719POPC   NC314147  21.991   6.224   9.514
  719POPC   PO414148  22.364   5.599   9.567
  719POPC   GL114149  22.244   5.534   9.139
  719POPC   GL214150  21.955   5.762   9.201
  719POPC   C1A14151  22.373   5.582   8.688
  719POPC   D2A14152  22.388   5.572   8.226
  719POPC   C3A14153  22.202   5.855   7.936
  719POPC   C4A14154  22.180   5.736   7.510
  719POPC   C1B14155  21.853   5.595   8.780
  719POPC   C2B14156  21.898   5.694   8.331
  719POPC   C3B14157  21.717   5.710   7.925
  719POPC   C4B14158  21.313   5.852   7.757
  720POPC   NC314159  38.024   2.989   9.872
  720POPC   PO414160  38.588   2.942   9.560
  720POPC   GL114161  38.382   2.849   9.174
  720POPC   GL214162  38.173   2.588   9.263
  720POPC   C1A14163  38.396   2.983   8.723
  720POPC   D2A14164  38.719   2.973   8.372
  720POPC   C3A14165  38.603   2.709   8.020
  720POPC   C4A14166  38.516   2.502   7.632
  720POPC   C1B14167  38.145   2.537   8.825
  720POPC   C2B14168  38.253   2.585   8.376
  720POPC   C3B14169  38.098   2.546   7.950
  720POPC   C4B14170  37.882   2.405   7.595
  721POPC   NC314171  15.792  14.459   9.572
  721POPC   PO414172  15.835  13.795   9.415
  721POPC   GL114173  15.887  14.209   9.127
  721POPC   GL214174  15.879  14.622   9.099
  721POPC   C1A14175  15.965  14.326   8.687
  721POPC   D2A14176  15.803  14.569   8.339
  721POPC   C3A14177  15.860  14.279   8.006
  721POPC   C4A14178  16.282  14.183   7.886
  721POPC   C1B14179  16.243  14.744   8.815
  721POPC   C2B14180  16.407  14.674   8.372
  721POPC   C3B14181  16.173  14.706   7.957
  721POPC   C4B14182  15.788  14.671   7.674
  722POPC   NC314183  41.244  28.340   9.546
  722POPC   PO414184  41.896  28.532   9.296
  722POPC   GL114185  41.506  28.370   9.065
  722POPC   GL214186  41.129  28.509   9.058
  722POPC   C1A14187  41.509  28.324   8.670
  722POPC   D2A14188  41.635  28.582   8.356
  722POPC   C3A14189  41.707  28.427   7.957
  722POPC   C4A14190  41.508  28.644   7.630
  722POPC   C1B14191  41.107  28.617   8.583
  722POPC   C2B14192  41.191  28.347   8.242
  722POPC   C3B14193  41.194  28.319   7.825
  722POPC   C4B14194  41.383  28.159   7.445
  723POPC   NC314195  30.014  10.328   9.485
  723POPC   PO414196  29.410  10.738   9.579
  723POPC   GL114197  29.640  10.568   9.210
  723POPC   GL214198  29.934  10.727   9.112
  723POPC   C1A14199  29.659  10.479   8.738
  723POPC   D2A14200  29.753  10.491   8.292
  723POPC   C3A14201  29.938  10.833   8.080
  723POPC   C4A14202  30.027  10.755   7.645
  723POPC   C1B14203  30.174  10.546   8.759
  723POPC   C2B14204  30.292  10.404   8.321
  723POPC   C3B14205  30.174  10.301   7.881
  723POPC   C4B14206  30.117  10.302   7.429
  724POPC   NC314207   9.964  33.235   9.568
  724POPC   PO414208   9.730  32.696   9.280
  724POPC   GL114209   9.615  32.895   8.918
  724POPC   GL214210   9.559  33.205   9.035
  724POPC   C1A14211   9.522  33.073   8.525
  724POPC   D2A14212   9.365  33.061   8.135
  724POPC   C3A14213   9.709  32.978   7.866
  724POPC   C4A14214   9.984  32.599   7.770
  724POPC   C1B14215   9.551  33.554   8.714
  724POPC   C2B14216   9.660  33.518   8.259
  724POPC   C3B14217   9.818  33.492   7.820
  724POPC   C4B14218   9.756  33.260   7.439
  725POPC   NC314219  36.378  33.528   9.512
  725POPC   PO414220  36.370  34.134   9.145
  725POPC   GL114221  36.179  33.688   9.089
  725POPC   GL214222  35.809  33.624   9.138
  725POPC   C1A14223  36.224  33.462   8.715
  725POPC   D2A14224  36.353  33.753   8.381
  725POPC   C3A14225  36.443  33.613   7.960
  725POPC   C4A14226  36.410  33.862   7.585
  725POPC   C1B14227  35.853  33.837   8.737
  725POPC   C2B14228  35.874  33.611   8.360
  725POPC   C3B14229  35.941  33.783   7.979
  725POPC   C4B14230  35.963  33.556   7.631
  726POPC   NC314231   9.224  10.160   9.305
  726POPC   PO414232   9.723   9.926   9.572
  726POPC   GL114233   9.786   9.848   9.169
  726POPC   GL214234   9.842  10.144   9.079
  726POPC   C1A14235   9.875   9.526   8.872
  726POPC   D2A14236   9.738   9.475   8.463
  726POPC   C3A14237   9.975   9.519   8.109
  726POPC   C4A14238   9.817   9.579   7.688
  726POPC   C1B14239   9.868   9.998   8.647
  726POPC   C2B14240   9.756   9.964   8.224
  726POPC   C3B14241   9.927  10.054   7.839
  726POPC   C4B14242  10.103   9.928   7.433
  727POPC   NC314243   3.084  38.602   9.468
  727POPC   PO414244   3.655  38.173   9.474
  727POPC   GL114245   3.571  38.589   9.195
  727POPC   GL214246   3.267  38.766   9.026
  727POPC   C1A14247   3.670  38.684   8.732
  727POPC   D2A14248   3.714  38.323   8.422
  727POPC   C3A14249   3.653  38.335   7.975
  727POPC   C4A14250   3.897  38.142   7.646
  727POPC   C1B14251   3.246  38.381   8.718
  727POPC   C2B14252   3.216  38.190   8.270
  727POPC   C3B14253   3.146  38.370   7.829
  727POPC   C4B14254   3.095  38.159   7.415
  728POPC   NC314255  13.505  16.354   9.810
  728POPC   PO414256  14.092  16.225   9.683
  728POPC   GL114257  13.920  16.254   9.251
  728POPC   GL214258  13.554  16.259   9.250
  728POPC   C1A14259  13.908  16.090   8.791
  728POPC   D2A14260  14.027  15.900   8.372
  728POPC   C3A14261  13.809  15.947   7.946
  728POPC   C4A14262  13.943  15.734   7.553
  728POPC   C1B14263  13.404  16.058   8.825
  728POPC   C2B14264  13.474  15.957   8.346
  728POPC   C3B14265  13.298  15.940   7.886
  728POPC   C4B14266  13.094  16.065   7.474
  729POPC   NC314267   1.117   7.949   9.419
  729POPC   PO414268   1.714   7.697   9.230
  729POPC   GL114269   1.438   7.943   9.015
  729POPC   GL214270   1.217   8.272   9.002
  729POPC   C1A14271   1.225   7.859   8.677
  729POPC   D2A14272   1.126   8.204   8.441
  729POPC   C3A14273   1.169   7.989   8.136
  729POPC   C4A14274   1.103   7.991   7.756
  729POPC   C1B14275   1.413   8.550   8.692
  729POPC   C2B14276   1.468   8.701   8.260
  729POPC   C3B14277   1.402   8.406   7.921
  729POPC   C4B14278   1.600   8.020   7.862
  730POPC   NC314279  14.207   3.544   9.808
  730POPC   PO414280  14.273   3.320   9.256
  730POPC   GL114281  14.361   3.333   8.861
  730POPC   GL214282  14.391   3.727   8.904
  730POPC   C1A14283  14.357   3.485   8.454
  730POPC   D2A14284  14.366   3.868   8.334
  730POPC   C3A14285  14.448   3.776   7.930
  730POPC   C4A14286  14.337   3.361   7.765
  730POPC   C1B14287  14.761   3.635   8.753
  730POPC   C2B14288  14.795   3.268   8.522
  730POPC   C3B14289  14.753   3.379   8.105
  730POPC   C4B14290  14.830   3.456   7.673
  731POPC   NC314291  31.778  30.104   9.485
  731POPC   PO414292  31.221  29.759   9.630
  731POPC   GL114293  31.326  30.047   9.252
  731POPC   GL214294  31.531  29.773   9.152
  731POPC   C1A14295  31.579  30.170   8.859
  731POPC   D2A14296  31.568  29.935   8.488
  731POPC   C3A14297  31.403  30.141   8.162
  731POPC   C4A14298  31.484  30.045   7.748
  731POPC   C1B14299  31.775  29.597   8.809
  731POPC   C2B14300  31.736  29.442   8.422
  731POPC   C3B14301  31.703  29.687   8.054
  731POPC   C4B14302  31.681  29.588   7.621
  732POPC   NC314303  43.138  35.412   9.502
  732POPC   PO414304  43.551  34.915   9.343
  732POPC   GL114305  43.205  35.119   9.064
  732POPC   GL214306  43.003  35.442   9.034
  732POPC   C1A14307  42.952  35.083   8.680
  732POPC   D2A14308  42.861  35.184   8.286
  732POPC   C3A14309  43.064  34.920   8.041
  732POPC   C4A14310  43.164  35.023   7.650
  732POPC   C1B14311  43.195  35.612   8.707
  732POPC   C2B14312  43.092  35.657   8.287
  732POPC   C3B14313  43.275  35.457   7.976
  732POPC   C4B14314  43.342  35.507   7.600
  733POPC   NC314315  23.644   5.290   9.659
  733POPC   PO414316  24.035   4.793   9.582
  733POPC   GL114317  23.973   5.067   9.229
  733POPC   GL214318  23.643   5.112   9.183
  733POPC   C1A14319  23.921   4.925   8.775
  733POPC   D2A14320  24.121   4.860   8.359
  733POPC   C3A14321  24.010   5.123   8.040
  733POPC   C4A14322  23.878   5.011   7.685
  733POPC   C1B14323  23.679   5.364   8.813
  733POPC   C2B14324  23.669   5.297   8.387
  733POPC   C3B14325  23.604   5.424   7.962
  733POPC   C4B14326  23.428   5.239   7.605
  734POPC   NC314327  35.594   1.153   9.329
  734POPC   PO414328  36.153   1.037   9.529
  734POPC   GL114329  36.142   1.100   9.112
  734POPC   GL214330  35.904   1.357   8.986
  734POPC   C1A14331  36.297   1.196   8.722
  734POPC   D2A14332  36.142   1.148   8.338
  734POPC   C3A14333  36.500   1.107   8.111
  734POPC   C4A14334  36.398   1.120   7.715
  734POPC   C1B14335  35.863   0.923   8.743
  734POPC   C2B14336  35.849   0.726   8.345
  734POPC   C3B14337  36.029   0.817   7.904
  734POPC   C4B14338  36.060   0.911   7.422
  735POPC   NC314339  33.415  29.783   9.505
  735POPC   PO414340  32.814  30.061   9.359
  735POPC   GL114341  33.121  29.883   9.116
  735POPC   GL214342  33.094  29.504   9.197
  735POPC   C1A14343  33.182  29.996   8.724
  735POPC   D2A14344  32.937  29.911   8.383
  735POPC   C3A14345  33.156  29.886   8.012
  735POPC   C4A14346  33.057  29.817   7.639
  735POPC   C1B14347  32.854  29.591   8.802
  735POPC   C2B14348  32.700  29.455   8.426
  735POPC   C3B14349  32.726  29.620   8.018
  735POPC   C4B14350  32.596  29.623   7.589
  736POPC   NC314351  35.043   1.480   9.427
  736POPC   PO414352  35.347   0.872   9.575
  736POPC   GL114353  35.130   1.029   9.195
  736POPC   GL214354  35.386   0.964   8.926
  736POPC   C1A14355  35.024   1.307   8.821
  736POPC   D2A14356  35.095   1.574   8.483
  736POPC   C3A14357  35.187   1.355   8.080
  736POPC   C4A14358  35.365   1.324   7.649
  736POPC   C1B14359  35.519   1.312   8.652
  736POPC   C2B14360  35.677   1.351   8.241
  736POPC   C3B14361  35.561   0.992   8.006
  736POPC   C4B14362  35.592   0.864   7.599
  737POPC   NC314363  25.669  31.703   9.620
  737POPC   PO414364  26.243  31.432   9.516
  737POPC   GL114365  26.035  31.336   9.095
  737POPC   GL214366  25.707  31.495   9.091
  737POPC   C1A14367  26.048  31.434   8.630
  737POPC   D2A14368  25.888  31.633   8.233
  737POPC   C3A14369  25.847  31.386   7.862
  737POPC   C4A14370  26.222  31.068   7.819
  737POPC   C1B14371  25.625  31.708   8.686
  737POPC   C2B14372  25.401  31.802   8.307
  737POPC   C3B14373  25.538  31.854   7.905
  737POPC   C4B14374  25.975  31.892   7.766
  738POPC   NC314375   3.330  33.168   9.459
  738POPC   PO414376   3.733  32.607   9.394
  738POPC   GL114377   3.626  32.915   9.116
  738POPC   GL214378   3.317  32.853   8.993
  738POPC   C1A14379   3.690  33.247   8.829
  738POPC   D2A14380   3.682  33.545   8.510
  738POPC   C3A14381   3.737  33.336   8.102
  738POPC   C4A14382   3.535  33.263   7.691
  738POPC   C1B14383   3.301  32.982   8.605
  738POPC   C2B14384   3.620  32.853   8.431
  738POPC   C3B14385   3.638  32.628   8.101
  738POPC   C4B14386   3.523  32.746   7.705
  739POPC   NC314387  41.616   1.777   9.722
  739POPC   PO414388  41.216   2.109   9.344
  739POPC   GL114389  41.544   1.938   9.068
  739POPC   GL214390  41.777   1.700   9.209
  739POPC   C1A14391  41.453   1.859   8.595
  739POPC   D2A14392  41.142   2.076   8.319
  739POPC   C3A14393  41.265   2.198   7.907
  739POPC   C4A14394  41.355   2.263   7.469
  739POPC   C1B14395  41.910   1.681   8.773
  739POPC   C2B14396  41.839   1.593   8.312
  739POPC   C3B14397  41.651   1.879   7.991
  739POPC   C4B14398  41.800   2.027   7.584
  740POPC   NC314399  19.059  41.330   9.430
  740POPC   PO414400  19.364  41.852   9.386
  740POPC   GL114401  19.177  41.629   9.034
  740POPC   GL214402  18.802  41.663   8.999
  740POPC   C1A14403  19.296  41.516   8.622
  740POPC   D2A14404  19.322  41.807   8.274
  740POPC   C3A14405  18.960  41.772   8.027
  740POPC   C4A14406  19.100  41.582   7.636
  740POPC   C1B14407  18.871  41.260   8.784
  740POPC   C2B14408  18.880  41.079   8.378
  740POPC   C3B14409  18.984  41.200   7.947
  740POPC   C4B14410  18.777  41.083   7.553
  741POPC   NC314411  23.901  22.965   9.616
  741POPC   PO414412  23.541  23.411   9.441
  741POPC   GL114413  23.844  23.279   9.152
  741POPC   GL214414  23.835  22.926   9.110
  741POPC   C1A14415  23.764  23.241   8.695
  741POPC   D2A14416  23.452  23.406   8.380
  741POPC   C3A14417  23.530  23.246   7.941
  741POPC   C4A14418  23.510  23.071   7.513
  741POPC   C1B14419  23.712  22.731   8.729
  741POPC   C2B14420  23.655  22.898   8.303
  741POPC   C3B14421  23.832  22.841   7.872
  741POPC   C4B14422  23.748  22.608   7.473
  742POPC   NC314423  17.124  13.147   9.463
  742POPC   PO414424  16.564  12.818   9.704
  742POPC   GL114425  16.709  12.852   9.286
  742POPC   GL214426  16.720  12.514   9.176
  742POPC   C1A14427  16.735  13.060   8.863
  742POPC   D2A14428  16.536  13.138   8.431
  742POPC   C3A14429  16.749  13.259   8.053
  742POPC   C4A14430  16.991  13.145   7.649
  742POPC   C1B14431  16.858  12.572   8.759
  742POPC   C2B14432  16.953  12.846   8.399
  742POPC   C3B14433  16.869  12.763   7.965
  742POPC   C4B14434  16.553  12.636   7.603
  743POPC   NC314435  40.217  32.517   9.222
  743POPC   PO414436  40.767  32.217   9.506
  743POPC   GL114437  40.727  32.246   9.136
  743POPC   GL214438  40.764  32.615   9.144
  743POPC   C1A14439  40.582  32.017   8.792
  743POPC   D2A14440  40.505  31.926   8.384
  743POPC   C3A14441  40.444  32.267   8.147
  743POPC   C4A14442  40.579  32.181   7.752
  743POPC   C1B14443  40.815  32.489   8.706
  743POPC   C2B14444  40.917  32.283   8.354
  743POPC   C3B14445  41.023  32.356   7.906
  743POPC   C4B14446  40.995  32.513   7.468
  744POPC   NC314447  18.088  22.666   9.732
  744POPC   PO414448  17.866  23.064   9.169
  744POPC   GL114449  18.285  22.966   9.007
  744POPC   GL214450  18.579  23.164   9.120
  744POPC   C1A14451  18.289  23.004   8.552
  744POPC   D2A14452  18.043  23.174   8.270
  744POPC   C3A14453  17.991  22.962   7.919
  744POPC   C4A14454  18.138  22.895   7.543
  744POPC   C1B14455  18.764  23.037   8.696
  744POPC   C2B14456  18.708  22.907   8.262
  744POPC   C3B14457  18.480  23.154   7.967
  744POPC   C4B14458  18.188  23.398   7.730
  745POPC   NC314459  40.489  37.611   9.543
  745POPC   PO414460  40.674  38.186   9.442
  745POPC   GL114461  40.751  37.843   9.132
  745POPC   GL214462  40.528  37.554   9.052
  745POPC   C1A14463  41.059  37.779   8.811
  745POPC   D2A14464  40.966  37.853   8.406
  745POPC   C3A14465  41.040  37.658   8.019
  745POPC   C4A14466  40.870  37.860   7.674
  745POPC   C1B14467  40.693  37.416   8.665
  745POPC   C2B14468  40.630  37.476   8.254
  745POPC   C3B14469  40.681  37.306   7.863
  745POPC   C4B14470  40.620  37.465   7.460
  746POPC   NC314471  14.235  36.968   9.627
  746POPC   PO414472  14.812  37.007   9.399
  746POPC   GL114473  14.441  36.993   9.103
  746POPC   GL214474  14.086  37.010   9.138
  746POPC   C1A14475  14.370  36.816   8.665
  746POPC   D2A14476  14.434  36.613   8.253
  746POPC   C3A14477  14.309  36.799   7.874
  746POPC   C4A14478  14.194  37.100   7.618
  746POPC   C1B14479  13.873  36.803   8.754
  746POPC   C2B14480  13.916  36.732   8.280
  746POPC   C3B14481  13.851  36.601   7.841
  746POPC   C4B14482  14.135  36.478   7.511
  747POPC   NC314483  16.634  40.946   9.564
  747POPC   PO414484  16.853  40.383   9.514
  747POPC   GL114485  16.552  40.539   9.153
  747POPC   GL214486  16.481  40.925   9.084
  747POPC   C1A14487  16.480  40.616   8.683
  747POPC   D2A14488  16.341  40.820   8.292
  747POPC   C3A14489  16.445  40.533   7.956
  747POPC   C4A14490  16.896  40.534   7.859
  747POPC   C1B14491  16.877  40.866   8.852
  747POPC   C2B14492  16.863  40.816   8.382
  747POPC   C3B14493  17.111  40.989   8.053
  747POPC   C4B14494  17.113  41.122   7.624
  748POPC   NC314495   5.598  20.214   9.475
  748POPC   PO414496   6.252  19.914   9.502
  748POPC   GL114497   5.868  19.825   9.223
  748POPC   GL214498   5.890  20.112   9.091
  748POPC   C1A14499   5.680  19.820   8.759
  748POPC   D2A14500   5.855  19.732   8.335
  748POPC   C3A14501   5.576  19.719   7.966
  748POPC   C4A14502   5.559  19.968   7.610
  748POPC   C1B14503   6.182  19.868   8.806
  748POPC   C2B14504   6.351  19.627   8.480
  748POPC   C3B14505   6.336  19.729   8.068
  748POPC   C4B14506   6.033  19.893   7.802
  749POPC   NC314507  14.894  22.719   9.434
  749POPC   PO414508  15.574  22.849   9.601
  749POPC   GL114509  15.358  22.696   9.214
  749POPC   GL214510  15.108  22.976   9.050
  749POPC   C1A14511  15.293  22.593   8.761
  749POPC   D2A14512  15.156  22.947   8.501
  749POPC   C3A14513  15.112  22.989   8.065
  749POPC   C4A14514  15.331  22.868   7.676
  749POPC   C1B14515  14.789  23.179   8.748
  749POPC   C2B14516  14.760  23.349   8.349
  749POPC   C3B14517  14.650  23.208   7.931
  749POPC   C4B14518  14.962  23.231   7.625
  750POPC   NC314519  31.178  12.512   9.492
  750POPC   PO414520  31.794  12.903   9.540
  750POPC   GL114521  31.472  12.931   9.264
  750POPC   GL214522  31.572  12.590   9.168
  750POPC   C1A14523  31.175  12.922   8.925
  750POPC   D2A14524  31.260  12.865   8.492
  750POPC   C3A14525  31.286  13.054   8.080
  750POPC   C4A14526  31.093  12.846   7.747
  750POPC   C1B14527  31.678  12.752   8.798
  750POPC   C2B14528  31.713  12.650   8.398
  750POPC   C3B14529  31.705  12.781   7.989
  750POPC   C4B14530  31.877  12.870   7.636
  751POPC   NC314531  31.858  44.748   9.552
  751POPC   PO414532  31.241  44.540   9.552
  751POPC   GL114533  31.351  44.773   9.153
  751POPC   GL214534  31.734  44.762   9.060
  751POPC   C1A14535  31.395  44.723   8.686
  751POPC   D2A14536  31.730  44.785   8.377
  751POPC   C3A14537  31.559  44.810   7.957
  751POPC   C4A14538  31.231  44.533   7.811
  751POPC   C1B14539  31.885  44.428   8.758
  751POPC   C2B14540  32.086  44.287   8.358
  751POPC   C3B14541  31.998  44.547   7.996
  751POPC   C4B14542  31.862  44.590   7.564
  752POPC   NC314543  42.930  18.594   9.433
  752POPC   PO414544  43.297  18.073   9.547
  752POPC   GL114545  43.270  18.266   9.143
  752POPC   GL214546  43.357  18.610   9.174
  752POPC   C1A14547  43.070  18.215   8.720
  752POPC   D2A14548  42.939  18.110   8.256
  752POPC   C3A14549  43.002  18.244   7.803
  752POPC   C4A14550  42.815  17.986   7.408
  752POPC   C1B14551  43.269  18.705   8.730
  752POPC   C2B14552  43.370  18.405   8.364
  752POPC   C3B14553  43.560  18.369   7.952
  752POPC   C4B14554  43.440  18.581   7.580
  753POPC   NC314555  12.414  38.687   9.680
  753POPC   PO414556  13.059  38.583   9.473
  753POPC   GL114557  12.868  38.609   9.084
  753POPC   GL214558  12.951  38.283   9.016
  753POPC   C1A14559  12.596  38.842   8.786
  753POPC   D2A14560  12.384  38.714   8.436
  753POPC   C3A14561  12.600  38.591   8.068
  753POPC   C4A14562  12.751  38.816   7.706
  753POPC   C1B14563  12.951  38.422   8.614
  753POPC   C2B14564  13.231  38.463   8.294
  753POPC   C3B14565  13.058  38.413   7.911
  753POPC   C4B14566  12.785  38.136   7.799
  754POPC   NC314567  25.266  10.099   9.397
  754POPC   PO414568  25.558   9.388   9.592
  754POPC   GL114569  25.342   9.519   9.219
  754POPC   GL214570  25.649   9.654   9.148
  754POPC   C1A14571  25.241   9.751   8.831
  754POPC   D2A14572  25.357   9.899   8.426
  754POPC   C3A14573  25.160   9.806   8.043
  754POPC   C4A14574  25.453   9.871   7.784
  754POPC   C1B14575  25.647   9.237   8.939
  754POPC   C2B14576  25.501   9.374   8.590
  754POPC   C3B14577  25.509   9.469   8.180
  754POPC   C4B14578  25.356   9.366   7.820
  755POPC   NC314579  17.560  29.976   9.625
  755POPC   PO414580  17.774  29.396   9.631
  755POPC   GL114581  17.693  29.731   9.220
  755POPC   GL214582  17.755  30.124   9.178
  755POPC   C1A14583  17.534  29.857   8.825
  755POPC   D2A14584  17.497  29.727   8.443
  755POPC   C3A14585  17.642  29.951   8.108
  755POPC   C4A14586  17.518  29.933   7.698
  755POPC   C1B14587  17.488  30.374   8.912
  755POPC   C2B14588  17.489  30.327   8.459
  755POPC   C3B14589  17.310  30.378   8.040
  755POPC   C4B14590  17.268  30.379   7.619
  756POPC   NC314591   0.151  31.047   9.391
  756POPC   PO414592   0.497  30.451   9.488
  756POPC   GL114593   0.320  30.584   9.157
  756POPC   GL214594   0.550  30.859   9.133
  756POPC   C1A14595   0.082  30.554   8.796
  756POPC   D2A14596  44.956  30.664   8.382
  756POPC   C3A14597   0.213  30.600   7.995
  756POPC   C4A14598   0.064  30.643   7.612
  756POPC   C1B14599   0.580  30.730   8.726
  756POPC   C2B14600   0.617  30.851   8.291
  756POPC   C3B14601   0.770  30.668   7.912
  756POPC   C4B14602   0.554  30.684   7.490
  757POPC   NC314603  32.432  43.225   9.895
  757POPC   PO414604  33.015  42.908   9.704
  757POPC   GL114605  33.115  42.967   9.216
  757POPC   GL214606  33.476  42.985   9.194
  757POPC   C1A14607  33.227  43.296   8.858
  757POPC   D2A14608  33.337  43.403   8.397
  757POPC   C3A14609  33.034  43.321   8.076
  757POPC   C4A14610  32.656  43.509   7.883
  757POPC   C1B14611  33.354  42.767   8.827
  757POPC   C2B14612  33.132  42.953   8.496
  757POPC   C3B14613  33.127  42.830   8.093
  757POPC   C4B14614  33.130  43.000   7.691
  758POPC   NC314615  12.385   8.994   9.927
  758POPC   PO414616  12.906   8.877   9.471
  758POPC   GL114617  13.064   8.998   9.069
  758POPC   GL214618  13.092   8.654   9.036
  758POPC   C1A14619  12.906   9.224   8.734
  758POPC   D2A14620  12.686   9.304   8.366
  758POPC   C3A14621  12.617   8.949   8.102
  758POPC   C4A14622  12.858   9.044   7.758
  758POPC   C1B14623  12.919   8.722   8.615
  758POPC   C2B14624  13.095   8.856   8.229
  758POPC   C3B14625  13.201   8.687   7.855
  758POPC   C4B14626  12.997   8.615   7.492
  759POPC   NC314627  31.073  11.637   9.643
  759POPC   PO414628  31.663  11.324   9.724
  759POPC   GL114629  31.283  11.327   9.311
  759POPC   GL214630  31.170  11.644   9.153
  759POPC   C1A14631  31.262  11.310   8.780
  759POPC   D2A14632  31.239  11.374   8.308
  759POPC   C3A14633  31.597  11.391   7.981
  759POPC   C4A14634  31.622  11.190   7.558
  759POPC   C1B14635  30.934  11.674   8.778
  759POPC   C2B14636  31.020  11.834   8.399
  759POPC   C3B14637  30.972  11.687   7.964
  759POPC   C4B14638  31.201  11.823   7.584
  760POPC   NC314639   1.748  10.184   9.510
  760POPC   PO414640   2.083   9.614   9.511
  760POPC   GL114641   1.966   9.746   9.100
  760POPC   GL214642   1.998  10.101   9.035
  760POPC   C1A14643   2.033   9.744   8.673
  760POPC   D2A14644   2.073   9.966   8.324
  760POPC   C3A14645   2.116   9.725   7.986
  760POPC   C4A14646   1.845   9.640   7.702
  760POPC   C1B14647   1.705  10.117   8.654
  760POPC   C2B14648   1.633  10.257   8.251
  760POPC   C3B14649   1.823  10.144   7.864
  760POPC   C4B14650   1.683  10.070   7.433
  761POPC   NC314651   2.181   2.317   9.423
  761POPC   PO414652   1.776   2.716   9.772
  761POPC   GL114653   1.751   2.886   9.290
  761POPC   GL214654   2.074   2.743   9.141
  761POPC   C1A14655   1.763   2.976   8.832
  761POPC   D2A14656   1.707   2.721   8.463
  761POPC   C3A14657   1.919   2.767   8.079
  761POPC   C4A14658   1.802   2.735   7.652
  761POPC   C1B14659   2.188   2.682   8.699
  761POPC   C2B14660   2.284   2.469   8.303
  761POPC   C3B14661   2.289   2.431   7.864
  761POPC   C4B14662   2.557   2.585   7.552
  762POPC   NC314663  35.516  32.283   9.342
  762POPC   PO414664  35.003  31.918   9.645
  762POPC   GL114665  35.059  32.086   9.223
  762POPC   GL214666  35.170  31.820   9.017
  762POPC   C1A14667  35.112  32.365   8.836
  762POPC   D2A14668  35.373  32.329   8.482
  762POPC   C3A14669  35.294  32.494   8.094
  762POPC   C4A14670  35.412  32.413   7.683
  762POPC   C1B14671  35.486  31.847   8.671
  762POPC   C2B14672  35.739  32.014   8.329
  762POPC   C3B14673  35.585  32.015   7.945
  762POPC   C4B14674  35.738  32.054   7.527
  763POPC   NC314675  17.413  14.700   9.420
  763POPC   PO414676  17.611  14.046   9.472
  763POPC   GL114677  17.425  14.141   9.076
  763POPC   GL214678  17.254  14.431   9.025
  763POPC   C1A14679  17.391  14.170   8.611
  763POPC   D2A14680  17.518  14.452   8.293
  763POPC   C3A14681  17.360  14.363   7.893
  763POPC   C4A14682  17.623  14.203   7.558
  763POPC   C1B14683  17.565  14.662   8.770
  763POPC   C2B14684  17.370  14.940   8.462
  763POPC   C3B14685  17.362  14.884   8.046
  763POPC   C4B14686  17.101  14.897   7.703
  764POPC   NC314687  36.605   4.056   9.496
  764POPC   PO414688  36.921   3.413   9.627
  764POPC   GL114689  36.833   3.560   9.176
  764POPC   GL214690  36.513   3.714   9.142
  764POPC   C1A14691  37.064   3.524   8.756
  764POPC   D2A14692  37.030   3.187   8.458
  764POPC   C3A14693  37.111   3.302   8.030
  764POPC   C4A14694  37.153   3.566   7.682
  764POPC   C1B14695  36.613   3.757   8.732
  764POPC   C2B14696  36.751   3.611   8.343
  764POPC   C3B14697  36.676   3.618   7.922
  764POPC   C4B14698  36.683   3.853   7.562
  765POPC   NC314699  14.246  44.028   9.630
  765POPC   PO414700  14.650  43.503   9.534
  765POPC   GL114701  14.499  43.873   9.206
  765POPC   GL214702  14.138  43.968   9.114
  765POPC   C1A14703  14.587  44.053   8.817
  765POPC   D2A14704  14.365  44.021   8.443
  765POPC   C3A14705  14.497  43.723   8.164
  765POPC   C4A14706  14.580  43.832   7.762
  765POPC   C1B14707  13.869  44.159   8.773
  765POPC   C2B14708  13.935  44.278   8.342
  765POPC   C3B14709  14.057  43.981   7.979
  765POPC   C4B14710  13.998  43.732   7.572
  766POPC   NC314711   2.375  12.609   9.472
  766POPC   PO414712   2.862  13.060   9.536
  766POPC   GL114713   2.777  12.838   9.189
  766POPC   GL214714   2.468  13.015   9.133
  766POPC   C1A14715   2.975  12.803   8.787
  766POPC   D2A14716   2.759  12.903   8.415
  766POPC   C3A14717   2.954  12.739   8.044
  766POPC   C4A14718   3.096  12.847   7.646
  766POPC   C1B14719   2.363  12.726   8.828
  766POPC   C2B14720   2.183  12.737   8.438
  766POPC   C3B14721   2.432  12.740   8.060
  766POPC   C4B14722   2.614  12.728   7.629
  767POPC   NC314723  44.066   3.447   9.663
  767POPC   PO414724  43.482   3.241   9.384
  767POPC   GL114725  43.789   3.540   9.171
  767POPC   GL214726  44.160   3.585   9.180
  767POPC   C1A14727  43.730   3.745   8.773
  767POPC   D2A14728  43.522   3.603   8.386
  767POPC   C3A14729  43.769   3.682   8.000
  767POPC   C4A14730  43.765   3.446   7.628
  767POPC   C1B14731  44.153   3.420   8.742
  767POPC   C2B14732  44.174   3.519   8.278
  767POPC   C3B14733  44.226   3.427   7.824
  767POPC   C4B14734  44.196   3.588   7.373
  768POPC   NC314735   1.753  22.649   9.446
  768POPC   PO414736   2.463  22.921   9.620
  768POPC   GL114737   2.188  22.853   9.271
  768POPC   GL214738   2.362  22.697   9.096
  768POPC   C1A14739   1.939  22.858   8.866
  768POPC   D2A14740   1.906  22.672   8.497
  768POPC   C3A14741   1.836  22.933   8.186
  768POPC   C4A14742   1.954  22.857   7.792
  768POPC   C1B14743   2.368  23.100   8.856
  768POPC   C2B14744   2.131  23.218   8.501
  768POPC   C3B14745   2.277  23.190   8.076
  768POPC   C4B14746   2.254  23.240   7.668
  769POPC   NC314747  21.016  14.544   9.708
  769POPC   PO414748  21.552  14.764   9.467
  769POPC   GL114749  21.291  14.654   9.124
  769POPC   GL214750  21.011  14.430   9.162
  769POPC   C1A14751  21.175  14.688   8.699
  769POPC   D2A14752  21.216  14.759   8.264
  769POPC   C3A14753  21.471  14.565   7.967
  769POPC   C4A14754  21.321  14.392   7.582
  769POPC   C1B14755  21.221  14.196   8.820
  769POPC   C2B14756  21.402  14.249   8.382
  769POPC   C3B14757  21.342  14.074   7.970
  769POPC   C4B14758  21.009  13.974   7.669
  770POPC   NC314759   8.515  10.418   9.281
  770POPC   PO414760   9.246  10.581   9.503
  770POPC   GL114761   8.986  10.587   9.152
  770POPC   GL214762   9.104  10.902   9.134
  770POPC   C1A14763   8.887  10.376   8.753
  770POPC   D2A14764   8.904  10.052   8.454
  770POPC   C3A14765   8.882  10.271   8.068
  770POPC   C4A14766   8.747  10.164   7.674
  770POPC   C1B14767   9.216  10.781   8.735
  770POPC   C2B14768   9.031  10.706   8.363
  770POPC   C3B14769   9.134  10.722   7.949
  770POPC   C4B14770   8.781  10.689   7.692
  771POPC   NC314771  35.629  29.329   9.457
  771POPC   PO414772  36.161  28.937   9.650
  771POPC   GL114773  36.141  29.074   9.216
  771POPC   GL214774  36.391  28.850   9.160
  771POPC   C1A14775  36.140  29.088   8.785
  771POPC   D2A14776  36.044  29.243   8.395
  771POPC   C3A14777  36.032  29.015   8.018
  771POPC   C4A14778  36.327  29.212   7.769
  771POPC   C1B14779  36.565  28.780   8.770
  771POPC   C2B14780  36.340  28.784   8.399
  771POPC   C3B14781  36.528  28.777   8.008
  771POPC   C4B14782  36.366  28.703   7.665
  772POPC   NC314783  14.620  21.919   9.527
  772POPC   PO414784  14.369  22.531   9.348
  772POPC   GL114785  14.422  22.147   9.071
  772POPC   GL214786  14.666  21.866   9.021
  772POPC   C1A14787  14.417  22.082   8.616
  772POPC   D2A14788  14.326  22.022   8.178
  772POPC   C3A14789  14.300  22.330   7.811
  772POPC   C4A14790  14.239  22.421   7.364
  772POPC   C1B14791  14.957  21.751   8.687
  772POPC   C2B14792  14.976  21.993   8.303
  772POPC   C3B14793  14.758  22.154   7.933
  772POPC   C4B14794  14.633  22.066   7.475
  773POPC   NC314795  44.622  11.636   9.255
  773POPC   PO414796  44.668  12.301   9.469
  773POPC   GL114797  44.650  12.226   9.072
  773POPC   GL214798  44.356  12.422   9.046
  773POPC   C1A14799  44.832  12.035   8.692
  773POPC   D2A14800   0.026  12.242   8.341
  773POPC   C3A14801  44.911  12.070   7.954
  773POPC   C4A14802  44.697  11.707   7.803
  773POPC   C1B14803  44.364  12.243   8.644
  773POPC   C2B14804  44.512  12.070   8.268
  773POPC   C3B14805  44.409  12.170   7.840
  773POPC   C4B14806  44.288  12.152   7.386
  774POPC   NC314807  16.205  17.103   9.443
  774POPC   PO414808  16.266  16.443   9.489
  774POPC   GL114809  15.947  16.701   9.200
  774POPC   GL214810  15.631  16.601   9.069
  774POPC   C1A14811  15.974  16.805   8.725
  774POPC   D2A14812  16.246  16.810   8.312
  774POPC   C3A14813  16.186  16.825   7.865
  774POPC   C4A14814  15.993  16.686   7.474
  774POPC   C1B14815  15.696  16.377   8.705
  774POPC   C2B14816  15.741  16.602   8.307
  774POPC   C3B14817  15.686  16.689   7.883
  774POPC   C4B14818  15.526  16.462   7.554
  775POPC   NC314819  20.432  22.971   9.725
  775POPC   PO414820  19.708  22.985   9.763
  775POPC   GL114821  19.512  23.040   9.333
  775POPC   GL214822  19.751  23.094   9.137
  775POPC   C1A14823  19.484  22.759   8.912
  775POPC   D2A14824  19.750  22.605   8.576
  775POPC   C3A14825  19.646  22.837   8.218
  775POPC   C4A14826  19.675  22.813   7.781
  775POPC   C1B14827  19.857  23.099   8.715
  775POPC   C2B14828  20.010  23.173   8.317
  775POPC   C3B14829  20.113  22.880   8.009
  775POPC   C4B14830  20.173  22.948   7.612
  776POPC   NC314831  27.867  41.249   9.501
  776POPC   PO414832  27.306  41.622   9.489
  776POPC   GL114833  27.495  41.750   9.097
  776POPC   GL214834  27.846  41.678   9.073
  776POPC   C1A14835  27.456  41.579   8.665
  776POPC   D2A14836  27.210  41.487   8.288
  776POPC   C3A14837  27.352  41.676   7.882
  776POPC   C4A14838  27.484  41.833   7.458
  776POPC   C1B14839  27.980  41.553   8.646
  776POPC   C2B14840  27.757  41.621   8.234
  776POPC   C3B14841  27.839  41.596   7.772
  776POPC   C4B14842  27.983  41.917   7.445
  777POPC   NC314843   8.496  34.865   9.598
  777POPC   PO414844   7.945  34.441   9.574
  777POPC   GL114845   8.139  34.650   9.246
  777POPC   GL214846   8.418  34.389   9.306
  777POPC   C1A14847   8.023  34.646   8.791
  777POPC   D2A14848   8.261  34.438   8.461
  777POPC   C3A14849   8.191  34.449   8.030
  777POPC   C4A14850   8.091  34.425   7.616
  777POPC   C1B14851   8.513  34.556   8.899
  777POPC   C2B14852   8.527  34.893   8.590
  777POPC   C3B14853   8.570  34.828   8.144
  777POPC   C4B14854   8.552  34.667   7.718
  778POPC   NC314855  18.248  14.516   9.492
  778POPC   PO414856  18.584  13.944   9.266
  778POPC   GL114857  18.258  14.221   9.060
  778POPC   GL214858  17.902  14.336   9.136
  778POPC   C1A14859  18.171  14.416   8.667
  778POPC   D2A14860  18.440  14.349   8.317
  778POPC   C3A14861  18.404  14.529   7.906
  778POPC   C4A14862  18.556  14.386   7.497
  778POPC   C1B14863  17.857  14.032   8.779
  778POPC   C2B14864  17.939  14.052   8.316
  778POPC   C3B14865  17.913  14.371   7.962
  778POPC   C4B14866  18.068  14.508   7.523
  779POPC   NC314867  17.913  26.509   9.229
  779POPC   PO414868  17.515  26.988   9.533
  779POPC   GL114869  17.511  26.982   9.144
  779POPC   GL214870  17.853  27.043   9.105
  779POPC   C1A14871  17.239  26.967   8.809
  779POPC   D2A14872  17.415  27.012   8.399
  779POPC   C3A14873  17.231  26.920   8.035
  779POPC   C4A14874  17.398  26.980   7.653
  779POPC   C1B14875  17.826  26.978   8.690
  779POPC   C2B14876  17.859  26.717   8.322
  779POPC   C3B14877  17.778  26.836   7.936
  779POPC   C4B14878  17.892  27.235   7.784
  780POPC   NC314879  30.383  31.680   9.469
  780POPC   PO414880  30.855  31.236   9.677
  780POPC   GL114881  30.895  31.402   9.252
  780POPC   GL214882  30.552  31.323   9.154
  780POPC   C1A14883  30.923  31.496   8.800
  780POPC   D2A14884  30.676  31.411   8.406
  780POPC   C3A14885  30.851  31.516   8.008
  780POPC   C4A14886  30.883  31.491   7.579
  780POPC   C1B14887  30.578  31.076   8.792
  780POPC   C2B14888  30.496  30.903   8.371
  780POPC   C3B14889  30.534  31.093   7.971
  780POPC   C4B14890  30.452  31.231   7.543
  781POPC   NC314891  43.719  18.520   9.802
  781POPC   PO414892  43.996  17.837   9.591
  781POPC   GL114893  43.806  18.076   9.261
  781POPC   GL214894  43.833  18.450   9.265
  781POPC   C1A14895  44.011  18.065   8.851
  781POPC   D2A14896  44.107  17.883   8.468
  781POPC   C3A14897  43.923  17.970   8.090
  781POPC   C4A14898  44.144  18.107   7.766
  781POPC   C1B14899  43.673  18.426   8.822
  781POPC   C2B14900  43.879  18.387   8.424
  781POPC   C3B14901  44.055  18.512   8.046
  781POPC   C4B14902  43.946  18.542   7.588
  782POPC   NC314903  28.743  43.698   9.490
  782POPC   PO414904  28.131  44.038   9.582
  782POPC   GL114905  28.285  44.028   9.192
  782POPC   GL214906  28.632  44.083   9.092
  782POPC   C1A14907  28.304  43.744   8.859
  782POPC   D2A14908  28.119  43.837   8.473
  782POPC   C3A14909  28.318  43.845   8.103
  782POPC   C4A14910  28.190  43.854   7.701
  782POPC   C1B14911  28.348  44.246   8.718
  782POPC   C2B14912  28.484  44.332   8.255
  782POPC   C3B14913  28.496  44.268   7.770
  782POPC   C4B14914  28.453  44.101   7.308
  783POPC   NC314915  39.571   2.350   9.788
  783POPC   PO414916  39.049   2.082   9.781
  783POPC   GL114917  39.260   2.185   9.372
  783POPC   GL214918  39.613   2.340   9.273
  783POPC   C1A14919  39.223   2.043   8.949
  783POPC   D2A14920  39.226   1.787   8.585
  783POPC   C3A14921  39.113   1.995   8.187
  783POPC   C4A14922  39.218   1.951   7.723
  783POPC   C1B14923  39.742   2.119   8.868
  783POPC   C2B14924  39.658   2.007   8.409
  783POPC   C3B14925  39.635   2.092   7.956
  783POPC   C4B14926  39.477   2.387   7.620
  784POPC   NC314927   1.153  14.667   9.432
  784POPC   PO414928   1.396  14.056   9.392
  784POPC   GL114929   1.175  14.309   9.062
  784POPC   GL214930   0.912  14.611   8.971
  784POPC   C1A14931   1.281  14.470   8.665
  784POPC   D2A14932   1.146  14.580   8.276
  784POPC   C3A14933   1.323  14.376   7.970
  784POPC   C4A14934   1.452  14.455   7.575
  784POPC   C1B14935   0.818  14.225   8.720
  784POPC   C2B14936   0.655  14.147   8.319
  784POPC   C3B14937   0.824  14.150   7.916
  784POPC   C4B14938   0.708  14.078   7.454
  785POPC   NC314939  25.455  27.691   9.401
  785POPC   PO414940  24.830  27.544   9.459
  785POPC   GL114941  24.829  27.772   9.050
  785POPC   GL214942  25.174  27.856   8.996
  785POPC   C1A14943  24.922  27.633   8.603
  785POPC   D2A14944  25.029  27.227   8.360
  785POPC   C3A14945  25.231  27.383   7.997
  785POPC   C4A14946  25.158  27.790   7.878
  785POPC   C1B14947  25.441  27.663   8.638
  785POPC   C2B14948  25.573  27.765   8.209
  785POPC   C3B14949  25.656  27.593   7.815
  785POPC   C4B14950  25.624  27.167   7.644
  786POPC   NC314951  16.197   7.959   9.541
  786POPC   PO414952  16.344   8.605   9.568
  786POPC   GL114953  16.033   8.388   9.242
  786POPC   GL214954  16.005   8.016   9.074
  786POPC   C1A14955  15.895   8.431   8.808
  786POPC   D2A14956  16.013   8.194   8.447
  786POPC   C3A14957  15.806   8.262   8.063
  786POPC   C4A14958  15.656   8.022   7.739
  786POPC   C1B14959  16.204   7.780   8.726
  786POPC   C2B14960  16.257   7.606   8.289
  786POPC   C3B14961  16.115   7.815   7.865
  786POPC   C4B14962  16.166   7.758   7.334
  787POPC   NC314963  14.972  43.165   9.493
  787POPC   PO414964  15.616  43.315   9.491
  787POPC   GL114965  15.364  43.089   9.156
  787POPC   GL214966  15.533  42.846   8.941
  787POPC   C1A14967  15.044  43.001   8.783
  787POPC   D2A14968  14.923  42.725   8.420
  787POPC   C3A14969  14.952  43.033   8.122
  787POPC   C4A14970  15.188  43.076   7.766
  787POPC   C1B14971  15.507  43.250   8.698
  787POPC   C2B14972  15.395  43.270   8.262
  787POPC   C3B14973  15.483  43.467   7.883
  787POPC   C4B14974  15.380  43.429   7.452
  788POPC   NC314975  28.377  44.433   9.572
  788POPC   PO414976  28.693  44.895   9.376
  788POPC   GL114977  28.345  44.682   9.125
  788POPC   GL214978  28.011  44.489   9.218
  788POPC   C1A14979  28.346  44.760   8.692
  788POPC   D2A14980  28.508  44.926   8.332
  788POPC   C3A14981  28.340  44.752   7.972
  788POPC   C4A14982  27.925  44.780   7.813
  788POPC   C1B14983  27.880  44.578   8.783
  788POPC   C2B14984  28.018  44.553   8.330
  788POPC   C3B14985  28.020  44.284   7.950
  788POPC   C4B14986  27.995  44.250   7.471
  789POPC   NC314987  41.020  36.983   9.416
  789POPC   PO414988  40.380  37.156   9.451
  789POPC   GL114989  40.661  37.072   9.080
  789POPC   GL214990  40.987  37.330   9.065
  789POPC   C1A14991  40.608  36.739   8.763
  789POPC   D2A14992  40.751  36.565   8.354
  789POPC   C3A14993  40.606  36.777   7.968
  789POPC   C4A14994  40.630  36.858   7.511
  789POPC   C1B14995  41.038  37.003   8.737
  789POPC   C2B14996  40.893  37.043   8.335
  789POPC   C3B14997  41.069  36.983   7.950
  789POPC   C4B14998  41.039  37.143   7.517
  790POPC   NC314999  26.206  10.440   9.421
  790POPC   PO415000  25.599  10.709   9.564
  790POPC   GL115001  25.805  10.667   9.131
  790POPC   GL215002  26.115  10.850   9.111
  790POPC   C1A15003  25.988  10.537   8.711
  790POPC   D2A15004  26.274  10.398   8.351
  790POPC   C3A15005  26.142  10.404   7.933
  790POPC   C4A15006  25.775  10.242   7.698
  790POPC   C1B15007  26.256  11.003   8.733
  790POPC   C2B15008  26.429  10.897   8.363
  790POPC   C3B15009  26.282  10.942   7.963
  790POPC   C4B15010  26.302  10.753   7.596
  791POPC   NC315011  42.940  16.905   9.550
  791POPC   PO415012  43.045  16.276   9.426
  791POPC   GL115013  42.912  16.604   9.125
  791POPC   GL215014  43.235  16.812   9.128
  791POPC   C1A15015  42.846  16.992   8.858
  791POPC   D2A15016  43.099  17.178   8.525
  791POPC   C3A15017  43.093  17.013   8.127
  791POPC   C4A15018  43.031  16.979   7.702
  791POPC   C1B15019  43.240  16.699   8.679
  791POPC   C2B15020  43.250  16.505   8.265
  791POPC   C3B15021  43.248  16.360   7.855
  791POPC   C4B15022  43.228  16.567   7.442
  792POPC   NC315023  23.850   1.748   9.919
  792POPC   PO415024  23.701   1.261   9.469
  792POPC   GL115025  23.718   1.092   9.074
  792POPC   GL215026  23.921   0.818   9.166
  792POPC   C1A15027  23.755   1.223   8.629
  792POPC   D2A15028  24.013   1.393   8.297
  792POPC   C3A15029  23.706   1.535   7.998
  792POPC   C4A15030  23.316   1.335   7.852
  792POPC   C1B15031  23.996   0.785   8.723
  792POPC   C2B15032  23.833   0.778   8.293
  792POPC   C3B15033  24.013   0.838   7.881
  792POPC   C4B15034  24.106   1.259   7.766
  793POPC   NC315035  11.504   2.675   9.299
  793POPC   PO415036  12.187   2.691   9.489
  793POPC   GL115037  12.262   2.904   9.139
  793POPC   GL215038  11.916   2.853   9.030
  793POPC   C1A15039  12.313   2.736   8.750
  793POPC   D2A15040  12.048   2.912   8.471
  793POPC   C3A15041  12.230   2.730   8.144
  793POPC   C4A15042  12.030   2.626   7.789
  793POPC   C1B15043  11.854   2.476   8.733
  793POPC   C2B15044  11.819   2.475   8.287
  793POPC   C3B15045  11.701   2.875   8.098
  793POPC   C4B15046  11.756   3.069   7.719
  794POPC   NC315047  27.943   1.023   9.533
  794POPC   PO415048  27.439   1.397   9.868
  794POPC   GL115049  27.588   1.322   9.318
  794POPC   GL215050  27.639   1.595   9.081
  794POPC   C1A15051  27.513   1.138   8.873
  794POPC   D2A15052  27.696   1.073   8.448
  794POPC   C3A15053  27.469   1.202   8.077
  794POPC   C4A15054  27.459   1.002   7.647
  794POPC   C1B15055  27.873   1.508   8.743
  794POPC   C2B15056  27.828   1.582   8.340
  794POPC   C3B15057  27.866   1.698   7.954
  794POPC   C4B15058  27.676   1.455   7.693
  795POPC   NC315059  21.597  43.544   9.519
  795POPC   PO415060  21.209  43.019   9.501
  795POPC   GL115061  21.301  43.293   9.161
  795POPC   GL215062  21.657  43.207   9.118
  795POPC   C1A15063  21.319  43.273   8.709
  795POPC   D2A15064  21.608  43.167   8.388
  795POPC   C3A15065  21.409  43.097   7.994
  795POPC   C4A15066  21.249  43.168   7.590
  795POPC   C1B15067  21.819  43.426   8.784
  795POPC   C2B15068  21.953  43.549   8.363
  795POPC   C3B15069  21.851  43.362   7.999
  795POPC   C4B15070  21.634  43.497   7.684
  796POPC   NC315071  21.566  44.315   9.427
  796POPC   PO415072  21.112  43.727   9.445
  796POPC   GL115073  21.401  43.891   9.186
  796POPC   GL215074  21.221  44.194   9.065
  796POPC   C1A15075  21.420  43.763   8.800
  796POPC   D2A15076  21.272  43.893   8.427
  796POPC   C3A15077  21.447  43.644   8.158
  796POPC   C4A15078  21.194  43.645   7.839
  796POPC   C1B15079  21.500  44.254   8.702
  796POPC   C2B15080  21.374  44.441   8.323
  796POPC   C3B15081  21.285  44.189   7.992
  796POPC   C4B15082  21.570  43.996   7.772
  797POPC   NC315083  36.023  30.866   9.574
  797POPC   PO415084  35.708  30.358   9.311
  797POPC   GL115085  36.136  30.492   9.153
  797POPC   GL215086  36.234  30.849   9.123
  797POPC   C1A15087  36.014  30.615   8.725
  797POPC   D2A15088  36.121  30.820   8.335
  797POPC   C3A15089  36.146  30.498   8.007
  797POPC   C4A15090  36.004  30.436   7.578
  797POPC   C1B15091  36.175  31.107   8.784
  797POPC   C2B15092  36.325  31.366   8.490
  797POPC   C3B15093  36.165  31.268   8.086
  797POPC   C4B15094  36.161  30.936   7.758
  798POPC   NC315095  43.850  23.234   9.501
  798POPC   PO415096  44.008  22.607   9.583
  798POPC   GL115097  43.680  22.799   9.286
  798POPC   GL215098  43.968  22.922   9.107
  798POPC   C1A15099  43.566  23.056   8.866
  798POPC   D2A15100  43.739  22.930   8.463
  798POPC   C3A15101  43.791  23.144   8.046
  798POPC   C4A15102  44.170  23.210   7.768
  798POPC   C1B15103  43.812  22.539   8.870
  798POPC   C2B15104  43.906  22.436   8.443
  798POPC   C3B15105  43.759  22.620   8.055
  798POPC   C4B15106  43.879  22.580   7.650
  799POPC   NC315107  37.648  35.456   9.792
  799POPC   PO415108  37.726  34.937   9.337
  799POPC   GL115109  37.685  35.298   9.124
  799POPC   GL215110  37.812  35.554   9.312
  799POPC   C1A15111  37.621  35.350   8.680
  799POPC   D2A15112  37.621  35.031   8.366
  799POPC   C3A15113  37.496  35.140   7.944
  799POPC   C4A15114  37.418  35.326   7.551
  799POPC   C1B15115  37.998  35.645   8.896
  799POPC   C2B15116  38.090  35.507   8.458
  799POPC   C3B15117  37.993  35.670   8.063
  799POPC   C4B15118  37.912  35.367   7.744
  800POPC   NC315119   1.991   4.855   9.378
  800POPC   PO415120   2.473   5.335   9.428
  800POPC   GL115121   2.213   5.223   9.087
  800POPC   GL215122   1.834   5.237   9.078
  800POPC   C1A15123   2.135   5.407   8.701
  800POPC   D2A15124   1.872   5.255   8.350
  800POPC   C3A15125   2.023   4.900   8.136
  800POPC   C4A15126   2.105   5.023   7.738
  800POPC   C1B15127   1.788   4.919   8.717
  800POPC   C2B15128   1.529   4.874   8.310
  800POPC   C3B15129   1.585   5.103   7.879
  800POPC   C4B15130   1.709   4.948   7.416
  801POPC   NC315131  14.015  34.146   9.513
  801POPC   PO415132  14.593  34.445   9.587
  801POPC   GL115133  14.385  34.375   9.212
  801POPC   GL215134  14.680  34.257   9.086
  801POPC   C1A15135  14.205  34.598   8.838
  801POPC   D2A15136  14.119  34.468   8.386
  801POPC   C3A15137  14.241  34.760   8.046
  801POPC   C4A15138  14.002  34.963   7.741
  801POPC   C1B15139  14.508  34.218   8.712
  801POPC   C2B15140  14.517  34.133   8.314
  801POPC   C3B15141  14.326  34.273   7.916
  801POPC   C4B15142  14.645  34.401   7.615
  802POPC   NC315143  41.673  19.482   9.506
  802POPC   PO415144  41.370  19.983   9.522
  802POPC   GL115145  41.385  19.969   9.112
  802POPC   GL215146  41.395  19.613   9.117
  802POPC   C1A15147  41.342  20.101   8.696
  802POPC   D2A15148  41.604  19.999   8.359
  802POPC   C3A15149  41.410  19.833   7.999
  802POPC   C4A15150  41.441  20.022   7.607
  802POPC   C1B15151  41.640  19.653   8.743
  802POPC   C2B15152  41.932  19.622   8.390
  802POPC   C3B15153  41.876  19.466   8.018
  802POPC   C4B15154  41.697  19.565   7.670
  803POPC   NC315155  13.196  10.756   9.624
  803POPC   PO415156  13.812  10.885   9.808
  803POPC   GL115157  13.654  10.792   9.330
  803POPC   GL215158  13.355  10.747   9.124
  803POPC   C1A15159  13.771  10.602   8.882
  803POPC   D2A15160  13.785  10.795   8.462
  803POPC   C3A15161  13.929  10.614   8.084
  803POPC   C4A15162  13.814  10.639   7.680
  803POPC   C1B15163  13.308  10.425   8.773
  803POPC   C2B15164  13.447  10.392   8.371
  803POPC   C3B15165  13.408  10.604   7.999
  803POPC   C4B15166  13.440  10.303   7.699
  804POPC   NC315167  28.639  26.536   9.578
  804POPC   PO415168  28.155  26.088   9.567
  804POPC   GL115169  28.223  26.242   9.151
  804POPC   GL215170  28.155  25.876   9.071
  804POPC   C1A15171  28.377  26.183   8.707
  804POPC   D2A15172  28.669  26.380   8.395
  804POPC   C3A15173  28.673  26.138   8.022
  804POPC   C4A15174  28.403  26.248   7.712
  804POPC   C1B15175  27.932  25.893   8.678
  804POPC   C2B15176  28.080  25.858   8.289
  804POPC   C3B15177  28.129  25.852   7.868
  804POPC   C4B15178  28.514  25.739   7.664
  805POPC   NC315179  17.271  27.328   9.753
  805POPC   PO415180  16.804  27.898   9.648
  805POPC   GL115181  16.747  27.502   9.300
  805POPC   GL215182  17.083  27.287   9.206
  805POPC   C1A15183  16.605  27.269   8.888
  805POPC   D2A15184  16.679  27.336   8.417
  805POPC   C3A15185  16.510  27.398   7.966
  805POPC   C4A15186  16.378  27.677   7.626
  805POPC   C1B15187  17.042  27.517   8.820
  805POPC   C2B15188  17.170  27.462   8.430
  805POPC   C3B15189  16.979  27.588   8.060
  805POPC   C4B15190  16.844  27.794   7.701
  806POPC   NC315191  23.123  23.577   9.476
  806POPC   PO415192  22.522  23.744   9.566
  806POPC   GL115193  22.816  23.829   9.165
  806POPC   GL215194  22.880  24.177   9.072
  806POPC   C1A15195  23.062  23.790   8.768
  806POPC   D2A15196  22.920  23.584   8.391
  806POPC   C3A15197  23.112  23.497   7.994
  806POPC   C4A15198  22.994  23.166   7.699
  806POPC   C1B15199  22.993  24.291   8.673
  806POPC   C2B15200  22.791  24.077   8.361
  806POPC   C3B15201  22.856  23.925   7.974
  806POPC   C4B15202  23.196  23.863   7.648
  807POPC   NC315203  43.695  16.228   9.426
  807POPC   PO415204  44.275  15.822   9.532
  807POPC   GL115205  44.055  15.924   9.193
  807POPC   GL215206  44.090  16.249   9.110
  807POPC   C1A15207  43.883  15.886   8.816
  807POPC   D2A15208  43.944  15.633   8.476
  807POPC   C3A15209  43.717  15.747   8.133
  807POPC   C4A15210  43.582  15.957   7.772
  807POPC   C1B15211  44.439  16.113   8.867
  807POPC   C2B15212  44.274  16.075   8.465
  807POPC   C3B15213  44.044  16.253   8.132
  807POPC   C4B15214  44.272  16.395   7.764
  808POPC   NC315215   4.851  38.308   9.366
  808POPC   PO415216   5.087  38.785   9.716
  808POPC   GL115217   5.169  38.726   9.244
  808POPC   GL215218   4.978  38.565   8.968
  808POPC   C1A15219   5.291  38.889   8.789
  808POPC   D2A15220   5.085  38.812   8.368
  808POPC   C3A15221   5.162  38.417   8.124
  808POPC   C4A15222   5.300  38.400   7.703
  808POPC   C1B15223   5.148  38.296   8.650
  808POPC   C2B15224   5.055  37.953   8.405
  808POPC   C3B15225   4.764  38.039   8.133
  808POPC   C4B15226   4.866  38.097   7.731
  809POPC   NC315227  23.679  38.209   9.506
  809POPC   PO415228  23.727  38.814   9.676
  809POPC   GL115229  23.424  38.701   9.283
  809POPC   GL215230  23.636  38.495   9.074
  809POPC   C1A15231  23.206  38.553   8.837
  809POPC   D2A15232  23.281  38.718   8.396
  809POPC   C3A15233  23.541  38.469   8.094
  809POPC   C4A15234  23.725  38.596   7.696
  809POPC   C1B15235  23.677  38.399   8.613
  809POPC   C2B15236  24.010  38.378   8.245
  809POPC   C3B15237  24.172  38.379   7.802
  809POPC   C4B15238  24.006  38.281   7.375
  810POPC   NC315239  31.868  30.797   9.424
  810POPC   PO415240  32.530  30.945   9.248
  810POPC   GL115241  32.158  30.842   9.015
  810POPC   GL215242  31.943  31.178   9.035
  810POPC   C1A15243  32.012  30.456   8.798
  810POPC   D2A15244  31.809  30.387   8.396
  810POPC   C3A15245  32.126  30.337   8.071
  810POPC   C4A15246  32.483  30.575   7.885
  810POPC   C1B15247  32.166  31.168   8.613
  810POPC   C2B15248  32.276  30.915   8.250
  810POPC   C3B15249  32.026  30.814   7.901
  810POPC   C4B15250  31.869  31.077   7.556
  811POPC   NC315251  44.823  39.808   9.443
  811POPC   PO415252  44.187  40.051   9.581
  811POPC   GL115253  44.412  39.950   9.190
  811POPC   GL215254  44.403  40.295   9.070
  811POPC   C1A15255  44.627  39.908   8.788
  811POPC   D2A15256  44.904  39.832   8.447
  811POPC   C3A15257  44.638  39.788   8.091
  811POPC   C4A15258  44.660  40.081   7.753
  811POPC   C1B15259  44.621  40.414   8.665
  811POPC   C2B15260  44.738  40.306   8.226
  811POPC   C3B15261  44.962  40.496   7.880
  811POPC   C4B15262  44.827  40.482   7.454
  812POPC   NC315263  34.993   3.727   9.459
  812POPC   PO415264  34.344   3.858   9.519
  812POPC   GL115265  34.422   3.642   9.133
  812POPC   GL215266  34.416   3.306   9.033
  812POPC   C1A15267  34.470   3.739   8.715
  812POPC   D2A15268  34.449   3.981   8.310
  812POPC   C3A15269  34.554   3.662   7.985
  812POPC   C4A15270  34.697   3.502   7.572
  812POPC   C1B15271  34.737   3.293   8.723
  812POPC   C2B15272  34.899   3.175   8.307
  812POPC   C3B15273  34.732   3.113   7.898
  812POPC   C4B15274  34.304   3.221   7.712
  813POPC   NC315275  17.614   6.746   9.613
  813POPC   PO415276  17.182   7.098   9.608
  813POPC   GL115277  17.249   6.810   9.215
  813POPC   GL215278  17.558   6.657   9.108
  813POPC   C1A15279  17.166   6.474   8.845
  813POPC   D2A15280  17.221   6.254   8.416
  813POPC   C3A15281  17.515   6.479   8.141
  813POPC   C4A15282  17.770   6.448   7.754
  813POPC   C1B15283  17.398   6.943   8.745
  813POPC   C2B15284  17.488   6.975   8.296
  813POPC   C3B15285  17.401   6.910   7.865
  813POPC   C4B15286  17.200   7.124   7.513
  814POPC   NC315287  44.099   6.078   9.623
  814POPC   PO415288  44.017   5.401   9.461
  814POPC   GL115289  43.915   5.728   9.157
  814POPC   GL215290  44.103   6.065   9.135
  814POPC   C1A15291  43.848   5.912   8.732
  814POPC   D2A15292  43.645   5.976   8.345
  814POPC   C3A15293  43.908   5.841   7.995
  814POPC   C4A15294  43.790   5.801   7.576
  814POPC   C1B15295  44.236   6.245   8.777
  814POPC   C2B15296  44.171   6.108   8.353
  814POPC   C3B15297  44.217   6.244   7.912
  814POPC   C4B15298  44.118   6.168   7.473
  815POPC   NC315299  35.593   2.920   9.496
  815POPC   PO415300  35.150   2.501   9.504
  815POPC   GL115301  35.359   2.579   9.092
  815POPC   GL215302  35.319   2.941   9.042
  815POPC   C1A15303  35.331   2.513   8.632
  815POPC   D2A15304  35.308   2.872   8.364
  815POPC   C3A15305  35.237   2.816   7.936
  815POPC   C4A15306  35.334   2.452   7.652
  815POPC   C1B15307  35.658   2.883   8.748
  815POPC   C2B15308  35.771   2.658   8.338
  815POPC   C3B15309  35.746   2.688   7.860
  815POPC   C4B15310  35.515   2.984   7.534
  816POPC   NC315311  29.226  30.472   9.486
  816POPC   PO415312  28.681  30.880   9.467
  816POPC   GL115313  28.850  30.624   9.126
  816POPC   GL215314  29.246  30.697   9.045
  816POPC   C1A15315  28.932  30.540   8.695
  816POPC   D2A15316  29.274  30.665   8.491
  816POPC   C3A15317  29.336  30.711   8.089
  816POPC   C4A15318  29.110  30.916   7.807
  816POPC   C1B15319  29.339  30.296   8.826
  816POPC   C2B15320  29.147  30.174   8.381
  816POPC   C3B15321  28.963  30.367   7.979
  816POPC   C4B15322  29.248  30.447   7.610
  817POPC   NC315323   0.426   5.407   9.606
  817POPC   PO415324   0.152   6.029   9.577
  817POPC   GL115325   0.153   5.985   9.158
  817POPC   GL215326   0.309   5.674   9.183
  817POPC   C1A15327   0.105   6.170   8.744
  817POPC   D2A15328   0.015   6.266   8.319
  817POPC   C3A15329   0.310   6.226   8.004
  817POPC   C4A15330   0.278   6.040   7.596
  817POPC   C1B15331   0.478   5.813   8.777
  817POPC   C2B15332   0.432   5.877   8.352
  817POPC   C3B15333   0.579   5.796   7.936
  817POPC   C4B15334   0.963   5.650   7.658
  818POPC   NC315335   4.618   5.548   9.556
  818POPC   PO415336   4.198   5.971   9.356
  818POPC   GL115337   4.442   5.770   9.105
  818POPC   GL215338   4.624   6.043   9.077
  818POPC   C1A15339   4.416   5.581   8.712
  818POPC   D2A15340   4.562   5.701   8.335
  818POPC   C3A15341   4.412   5.499   8.020
  818POPC   C4A15342   4.217   5.640   7.651
  818POPC   C1B15343   4.584   6.080   8.667
  818POPC   C2B15344   4.397   6.243   8.336
  818POPC   C3B15345   4.366   6.039   7.965
  818POPC   C4B15346   4.139   6.157   7.618
  819POPC   NC315347   7.683  44.389   9.413
  819POPC   PO415348   7.260   0.015   9.535
  819POPC   GL115349   7.267   0.010   9.104
  819POPC   GL215350   7.477  44.722   9.075
  819POPC   C1A15351   7.119  44.840   8.717
  819POPC   D2A15352   7.345  44.779   8.354
  819POPC   C3A15353   7.105  44.805   7.969
  819POPC   C4A15354   7.387  44.785   7.624
  819POPC   C1B15355   7.487  44.392   8.763
  819POPC   C2B15356   7.311  44.259   8.365
  819POPC   C3B15357   7.457  44.434   7.984
  819POPC   C4B15358   7.545  44.312   7.577
  820POPC   NC315359  32.143   0.727   9.464
  820POPC   PO415360  32.178   0.073   9.593
  820POPC   GL115361  32.234   0.261   9.195
  820POPC   GL215362  32.568   0.153   9.144
  820POPC   C1A15363  32.122   0.421   8.765
  820POPC   D2A15364  31.959   0.271   8.344
  820POPC   C3A15365  32.097   0.485   7.967
  820POPC   C4A15366  32.358   0.751   7.699
  820POPC   C1B15367  32.645   0.369   8.777
  820POPC   C2B15368  32.455   0.458   8.367
  820POPC   C3B15369  32.617   0.388   7.959
  820POPC   C4B15370  32.454   0.254   7.537
  821POPC   NC315371  24.312   5.161   9.611
  821POPC   PO415372  24.496   4.527   9.506
  821POPC   GL115373  24.397   4.773   9.180
  821POPC   GL215374  24.579   5.072   9.183
  821POPC   C1A15375  24.426   4.900   8.755
  821POPC   D2A15376  24.689   4.931   8.443
  821POPC   C3A15377  24.510   5.080   8.090
  821POPC   C4A15378  24.374   4.891   7.739
  821POPC   C1B15379  24.734   5.315   8.815
  821POPC   C2B15380  24.693   5.462   8.391
  821POPC   C3B15381  24.878   5.398   7.965
  821POPC   C4B15382  24.963   5.496   7.545
  822POPC   NC315383  16.704   5.219   9.593
  822POPC   PO415384  17.036   4.742   9.317
  822POPC   GL115385  16.671   4.933   9.152
  822POPC   GL215386  16.754   5.296   9.096
  822POPC   C1A15387  16.455   5.001   8.783
  822POPC   D2A15388  16.655   5.083   8.397
  822POPC   C3A15389  16.361   5.001   8.091
  822POPC   C4A15390  16.460   5.034   7.699
  822POPC   C1B15391  17.054   5.151   8.757
  822POPC   C2B15392  17.184   5.182   8.306
  822POPC   C3B15393  16.903   5.140   7.929
  822POPC   C4B15394  16.890   5.043   7.433
  823POPC   NC315395  27.811  44.367   9.690
  823POPC   PO415396  27.843  44.973   9.373
  823POPC   GL115397  27.562  44.794   9.143
  823POPC   GL215398  27.474  44.477   9.267
  823POPC   C1A15399  27.320  44.686   8.798
  823POPC   D2A15400  27.504  44.614   8.427
  823POPC   C3A15401  27.408  44.776   8.042
  823POPC   C4A15402  27.413  44.938   7.642
  823POPC   C1B15403  27.504  44.220   8.874
  823POPC   C2B15404  27.722  44.159   8.475
  823POPC   C3B15405  27.520  44.242   8.080
  823POPC   C4B15406  27.577  44.430   7.694
  824POPC   NC315407   6.418  32.754   9.546
  824POPC   PO415408   6.971  33.195   9.405
  824POPC   GL115409   6.792  33.086   8.998
  824POPC   GL215410   6.454  32.999   9.030
  824POPC   C1A15411   6.671  32.821   8.611
  824POPC   D2A15412   6.590  32.670   8.174
  824POPC   C3A15413   6.878  32.906   7.929
  824POPC   C4A15414   7.070  33.333   7.909
  824POPC   C1B15415   6.440  33.334   8.681
  824POPC   C2B15416   6.271  33.485   8.281
  824POPC   C3B15417   6.371  33.221   7.928
  824POPC   C4B15418   6.187  33.088   7.542
  825POPC   NC315419  23.239  26.117   9.221
  825POPC   PO415420  23.824  25.917   9.609
  825POPC   GL115421  23.862  26.014   9.194
  825POPC   GL215422  24.068  25.720   9.112
  825POPC   C1A15423  23.739  26.360   8.896
  825POPC   D2A15424  23.441  26.365   8.524
  825POPC   C3A15425  23.635  26.323   8.133
  825POPC   C4A15426  23.651  26.086   7.766
  825POPC   C1B15427  23.928  25.638   8.671
  825POPC   C2B15428  23.617  25.787   8.354
  825POPC   C3B15429  23.549  25.629   7.958
  825POPC   C4B15430  23.810  25.615   7.611
  826POPC   NC315431  40.109  19.288   9.607
  826POPC   PO415432  39.850  19.938   9.356
  826POPC   GL115433  39.879  19.792   8.987
  826POPC   GL215434  40.185  19.629   9.094
  826POPC   C1A15435  39.794  19.863   8.562
  826POPC   D2A15436  39.733  19.870   8.142
  826POPC   C3A15437  40.111  20.002   7.939
  826POPC   C4A15438  39.971  19.915   7.502
  826POPC   C1B15439  40.081  19.459   8.673
  826POPC   C2B15440  40.006  19.445   8.252
  826POPC   C3B15441  40.024  19.520   7.831
  826POPC   C4B15442  40.139  19.429   7.390
  827POPC   NC315443   0.939  13.985   9.403
  827POPC   PO415444   1.115  13.340   9.554
  827POPC   GL115445   1.249  13.405   9.143
  827POPC   GL215446   1.219  13.715   9.082
  827POPC   C1A15447   1.110  13.374   8.740
  827POPC   D2A15448   1.268  13.295   8.392
  827POPC   C3A15449   0.997  13.298   8.066
  827POPC   C4A15450   1.211  13.368   7.683
  827POPC   C1B15451   1.238  13.911   8.722
  827POPC   C2B15452   1.169  14.061   8.351
  827POPC   C3B15453   1.214  13.818   8.025
  827POPC   C4B15454   1.220  13.998   7.638
  828POPC   NC315455  41.120  43.978   9.542
  828POPC   PO415456  41.654  44.376   9.693
  828POPC   GL115457  41.440  44.398   9.230
  828POPC   GL215458  41.212  44.194   9.104
  828POPC   C1A15459  41.600  44.281   8.781
  828POPC   D2A15460  41.860  44.001   8.514
  828POPC   C3A15461  41.722  43.999   8.082
  828POPC   C4A15462  41.394  44.173   7.833
  828POPC   C1B15463  41.310  43.832   8.827
  828POPC   C2B15464  41.436  43.676   8.421
  828POPC   C3B15465  41.268  43.705   8.003
  828POPC   C4B15466  41.458  43.636   7.601
  829POPC   NC315467  25.619  25.530   9.400
  829POPC   PO415468  25.095  25.139   9.317
  829POPC   GL115469  25.341  25.287   9.047
  829POPC   GL215470  25.190  25.588   9.032
  829POPC   C1A15471  25.354  25.200   8.648
  829POPC   D2A15472  25.461  24.853   8.400
  829POPC   C3A15473  25.417  25.043   8.015
  829POPC   C4A15474  25.455  25.004   7.592
  829POPC   C1B15475  25.514  25.697   8.747
  829POPC   C2B15476  25.678  25.528   8.415
  829POPC   C3B15477  25.489  25.565   8.035
  829POPC   C4B15478  25.204  25.451   7.717
  830POPC   NC315479  43.813   5.544   9.843
  830POPC   PO415480  43.827   4.853   9.565
  830POPC   GL115481  43.934   4.981   9.157
  830POPC   GL215482  44.181   5.237   9.036
  830POPC   C1A15483  43.810   4.841   8.789
  830POPC   D2A15484  43.970   5.006   8.399
  830POPC   C3A15485  43.871   4.830   8.028
  830POPC   C4A15486  43.901   4.831   7.632
  830POPC   C1B15487  43.855   5.373   8.769
  830POPC   C2B15488  43.826   5.487   8.343
  830POPC   C3B15489  43.900   5.339   7.904
  830POPC   C4B15490  43.986   5.294   7.468
  831POPC   NC315491   0.025  38.197   9.741
  831POPC   PO415492  44.466  38.440   9.586
  831POPC   GL115493  44.475  38.319   9.161
  831POPC   GL215494  44.744  38.072   9.249
  831POPC   C1A15495  44.425  38.480   8.703
  831POPC   D2A15496  44.794  38.637   8.430
  831POPC   C3A15497  44.767  38.722   7.981
  831POPC   C4A15498  44.860  38.534   7.571
  831POPC   C1B15499  44.844  38.229   8.816
  831POPC   C2B15500  44.680  38.131   8.400
  831POPC   C3B15501  44.815  38.198   7.971
  831POPC   C4B15502  44.684  38.047   7.557
  832POPC   NC315503  32.444  28.940   9.439
  832POPC   PO415504  31.860  28.751   9.316
  832POPC   GL115505  32.129  29.135   9.090
  832POPC   GL215506  31.950  29.097   8.777
  832POPC   C1A15507  32.291  29.482   8.774
  832POPC   D2A15508  32.222  29.308   8.344
  832POPC   C3A15509  32.440  29.217   7.933
  832POPC   C4A15510  32.611  28.837   7.798
  832POPC   C1B15511  32.134  28.743   8.542
  832POPC   C2B15512  32.159  28.829   8.125
  832POPC   C3B15513  31.929  29.200   7.954
  832POPC   C4B15514  31.992  29.145   7.570
  833POPC   NC315515  29.653  16.593   9.569
  833POPC   PO415516  30.192  16.930   9.641
  833POPC   GL115517  30.058  16.695   9.251
  833POPC   GL215518  29.723  16.796   9.100
  833POPC   C1A15519  30.155  16.633   8.783
  833POPC   D2A15520  29.959  16.722   8.363
  833POPC   C3A15521  30.060  16.573   7.935
  833POPC   C4A15522  29.894  16.726   7.519
  833POPC   C1B15523  29.655  16.513   8.725
  833POPC   C2B15524  29.512  16.410   8.282
  833POPC   C3B15525  29.559  16.461   7.805
  833POPC   C4B15526  29.503  16.494   7.323
  834POPC   NC315527  10.368  43.379   9.459
  834POPC   PO415528  10.530  42.767   9.313
  834POPC   GL115529  10.456  43.062   9.067
  834POPC   GL215530  10.692  43.327   9.070
  834POPC   C1A15531  10.440  43.113   8.659
  834POPC   D2A15532  10.308  42.824   8.371
  834POPC   C3A15533  10.222  42.997   7.980
  834POPC   C4A15534  10.185  42.770   7.641
  834POPC   C1B15535  10.944  43.303   8.719
  834POPC   C2B15536  10.827  43.212   8.321
  834POPC   C3B15537  10.721  42.899   8.043
  834POPC   C4B15538  10.656  42.992   7.600
  835POPC   NC315539  28.190  25.637   9.551
  835POPC   PO415540  28.748  25.271   9.613
  835POPC   GL115541  28.589  25.126   9.192
  835POPC   GL215542  28.326  25.316   9.201
  835POPC   C1A15543  28.423  25.138   8.746
  835POPC   D2A15544  28.337  24.974   8.326
  835POPC   C3A15545  28.566  25.101   7.974
  835POPC   C4A15546  28.652  25.247   7.579
  835POPC   C1B15547  28.024  25.411   8.891
  835POPC   C2B15548  27.950  25.388   8.479
  835POPC   C3B15549  28.161  25.386   8.098
  835POPC   C4B15550  28.168  25.340   7.687
  836POPC   NC315551  37.189   2.645   9.439
  836POPC   PO415552  37.812   2.674   9.614
  836POPC   GL115553  37.617   2.859   9.201
  836POPC   GL215554  37.899   2.943   8.998
  836POPC   C1A15555  37.423   2.885   8.744
  836POPC   D2A15556  37.478   3.039   8.286
  836POPC   C3A15557  37.836   2.994   8.019
  836POPC   C4A15558  37.782   2.891   7.595
  836POPC   C1B15559  37.905   2.913   8.555
  836POPC   C2B15560  37.724   2.582   8.304
  836POPC   C3B15561  37.474   2.643   7.912
  836POPC   C4B15562  37.407   2.546   7.441
  837POPC   NC315563   5.576  17.593   9.507
  837POPC   PO415564   6.102  17.058   9.613
  837POPC   GL115565   6.060  17.398   9.327
  837POPC   GL215566   5.768  17.279   9.174
  837POPC   C1A15567   6.152  17.532   8.893
  837POPC   D2A15568   5.927  17.740   8.535
  837POPC   C3A15569   6.041  17.619   8.100
  837POPC   C4A15570   5.854  17.455   7.719
  837POPC   C1B15571   5.645  17.416   8.804
  837POPC   C2B15572   5.625  17.290   8.387
  837POPC   C3B15573   5.538  17.596   8.133
  837POPC   C4B15574   5.353  17.633   7.788
  838POPC   NC315575  31.545   2.955   9.635
  838POPC   PO415576  31.142   2.454   9.560
  838POPC   GL115577  31.404   2.601   9.229
  838POPC   GL215578  31.246   2.935   9.174
  838POPC   C1A15579  31.372   2.471   8.776
  838POPC   D2A15580  31.361   2.288   8.349
  838POPC   C3A15581  31.430   2.522   7.985
  838POPC   C4A15582  31.695   2.712   7.634
  838POPC   C1B15583  31.549   2.958   8.836
  838POPC   C2B15584  31.491   2.887   8.390
  838POPC   C3B15585  31.396   3.021   7.948
  838POPC   C4B15586  31.256   3.208   7.575
  839POPC   NC315587  17.705   0.350   9.534
  839POPC   PO415588  17.145   0.035   9.429
  839POPC   GL115589  17.363   0.352   9.138
  839POPC   GL215590  17.620   0.654   9.133
  839POPC   C1A15591  17.435   0.406   8.704
  839POPC   D2A15592  17.695   0.311   8.362
  839POPC   C3A15593  17.484   0.416   8.004
  839POPC   C4A15594  17.138   0.152   7.935
  839POPC   C1B15595  17.475   0.905   8.785
  839POPC   C2B15596  17.465   0.830   8.340
  839POPC   C3B15597  17.452   0.923   7.882
  839POPC   C4B15598  17.776   0.666   7.667
  840POPC   NC315599  10.289   5.101   9.879
  840POPC   PO415600  10.535   4.936   9.314
  840POPC   GL115601  10.542   5.250   9.034
  840POPC   GL215602  10.832   5.430   9.130
  840POPC   C1A15603  10.307   5.264   8.657
  840POPC   D2A15604  10.228   4.962   8.297
  840POPC   C3A15605  10.380   5.077   7.898
  840POPC   C4A15606  10.563   4.835   7.578
  840POPC   C1B15607  10.860   5.316   8.674
  840POPC   C2B15608  10.668   5.266   8.294
  840POPC   C3B15609  10.746   5.449   7.934
  840POPC   C4B15610  10.846   5.256   7.554
  841POPC   NC315611  23.809  12.782   9.578
  841POPC   PO415612  23.210  12.693   9.512
  841POPC   GL115613  23.496  12.851   9.167
  841POPC   GL215614  23.445  13.193   9.027
  841POPC   C1A15615  23.862  12.866   8.882
  841POPC   D2A15616  23.813  12.792   8.432
  841POPC   C3A15617  23.813  12.571   8.033
  841POPC   C4A15618  23.739  12.625   7.562
  841POPC   C1B15619  23.649  13.261   8.646
  841POPC   C2B15620  23.756  13.249   8.208
  841POPC   C3B15621  23.611  13.040   7.837
  841POPC   C4B15622  23.629  13.118   7.375
  842POPC   NC315623  43.855  33.616  10.029
  842POPC   PO415624  44.150  34.066   9.597
  842POPC   GL115625  43.984  33.801   9.207
  842POPC   GL215626  44.266  33.624   9.006
  842POPC   C1A15627  43.875  33.873   8.755
  842POPC   D2A15628  43.569  33.961   8.401
  842POPC   C3A15629  43.423  33.570   8.185
  842POPC   C4A15630  43.468  33.538   7.709
  842POPC   C1B15631  44.329  33.572   8.569
  842POPC   C2B15632  43.947  33.560   8.341
  842POPC   C3B15633  43.851  33.742   7.979
  842POPC   C4B15634  44.036  33.481   7.724
  843POPC   NC315635  27.150   5.618   9.489
  843POPC   PO415636  26.550   6.065   9.490
  843POPC   GL115637  26.718   5.878   9.187
  843POPC   GL215638  26.656   5.529   9.278
  843POPC   C1A15639  26.824   6.053   8.790
  843POPC   D2A15640  26.627   6.011   8.410
  843POPC   C3A15641  26.724   6.237   8.070
  843POPC   C4A15642  26.786   6.151   7.662
  843POPC   C1B15643  26.916   5.538   8.883
  843POPC   C2B15644  27.035   5.695   8.469
  843POPC   C3B15645  26.910   5.748   8.038
  843POPC   C4B15646  27.052   5.722   7.607
  844POPC   NC315647   7.338   9.716   9.528
  844POPC   PO415648   7.873  10.181   9.610
  844POPC   GL115649   7.704  10.115   9.169
  844POPC   GL215650   7.635   9.745   9.082
  844POPC   C1A15651   7.750  10.063   8.715
  844POPC   D2A15652   7.622   9.778   8.400
  844POPC   C3A15653   7.374   9.850   8.051
  844POPC   C4A15654   7.396   9.739   7.624
  844POPC   C1B15655   7.285   9.741   8.819
  844POPC   C2B15656   7.167   9.541   8.465
  844POPC   C3B15657   7.121   9.407   8.053
  844POPC   C4B15658   7.114   9.284   7.639
  845POPC   NC315659  35.524  40.609   9.897
  845POPC   PO415660  34.991  41.013   9.542
  845POPC   GL115661  35.217  40.704   9.249
  845POPC   GL215662  35.599  40.737   9.205
  845POPC   C1A15663  35.294  40.737   8.793
  845POPC   D2A15664  35.120  41.043   8.494
  845POPC   C3A15665  35.045  40.901   8.095
  845POPC   C4A15666  35.046  41.062   7.722
  845POPC   C1B15667  35.786  40.875   8.777
  845POPC   C2B15668  35.657  40.851   8.319
  845POPC   C3B15669  35.445  40.627   7.973
  845POPC   C4B15670  35.118  40.481   7.693
  846POPC   NC315671  14.737   3.231   9.258
  846POPC   PO415672  14.254   2.741   9.558
  846POPC   GL115673  14.344   2.836   9.121
  846POPC   GL215674  14.417   2.503   9.061
  846POPC   C1A15675  14.614   2.829   8.736
  846POPC   D2A15676  14.779   2.781   8.326
  846POPC   C3A15677  14.527   2.912   8.018
  846POPC   C4A15678  14.427   2.888   7.607
  846POPC   C1B15679  14.044   2.594   8.782
  846POPC   C2B15680  13.842   2.642   8.354
  846POPC   C3B15681  14.042   2.559   7.940
  846POPC   C4B15682  14.467   2.409   7.770
  847POPC   NC315683  19.680  22.600   9.513
  847POPC   PO415684  19.854  21.944   9.608
  847POPC   GL115685  19.869  21.884   9.187
  847POPC   GL215686  19.649  22.181   9.178
  847POPC   C1A15687  19.952  22.117   8.788
  847POPC   D2A15688  19.751  22.089   8.405
  847POPC   C3A15689  19.830  22.374   8.087
  847POPC   C4A15690  20.012  22.188   7.741
  847POPC   C1B15691  19.411  22.274   8.784
  847POPC   C2B15692  19.314  22.417   8.358
  847POPC   C3B15693  19.270  22.428   7.917
  847POPC   C4B15694  19.563  22.340   7.633
  848POPC   NC315695  30.279  14.837   9.438
  848POPC   PO415696  30.859  14.518   9.529
  848POPC   GL115697  30.637  14.404   9.152
  848POPC   GL215698  30.951  14.273   9.067
  848POPC   C1A15699  30.626  14.221   8.691
  848POPC   D2A15700  30.689  14.395   8.274
  848POPC   C3A15701  30.569  14.219   7.870
  848POPC   C4A15702  30.571  14.007   7.459
  848POPC   C1B15703  31.054  14.591   8.790
  848POPC   C2B15704  31.211  14.546   8.371
  848POPC   C3B15705  31.045  14.618   7.956
  848POPC   C4B15706  30.632  14.717   7.847
  849POPC   NC315707   0.701  43.873   9.543
  849POPC   PO415708   0.228  44.294   9.247
  849POPC   GL115709   0.511  44.021   9.105
  849POPC   GL215710   0.303  43.751   9.140
  849POPC   C1A15711   0.671  43.712   8.807
  849POPC   D2A15712   0.802  43.974   8.498
  849POPC   C3A15713   0.700  43.937   8.054
  849POPC   C4A15714   0.527  43.925   7.592
  849POPC   C1B15715   0.215  43.901   8.715
  849POPC   C2B15716   0.355  43.691   8.374
  849POPC   C3B15717   0.211  43.773   7.974
  849POPC   C4B15718   0.105  44.166   7.738
  850POPC   NC315719  33.098  20.073   9.664
  850POPC   PO415720  33.363  19.546   9.364
  850POPC   GL115721  33.262  19.800   9.016
  850POPC   GL215722  32.975  19.920   9.162
  850POPC   C1A15723  32.970  19.683   8.685
  850POPC   D2A15724  32.763  19.574   8.320
  850POPC   C3A15725  33.007  19.709   7.938
  850POPC   C4A15726  32.952  19.526   7.534
  850POPC   C1B15727  32.998  20.180   8.771
  850POPC   C2B15728  32.923  20.081   8.316
  850POPC   C3B15729  32.759  20.157   7.883
  850POPC   C4B15730  32.769  20.015   7.457
  851POPC   NC315731  27.070  10.596   9.473
  851POPC   PO415732  26.539  10.133   9.561
  851POPC   GL115733  26.645  10.420   9.171
  851POPC   GL215734  26.962  10.551   8.996
  851POPC   C1A15735  26.511  10.560   8.781
  851POPC   D2A15736  26.763  10.502   8.430
  851POPC   C3A15737  26.651  10.605   7.997
  851POPC   C4A15738  26.805  10.776   7.601
  851POPC   C1B15739  27.228  10.446   8.646
  851POPC   C2B15740  27.133  10.259   8.208
  851POPC   C3B15741  26.988  10.299   7.757
  851POPC   C4B15742  26.921  10.065   7.323
  852POPC   NC315743  11.598  42.773   9.522
  852POPC   PO415744  12.087  42.341   9.774
  852POPC   GL115745  12.096  42.426   9.290
  852POPC   GL215746  11.958  42.098   9.093
  852POPC   C1A15747  12.001  42.522   8.838
  852POPC   D2A15748  11.844  42.338   8.452
  852POPC   C3A15749  12.058  42.482   8.100
  852POPC   C4A15750  11.921  42.479   7.659
  852POPC   C1B15751  11.839  41.891   8.717
  852POPC   C2B15752  12.008  41.811   8.308
  852POPC   C3B15753  12.103  42.014   7.921
  852POPC   C4B15754  12.390  42.278   7.679
  853POPC   NC315755   7.581  34.315   9.827
  853POPC   PO415756   7.235  34.799   9.512
  853POPC   GL115757   7.380  34.598   9.147
  853POPC   GL215758   7.090  34.373   9.113
  853POPC   C1A15759   7.518  34.502   8.720
  853POPC   D2A15760   7.745  34.529   8.336
  853POPC   C3A15761   7.598  34.693   7.936
  853POPC   C4A15762   7.621  34.611   7.506
  853POPC   C1B15763   7.024  34.639   8.744
  853POPC   C2B15764   7.203  34.689   8.317
  853POPC   C3B15765   7.064  34.782   7.872
  853POPC   C4B15766   6.864  34.615   7.479
  854POPC   NC315767   2.775  35.139   9.472
  854POPC   PO415768   2.815  34.479   9.286
  854POPC   GL115769   2.627  34.508   8.939
  854POPC   GL215770   2.592  34.844   9.000
  854POPC   C1A15771   2.789  34.406   8.560
  854POPC   D2A15772   3.128  34.374   8.346
  854POPC   C3A15773   3.111  34.545   7.975
  854POPC   C4A15774   2.856  34.567   7.629
  854POPC   C1B15775   2.551  34.845   8.537
  854POPC   C2B15776   2.616  34.708   8.100
  854POPC   C3B15777   2.400  34.776   7.681
  854POPC   C4B15778   2.522  34.686   7.226
  855POPC   NC315779  37.317   5.336   9.472
  855POPC   PO415780  36.850   4.888   9.607
  855POPC   GL115781  36.847   5.142   9.258
  855POPC   GL215782  37.125   5.028   9.105
  855POPC   C1A15783  36.722   5.158   8.821
  855POPC   D2A15784  36.698   5.066   8.387
  855POPC   C3A15785  36.956   5.292   8.088
  855POPC   C4A15786  36.925   5.529   7.730
  855POPC   C1B15787  37.102   4.843   8.679
  855POPC   C2B15788  37.141   4.848   8.231
  855POPC   C3B15789  36.835   4.838   7.873
  855POPC   C4B15790  36.894   4.937   7.421
  856POPC   NC315791  26.509  43.192   9.600
  856POPC   PO415792  26.933  42.821   9.283
  856POPC   GL115793  26.908  43.169   9.065
  856POPC   GL215794  26.561  43.285   9.109
  856POPC   C1A15795  27.047  43.096   8.639
  856POPC   D2A15796  27.217  42.830   8.348
  856POPC   C3A15797  26.912  42.787   8.009
  856POPC   C4A15798  27.073  43.081   7.734
  856POPC   C1B15799  26.522  43.087   8.707
  856POPC   C2B15800  26.652  43.142   8.261
  856POPC   C3B15801  26.576  43.156   7.787
  856POPC   C4B15802  26.470  43.362   7.399
  857POPC   NC315803  30.227   9.615   9.379
  857POPC   PO415804  29.640  10.014   9.479
  857POPC   GL115805  29.834   9.867   9.159
  857POPC   GL215806  29.906  10.157   9.026
  857POPC   C1A15807  29.822   9.610   8.820
  857POPC   D2A15808  29.916   9.527   8.411
  857POPC   C3A15809  29.561   9.656   8.165
  857POPC   C4A15810  29.629   9.781   7.732
  857POPC   C1B15811  29.988  10.070   8.630
  857POPC   C2B15812  29.917  10.016   8.217
  857POPC   C3B15813  30.082   9.739   7.958
  857POPC   C4B15814  30.189   9.780   7.571
  858POPC   NC315815  25.009  26.282   9.649
  858POPC   PO415816  25.567  25.949   9.574
  858POPC   GL115817  25.199  26.037   9.250
  858POPC   GL215818  24.899  26.286   9.167
  858POPC   C1A15819  25.168  26.065   8.794
  858POPC   D2A15820  24.984  26.165   8.382
  858POPC   C3A15821  25.040  25.864   8.094
  858POPC   C4A15822  25.291  25.963   7.769
  858POPC   C1B15823  24.941  26.520   8.800
  858POPC   C2B15824  25.195  26.637   8.446
  858POPC   C3B15825  25.320  26.391   8.084
  858POPC   C4B15826  24.948  26.341   7.857
  859POPC   NC315827  27.589  15.318   9.863
  859POPC   PO415828  27.627  15.964   9.843
  859POPC   GL115829  27.694  15.954   9.401
  859POPC   GL215830  27.386  16.085   9.249
  859POPC   C1A15831  27.670  15.756   9.002
  859POPC   D2A15832  27.696  15.718   8.526
  859POPC   C3A15833  27.558  15.819   8.094
  859POPC   C4A15834  27.699  15.956   7.683
  859POPC   C1B15835  27.378  16.126   8.793
  859POPC   C2B15836  27.529  16.270   8.379
  859POPC   C3B15837  27.364  16.291   7.964
  859POPC   C4B15838  27.171  15.973   7.686
  860POPC   NC315839  38.451  44.849   9.756
  860POPC   PO415840  38.690   0.190   9.251
  860POPC   GL115841  38.504  44.729   9.218
  860POPC   GL215842  38.734  44.417   9.299
  860POPC   C1A15843  38.233  44.567   8.864
  860POPC   D2A15844  37.990  44.580   8.455
  860POPC   C3A15845  38.185  44.664   8.040
  860POPC   C4A15846  38.348   0.036   7.817
  860POPC   C1B15847  38.761  44.468   8.822
  860POPC   C2B15848  38.558  44.647   8.410
  860POPC   C3B15849  38.727  44.639   7.946
  860POPC   C4B15850  38.926  44.326   7.612
  861POPC   NC315851  13.996  39.396   9.693
  861POPC   PO415852  13.310  39.209   9.501
  861POPC   GL115853  13.427  39.058   9.151
  861POPC   GL215854  13.673  39.310   9.102
  861POPC   C1A15855  13.605  38.877   8.781
  861POPC   D2A15856  13.465  38.948   8.388
  861POPC   C3A15857  13.786  38.935   8.077
  861POPC   C4A15858  13.661  38.858   7.694
  861POPC   C1B15859  13.385  39.363   8.731
  861POPC   C2B15860  13.279  39.495   8.321
  861POPC   C3B15861  13.468  39.313   8.005
  861POPC   C4B15862  13.797  39.388   7.769
  862POPC   NC315863  22.142  26.953   9.608
  862POPC   PO415864  22.084  26.313   9.475
  862POPC   GL115865  22.113  26.651   9.161
  862POPC   GL215866  22.308  26.985   9.145
  862POPC   C1A15867  22.075  26.800   8.743
  862POPC   D2A15868  21.990  27.028   8.375
  862POPC   C3A15869  22.193  26.794   8.081
  862POPC   C4A15870  22.280  26.620   7.685
  862POPC   C1B15871  22.492  27.103   8.765
  862POPC   C2B15872  22.449  27.319   8.383
  862POPC   C3B15873  22.297  27.311   8.011
  862POPC   C4B15874  22.568  27.005   7.841
  863POPC   NC315875   8.964  40.939   9.575
  863POPC   PO415876   8.802  40.530   9.096
  863POPC   GL115877   8.915  40.961   9.002
  863POPC   GL215878   9.257  41.027   9.016
  863POPC   C1A15879   9.005  41.106   8.564
  863POPC   D2A15880   9.238  40.932   8.230
  863POPC   C3A15881   8.951  40.632   8.156
  863POPC   C4A15882   8.851  40.788   7.788
  863POPC   C1B15883   9.359  40.728   8.685
  863POPC   C2B15884   9.532  40.513   8.360
  863POPC   C3B15885   9.370  40.456   7.963
  863POPC   C4B15886   8.989  40.257   7.777
  864POPC   NC315887  40.140  23.399   9.557
  864POPC   PO415888  39.770  23.923   9.461
  864POPC   GL115889  39.899  23.623   9.169
  864POPC   GL215890  40.209  23.745   9.098
  864POPC   C1A15891  39.861  23.636   8.716
  864POPC   D2A15892  39.891  23.915   8.386
  864POPC   C3A15893  39.770  23.794   8.010
  864POPC   C4A15894  39.776  24.004   7.594
  864POPC   C1B15895  40.322  23.434   8.810
  864POPC   C2B15896  40.305  23.610   8.375
  864POPC   C3B15897  40.308  23.451   7.946
  864POPC   C4B15898  40.013  23.555   7.648
  865POPC   NC315899   8.432  33.189   9.594
  865POPC   PO415900   7.901  32.829   9.450
  865POPC   GL115901   8.071  32.939   9.053
  865POPC   GL215902   8.348  33.147   9.094
  865POPC   C1A15903   8.223  32.938   8.624
  865POPC   D2A15904   8.509  32.746   8.319
  865POPC   C3A15905   8.350  32.822   7.910
  865POPC   C4A15906   7.921  32.948   7.852
  865POPC   C1B15907   8.614  33.479   8.888
  865POPC   C2B15908   8.621  33.527   8.439
  865POPC   C3B15909   8.580  33.275   8.060
  865POPC   C4B15910   8.516  33.196   7.615
  866POPC   NC315911   6.618  18.824   9.347
  866POPC   PO415912   6.567  19.455   9.092
  866POPC   GL115913   6.881  19.226   8.869
  866POPC   GL215914   6.872  18.847   8.897
  866POPC   C1A15915   7.134  19.110   8.529
  866POPC   D2A15916   6.847  18.835   8.332
  866POPC   C3A15917   6.548  19.160   8.231
  866POPC   C4A15918   6.560  19.336   7.831
  866POPC   C1B15919   6.468  18.825   8.685
  866POPC   C2B15920   6.229  18.770   8.301
  866POPC   C3B15921   6.367  18.841   7.878
  866POPC   C4B15922   6.830  18.705   7.830
  867POPC   NC315923  33.658   2.666   9.366
  867POPC   PO415924  34.239   2.877   9.682
  867POPC   GL115925  34.135   2.917   9.209
  867POPC   GL215926  34.027   2.665   9.019
  867POPC   C1A15927  34.019   3.107   8.774
  867POPC   D2A15928  33.867   3.161   8.360
  867POPC   C3A15929  33.885   2.971   7.942
  867POPC   C4A15930  33.506   2.991   7.657
  867POPC   C1B15931  33.739   2.699   8.690
  867POPC   C2B15932  33.984   2.660   8.347
  867POPC   C3B15933  34.050   2.405   7.987
  867POPC   C4B15934  33.786   2.555   7.642
  868POPC   NC315935  42.924  32.062   9.531
  868POPC   PO415936  43.409  32.524   9.406
  868POPC   GL115937  43.221  32.263   9.112
  868POPC   GL215938  42.872  32.283   9.082
  868POPC   C1A15939  43.166  32.230   8.663
  868POPC   D2A15940  43.174  32.046   8.262
  868POPC   C3A15941  43.214  32.252   7.863
  868POPC   C4A15942  43.028  32.641   7.865
  868POPC   C1B15943  42.689  32.057   8.739
  868POPC   C2B15944  42.600  32.121   8.302
  868POPC   C3B15945  42.785  31.942   7.920
  868POPC   C4B15946  42.979  31.925   7.521
  869POPC   NC315947  15.437  20.135   9.817
  869POPC   PO415948  15.278  19.560   9.529
  869POPC   GL115949  15.171  19.603   9.146
  869POPC   GL215950  14.932  19.825   9.154
  869POPC   C1A15951  15.288  19.712   8.753
  869POPC   D2A15952  15.149  19.826   8.396
  869POPC   C3A15953  15.414  19.723   8.119
  869POPC   C4A15954  15.357  19.712   7.729
  869POPC   C1B15955  14.985  20.135   8.785
  869POPC   C2B15956  15.047  20.330   8.370
  869POPC   C3B15957  15.164  20.148   7.975
  869POPC   C4B15958  14.999  20.054   7.582
  870POPC   NC315959   5.275  28.897   9.524
  870POPC   PO415960   4.914  29.455   9.509
  870POPC   GL115961   4.770  29.368   9.105
  870POPC   GL215962   4.944  29.056   9.127
  870POPC   C1A15963   4.855  29.267   8.681
  870POPC   D2A15964   5.108  29.210   8.326
  870POPC   C3A15965   4.894  29.190   7.953
  870POPC   C4A15966   4.664  29.440   7.665
  870POPC   C1B15967   5.243  28.950   8.781
  870POPC   C2B15968   5.387  28.796   8.357
  870POPC   C3B15969   5.393  29.011   7.908
  870POPC   C4B15970   5.425  28.966   7.432
  871POPC   NC315971  14.324   3.945   9.346
  871POPC   PO415972  14.615   4.557   9.511
  871POPC   GL115973  14.397   4.411   9.149
  871POPC   GL215974  14.653   4.162   9.022
  871POPC   C1A15975  14.225   4.234   8.749
  871POPC   D2A15976  14.370   4.375   8.352
  871POPC   C3A15977  14.209   4.228   7.954
  871POPC   C4A15978  14.445   4.198   7.572
  871POPC   C1B15979  14.700   4.503   8.738
  871POPC   C2B15980  14.869   4.576   8.327
  871POPC   C3B15981  14.689   4.443   7.936
  871POPC   C4B15982  14.841   4.484   7.473
  872POPC   NC315983  23.956  44.141   9.532
  872POPC   PO415984  23.646  43.576   9.500
  872POPC   GL115985  23.594  43.854   9.173
  872POPC   GL215986  23.304  43.647   9.078
  872POPC   C1A15987  23.836  43.972   8.791
  872POPC   D2A15988  23.725  43.810   8.372
  872POPC   C3A15989  23.878  43.906   7.932
  872POPC   C4A15990  23.737  43.578   7.637
  872POPC   C1B15991  23.311  43.856   8.720
  872POPC   C2B15992  23.271  44.049   8.347
  872POPC   C3B15993  23.376  43.852   7.978
  872POPC   C4B15994  23.368  44.096   7.624
  873POPC   NC315995   4.619  30.310   9.792
  873POPC   PO415996   4.314  29.780   9.653
  873POPC   GL115997   4.492  29.794   9.229
  873POPC   GL215998   4.433  30.113   9.080
  873POPC   C1A15999   4.480  29.690   8.775
  873POPC   D2A16000   4.194  29.703   8.414
  873POPC   C3A16001   4.378  29.721   8.007
  873POPC   C4A16002   4.304  29.786   7.573
  873POPC   C1B16003   4.694  30.164   8.694
  873POPC   C2B16004   4.646  30.091   8.253
  873POPC   C3B16005   4.670  30.100   7.791
  873POPC   C4B16006   4.735  30.309   7.382
  874POPC   NC316007   5.757  18.581   9.426
  874POPC   PO416008   5.910  17.914   9.468
  874POPC   GL116009   5.844  18.191   9.113
  874POPC   GL216010   6.138  18.140   9.022
  874POPC   C1A16011   5.629  18.441   8.761
  874POPC   D2A16012   5.381  18.546   8.340
  874POPC   C3A16013   5.549  18.415   7.916
  874POPC   C4A16014   5.755  17.990   7.831
  874POPC   C1B16015   6.143  18.398   8.670
  874POPC   C2B16016   5.877  18.415   8.318
  874POPC   C3B16017   6.044  18.440   7.914
  874POPC   C4B16018   5.977  18.322   7.489
  875POPC   NC316019  35.776  28.813   9.426
  875POPC   PO416020  35.209  29.240   9.616
  875POPC   GL116021  35.224  29.435   9.179
  875POPC   GL216022  35.582  29.333   8.945
  875POPC   C1A16023  35.147  29.487   8.767
  875POPC   D2A16024  35.237  29.180   8.447
  875POPC   C3A16025  35.579  29.240   8.188
  875POPC   C4A16026  35.456  29.391   7.833
  875POPC   C1B16027  35.673  28.944   8.631
  875POPC   C2B16028  35.602  28.733   8.206
  875POPC   C3B16029  35.562  28.868   7.773
  875POPC   C4B16030  35.694  28.777   7.292
  876POPC   NC316031  36.553   7.488   9.902
  876POPC   PO416032  36.077   7.215   9.610
  876POPC   GL116033  35.886   7.235   9.159
  876POPC   GL216034  36.211   7.336   8.994
  876POPC   C1A16035  35.815   7.445   8.724
  876POPC   D2A16036  36.136   7.647   8.469
  876POPC   C3A16037  36.038   7.641   8.049
  876POPC   C4A16038  36.021   7.296   7.809
  876POPC   C1B16039  36.218   7.139   8.558
  876POPC   C2B16040  36.162   6.945   8.152
  876POPC   C3B16041  36.414   6.994   7.738
  876POPC   C4B16042  36.292   7.121   7.264
  877POPC   NC316043  26.943  29.647   9.491
  877POPC   PO416044  26.555  30.182   9.444
  877POPC   GL116045  26.878  30.022   9.141
  877POPC   GL216046  26.743  29.687   9.022
  877POPC   C1A16047  27.062  30.016   8.703
  877POPC   D2A16048  27.146  30.239   8.298
  877POPC   C3A16049  26.914  30.172   7.910
  877POPC   C4A16050  26.848  30.026   7.472
  877POPC   C1B16051  26.540  30.019   8.758
  877POPC   C2B16052  26.656  30.072   8.341
  877POPC   C3B16053  26.475  29.957   7.949
  877POPC   C4B16054  26.373  30.163   7.579
  878POPC   NC316055   1.215  15.465   9.440
  878POPC   PO416056   1.564  14.897   9.458
  878POPC   GL116057   1.351  14.906   9.032
  878POPC   GL216058   1.119  15.208   9.004
  878POPC   C1A16059   1.307  14.977   8.593
  878POPC   D2A16060   1.163  15.316   8.368
  878POPC   C3A16061   1.275  15.228   7.943
  878POPC   C4A16062   1.096  15.397   7.572
  878POPC   C1B16063   0.809  15.068   8.705
  878POPC   C2B16064   0.687  15.117   8.297
  878POPC   C3B16065   0.899  14.897   7.948
  878POPC   C4B16066   0.951  14.561   7.642
  879POPC   NC316067  14.677   7.264   9.692
  879POPC   PO416068  14.186   7.696   9.516
  879POPC   GL116069  14.328   7.397   9.204
  879POPC   GL216070  14.624   7.170   9.195
  879POPC   C1A16071  14.245   7.302   8.768
  879POPC   D2A16072  14.037   7.244   8.369
  879POPC   C3A16073  14.118   7.305   7.917
  879POPC   C4A16074  14.435   7.596   7.715
  879POPC   C1B16075  14.731   7.428   8.857
  879POPC   C2B16076  14.590   7.545   8.436
  879POPC   C3B16077  14.578   7.236   8.114
  879POPC   C4B16078  14.505   7.040   7.725
  880POPC   NC316079  17.492   4.633   9.404
  880POPC   PO416080  17.556   5.319   9.531
  880POPC   GL116081  17.596   5.108   9.136
  880POPC   GL216082  17.856   4.855   9.119
  880POPC   C1A16083  17.679   5.077   8.691
  880POPC   D2A16084  17.721   5.367   8.368
  880POPC   C3A16085  17.645   5.198   7.965
  880POPC   C4A16086  17.608   5.428   7.549
  880POPC   C1B16087  17.774   4.558   8.772
  880POPC   C2B16088  17.651   4.607   8.358
  880POPC   C3B16089  17.656   4.681   7.923
  880POPC   C4B16090  17.311   4.915   7.707
  881POPC   NC316091   0.896  34.180   9.492
  881POPC   PO416092   0.328  34.681   9.252
  881POPC   GL116093   0.321  34.421   8.995
  881POPC   GL216094   0.608  34.236   9.087
  881POPC   C1A16095   0.179  34.548   8.615
  881POPC   D2A16096   0.265  34.759   8.288
  881POPC   C3A16097   0.146  34.549   7.956
  881POPC   C4A16098   0.244  34.643   7.571
  881POPC   C1B16099   0.732  34.419   8.702
  881POPC   C2B16100   0.611  34.363   8.283
  881POPC   C3B16101   0.647  34.534   7.874
  881POPC   C4B16102   0.718  34.448   7.442
  882POPC   NC316103  32.608   5.238   9.527
  882POPC   PO416104  33.136   4.814   9.690
  882POPC   GL116105  33.125   4.825   9.258
  882POPC   GL216106  32.788   4.718   9.253
  882POPC   C1A16107  33.123   5.151   8.904
  882POPC   D2A16108  33.234   5.260   8.467
  882POPC   C3A16109  32.985   5.348   8.103
  882POPC   C4A16110  33.179   5.416   7.739
  882POPC   C1B16111  32.711   4.834   8.834
  882POPC   C2B16112  32.733   5.033   8.439
  882POPC   C3B16113  32.831   4.867   8.021
  882POPC   C4B16114  32.592   5.013   7.734
  883POPC   NC316115  30.387  16.518   9.644
  883POPC   PO416116  31.001  16.354   9.529
  883POPC   GL116117  30.868  16.618   9.188
  883POPC   GL216118  30.532  16.507   9.153
  883POPC   C1A16119  30.790  16.649   8.712
  883POPC   D2A16120  30.510  16.568   8.337
  883POPC   C3A16121  30.694  16.631   7.903
  883POPC   C4A16122  31.140  16.617   7.708
  883POPC   C1B16123  30.488  16.942   9.015
  883POPC   C2B16124  30.446  17.037   8.564
  883POPC   C3B16125  30.337  16.993   8.116
  883POPC   C4B16126  30.332  16.946   7.675
  884POPC   NC316127   7.226  38.838   9.454
  884POPC   PO416128   7.268  39.564   9.588
  884POPC   GL116129   7.433  39.470   9.203
  884POPC   GL216130   7.774  39.589   9.128
  884POPC   C1A16131   7.235  39.211   8.894
  884POPC   D2A16132   7.042  39.130   8.510
  884POPC   C3A16133   7.313  39.002   8.168
  884POPC   C4A16134   7.306  39.321   7.882
  884POPC   C1B16135   7.615  39.519   8.723
  884POPC   C2B16136   7.472  39.503   8.331
  884POPC   C3B16137   7.707  39.573   7.959
  884POPC   C4B16138   7.886  39.183   7.823
  885POPC   NC316139  20.042   3.932   9.512
  885POPC   PO416140  19.513   3.490   9.539
  885POPC   GL116141  19.747   3.481   9.144
  885POPC   GL216142  19.734   3.807   9.130
  885POPC   C1A16143  19.863   3.370   8.711
  885POPC   D2A16144  20.039   3.135   8.296
  885POPC   C3A16145  19.866   3.376   7.952
  885POPC   C4A16146  20.040   3.434   7.559
  885POPC   C1B16147  19.621   3.859   8.733
  885POPC   C2B16148  19.624   3.668   8.328
  885POPC   C3B16149  19.571   3.832   7.923
  885POPC   C4B16150  19.902   3.898   7.653
  886POPC   NC316151  42.085  26.946   9.490
  886POPC   PO416152  42.494  26.501   9.539
  886POPC   GL116153  42.400  26.709   9.170
  886POPC   GL216154  42.433  27.056   9.136
  886POPC   C1A16155  42.470  26.733   8.741
  886POPC   D2A16156  42.325  26.917   8.373
  886POPC   C3A16157  42.242  26.675   8.029
  886POPC   C4A16158  42.401  26.690   7.649
  886POPC   C1B16159  42.073  27.075   8.823
  886POPC   C2B16160  41.974  27.264   8.413
  886POPC   C3B16161  42.011  27.123   7.983
  886POPC   C4B16162  42.028  27.127   7.540
  887POPC   NC316163  38.301   3.314   9.397
  887POPC   PO416164  38.558   3.915   9.333
  887POPC   GL116165  38.449   3.734   9.043
  887POPC   GL216166  38.094   3.808   9.079
  887POPC   C1A16167  38.664   3.715   8.662
  887POPC   D2A16168  38.750   3.800   8.238
  887POPC   C3A16169  38.681   3.510   7.923
  887POPC   C4A16170  38.365   3.468   7.631
  887POPC   C1B16171  38.139   3.470   8.764
  887POPC   C2B16172  38.400   3.385   8.388
  887POPC   C3B16173  38.327   3.144   8.064
  887POPC   C4B16174  38.263   2.969   7.695
  888POPC   NC316175   3.411  13.545   9.479
  888POPC   PO416176   3.873  14.091   9.487
  888POPC   GL116177   3.680  13.824   9.119
  888POPC   GL216178   3.727  13.463   9.098
  888POPC   C1A16179   3.547  13.708   8.670
  888POPC   D2A16180   3.320  13.614   8.287
  888POPC   C3A16181   3.502  13.633   7.858
  888POPC   C4A16182   3.435  13.665   7.412
  888POPC   C1B16183   3.824  13.268   8.752
  888POPC   C2B16184   3.713  13.285   8.310
  888POPC   C3B16185   3.875  13.243   7.893
  888POPC   C4B16186   3.887  13.458   7.488
  889POPC   NC316187   7.281  38.042   9.538
  889POPC   PO416188   7.611  38.569   9.650
  889POPC   GL116189   7.627  38.379   9.209
  889POPC   GL216190   7.357  38.165   9.032
  889POPC   C1A16191   7.570  38.512   8.751
  889POPC   D2A16192   7.459  38.241   8.389
  889POPC   C3A16193   7.642  38.309   7.977
  889POPC   C4A16194   7.700  38.702   7.732
  889POPC   C1B16195   7.035  38.191   8.668
  889POPC   C2B16196   6.983  38.177   8.190
  889POPC   C3B16197   7.152  38.385   7.793
  889POPC   C4B16198   7.076  38.219   7.362
  890POPC   NC316199  30.049   7.617   9.673
  890POPC   PO416200  29.539   7.177   9.612
  890POPC   GL116201  29.790   7.354   9.244
  890POPC   GL216202  30.129   7.561   9.175
  890POPC   C1A16203  29.750   7.512   8.820
  890POPC   D2A16204  29.938   7.463   8.422
  890POPC   C3A16205  29.707   7.521   8.047
  890POPC   C4A16206  29.850   7.363   7.657
  890POPC   C1B16207  30.182   7.776   8.781
  890POPC   C2B16208  30.358   7.805   8.362
  890POPC   C3B16209  30.220   7.578   7.972
  890POPC   C4B16210  30.299   7.545   7.476
  891POPC   NC316211  31.425   2.102   9.657
  891POPC   PO416212  31.923   1.849   9.406
  891POPC   GL116213  31.591   1.986   9.118
  891POPC   GL216214  31.229   2.096   9.184
  891POPC   C1A16215  31.667   2.018   8.675
  891POPC   D2A16216  31.889   2.007   8.271
  891POPC   C3A16217  31.611   1.929   7.960
  891POPC   C4A16218  31.553   2.220   7.596
  891POPC   C1B16219  31.148   1.984   8.770
  891POPC   C2B16220  31.281   1.792   8.390
  891POPC   C3B16221  31.123   1.697   8.046
  891POPC   C4B16222  31.186   1.884   7.699
  892POPC   NC316223   6.879  30.534   9.466
  892POPC   PO416224   6.285  30.712   9.388
  892POPC   GL116225   6.477  30.807   9.032
  892POPC   GL216226   6.866  30.809   9.037
  892POPC   C1A16227   6.592  30.944   8.631
  892POPC   D2A16228   6.932  30.844   8.340
  892POPC   C3A16229   6.728  30.742   7.991
  892POPC   C4A16230   6.471  30.620   7.644
  892POPC   C1B16231   7.030  30.498   8.713
  892POPC   C2B16232   6.910  30.285   8.287
  892POPC   C3B16233   6.820  30.286   7.803
  892POPC   C4B16234   6.887  30.464   7.380
  893POPC   NC316235  13.502  11.699   9.291
  893POPC   PO416236  13.838  12.260   9.446
  893POPC   GL116237  13.745  12.117   9.066
  893POPC   GL216238  13.393  12.050   8.975
  893POPC   C1A16239  13.898  11.910   8.762
  893POPC   D2A16240  13.823  11.696   8.439
  893POPC   C3A16241  13.744  11.902   8.074
  893POPC   C4A16242  13.654  11.640   7.738
  893POPC   C1B16243  13.427  12.003   8.557
  893POPC   C2B16244  13.351  12.220   8.217
  893POPC   C3B16245  13.268  11.978   7.890
  893POPC   C4B16246  13.115  11.869   7.506
  894POPC   NC316247  35.021  19.903   9.696
  894POPC   PO416248  35.713  19.684   9.577
  894POPC   GL116249  35.399  19.918   9.268
  894POPC   GL216250  35.073  19.815   9.197
  894POPC   C1A16251  35.235  20.171   8.881
  894POPC   D2A16252  35.295  20.055   8.453
  894POPC   C3A16253  35.483  20.210   8.085
  894POPC   C4A16254  35.478  20.099   7.690
  894POPC   C1B16255  35.232  19.674   8.788
  894POPC   C2B16256  35.364  19.564   8.375
  894POPC   C3B16257  35.478  19.699   7.994
  894POPC   C4B16258  35.411  19.594   7.564
  895POPC   NC316259  22.621  43.004   9.694
  895POPC   PO416260  21.995  43.264   9.519
  895POPC   GL116261  22.188  43.077   9.173
  895POPC   GL216262  22.234  43.376   9.065
  895POPC   C1A16263  22.067  42.972   8.737
  895POPC   D2A16264  22.186  43.079   8.295
  895POPC   C3A16265  22.065  42.908   7.875
  895POPC   C4A16266  21.722  42.979   7.589
  895POPC   C1B16267  22.324  43.570   8.710
  895POPC   C2B16268  22.484  43.480   8.328
  895POPC   C3B16269  22.342  43.448   7.925
  895POPC   C4B16270  22.098  43.341   7.563
  896POPC   NC316271  19.334   4.055   9.338
  896POPC   PO416272  18.919   4.485   9.637
  896POPC   GL116273  19.120   4.534   9.198
  896POPC   GL216274  19.477   4.658   9.162
  896POPC   C1A16275  19.255   4.367   8.760
  896POPC   D2A16276  19.433   4.180   8.372
  896POPC   C3A16277  19.125   3.995   8.107
  896POPC   C4A16278  19.122   4.094   7.670
  896POPC   C1B16279  19.295   4.874   8.800
  896POPC   C2B16280  19.019   4.728   8.463
  896POPC   C3B16281  19.034   4.506   8.098
  896POPC   C4B16282  19.162   4.606   7.705
  897POPC   NC316283   6.147   8.615   9.210
  897POPC   PO416284   6.674   8.918   9.474
  897POPC   GL116285   6.539   8.899   9.056
  897POPC   GL216286   6.330   9.185   9.030
  897POPC   C1A16287   6.551   8.994   8.600
  897POPC   D2A16288   6.960   9.042   8.378
  897POPC   C3A16289   6.948   8.901   7.977
  897POPC   C4A16290   6.526   8.886   7.808
  897POPC   C1B16291   6.780   9.340   8.880
  897POPC   C2B16292   6.677   9.471   8.443
  897POPC   C3B16293   6.632   9.328   8.033
  897POPC   C4B16294   6.609   9.358   7.580
  898POPC   NC316295  26.153   5.691   9.509
  898POPC   PO416296  25.780   6.242   9.539
  898POPC   GL116297  26.098   6.108   9.214
  898POPC   GL216298  25.999   5.787   9.037
  898POPC   C1A16299  26.273   6.105   8.787
  898POPC   D2A16300  26.147   5.827   8.438
  898POPC   C3A16301  26.241   6.006   8.025
  898POPC   C4A16302  25.994   6.053   7.644
  898POPC   C1B16303  25.911   5.458   8.735
  898POPC   C2B16304  25.701   5.532   8.370
  898POPC   C3B16305  25.777   5.729   7.998
  898POPC   C4B16306  25.555   5.526   7.688
  899POPC   NC316307  27.250   4.078   9.633
  899POPC   PO416308  27.920   4.389   9.733
  899POPC   GL116309  27.658   4.373   9.297
  899POPC   GL216310  27.316   4.367   9.195
  899POPC   C1A16311  27.663   4.479   8.807
  899POPC   D2A16312  27.464   4.395   8.392
  899POPC   C3A16313  27.523   4.620   8.010
  899POPC   C4A16314  27.762   4.539   7.629
  899POPC   C1B16315  27.312   4.114   8.793
  899POPC   C2B16316  27.126   4.008   8.415
  899POPC   C3B16317  27.213   4.147   7.990
  899POPC   C4B16318  27.532   3.941   7.750
  900POPC   NC316319  28.260  28.886  10.068
  900POPC   PO416320  28.595  28.462   9.576
  900POPC   GL116321  28.579  28.617   9.155
  900POPC   GL216322  28.301  28.371   9.113
  900POPC   C1A16323  28.448  28.694   8.737
  900POPC   D2A16324  28.173  28.549   8.405
  900POPC   C3A16325  28.325  28.605   7.993
  900POPC   C4A16326  28.512  28.727   7.631
  900POPC   C1B16327  28.344  28.151   8.739
  900POPC   C2B16328  28.272  28.038   8.332
  900POPC   C3B16329  28.198  28.113   7.952
  900POPC   C4B16330  28.249  28.272   7.560
  901POPC   NC316331   8.373  31.605   9.609
  901POPC   PO416332   7.928  30.957   9.566
  901POPC   GL116333   7.971  31.362   9.252
  901POPC   GL216334   8.237  31.548   9.125
  901POPC   C1A16335   7.905  31.364   8.788
  901POPC   D2A16336   8.214  31.383   8.476
  901POPC   C3A16337   8.218  31.401   8.047
  901POPC   C4A16338   8.239  31.583   7.635
  901POPC   C1B16339   8.565  31.535   8.798
  901POPC   C2B16340   8.696  31.477   8.346
  901POPC   C3B16341   8.695  31.509   7.894
  901POPC   C4B16342   8.704  31.486   7.436
  902POPC   NC316343  14.925  34.103   9.516
  902POPC   PO416344  14.289  33.766   9.519
  902POPC   GL116345  14.501  33.783   9.147
  902POPC   GL216346  14.222  33.921   9.016
  902POPC   C1A16347  14.646  33.732   8.721
  902POPC   D2A16348  14.587  33.590   8.292
  902POPC   C3A16349  14.626  33.844   7.915
  902POPC   C4A16350  14.400  33.939   7.546
  902POPC   C1B16351  14.164  33.844   8.584
  902POPC   C2B16352  14.138  33.848   8.158
  902POPC   C3B16353  13.951  33.865   7.787
  902POPC   C4B16354  13.947  34.152   7.493
  903POPC   NC316355  39.534   7.163   9.519
  903POPC   PO416356  39.066   7.621   9.469
  903POPC   GL116357  39.185   7.466   9.114
  903POPC   GL216358  39.130   7.158   9.152
  903POPC   C1A16359  39.116   7.493   8.666
  903POPC   D2A16360  39.426   7.369   8.340
  903POPC   C3A16361  39.303   7.369   7.890
  903POPC   C4A16362  39.330   7.638   7.488
  903POPC   C1B16363  39.420   7.099   8.813
  903POPC   C2B16364  39.501   6.870   8.446
  903POPC   C3B16365  39.605   6.897   8.001
  903POPC   C4B16366  39.322   6.908   7.648
  904POPC   NC316367  27.366  42.755   9.433
  904POPC   PO416368  27.849  43.157   9.503
  904POPC   GL116369  27.731  42.993   9.146
  904POPC   GL216370  28.010  42.863   8.960
  904POPC   C1A16371  27.491  42.891   8.815
  904POPC   D2A16372  27.723  42.775   8.526
  904POPC   C3A16373  27.728  42.946   8.133
  904POPC   C4A16374  27.606  43.059   7.715
  904POPC   C1B16375  27.936  43.260   8.736
  904POPC   C2B16376  27.984  43.385   8.281
  904POPC   C3B16377  27.878  43.455   7.841
  904POPC   C4B16378  27.864  43.323   7.361
  905POPC   NC316379  38.796   7.272   9.548
  905POPC   PO416380  38.215   7.025   9.497
  905POPC   GL116381  38.434   7.163   9.130
  905POPC   GL216382  38.676   7.441   9.074
  905POPC   C1A16383  38.323   7.283   8.696
  905POPC   D2A16384  38.600   7.373   8.346
  905POPC   C3A16385  38.402   7.339   7.953
  905POPC   C4A16386  38.205   7.037   7.711
  905POPC   C1B16387  38.805   7.112   8.775
  905POPC   C2B16388  39.016   7.059   8.384
  905POPC   C3B16389  38.882   7.068   7.939
  905POPC   C4B16390  38.666   6.897   7.581
  906POPC   NC316391  10.101   6.023   9.560
  906POPC   PO416392  10.532   5.462   9.665
  906POPC   GL116393  10.446   5.738   9.295
  906POPC   GL216394  10.673   5.990   9.240
  906POPC   C1A16395  10.386   5.838   8.855
  906POPC   D2A16396  10.628   5.751   8.499
  906POPC   C3A16397  10.402   5.802   8.112
  906POPC   C4A16398  10.612   5.929   7.736
  906POPC   C1B16399  10.787   6.203   8.804
  906POPC   C2B16400  10.903   6.406   8.336
  906POPC   C3B16401  10.908   6.352   7.831
  906POPC   C4B16402  10.943   6.147   7.373
  907POPC   NC316403  38.452   0.435   9.570
  907POPC   PO416404  38.018   0.976   9.757
  907POPC   GL116405  38.389   0.877   9.377
  907POPC   GL216406  38.744   0.712   9.260
  907POPC   C1A16407  38.416   0.777   8.883
  907POPC   D2A16408  38.170   0.787   8.482
  907POPC   C3A16409  38.314   0.511   8.151
  907POPC   C4A16410  38.595   0.607   7.833
  907POPC   C1B16411  38.856   0.518   8.782
  907POPC   C2B16412  38.743   0.142   8.548
  907POPC   C3B16413  38.745   0.184   8.114
  907POPC   C4B16414  38.847   0.192   7.687
  908POPC   NC316415  29.542  43.675   9.427
  908POPC   PO416416  29.002  44.094   9.488
  908POPC   GL116417  29.182  43.976   9.133
  908POPC   GL216418  29.125  43.634   9.146
  908POPC   C1A16419  29.233  43.914   8.701
  908POPC   D2A16420  29.211  43.656   8.329
  908POPC   C3A16421  29.337  43.895   8.002
  908POPC   C4A16422  29.312  43.995   7.596
  908POPC   C1B16423  28.818  43.616   8.829
  908POPC   C2B16424  28.698  43.918   8.513
  908POPC   C3B16425  28.817  43.935   8.069
  908POPC   C4B16426  28.692  43.800   7.652
  909POPC   NC316427  11.347   7.171   9.430
  909POPC   PO416428  10.996   7.797   9.488
  909POPC   GL116429  10.994   7.459   9.146
  909POPC   GL216430  11.288   7.361   8.919
  909POPC   C1A16431  10.867   7.458   8.695
  909POPC   D2A16432  11.130   7.471   8.340
  909POPC   C3A16433  10.927   7.499   7.939
  909POPC   C4A16434  11.133   7.480   7.526
  909POPC   C1B16435  11.615   7.307   8.600
  909POPC   C2B16436  11.633   7.524   8.211
  909POPC   C3B16437  11.605   7.489   7.781
  909POPC   C4B16438  11.669   7.166   7.471
  910POPC   NC316439   8.524   5.624   9.532
  910POPC   PO416440   7.939   6.020   9.628
  910POPC   GL116441   8.167   5.896   9.269
  910POPC   GL216442   8.314   6.200   9.261
  910POPC   C1A16443   8.403   5.872   8.860
  910POPC   D2A16444   8.472   5.589   8.506
  910POPC   C3A16445   8.322   5.716   8.116
  910POPC   C4A16446   8.214   5.622   7.691
  910POPC   C1B16447   8.030   6.243   8.890
  910POPC   C2B16448   8.080   6.085   8.434
  910POPC   C3B16449   8.131   6.148   7.961
  910POPC   C4B16450   8.536   6.019   7.748
  911POPC   NC316451   2.444  38.176   9.269
  911POPC   PO416452   2.003  38.687   9.568
  911POPC   GL116453   2.139  38.580   9.172
  911POPC   GL216454   2.353  38.823   9.088
  911POPC   C1A16455   1.970  38.421   8.769
  911POPC   D2A16456   1.808  38.342   8.397
  911POPC   C3A16457   1.680  38.692   8.165
  911POPC   C4A16458   1.969  38.848   7.851
  911POPC   C1B16459   2.395  38.658   8.670
  911POPC   C2B16460   2.260  38.610   8.256
  911POPC   C3B16461   2.159  38.304   7.952
  911POPC   C4B16462   2.105  38.221   7.505
  912POPC   NC316463  44.897  18.863   9.500
  912POPC   PO416464  44.668  19.548   9.575
  912POPC   GL116465  44.705  19.339   9.193
  912POPC   GL216466  44.764  19.013   9.035
  912POPC   C1A16467  44.569  19.387   8.764
  912POPC   D2A16468  44.697  19.044   8.491
  912POPC   C3A16469  44.633  19.208   8.087
  912POPC   C4A16470  44.694  19.486   7.753
  912POPC   C1B16471  44.344  18.915   8.869
  912POPC   C2B16472  44.268  18.710   8.482
  912POPC   C3B16473  44.551  18.665   8.142
  912POPC   C4B16474  44.684  18.818   7.756
  913POPC   NC316475   4.315  13.975   9.565
  913POPC   PO416476   4.528  13.302   9.504
  913POPC   GL116477   4.501  13.573   9.143
  913POPC   GL216478   4.741  13.855   9.233
  913POPC   C1A16479   4.167  13.798   8.875
  913POPC   D2A16480   3.944  13.996   8.491
  913POPC   C3A16481   3.951  13.771   8.076
  913POPC   C4A16482   4.100  13.885   7.653
  913POPC   C1B16483   4.661  14.060   8.828
  913POPC   C2B16484   4.474  14.159   8.413
  913POPC   C3B16485   4.481  13.916   8.009
  913POPC   C4B16486   4.353  13.481   7.843
  914POPC   NC316487   7.121   8.749   9.392
  914POPC   PO416488   7.603   9.282   9.535
  914POPC   GL116489   7.461   9.254   9.146
  914POPC   GL216490   7.802   9.229   9.041
  914POPC   C1A16491   7.258   9.026   8.791
  914POPC   D2A16492   7.296   8.661   8.494
  914POPC   C3A16493   7.479   8.765   8.085
  914POPC   C4A16494   7.359   8.836   7.677
  914POPC   C1B16495   7.633   9.357   8.677
  914POPC   C2B16496   7.530   9.225   8.291
  914POPC   C3B16497   7.581   9.303   7.859
  914POPC   C4B16498   7.731   9.186   7.470
  915POPC   NC316499  27.064  27.062   9.483
  915POPC   PO416500  27.133  27.718   9.578
  915POPC   GL116501  26.885  27.641   9.202
  915POPC   GL216502  26.534  27.523   9.301
  915POPC   C1A16503  26.912  27.872   8.787
  915POPC   D2A16504  26.791  27.843   8.348
  915POPC   C3A16505  27.000  27.763   7.938
  915POPC   C4A16506  27.123  27.297   7.930
  915POPC   C1B16507  26.420  27.448   8.863
  915POPC   C2B16508  26.399  27.522   8.414
  915POPC   C3B16509  26.605  27.462   8.006
  915POPC   C4B16510  26.617  27.609   7.553
  916POPC   NC316511  35.494  38.891   9.616
  916POPC   PO416512  34.982  39.302   9.417
  916POPC   GL116513  35.265  39.399   9.111
  916POPC   GL216514  35.521  39.118   9.135
  916POPC   C1A16515  35.230  39.595   8.707
  916POPC   D2A16516  35.311  39.305   8.369
  916POPC   C3A16517  35.057  39.338   8.018
  916POPC   C4A16518  35.157  39.166   7.613
  916POPC   C1B16519  35.658  39.314   8.743
  916POPC   C2B16520  35.833  39.327   8.311
  916POPC   C3B16521  35.581  39.241   7.933
  916POPC   C4B16522  35.612  39.303   7.486
  917POPC   NC316523   9.560  38.183   9.320
  917POPC   PO416524   9.423  38.784   9.678
  917POPC   GL116525   9.604  38.788   9.245
  917POPC   GL216526   9.886  38.541   9.086
  917POPC   C1A16527   9.449  38.724   8.832
  917POPC   D2A16528   9.330  38.499   8.454
  917POPC   C3A16529   9.496  38.625   8.064
  917POPC   C4A16530   9.704  38.601   7.664
  917POPC   C1B16531  10.030  38.167   8.761
  917POPC   C2B16532   9.997  38.068   8.276
  917POPC   C3B16533   9.974  38.111   7.799
  917POPC   C4B16534   9.934  37.859   7.423
  918POPC   NC316535  44.069  38.628   9.703
  918POPC   PO416536  43.625  38.155   9.555
  918POPC   GL116537  43.960  38.311   9.262
  918POPC   GL216538  44.103  38.678   9.194
  918POPC   C1A16539  43.918  38.384   8.819
  918POPC   D2A16540  43.648  38.303   8.479
  918POPC   C3A16541  43.615  38.536   8.107
  918POPC   C4A16542  43.929  38.253   7.918
  918POPC   C1B16543  44.069  38.847   8.777
  918POPC   C2B16544  44.041  38.630   8.377
  918POPC   C3B16545  44.352  38.481   8.132
  918POPC   C4B16546  44.388  38.421   7.716
  919POPC   NC316547  31.587  43.257   9.632
  919POPC   PO416548  31.076  42.906   9.479
  919POPC   GL116549  31.347  43.022   9.123
  919POPC   GL216550  31.550  43.315   9.122
  919POPC   C1A16551  31.469  43.100   8.676
  919POPC   D2A16552  31.266  43.222   8.336
  919POPC   C3A16553  31.269  42.944   7.972
  919POPC   C4A16554  31.671  42.717   7.878
  919POPC   C1B16555  31.600  43.587   8.790
  919POPC   C2B16556  31.714  43.495   8.381
  919POPC   C3B16557  31.678  43.261   8.023
  919POPC   C4B16558  31.446  43.457   7.720
  920POPC   NC316559  26.942   6.305   9.421
  920POPC   PO416560  26.623   6.780   9.550
  920POPC   GL116561  26.713   6.720   9.156
  920POPC   GL216562  27.057   6.757   9.176
  920POPC   C1A16563  26.558   6.533   8.776
  920POPC   D2A16564  26.333   6.426   8.386
  920POPC   C3A16565  26.461   6.670   8.037
  920POPC   C4A16566  26.368   6.429   7.701
  920POPC   C1B16567  27.062   6.592   8.767
  920POPC   C2B16568  26.868   6.661   8.366
  920POPC   C3B16569  27.052   6.624   7.951
  920POPC   C4B16570  27.033   6.808   7.544
  921POPC   NC316571  17.149  41.567   9.612
  921POPC   PO416572  17.754  41.655   9.540
  921POPC   GL116573  17.565  41.840   9.152
  921POPC   GL216574  17.201  41.901   9.213
  921POPC   C1A16575  17.643  41.803   8.707
  921POPC   D2A16576  17.438  41.912   8.321
  921POPC   C3A16577  17.692  41.692   8.027
  921POPC   C4A16578  17.568  41.268   7.871
  921POPC   C1B16579  17.131  41.739   8.785
  921POPC   C2B16580  17.065  41.434   8.424
  921POPC   C3B16581  17.137  41.529   7.970
  921POPC   C4B16582  17.323  41.930   7.776
  922POPC   NC316583  25.520  43.538   9.443
  922POPC   PO416584  25.064  44.033   9.467
  922POPC   GL116585  25.150  44.178   9.095
  922POPC   GL216586  25.478  44.039   9.099
  922POPC   C1A16587  25.267  44.264   8.679
  922POPC   D2A16588  25.262  44.035   8.318
  922POPC   C3A16589  25.065  44.190   7.978
  922POPC   C4A16590  25.153  43.958   7.629
  922POPC   C1B16591  25.646  43.827   8.740
  922POPC   C2B16592  25.640  43.668   8.321
  922POPC   C3B16593  25.589  43.740   7.870
  922POPC   C4B16594  25.657  43.645   7.432
  923POPC   NC316595   5.197   0.153   9.525
  923POPC   PO416596   4.826  44.482   9.493
  923POPC   GL116597   5.091  44.728   9.180
  923POPC   GL216598   4.910   0.059   9.114
  923POPC   C1A16599   5.050  44.702   8.702
  923POPC   D2A16600   5.018  44.888   8.268
  923POPC   C3A16601   5.074  44.598   7.894
  923POPC   C4A16602   5.087  44.350   7.466
  923POPC   C1B16603   5.281   0.127   8.865
  923POPC   C2B16604   5.471   0.120   8.456
  923POPC   C3B16605   5.462  44.974   8.030
  923POPC   C4B16606   5.650  44.723   7.776
  924POPC   NC316607  10.531  42.794   9.772
  924POPC   PO416608  10.600  42.187   9.473
  924POPC   GL116609  10.683  42.242   9.059
  924POPC   GL216610  10.796  41.902   9.015
  924POPC   C1A16611  10.564  42.464   8.686
  924POPC   D2A16612  10.238  42.300   8.427
  924POPC   C3A16613  10.264  42.434   8.008
  924POPC   C4A16614  10.643  42.480   7.740
  924POPC   C1B16615  10.687  41.967   8.584
  924POPC   C2B16616  10.598  42.038   8.141
  924POPC   C3B16617  10.370  41.978   7.767
  924POPC   C4B16618  10.574  42.129   7.377
  925POPC   NC316619  39.005  25.508   9.589
  925POPC   PO416620  39.191  26.230   9.525
  925POPC   GL116621  39.264  26.010   9.171
  925POPC   GL216622  39.091  25.691   9.127
  925POPC   C1A16623  39.172  26.109   8.773
  925POPC   D2A16624  39.372  26.145   8.411
  925POPC   C3A16625  39.122  26.125   8.083
  925POPC   C4A16626  39.200  25.930   7.713
  925POPC   C1B16627  39.465  25.611   8.901
  925POPC   C2B16628  39.646  25.705   8.518
  925POPC   C3B16629  39.620  25.820   8.102
  925POPC   C4B16630  39.582  25.579   7.740
  926POPC   NC316631  21.329  33.424   9.564
  926POPC   PO416632  21.680  33.980   9.457
  926POPC   GL116633  21.546  33.805   9.086
  926POPC   GL216634  21.244  33.822   9.170
  926POPC   C1A16635  21.646  33.539   8.725
  926POPC   D2A16636  21.817  33.566   8.305
  926POPC   C3A16637  21.574  33.489   7.945
  926POPC   C4A16638  21.554  33.746   7.563
  926POPC   C1B16639  21.150  33.649   8.748
  926POPC   C2B16640  21.086  33.546   8.305
  926POPC   C3B16641  21.115  33.746   7.892
  926POPC   C4B16642  20.839  33.821   7.552
  927POPC   NC316643  35.233  30.334   9.365
  927POPC   PO416644  35.319  30.970   9.689
  927POPC   GL116645  35.319  30.824   9.269
  927POPC   GL216646  34.999  30.703   9.092
  927POPC   C1A16647  35.480  30.831   8.865
  927POPC   D2A16648  35.320  30.884   8.466
  927POPC   C3A16649  35.606  31.012   8.128
  927POPC   C4A16650  35.689  30.723   7.840
  927POPC   C1B16651  35.015  30.507   8.696
  927POPC   C2B16652  34.939  30.620   8.272
  927POPC   C3B16653  35.159  30.759   7.905
  927POPC   C4B16654  35.323  30.560   7.515
  928POPC   NC316655   5.948  42.608   9.868
  928POPC   PO416656   5.758  43.144   9.473
  928POPC   GL116657   5.892  43.212   9.082
  928POPC   GL216658   6.245  43.183   9.164
  928POPC   C1A16659   5.759  42.977   8.715
  928POPC   D2A16660   5.739  42.733   8.356
  928POPC   C3A16661   5.651  42.894   7.933
  928POPC   C4A16662   5.703  42.737   7.508
  928POPC   C1B16663   6.287  43.013   8.768
  928POPC   C2B16664   6.118  43.125   8.390
  928POPC   C3B16665   6.134  42.893   8.048
  928POPC   C4B16666   6.056  43.059   7.630
  929POPC   NC316667  21.939  39.667   9.392
  929POPC   PO416668  22.429  40.098   9.514
  929POPC   GL116669  22.270  40.028   9.153
  929POPC   GL216670  21.974  40.258   9.208
  929POPC   C1A16671  22.295  39.717   8.812
  929POPC   D2A16672  22.170  39.716   8.399
  929POPC   C3A16673  22.299  40.033   8.124
  929POPC   C4A16674  22.130  39.981   7.738
  929POPC   C1B16675  21.957  40.132   8.765
  929POPC   C2B16676  21.847  40.117   8.349
  929POPC   C3B16677  21.876  40.350   7.969
  929POPC   C4B16678  22.079  40.456   7.579
  930POPC   NC316679  32.777   7.157   9.319
  930POPC   PO416680  33.241   7.596   9.381
  930POPC   GL116681  33.380   7.398   9.030
  930POPC   GL216682  33.295   7.079   9.137
  930POPC   C1A16683  33.153   7.434   8.617
  930POPC   D2A16684  32.808   7.243   8.395
  930POPC   C3A16685  32.880   7.309   7.963
  930POPC   C4A16686  32.960   7.634   7.639
  930POPC   C1B16687  33.344   6.972   8.699
  930POPC   C2B16688  33.194   6.915   8.286
  930POPC   C3B16689  33.375   6.825   7.910
  930POPC   C4B16690  33.518   7.123   7.676
  931POPC   NC316691  42.913   9.171   9.379
  931POPC   PO416692  43.379   9.721   9.433
  931POPC   GL116693  43.264   9.734   9.026
  931POPC   GL216694  42.944   9.628   9.142
  931POPC   C1A16695  43.282   9.956   8.654
  931POPC   D2A16696  43.521   9.960   8.271
  931POPC   C3A16697  43.219   9.855   7.985
  931POPC   C4A16698  43.192   9.440   7.778
  931POPC   C1B16699  42.932   9.465   8.752
  931POPC   C2B16700  42.932   9.670   8.391
  931POPC   C3B16701  42.781   9.580   8.011
  931POPC   C4B16702  42.839   9.853   7.645
  932POPC   NC316703   0.153   0.484   9.480
  932POPC   PO416704   0.709   0.831   9.312
  932POPC   GL116705   0.572   0.439   9.150
  932POPC   GL216706   0.268   0.628   9.014
  932POPC   C1A16707   0.510   0.268   8.738
  932POPC   D2A16708   0.343   0.528   8.418
  932POPC   C3A16709   0.558   0.506   8.012
  932POPC   C4A16710   0.445   0.437   7.594
  932POPC   C1B16711   0.001   0.315   8.818
  932POPC   C2B16712  44.875   0.280   8.396
  932POPC   C3B16713   0.054   0.362   7.987
  932POPC   C4B16714  44.943   0.245   7.574
  933POPC   NC316715  13.886  42.565   9.373
  933POPC   PO416716  13.432  42.276   9.751
  933POPC   GL116717  13.541  42.199   9.265
  933POPC   GL216718  13.435  42.465   9.073
  933POPC   C1A16719  13.797  42.199   8.839
  933POPC   D2A16720  13.822  42.410   8.448
  933POPC   C3A16721  13.613  42.112   8.176
  933POPC   C4A16722  13.634  42.071   7.720
  933POPC   C1B16723  13.255  42.713   8.725
  933POPC   C2B16724  13.456  42.769   8.334
  933POPC   C3B16725  13.608  42.585   7.971
  933POPC   C4B16726  13.304  42.710   7.724
  934POPC   NC316727  20.196  29.301   9.597
  934POPC   PO416728  19.518  29.424   9.528
  934POPC   GL116729  19.754  29.213   9.182
  934POPC   GL216730  20.104  29.037   9.184
  934POPC   C1A16731  19.837  29.398   8.773
  934POPC   D2A16732  19.706  29.177   8.390
  934POPC   C3A16733  19.728  29.430   8.026
  934POPC   C4A16734  19.606  29.361   7.641
  934POPC   C1B16735  20.126  29.000   8.751
  934POPC   C2B16736  20.195  29.266   8.387
  934POPC   C3B16737  20.113  29.120   7.955
  934POPC   C4B16738  20.080  28.697   7.823
  935POPC   NC316739  10.347  11.952   9.443
  935POPC   PO416740  10.706  12.497   9.759
  935POPC   GL116741  10.633  12.302   9.195
  935POPC   GL216742  10.661  11.923   9.034
  935POPC   C1A16743  10.463  12.262   8.741
  935POPC   D2A16744  10.479  11.971   8.367
  935POPC   C3A16745  10.330  12.141   7.967
  935POPC   C4A16746  10.606  12.298   7.637
  935POPC   C1B16747  10.249  11.776   8.793
  935POPC   C2B16748  10.013  11.772   8.369
  935POPC   C3B16749  10.232  11.628   7.984
  935POPC   C4B16750  10.357  11.838   7.556
  936POPC   NC316751  14.137   9.537   9.375
  936POPC   PO416752  14.293  10.238   9.425
  936POPC   GL116753  14.408   9.925   9.147
  936POPC   GL216754  14.699   9.735   9.241
  936POPC   C1A16755  14.359   9.672   8.773
  936POPC   D2A16756  14.102   9.741   8.409
  936POPC   C3A16757  14.378   9.733   8.073
  936POPC   C4A16758  14.497   9.502   7.691
  936POPC   C1B16759  14.796   9.936   8.830
  936POPC   C2B16760  14.751   9.662   8.453
  936POPC   C3B16761  14.850   9.544   8.049
  936POPC   C4B16762  14.785   9.899   7.785
  937POPC   NC316763  39.717  44.355   9.831
  937POPC   PO416764  40.195  44.676   9.459
  937POPC   GL116765  40.040  44.798   9.106
  937POPC   GL216766  39.971  44.586   8.982
  937POPC   C1A16767  40.236  44.865   8.677
  937POPC   D2A16768  40.210  44.729   8.261
  937POPC   C3A16769  40.282  44.998   7.890
  937POPC   C4A16770  40.546   0.084   7.527
  937POPC   C1B16771  39.698  44.655   8.698
  937POPC   C2B16772  39.613  44.512   8.309
  937POPC   C3B16773  39.742  44.249   7.957
  937POPC   C4B16774  40.029  44.546   7.823
  938POPC   NC316775  21.887  28.918   9.445
  938POPC   PO416776  22.557  29.206   9.463
  938POPC   GL116777  22.224  29.104   9.113
  938POPC   GL216778  21.853  29.231   9.030
  938POPC   C1A16779  22.194  29.244   8.667
  938POPC   D2A16780  22.050  29.144   8.243
  938POPC   C3A16781  22.340  29.265   7.929
  938POPC   C4A16782  22.521  29.029   7.585
  938POPC   C1B16783  21.923  28.838   8.763
  938POPC   C2B16784  22.152  28.644   8.392
  938POPC   C3B16785  22.169  28.756   7.914
  938POPC   C4B16786  22.024  28.799   7.458
  939POPC   NC316787   0.049  30.292   9.529
  939POPC   PO416788  44.325  30.291   9.651
  939POPC   GL116789  44.494  30.385   9.220
  939POPC   GL216790  44.700  30.082   9.196
  939POPC   C1A16791  44.474  30.212   8.766
  939POPC   D2A16792  44.627  30.048   8.344
  939POPC   C3A16793  44.455  30.192   7.919
  939POPC   C4A16794  44.400  30.123   7.461
  939POPC   C1B16795  44.951  30.021   8.806
  939POPC   C2B16796   0.152  29.964   8.385
  939POPC   C3B16797   0.180  29.792   7.933
  939POPC   C4B16798  44.796  29.802   7.684
  940POPC   NC316799   5.779   3.274   9.711
  940POPC   PO416800   6.234   3.689   9.533
  940POPC   GL116801   5.981   3.548   9.162
  940POPC   GL216802   5.762   3.239   9.177
  940POPC   C1A16803   5.974   3.722   8.733
  940POPC   D2A16804   5.759   3.958   8.397
  940POPC   C3A16805   5.667   3.743   8.016
  940POPC   C4A16806   5.979   3.532   7.778
  940POPC   C1B16807   5.632   3.185   8.750
  940POPC   C2B16808   5.796   3.364   8.359
  940POPC   C3B16809   5.757   3.136   7.990
  940POPC   C4B16810   5.479   3.151   7.675
  941POPC   NC316811   5.132  14.160   9.562
  941POPC   PO416812   5.449  14.751   9.557
  941POPC   GL116813   5.281  14.571   9.177
  941POPC   GL216814   4.955  14.379   9.142
  941POPC   C1A16815   5.177  14.598   8.750
  941POPC   D2A16816   4.965  14.384   8.411
  941POPC   C3A16817   5.016  14.598   8.040
  941POPC   C4A16818   5.294  14.677   7.708
  941POPC   C1B16819   5.191  14.105   8.840
  941POPC   C2B16820   5.393  14.113   8.394
  941POPC   C3B16821   5.361  14.229   7.951
  941POPC   C4B16822   5.054  14.182   7.584
  942POPC   NC316823  11.926  44.709   9.586
  942POPC   PO416824  12.603  44.498   9.624
  942POPC   GL116825  12.353  44.646   9.312
  942POPC   GL216826  12.176  44.398   9.236
  942POPC   C1A16827  12.184  44.801   8.907
  942POPC   D2A16828  12.440  44.865   8.514
  942POPC   C3A16829  12.214  44.897   8.135
  942POPC   C4A16830  11.764  44.876   8.010
  942POPC   C1B16831  12.119  44.315   8.792
  942POPC   C2B16832  12.001  44.521   8.412
  942POPC   C3B16833  12.031  44.431   7.971
  942POPC   C4B16834  12.352  44.197   7.806
  943POPC   NC316835  22.910  26.608   9.566
  943POPC   PO416836  22.585  27.145   9.566
  943POPC   GL116837  22.848  26.955   9.160
  943POPC   GL216838  23.014  26.585   9.089
  943POPC   C1A16839  22.961  26.860   8.681
  943POPC   D2A16840  23.226  26.810   8.310
  943POPC   C3A16841  23.054  26.857   7.908
  943POPC   C4A16842  22.938  27.090   7.528
  943POPC   C1B16843  22.568  26.597   8.915
  943POPC   C2B16844  22.508  26.636   8.458
  943POPC   C3B16845  22.647  26.496   8.018
  943POPC   C4B16846  22.803  26.554   7.571
  944POPC   NC316847   1.479  42.168   9.330
  944POPC   PO416848   1.184  42.771   9.392
  944POPC   GL116849   1.128  42.450   9.089
  944POPC   GL216850   0.975  42.130   9.157
  944POPC   C1A16851   1.267  42.224   8.717
  944POPC   D2A16852   1.182  42.408   8.343
  944POPC   C3A16853   1.373  42.205   8.051
  944POPC   C4A16854   1.307  42.278   7.672
  944POPC   C1B16855   0.775  42.175   8.762
  944POPC   C2B16856   0.651  42.225   8.353
  944POPC   C3B16857   0.843  42.234   7.968
  944POPC   C4B16858   0.820  42.138   7.559
  945POPC   NC316859   3.199  30.571   9.484
  945POPC   PO416860   3.664  31.097   9.444
  945POPC   GL116861   3.795  30.870   9.088
  945POPC   GL216862   3.480  30.697   9.051
  945POPC   C1A16863   3.838  30.752   8.671
  945POPC   D2A16864   3.616  30.749   8.291
  945POPC   C3A16865   3.878  30.623   7.955
  945POPC   C4A16866   3.551  30.761   7.702
  945POPC   C1B16867   3.440  30.429   8.661
  945POPC   C2B16868   3.616  30.241   8.272
  945POPC   C3B16869   3.520  30.262   7.832
  945POPC   C4B16870   3.465  30.194   7.392
  946POPC   NC316871  25.336  24.779   9.468
  946POPC   PO416872  24.783  24.422   9.481
  946POPC   GL116873  24.951  24.696   9.083
  946POPC   GL216874  25.342  24.778   8.970
  946POPC   C1A16875  24.973  24.871   8.641
  946POPC   D2A16876  24.825  24.706   8.260
  946POPC   C3A16877  25.077  24.643   7.887
  946POPC   C4A16878  25.154  24.213   7.755
  946POPC   C1B16879  25.229  24.435   8.691
  946POPC   C2B16880  25.280  24.365   8.254
  946POPC   C3B16881  25.554  24.547   7.913
  946POPC   C4B16882  25.876  24.835   7.826
  947POPC   NC316883  32.797  36.134   9.326
  947POPC   PO416884  33.316  35.694   9.479
  947POPC   GL116885  33.184  35.899   9.097
  947POPC   GL216886  33.164  36.237   8.951
  947POPC   C1A16887  32.959  35.826   8.739
  947POPC   D2A16888  32.959  36.124   8.436
  947POPC   C3A16889  32.922  35.906   8.083
  947POPC   C4A16890  32.933  35.999   7.675
  947POPC   C1B16891  32.856  36.549   8.758
  947POPC   C2B16892  32.715  36.585   8.331
  947POPC   C3B16893  32.920  36.422   7.965
  947POPC   C4B16894  33.334  36.365   7.728
  948POPC   NC316895  22.829   5.752   9.569
  948POPC   PO416896  23.312   6.244   9.440
  948POPC   GL116897  23.094   5.932   9.147
  948POPC   GL216898  23.014   5.555   9.139
  948POPC   C1A16899  22.994   5.985   8.693
  948POPC   D2A16900  23.136   6.176   8.295
  948POPC   C3A16901  22.948   5.961   7.927
  948POPC   C4A16902  22.642   5.681   7.752
  948POPC   C1B16903  23.036   5.483   8.714
  948POPC   C2B16904  22.900   5.524   8.280
  948POPC   C3B16905  23.075   5.461   7.884
  948POPC   C4B16906  22.982   5.432   7.426
  949POPC   NC316907   9.223   7.343   9.467
  949POPC   PO416908   8.603   7.031   9.321
  949POPC   GL116909   8.938   7.086   9.078
  949POPC   GL216910   8.934   7.418   9.039
  949POPC   C1A16911   9.091   7.151   8.643
  949POPC   D2A16912   9.191   6.946   8.262
  949POPC   C3A16913   9.157   7.219   7.912
  949POPC   C4A16914   9.196   7.360   7.493
  949POPC   C1B16915   8.769   7.573   8.665
  949POPC   C2B16916   8.893   7.528   8.246
  949POPC   C3B16917   9.032   7.716   7.877
  949POPC   C4B16918   8.810   7.736   7.544
  950POPC   NC316919   6.564  13.936   9.518
  950POPC   PO416920   6.438  14.629   9.687
  950POPC   GL116921   6.442  14.573   9.229
  950POPC   GL216922   6.501  14.225   9.093
  950POPC   C1A16923   6.658  14.605   8.807
  950POPC   D2A16924   6.511  14.461   8.397
  950POPC   C3A16925   6.699  14.689   8.061
  950POPC   C4A16926   6.668  14.597   7.639
  950POPC   C1B16927   6.380  14.029   8.686
  950POPC   C2B16928   6.334  14.003   8.220
  950POPC   C3B16929   6.315  14.257   7.831
  950POPC   C4B16930   6.452  14.163   7.405
  951POPC   NC316931   4.591  38.766   9.742
  951POPC   PO416932   4.258  39.341   9.584
  951POPC   GL116933   4.201  39.359   9.167
  951POPC   GL216934   4.494  39.279   8.986
  951POPC   C1A16935   4.070  39.435   8.756
  951POPC   D2A16936   4.251  39.424   8.348
  951POPC   C3A16937   4.004  39.467   7.949
  951POPC   C4A16938   4.063  39.210   7.572
  951POPC   C1B16939   4.612  39.023   8.644
  951POPC   C2B16940   4.593  38.970   8.208
  951POPC   C3B16941   4.510  39.304   7.921
  951POPC   C4B16942   4.773  39.686   7.890
  952POPC   NC316943  26.499   2.580   9.473
  952POPC   PO416944  27.065   3.002   9.515
  952POPC   GL116945  26.905   2.829   9.225
  952POPC   GL216946  26.597   2.942   9.114
  952POPC   C1A16947  27.046   2.745   8.873
  952POPC   D2A16948  26.802   2.726   8.593
  952POPC   C3A16949  26.915   2.694   8.193
  952POPC   C4A16950  26.799   2.812   7.823
  952POPC   C1B16951  26.506   3.243   8.827
  952POPC   C2B16952  26.493   3.087   8.422
  952POPC   C3B16953  26.404   3.039   8.010
  952POPC   C4B16954  26.519   3.152   7.579
  953POPC   NC316955  25.322  32.574   9.592
  953POPC   PO416956  25.511  33.134   9.394
  953POPC   GL116957  25.346  32.756   9.109
  953POPC   GL216958  24.987  32.675   9.215
  953POPC   C1A16959  25.360  32.680   8.630
  953POPC   D2A16960  25.322  32.919   8.247
  953POPC   C3A16961  25.359  32.722   7.863
  953POPC   C4A16962  25.467  32.712   7.413
  953POPC   C1B16963  24.934  32.874   8.823
  953POPC   C2B16964  24.859  32.746   8.394
  953POPC   C3B16965  24.875  32.925   7.964
  953POPC   C4B16966  25.146  33.114   7.603
  954POPC   NC316967  20.685  15.007   9.425
  954POPC   PO416968  20.661  14.313   9.515
  954POPC   GL116969  20.443  14.397   9.135
  954POPC   GL216970  20.603  14.702   9.008
  954POPC   C1A16971  20.515  14.292   8.705
  954POPC   D2A16972  20.903  14.343   8.432
  954POPC   C3A16973  20.880  14.385   7.984
  954POPC   C4A16974  20.529  14.173   7.744
  954POPC   C1B16975  20.652  14.762   8.556
  954POPC   C2B16976  20.430  14.483   8.242
  954POPC   C3B16977  20.182  14.509   7.882
  954POPC   C4B16978  20.316  14.593   7.456
  955POPC   NC316979  17.441  25.777   9.227
  955POPC   PO416980  17.800  25.327   9.563
  955POPC   GL116981  17.599  25.168   9.187
  955POPC   GL216982  17.716  25.438   8.977
  955POPC   C1A16983  17.641  25.019   8.738
  955POPC   D2A16984  17.484  25.129   8.361
  955POPC   C3A16985  17.659  25.124   7.989
  955POPC   C4A16986  17.772  25.503   7.786
  955POPC   C1B16987  17.243  25.329   8.817
  955POPC   C2B16988  17.076  25.436   8.424
  955POPC   C3B16989  17.267  25.516   8.032
  955POPC   C4B16990  17.278  25.317   7.671
  956POPC   NC316991  10.316  44.127   9.415
  956POPC   PO416992   9.649  43.903   9.594
  956POPC   GL116993   9.703  43.595   9.215
  956POPC   GL216994   9.754  43.882   9.095
  956POPC   C1A16995   9.786  43.590   8.719
  956POPC   D2A16996   9.982  43.803   8.409
  956POPC   C3A16997   9.706  43.686   8.114
  956POPC   C4A16998   9.704  43.607   7.689
  956POPC   C1B16999   9.677  44.118   8.753
  956POPC   C2B17000   9.568  44.107   8.376
  956POPC   C3B17001   9.796  44.169   8.010
  956POPC   C4B17002   9.607  44.102   7.638
  957POPC   NC317003  13.401   8.910   9.438
  957POPC   PO417004  13.988   8.614   9.172
  957POPC   GL117005  13.604   8.727   9.003
  957POPC   GL217006  13.645   9.092   9.013
  957POPC   C1A17007  13.415   8.829   8.633
  957POPC   D2A17008  13.594   8.990   8.266
  957POPC   C3A17009  13.676   8.658   7.981
  957POPC   C4A17010  13.994   8.632   7.690
  957POPC   C1B17011  13.427   9.341   8.710
  957POPC   C2B17012  13.199   9.353   8.317
  957POPC   C3B17013  13.322   9.232   7.900
  957POPC   C4B17014  13.722   9.092   7.737
  958POPC   NC317015  11.011  12.278   9.504
  958POPC   PO417016  11.432  11.837   9.566
  958POPC   GL117017  11.228  11.959   9.181
  958POPC   GL217018  11.469  12.190   9.068
  958POPC   C1A17019  11.041  12.129   8.792
  958POPC   D2A17020  10.997  11.940   8.400
  958POPC   C3A17021  10.958  12.116   7.981
  958POPC   C4A17022  11.253  12.116   7.644
  958POPC   C1B17023  11.501  12.272   8.601
  958POPC   C2B17024  11.439  12.290   8.148
  958POPC   C3B17025  11.586  12.498   7.760
  958POPC   C4B17026  11.432  12.532   7.323
  959POPC   NC317027  21.106   6.627   9.747
  959POPC   PO417028  21.582   6.385   9.586
  959POPC   GL117029  21.412   6.403   9.132
  959POPC   GL217030  21.076   6.573   9.152
  959POPC   C1A17031  21.448   6.261   8.655
  959POPC   D2A17032  21.521   6.083   8.211
  959POPC   C3A17033  21.531   6.360   7.830
  959POPC   C4A17034  21.264   6.685   7.596
  959POPC   C1B17035  21.041   6.584   8.675
  959POPC   C2B17036  21.221   6.511   8.241
  959POPC   C3B17037  21.034   6.301   7.879
  959POPC   C4B17038  20.794   6.451   7.517
  960POPC   NC317039  39.195   0.785   9.575
  960POPC   PO417040  38.825   0.184   9.753
  960POPC   GL117041  39.155   0.366   9.304
  960POPC   GL217042  39.210   0.748   9.073
  960POPC   C1A17043  39.334   0.314   8.845
  960POPC   D2A17044  39.173   0.362   8.398
  960POPC   C3A17045  39.393   0.326   7.984
  960POPC   C4A17046  39.329   0.251   7.513
  960POPC   C1B17047  38.928   0.992   8.712
  960POPC   C2B17048  38.733   0.799   8.354
  960POPC   C3B17049  39.040   0.708   8.060
  960POPC   C4B17050  39.158   0.689   7.672
  961POPC   NC317051   3.061  39.410   9.507
  961POPC   PO417052   2.635  38.796   9.525
  961POPC   GL117053   2.831  39.048   9.215
  961POPC   GL217054   2.563  39.292   9.139
  961POPC   C1A17055   3.008  39.332   8.872
  961POPC   D2A17056   2.979  39.529   8.467
  961POPC   C3A17057   3.053  39.274   8.110
  961POPC   C4A17058   3.036  39.321   7.684
  961POPC   C1B17059   2.536  39.582   8.787
  961POPC   C2B17060   2.469  39.509   8.348
  961POPC   C3B17061   2.557  39.351   7.950
  961POPC   C4B17062   2.563  39.558   7.581
  962POPC   NC317063  13.845  24.246   9.489
  962POPC   PO417064  13.883  24.917   9.126
  962POPC   GL117065  13.499  24.662   9.028
  962POPC   GL217066  13.477  24.311   9.143
  962POPC   C1A17067  13.465  24.506   8.621
  962POPC   D2A17068  13.699  24.528   8.289
  962POPC   C3A17069  13.403  24.540   7.988
  962POPC   C4A17070  13.593  24.601   7.622
  962POPC   C1B17071  13.749  24.149   8.789
  962POPC   C2B17072  13.565  24.038   8.337
  962POPC   C3B17073  13.710  24.148   7.894
  962POPC   C4B17074  14.041  24.399   7.680
  963POPC   NC317075  26.005  38.981   9.504
  963POPC   PO417076  26.091  38.360   9.502
  963POPC   GL117077  25.967  38.641   9.134
  963POPC   GL217078  25.639  38.879   9.156
  963POPC   C1A17079  26.191  38.717   8.741
  963POPC   D2A17080  26.032  38.705   8.315
  963POPC   C3A17081  26.138  38.438   7.960
  963POPC   C4A17082  26.227  38.315   7.500
  963POPC   C1B17083  25.677  38.728   8.721
  963POPC   C2B17084  25.515  38.669   8.310
  963POPC   C3B17085  25.592  38.558   7.895
  963POPC   C4B17086  25.860  38.654   7.582
  964POPC   NC317087  18.986  14.735   9.542
  964POPC   PO417088  18.554  14.252   9.735
  964POPC   GL117089  18.691  14.435   9.256
  964POPC   GL217090  19.048  14.410   9.157
  964POPC   C1A17091  18.684  14.415   8.787
  964POPC   D2A17092  18.967  14.538   8.439
  964POPC   C3A17093  18.866  14.382   8.032
  964POPC   C4A17094  19.021  14.358   7.647
  964POPC   C1B17095  19.331  14.521   8.822
  964POPC   C2B17096  19.475  14.387   8.425
  964POPC   C3B17097  19.355  14.517   8.050
  964POPC   C4B17098  19.455  14.618   7.665
  965POPC   NC317099   4.087  37.987   9.370
  965POPC   PO417100   4.159  38.556   9.752
  965POPC   GL117101   4.083  38.509   9.288
  965POPC   GL217102   4.387  38.355   9.182
  965POPC   C1A17103   4.036  38.352   8.825
  965POPC   D2A17104   4.240  38.226   8.421
  965POPC   C3A17105   4.169  38.435   8.012
  965POPC   C4A17106   4.386  38.328   7.605
  965POPC   C1B17107   4.508  38.532   8.798
  965POPC   C2B17108   4.707  38.467   8.417
  965POPC   C3B17109   4.669  38.520   7.979
  965POPC   C4B17110   4.448  38.833   7.703
  966POPC   NC317111  15.856   4.279   9.684
  966POPC   PO417112  16.335   4.175   9.332
  966POPC   GL117113  16.192   4.557   9.203
  966POPC   GL217114  15.827   4.509   9.208
  966POPC   C1A17115  16.117   4.552   8.772
  966POPC   D2A17116  15.861   4.419   8.438
  966POPC   C3A17117  16.092   4.559   8.111
  966POPC   C4A17118  16.300   4.476   7.760
  966POPC   C1B17119  15.655   4.736   8.835
  966POPC   C2B17120  15.490   4.780   8.382
  966POPC   C3B17121  15.616   4.557   7.968
  966POPC   C4B17122  15.684   4.112   7.811
  967POPC   NC317123  42.485  30.463   9.410
  967POPC   PO417124  42.230  31.061   9.313
  967POPC   GL117125  42.278  30.795   9.036
  967POPC   GL217126  42.124  30.491   9.048
  967POPC   C1A17127  42.062  30.793   8.646
  967POPC   D2A17128  42.066  30.597   8.249
  967POPC   C3A17129  42.095  30.900   7.924
  967POPC   C4A17130  42.512  30.963   7.736
  967POPC   C1B17131  42.503  30.445   8.767
  967POPC   C2B17132  42.817  30.487   8.449
  967POPC   C3B17133  42.643  30.598   8.089
  967POPC   C4B17134  42.342  30.455   7.790
  968POPC   NC317135  39.588  22.033   9.353
  968POPC   PO417136  38.988  22.476   9.450
  968POPC   GL117137  39.158  22.212   9.102
  968POPC   GL217138  39.186  21.841   9.129
  968POPC   C1A17139  39.349  22.236   8.704
  968POPC   D2A17140  39.416  22.448   8.329
  968POPC   C3A17141  39.274  22.138   8.074
  968POPC   C4A17142  39.105  22.131   7.689
  968POPC   C1B17143  39.391  21.710   8.743
  968POPC   C2B17144  39.286  21.482   8.352
  968POPC   C3B17145  39.356  21.625   7.936
  968POPC   C4B17146  39.641  21.935   7.778
  969POPC   NC317147  29.512   9.550   9.446
  969POPC   PO417148  28.824   9.436   9.467
  969POPC   GL117149  29.073   9.559   9.161
  969POPC   GL217150  29.062   9.913   9.184
  969POPC   C1A17151  28.908   9.611   8.776
  969POPC   D2A17152  29.104   9.749   8.449
  969POPC   C3A17153  28.936   9.683   8.055
  969POPC   C4A17154  29.124   9.826   7.721
  969POPC   C1B17155  29.372  10.011   8.864
  969POPC   C2B17156  29.471  10.091   8.452
  969POPC   C3B17157  29.436  10.155   8.015
  969POPC   C4B17158  29.660  10.282   7.643
  970POPC   NC317159  14.909  11.891   9.632
  970POPC   PO417160  15.288  12.385   9.692
  970POPC   GL117161  15.137  12.119   9.232
  970POPC   GL217162  14.809  11.889   9.139
  970POPC   C1A17163  15.161  12.070   8.785
  970POPC   D2A17164  15.537  12.127   8.518
  970POPC   C3A17165  15.554  12.010   8.076
  970POPC   C4A17166  15.398  12.229   7.708
  970POPC   C1B17167  14.832  11.587   8.774
  970POPC   C2B17168  14.960  11.448   8.352
  970POPC   C3B17169  15.069  11.738   7.998
  970POPC   C4B17170  15.073  11.856   7.571
  971POPC   NC317171  30.659   6.156   9.473
  971POPC   PO417172  31.029   5.570   9.511
  971POPC   GL117173  30.826   5.816   9.131
  971POPC   GL217174  30.456   5.825   9.120
  971POPC   C1A17175  30.914   5.825   8.681
  971POPC   D2A17176  30.758   5.720   8.283
  971POPC   C3A17177  30.984   5.849   7.908
  971POPC   C4A17178  30.768   5.765   7.528
  971POPC   C1B17179  30.439   6.077   8.738
  971POPC   C2B17180  30.588   6.217   8.318
  971POPC   C3B17181  30.510   6.051   7.952
  971POPC   C4B17182  30.317   5.986   7.590
  972POPC   NC317183   7.965  37.792   9.691
  972POPC   PO417184   7.339  37.586   9.683
  972POPC   GL117185   7.415  37.654   9.221
  972POPC   GL217186   7.713  37.836   9.198
  972POPC   C1A17187   7.428  37.730   8.766
  972POPC   D2A17188   7.254  37.756   8.363
  972POPC   C3A17189   7.286  37.395   8.079
  972POPC   C4A17190   7.279  37.528   7.653
  972POPC   C1B17191   7.812  38.065   8.801
  972POPC   C2B17192   7.821  37.886   8.405
  972POPC   C3B17193   7.671  37.736   8.044
  972POPC   C4B17194   7.695  37.813   7.636
  973POPC   NC317195   3.585   5.109   9.691
  973POPC   PO417196   4.256   5.046   9.734
  973POPC   GL117197   3.978   4.932   9.319
  973POPC   GL217198   3.653   5.141   9.193
  973POPC   C1A17199   3.808   4.801   8.866
  973POPC   D2A17200   3.774   4.965   8.420
  973POPC   C3A17201   3.726   5.393   8.178
  973POPC   C4A17202   3.792   5.351   7.700
  973POPC   C1B17203   3.345   5.087   8.833
  973POPC   C2B17204   3.291   5.195   8.388
  973POPC   C3B17205   3.442   5.005   7.987
  973POPC   C4B17206   3.311   5.198   7.616
  974POPC   NC317207  13.014  44.274   9.649
  974POPC   PO417208  13.111  43.651   9.590
  974POPC   GL117209  12.801  43.834   9.231
  974POPC   GL217210  12.784  44.171   9.195
  974POPC   C1A17211  12.731  43.900   8.744
  974POPC   D2A17212  12.972  43.658   8.389
  974POPC   C3A17213  13.104  43.830   8.046
  974POPC   C4A17214  12.821  44.006   7.745
  974POPC   C1B17215  13.077  44.270   8.858
  974POPC   C2B17216  12.995  44.196   8.417
  974POPC   C3B17217  13.099  44.346   8.027
  974POPC   C4B17218  12.995  44.457   7.624
  975POPC   NC317219  20.443  20.616   9.428
  975POPC   PO417220  21.023  20.913   9.410
  975POPC   GL117221  20.777  20.697   9.047
  975POPC   GL217222  20.591  20.354   9.034
  975POPC   C1A17223  20.516  20.673   8.660
  975POPC   D2A17224  20.609  20.345   8.370
  975POPC   C3A17225  20.566  20.581   8.009
  975POPC   C4A17226  20.839  20.558   7.626
  975POPC   C1B17227  20.230  20.258   8.740
  975POPC   C2B17228  20.116  20.397   8.312
  975POPC   C3B17229  20.187  20.223   7.927
  975POPC   C4B17230  20.345  20.380   7.608
  976POPC   NC317231   2.210  44.350   9.678
  976POPC   PO417232   2.327   0.013   9.716
  976POPC   GL117233   2.119  44.893   9.294
  976POPC   GL217234   2.019  44.513   9.215
  976POPC   C1A17235   1.988  44.879   8.845
  976POPC   D2A17236   1.989  44.540   8.530
  976POPC   C3A17237   2.122  44.700   8.138
  976POPC   C4A17238   1.986  44.964   7.811
  976POPC   C1B17239   1.774  44.232   8.916
  976POPC   C2B17240   1.693  44.111   8.467
  976POPC   C3B17241   1.773  44.334   8.074
  976POPC   C4B17242   1.955  44.464   7.672
  977POPC   NC317243  12.640   5.761   9.504
  977POPC   PO417244  13.043   6.244   9.446
  977POPC   GL117245  12.889   6.031   9.122
  977POPC   GL217246  12.579   6.143   9.134
  977POPC   C1A17247  12.962   5.860   8.723
  977POPC   D2A17248  13.177   5.996   8.357
  977POPC   C3A17249  12.993   5.848   7.980
  977POPC   C4A17250  13.234   5.535   7.783
  977POPC   C1B17251  12.573   6.224   8.737
  977POPC   C2B17252  12.669   6.102   8.353
  977POPC   C3B17253  12.621   6.302   7.992
  977POPC   C4B17254  12.662   6.101   7.630
  978POPC   NC317255  40.237  33.493   9.437
  978POPC   PO417256  39.939  32.830   9.425
  978POPC   GL117257  40.046  33.115   9.114
  978POPC   GL217258  39.745  33.311   9.117
  978POPC   C1A17259  40.217  33.009   8.696
  978POPC   D2A17260  40.244  32.764   8.294
  978POPC   C3A17261  40.256  33.033   7.935
  978POPC   C4A17262  40.254  32.925   7.493
  978POPC   C1B17263  39.687  33.026   8.753
  978POPC   C2B17264  39.841  33.078   8.340
  978POPC   C3B17265  39.730  33.082   7.930
  978POPC   C4B17266  39.917  33.290   7.581
  979POPC   NC317267  11.443  41.146   9.498
  979POPC   PO417268  11.210  40.511   9.473
  979POPC   GL117269  11.157  40.877   9.177
  979POPC   GL217270  11.546  40.918   9.059
  979POPC   C1A17271  11.199  41.080   8.769
  979POPC   D2A17272  11.538  40.908   8.512
  979POPC   C3A17273  11.452  40.981   8.076
  979POPC   C4A17274  11.268  40.946   7.694
  979POPC   C1B17275  11.780  40.555   8.901
  979POPC   C2B17276  11.653  40.378   8.537
  979POPC   C3B17277  11.669  40.542   8.150
  979POPC   C4B17278  11.856  40.523   7.788
  980POPC   NC317279  34.130  11.544   9.738
  980POPC   PO417280  33.626  11.144   9.532
  980POPC   GL117281  33.587  11.276   9.098
  980POPC   GL217282  33.572  11.643   9.058
  980POPC   C1A17283  33.772  11.240   8.682
  980POPC   D2A17284  33.954  11.082   8.307
  980POPC   C3A17285  33.784  11.111   7.909
  980POPC   C4A17286  33.861  11.131   7.464
  980POPC   C1B17287  33.498  11.661   8.592
  980POPC   C2B17288  33.732  11.568   8.180
  980POPC   C3B17289  33.874  11.589   7.735
  980POPC   C4B17290  33.742  11.713   7.298
  981POPC   NC317291  29.098   7.409   9.579
  981POPC   PO417292  29.349   7.903   9.394
  981POPC   GL117293  29.303   7.565   9.143
  981POPC   GL217294  28.953   7.584   9.094
  981POPC   C1A17295  29.325   7.246   8.853
  981POPC   D2A17296  29.380   7.427   8.437
  981POPC   C3A17297  29.154   7.297   8.061
  981POPC   C4A17298  29.413   7.084   7.728
  981POPC   C1B17299  28.882   7.427   8.667
  981POPC   C2B17300  28.609   7.401   8.334
  981POPC   C3B17301  28.635   7.540   7.929
  981POPC   C4B17302  28.920   7.450   7.621
  982POPC   NC317303  38.666  28.173   9.358
  982POPC   PO417304  38.090  28.625   9.427
  982POPC   GL117305  38.307  28.494   9.073
  982POPC   GL217306  38.623  28.665   9.012
  982POPC   C1A17307  38.202  28.513   8.641
  982POPC   D2A17308  38.445  28.504   8.259
  982POPC   C3A17309  38.461  28.227   7.902
  982POPC   C4A17310  38.123  28.207   7.585
  982POPC   C1B17311  38.673  28.320   8.709
  982POPC   C2B17312  38.796  28.130   8.302
  982POPC   C3B17313  38.766  27.808   7.987
  982POPC   C4B17314  38.760  27.901   7.547
  983POPC   NC317315  41.173   3.480   9.604
  983POPC   PO417316  40.619   3.777   9.583
  983POPC   GL117317  40.791   3.694   9.187
  983POPC   GL217318  40.861   4.020   9.075
  983POPC   C1A17319  40.952   3.624   8.744
  983POPC   D2A17320  40.676   3.509   8.401
  983POPC   C3A17321  40.895   3.388   8.050
  983POPC   C4A17322  41.001   3.538   7.669
  983POPC   C1B17323  40.553   3.926   8.735
  983POPC   C2B17324  40.332   3.896   8.402
  983POPC   C3B17325  40.406   3.769   8.020
  983POPC   C4B17326  40.308   4.099   7.748
  984POPC   NC317327  17.541  42.805   9.451
  984POPC   PO417328  17.166  43.282   9.723
  984POPC   GL117329  17.391  43.230   9.229
  984POPC   GL217330  17.383  42.938   8.980
  984POPC   C1A17331  17.727  43.268   8.862
  984POPC   D2A17332  17.789  42.973   8.521
  984POPC   C3A17333  17.828  43.088   8.067
  984POPC   C4A17334  17.649  42.903   7.718
  984POPC   C1B17335  17.287  42.847   8.583
  984POPC   C2B17336  17.359  42.880   8.153
  984POPC   C3B17337  17.126  42.789   7.785
  984POPC   C4B17338  16.913  42.725   7.395
  985POPC   NC317339   3.905  43.734   9.272
  985POPC   PO417340   3.434  43.957   9.679
  985POPC   GL117341   3.554  44.078   9.241
  985POPC   GL217342   3.353  43.797   9.175
  985POPC   C1A17343   3.567  44.003   8.754
  985POPC   D2A17344   3.496  43.674   8.429
  985POPC   C3A17345   3.614  43.761   8.000
  985POPC   C4A17346   3.700  44.042   7.693
  985POPC   C1B17347   3.155  44.205   9.008
  985POPC   C2B17348   3.153  44.254   8.577
  985POPC   C3B17349   3.302  44.116   8.220
  985POPC   C4B17350   3.285  44.295   7.833
  986POPC   NC317351   0.719   1.307   9.424
  986POPC   PO417352   0.175   1.732   9.302
  986POPC   GL117353   0.314   1.380   9.125
  986POPC   GL217354   0.626   1.502   8.950
  986POPC   C1A17355   0.331   1.095   8.786
  986POPC   D2A17356   0.220   1.224   8.375
  986POPC   C3A17357   0.318   0.987   8.006
  986POPC   C4A17358   0.478   1.006   7.622
  986POPC   C1B17359   0.260   1.646   8.675
  986POPC   C2B17360   0.127   1.720   8.258
  986POPC   C3B17361   0.340   1.513   7.926
  986POPC   C4B17362   0.328   1.511   7.491
  987POPC   NC317363  43.754  22.239   9.520
  987POPC   PO417364  43.948  21.609   9.619
  987POPC   GL117365  43.946  21.879   9.210
  987POPC   GL217366  43.597  22.004   9.099
  987POPC   C1A17367  44.052  22.057   8.783
  987POPC   D2A17368  43.922  21.915   8.345
  987POPC   C3A17369  44.047  22.179   7.986
  987POPC   C4A17370  44.048  22.111   7.526
  987POPC   C1B17371  43.521  22.107   8.669
  987POPC   C2B17372  43.480  22.236   8.247
  987POPC   C3B17373  43.541  22.212   7.824
  987POPC   C4B17374  43.530  22.251   7.385
  988POPC   NC317375  13.425   4.110   9.294
  988POPC   PO417376  13.770   3.611   9.656
  988POPC   GL117377  13.662   3.614   9.202
  988POPC   GL217378  13.876   3.880   9.086
  988POPC   C1A17379  13.517   3.427   8.787
  988POPC   D2A17380  13.493   3.712   8.478
  988POPC   C3A17381  13.470   3.667   8.083
  988POPC   C4A17382  13.605   3.305   7.872
  988POPC   C1B17383  13.949   3.665   8.704
  988POPC   C2B17384  13.884   3.452   8.305
  988POPC   C3B17385  13.958   3.671   7.895
  988POPC   C4B17386  14.004   3.967   7.532
  989POPC   NC317387   2.379  38.424   9.710
  989POPC   PO417388   2.917  38.151   9.413
  989POPC   GL117389   2.903  38.184   9.031
  989POPC   GL217390   2.778  38.536   9.061
  989POPC   C1A17391   2.736  38.270   8.638
  989POPC   D2A17392   2.833  38.536   8.334
  989POPC   C3A17393   2.666  38.368   8.012
  989POPC   C4A17394   2.608  38.220   7.637
  989POPC   C1B17395   2.843  38.860   8.743
  989POPC   C2B17396   2.650  39.010   8.339
  989POPC   C3B17397   2.725  38.879   7.875
  989POPC   C4B17398   2.701  39.062   7.427
  990POPC   NC317399  37.752  20.056   9.432
  990POPC   PO417400  38.221  19.649   9.284
  990POPC   GL117401  37.842  19.660   9.026
  990POPC   GL217402  37.509  19.818   9.055
  990POPC   C1A17403  37.743  19.741   8.594
  990POPC   D2A17404  37.755  19.434   8.264
  990POPC   C3A17405  37.748  19.707   7.947
  990POPC   C4A17406  37.615  20.055   7.730
  990POPC   C1B17407  37.231  19.831   8.695
  990POPC   C2B17408  37.279  19.666   8.278
  990POPC   C3B17409  37.225  19.730   7.819
  990POPC   C4B17410  37.244  19.917   7.401
  991POPC   NC317411   0.238  33.542   9.456
  991POPC   PO417412   0.228  32.905   9.567
  991POPC   GL117413   0.283  32.842   9.163
  991POPC   GL217414   0.266  33.182   9.070
  991POPC   C1A17415   0.468  32.659   8.802
  991POPC   D2A17416   0.349  32.861   8.430
  991POPC   C3A17417   0.540  32.758   8.030
  991POPC   C4A17418   0.244  32.910   7.725
  991POPC   C1B17419   0.650  33.162   8.811
  991POPC   C2B17420   0.671  33.303   8.388
  991POPC   C3B17421   0.382  33.244   8.075
  991POPC   C4B17422   0.586  33.293   7.675
  992POPC   NC317423   8.012  36.501   9.522
  992POPC   PO417424   8.302  35.873   9.459
  992POPC   GL117425   8.195  35.926   9.084
  992POPC   GL217426   7.917  36.154   9.086
  992POPC   C1A17427   8.289  35.975   8.684
  992POPC   D2A17428   8.124  35.845   8.319
  992POPC   C3A17429   8.258  36.122   8.003
  992POPC   C4A17430   8.486  36.058   7.654
  992POPC   C1B17431   7.879  36.334   8.665
  992POPC   C2B17432   7.874  36.379   8.213
  992POPC   C3B17433   7.840  36.431   7.759
  992POPC   C4B17434   7.802  36.405   7.262
  993POPC   NC317435  18.760  16.844   9.377
  993POPC   PO417436  18.100  16.486   9.477
  993POPC   GL117437  18.306  16.658   9.154
  993POPC   GL217438  18.605  16.452   9.110
  993POPC   C1A17439  18.134  16.836   8.764
  993POPC   D2A17440  18.001  16.661   8.381
  993POPC   C3A17441  17.953  16.966   8.069
  993POPC   C4A17442  18.194  17.155   7.768
  993POPC   C1B17443  18.629  16.771   8.776
  993POPC   C2B17444  18.536  16.688   8.412
  993POPC   C3B17445  18.449  16.815   8.053
  993POPC   C4B17446  18.560  16.843   7.647
  994POPC   NC317447  44.377  24.561   9.546
  994POPC   PO417448  43.696  24.245   9.513
  994POPC   GL117449  43.739  24.444   9.155
  994POPC   GL217450  44.076  24.431   9.175
  994POPC   C1A17451  43.754  24.562   8.739
  994POPC   D2A17452  43.678  24.396   8.342
  994POPC   C3A17453  43.620  24.550   7.929
  994POPC   C4A17454  43.775  24.863   7.653
  994POPC   C1B17455  44.273  24.559   8.832
  994POPC   C2B17456  44.218  24.435   8.411
  994POPC   C3B17457  44.134  24.629   8.013
  994POPC   C4B17458  44.043  24.431   7.628
  995POPC   NC317459  31.670  36.771   9.852
  995POPC   PO417460  31.701  37.080   9.273
  995POPC   GL117461  31.596  36.734   8.953
  995POPC   GL217462  31.273  36.624   9.073
  995POPC   C1A17463  31.694  36.649   8.528
  995POPC   D2A17464  31.456  36.956   8.308
  995POPC   C3A17465  31.422  36.931   7.904
  995POPC   C4A17466  31.785  37.045   7.775
  995POPC   C1B17467  31.164  36.670   8.610
  995POPC   C2B17468  31.037  36.662   8.147
  995POPC   C3B17469  30.940  36.781   7.702
  995POPC   C4B17470  31.044  36.659   7.245
  996POPC   NC317471  17.377   2.918   9.376
  996POPC   PO417472  17.574   3.601   9.583
  996POPC   GL117473  17.663   3.660   9.177
  996POPC   GL217474  17.722   3.297   9.155
  996POPC   C1A17475  17.422   3.803   8.796
  996POPC   D2A17476  17.150   3.704   8.436
  996POPC   C3A17477  17.356   3.740   8.048
  996POPC   C4A17478  17.241   3.917   7.669
  996POPC   C1B17479  17.824   3.497   8.736
  996POPC   C2B17480  17.563   3.428   8.426
  996POPC   C3B17481  17.521   3.246   8.054
  996POPC   C4B17482  17.754   3.465   7.740
  997POPC   NC317483   6.816  32.240   9.345
  997POPC   PO417484   6.263  32.335   9.705
  997POPC   GL117485   6.355  31.982   9.275
  997POPC   GL217486   6.654  31.786   9.162
  997POPC   C1A17487   6.368  31.981   8.788
  997POPC   D2A17488   6.256  32.331   8.502
  997POPC   C3A17489   6.393  32.202   8.117
  997POPC   C4A17490   6.379  32.364   7.725
  997POPC   C1B17491   6.895  31.851   8.752
  997POPC   C2B17492   6.854  32.097   8.371
  997POPC   C3B17493   6.829  32.032   7.921
  997POPC   C4B17494   6.894  32.407   7.664
  998POPC   NC317495  29.410  12.458   9.369
  998POPC   PO417496  29.103  13.008   9.568
  998POPC   GL117497  29.100  12.850   9.161
  998POPC   GL217498  29.384  13.002   9.075
  998POPC   C1A17499  28.983  12.754   8.727
  998POPC   D2A17500  29.179  12.811   8.295
  998POPC   C3A17501  29.014  12.821   7.869
  998POPC   C4A17502  29.055  13.225   7.747
  998POPC   C1B17503  29.504  12.723   8.712
  998POPC   C2B17504  29.630  12.569   8.286
  998POPC   C3B17505  29.522  12.744   7.864
  998POPC   C4B17506  29.332  12.793   7.422
  999POPC   NC317507  21.332  35.010   9.580
  999POPC   PO417508  21.484  35.567   9.492
  999POPC   GL117509  21.565  35.399   9.084
  999POPC   GL217510  21.474  35.065   9.092
  999POPC   C1A17511  21.554  35.423   8.617
  999POPC   D2A17512  21.782  35.609   8.266
  999POPC   C3A17513  21.613  35.587   7.857
  999POPC   C4A17514  21.262  35.340   7.764
  999POPC   C1B17515  21.839  35.053   8.829
  999POPC   C2B17516  21.905  35.096   8.396
  999POPC   C3B17517  21.648  35.107   8.040
  999POPC   C4B17518  21.711  35.151   7.596
 1000POPC   NC317519   9.399  27.228   9.440
 1000POPC   PO417520   9.900  26.812   9.469
 1000POPC   GL117521  10.097  26.734   9.057
 1000POPC   GL217522   9.753  26.791   8.950
 1000POPC   C1A17523  10.055  26.656   8.572
 1000POPC   D2A17524   9.759  26.684   8.210
 1000POPC   C3A17525   9.918  26.577   7.801
 1000POPC   C4A17526  10.141  26.869   7.509
 1000POPC   C1B17527   9.663  27.137   8.653
 1000POPC   C2B17528   9.522  27.298   8.241
 1000POPC   C3B17529   9.347  27.078   7.899
 1000POPC   C4B17530   9.408  26.639   7.794
 1001POPC   NC317531  30.440   0.610   9.407
 1001POPC   PO417532  31.028   0.202   9.341
 1001POPC   GL117533  30.867   0.510   9.065
 1001POPC   GL217534  30.536   0.481   8.937
 1001POPC   C1A17535  30.974   0.408   8.662
 1001POPC   D2A17536  30.673   0.365   8.389
 1001POPC   C3A17537  30.764   0.131   8.025
 1001POPC   C4A17538  31.101   0.084   7.716
 1001POPC   C1B17539  30.603   0.822   8.669
 1001POPC   C2B17540  30.560   0.841   8.215
 1001POPC   C3B17541  30.652   0.595   7.861
 1001POPC   C4B17542  30.391   0.453   7.543
 1002POPC   NC317543  38.694  23.820   9.395
 1002POPC   PO417544  37.969  23.506   9.390
 1002POPC   GL117545  38.336  23.504   9.208
 1002POPC   GL217546  38.276  23.799   9.037
 1002POPC   C1A17547  38.476  23.367   8.812
 1002POPC   D2A17548  38.324  23.296   8.412
 1002POPC   C3A17549  38.510  23.559   8.107
 1002POPC   C4A17550  38.302  23.804   7.781
 1002POPC   C1B17551  38.596  23.858   8.712
 1002POPC   C2B17552  38.861  23.887   8.346
 1002POPC   C3B17553  38.788  23.965   7.898
 1002POPC   C4B17554  38.693  24.169   7.500
 1003POPC   NC317555  40.482  22.462   9.486
 1003POPC   PO417556  40.882  21.915   9.536
 1003POPC   GL117557  40.986  22.093   9.131
 1003POPC   GL217558  40.654  22.180   9.110
 1003POPC   C1A17559  40.829  22.011   8.683
 1003POPC   D2A17560  40.715  21.928   8.270
 1003POPC   C3A17561  40.885  22.180   7.933
 1003POPC   C4A17562  40.619  22.099   7.658
 1003POPC   C1B17563  40.405  22.319   8.787
 1003POPC   C2B17564  40.398  22.597   8.489
 1003POPC   C3B17565  40.426  22.391   8.102
 1003POPC   C4B17566  40.321  22.487   7.735
 1004POPC   NC317567  43.111  14.854   9.687
 1004POPC   PO417568  43.278  14.265   9.465
 1004POPC   GL117569  43.111  14.489   9.162
 1004POPC   GL217570  42.838  14.743   9.275
 1004POPC   C1A17571  43.312  14.552   8.775
 1004POPC   D2A17572  43.360  14.458   8.368
 1004POPC   C3A17573  43.131  14.447   8.028
 1004POPC   C4A17574  43.335  14.508   7.649
 1004POPC   C1B17575  42.699  14.547   8.873
 1004POPC   C2B17576  42.824  14.496   8.450
 1004POPC   C3B17577  42.742  14.761   8.103
 1004POPC   C4B17578  42.909  14.807   7.730
 1005POPC   NC317579  36.995  44.174   9.293
 1005POPC   PO417580  37.319  44.561   9.693
 1005POPC   GL117581  37.214  44.742   9.252
 1005POPC   GL217582  36.871  44.749   9.055
 1005POPC   C1A17583  37.289  44.630   8.821
 1005POPC   D2A17584  36.944  44.537   8.539
 1005POPC   C3A17585  37.003  44.563   8.098
 1005POPC   C4A17586  37.071  44.760   7.715
 1005POPC   C1B17587  36.630  44.920   8.723
 1005POPC   C2B17588  36.522   0.008   8.323
 1005POPC   C3B17589  36.528  44.752   7.976
 1005POPC   C4B17590  36.564  44.901   7.586
 1006POPC   NC317591  19.455  33.692   9.576
 1006POPC   PO417592  20.011  33.356   9.643
 1006POPC   GL117593  19.907  33.552   9.239
 1006POPC   GL217594  19.582  33.398   9.165
 1006POPC   C1A17595  20.100  33.692   8.826
 1006POPC   D2A17596  19.852  33.774   8.434
 1006POPC   C3A17597  20.050  33.780   8.014
 1006POPC   C4A17598  19.974  34.037   7.618
 1006POPC   C1B17599  19.694  33.396   8.748
 1006POPC   C2B17600  19.497  33.381   8.360
 1006POPC   C3B17601  19.637  33.468   7.972
 1006POPC   C4B17602  19.786  33.570   7.576
 1007POPC   NC317603   4.136  13.042   9.447
 1007POPC   PO417604   4.525  12.476   9.505
 1007POPC   GL117605   4.398  12.698   9.165
 1007POPC   GL217606   4.643  12.950   9.171
 1007POPC   C1A17607   4.040  12.677   8.869
 1007POPC   D2A17608   3.970  12.869   8.487
 1007POPC   C3A17609   4.014  12.673   8.137
 1007POPC   C4A17610   4.001  12.766   7.747
 1007POPC   C1B17611   4.479  12.988   8.751
 1007POPC   C2B17612   4.465  12.871   8.323
 1007POPC   C3B17613   4.462  12.974   7.903
 1007POPC   C4B17614   4.588  12.758   7.510
 1008POPC   NC317615  20.376  19.536   9.530
 1008POPC   PO417616  20.256  20.199   9.415
 1008POPC   GL117617  20.431  19.868   9.120
 1008POPC   GL217618  20.235  19.535   9.031
 1008POPC   C1A17619  20.689  19.967   8.728
 1008POPC   D2A17620  20.691  19.821   8.298
 1008POPC   C3A17621  20.705  20.088   7.919
 1008POPC   C4A17622  20.718  20.068   7.467
 1008POPC   C1B17623  20.259  19.728   8.665
 1008POPC   C2B17624  20.167  19.873   8.312
 1008POPC   C3B17625  20.308  19.727   7.937
 1008POPC   C4B17626  20.282  19.839   7.542
 1009POPC   NC317627   8.301  30.608   9.589
 1009POPC   PO417628   8.705  31.172   9.554
 1009POPC   GL117629   8.321  30.961   9.225
 1009POPC   GL217630   7.928  30.903   9.071
 1009POPC   C1A17631   8.214  30.524   8.950
 1009POPC   D2A17632   8.261  30.484   8.512
 1009POPC   C3A17633   7.997  30.552   8.166
 1009POPC   C4A17634   8.089  30.562   7.702
 1009POPC   C1B17635   8.254  30.963   8.730
 1009POPC   C2B17636   8.373  30.930   8.296
 1009POPC   C3B17637   8.472  30.803   7.927
 1009POPC   C4B17638   8.324  31.078   7.645
 1010POPC   NC317639  12.744   0.004   9.531
 1010POPC   PO417640  13.239  44.635   9.472
 1010POPC   GL117641  12.862  44.663   9.166
 1010POPC   GL217642  12.642  44.950   9.034
 1010POPC   C1A17643  12.606  44.469   8.811
 1010POPC   D2A17644  12.504  44.359   8.353
 1010POPC   C3A17645  12.616  44.611   7.972
 1010POPC   C4A17646  12.551  44.619   7.498
 1010POPC   C1B17647  12.918  44.880   8.707
 1010POPC   C2B17648  13.029  44.718   8.352
 1010POPC   C3B17649  13.070  44.854   7.938
 1010POPC   C4B17650  12.881   0.164   7.706
 1011POPC   NC317651  42.205  13.554   9.392
 1011POPC   PO417652  42.678  13.856   9.645
 1011POPC   GL117653  42.685  13.556   9.210
 1011POPC   GL217654  42.395  13.329   8.981
 1011POPC   C1A17655  42.670  13.679   8.761
 1011POPC   D2A17656  42.451  13.580   8.356
 1011POPC   C3A17657  42.624  13.563   7.942
 1011POPC   C4A17658  42.367  13.711   7.634
 1011POPC   C1B17659  42.139  13.692   8.744
 1011POPC   C2B17660  41.945  13.701   8.304
 1011POPC   C3B17661  42.112  13.417   7.982
 1011POPC   C4B17662  42.205  13.231   7.585
 1012POPC   NC317663  34.689  39.606   9.175
 1012POPC   PO417664  34.546  40.178   9.468
 1012POPC   GL117665  34.495  40.060   9.067
 1012POPC   GL217666  34.892  40.057   9.068
 1012POPC   C1A17667  34.261  39.803   8.729
 1012POPC   D2A17668  34.330  39.648   8.314
 1012POPC   C3A17669  34.506  39.988   8.079
 1012POPC   C4A17670  34.858  39.952   7.832
 1012POPC   C1B17671  34.733  40.077   8.624
 1012POPC   C2B17672  34.442  40.398   8.499
 1012POPC   C3B17673  34.274  40.495   8.107
 1012POPC   C4B17674  34.226  40.292   7.741
 1013POPC   NC317675  19.984  41.535   9.580
 1013POPC   PO417676  19.868  42.181   9.678
 1013POPC   GL117677  19.864  41.875   9.236
 1013POPC   GL217678  19.682  41.513   9.175
 1013POPC   C1A17679  19.955  41.725   8.813
 1013POPC   D2A17680  19.770  41.624   8.440
 1013POPC   C3A17681  20.056  41.523   8.148
 1013POPC   C4A17682  20.104  41.614   7.727
 1013POPC   C1B17683  19.749  41.264   8.797
 1013POPC   C2B17684  19.758  41.121   8.388
 1013POPC   C3B17685  19.567  41.333   8.042
 1013POPC   C4B17686  19.667  41.322   7.626
 1014POPC   NC317687  37.554  44.950   9.584
 1014POPC   PO417688  38.118   0.161   9.719
 1014POPC   GL117689  38.016  44.915   9.303
 1014POPC   GL217690  37.888  44.542   9.254
 1014POPC   C1A17691  37.788  44.882   8.881
 1014POPC   D2A17692  37.525  44.944   8.505
 1014POPC   C3A17693  37.683  44.842   8.105
 1014POPC   C4A17694  37.549  44.972   7.715
 1014POPC   C1B17695  37.722  44.343   8.823
 1014POPC   C2B17696  37.484  44.425   8.371
 1014POPC   C3B17697  37.432  44.384   7.865
 1014POPC   C4B17698  37.219  44.389   7.407
 1015POPC   NC317699  35.499  33.344   9.465
 1015POPC   PO417700  35.258  32.647   9.442
 1015POPC   GL117701  35.357  32.961   9.156
 1015POPC   GL217702  35.710  33.049   9.104
 1015POPC   C1A17703  35.293  32.949   8.748
 1015POPC   D2A17704  35.023  32.739   8.463
 1015POPC   C3A17705  35.103  32.983   8.118
 1015POPC   C4A17706  35.198  32.853   7.729
 1015POPC   C1B17707  35.712  33.306   8.748
 1015POPC   C2B17708  35.478  33.256   8.376
 1015POPC   C3B17709  35.600  32.958   8.050
 1015POPC   C4B17710  35.780  33.077   7.682
 1016POPC   NC317711   8.021  38.711   9.469
 1016POPC   PO417712   8.122  38.064   9.370
 1016POPC   GL117713   8.152  38.336   9.090
 1016POPC   GL217714   8.409  38.527   9.144
 1016POPC   C1A17715   8.096  38.548   8.733
 1016POPC   D2A17716   7.964  38.375   8.373
 1016POPC   C3A17717   8.133  38.546   8.015
 1016POPC   C4A17718   8.223  38.742   7.646
 1016POPC   C1B17719   8.602  38.447   8.736
 1016POPC   C2B17720   8.566  38.451   8.285
 1016POPC   C3B17721   8.542  38.277   7.842
 1016POPC   C4B17722   8.823  38.370   7.499
 1017POPC   NC317723  42.734  43.746   9.394
 1017POPC   PO417724  43.231  44.154   9.449
 1017POPC   GL117725  43.016  44.084   9.091
 1017POPC   GL217726  43.145  43.755   9.050
 1017POPC   C1A17727  42.961  44.020   8.653
 1017POPC   D2A17728  43.194  43.823   8.360
 1017POPC   C3A17729  43.151  44.087   8.036
 1017POPC   C4A17730  42.998  44.122   7.654
 1017POPC   C1B17731  42.953  43.507   8.744
 1017POPC   C2B17732  42.697  43.619   8.391
 1017POPC   C3B17733  42.860  43.619   7.979
 1017POPC   C4B17734  42.732  43.689   7.563
 1018POPC   NC317735  44.856  44.400   9.486
 1018POPC   PO417736  44.272  44.689   9.370
 1018POPC   GL117737  44.622  44.772   9.153
 1018POPC   GL217738  44.697  44.437   9.007
 1018POPC   C1A17739  44.676  44.916   8.735
 1018POPC   D2A17740  44.768  44.757   8.322
 1018POPC   C3A17741  44.700  44.976   7.968
 1018POPC   C4A17742  44.590  44.842   7.536
 1018POPC   C1B17743  44.978  44.408   8.642
 1018POPC   C2B17744  44.894  44.262   8.217
 1018POPC   C3B17745  44.738  44.478   7.867
 1018POPC   C4B17746   0.091  44.758   7.716
 1019POPC   NC317747  26.535  15.451   9.706
 1019POPC   PO417748  27.213  15.391   9.604
 1019POPC   GL117749  26.900  15.197   9.275
 1019POPC   GL217750  26.558  15.251   9.251
 1019POPC   C1A17751  26.769  14.965   8.873
 1019POPC   D2A17752  26.837  14.848   8.442
 1019POPC   C3A17753  26.936  15.078   8.049
 1019POPC   C4A17754  27.073  15.123   7.600
 1019POPC   C1B17755  26.692  15.477   8.889
 1019POPC   C2B17756  26.823  15.380   8.469
 1019POPC   C3B17757  26.589  15.450   8.078
 1019POPC   C4B17758  26.358  15.570   7.731
 1020POPC   NC317759  22.920   1.259   9.713
 1020POPC   PO417760  22.315   1.195   9.444
 1020POPC   GL117761  22.752   1.164   9.223
 1020POPC   GL217762  23.163   1.163   9.249
 1020POPC   C1A17763  22.836   1.327   8.818
 1020POPC   D2A17764  22.831   1.092   8.448
 1020POPC   C3A17765  22.877   1.339   8.101
 1020POPC   C4A17766  22.692   1.176   7.707
 1020POPC   C1B17767  23.284   1.067   8.793
 1020POPC   C2B17768  23.327   1.030   8.324
 1020POPC   C3B17769  23.046   0.871   7.973
 1020POPC   C4B17770  23.099   0.945   7.523
 1021POPC   NC317771  35.247  28.428   9.665
 1021POPC   PO417772  35.382  28.952   9.233
 1021POPC   GL117773  35.427  28.522   9.166
 1021POPC   GL217774  35.136  28.297   9.182
 1021POPC   C1A17775  35.635  28.269   8.859
 1021POPC   D2A17776  35.496  28.069   8.457
 1021POPC   C3A17777  35.634  28.227   8.049
 1021POPC   C4A17778  35.378  28.419   7.733
 1021POPC   C1B17779  35.022  28.450   8.773
 1021POPC   C2B17780  34.972  28.261   8.364
 1021POPC   C3B17781  35.149  28.067   8.013
 1021POPC   C4B17782  35.104  28.033   7.567
 1022POPC   NC317783  26.319  23.738   9.875
 1022POPC   PO417784  26.978  23.789   9.629
 1022POPC   GL117785  26.895  23.694   9.215
 1022POPC   GL217786  27.215  23.715   9.157
 1022POPC   C1A17787  26.856  23.562   8.775
 1022POPC   D2A17788  26.768  23.428   8.344
 1022POPC   C3A17789  26.834  23.452   7.913
 1022POPC   C4A17790  26.581  23.789   7.730
 1022POPC   C1B17791  27.152  23.986   8.825
 1022POPC   C2B17792  27.124  23.809   8.418
 1022POPC   C3B17793  27.108  23.855   7.987
 1022POPC   C4B17794  27.019  24.033   7.631
 1023POPC   NC317795  12.338  21.492   9.455
 1023POPC   PO417796  11.701  21.425   9.562
 1023POPC   GL117797  11.928  21.538   9.164
 1023POPC   GL217798  12.072  21.189   9.122
 1023POPC   C1A17799  12.120  21.520   8.727
 1023POPC   D2A17800  12.194  21.692   8.346
 1023POPC   C3A17801  12.284  21.514   7.999
 1023POPC   C4A17802  12.109  21.521   7.618
 1023POPC   C1B17803  12.170  21.016   8.683
 1023POPC   C2B17804  12.344  21.072   8.250
 1023POPC   C3B17805  12.284  21.033   7.808
 1023POPC   C4B17806  12.023  21.040   7.434
 1024POPC   NC317807   9.189  43.977   9.637
 1024POPC   PO417808   8.607  43.704   9.468
 1024POPC   GL117809   8.864  43.965   9.210
 1024POPC   GL217810   9.242  43.943   9.147
 1024POPC   C1A17811   8.911  44.113   8.793
 1024POPC   D2A17812   9.076  44.258   8.405
 1024POPC   C3A17813   8.791  44.162   8.096
 1024POPC   C4A17814   8.723  43.890   7.778
 1024POPC   C1B17815   9.304  43.756   8.767
 1024POPC   C2B17816   9.194  43.741   8.367
 1024POPC   C3B17817   9.261  43.944   8.001
 1024POPC   C4B17818   9.193  43.812   7.614
 1025POPC   NC317819  15.251   6.448   9.442
 1025POPC   PO417820  15.071   7.053   9.599
 1025POPC   GL117821  14.961   6.797   9.233
 1025POPC   GL217822  15.256   6.718   9.039
 1025POPC   C1A17823  14.872   6.912   8.791
 1025POPC   D2A17824  14.969   7.171   8.451
 1025POPC   C3A17825  15.052   7.008   8.040
 1025POPC   C4A17826  15.313   6.705   7.840
 1025POPC   C1B17827  15.291   6.511   8.682
 1025POPC   C2B17828  15.139   6.486   8.283
 1025POPC   C3B17829  15.221   6.214   7.964
 1025POPC   C4B17830  15.156   6.326   7.511
 1026POPC   NC317831   4.008  37.172   9.592
 1026POPC   PO417832   4.430  36.596   9.560
 1026POPC   GL117833   4.515  36.747   9.171
 1026POPC   GL217834   4.320  37.019   9.220
 1026POPC   C1A17835   4.329  36.815   8.756
 1026POPC   D2A17836   4.033  36.717   8.453
 1026POPC   C3A17837   4.213  36.834   8.066
 1026POPC   C4A17838   3.995  37.042   7.739
 1026POPC   C1B17839   4.556  37.246   8.907
 1026POPC   C2B17840   4.575  37.195   8.457
 1026POPC   C3B17841   4.654  37.111   8.019
 1026POPC   C4B17842   4.464  37.291   7.667
 1027POPC   NC317843  26.319  25.446   9.436
 1027POPC   PO417844  25.765  24.968   9.575
 1027POPC   GL117845  25.859  25.065   9.160
 1027POPC   GL217846  26.210  24.988   9.222
 1027POPC   C1A17847  25.835  25.125   8.704
 1027POPC   D2A17848  25.918  25.099   8.252
 1027POPC   C3A17849  26.022  25.507   8.046
 1027POPC   C4A17850  25.799  25.445   7.661
 1027POPC   C1B17851  26.319  25.105   8.854
 1027POPC   C2B17852  26.254  25.348   8.513
 1027POPC   C3B17853  26.451  25.232   8.131
 1027POPC   C4B17854  26.240  25.173   7.732
 1028POPC   NC317855  24.991  31.922   9.615
 1028POPC   PO417856  25.563  32.160   9.611
 1028POPC   GL117857  25.259  32.202   9.245
 1028POPC   GL217858  25.439  31.967   9.078
 1028POPC   C1A17859  25.025  32.343   8.845
 1028POPC   D2A17860  24.865  32.216   8.427
 1028POPC   C3A17861  24.918  32.402   8.003
 1028POPC   C4A17862  25.218  32.249   7.698
 1028POPC   C1B17863  25.455  32.183   8.653
 1028POPC   C2B17864  25.365  32.310   8.213
 1028POPC   C3B17865  25.686  32.340   7.853
 1028POPC   C4B17866  25.721  32.258   7.429
 1029POPC   NC317867  32.962   3.541   9.501
 1029POPC   PO417868  33.506   3.427   9.851
 1029POPC   GL117869  33.441   3.555   9.363
 1029POPC   GL217870  33.281   3.839   9.209
 1029POPC   C1A17871  33.476   3.473   8.871
 1029POPC   D2A17872  33.388   3.232   8.496
 1029POPC   C3A17873  33.463   3.342   8.069
 1029POPC   C4A17874  33.334   3.510   7.679
 1029POPC   C1B17875  33.095   3.791   8.784
 1029POPC   C2B17876  33.025   3.571   8.396
 1029POPC   C3B17877  32.928   3.463   7.992
 1029POPC   C4B17878  32.844   3.617   7.574
 1030POPC   NC317879  17.900  24.882   9.497
 1030POPC   PO417880  17.398  24.492   9.521
 1030POPC   GL117881  17.387  24.575   9.136
 1030POPC   GL217882  17.721  24.391   9.113
 1030POPC   C1A17883  17.177  24.808   8.806
 1030POPC   D2A17884  17.048  24.893   8.384
 1030POPC   C3A17885  17.288  24.636   8.092
 1030POPC   C4A17886  17.605  24.664   7.777
 1030POPC   C1B17887  17.614  24.525   8.693
 1030POPC   C2B17888  17.758  24.619   8.305
 1030POPC   C3B17889  17.742  24.249   8.064
 1030POPC   C4B17890  17.723  24.174   7.647
 1031POPC   NC317891  33.864  42.609   9.292
 1031POPC   PO417892  33.484  42.139   9.530
 1031POPC   GL117893  33.654  42.150   9.120
 1031POPC   GL217894  33.975  42.018   9.073
 1031POPC   C1A17895  33.688  42.364   8.715
 1031POPC   D2A17896  33.980  42.362   8.404
 1031POPC   C3A17897  33.748  42.438   8.075
 1031POPC   C4A17898  33.532  42.683   7.798
 1031POPC   C1B17899  33.855  41.880   8.665
 1031POPC   C2B17900  33.864  41.831   8.240
 1031POPC   C3B17901  33.658  41.964   7.903
 1031POPC   C4B17902  33.731  42.268   7.596
 1032POPC   NC317903  32.199   9.335   9.386
 1032POPC   PO417904  32.250  10.014   9.482
 1032POPC   GL117905  32.292   9.764   9.132
 1032POPC   GL217906  31.999   9.561   8.997
 1032POPC   C1A17907  32.393   9.798   8.750
 1032POPC   D2A17908  32.446   9.999   8.413
 1032POPC   C3A17909  32.565   9.867   8.068
 1032POPC   C4A17910  32.420   9.680   7.697
 1032POPC   C1B17911  32.205   9.336   8.665
 1032POPC   C2B17912  32.242   9.422   8.223
 1032POPC   C3B17913  31.971   9.466   7.878
 1032POPC   C4B17914  32.012   9.504   7.397
 1033POPC   NC317915  19.894  31.870   9.578
 1033POPC   PO417916  19.623  31.209   9.499
 1033POPC   GL117917  19.830  31.504   9.165
 1033POPC   GL217918  19.702  31.841   9.071
 1033POPC   C1A17919  19.836  31.497   8.687
 1033POPC   D2A17920  19.561  31.405   8.291
 1033POPC   C3A17921  19.789  31.321   7.870
 1033POPC   C4A17922  20.201  31.369   7.645
 1033POPC   C1B17923  19.375  31.816   8.741
 1033POPC   C2B17924  19.368  31.915   8.310
 1033POPC   C3B17925  19.720  31.819   8.026
 1033POPC   C4B17926  19.683  31.735   7.571
 1034POPC   NC317927   8.201  13.219   9.543
 1034POPC   PO417928   7.918  13.792   9.490
 1034POPC   GL117929   8.008  13.498   9.156
 1034POPC   GL217930   7.932  13.777   8.962
 1034POPC   C1A17931   8.103  13.323   8.737
 1034POPC   D2A17932   8.159  13.589   8.376
 1034POPC   C3A17933   8.221  13.450   7.953
 1034POPC   C4A17934   8.489  13.552   7.583
 1034POPC   C1B17935   7.781  13.987   8.605
 1034POPC   C2B17936   7.885  14.019   8.193
 1034POPC   C3B17937   8.083  13.915   7.815
 1034POPC   C4B17938   8.435  14.080   7.576
 1035POPC   NC317939  31.394  39.632   9.418
 1035POPC   PO417940  32.020  39.510   9.197
 1035POPC   GL117941  31.709  39.270   8.965
 1035POPC   GL217942  31.350  39.337   9.004
 1035POPC   C1A17943  31.534  38.962   8.687
 1035POPC   D2A17944  31.147  38.953   8.547
 1035POPC   C3A17945  31.217  39.107   8.145
 1035POPC   C4A17946  31.381  38.917   7.778
 1035POPC   C1B17947  31.330  39.427   8.566
 1035POPC   C2B17948  31.666  39.286   8.325
 1035POPC   C3B17949  31.651  39.356   7.908
 1035POPC   C4B17950  31.326  39.481   7.655
 1036POPC   NC317951   0.445  26.208   9.530
 1036POPC   PO417952   1.062  26.440   9.636
 1036POPC   GL117953   0.825  26.220   9.206
 1036POPC   GL217954   0.628  25.893   9.173
 1036POPC   C1A17955   0.548  26.252   8.805
 1036POPC   D2A17956   0.526  26.409   8.372
 1036POPC   C3A17957   0.524  26.108   8.036
 1036POPC   C4A17958   0.227  25.755   7.954
 1036POPC   C1B17959   0.841  25.835   8.782
 1036POPC   C2B17960   0.936  25.930   8.357
 1036POPC   C3B17961   0.826  25.674   8.024
 1036POPC   C4B17962   0.649  25.809   7.641
 1037POPC   NC317963  36.055  42.846   9.722
 1037POPC   PO417964  36.127  42.227   9.671
 1037POPC   GL117965  36.207  42.463   9.303
 1037POPC   GL217966  36.250  42.118   9.151
 1037POPC   C1A17967  36.119  42.526   8.848
 1037POPC   D2A17968  36.383  42.345   8.540
 1037POPC   C3A17969  36.336  42.305   8.114
 1037POPC   C4A17970  36.180  42.503   7.760
 1037POPC   C1B17971  36.060  41.963   8.767
 1037POPC   C2B17972  35.907  42.106   8.345
 1037POPC   C3B17973  35.824  42.147   7.882
 1037POPC   C4B17974  36.077  42.025   7.517
 1038POPC   NC317975  44.062   4.445   9.591
 1038POPC   PO417976  43.804   3.854   9.598
 1038POPC   GL117977  43.862   4.101   9.178
 1038POPC   GL217978  44.040   4.465   9.097
 1038POPC   C1A17979  43.721   4.263   8.764
 1038POPC   D2A17980  43.719   4.531   8.401
 1038POPC   C3A17981  43.851   4.305   8.028
 1038POPC   C4A17982  43.679   4.112   7.682
 1038POPC   C1B17983  44.226   4.363   8.698
 1038POPC   C2B17984  44.218   4.559   8.299
 1038POPC   C3B17985  44.278   4.553   7.856
 1038POPC   C4B17986  44.107   4.395   7.485
 1039POPC   NC317987  41.829   3.249   9.408
 1039POPC   PO417988  41.413   3.874   9.604
 1039POPC   GL117989  41.541   3.634   9.256
 1039POPC   GL217990  41.282   3.719   9.119
 1039POPC   C1A17991  41.610   3.454   8.828
 1039POPC   D2A17992  41.913   3.449   8.505
 1039POPC   C3A17993  41.690   3.508   8.135
 1039POPC   C4A17994  41.498   3.480   7.729
 1039POPC   C1B17995  41.295   4.028   8.800
 1039POPC   C2B17996  41.448   3.899   8.429
 1039POPC   C3B17997  41.255   3.785   8.070
 1039POPC   C4B17998  41.285   3.967   7.709
 1040POPC   NC317999   0.824  21.451   9.311
 1040POPC   PO418000   1.485  21.586   9.501
 1040POPC   GL118001   1.273  21.573   9.134
 1040POPC   GL218002   1.240  21.224   9.042
 1040POPC   C1A18003   1.142  21.611   8.700
 1040POPC   D2A18004   1.278  21.515   8.295
 1040POPC   C3A18005   1.126  21.752   7.925
 1040POPC   C4A18006   1.241  21.613   7.516
 1040POPC   C1B18007   0.917  21.123   8.721
 1040POPC   C2B18008   0.924  21.129   8.276
 1040POPC   C3B18009   1.053  21.257   7.877
 1040POPC   C4B18010   0.913  21.182   7.469
 1041POPC   NC318011  16.079  32.017   9.569
 1041POPC   PO418012  15.787  32.541   9.523
 1041POPC   GL118013  15.999  32.422   9.175
 1041POPC   GL218014  15.798  32.135   9.091
 1041POPC   C1A18015  15.960  32.477   8.711
 1041POPC   D2A18016  15.722  32.445   8.312
 1041POPC   C3A18017  15.953  32.404   7.918
 1041POPC   C4A18018  16.389  32.285   7.805
 1041POPC   C1B18019  15.728  32.023   8.636
 1041POPC   C2B18020  15.987  31.990   8.222
 1041POPC   C3B18021  16.039  31.903   7.744
 1041POPC   C4B18022  15.726  31.902   7.399
 1042POPC   NC318023  34.885  35.325   9.495
 1042POPC   PO418024  35.513  35.673   9.518
 1042POPC   GL118025  35.246  35.562   9.176
 1042POPC   GL218026  35.235  35.183   9.128
 1042POPC   C1A18027  35.378  35.550   8.755
 1042POPC   D2A18028  35.343  35.284   8.407
 1042POPC   C3A18029  35.385  35.536   8.046
 1042POPC   C4A18030  35.694  35.809   7.929
 1042POPC   C1B18031  34.948  35.288   8.789
 1042POPC   C2B18032  34.765  35.268   8.404
 1042POPC   C3B18033  34.993  35.129   8.057
 1042POPC   C4B18034  35.274  35.176   7.721
 1043POPC   NC318035  22.598  14.952   9.370
 1043POPC   PO418036  23.078  15.328   9.682
 1043POPC   GL118037  22.865  15.406   9.285
 1043POPC   GL218038  22.476  15.473   9.303
 1043POPC   C1A18039  22.937  15.242   8.871
 1043POPC   D2A18040  22.963  14.913   8.579
 1043POPC   C3A18041  23.005  14.983   8.126
 1043POPC   C4A18042  22.838  14.884   7.726
 1043POPC   C1B18043  22.445  15.407   8.840
 1043POPC   C2B18044  22.531  15.182   8.451
 1043POPC   C3B18045  22.608  15.290   8.027
 1043POPC   C4B18046  22.386  15.367   7.680
 1044POPC   NC318047  38.989  13.591   9.304
 1044POPC   PO418048  39.369  14.069   9.564
 1044POPC   GL118049  39.492  14.008   9.178
 1044POPC   GL218050  39.518  13.669   9.232
 1044POPC   C1A18051  39.311  13.928   8.797
 1044POPC   D2A18052  39.367  13.676   8.457
 1044POPC   C3A18053  39.410  13.799   8.028
 1044POPC   C4A18054  39.220  13.524   7.743
 1044POPC   C1B18055  39.515  13.425   8.883
 1044POPC   C2B18056  39.751  13.331   8.540
 1044POPC   C3B18057  39.653  13.340   8.122
 1044POPC   C4B18058  39.728  13.444   7.704
 1045POPC   NC318059  19.555  40.642   9.443
 1045POPC   PO418060  19.946  41.092   9.675
 1045POPC   GL118061  19.862  40.996   9.208
 1045POPC   GL218062  20.161  41.050   8.986
 1045POPC   C1A18063  19.788  40.748   8.794
 1045POPC   D2A18064  19.626  40.568   8.395
 1045POPC   C3A18065  19.790  40.794   8.013
 1045POPC   C4A18066  19.751  40.733   7.585
 1045POPC   C1B18067  20.222  41.170   8.576
 1045POPC   C2B18068  20.246  41.047   8.151
 1045POPC   C3B18069  20.109  41.115   7.767
 1045POPC   C4B18070  20.014  41.077   7.327
 1046POPC   NC318071  36.613  35.317   9.503
 1046POPC   PO418072  35.996  34.900   9.451
 1046POPC   GL118073  36.064  35.333   9.206
 1046POPC   GL218074  35.760  35.521   9.103
 1046POPC   C1A18075  36.131  35.525   8.754
 1046POPC   D2A18076  36.101  35.794   8.383
 1046POPC   C3A18077  36.154  35.619   7.971
 1046POPC   C4A18078  36.303  35.568   7.540
 1046POPC   C1B18079  35.744  35.189   8.812
 1046POPC   C2B18080  35.883  35.234   8.396
 1046POPC   C3B18081  35.725  35.163   8.002
 1046POPC   C4B18082  35.834  35.373   7.647
 1047POPC   NC318083  39.202  14.528   9.580
 1047POPC   PO418084  38.760  14.747   9.152
 1047POPC   GL118085  39.144  14.484   9.073
 1047POPC   GL218086  39.512  14.566   9.162
 1047POPC   C1A18087  39.212  14.430   8.661
 1047POPC   D2A18088  39.370  14.653   8.328
 1047POPC   C3A18089  39.177  14.525   7.954
 1047POPC   C4A18090  39.171  14.613   7.543
 1047POPC   C1B18091  39.668  14.309   8.819
 1047POPC   C2B18092  39.590  14.184   8.402
 1047POPC   C3B18093  39.633  14.295   7.976
 1047POPC   C4B18094  39.471  14.173   7.558
 1048POPC   NC318095   0.967  10.442   9.629
 1048POPC   PO418096   0.459  10.150   9.412
 1048POPC   GL118097   0.240  10.360   9.120
 1048POPC   GL218098   0.481  10.627   9.190
 1048POPC   C1A18099   0.284  10.330   8.679
 1048POPC   D2A18100   0.617  10.449   8.389
 1048POPC   C3A18101   0.391  10.694   8.103
 1048POPC   C4A18102   0.250  10.611   7.708
 1048POPC   C1B18103   0.535  10.760   8.787
 1048POPC   C2B18104   0.656  10.984   8.438
 1048POPC   C3B18105   0.818  10.984   8.019
 1048POPC   C4B18106   0.522  11.043   7.675
 1049POPC   NC318107  30.088   2.695   9.375
 1049POPC   PO418108  29.602   2.933   9.683
 1049POPC   GL118109  29.661   2.943   9.205
 1049POPC   GL218110  29.598   3.273   9.096
 1049POPC   C1A18111  29.908   2.819   8.794
 1049POPC   D2A18112  30.065   2.564   8.469
 1049POPC   C3A18113  30.061   2.564   8.033
 1049POPC   C4A18114  29.932   2.522   7.606
 1049POPC   C1B18115  29.497   3.087   8.698
 1049POPC   C2B18116  29.776   2.977   8.329
 1049POPC   C3B18117  29.652   2.846   7.926
 1049POPC   C4B18118  29.482   2.744   7.532
 1050POPC   NC318119  29.179   2.733   9.558
 1050POPC   PO418120  28.687   2.143   9.425
 1050POPC   GL118121  28.937   2.484   9.167
 1050POPC   GL218122  28.933   2.886   9.145
 1050POPC   C1A18123  29.257   2.648   8.843
 1050POPC   D2A18124  29.537   2.552   8.487
 1050POPC   C3A18125  29.332   2.476   8.092
 1050POPC   C4A18126  29.051   2.636   7.783
 1050POPC   C1B18127  28.802   3.147   8.800
 1050POPC   C2B18128  29.071   3.298   8.492
 1050POPC   C3B18129  29.296   3.111   8.180
 1050POPC   C4B18130  29.226   3.127   7.765
 1051POPC   NC318131  32.380   3.962   9.270
 1051POPC   PO418132  32.551   3.294   9.455
 1051POPC   GL118133  32.399   3.477   9.114
 1051POPC   GL218134  32.713   3.614   9.059
 1051POPC   C1A18135  32.103   3.555   8.773
 1051POPC   D2A18136  32.013   3.738   8.371
 1051POPC   C3A18137  32.134   3.567   7.967
 1051POPC   C4A18138  32.478   3.340   7.803
 1051POPC   C1B18139  32.579   3.769   8.672
 1051POPC   C2B18140  32.530   3.629   8.280
 1051POPC   C3B18141  32.543   3.858   7.907
 1051POPC   C4B18142  32.345   3.750   7.521
 1052POPC   NC318143  17.935  20.131   9.488
 1052POPC   PO418144  18.609  19.818   9.522
 1052POPC   GL118145  18.322  19.986   9.157
 1052POPC   GL218146  17.981  20.124   8.999
 1052POPC   C1A18147  18.335  19.844   8.707
 1052POPC   D2A18148  18.442  19.512   8.398
 1052POPC   C3A18149  18.280  19.607   7.973
 1052POPC   C4A18150  18.431  19.737   7.549
 1052POPC   C1B18151  18.173  20.339   8.710
 1052POPC   C2B18152  18.396  20.295   8.359
 1052POPC   C3B18153  18.375  20.101   7.954
 1052POPC   C4B18154  18.008  19.966   7.713
 1053POPC   NC318155  44.832  25.203   9.414
 1053POPC   PO418156  44.308  25.618   9.626
 1053POPC   GL118157  44.477  25.509   9.186
 1053POPC   GL218158  44.853  25.548   9.040
 1053POPC   C1A18159  44.499  25.232   8.802
 1053POPC   D2A18160  44.651  25.362   8.387
 1053POPC   C3A18161  44.502  25.279   7.978
 1053POPC   C4A18162  44.499  25.514   7.583
 1053POPC   C1B18163   0.022  25.217   8.742
 1053POPC   C2B18164   0.008  25.015   8.326
 1053POPC   C3B18165   0.016  25.199   7.910
 1053POPC   C4B18166   0.025  25.514   7.539
 1054POPC   NC318167  39.081  35.598   9.483
 1054POPC   PO418168  39.542  35.147   9.298
 1054POPC   GL118169  39.292  35.365   9.056
 1054POPC   GL218170  38.971  35.305   9.052
 1054POPC   C1A18171  39.347  35.371   8.644
 1054POPC   D2A18172  39.138  35.420   8.259
 1054POPC   C3A18173  39.394  35.448   7.902
 1054POPC   C4A18174  39.251  35.217   7.577
 1054POPC   C1B18175  38.922  35.685   8.760
 1054POPC   C2B18176  38.851  35.974   8.403
 1054POPC   C3B18177  38.876  35.797   8.003
 1054POPC   C4B18178  39.008  35.667   7.631
 1055POPC   NC318179  17.765  16.144   9.441
 1055POPC   PO418180  17.550  15.500   9.497
 1055POPC   GL118181  17.653  15.652   9.099
 1055POPC   GL218182  17.525  16.004   9.025
 1055POPC   C1A18183  17.512  15.662   8.667
 1055POPC   D2A18184  17.430  15.954   8.389
 1055POPC   C3A18185  17.265  15.771   8.043
 1055POPC   C4A18186  17.209  15.950   7.648
 1055POPC   C1B18187  17.892  16.000   8.753
 1055POPC   C2B18188  17.915  16.159   8.337
 1055POPC   C3B18189  17.696  16.091   7.961
 1055POPC   C4B18190  17.665  15.714   7.755
 1056POPC   NC318191   6.383   1.058   9.471
 1056POPC   PO418192   6.979   1.443   9.505
 1056POPC   GL118193   6.720   1.317   9.149
 1056POPC   GL218194   6.385   1.453   9.122
 1056POPC   C1A18195   6.551   1.001   8.859
 1056POPC   D2A18196   6.507   0.979   8.450
 1056POPC   C3A18197   6.782   1.233   8.196
 1056POPC   C4A18198   6.700   1.341   7.784
 1056POPC   C1B18199   6.343   1.694   8.753
 1056POPC   C2B18200   6.415   1.576   8.326
 1056POPC   C3B18201   6.241   1.569   7.910
 1056POPC   C4B18202   6.277   1.387   7.461
 1057POPC   NC318203  18.290  25.387   9.583
 1057POPC   PO418204  18.962  25.450   9.371
 1057POPC   GL118205  18.503  25.376   9.108
 1057POPC   GL218206  18.152  25.165   9.155
 1057POPC   C1A18207  18.178  25.328   8.702
 1057POPC   D2A18208  18.015  25.358   8.290
 1057POPC   C3A18209  18.325  25.473   7.980
 1057POPC   C4A18210  18.236  25.499   7.570
 1057POPC   C1B18211  18.089  24.841   8.832
 1057POPC   C2B18212  18.190  24.868   8.414
 1057POPC   C3B18213  18.206  24.982   7.976
 1057POPC   C4B18214  17.974  25.052   7.598
 1058POPC   NC318215  30.731  42.558   9.536
 1058POPC   PO418216  31.043  42.031   9.566
 1058POPC   GL118217  31.004  42.378   9.163
 1058POPC   GL218218  30.650  42.365   9.063
 1058POPC   C1A18219  30.970  42.412   8.664
 1058POPC   D2A18220  30.780  42.454   8.239
 1058POPC   C3A18221  30.882  42.360   7.806
 1058POPC   C4A18222  30.872  42.245   7.417
 1058POPC   C1B18223  30.501  42.605   8.695
 1058POPC   C2B18224  30.342  42.742   8.291
 1058POPC   C3B18225  30.151  42.590   7.933
 1058POPC   C4B18226  30.397  42.261   7.817
 1059POPC   NC318227  42.667   8.778   9.853
 1059POPC   PO418228  43.130   8.763   9.292
 1059POPC   GL118229  43.166   9.029   8.966
 1059POPC   GL218230  43.374   9.260   9.154
 1059POPC   C1A18231  43.042   9.009   8.536
 1059POPC   D2A18232  42.748   8.730   8.319
 1059POPC   C3A18233  42.793   8.784   7.872
 1059POPC   C4A18234  42.759   9.184   7.660
 1059POPC   C1B18235  43.434   9.365   8.708
 1059POPC   C2B18236  43.348   9.368   8.277
 1059POPC   C3B18237  43.204   9.013   8.042
 1059POPC   C4B18238  43.214   8.971   7.577
 1060POPC   NC318239  27.966  40.563   9.618
 1060POPC   PO418240  27.399  40.474   9.535
 1060POPC   GL118241  27.459  40.667   9.141
 1060POPC   GL218242  27.783  40.820   9.195
 1060POPC   C1A18243  27.596  40.731   8.713
 1060POPC   D2A18244  27.879  40.671   8.393
 1060POPC   C3A18245  27.746  40.738   7.977
 1060POPC   C4A18246  27.356  40.784   7.792
 1060POPC   C1B18247  27.645  41.186   8.914
 1060POPC   C2B18248  27.660  41.161   8.451
 1060POPC   C3B18249  27.537  41.201   8.032
 1060POPC   C4B18250  27.652  41.154   7.618
 1061POPC   NC318251   2.727  17.319   9.438
 1061POPC   PO418252   2.616  17.978   9.398
 1061POPC   GL118253   2.728  17.655   9.056
 1061POPC   GL218254   2.996  17.441   9.030
 1061POPC   C1A18255   2.679  17.382   8.654
 1061POPC   D2A18256   2.363  17.304   8.337
 1061POPC   C3A18257   2.491  17.405   7.908
 1061POPC   C4A18258   2.644  17.208   7.510
 1061POPC   C1B18259   3.171  17.583   8.648
 1061POPC   C2B18260   3.081  17.351   8.245
 1061POPC   C3B18261   3.007  17.467   7.815
 1061POPC   C4B18262   3.146  17.865   7.635
 1062POPC   NC318263   4.381  21.796   9.699
 1062POPC   PO418264   4.348  21.130   9.635
 1062POPC   GL118265   4.357  21.163   9.186
 1062POPC   GL218266   4.088  20.948   9.097
 1062POPC   C1A18267   4.333  21.353   8.768
 1062POPC   D2A18268   4.136  21.593   8.443
 1062POPC   C3A18269   4.173  21.738   7.999
 1062POPC   C4A18270   4.307  21.660   7.559
 1062POPC   C1B18271   4.356  20.856   8.785
 1062POPC   C2B18272   4.493  21.040   8.390
 1062POPC   C3B18273   4.455  21.233   7.975
 1062POPC   C4B18274   4.363  21.141   7.551
 1063POPC   NC318275   0.137  12.489   9.339
 1063POPC   PO418276   0.564  12.838   9.697
 1063POPC   GL118277   0.589  12.710   9.234
 1063POPC   GL218278   0.523  13.042   9.204
 1063POPC   C1A18279   0.413  12.717   8.775
 1063POPC   D2A18280   0.219  12.845   8.351
 1063POPC   C3A18281   0.556  12.890   8.031
 1063POPC   C4A18282   0.535  12.708   7.575
 1063POPC   C1B18283   0.681  13.148   8.831
 1063POPC   C2B18284   0.564  13.261   8.412
 1063POPC   C3B18285   0.289  13.332   8.070
 1063POPC   C4B18286   0.526  13.256   7.686
 1064POPC   NC318287  34.989   0.585   9.585
 1064POPC   PO418288  35.575   0.145   9.553
 1064POPC   GL118289  35.477   0.488   9.193
 1064POPC   GL218290  35.124   0.518   9.114
 1064POPC   C1A18291  35.403   0.523   8.695
 1064POPC   D2A18292  35.379   0.525   8.244
 1064POPC   C3A18293  35.698   0.429   7.949
 1064POPC   C4A18294  35.868   0.459   7.521
 1064POPC   C1B18295  34.945   0.787   8.810
 1064POPC   C2B18296  35.043   0.987   8.417
 1064POPC   C3B18297  35.062   0.853   7.993
 1064POPC   C4B18298  35.243   0.532   7.749
 1065POPC   NC318299  26.264   6.468   9.551
 1065POPC   PO418300  26.162   7.088   9.477
 1065POPC   GL118301  26.194   6.795   9.161
 1065POPC   GL218302  25.895   6.610   9.207
 1065POPC   C1A18303  26.078   6.709   8.747
 1065POPC   D2A18304  26.257   6.922   8.442
 1065POPC   C3A18305  25.997   6.869   8.117
 1065POPC   C4A18306  26.018   7.029   7.712
 1065POPC   C1B18307  25.781   6.309   8.881
 1065POPC   C2B18308  25.819   6.197   8.457
 1065POPC   C3B18309  25.702   6.259   8.038
 1065POPC   C4B18310  25.880   6.548   7.746
 1066POPC   NC318311  13.231  36.664   9.482
 1066POPC   PO418312  13.794  36.899   9.624
 1066POPC   GL118313  13.579  36.941   9.224
 1066POPC   GL218314  13.451  37.263   9.201
 1066POPC   C1A18315  13.369  36.924   8.809
 1066POPC   D2A18316  13.265  37.027   8.375
 1066POPC   C3A18317  13.395  36.764   8.050
 1066POPC   C4A18318  13.456  36.855   7.627
 1066POPC   C1B18319  13.751  37.279   8.881
 1066POPC   C2B18320  13.743  37.189   8.426
 1066POPC   C3B18321  13.794  37.131   7.966
 1066POPC   C4B18322  13.730  37.335   7.554
 1067POPC   NC318323  42.572  41.550   9.399
 1067POPC   PO418324  42.033  41.245   9.544
 1067POPC   GL118325  42.117  41.450   9.131
 1067POPC   GL218326  42.245  41.780   9.056
 1067POPC   C1A18327  42.365  41.239   8.777
 1067POPC   D2A18328  42.691  41.155   8.437
 1067POPC   C3A18329  42.604  41.314   7.997
 1067POPC   C4A18330  42.497  41.423   7.566
 1067POPC   C1B18331  42.346  41.706   8.583
 1067POPC   C2B18332  42.638  41.788   8.220
 1067POPC   C3B18333  42.511  41.858   7.785
 1067POPC   C4B18334  42.184  41.819   7.412
 1068POPC   NC318335  25.649  39.540   9.660
 1068POPC   PO418336  26.276  39.336   9.393
 1068POPC   GL118337  26.073  39.156   9.024
 1068POPC   GL218338  25.799  39.356   9.042
 1068POPC   C1A18339  25.952  39.149   8.588
 1068POPC   D2A18340  25.959  39.478   8.314
 1068POPC   C3A18341  26.210  39.358   7.991
 1068POPC   C4A18342  26.531  39.282   7.708
 1068POPC   C1B18343  25.476  39.193   8.741
 1068POPC   C2B18344  25.523  39.176   8.283
 1068POPC   C3B18345  25.827  39.009   7.978
 1068POPC   C4B18346  25.985  39.153   7.568
 1069POPC   NC318347  30.811   2.867   9.462
 1069POPC   PO418348  30.387   2.344   9.490
 1069POPC   GL118349  30.566   2.536   9.168
 1069POPC   GL218350  30.921   2.531   9.076
 1069POPC   C1A18351  30.488   2.641   8.776
 1069POPC   D2A18352  30.508   2.844   8.414
 1069POPC   C3A18353  30.571   2.595   8.066
 1069POPC   C4A18354  30.431   2.759   7.692
 1069POPC   C1B18355  30.994   2.847   8.714
 1069POPC   C2B18356  31.010   2.791   8.242
 1069POPC   C3B18357  30.888   2.944   7.817
 1069POPC   C4B18358  30.841   2.993   7.339
 1070POPC   NC318359  28.496  39.725   9.580
 1070POPC   PO418360  28.641  39.087   9.562
 1070POPC   GL118361  28.698  39.216   9.124
 1070POPC   GL218362  28.749  39.555   9.130
 1070POPC   C1A18363  28.473  39.332   8.726
 1070POPC   D2A18364  28.450  39.124   8.325
 1070POPC   C3A18365  28.389  39.132   7.897
 1070POPC   C4A18366  28.275  38.811   7.627
 1070POPC   C1B18367  28.871  39.655   8.711
 1070POPC   C2B18368  28.802  39.480   8.300
 1070POPC   C3B18369  28.632  39.618   7.906
 1070POPC   C4B18370  28.429  39.492   7.514
 1071POPC   NC318371   7.467  13.896   9.482
 1071POPC   PO418372   7.090  13.250   9.543
 1071POPC   GL118373   7.153  13.465   9.168
 1071POPC   GL218374   7.501  13.492   9.146
 1071POPC   C1A18375   7.142  13.622   8.753
 1071POPC   D2A18376   7.300  13.898   8.449
 1071POPC   C3A18377   7.206  13.665   8.104
 1071POPC   C4A18378   7.205  13.644   7.704
 1071POPC   C1B18379   7.622  13.502   8.692
 1071POPC   C2B18380   7.673  13.558   8.247
 1071POPC   C3B18381   7.725  13.520   7.799
 1071POPC   C4B18382   7.787  13.807   7.413
 1072POPC   NC318383  12.267   7.349   9.464
 1072POPC   PO418384  11.609   7.507   9.248
 1072POPC   GL118385  11.945   7.361   9.053
 1072POPC   GL218386  11.971   6.998   9.129
 1072POPC   C1A18387  12.143   7.584   8.708
 1072POPC   D2A18388  12.025   7.855   8.370
 1072POPC   C3A18389  12.048   7.701   7.941
 1072POPC   C4A18390  12.015   7.540   7.473
 1072POPC   C1B18391  12.109   7.077   8.680
 1072POPC   C2B18392  12.078   7.280   8.274
 1072POPC   C3B18393  12.126   7.204   7.838
 1072POPC   C4B18394  12.491   7.048   7.641
 1073POPC   NC318395   0.903  12.513   9.601
 1073POPC   PO418396   1.525  12.757   9.431
 1073POPC   GL118397   1.199  12.619   9.181
 1073POPC   GL218398   1.044  12.948   9.190
 1073POPC   C1A18399   0.950  12.649   8.787
 1073POPC   D2A18400   0.927  12.893   8.433
 1073POPC   C3A18401   1.023  12.677   8.058
 1073POPC   C4A18402   0.974  12.919   7.718
 1073POPC   C1B18403   1.383  12.960   8.827
 1073POPC   C2B18404   1.436  12.794   8.410
 1073POPC   C3B18405   1.421  12.988   8.003
 1073POPC   C4B18406   1.659  13.130   7.677
 1074POPC   NC318407   7.131  44.682   9.816
 1074POPC   PO418408   6.534  44.600   9.483
 1074POPC   GL118409   6.635  44.586   9.078
 1074POPC   GL218410   6.986  44.568   9.130
 1074POPC   C1A18411   6.617  44.710   8.658
 1074POPC   D2A18412   6.381  44.578   8.300
 1074POPC   C3A18413   6.580  44.654   7.897
 1074POPC   C4A18414   6.410  44.893   7.590
 1074POPC   C1B18415   6.979  44.333   8.776
 1074POPC   C2B18416   6.784  44.270   8.396
 1074POPC   C3B18417   6.950  44.305   7.986
 1074POPC   C4B18418   7.013  44.281   7.564
 1075POPC   NC318419  38.761  30.614   9.358
 1075POPC   PO418420  38.200  31.006   9.410
 1075POPC   GL118421  38.507  30.983   9.112
 1075POPC   GL218422  38.379  30.663   9.003
 1075POPC   C1A18423  38.723  30.905   8.707
 1075POPC   D2A18424  38.428  30.691   8.467
 1075POPC   C3A18425  38.334  30.932   8.157
 1075POPC   C4A18426  38.460  30.973   7.768
 1075POPC   C1B18427  38.613  30.341   8.785
 1075POPC   C2B18428  38.551  30.166   8.394
 1075POPC   C3B18429  38.442  30.418   8.034
 1075POPC   C4B18430  38.659  30.257   7.696
 1076POPC   NC318431  32.347  39.777   9.407
 1076POPC   PO418432  32.349  40.450   9.286
 1076POPC   GL118433  32.171  40.138   9.061
 1076POPC   GL218434  32.448  39.946   8.958
 1076POPC   C1A18435  32.042  40.059   8.665
 1076POPC   D2A18436  32.261  39.941   8.317
 1076POPC   C3A18437  32.005  39.966   7.970
 1076POPC   C4A18438  32.020  39.675   7.667
 1076POPC   C1B18439  32.710  39.730   8.689
 1076POPC   C2B18440  32.571  39.547   8.298
 1076POPC   C3B18441  32.494  39.643   7.873
 1076POPC   C4B18442  32.505  39.634   7.422
 1077POPC   NC318443   0.806   9.825   9.399
 1077POPC   PO418444   0.179   9.461   9.518
 1077POPC   GL118445   0.395   9.587   9.130
 1077POPC   GL218446   0.549   9.910   8.967
 1077POPC   C1A18447   0.539   9.453   8.723
 1077POPC   D2A18448   0.320   9.505   8.337
 1077POPC   C3A18449   0.437   9.665   7.939
 1077POPC   C4A18450   0.098   9.556   7.666
 1077POPC   C1B18451   0.172   9.829   8.721
 1077POPC   C2B18452   0.126   9.989   8.292
 1077POPC   C3B18453   0.441  10.173   8.002
 1077POPC   C4B18454   0.790  10.469   7.874
 1078POPC   NC318455   8.920  21.071   9.776
 1078POPC   PO418456   8.989  20.417   9.799
 1078POPC   GL118457   8.895  20.418   9.322
 1078POPC   GL218458   8.963  20.683   9.128
 1078POPC   C1A18459   8.803  20.309   8.848
 1078POPC   D2A18460   8.752  20.471   8.435
 1078POPC   C3A18461   9.064  20.442   8.124
 1078POPC   C4A18462   8.970  20.500   7.687
 1078POPC   C1B18463   9.023  20.824   8.705
 1078POPC   C2B18464   8.956  20.925   8.274
 1078POPC   C3B18465   8.799  20.951   7.836
 1078POPC   C4B18466   9.062  20.932   7.438
 1079POPC   NC318467  42.209  22.657   9.413
 1079POPC   PO418468  42.845  22.961   9.541
 1079POPC   GL118469  42.641  22.904   9.184
 1079POPC   GL218470  42.704  22.573   9.134
 1079POPC   C1A18471  42.378  22.955   8.826
 1079POPC   D2A18472  42.164  23.060   8.464
 1079POPC   C3A18473  42.190  22.784   8.116
 1079POPC   C4A18474  42.247  22.986   7.737
 1079POPC   C1B18475  42.810  22.712   8.731
 1079POPC   C2B18476  42.659  22.846   8.359
 1079POPC   C3B18477  42.669  22.690   7.959
 1079POPC   C4B18478  42.681  22.472   7.604
 1080POPC   NC318479  27.113  26.462   9.806
 1080POPC   PO418480  26.654  26.842   9.530
 1080POPC   GL118481  26.799  26.735   9.151
 1080POPC   GL218482  26.725  27.086   9.078
 1080POPC   C1A18483  26.868  26.481   8.786
 1080POPC   D2A18484  27.070  26.559   8.385
 1080POPC   C3A18485  27.007  26.801   8.032
 1080POPC   C4A18486  26.849  26.640   7.667
 1080POPC   C1B18487  26.528  26.925   8.724
 1080POPC   C2B18488  26.622  27.023   8.323
 1080POPC   C3B18489  26.494  26.848   7.967
 1080POPC   C4B18490  26.587  27.101   7.656
 1081POPC   NC318491   8.919  11.814   9.524
 1081POPC   PO418492   9.079  12.403   9.577
 1081POPC   GL118493   8.975  12.197   9.190
 1081POPC   GL218494   9.274  11.993   9.207
 1081POPC   C1A18495   8.743  12.002   8.831
 1081POPC   D2A18496   8.893  12.087   8.446
 1081POPC   C3A18497   8.696  12.191   8.075
 1081POPC   C4A18498   8.867  12.258   7.697
 1081POPC   C1B18499   9.221  11.761   8.858
 1081POPC   C2B18500   9.282  11.759   8.435
 1081POPC   C3B18501   9.041  11.798   8.046
 1081POPC   C4B18502   8.905  11.637   7.671
 1082POPC   NC318503  14.069  27.007   9.622
 1082POPC   PO418504  14.367  26.502   9.608
 1082POPC   GL118505  14.287  26.557   9.161
 1082POPC   GL218506  14.202  26.903   9.142
 1082POPC   C1A18507  14.425  26.708   8.722
 1082POPC   D2A18508  14.681  26.564   8.351
 1082POPC   C3A18509  14.519  26.706   7.923
 1082POPC   C4A18510  14.557  26.810   7.464
 1082POPC   C1B18511  14.027  27.170   8.837
 1082POPC   C2B18512  14.230  27.104   8.443
 1082POPC   C3B18513  14.255  27.163   7.997
 1082POPC   C4B18514  14.094  26.906   7.679
 1083POPC   NC318515  24.429  28.923   9.596
 1083POPC   PO418516  24.904  29.374   9.793
 1083POPC   GL118517  24.635  29.309   9.301
 1083POPC   GL218518  24.623  28.990   9.106
 1083POPC   C1A18519  24.723  29.492   8.861
 1083POPC   D2A18520  24.838  29.453   8.388
 1083POPC   C3A18521  24.485  29.286   8.131
 1083POPC   C4A18522  24.320  29.452   7.729
 1083POPC   C1B18523  24.452  29.073   8.679
 1083POPC   C2B18524  24.371  28.755   8.354
 1083POPC   C3B18525  24.292  28.710   7.959
 1083POPC   C4B18526  24.492  28.976   7.692
 1084POPC   NC318527  23.124  28.228   9.548
 1084POPC   PO418528  23.854  28.209   9.509
 1084POPC   GL118529  23.794  28.422   9.120
 1084POPC   GL218530  23.502  28.580   9.289
 1084POPC   C1A18531  23.706  28.341   8.645
 1084POPC   D2A18532  23.528  28.298   8.189
 1084POPC   C3A18533  23.829  28.211   7.890
 1084POPC   C4A18534  24.100  28.414   7.584
 1084POPC   C1B18535  23.475  28.727   8.886
 1084POPC   C2B18536  23.568  28.812   8.508
 1084POPC   C3B18537  23.853  28.671   8.214
 1084POPC   C4B18538  23.715  28.701   7.807
 1085POPC   NC318539  32.556  32.904   9.481
 1085POPC   PO418540  32.046  33.232   9.516
 1085POPC   GL118541  32.214  33.192   9.119
 1085POPC   GL218542  32.461  32.947   8.987
 1085POPC   C1A18543  32.058  33.266   8.703
 1085POPC   D2A18544  32.308  33.181   8.352
 1085POPC   C3A18545  32.139  33.203   7.951
 1085POPC   C4A18546  32.463  32.981   7.762
 1085POPC   C1B18547  32.097  32.755   8.817
 1085POPC   C2B18548  31.946  32.803   8.432
 1085POPC   C3B18549  32.134  32.654   8.065
 1085POPC   C4B18550  32.022  32.736   7.664
 1086POPC   NC318551   7.168  12.230   9.336
 1086POPC   PO418552   7.660  11.859   9.556
 1086POPC   GL118553   7.564  11.956   9.100
 1086POPC   GL218554   7.311  12.177   8.860
 1086POPC   C1A18555   7.766  12.059   8.703
 1086POPC   D2A18556   7.586  11.938   8.345
 1086POPC   C3A18557   7.660  12.194   8.048
 1086POPC   C4A18558   7.404  12.315   7.752
 1086POPC   C1B18559   7.263  11.761   8.745
 1086POPC   C2B18560   7.238  11.574   8.344
 1086POPC   C3B18561   7.106  11.834   8.007
 1086POPC   C4B18562   6.979  11.590   7.676
 1087POPC   NC318563  35.987   0.554   9.635
 1087POPC   PO418564  36.384   0.082   9.344
 1087POPC   GL118565  36.136   0.362   9.191
 1087POPC   GL218566  36.318   0.640   9.255
 1087POPC   C1A18567  35.879   0.416   8.861
 1087POPC   D2A18568  35.759   0.220   8.483
 1087POPC   C3A18569  36.106   0.291   8.217
 1087POPC   C4A18570  36.202   0.169   7.823
 1087POPC   C1B18571  36.377   0.670   8.834
 1087POPC   C2B18572  36.364   0.693   8.389
 1087POPC   C3B18573  36.474   0.584   7.961
 1087POPC   C4B18574  36.378   0.516   7.481
 1088POPC   NC318575  29.267  13.427   9.439
 1088POPC   PO418576  29.546  14.010   9.529
 1088POPC   GL118577  29.279  13.892   9.137
 1088POPC   GL218578  29.263  13.512   8.960
 1088POPC   C1A18579  28.997  13.866   8.724
 1088POPC   D2A18580  29.070  13.517   8.450
 1088POPC   C3A18581  29.104  13.655   8.043
 1088POPC   C4A18582  29.230  13.676   7.611
 1088POPC   C1B18583  29.483  13.767   8.710
 1088POPC   C2B18584  29.524  13.954   8.368
 1088POPC   C3B18585  29.593  13.778   7.983
 1088POPC   C4B18586  29.618  13.991   7.614
 1089POPC   NC318587  44.250  29.120   9.438
 1089POPC   PO418588  44.686  29.624   9.448
 1089POPC   GL118589  44.741  29.234   9.241
 1089POPC   GL218590   0.098  29.212   9.148
 1089POPC   C1A18591  44.613  29.027   8.857
 1089POPC   D2A18592  44.751  29.090   8.432
 1089POPC   C3A18593  44.434  29.194   8.135
 1089POPC   C4A18594  44.305  28.925   7.842
 1089POPC   C1B18595  44.963  29.453   8.773
 1089POPC   C2B18596   0.083  29.464   8.324
 1089POPC   C3B18597  44.911  29.317   7.904
 1089POPC   C4B18598  44.528  29.332   7.628
 1090POPC   NC318599  14.820  19.403   9.509
 1090POPC   PO418600  15.228  18.845   9.707
 1090POPC   GL118601  15.211  19.098   9.284
 1090POPC   GL218602  15.433  18.913   9.088
 1090POPC   C1A18603  15.045  19.249   8.815
 1090POPC   D2A18604  14.921  19.366   8.344
 1090POPC   C3A18605  15.123  19.269   7.907
 1090POPC   C4A18606  15.076  19.084   7.451
 1090POPC   C1B18607  15.337  18.858   8.635
 1090POPC   C2B18608  15.318  18.872   8.160
 1090POPC   C3B18609  15.375  18.753   7.714
 1090POPC   C4B18610  15.192  18.481   7.379
 1091POPC   NC318611   6.815   2.728   9.953
 1091POPC   PO418612   6.930   2.991   9.361
 1091POPC   GL118613   6.738   2.935   9.033
 1091POPC   GL218614   6.566   2.626   9.087
 1091POPC   C1A18615   6.486   2.887   8.681
 1091POPC   D2A18616   6.383   2.597   8.410
 1091POPC   C3A18617   6.612   2.788   8.091
 1091POPC   C4A18618   6.634   2.706   7.671
 1091POPC   C1B18619   6.882   2.563   8.732
 1091POPC   C2B18620   6.863   2.386   8.317
 1091POPC   C3B18621   7.021   2.494   7.918
 1091POPC   C4B18622   7.090   2.467   7.466
 1092POPC   NC318623  42.368  42.331   9.524
 1092POPC   PO418624  43.061  42.589   9.338
 1092POPC   GL118625  42.576  42.586   9.128
 1092POPC   GL218626  42.300  42.294   9.044
 1092POPC   C1A18627  42.282  42.718   8.779
 1092POPC   D2A18628  42.444  42.653   8.388
 1092POPC   C3A18629  42.265  42.641   8.004
 1092POPC   C4A18630  42.438  42.672   7.616
 1092POPC   C1B18631  42.399  42.206   8.628
 1092POPC   C2B18632  42.293  42.175   8.185
 1092POPC   C3B18633  42.196  42.230   7.722
 1092POPC   C4B18634  42.525  42.229   7.394
 1093POPC   NC318635  12.252  11.431   9.440
 1093POPC   PO418636  12.451  10.854   9.318
 1093POPC   GL118637  12.330  11.208   9.007
 1093POPC   GL218638  12.011  11.427   8.994
 1093POPC   C1A18639  12.312  11.363   8.585
 1093POPC   D2A18640  11.963  11.444   8.307
 1093POPC   C3A18641  12.090  11.396   7.872
 1093POPC   C4A18642  12.162  11.670   7.526
 1093POPC   C1B18643  11.870  11.109   8.714
 1093POPC   C2B18644  11.597  11.079   8.355
 1093POPC   C3B18645  11.541  11.334   7.994
 1093POPC   C4B18646  11.657  11.624   7.651
 1094POPC   NC318647  20.884   3.917   9.537
 1094POPC   PO418648  20.264   3.527   9.593
 1094POPC   GL118649  20.476   3.531   9.180
 1094POPC   GL218650  20.831   3.568   9.173
 1094POPC   C1A18651  20.373   3.376   8.752
 1094POPC   D2A18652  20.196   3.587   8.368
 1094POPC   C3A18653  20.358   3.445   7.975
 1094POPC   C4A18654  20.542   3.395   7.540
 1094POPC   C1B18655  21.061   3.775   8.801
 1094POPC   C2B18656  21.002   3.975   8.393
 1094POPC   C3B18657  20.906   3.820   7.993
 1094POPC   C4B18658  21.133   3.488   7.817
 1095POPC   NC318659  22.186  32.679   9.612
 1095POPC   PO418660  21.739  33.170   9.438
 1095POPC   GL118661  21.962  32.830   9.164
 1095POPC   GL218662  22.339  32.864   9.166
 1095POPC   C1A18663  22.076  32.860   8.701
 1095POPC   D2A18664  22.166  33.203   8.388
 1095POPC   C3A18665  22.042  33.232   7.953
 1095POPC   C4A18666  22.015  32.881   7.634
 1095POPC   C1B18667  22.571  32.652   8.847
 1095POPC   C2B18668  22.510  32.754   8.418
 1095POPC   C3B18669  22.359  32.830   8.017
 1095POPC   C4B18670  22.547  32.796   7.583
 1096POPC   NC318671  43.074  34.762   9.435
 1096POPC   PO418672  43.386  34.173   9.213
 1096POPC   GL118673  43.329  34.564   8.992
 1096POPC   GL218674  43.012  34.657   8.962
 1096POPC   C1A18675  43.279  34.682   8.538
 1096POPC   D2A18676  43.245  34.414   8.183
 1096POPC   C3A18677  43.365  34.569   7.786
 1096POPC   C4A18678  43.474  34.682   7.356
 1096POPC   C1B18679  42.725  34.557   8.724
 1096POPC   C2B18680  42.620  34.733   8.381
 1096POPC   C3B18681  42.755  34.510   8.071
 1096POPC   C4B18682  42.885  34.485   7.651
 1097POPC   NC318683  40.614  14.184   9.506
 1097POPC   PO418684  41.221  14.562   9.530
 1097POPC   GL118685  40.972  14.576   9.179
 1097POPC   GL218686  40.993  14.213   9.170
 1097POPC   C1A18687  40.752  14.730   8.804
 1097POPC   D2A18688  40.478  14.572   8.464
 1097POPC   C3A18689  40.657  14.529   8.038
 1097POPC   C4A18690  40.689  14.647   7.606
 1097POPC   C1B18691  40.756  14.226   8.798
 1097POPC   C2B18692  40.669  14.107   8.392
 1097POPC   C3B18693  40.916  14.064   8.051
 1097POPC   C4B18694  40.838  14.135   7.683
 1098POPC   NC318695  15.467  24.832   9.407
 1098POPC   PO418696  14.835  24.829   9.419
 1098POPC   GL118697  14.880  24.535   9.072
 1098POPC   GL218698  14.859  24.184   9.222
 1098POPC   C1A18699  15.071  24.516   8.648
 1098POPC   D2A18700  14.961  24.690   8.222
 1098POPC   C3A18701  15.122  24.668   7.789
 1098POPC   C4A18702  15.213  24.570   7.376
 1098POPC   C1B18703  14.798  24.043   8.791
 1098POPC   C2B18704  14.876  24.152   8.356
 1098POPC   C3B18705  14.842  24.269   7.939
 1098POPC   C4B18706  14.969  24.174   7.519
 1099POPC   NC318707  36.749  21.289   9.541
 1099POPC   PO418708  37.374  21.338   9.365
 1099POPC   GL118709  37.038  21.459   9.155
 1099POPC   GL218710  36.881  21.148   9.086
 1099POPC   C1A18711  37.002  21.726   8.849
 1099POPC   D2A18712  37.095  21.584   8.445
 1099POPC   C3A18713  36.963  21.769   8.066
 1099POPC   C4A18714  36.932  21.637   7.638
 1099POPC   C1B18715  37.015  21.152   8.679
 1099POPC   C2B18716  36.805  21.147   8.310
 1099POPC   C3B18717  36.893  21.033   7.888
 1099POPC   C4B18718  36.879  21.172   7.479
 1100POPC   NC318719  14.422  44.978   9.483
 1100POPC   PO418720  14.660  44.293   9.553
 1100POPC   GL118721  14.424  44.437   9.149
 1100POPC   GL218722  14.393  44.813   9.021
 1100POPC   C1A18723  14.296  44.469   8.689
 1100POPC   D2A18724  14.547  44.595   8.351
 1100POPC   C3A18725  14.465  44.328   8.023
 1100POPC   C4A18726  14.311  44.253   7.625
 1100POPC   C1B18727  14.264   0.062   8.689
 1100POPC   C2B18728  14.400   0.274   8.350
 1100POPC   C3B18729  14.539   0.034   8.049
 1100POPC   C4B18730  14.394  44.774   7.737
 1101POPC   NC318731   1.215  44.450   9.678
 1101POPC   PO418732   0.899   0.003   9.463
 1101POPC   GL118733   1.080  44.689   9.158
 1101POPC   GL218734   1.369  44.417   9.197
 1101POPC   C1A18735   1.030  44.577   8.716
 1101POPC   D2A18736   0.808  44.621   8.319
 1101POPC   C3A18737   1.037  44.735   7.956
 1101POPC   C4A18738   0.895  44.744   7.522
 1101POPC   C1B18739   1.515  44.664   8.864
 1101POPC   C2B18740   1.489  44.642   8.436
 1101POPC   C3B18741   1.551  44.862   8.080
 1101POPC   C4B18742   1.488  44.696   7.692
 1102POPC   NC318743  41.336  21.955   9.516
 1102POPC   PO418744  41.858  22.335   9.382
 1102POPC   GL118745  41.557  22.187   9.109
 1102POPC   GL218746  41.590  21.840   9.105
 1102POPC   C1A18747  41.340  22.136   8.736
 1102POPC   D2A18748  41.188  22.152   8.350
 1102POPC   C3A18749  41.417  22.254   8.016
 1102POPC   C4A18750  41.400  22.153   7.609
 1102POPC   C1B18751  41.710  21.761   8.716
 1102POPC   C2B18752  41.709  21.891   8.276
 1102POPC   C3B18753  41.607  21.780   7.857
 1102POPC   C4B18754  41.578  21.732   7.369
 1103POPC   NC318755  20.033  39.766   9.502
 1103POPC   PO418756  20.052  40.480   9.427
 1103POPC   GL118757  20.119  40.197   9.078
 1103POPC   GL218758  19.899  39.880   9.030
 1103POPC   C1A18759  20.040  40.182   8.628
 1103POPC   D2A18760  19.743  40.056   8.310
 1103POPC   C3A18761  19.717  40.288   7.926
 1103POPC   C4A18762  19.955  40.254   7.538
 1103POPC   C1B18763  20.020  39.673   8.644
 1103POPC   C2B18764  20.205  39.825   8.269
 1103POPC   C3B18765  19.970  39.837   7.858
 1103POPC   C4B18766  19.566  39.638   7.727
 1104POPC   NC318767   9.845   1.598   9.528
 1104POPC   PO418768   9.504   1.031   9.536
 1104POPC   GL118769   9.459   1.234   9.177
 1104POPC   GL218770   9.685   1.501   9.061
 1104POPC   C1A18771   9.691   1.058   8.829
 1104POPC   D2A18772   9.600   1.159   8.430
 1104POPC   C3A18773   9.708   1.016   8.014
 1104POPC   C4A18774   9.603   1.257   7.633
 1104POPC   C1B18775   9.952   1.498   8.657
 1104POPC   C2B18776   9.988   1.421   8.203
 1104POPC   C3B18777   9.946   1.581   7.807
 1104POPC   C4B18778   9.999   1.456   7.383
 1105POPC   NC318779   4.236  19.139   9.516
 1105POPC   PO418780   4.369  18.476   9.529
 1105POPC   GL118781   4.483  18.689   9.152
 1105POPC   GL218782   4.460  19.056   9.065
 1105POPC   C1A18783   4.454  18.677   8.687
 1105POPC   D2A18784   4.470  19.015   8.359
 1105POPC   C3A18785   4.124  19.080   8.044
 1105POPC   C4A18786   4.157  18.978   7.620
 1105POPC   C1B18787   4.408  19.373   8.730
 1105POPC   C2B18788   4.568  19.543   8.350
 1105POPC   C3B18789   4.565  19.343   7.956
 1105POPC   C4B18790   4.422  19.388   7.539
 1106POPC   NC318791   0.005  42.628   9.528
 1106POPC   PO418792  44.632  42.078   9.397
 1106POPC   GL118793  44.677  42.458   9.175
 1106POPC   GL218794   0.024  42.416   9.047
 1106POPC   C1A18795  44.611  42.639   8.805
 1106POPC   D2A18796  44.407  42.622   8.430
 1106POPC   C3A18797  44.350  42.441   8.037
 1106POPC   C4A18798  44.486  42.565   7.654
 1106POPC   C1B18799  44.788  42.137   8.744
 1106POPC   C2B18800  44.715  42.236   8.328
 1106POPC   C3B18801  44.894  42.411   7.949
 1106POPC   C4B18802  44.884  42.301   7.495
 1107POPC   NC318803  13.077   1.612   9.594
 1107POPC   PO418804  12.787   2.259   9.463
 1107POPC   GL118805  12.930   1.926   9.195
 1107POPC   GL218806  12.651   1.683   9.287
 1107POPC   C1A18807  12.909   1.905   8.747
 1107POPC   D2A18808  12.731   2.013   8.357
 1107POPC   C3A18809  13.058   2.115   8.079
 1107POPC   C4A18810  13.141   2.197   7.665
 1107POPC   C1B18811  12.590   1.538   8.886
 1107POPC   C2B18812  12.370   1.688   8.533
 1107POPC   C3B18813  12.434   1.696   8.082
 1107POPC   C4B18814  12.675   1.943   7.794
 1108POPC   NC318815   9.470   2.525   9.537
 1108POPC   PO418816   9.933   3.083   9.541
 1108POPC   GL118817   9.877   2.776   9.140
 1108POPC   GL218818   9.580   2.538   9.040
 1108POPC   C1A18819   9.868   2.706   8.659
 1108POPC   D2A18820   9.514   2.814   8.388
 1108POPC   C3A18821   9.693   2.870   7.984
 1108POPC   C4A18822   9.543   3.186   7.757
 1108POPC   C1B18823   9.528   2.348   8.613
 1108POPC   C2B18824   9.692   2.366   8.209
 1108POPC   C3B18825   9.569   2.401   7.780
 1108POPC   C4B18826   9.850   2.454   7.410
 1109POPC   NC318827  24.882  23.151   9.562
 1109POPC   PO418828  24.278  23.205   9.652
 1109POPC   GL118829  24.313  23.053   9.213
 1109POPC   GL218830  24.606  23.169   9.119
 1109POPC   C1A18831  24.202  22.945   8.741
 1109POPC   D2A18832  24.138  23.033   8.271
 1109POPC   C3A18833  24.340  22.893   7.882
 1109POPC   C4A18834  24.246  22.557   7.593
 1109POPC   C1B18835  24.696  23.087   8.705
 1109POPC   C2B18836  24.666  22.987   8.266
 1109POPC   C3B18837  24.846  23.084   7.838
 1109POPC   C4B18838  24.919  23.269   7.394
 1110POPC   NC318839  16.409  40.200   9.563
 1110POPC   PO418840  16.184  40.838   9.499
 1110POPC   GL118841  15.949  40.946   9.122
 1110POPC   GL218842  15.760  41.286   9.158
 1110POPC   C1A18843  15.991  40.782   8.689
 1110POPC   D2A18844  15.898  40.556   8.275
 1110POPC   C3A18845  16.003  40.801   7.906
 1110POPC   C4A18846  16.234  40.748   7.534
 1110POPC   C1B18847  15.774  41.249   8.723
 1110POPC   C2B18848  15.846  41.084   8.299
 1110POPC   C3B18849  15.697  41.230   7.904
 1110POPC   C4B18850  15.834  41.099   7.524
 1111POPC   NC318851   5.911  13.641   9.553
 1111POPC   PO418852   6.018  13.039   9.299
 1111POPC   GL118853   5.848  13.459   9.068
 1111POPC   GL218854   5.702  13.832   9.147
 1111POPC   C1A18855   6.063  13.559   8.668
 1111POPC   D2A18856   6.054  13.233   8.332
 1111POPC   C3A18857   5.759  13.262   8.012
 1111POPC   C4A18858   5.955  13.444   7.700
 1111POPC   C1B18859   5.626  13.819   8.749
 1111POPC   C2B18860   5.645  13.655   8.336
 1111POPC   C3B18861   5.711  13.837   7.928
 1111POPC   C4B18862   5.478  13.909   7.533
 1112POPC   NC318863  32.613  44.898   9.570
 1112POPC   PO418864  32.162  44.375   9.497
 1112POPC   GL118865  32.256  44.715   9.219
 1112POPC   GL218866  32.561  44.562   9.184
 1112POPC   C1A18867  32.180  44.910   8.825
 1112POPC   D2A18868  32.235  44.785   8.420
 1112POPC   C3A18869  32.260  44.996   8.026
 1112POPC   C4A18870  32.325  44.766   7.656
 1112POPC   C1B18871  32.407  44.422   8.802
 1112POPC   C2B18872  32.632  44.462   8.434
 1112POPC   C3B18873  32.505  44.509   8.060
 1112POPC   C4B18874  32.676  44.420   7.676
 1113POPC   NC318875   2.098  39.942   9.541
 1113POPC   PO418876   1.456  39.848   9.672
 1113POPC   GL118877   1.774  39.658   9.250
 1113POPC   GL218878   2.169  39.698   9.120
 1113POPC   C1A18879   1.863  39.609   8.750
 1113POPC   D2A18880   2.052  39.815   8.357
 1113POPC   C3A18881   1.852  39.978   7.941
 1113POPC   C4A18882   1.792  40.087   7.478
 1113POPC   C1B18883   2.149  40.075   8.840
 1113POPC   C2B18884   2.257  40.290   8.451
 1113POPC   C3B18885   2.412  40.187   8.050
 1113POPC   C4B18886   2.292  40.096   7.637
 1114POPC   NC318887  15.530  11.233   9.376
 1114POPC   PO418888  16.182  11.190   9.557
 1114POPC   GL118889  16.033  11.337   9.182
 1114POPC   GL218890  15.900  10.999   9.118
 1114POPC   C1A18891  15.915  11.363   8.737
 1114POPC   D2A18892  15.958  11.228   8.311
 1114POPC   C3A18893  15.932  11.451   7.937
 1114POPC   C4A18894  16.248  11.551   7.642
 1114POPC   C1B18895  15.612  10.958   8.756
 1114POPC   C2B18896  15.646  10.828   8.324
 1114POPC   C3B18897  15.698  11.003   7.921
 1114POPC   C4B18898  15.517  11.028   7.509
 1115POPC   NC318899  21.136   2.926   9.573
 1115POPC   PO418900  21.655   2.546   9.573
 1115POPC   GL118901  21.682   2.457   9.109
 1115POPC   GL218902  21.306   2.507   9.071
 1115POPC   C1A18903  21.604   2.554   8.642
 1115POPC   D2A18904  21.247   2.501   8.316
 1115POPC   C3A18905  21.385   2.326   7.907
 1115POPC   C4A18906  21.815   2.281   7.741
 1115POPC   C1B18907  21.156   2.827   8.748
 1115POPC   C2B18908  21.043   3.003   8.349
 1115POPC   C3B18909  21.209   2.917   7.946
 1115POPC   C4B18910  21.586   2.783   7.740
 1116POPC   NC318911  15.766  44.515   9.526
 1116POPC   PO418912  16.160  44.946   9.366
 1116POPC   GL118913  16.030  44.620   9.108
 1116POPC   GL218914  15.705  44.719   9.065
 1116POPC   C1A18915  15.981  44.495   8.681
 1116POPC   D2A18916  16.165  44.449   8.294
 1116POPC   C3A18917  15.992  44.706   7.983
 1116POPC   C4A18918  16.113  44.812   7.565
 1116POPC   C1B18919  15.495  44.400   8.840
 1116POPC   C2B18920  15.500  44.260   8.406
 1116POPC   C3B18921  15.761  44.256   8.020
 1116POPC   C4B18922  15.757  44.441   7.617
 1117POPC   NC318923   3.416  29.427   9.425
 1117POPC   PO418924   3.173  28.725   9.500
 1117POPC   GL118925   3.134  29.011   9.170
 1117POPC   GL218926   3.354  28.909   8.962
 1117POPC   C1A18927   3.134  29.327   8.796
 1117POPC   D2A18928   3.082  29.374   8.333
 1117POPC   C3A18929   3.435  29.178   8.123
 1117POPC   C4A18930   3.635  29.325   7.751
 1117POPC   C1B18931   3.640  28.885   8.642
 1117POPC   C2B18932   3.665  28.734   8.243
 1117POPC   C3B18933   3.892  28.874   7.906
 1117POPC   C4B18934   3.537  28.833   7.688
 1118POPC   NC318935   1.146   0.404   9.386
 1118POPC   PO418936   1.588   0.732   9.778
 1118POPC   GL118937   1.453   0.844   9.260
 1118POPC   GL218938   1.138   0.722   9.009
 1118POPC   C1A18939   1.538   0.867   8.760
 1118POPC   D2A18940   1.481   0.475   8.529
 1118POPC   C3A18941   1.520   0.498   8.088
 1118POPC   C4A18942   1.254   0.712   7.781
 1118POPC   C1B18943   1.023   0.305   8.767
 1118POPC   C2B18944   1.102   0.047   8.406
 1118POPC   C3B18945   1.028   0.238   8.010
 1118POPC   C4B18946   1.323   0.182   7.725
 1119POPC   NC318947  40.889  39.170   9.575
 1119POPC   PO418948  40.844  39.820   9.507
 1119POPC   GL118949  40.961  39.428   9.146
 1119POPC   GL218950  41.018  39.015   9.123
 1119POPC   C1A18951  40.697  39.258   8.767
 1119POPC   D2A18952  40.605  39.535   8.383
 1119POPC   C3A18953  40.527  39.471   7.935
 1119POPC   C4A18954  40.616  39.137   7.645
 1119POPC   C1B18955  41.193  39.150   8.747
 1119POPC   C2B18956  41.038  39.257   8.383
 1119POPC   C3B18957  40.936  39.193   8.036
 1119POPC   C4B18958  41.089  38.982   7.717
 1120POPC   NC318959  25.419   4.348   9.721
 1120POPC   PO418960  25.400   3.962   9.186
 1120POPC   GL118961  25.346   4.364   9.089
 1120POPC   GL218962  25.247   4.645   9.264
 1120POPC   C1A18963  25.230   4.455   8.687
 1120POPC   D2A18964  24.951   4.428   8.334
 1120POPC   C3A18965  25.146   4.240   7.970
 1120POPC   C4A18966  25.566   4.144   7.797
 1120POPC   C1B18967  25.547   4.812   8.916
 1120POPC   C2B18968  25.697   4.752   8.469
 1120POPC   C3B18969  25.475   4.664   8.058
 1120POPC   C4B18970  25.546   4.654   7.617
 1121POPC   NC318971  17.844  17.667   9.382
 1121POPC   PO418972  17.274  17.635   9.677
 1121POPC   GL118973  17.390  17.422   9.294
 1121POPC   GL218974  17.437  17.710   9.084
 1121POPC   C1A18975  17.253  17.279   8.873
 1121POPC   D2A18976  17.145  17.404   8.442
 1121POPC   C3A18977  17.447  17.583   8.166
 1121POPC   C4A18978  17.453  17.470   7.748
 1121POPC   C1B18979  17.620  17.598   8.678
 1121POPC   C2B18980  17.871  17.809   8.363
 1121POPC   C3B18981  17.745  18.020   8.009
 1121POPC   C4B18982  17.395  17.980   7.812
 1122POPC   NC318983  40.818  18.834   9.592
 1122POPC   PO418984  40.504  19.381   9.869
 1122POPC   GL118985  40.566  19.223   9.348
 1122POPC   GL218986  40.564  18.867   9.159
 1122POPC   C1A18987  40.864  19.236   8.945
 1122POPC   D2A18988  40.933  19.163   8.474
 1122POPC   C3A18989  41.027  19.386   8.062
 1122POPC   C4A18990  40.792  19.368   7.687
 1122POPC   C1B18991  40.398  19.098   8.796
 1122POPC   C2B18992  40.442  19.176   8.335
 1122POPC   C3B18993  40.739  18.950   8.030
 1122POPC   C4B18994  40.685  18.863   7.580
 1123POPC   NC318995   9.677  21.531   9.537
 1123POPC   PO418996   9.225  21.025   9.382
 1123POPC   GL118997   9.647  21.177   9.134
 1123POPC   GL218998   9.899  21.497   9.104
 1123POPC   C1A18999   9.937  21.167   8.737
 1123POPC   D2A19000  10.079  21.362   8.320
 1123POPC   C3A19001   9.811  21.265   7.990
 1123POPC   C4A19002   9.819  20.862   7.817
 1123POPC   C1B19003   9.675  21.634   8.787
 1123POPC   C2B19004   9.777  21.753   8.395
 1123POPC   C3B19005   9.872  21.801   7.975
 1123POPC   C4B19006   9.509  21.626   7.780
 1124POPC   NC319007  18.616   4.125   9.483
 1124POPC   PO419008  17.969   4.443   9.405
 1124POPC   GL119009  18.316   4.392   9.135
 1124POPC   GL219010  18.594   4.594   9.258
 1124POPC   C1A19011  18.347   4.231   8.719
 1124POPC   D2A19012  18.064   4.323   8.394
 1124POPC   C3A19013  18.108   4.102   8.043
 1124POPC   C4A19014  18.254   4.145   7.677
 1124POPC   C1B19015  18.745   4.536   8.843
 1124POPC   C2B19016  18.819   4.231   8.489
 1124POPC   C3B19017  18.629   4.191   8.067
 1124POPC   C4B19018  18.682   4.406   7.686
 1125POPC   NC319019   5.997  10.964   9.544
 1125POPC   PO419020   5.434  11.375   9.705
 1125POPC   GL119021   5.642  11.302   9.293
 1125POPC   GL219022   5.983  11.320   9.180
 1125POPC   C1A19023   5.639  11.432   8.838
 1125POPC   D2A19024   5.569  11.160   8.477
 1125POPC   C3A19025   5.664  11.362   8.093
 1125POPC   C4A19026   5.602  11.237   7.693
 1125POPC   C1B19027   6.041  11.120   8.786
 1125POPC   C2B19028   6.079  11.240   8.383
 1125POPC   C3B19029   6.067  11.106   7.910
 1125POPC   C4B19030   6.028  11.114   7.424
 1126POPC   NC319031   7.555  31.269   9.507
 1126POPC   PO419032   7.958  31.831   9.479
 1126POPC   GL119033   7.584  31.704   9.248
 1126POPC   GL219034   7.704  31.846   9.021
 1126POPC   C1A19035   7.408  31.455   8.890
 1126POPC   D2A19036   7.471  31.342   8.450
 1126POPC   C3A19037   7.379  31.059   8.093
 1126POPC   C4A19038   7.360  31.255   7.660
 1126POPC   C1B19039   7.690  31.804   8.632
 1126POPC   C2B19040   7.836  31.655   8.308
 1126POPC   C3B19041   7.706  31.474   7.976
 1126POPC   C4B19042   7.728  31.743   7.664
 1127POPC   NC319043  12.948  42.312   9.613
 1127POPC   PO419044  12.770  42.921   9.720
 1127POPC   GL119045  12.632  42.647   9.342
 1127POPC   GL219046  12.935  42.519   9.150
 1127POPC   C1A19047  12.493  42.398   8.940
 1127POPC   D2A19048  12.359  42.264   8.501
 1127POPC   C3A19049  12.600  42.417   8.129
 1127POPC   C4A19050  12.826  42.513   7.735
 1127POPC   C1B19051  13.011  42.249   8.779
 1127POPC   C2B19052  13.129  42.342   8.341
 1127POPC   C3B19053  13.201  42.244   7.919
 1127POPC   C4B19054  13.221  42.275   7.448
 1128POPC   NC319055  33.518  31.221   9.373
 1128POPC   PO419056  34.046  31.663   9.503
 1128POPC   GL119057  33.914  31.524   9.106
 1128POPC   GL219058  33.586  31.683   9.045
 1128POPC   C1A19059  34.088  31.409   8.693
 1128POPC   D2A19060  33.991  31.678   8.346
 1128POPC   C3A19061  33.688  31.628   8.056
 1128POPC   C4A19062  33.973  31.390   7.807
 1128POPC   C1B19063  33.583  31.485   8.675
 1128POPC   C2B19064  33.702  31.211   8.356
 1128POPC   C3B19065  33.540  31.131   7.936
 1128POPC   C4B19066  33.572  31.308   7.524
 1129POPC   NC319067  22.317  37.159   9.695
 1129POPC   PO419068  21.809  37.557   9.479
 1129POPC   GL119069  22.057  37.645   9.144
 1129POPC   GL219070  22.356  37.544   9.284
 1129POPC   C1A19071  22.061  37.866   8.745
 1129POPC   D2A19072  21.987  38.096   8.344
 1129POPC   C3A19073  22.032  37.861   7.959
 1129POPC   C4A19074  22.389  37.895   7.718
 1129POPC   C1B19075  22.332  37.407   8.812
 1129POPC   C2B19076  22.168  37.538   8.373
 1129POPC   C3B19077  22.331  37.425   7.954
 1129POPC   C4B19078  22.644  37.152   7.744
 1130POPC   NC319079  13.164  18.999   9.372
 1130POPC   PO419080  12.728  18.522   9.487
 1130POPC   GL119081  12.813  18.360   9.084
 1130POPC   GL219082  13.080  18.573   9.089
 1130POPC   C1A19083  12.687  18.313   8.635
 1130POPC   D2A19084  12.670  18.076   8.237
 1130POPC   C3A19085  12.610  18.291   7.828
 1130POPC   C4A19086  12.436  18.295   7.408
 1130POPC   C1B19087  13.193  18.417   8.698
 1130POPC   C2B19088  13.153  18.134   8.372
 1130POPC   C3B19089  13.102  18.165   7.926
 1130POPC   C4B19090  13.371  18.280   7.576
 1131POPC   NC319091  38.107  41.431   9.471
 1131POPC   PO419092  37.575  41.645   9.795
 1131POPC   GL119093  37.695  41.762   9.302
 1131POPC   GL219094  37.877  41.585   9.054
 1131POPC   C1A19095  37.461  41.784   8.853
 1131POPC   D2A19096  37.457  42.007   8.445
 1131POPC   C3A19097  37.235  41.935   8.106
 1131POPC   C4A19098  37.436  41.704   7.813
 1131POPC   C1B19099  37.988  41.307   8.733
 1131POPC   C2B19100  38.114  41.184   8.309
 1131POPC   C3B19101  37.878  41.251   7.904
 1131POPC   C4B19102  38.066  41.207   7.484
 1132POPC   NC319103   7.854   8.866   9.419
 1132POPC   PO419104   8.147   9.455   9.327
 1132POPC   GL119105   8.357   9.297   8.994
 1132POPC   GL219106   8.408   8.926   9.042
 1132POPC   C1A19107   8.118   9.123   8.664
 1132POPC   D2A19108   7.861   8.845   8.435
 1132POPC   C3A19109   7.945   8.991   8.021
 1132POPC   C4A19110   8.166   9.314   7.762
 1132POPC   C1B19111   8.608   8.575   8.799
 1132POPC   C2B19112   8.461   8.368   8.410
 1132POPC   C3B19113   8.451   8.442   7.966
 1132POPC   C4B19114   8.318   8.798   7.741
 1133POPC   NC319115  25.716  15.301   9.586
 1133POPC   PO419116  26.315  14.952   9.607
 1133POPC   GL119117  26.047  15.149   9.194
 1133POPC   GL219118  26.144  15.424   9.025
 1133POPC   C1A19119  25.823  15.171   8.737
 1133POPC   D2A19120  25.825  15.344   8.326
 1133POPC   C3A19121  26.026  15.219   7.954
 1133POPC   C4A19122  25.677  15.116   7.673
 1133POPC   C1B19123  26.269  15.440   8.590
 1133POPC   C2B19124  26.376  15.094   8.360
 1133POPC   C3B19125  26.456  14.904   7.992
 1133POPC   C4B19126  26.541  15.112   7.641
 1134POPC   NC319127  13.209   8.172   9.648
 1134POPC   PO419128  12.737   7.891   9.464
 1134POPC   GL119129  12.870   8.194   9.194
 1134POPC   GL219130  13.170   8.143   9.136
 1134POPC   C1A19131  12.796   8.252   8.775
 1134POPC   D2A19132  12.792   8.107   8.367
 1134POPC   C3A19133  12.763   8.432   7.999
 1134POPC   C4A19134  12.687   8.245   7.561
 1134POPC   C1B19135  13.300   8.323   8.729
 1134POPC   C2B19136  13.230   8.357   8.290
 1134POPC   C3B19137  13.089   8.047   7.975
 1134POPC   C4B19138  13.235   8.212   7.654
 1135POPC   NC319139  30.364  43.978   9.655
 1135POPC   PO419140  29.731  44.134   9.320
 1135POPC   GL119141  29.689  43.962   8.992
 1135POPC   GL219142  29.938  43.729   8.929
 1135POPC   C1A19143  29.778  44.188   8.635
 1135POPC   D2A19144  29.751  44.118   8.199
 1135POPC   C3A19145  29.808  43.908   7.796
 1135POPC   C4A19146  30.064  44.036   7.475
 1135POPC   C1B19147  29.684  43.676   8.570
 1135POPC   C2B19148  29.736  43.548   8.177
 1135POPC   C3B19149  30.069  43.496   7.903
 1135POPC   C4B19150  30.120  43.534   7.450
 1136POPC   NC319151  30.940   4.760   9.365
 1136POPC   PO419152  30.979   4.048   9.523
 1136POPC   GL119153  30.697   4.022   9.141
 1136POPC   GL219154  30.633   4.365   8.976
 1136POPC   C1A19155  30.688   3.936   8.680
 1136POPC   D2A19156  30.627   4.299   8.408
 1136POPC   C3A19157  30.781   4.257   7.997
 1136POPC   C4A19158  30.598   4.163   7.608
 1136POPC   C1B19159  30.838   4.735   8.717
 1136POPC   C2B19160  30.754   4.884   8.346
 1136POPC   C3B19161  30.619   4.796   7.957
 1136POPC   C4B19162  30.908   4.655   7.684
 1137POPC   NC319163  16.936  17.326   9.624
 1137POPC   PO419164  16.303  17.624   9.438
 1137POPC   GL119165  16.619  17.384   9.223
 1137POPC   GL219166  16.923  17.606   9.175
 1137POPC   C1A19167  16.734  17.308   8.805
 1137POPC   D2A19168  16.646  17.543   8.435
 1137POPC   C3A19169  16.394  17.333   8.111
 1137POPC   C4A19170  16.424  17.246   7.675
 1137POPC   C1B19171  17.067  17.796   8.757
 1137POPC   C2B19172  17.040  17.919   8.298
 1137POPC   C3B19173  16.982  17.706   7.875
 1137POPC   C4B19174  17.169  17.735   7.421
 1138POPC   NC319175  40.620  13.346   9.524
 1138POPC   PO419176  40.961  13.890   9.570
 1138POPC   GL119177  40.754  13.756   9.207
 1138POPC   GL219178  40.962  13.471   9.131
 1138POPC   C1A19179  40.636  13.739   8.777
 1138POPC   D2A19180  40.869  13.640   8.384
 1138POPC   C3A19181  40.688  13.620   7.972
 1138POPC   C4A19182  41.069  13.613   7.748
 1138POPC   C1B19183  40.848  13.272   8.739
 1138POPC   C2B19184  40.569  13.235   8.350
 1138POPC   C3B19185  40.543  13.133   7.886
 1138POPC   C4B19186  40.416  13.116   7.435
 1139POPC   NC319187  38.110  33.805   9.712
 1139POPC   PO419188  37.528  33.452   9.647
 1139POPC   GL119189  37.757  33.589   9.271
 1139POPC   GL219190  38.023  33.854   9.209
 1139POPC   C1A19191  37.828  33.554   8.827
 1139POPC   D2A19192  37.985  33.702   8.448
 1139POPC   C3A19193  37.805  33.582   8.087
 1139POPC   C4A19194  37.659  33.819   7.773
 1139POPC   C1B19195  38.262  34.021   8.841
 1139POPC   C2B19196  38.129  34.194   8.423
 1139POPC   C3B19197  37.927  34.224   7.977
 1139POPC   C4B19198  37.972  34.102   7.518
 1140POPC   NC319199  13.535   5.535   9.566
 1140POPC   PO419200  13.900   6.107   9.437
 1140POPC   GL119201  13.675   5.852   9.169
 1140POPC   GL219202  13.884   5.532   9.193
 1140POPC   C1A19203  13.547   5.984   8.744
 1140POPC   D2A19204  13.866   6.107   8.434
 1140POPC   C3A19205  13.875   5.966   8.033
 1140POPC   C4A19206  13.498   5.973   7.813
 1140POPC   C1B19207  13.658   5.472   8.808
 1140POPC   C2B19208  13.538   5.590   8.392
 1140POPC   C3B19209  13.694   5.474   8.014
 1140POPC   C4B19210  14.010   5.546   7.782
 1141POPC   NC319211  32.685   2.847   9.512
 1141POPC   PO419212  31.980   2.777   9.512
 1141POPC   GL119213  32.270   2.742   9.184
 1141POPC   GL219214  32.517   2.981   9.042
 1141POPC   C1A19215  32.130   2.633   8.775
 1141POPC   D2A19216  31.830   2.486   8.467
 1141POPC   C3A19217  31.897   2.734   8.102
 1141POPC   C4A19218  32.077   3.014   7.805
 1141POPC   C1B19219  32.478   3.241   8.668
 1141POPC   C2B19220  32.321   3.145   8.265
 1141POPC   C3B19221  32.518   2.833   7.996
 1141POPC   C4B19222  32.525   2.898   7.573
 1142POPC   NC319223  39.857  27.383   9.377
 1142POPC   PO419224  39.733  27.997   9.641
 1142POPC   GL119225  39.850  27.855   9.220
 1142POPC   GL219226  40.215  27.744   9.240
 1142POPC   C1A19227  39.758  27.660   8.800
 1142POPC   D2A19228  39.878  27.438   8.423
 1142POPC   C3A19229  39.710  27.470   8.019
 1142POPC   C4A19230  39.917  27.626   7.622
 1142POPC   C1B19231  40.254  27.501   8.820
 1142POPC   C2B19232  40.388  27.359   8.385
 1142POPC   C3B19233  40.209  27.379   7.956
 1142POPC   C4B19234  40.368  27.360   7.487
 1143POPC   NC319235  10.331   2.975   9.773
 1143POPC   PO419236  10.644   2.380   9.565
 1143POPC   GL119237  10.377   2.660   9.306
 1143POPC   GL219238  10.339   3.020   9.154
 1143POPC   C1A19239  10.308   2.593   8.874
 1143POPC   D2A19240  10.348   2.861   8.543
 1143POPC   C3A19241  10.390   2.773   8.120
 1143POPC   C4A19242  10.119   2.666   7.784
 1143POPC   C1B19243  10.677   3.102   8.849
 1143POPC   C2B19244  10.827   3.061   8.402
 1143POPC   C3B19245  10.754   3.077   7.946
 1143POPC   C4B19246  10.901   3.298   7.586
 1144POPC   NC319247  30.821  13.328   9.437
 1144POPC   PO419248  30.634  12.665   9.460
 1144POPC   GL119249  30.711  12.763   9.070
 1144POPC   GL219250  30.557  13.071   9.054
 1144POPC   C1A19251  30.738  12.747   8.636
 1144POPC   D2A19252  30.828  12.903   8.216
 1144POPC   C3A19253  30.559  12.784   7.903
 1144POPC   C4A19254  30.375  12.646   7.510
 1144POPC   C1B19255  30.818  13.259   8.710
 1144POPC   C2B19256  30.787  13.424   8.285
 1144POPC   C3B19257  30.879  13.307   7.845
 1144POPC   C4B19258  30.673  13.089   7.516
 1145POPC   NC319259  23.791  29.850   9.574
 1145POPC   PO419260  23.185  30.018   9.368
 1145POPC   GL119261  23.490  30.138   9.051
 1145POPC   GL219262  23.802  29.949   9.067
 1145POPC   C1A19263  23.491  30.123   8.611
 1145POPC   D2A19264  23.499  29.850   8.277
 1145POPC   C3A19265  23.732  30.030   7.987
 1145POPC   C4A19266  23.787  29.941   7.573
 1145POPC   C1B19267  23.970  29.702   8.710
 1145POPC   C2B19268  23.969  29.609   8.267
 1145POPC   C3B19269  23.736  29.537   7.916
 1145POPC   C4B19270  23.859  29.431   7.517
 1146POPC   NC319271  27.318  42.082   9.568
 1146POPC   PO419272  27.846  42.474   9.404
 1146POPC   GL119273  27.753  42.210   9.093
 1146POPC   GL219274  27.444  42.269   9.071
 1146POPC   C1A19275  27.740  42.019   8.703
 1146POPC   D2A19276  27.921  42.111   8.317
 1146POPC   C3A19277  27.728  42.063   7.924
 1146POPC   C4A19278  27.547  42.296   7.599
 1146POPC   C1B19279  27.395  42.403   8.652
 1146POPC   C2B19280  27.539  42.447   8.210
 1146POPC   C3B19281  27.365  42.656   7.875
 1146POPC   C4B19282  27.243  42.685   7.428
 1147POPC   NC319283  41.761  36.900   9.455
 1147POPC   PO419284  41.191  36.571   9.474
 1147POPC   GL119285  41.372  36.755   9.097
 1147POPC   GL219286  41.460  37.110   9.025
 1147POPC   C1A19287  41.667  36.763   8.764
 1147POPC   D2A19288  41.717  37.020   8.426
 1147POPC   C3A19289  41.574  36.882   8.048
 1147POPC   C4A19290  41.689  36.660   7.703
 1147POPC   C1B19291  41.381  37.359   8.681
 1147POPC   C2B19292  41.316  37.303   8.268
 1147POPC   C3B19293  41.400  37.345   7.843
 1147POPC   C4B19294  41.727  37.193   7.619
 1148POPC   NC319295  34.511  10.326   9.619
 1148POPC   PO419296  35.056  10.433   9.631
 1148POPC   GL119297  34.783  10.613   9.255
 1148POPC   GL219298  34.407  10.576   9.179
 1148POPC   C1A19299  34.698  10.786   8.800
 1148POPC   D2A19300  34.438  10.866   8.399
 1148POPC   C3A19301  34.623  10.735   7.999
 1148POPC   C4A19302  35.054  10.627   7.800
 1148POPC   C1B19303  34.331  10.436   8.729
 1148POPC   C2B19304  34.448  10.324   8.276
 1148POPC   C3B19305  34.238  10.386   7.873
 1148POPC   C4B19306  34.141  10.659   7.558
 1149POPC   NC319307  19.703  25.400   9.588
 1149POPC   PO419308  20.273  25.208   9.497
 1149POPC   GL119309  20.021  25.135   9.198
 1149POPC   GL219310  20.195  24.866   9.068
 1149POPC   C1A19311  19.667  25.248   8.903
 1149POPC   D2A19312  19.507  25.159   8.473
 1149POPC   C3A19313  19.591  25.377   8.086
 1149POPC   C4A19314  19.709  25.197   7.696
 1149POPC   C1B19315  19.962  24.892   8.685
 1149POPC   C2B19316  20.033  24.838   8.251
 1149POPC   C3B19317  20.082  24.844   7.795
 1149POPC   C4B19318  20.334  24.908   7.393
 1150POPC   NC319319   2.927  43.995   9.652
 1150POPC   PO419320   2.341  44.101   9.316
 1150POPC   GL119321   2.698  44.119   9.198
 1150POPC   GL219322   2.834  43.797   9.153
 1150POPC   C1A19323   2.711  44.170   8.784
 1150POPC   D2A19324   2.658  43.980   8.432
 1150POPC   C3A19325   2.807  44.124   8.051
 1150POPC   C4A19326   2.548  43.808   7.825
 1150POPC   C1B19327   3.060  43.765   8.726
 1150POPC   C2B19328   3.017  43.691   8.257
 1150POPC   C3B19329   3.121  43.780   7.835
 1150POPC   C4B19330   3.381  43.666   7.499
 1151POPC   NC319331  30.116  30.116   9.412
 1151POPC   PO419332  29.833  29.451   9.530
 1151POPC   GL119333  29.865  29.702   9.140
 1151POPC   GL219334  29.622  29.966   9.112
 1151POPC   C1A19335  30.044  29.699   8.695
 1151POPC   D2A19336  30.003  29.592   8.247
 1151POPC   C3A19337  29.905  29.913   7.953
 1151POPC   C4A19338  29.998  30.309   7.738
 1151POPC   C1B19339  29.811  30.139   8.737
 1151POPC   C2B19340  29.658  30.332   8.367
 1151POPC   C3B19341  29.498  30.229   7.985
 1151POPC   C4B19342  29.558  30.047   7.574
 1152POPC   NC319343  20.836  41.799   9.361
 1152POPC   PO419344  20.353  41.402   9.320
 1152POPC   GL119345  20.405  41.722   9.018
 1152POPC   GL219346  20.671  41.940   8.910
 1152POPC   C1A19347  20.401  41.663   8.555
 1152POPC   D2A19348  20.646  41.335   8.333
 1152POPC   C3A19349  20.537  41.441   7.931
 1152POPC   C4A19350  20.559  41.883   7.802
 1152POPC   C1B19351  20.833  41.533   8.788
 1152POPC   C2B19352  21.105  41.553   8.478
 1152POPC   C3B19353  20.979  41.709   8.101
 1152POPC   C4B19354  21.016  41.418   7.781
 1153POPC   NC319355  11.173   5.443   9.530
 1153POPC   PO419356  11.502   6.027   9.798
 1153POPC   GL119357  11.275   6.113   9.342
 1153POPC   GL219358  11.137   5.851   9.212
 1153POPC   C1A19359  11.471   6.115   8.888
 1153POPC   D2A19360  11.672   5.959   8.488
 1153POPC   C3A19361  11.479   5.980   8.061
 1153POPC   C4A19362  11.612   5.631   7.757
 1153POPC   C1B19363  11.074   5.763   8.813
 1153POPC   C2B19364  11.146   5.995   8.486
 1153POPC   C3B19365  10.944   5.926   8.125
 1153POPC   C4B19366  11.095   5.775   7.753
 1154POPC   NC319367  40.248  20.149   9.131
 1154POPC   PO419368  40.014  20.696   9.415
 1154POPC   GL119369  39.853  20.675   9.028
 1154POPC   GL219370  39.695  20.338   9.027
 1154POPC   C1A19371  39.972  20.917   8.653
 1154POPC   D2A19372  40.333  20.930   8.361
 1154POPC   C3A19373  40.216  20.705   7.982
 1154POPC   C4A19374  39.809  20.735   7.757
 1154POPC   C1B19375  39.857  20.387   8.606
 1154POPC   C2B19376  39.837  20.394   8.161
 1154POPC   C3B19377  39.696  20.238   7.767
 1154POPC   C4B19378  39.720  20.395   7.292
 1155POPC   NC319379  39.727  18.631   9.524
 1155POPC   PO419380  40.349  18.869   9.657
 1155POPC   GL119381  40.058  18.904   9.247
 1155POPC   GL219382  39.938  19.201   9.091
 1155POPC   C1A19383  39.770  18.789   8.859
 1155POPC   D2A19384  39.964  18.979   8.505
 1155POPC   C3A19385  39.995  18.858   8.089
 1155POPC   C4A19386  40.289  19.092   7.811
 1155POPC   C1B19387  39.599  19.286   8.773
 1155POPC   C2B19388  39.480  19.124   8.406
 1155POPC   C3B19389  39.627  19.186   8.006
 1155POPC   C4B19390  39.799  19.118   7.630
 1156POPC   NC319391  22.505   3.438   9.557
 1156POPC   PO419392  23.118   3.536   9.527
 1156POPC   GL119393  22.899   3.433   9.226
 1156POPC   GL219394  22.799   3.760   9.145
 1156POPC   C1A19395  22.799   3.318   8.843
 1156POPC   D2A19396  22.681   3.521   8.461
 1156POPC   C3A19397  22.834   3.430   8.074
 1156POPC   C4A19398  22.777   3.184   7.712
 1156POPC   C1B19399  23.139   3.696   8.841
 1156POPC   C2B19400  23.224   3.682   8.405
 1156POPC   C3B19401  23.191   3.809   7.972
 1156POPC   C4B19402  23.133   3.835   7.507
 1157POPC   NC319403  39.352  43.593   9.516
 1157POPC   PO419404  38.882  43.090   9.654
 1157POPC   GL119405  39.125  43.056   9.271
 1157POPC   GL219406  38.956  42.792   9.097
 1157POPC   C1A19407  39.369  43.079   8.868
 1157POPC   D2A19408  39.264  43.039   8.418
 1157POPC   C3A19409  39.546  43.032   8.052
 1157POPC   C4A19410  39.555  43.011   7.584
 1157POPC   C1B19411  38.625  42.868   8.816
 1157POPC   C2B19412  38.576  42.785   8.382
 1157POPC   C3B19413  38.915  42.850   8.121
 1157POPC   C4B19414  39.093  43.075   7.785
 1158POPC   NC319415  30.162  40.663   9.711
 1158POPC   PO419416  29.679  40.834   9.268
 1158POPC   GL119417  29.761  40.762   8.888
 1158POPC   GL219418  29.898  41.093   8.853
 1158POPC   C1A19419  29.937  40.502   8.589
 1158POPC   D2A19420  30.305  40.561   8.334
 1158POPC   C3A19421  30.136  40.638   7.922
 1158POPC   C4A19422  29.724  40.548   7.767
 1158POPC   C1B19423  30.027  40.994   8.464
 1158POPC   C2B19424  29.739  40.909   8.153
 1158POPC   C3B19425  29.570  41.038   7.773
 1158POPC   C4B19426  29.617  40.855   7.367
 1159POPC   NC319427   3.055  21.592   9.569
 1159POPC   PO419428   2.851  20.931   9.451
 1159POPC   GL119429   2.766  21.333   9.226
 1159POPC   GL219430   3.045  21.493   9.062
 1159POPC   C1A19431   2.569  21.459   8.842
 1159POPC   D2A19432   2.589  21.261   8.413
 1159POPC   C3A19433   2.664  21.500   8.050
 1159POPC   C4A19434   2.551  21.445   7.611
 1159POPC   C1B19435   3.002  21.227   8.711
 1159POPC   C2B19436   3.108  21.343   8.283
 1159POPC   C3B19437   2.984  21.140   7.895
 1159POPC   C4B19438   2.962  21.258   7.400
 1160POPC   NC319439  40.522  44.977   9.348
 1160POPC   PO419440  40.944  44.437   9.502
 1160POPC   GL119441  40.806  44.528   9.088
 1160POPC   GL219442  40.487  44.539   9.074
 1160POPC   C1A19443  40.743  44.792   8.693
 1160POPC   D2A19444  40.659  44.970   8.271
 1160POPC   C3A19445  40.792  44.770   7.882
 1160POPC   C4A19446  40.939  44.406   7.678
 1160POPC   C1B19447  40.416  44.377   8.704
 1160POPC   C2B19448  40.619  44.413   8.323
 1160POPC   C3B19449  40.492  44.381   7.911
 1160POPC   C4B19450  40.415  44.595   7.510
 1161POPC   NC319451   3.295  37.887   9.435
 1161POPC   PO419452   3.877  37.624   9.587
 1161POPC   GL119453   3.705  37.698   9.168
 1161POPC   GL219454   3.416  37.466   9.186
 1161POPC   C1A19455   3.779  37.893   8.739
 1161POPC   D2A19456   3.925  37.819   8.306
 1161POPC   C3A19457   3.585  37.821   7.993
 1161POPC   C4A19458   3.373  37.694   7.591
 1161POPC   C1B19459   3.289  37.786   8.828
 1161POPC   C2B19460   3.274  37.672   8.432
 1161POPC   C3B19461   3.150  37.559   8.042
 1161POPC   C4B19462   2.950  37.907   7.839
 1162POPC   NC319463  27.592  11.782   9.474
 1162POPC   PO419464  27.634  12.455   9.334
 1162POPC   GL119465  27.406  12.286   9.006
 1162POPC   GL219466  27.594  12.016   9.036
 1162POPC   C1A19467  27.568  12.187   8.575
 1162POPC   D2A19468  27.839  12.325   8.272
 1162POPC   C3A19469  27.567  12.358   7.993
 1162POPC   C4A19470  27.343  12.272   7.632
 1162POPC   C1B19471  27.325  11.769   8.788
 1162POPC   C2B19472  27.303  11.678   8.328
 1162POPC   C3B19473  27.493  11.846   7.925
 1162POPC   C4B19474  27.608  11.859   7.469
 1163POPC   NC319475   3.363  14.271   9.487
 1163POPC   PO419476   3.719  14.830   9.394
 1163POPC   GL119477   3.842  14.656   9.025
 1163POPC   GL219478   3.723  14.331   9.064
 1163POPC   C1A19479   3.580  14.614   8.664
 1163POPC   D2A19480   3.327  14.557   8.316
 1163POPC   C3A19481   3.596  14.569   7.976
 1163POPC   C4A19482   3.814  14.745   7.639
 1163POPC   C1B19483   3.341  14.147   8.851
 1163POPC   C2B19484   3.154  14.071   8.442
 1163POPC   C3B19485   3.381  14.093   8.062
 1163POPC   C4B19486   3.222  14.052   7.670
 1164POPC   NC319487  19.240  21.108   9.316
 1164POPC   PO419488  18.860  21.740   9.444
 1164POPC   GL119489  18.901  21.425   9.097
 1164POPC   GL219490  18.784  21.058   9.106
 1164POPC   C1A19491  19.050  21.508   8.695
 1164POPC   D2A19492  18.824  21.665   8.340
 1164POPC   C3A19493  18.957  21.579   7.909
 1164POPC   C4A19494  19.169  21.446   7.514
 1164POPC   C1B19495  19.013  21.013   8.707
 1164POPC   C2B19496  19.268  21.191   8.345
 1164POPC   C3B19497  19.142  21.110   7.930
 1164POPC   C4B19498  18.811  20.817   7.849
 1165POPC   NC319499  28.379  24.996   9.624
 1165POPC   PO419500  28.185  24.385   9.461
 1165POPC   GL119501  28.282  24.715   9.153
 1165POPC   GL219502  28.036  24.931   9.044
 1165POPC   C1A19503  28.394  24.642   8.714
 1165POPC   D2A19504  28.189  24.496   8.300
 1165POPC   C3A19505  28.396  24.610   7.908
 1165POPC   C4A19506  28.782  24.749   7.669
 1165POPC   C1B19507  27.937  24.848   8.635
 1165POPC   C2B19508  27.825  24.969   8.220
 1165POPC   C3B19509  27.978  24.895   7.812
 1165POPC   C4B19510  28.307  24.885   7.480
 1166POPC   NC319511  25.375   8.217   9.432
 1166POPC   PO419512  24.805   7.821   9.312
 1166POPC   GL119513  25.084   8.089   9.028
 1166POPC   GL219514  25.030   8.463   9.062
 1166POPC   C1A19515  25.451   8.214   8.737
 1166POPC   D2A19516  25.462   8.462   8.322
 1166POPC   C3A19517  25.354   8.260   7.878
 1166POPC   C4A19518  25.472   8.172   7.431
 1166POPC   C1B19519  25.003   8.400   8.595
 1166POPC   C2B19520  25.135   8.024   8.311
 1166POPC   C3B19521  24.931   7.856   7.927
 1166POPC   C4B19522  24.613   8.116   7.692
 1167POPC   NC319523   6.211  19.470   9.374
 1167POPC   PO419524   5.799  19.025   9.565
 1167POPC   GL119525   5.983  19.042   9.188
 1167POPC   GL219526   5.745  19.323   9.124
 1167POPC   C1A19527   5.967  18.881   8.782
 1167POPC   D2A19528   5.654  18.916   8.531
 1167POPC   C3A19529   5.748  18.865   8.112
 1167POPC   C4A19530   5.838  18.863   7.699
 1167POPC   C1B19531   5.961  19.392   8.747
 1167POPC   C2B19532   6.038  19.235   8.356
 1167POPC   C3B19533   5.980  19.346   7.948
 1167POPC   C4B19534   5.785  19.482   7.568
 1168POPC   NC319535   4.720  40.371   9.391
 1168POPC   PO419536   5.160  39.733   9.407
 1168POPC   GL119537   5.028  40.034   9.151
 1168POPC   GL219538   5.347  40.177   9.030
 1168POPC   C1A19539   4.848  40.113   8.763
 1168POPC   D2A19540   4.895  39.968   8.346
 1168POPC   C3A19541   4.897  40.290   8.027
 1168POPC   C4A19542   5.032  40.105   7.646
 1168POPC   C1B19543   5.293  39.826   8.702
 1168POPC   C2B19544   5.265  39.594   8.267
 1168POPC   C3B19545   5.262  39.590   7.779
 1168POPC   C4B19546   5.296  39.619   7.301
 1169POPC   NC319547   0.902   8.913   9.405
 1169POPC   PO419548   1.567   9.133   9.439
 1169POPC   GL119549   1.560   8.957   9.047
 1169POPC   GL219550   1.216   8.884   9.010
 1169POPC   C1A19551   1.483   9.080   8.617
 1169POPC   D2A19552   1.254   9.325   8.316
 1169POPC   C3A19553   1.443   9.266   7.918
 1169POPC   C4A19554   1.584   8.844   7.719
 1169POPC   C1B19555   0.956   9.128   8.704
 1169POPC   C2B19556   0.744   9.239   8.296
 1169POPC   C3B19557   0.835   9.154   7.889
 1169POPC   C4B19558   1.104   8.831   7.915
 1170POPC   NC319559  34.712   5.036   9.749
 1170POPC   PO419560  34.056   4.969   9.770
 1170POPC   GL119561  34.388   4.903   9.344
 1170POPC   GL219562  34.773   4.954   9.248
 1170POPC   C1A19563  34.476   5.037   8.860
 1170POPC   D2A19564  34.704   5.095   8.445
 1170POPC   C3A19565  34.543   5.064   8.031
 1170POPC   C4A19566  34.181   5.329   7.949
 1170POPC   C1B19567  34.817   4.675   8.859
 1170POPC   C2B19568  34.596   4.615   8.457
 1170POPC   C3B19569  34.800   4.607   8.055
 1170POPC   C4B19570  34.736   4.722   7.622
 1171POPC   NC319571   6.340  38.376   9.495
 1171POPC   PO419572   7.054  38.391   9.365
 1171POPC   GL119573   6.689  38.305   9.137
 1171POPC   GL219574   6.462  38.614   9.060
 1171POPC   C1A19575   6.523  38.167   8.779
 1171POPC   D2A19576   6.515  38.386   8.411
 1171POPC   C3A19577   6.492  38.104   8.062
 1171POPC   C4A19578   6.689  38.181   7.707
 1171POPC   C1B19579   6.808  38.692   8.780
 1171POPC   C2B19580   6.961  38.653   8.356
 1171POPC   C3B19581   6.727  38.616   7.988
 1171POPC   C4B19582   6.493  38.886   7.767
 1172POPC   NC319583  26.405   8.171   9.339
 1172POPC   PO419584  25.767   8.443   9.340
 1172POPC   GL119585  25.964   8.241   9.062
 1172POPC   GL219586  25.966   7.922   9.204
 1172POPC   C1A19587  26.147   8.380   8.716
 1172POPC   D2A19588  25.981   8.538   8.336
 1172POPC   C3A19589  26.158   8.443   7.952
 1172POPC   C4A19590  25.931   8.223   7.638
 1172POPC   C1B19591  26.158   7.843   8.783
 1172POPC   C2B19592  26.035   7.964   8.375
 1172POPC   C3B19593  26.117   7.839   7.962
 1172POPC   C4B19594  26.292   7.876   7.560
 1173POPC   NC319595  37.269  16.319   9.680
 1173POPC   PO419596  37.652  16.805   9.718
 1173POPC   GL119597  37.637  16.555   9.289
 1173POPC   GL219598  37.958  16.597   9.104
 1173POPC   C1A19599  37.561  16.502   8.801
 1173POPC   D2A19600  37.590  16.330   8.364
 1173POPC   C3A19601  37.615  16.583   7.943
 1173POPC   C4A19602  37.510  16.951   7.656
 1173POPC   C1B19603  38.016  16.837   8.750
 1173POPC   C2B19604  37.905  16.747   8.346
 1173POPC   C3B19605  37.949  16.974   7.966
 1173POPC   C4B19606  37.996  16.827   7.571
 1174POPC   NC319607  30.785  41.886   9.208
 1174POPC   PO419608  30.555  41.220   9.387
 1174POPC   GL119609  30.495  41.474   9.041
 1174POPC   GL219610  30.256  41.725   9.026
 1174POPC   C1A19611  30.559  41.626   8.620
 1174POPC   D2A19612  30.544  41.491   8.208
 1174POPC   C3A19613  30.969  41.549   8.088
 1174POPC   C4A19614  31.040  41.396   7.711
 1174POPC   C1B19615  30.357  42.089   8.742
 1174POPC   C2B19616  30.351  42.204   8.334
 1174POPC   C3B19617  30.681  41.979   8.131
 1174POPC   C4B19618  30.742  41.840   7.726
 1175POPC   NC319619  28.394   7.046   9.422
 1175POPC   PO419620  28.676   7.677   9.535
 1175POPC   GL119621  28.452   7.459   9.143
 1175POPC   GL219622  28.073   7.406   9.179
 1175POPC   C1A19623  28.360   7.222   8.751
 1175POPC   D2A19624  28.103   7.322   8.340
 1175POPC   C3A19625  28.240   7.210   7.906
 1175POPC   C4A19626  28.477   7.222   7.480
 1175POPC   C1B19627  28.058   7.633   8.771
 1175POPC   C2B19628  27.948   7.801   8.329
 1175POPC   C3B19629  28.137   7.744   7.886
 1175POPC   C4B19630  28.233   7.670   7.418
 1176POPC   NC319631   3.663  43.544   9.765
 1176POPC   PO419632   3.363  42.964   9.584
 1176POPC   GL119633   3.556  43.271   9.308
 1176POPC   GL219634   3.800  43.016   9.244
 1176POPC   C1A19635   3.427  43.385   8.862
 1176POPC   D2A19636   3.152  43.261   8.476
 1176POPC   C3A19637   3.343  43.320   8.028
 1176POPC   C4A19638   3.698  43.307   7.710
 1176POPC   C1B19639   3.688  42.863   8.829
 1176POPC   C2B19640   3.777  42.673   8.403
 1176POPC   C3B19641   3.689  42.813   7.962
 1176POPC   C4B19642   3.352  42.922   7.666
 1177POPC   NC319643  44.481   9.385   9.466
 1177POPC   PO419644  44.734   8.744   9.533
 1177POPC   GL119645  44.698   9.020   9.161
 1177POPC   GL219646  44.895   9.316   9.135
 1177POPC   C1A19647  44.601   9.046   8.717
 1177POPC   D2A19648  44.741   8.766   8.362
 1177POPC   C3A19649  44.799   8.738   7.905
 1177POPC   C4A19650  44.539   8.730   7.525
 1177POPC   C1B19651   0.065   9.272   8.738
 1177POPC   C2B19652  44.842   9.370   8.364
 1177POPC   C3B19653  44.787   9.242   7.962
 1177POPC   C4B19654  44.530   9.235   7.612
 1178POPC   NC319655  24.591  27.940   9.513
 1178POPC   PO419656  24.181  27.375   9.537
 1178POPC   GL119657  24.384  27.552   9.206
 1178POPC   GL219658  24.256  27.872   9.104
 1178POPC   C1A19659  24.568  27.363   8.859
 1178POPC   D2A19660  24.533  27.355   8.426
 1178POPC   C3A19661  24.749  27.562   8.099
 1178POPC   C4A19662  24.841  27.465   7.672
 1178POPC   C1B19663  24.197  27.669   8.690
 1178POPC   C2B19664  24.306  27.775   8.269
 1178POPC   C3B19665  24.296  27.585   7.860
 1178POPC   C4B19666  24.124  27.877   7.613
 1179POPC   NC319667  27.149   1.202   9.549
 1179POPC   PO419668  26.459   1.346   9.687
 1179POPC   GL119669  26.784   1.178   9.233
 1179POPC   GL219670  26.827   0.862   9.098
 1179POPC   C1A19671  26.960   1.269   8.794
 1179POPC   D2A19672  26.784   1.235   8.360
 1179POPC   C3A19673  26.983   1.384   7.988
 1179POPC   C4A19674  27.004   1.199   7.592
 1179POPC   C1B19675  26.607   0.872   8.683
 1179POPC   C2B19676  26.438   0.876   8.245
 1179POPC   C3B19677  26.615   0.983   7.845
 1179POPC   C4B19678  26.605   0.890   7.374
 1180POPC   NC319679  38.111  25.447   9.550
 1180POPC   PO419680  38.742  25.120   9.655
 1180POPC   GL119681  38.492  25.179   9.299
 1180POPC   GL219682  38.560  25.544   9.262
 1180POPC   C1A19683  38.335  25.221   8.881
 1180POPC   D2A19684  38.164  25.028   8.492
 1180POPC   C3A19685  38.233  25.209   8.063
 1180POPC   C4A19686  38.066  25.263   7.656
 1180POPC   C1B19687  38.680  25.611   8.831
 1180POPC   C2B19688  38.721  25.368   8.416
 1180POPC   C3B19689  38.689  25.445   7.983
 1180POPC   C4B19690  38.587  25.264   7.592
 1181POPC   NC319691   8.061   0.870   9.324
 1181POPC   PO419692   8.480   0.379   9.614
 1181POPC   GL119693   8.409   0.392   9.109
 1181POPC   GL219694   8.406   0.698   9.018
 1181POPC   C1A19695   8.268   0.418   8.639
 1181POPC   D2A19696   8.240   0.217   8.277
 1181POPC   C3A19697   7.963   0.254   7.971
 1181POPC   C4A19698   7.771   0.583   7.775
 1181POPC   C1B19699   8.376   0.907   8.648
 1181POPC   C2B19700   8.483   0.759   8.244
 1181POPC   C3B19701   8.424   0.501   7.880
 1181POPC   C4B19702   8.526   0.635   7.467
 1182POPC   NC319703  18.416   6.186   9.404
 1182POPC   PO419704  17.994   5.752   9.555
 1182POPC   GL119705  18.160   5.766   9.192
 1182POPC   GL219706  17.989   6.086   9.112
 1182POPC   C1A19707  18.006   5.700   8.787
 1182POPC   D2A19708  18.248   5.816   8.421
 1182POPC   C3A19709  18.201   5.492   8.189
 1182POPC   C4A19710  17.923   5.610   7.905
 1182POPC   C1B19711  18.026   6.217   8.667
 1182POPC   C2B19712  18.031   6.249   8.192
 1182POPC   C3B19713  18.163   6.108   7.780
 1182POPC   C4B19714  18.085   6.268   7.341
 1183POPC   NC319715  41.284   8.214   9.533
 1183POPC   PO419716  41.834   7.958   9.430
 1183POPC   GL119717  41.723   8.079   9.048
 1183POPC   GL219718  41.402   7.980   9.084
 1183POPC   C1A19719  41.636   7.933   8.631
 1183POPC   D2A19720  41.566   8.163   8.257
 1183POPC   C3A19721  41.686   7.976   7.883
 1183POPC   C4A19722  41.607   8.390   7.757
 1183POPC   C1B19723  41.238   8.225   8.756
 1183POPC   C2B19724  41.068   8.113   8.345
 1183POPC   C3B19725  41.133   8.265   7.936
 1183POPC   C4B19726  41.265   8.015   7.619
 1184POPC   NC319727  36.503  30.209   9.453
 1184POPC   PO419728  36.143  29.582   9.386
 1184POPC   GL119729  36.244  29.973   9.069
 1184POPC   GL219730  35.901  30.108   8.898
 1184POPC   C1A19731  36.317  30.184   8.659
 1184POPC   D2A19732  36.363  30.011   8.259
 1184POPC   C3A19733  36.125  30.004   7.878
 1184POPC   C4A19734  36.388  29.730   7.690
 1184POPC   C1B19735  36.038  29.734   8.668
 1184POPC   C2B19736  35.864  29.705   8.272
 1184POPC   C3B19737  35.941  29.527   7.908
 1184POPC   C4B19738  35.770  29.674   7.537
 1185POPC   NC319739   0.936   5.181   9.252
 1185POPC   PO419740   1.534   5.000   9.505
 1185POPC   GL119741   1.408   4.955   9.124
 1185POPC   GL219742   1.590   4.648   9.097
 1185POPC   C1A19743   1.339   5.178   8.717
 1185POPC   D2A19744   0.975   5.015   8.503
 1185POPC   C3A19745   0.817   5.061   8.119
 1185POPC   C4A19746   1.078   5.194   7.832
 1185POPC   C1B19747   1.285   4.665   8.735
 1185POPC   C2B19748   1.086   4.535   8.382
 1185POPC   C3B19749   1.173   4.679   7.985
 1185POPC   C4B19750   1.612   4.612   7.841
 1186POPC   NC319751  17.665  24.050   9.505
 1186POPC   PO419752  17.834  23.407   9.656
 1186POPC   GL119753  17.688  23.571   9.233
 1186POPC   GL219754  17.862  23.838   9.084
 1186POPC   C1A19755  17.559  23.515   8.793
 1186POPC   D2A19756  17.453  23.236   8.453
 1186POPC   C3A19757  17.627  23.336   8.045
 1186POPC   C4A19758  17.595  23.648   7.750
 1186POPC   C1B19759  17.667  24.008   8.699
 1186POPC   C2B19760  17.419  23.843   8.319
 1186POPC   C3B19761  17.277  24.023   7.918
 1186POPC   C4B19762  17.300  23.979   7.452
 1187POPC   NC319763   3.986  38.964   9.554
 1187POPC   PO419764   3.314  39.023   9.491
 1187POPC   GL119765   3.454  39.268   9.178
 1187POPC   GL219766   3.757  39.071   9.099
 1187POPC   C1A19767   3.539  39.376   8.759
 1187POPC   D2A19768   3.788  39.126   8.474
 1187POPC   C3A19769   3.592  39.219   8.107
 1187POPC   C4A19770   3.521  39.176   7.706
 1187POPC   C1B19771   4.128  38.896   8.890
 1187POPC   C2B19772   4.183  38.759   8.465
 1187POPC   C3B19773   4.099  38.967   8.077
 1187POPC   C4B19774   3.827  38.794   7.801
 1188POPC   NC319775  21.022  42.587   9.611
 1188POPC   PO419776  21.704  42.308   9.538
 1188POPC   GL119777  21.487  42.420   9.164
 1188POPC   GL219778  21.386  42.746   9.130
 1188POPC   C1A19779  21.392  42.344   8.712
 1188POPC   D2A19780  21.359  42.031   8.397
 1188POPC   C3A19781  21.241  42.205   8.024
 1188POPC   C4A19782  21.054  42.006   7.675
 1188POPC   C1B19783  21.558  42.822   8.757
 1188POPC   C2B19784  21.440  42.681   8.339
 1188POPC   C3B19785  21.627  42.579   7.964
 1188POPC   C4B19786  21.348  42.602   7.653
 1189POPC   NC319787  17.689  31.875   9.583
 1189POPC   PO419788  17.236  31.302   9.670
 1189POPC   GL119789  17.444  31.325   9.230
 1189POPC   GL219790  17.793  31.490   9.191
 1189POPC   C1A19791  17.488  31.360   8.766
 1189POPC   D2A19792  17.431  31.688   8.441
 1189POPC   C3A19793  17.416  31.489   8.045
 1189POPC   C4A19794  17.667  31.569   7.702
 1189POPC   C1B19795  17.863  31.673   8.752
 1189POPC   C2B19796  17.871  31.422   8.350
 1189POPC   C3B19797  18.040  31.321   7.925
 1189POPC   C4B19798  18.153  31.539   7.516
 1190POPC   NC319799  37.393  38.338   9.614
 1190POPC   PO419800  37.976  38.065   9.667
 1190POPC   GL119801  37.803  38.349   9.277
 1190POPC   GL219802  37.560  38.628   9.200
 1190POPC   C1A19803  37.725  38.275   8.820
 1190POPC   D2A19804  37.954  38.325   8.419
 1190POPC   C3A19805  37.754  38.363   8.005
 1190POPC   C4A19806  37.665  38.601   7.638
 1190POPC   C1B19807  37.472  38.738   8.755
 1190POPC   C2B19808  37.292  38.641   8.345
 1190POPC   C3B19809  37.303  38.793   7.950
 1190POPC   C4B19810  37.167  38.633   7.574
 1191POPC   NC319811  12.261  39.662   9.518
 1191POPC   PO419812  12.112  40.293   9.715
 1191POPC   GL119813  12.055  40.245   9.234
 1191POPC   GL219814  11.887  39.912   9.212
 1191POPC   C1A19815  12.076  40.151   8.749
 1191POPC   D2A19816  12.047  40.207   8.276
 1191POPC   C3A19817  12.375  40.057   8.047
 1191POPC   C4A19818  12.241  40.195   7.686
 1191POPC   C1B19819  12.018  39.642   8.845
 1191POPC   C2B19820  12.181  39.719   8.428
 1191POPC   C3B19821  11.979  39.723   7.998
 1191POPC   C4B19822  12.064  39.439   7.651
 1192POPC   NC319823  29.316  24.659   9.534
 1192POPC   PO419824  29.010  24.193   9.548
 1192POPC   GL119825  28.930  24.453   9.177
 1192POPC   GL219826  28.608  24.337   9.092
 1192POPC   C1A19827  28.886  24.522   8.705
 1192POPC   D2A19828  28.754  24.642   8.290
 1192POPC   C3A19829  29.153  24.556   8.079
 1192POPC   C4A19830  29.458  24.708   7.799
 1192POPC   C1B19831  28.761  24.036   8.775
 1192POPC   C2B19832  28.913  24.137   8.336
 1192POPC   C3B19833  28.783  24.273   7.916
 1192POPC   C4B19834  29.094  24.361   7.608
 1193POPC   NC319835  40.275   6.364   9.529
 1193POPC   PO419836  39.733   6.755   9.559
 1193POPC   GL119837  39.930   6.513   9.178
 1193POPC   GL219838  40.225   6.706   9.140
 1193POPC   C1A19839  40.130   6.432   8.721
 1193POPC   D2A19840  40.132   6.273   8.308
 1193POPC   C3A19841  39.976   6.486   7.926
 1193POPC   C4A19842  39.836   6.224   7.534
 1193POPC   C1B19843  39.939   6.892   8.808
 1193POPC   C2B19844  40.003   6.798   8.353
 1193POPC   C3B19845  40.213   6.941   7.955
 1193POPC   C4B19846  40.137   7.075   7.522
 1194POPC   NC319847  42.141  25.108   9.656
 1194POPC   PO419848  41.480  25.015   9.570
 1194POPC   GL119849  41.733  25.241   9.257
 1194POPC   GL219850  41.442  25.218   9.089
 1194POPC   C1A19851  41.838  25.420   8.814
 1194POPC   D2A19852  41.645  25.377   8.379
 1194POPC   C3A19853  41.814  25.533   7.979
 1194POPC   C4A19854  41.613  25.419   7.587
 1194POPC   C1B19855  41.305  25.381   8.755
 1194POPC   C2B19856  41.125  25.487   8.382
 1194POPC   C3B19857  41.285  25.475   7.978
 1194POPC   C4B19858  41.085  25.452   7.581
 1195POPC   NC319859  10.155  25.320   9.589
 1195POPC   PO419860  10.811  25.489   9.521
 1195POPC   GL119861  10.583  25.231   9.249
 1195POPC   GL219862  10.458  25.503   9.046
 1195POPC   C1A19863  10.579  25.052   8.836
 1195POPC   D2A19864  10.499  25.284   8.461
 1195POPC   C3A19865  10.546  25.152   8.048
 1195POPC   C4A19866  10.243  25.399   7.837
 1195POPC   C1B19867  10.853  25.483   8.762
 1195POPC   C2B19868  11.003  25.510   8.293
 1195POPC   C3B19869  10.896  25.456   7.821
 1195POPC   C4B19870  10.785  25.697   7.448
 1196POPC   NC319871   6.031   6.939   9.480
 1196POPC   PO419872   5.694   7.572   9.529
 1196POPC   GL119873   5.978   7.391   9.192
 1196POPC   GL219874   6.299   7.579   9.093
 1196POPC   C1A19875   5.950   7.235   8.770
 1196POPC   D2A19876   5.744   7.445   8.445
 1196POPC   C3A19877   5.753   7.425   8.035
 1196POPC   C4A19878   5.715   7.757   7.808
 1196POPC   C1B19879   6.453   7.372   8.730
 1196POPC   C2B19880   6.279   7.260   8.359
 1196POPC   C3B19881   6.185   7.175   7.962
 1196POPC   C4B19882   6.149   7.400   7.599
 1197POPC   NC319883  16.225  41.290   9.382
 1197POPC   PO419884  15.742  41.699   9.478
 1197POPC   GL119885  15.881  41.805   9.102
 1197POPC   GL219886  16.235  41.827   9.129
 1197POPC   C1A19887  15.662  41.759   8.717
 1197POPC   D2A19888  15.646  41.555   8.318
 1197POPC   C3A19889  15.905  41.700   7.959
 1197POPC   C4A19890  15.981  41.588   7.544
 1197POPC   C1B19891  16.167  41.582   8.738
 1197POPC   C2B19892  16.195  41.444   8.304
 1197POPC   C3B19893  16.216  41.265   7.874
 1197POPC   C4B19894  16.314  41.236   7.405
 1198POPC   NC319895   6.037  43.528   9.487
 1198POPC   PO419896   5.767  44.144   9.465
 1198POPC   GL119897   5.837  44.008   9.074
 1198POPC   GL219898   6.005  43.729   9.027
 1198POPC   C1A19899   5.850  44.124   8.645
 1198POPC   D2A19900   5.642  44.039   8.276
 1198POPC   C3A19901   5.920  43.955   7.929
 1198POPC   C4A19902   5.831  44.012   7.523
 1198POPC   C1B19903   5.873  43.524   8.695
 1198POPC   C2B19904   5.921  43.614   8.317
 1198POPC   C3B19905   5.899  43.403   7.965
 1198POPC   C4B19906   5.994  43.545   7.551
 1199POPC   NC319907   0.989  17.009   9.433
 1199POPC   PO419908   1.592  16.752   9.555
 1199POPC   GL119909   1.355  16.603   9.150
 1199POPC   GL219910   1.063  16.773   8.995
 1199POPC   C1A19911   1.437  16.656   8.695
 1199POPC   D2A19912   1.368  16.434   8.330
 1199POPC   C3A19913   1.480  16.646   7.950
 1199POPC   C4A19914   1.384  16.821   7.555
 1199POPC   C1B19915   1.051  17.025   8.666
 1199POPC   C2B19916   1.054  16.859   8.274
 1199POPC   C3B19917   1.068  17.031   7.899
 1199POPC   C4B19918   0.904  17.004   7.489
 1200POPC   NC319919  40.458  28.714   9.371
 1200POPC   PO419920  40.566  28.087   9.658
 1200POPC   GL119921  40.509  28.228   9.176
 1200POPC   GL219922  40.381  28.525   8.926
 1200POPC   C1A19923  40.768  28.268   8.766
 1200POPC   D2A19924  40.685  28.368   8.328
 1200POPC   C3A19925  40.739  28.135   7.947
 1200POPC   C4A19926  40.882  28.075   7.507
 1200POPC   C1B19927  40.627  28.771   8.633
 1200POPC   C2B19928  40.815  28.845   8.200
 1200POPC   C3B19929  40.623  28.616   7.811
 1200POPC   C4B19930  40.525  28.687   7.349
 1201POPC   NC319931  20.434  30.872   9.434
 1201POPC   PO419932  20.942  30.512   9.560
 1201POPC   GL119933  20.658  30.479   9.152
 1201POPC   GL219934  20.389  30.179   9.167
 1201POPC   C1A19935  20.612  30.722   8.736
 1201POPC   D2A19936  20.598  30.965   8.315
 1201POPC   C3A19937  20.356  30.955   7.938
 1201POPC   C4A19938  20.688  30.781   7.672
 1201POPC   C1B19939  20.237  30.363   8.790
 1201POPC   C2B19940  20.252  30.593   8.389
 1201POPC   C3B19941  20.404  30.455   7.970
 1201POPC   C4B19942  20.300  30.496   7.520
 1202POPC   NC319943  15.587  12.121   9.457
 1202POPC   PO419944  16.221  12.029   9.637
 1202POPC   GL119945  16.041  11.866   9.269
 1202POPC   GL219946  16.033  12.193   9.130
 1202POPC   C1A19947  16.122  11.826   8.807
 1202POPC   D2A19948  15.927  11.760   8.400
 1202POPC   C3A19949  16.176  11.875   8.056
 1202POPC   C4A19950  15.923  11.927   7.709
 1202POPC   C1B19951  15.967  12.384   8.706
 1202POPC   C2B19952  15.977  12.284   8.284
 1202POPC   C3B19953  15.883  12.398   7.866
 1202POPC   C4B19954  16.085  12.349   7.435
 1203POPC   NC319955  26.367  44.056   9.319
 1203POPC   PO419956  25.743  43.932   9.547
 1203POPC   GL119957  25.948  43.815   9.155
 1203POPC   GL219958  26.132  43.546   9.290
 1203POPC   C1A19959  26.135  43.957   8.710
 1203POPC   D2A19960  26.146  43.901   8.255
 1203POPC   C3A19961  26.101  44.211   7.949
 1203POPC   C4A19962  25.930  44.033   7.605
 1203POPC   C1B19963  26.135  43.445   8.860
 1203POPC   C2B19964  26.390  43.531   8.495
 1203POPC   C3B19965  26.247  43.410   8.087
 1203POPC   C4B19966  26.058  43.540   7.722
 1204POPC   NC319967  36.684  27.479   9.600
 1204POPC   PO419968  37.310  27.811   9.526
 1204POPC   GL119969  37.134  27.564   9.197
 1204POPC   GL219970  36.799  27.558   9.102
 1204POPC   C1A19971  37.168  27.449   8.770
 1204POPC   D2A19972  36.953  27.541   8.404
 1204POPC   C3A19973  37.172  27.408   8.028
 1204POPC   C4A19974  37.131  27.281   7.604
 1204POPC   C1B19975  36.644  27.793   8.740
 1204POPC   C2B19976  36.538  27.812   8.303
 1204POPC   C3B19977  36.678  27.563   7.958
 1204POPC   C4B19978  36.474  27.751   7.668
 1205POPC   NC319979  25.106  11.719   9.604
 1205POPC   PO419980  25.389  12.274   9.448
 1205POPC   GL119981  25.398  12.161   9.063
 1205POPC   GL219982  25.092  12.366   8.955
 1205POPC   C1A19983  25.404  12.143   8.621
 1205POPC   D2A19984  25.069  12.266   8.345
 1205POPC   C3A19985  25.319  12.246   8.002
 1205POPC   C4A19986  25.638  12.165   7.703
 1205POPC   C1B19987  24.994  11.929   8.858
 1205POPC   C2B19988  24.978  11.782   8.473
 1205POPC   C3B19989  24.994  11.698   8.060
 1205POPC   C4B19990  25.246  11.824   7.714
 1206POPC   NC319991  39.129  26.698   9.386
 1206POPC   PO419992  39.577  27.144   9.652
 1206POPC   GL119993  39.525  27.044   9.213
 1206POPC   GL219994  39.583  26.717   9.132
 1206POPC   C1A19995  39.593  27.137   8.779
 1206POPC   D2A19996  39.322  27.047   8.453
 1206POPC   C3A19997  39.416  26.795   8.115
 1206POPC   C4A19998  39.329  26.948   7.716
 1206POPC   C1B19999  39.461  26.593   8.690
 1206POPC   C2B20000  39.066  26.563   8.415
 1206POPC   C3B20001  38.978  26.613   7.963
 1206POPC   C4B20002  39.302  26.441   7.706
 1207POPC   NC320003   4.953  12.575   9.663
 1207POPC   PO420004   5.376  12.999   9.547
 1207POPC   GL120005   5.131  12.787   9.232
 1207POPC   GL220006   5.383  12.585   9.144
 1207POPC   C1A20007   4.909  12.656   8.848
 1207POPC   D2A20008   4.964  12.852   8.425
 1207POPC   C3A20009   4.892  12.723   7.989
 1207POPC   C4A20010   5.083  12.715   7.568
 1207POPC   C1B20011   5.380  12.838   8.766
 1207POPC   C2B20012   5.368  13.179   8.457
 1207POPC   C3B20013   5.278  13.058   8.028
 1207POPC   C4B20014   5.414  13.137   7.608
 1208POPC   NC320015  19.788  43.012   9.475
 1208POPC   PO420016  19.611  43.648   9.708
 1208POPC   GL120017  19.859  43.426   9.208
 1208POPC   GL220018  19.611  43.097   9.026
 1208POPC   C1A20019  20.038  43.222   8.822
 1208POPC   D2A20020  19.840  43.152   8.419
 1208POPC   C3A20021  20.045  43.152   8.021
 1208POPC   C4A20022  19.855  43.151   7.605
 1208POPC   C1B20023  19.684  42.770   8.734
 1208POPC   C2B20024  19.486  42.800   8.356
 1208POPC   C3B20025  19.554  42.962   7.984
 1208POPC   C4B20026  19.423  42.855   7.616
 1209POPC   NC320027  25.228   0.105   9.410
 1209POPC   PO420028  25.520   0.717   9.535
 1209POPC   GL120029  25.511   0.466   9.187
 1209POPC   GL220030  25.165   0.557   9.109
 1209POPC   C1A20031  25.413   0.242   8.788
 1209POPC   D2A20032  25.256   0.421   8.419
 1209POPC   C3A20033  25.187   0.169   8.080
 1209POPC   C4A20034  25.262   0.338   7.687
 1209POPC   C1B20035  25.208   0.835   8.760
 1209POPC   C2B20036  25.032   0.939   8.368
 1209POPC   C3B20037  25.052   0.677   8.006
 1209POPC   C4B20038  24.869   0.640   7.581
 1210POPC   NC320039   3.962  16.867   9.476
 1210POPC   PO420040   4.608  16.906   9.432
 1210POPC   GL120041   4.369  16.624   9.170
 1210POPC   GL220042   4.034  16.561   9.032
 1210POPC   C1A20043   4.456  16.548   8.743
 1210POPC   D2A20044   4.768  16.394   8.454
 1210POPC   C3A20045   4.662  16.445   8.033
 1210POPC   C4A20046   4.483  16.513   7.651
 1210POPC   C1B20047   4.049  16.892   8.790
 1210POPC   C2B20048   4.325  16.971   8.457
 1210POPC   C3B20049   4.296  16.832   8.024
 1210POPC   C4B20050   4.014  16.706   7.663
 1211POPC   NC320051  11.241  34.366   9.608
 1211POPC   PO420052  11.524  34.977   9.513
 1211POPC   GL120053  11.507  34.639   9.227
 1211POPC   GL220054  11.142  34.563   9.155
 1211POPC   C1A20055  11.486  34.645   8.782
 1211POPC   D2A20056  11.241  34.710   8.416
 1211POPC   C3A20057  11.327  34.597   7.998
 1211POPC   C4A20058  11.115  34.808   7.697
 1211POPC   C1B20059  11.005  34.280   8.847
 1211POPC   C2B20060  10.764  34.367   8.482
 1211POPC   C3B20061  10.869  34.460   8.111
 1211POPC   C4B20062  10.874  34.289   7.720
 1212POPC   NC320063   7.614  32.162   9.475
 1212POPC   PO420064   7.098  31.759   9.427
 1212POPC   GL120065   7.216  32.076   9.065
 1212POPC   GL220066   7.488  32.323   8.991
 1212POPC   C1A20067   7.004  32.434   8.764
 1212POPC   D2A20068   7.064  32.565   8.310
 1212POPC   C3A20069   7.270  32.275   8.029
 1212POPC   C4A20070   7.688  32.208   7.869
 1212POPC   C1B20071   7.353  32.159   8.557
 1212POPC   C2B20072   7.273  31.795   8.302
 1212POPC   C3B20073   7.262  31.745   7.868
 1212POPC   C4B20074   7.177  32.008   7.485
 1213POPC   NC320075   5.982  14.666   9.580
 1213POPC   PO420076   6.120  14.030   9.385
 1213POPC   GL120077   5.823  14.356   9.196
 1213POPC   GL220078   5.953  14.697   9.090
 1213POPC   C1A20079   5.656  14.347   8.788
 1213POPC   D2A20080   5.907  14.143   8.475
 1213POPC   C3A20081   5.861  14.297   8.087
 1213POPC   C4A20082   5.775  14.412   7.707
 1213POPC   C1B20083   6.146  14.517   8.774
 1213POPC   C2B20084   5.996  14.660   8.399
 1213POPC   C3B20085   6.189  14.714   8.022
 1213POPC   C4B20086   6.177  14.715   7.587
 1214POPC   NC320087  29.492  18.149   9.515
 1214POPC   PO420088  28.967  17.850   9.538
 1214POPC   GL120089  29.113  18.054   9.165
 1214POPC   GL220090  29.244  18.416   9.144
 1214POPC   C1A20091  29.178  18.099   8.740
 1214POPC   D2A20092  29.040  18.020   8.341
 1214POPC   C3A20093  29.306  18.111   8.015
 1214POPC   C4A20094  29.283  18.443   7.745
 1214POPC   C1B20095  29.470  18.517   8.719
 1214POPC   C2B20096  29.379  18.587   8.252
 1214POPC   C3B20097  29.546  18.832   7.892
 1214POPC   C4B20098  29.335  18.874   7.453
 1215POPC   NC320099  41.912   0.085   9.356
 1215POPC   PO420100  42.212   0.828   9.411
 1215POPC   GL120101  42.285   0.657   9.042
 1215POPC   GL220102  41.966   0.502   9.044
 1215POPC   C1A20103  42.186   0.690   8.624
 1215POPC   D2A20104  42.234   0.436   8.287
 1215POPC   C3A20105  42.311   0.585   7.889
 1215POPC   C4A20106  42.266   0.772   7.496
 1215POPC   C1B20107  42.099   0.173   8.733
 1215POPC   C2B20108  42.143  44.921   8.335
 1215POPC   C3B20109  42.124   0.093   7.920
 1215POPC   C4B20110  41.862   0.050   7.568
 1216POPC   NC320111  40.421  40.012   9.576
 1216POPC   PO420112  40.875  40.460   9.532
 1216POPC   GL120113  40.827  40.214   9.147
 1216POPC   GL220114  40.560  39.936   9.111
 1216POPC   C1A20115  40.681  40.253   8.744
 1216POPC   D2A20116  40.831  40.053   8.397
 1216POPC   C3A20117  40.605  39.963   8.078
 1216POPC   C4A20118  40.684  39.969   7.688
 1216POPC   C1B20119  40.791  39.759   8.812
 1216POPC   C2B20120  41.156  39.698   8.578
 1216POPC   C3B20121  41.116  39.710   8.115
 1216POPC   C4B20122  41.006  39.554   7.691
 1217POPC   NC320123   0.695  19.451   9.401
 1217POPC   PO420124   0.357  18.831   9.467
 1217POPC   GL120125   0.265  19.067   9.155
 1217POPC   GL220126   0.574  19.127   9.030
 1217POPC   C1A20127   0.211  18.926   8.730
 1217POPC   D2A20128   0.443  18.924   8.350
 1217POPC   C3A20129   0.091  18.960   8.086
 1217POPC   C4A20130   0.078  19.114   7.690
 1217POPC   C1B20131   0.544  19.343   8.664
 1217POPC   C2B20132   0.570  19.483   8.269
 1217POPC   C3B20133   0.530  19.242   7.923
 1217POPC   C4B20134   0.746  19.439   7.649
 1218POPC   NC320135  15.664  26.436   9.520
 1218POPC   PO420136  16.190  25.986   9.534
 1218POPC   GL120137  15.931  26.087   9.170
 1218POPC   GL220138  15.679  25.807   9.035
 1218POPC   C1A20139  16.019  26.014   8.721
 1218POPC   D2A20140  15.706  25.810   8.467
 1218POPC   C3A20141  15.814  25.668   8.028
 1218POPC   C4A20142  16.194  25.841   7.838
 1218POPC   C1B20143  15.565  26.224   8.843
 1218POPC   C2B20144  15.733  26.343   8.458
 1218POPC   C3B20145  15.663  26.156   8.084
 1218POPC   C4B20146  15.807  26.137   7.701
 1219POPC   NC320147  23.444  16.462   9.802
 1219POPC   PO420148  23.759  15.939   9.401
 1219POPC   GL120149  23.585  15.811   9.090
 1219POPC   GL220150  23.244  15.806   9.149
 1219POPC   C1A20151  23.742  15.875   8.682
 1219POPC   D2A20152  23.936  15.739   8.312
 1219POPC   C3A20153  23.922  16.103   8.059
 1219POPC   C4A20154  23.859  16.219   7.640
 1219POPC   C1B20155  23.338  15.558   8.752
 1219POPC   C2B20156  23.457  15.613   8.336
 1219POPC   C3B20157  23.541  15.776   7.921
 1219POPC   C4B20158  23.340  15.570   7.596
 1220POPC   NC320159  22.994  42.815   9.297
 1220POPC   PO420160  22.823  43.432   9.571
 1220POPC   GL120161  22.714  43.244   9.197
 1220POPC   GL220162  23.049  43.220   8.989
 1220POPC   C1A20163  22.599  43.150   8.772
 1220POPC   D2A20164  22.910  43.179   8.446
 1220POPC   C3A20165  22.703  43.098   8.056
 1220POPC   C4A20166  22.749  43.309   7.673
 1220POPC   C1B20167  23.352  42.954   8.728
 1220POPC   C2B20168  23.279  42.603   8.439
 1220POPC   C3B20169  23.015  42.684   8.123
 1220POPC   C4B20170  23.083  42.929   7.749
 1221POPC   NC320171  23.412  40.766   9.411
 1221POPC   PO420172  23.916  40.371   9.479
 1221POPC   GL120173  23.973  40.645   9.113
 1221POPC   GL220174  23.662  40.824   8.973
 1221POPC   C1A20175  24.088  40.756   8.680
 1221POPC   D2A20176  23.699  40.761   8.460
 1221POPC   C3A20177  23.686  40.851   8.050
 1221POPC   C4A20178  23.758  40.849   7.613
 1221POPC   C1B20179  23.415  41.136   8.685
 1221POPC   C2B20180  23.353  41.214   8.226
 1221POPC   C3B20181  23.305  41.060   7.763
 1221POPC   C4B20182  23.439  41.101   7.300
 1222POPC   NC320183  40.981  16.255   9.901
 1222POPC   PO420184  40.548  15.868   9.544
 1222POPC   GL120185  40.601  15.851   9.113
 1222POPC   GL220186  40.722  16.196   9.141
 1222POPC   C1A20187  40.660  15.722   8.658
 1222POPC   D2A20188  40.593  15.562   8.212
 1222POPC   C3A20189  40.683  15.846   7.839
 1222POPC   C4A20190  40.956  16.172   7.695
 1222POPC   C1B20191  40.456  16.224   8.778
 1222POPC   C2B20192  40.593  16.177   8.364
 1222POPC   C3B20193  40.573  16.362   7.974
 1222POPC   C4B20194  40.248  16.329   7.725
 1223POPC   NC320195  17.980  27.897   9.617
 1223POPC   PO420196  18.416  27.417   9.463
 1223POPC   GL120197  18.127  27.526   9.150
 1223POPC   GL220198  18.194  27.869   9.152
 1223POPC   C1A20199  18.089  27.443   8.698
 1223POPC   D2A20200  18.397  27.533   8.330
 1223POPC   C3A20201  18.294  27.678   7.897
 1223POPC   C4A20202  18.144  27.545   7.445
 1223POPC   C1B20203  18.416  27.858   8.752
 1223POPC   C2B20204  18.491  28.052   8.327
 1223POPC   C3B20205  18.173  28.182   7.985
 1223POPC   C4B20206  18.044  28.016   7.579
 1224POPC   NC320207   5.449  15.238   9.593
 1224POPC   PO420208   6.122  15.108   9.600
 1224POPC   GL120209   5.852  15.218   9.216
 1224POPC   GL220210   5.561  15.017   9.135
 1224POPC   C1A20211   5.687  15.363   8.779
 1224POPC   D2A20212   5.635  15.239   8.328
 1224POPC   C3A20213   5.816  15.566   8.051
 1224POPC   C4A20214   6.084  15.581   7.691
 1224POPC   C1B20215   5.620  14.850   8.715
 1224POPC   C2B20216   5.478  14.647   8.323
 1224POPC   C3B20217   5.685  14.829   7.983
 1224POPC   C4B20218   5.949  15.116   7.785
 1225POPC   NC320219  30.148  40.953   9.266
 1225POPC   PO420220  30.521  40.396   9.584
 1225POPC   GL120221  30.625  40.692   9.261
 1225POPC   GL220222  30.963  40.609   9.156
 1225POPC   C1A20223  30.562  40.686   8.801
 1225POPC   D2A20224  30.843  40.683   8.444
 1225POPC   C3A20225  30.740  40.560   8.023
 1225POPC   C4A20226  30.842  40.614   7.627
 1225POPC   C1B20227  30.959  41.010   8.881
 1225POPC   C2B20228  30.882  41.216   8.489
 1225POPC   C3B20229  30.865  41.055   8.059
 1225POPC   C4B20230  30.512  40.977   7.798
 1226POPC   NC320231  39.403  27.601   9.716
 1226POPC   PO420232  38.773  27.731   9.548
 1226POPC   GL120233  39.083  27.825   9.210
 1226POPC   GL220234  39.394  27.580   9.182
 1226POPC   C1A20235  39.146  27.843   8.761
 1226POPC   D2A20236  39.359  27.565   8.485
 1226POPC   C3A20237  39.242  27.631   8.076
 1226POPC   C4A20238  39.507  27.883   7.796
 1226POPC   C1B20239  39.104  27.344   8.900
 1226POPC   C2B20240  38.881  27.324   8.481
 1226POPC   C3B20241  38.983  27.166   8.062
 1226POPC   C4B20242  39.005  27.426   7.690
 1227POPC   NC320243  17.071  24.209   9.371
 1227POPC   PO420244  16.717  24.642   9.523
 1227POPC   GL120245  16.816  24.639   9.123
 1227POPC   GL220246  16.816  24.305   8.946
 1227POPC   C1A20247  16.674  24.742   8.718
 1227POPC   D2A20248  16.822  24.443   8.436
 1227POPC   C3A20249  16.778  24.558   8.062
 1227POPC   C4A20250  16.971  24.383   7.740
 1227POPC   C1B20251  16.459  24.178   8.661
 1227POPC   C2B20252  16.341  24.311   8.222
 1227POPC   C3B20253  16.433  24.330   7.746
 1227POPC   C4B20254  16.397  24.091   7.313
 1228POPC   NC320255  13.763  37.595   9.475
 1228POPC   PO420256  13.111  37.588   9.383
 1228POPC   GL120257  13.339  37.748   9.050
 1228POPC   GL220258  13.683  37.797   9.003
 1228POPC   C1A20259  13.320  37.468   8.713
 1228POPC   D2A20260  13.266  37.548   8.316
 1228POPC   C3A20261  13.601  37.633   7.996
 1228POPC   C4A20262  13.597  37.840   7.562
 1228POPC   C1B20263  13.772  37.677   8.582
 1228POPC   C2B20264  14.030  37.570   8.259
 1228POPC   C3B20265  14.094  37.550   7.849
 1228POPC   C4B20266  14.098  37.926   7.638
 1229POPC   NC320267  36.514  29.212   9.520
 1229POPC   PO420268  37.133  29.400   9.513
 1229POPC   GL120269  36.870  29.357   9.150
 1229POPC   GL220270  36.879  29.002   9.093
 1229POPC   C1A20271  36.625  29.281   8.758
 1229POPC   D2A20272  36.755  29.090   8.339
 1229POPC   C3A20273  36.835  29.199   7.893
 1229POPC   C4A20274  36.664  29.312   7.414
 1229POPC   C1B20275  37.094  28.999   8.697
 1229POPC   C2B20276  37.273  28.797   8.299
 1229POPC   C3B20277  37.299  28.841   7.839
 1229POPC   C4B20278  37.286  28.581   7.446
 1230POPC   NC320279  17.096  15.606   9.386
 1230POPC   PO420280  16.523  15.927   9.502
 1230POPC   GL120281  16.782  15.977   9.134
 1230POPC   GL220282  16.695  16.307   8.964
 1230POPC   C1A20283  17.059  15.948   8.787
 1230POPC   D2A20284  16.902  15.891   8.396
 1230POPC   C3A20285  16.865  16.078   8.019
 1230POPC   C4A20286  16.790  15.681   7.837
 1230POPC   C1B20287  16.489  16.003   8.673
 1230POPC   C2B20288  16.411  15.930   8.222
 1230POPC   C3B20289  16.371  15.951   7.792
 1230POPC   C4B20290  16.722  16.073   7.515
 1231POPC   NC320291  29.842   3.318   9.556
 1231POPC   PO420292  29.990   3.999   9.447
 1231POPC   GL120293  29.814   3.778   9.095
 1231POPC   GL220294  30.062   3.517   9.140
 1231POPC   C1A20295  29.777   3.773   8.635
 1231POPC   D2A20296  29.614   3.459   8.380
 1231POPC   C3A20297  29.774   3.361   7.985
 1231POPC   C4A20298  29.996   3.617   7.705
 1231POPC   C1B20299  29.978   3.326   8.753
 1231POPC   C2B20300  30.162   3.346   8.357
 1231POPC   C3B20301  30.210   3.067   8.032
 1231POPC   C4B20302  30.019   3.038   7.646
 1232POPC   NC320303  19.487  24.691   9.554
 1232POPC   PO420304  20.092  24.492   9.469
 1232POPC   GL120305  19.814  24.458   9.170
 1232POPC   GL220306  19.688  24.770   9.114
 1232POPC   C1A20307  19.830  24.382   8.748
 1232POPC   D2A20308  19.991  24.284   8.341
 1232POPC   C3A20309  19.735  24.367   7.992
 1232POPC   C4A20310  19.824  24.375   7.574
 1232POPC   C1B20311  19.464  24.762   8.794
 1232POPC   C2B20312  19.540  24.635   8.400
 1232POPC   C3B20313  19.563  24.858   8.052
 1232POPC   C4B20314  19.466  24.715   7.684
 1233POPC   NC320315  28.364  22.144   9.650
 1233POPC   PO420316  28.719  21.696   9.547
 1233POPC   GL120317  28.480  21.978   9.180
 1233POPC   GL220318  28.217  22.288   9.173
 1233POPC   C1A20319  28.466  22.131   8.736
 1233POPC   D2A20320  28.699  22.086   8.346
 1233POPC   C3A20321  28.512  21.993   7.958
 1233POPC   C4A20322  28.506  22.226   7.597
 1233POPC   C1B20323  27.976  22.280   8.756
 1233POPC   C2B20324  28.114  22.156   8.311
 1233POPC   C3B20325  28.029  22.076   7.850
 1233POPC   C4B20326  28.167  21.884   7.438
 1234POPC   NC320327  36.541   5.949   9.388
 1234POPC   PO420328  37.247   5.779   9.387
 1234POPC   GL120329  37.235   5.530   9.006
 1234POPC   GL220330  36.867   5.600   9.023
 1234POPC   C1A20331  37.136   5.475   8.554
 1234POPC   D2A20332  36.937   5.775   8.235
 1234POPC   C3A20333  37.118   6.004   7.861
 1234POPC   C4A20334  36.988   6.303   7.531
 1234POPC   C1B20335  36.517   5.617   8.706
 1234POPC   C2B20336  36.406   5.792   8.296
 1234POPC   C3B20337  36.571   5.953   7.893
 1234POPC   C4B20338  36.587   5.853   7.463
 1235POPC   NC320339  29.452  32.044   9.848
 1235POPC   PO420340  30.002  31.969   9.502
 1235POPC   GL120341  29.879  32.223   9.144
 1235POPC   GL220342  30.226  32.184   9.094
 1235POPC   C1A20343  29.778  32.415   8.692
 1235POPC   D2A20344  29.929  32.586   8.281
 1235POPC   C3A20345  29.913  32.454   7.830
 1235POPC   C4A20346  29.950  32.407   7.355
 1235POPC   C1B20347  30.129  32.037   8.714
 1235POPC   C2B20348  29.973  32.084   8.326
 1235POPC   C3B20349  30.211  32.083   7.990
 1235POPC   C4B20350  30.009  31.975   7.664
 1236POPC   NC320351   6.315  36.789   9.386
 1236POPC   PO420352   6.944  37.078   9.249
 1236POPC   GL120353   6.617  36.999   9.027
 1236POPC   GL220354   6.633  36.633   9.029
 1236POPC   C1A20355   6.674  36.925   8.621
 1236POPC   D2A20356   6.633  36.757   8.255
 1236POPC   C3A20357   6.834  37.061   7.959
 1236POPC   C4A20358   6.689  37.322   7.626
 1236POPC   C1B20359   6.295  36.563   8.732
 1236POPC   C2B20360   6.101  36.740   8.369
 1236POPC   C3B20361   6.171  36.609   7.963
 1236POPC   C4B20362   6.590  36.605   7.785
 1237POPC   NC320363  38.192   4.062   9.560
 1237POPC   PO420364  38.672   4.539   9.516
 1237POPC   GL120365  38.619   4.450   9.090
 1237POPC   GL220366  38.272   4.361   9.124
 1237POPC   C1A20367  38.683   4.533   8.611
 1237POPC   D2A20368  38.506   4.294   8.253
 1237POPC   C3A20369  38.568   4.407   7.822
 1237POPC   C4A20370  38.706   4.435   7.428
 1237POPC   C1B20371  38.365   4.136   8.734
 1237POPC   C2B20372  38.231   3.868   8.380
 1237POPC   C3B20373  38.317   3.908   7.926
 1237POPC   C4B20374  38.123   4.198   7.638
 1238POPC   NC320375   6.367  17.940   9.430
 1238POPC   PO420376   6.218  18.568   9.303
 1238POPC   GL120377   6.606  18.362   9.110
 1238POPC   GL220378   6.652  17.998   9.026
 1238POPC   C1A20379   6.781  18.384   8.708
 1238POPC   D2A20380   6.728  18.201   8.332
 1238POPC   C3A20381   6.525  18.400   8.067
 1238POPC   C4A20382   6.474  18.379   7.612
 1238POPC   C1B20383   6.411  17.953   8.663
 1238POPC   C2B20384   6.220  18.058   8.277
 1238POPC   C3B20385   6.293  17.988   7.869
 1238POPC   C4B20386   6.717  17.949   7.857
 1239POPC   NC320387  22.055  20.144   9.844
 1239POPC   PO420388  21.890  20.702   9.593
 1239POPC   GL120389  21.977  20.556   9.134
 1239POPC   GL220390  22.294  20.392   9.206
 1239POPC   C1A20391  21.943  20.457   8.645
 1239POPC   D2A20392  21.981  20.609   8.186
 1239POPC   C3A20393  21.906  20.418   7.806
 1239POPC   C4A20394  22.168  20.179   7.501
 1239POPC   C1B20395  22.438  20.510   8.787
 1239POPC   C2B20396  22.371  20.336   8.375
 1239POPC   C3B20397  22.404  20.377   7.935
 1239POPC   C4B20398  22.686  20.324   7.586
 1240POPC   NC320399  41.622  10.281   9.637
 1240POPC   PO420400  42.005  10.770   9.633
 1240POPC   GL120401  41.753  10.648   9.267
 1240POPC   GL220402  41.401  10.625   9.283
 1240POPC   C1A20403  41.820  10.374   8.874
 1240POPC   D2A20404  41.619  10.210   8.458
 1240POPC   C3A20405  41.754  10.367   8.027
 1240POPC   C4A20406  41.932  10.779   7.943
 1240POPC   C1B20407  41.497  10.764   8.813
 1240POPC   C2B20408  41.562  10.742   8.324
 1240POPC   C3B20409  41.389  10.681   7.866
 1240POPC   C4B20410  41.227  10.707   7.418
 1241POPC   NC320411  44.681  38.813   9.420
 1241POPC   PO420412  44.547  39.431   9.483
 1241POPC   GL120413  44.387  39.159   9.166
 1241POPC   GL220414  44.335  39.449   9.005
 1241POPC   C1A20415  44.540  38.992   8.746
 1241POPC   D2A20416  44.403  38.970   8.316
 1241POPC   C3A20417  44.587  39.227   7.996
 1241POPC   C4A20418  44.923  39.128   7.724
 1241POPC   C1B20419  44.752  39.431   8.845
 1241POPC   C2B20420  44.834  39.313   8.435
 1241POPC   C3B20421   0.041  39.477   8.079
 1241POPC   C4B20422  44.865  39.641   7.666
 1242POPC   NC320423   4.809  18.206   9.319
 1242POPC   PO420424   5.259  18.673   9.486
 1242POPC   GL120425   5.309  18.347   9.160
 1242POPC   GL220426   5.381  18.014   9.268
 1242POPC   C1A20427   5.130  18.299   8.732
 1242POPC   D2A20428   4.871  18.537   8.442
 1242POPC   C3A20429   4.987  18.482   8.036
 1242POPC   C4A20430   4.819  18.215   7.795
 1242POPC   C1B20431   5.509  17.925   8.839
 1242POPC   C2B20432   5.509  18.044   8.408
 1242POPC   C3B20433   5.256  18.044   8.044
 1242POPC   C4B20434   5.285  18.109   7.568
 1243POPC   NC320435  44.406  21.584   9.751
 1243POPC   PO420436  44.839  22.058   9.558
 1243POPC   GL120437  44.589  22.050   9.211
 1243POPC   GL220438  44.905  22.138   9.032
 1243POPC   C1A20439  44.556  21.807   8.822
 1243POPC   D2A20440  44.817  21.940   8.487
 1243POPC   C3A20441  44.564  21.957   8.108
 1243POPC   C4A20442  44.501  22.169   7.727
 1243POPC   C1B20443  44.563  22.324   8.769
 1243POPC   C2B20444  44.447  22.392   8.349
 1243POPC   C3B20445  44.783  22.440   8.048
 1243POPC   C4B20446  44.815  22.573   7.626
 1244POPC   NC320447  12.643  35.063   9.531
 1244POPC   PO420448  12.876  35.680   9.635
 1244POPC   GL120449  12.708  35.545   9.244
 1244POPC   GL220450  12.871  35.240   9.087
 1244POPC   C1A20451  12.629  35.690   8.817
 1244POPC   D2A20452  12.783  35.725   8.383
 1244POPC   C3A20453  12.650  35.478   8.026
 1244POPC   C4A20454  12.510  35.101   7.802
 1244POPC   C1B20455  13.121  35.287   8.669
 1244POPC   C2B20456  13.180  35.360   8.184
 1244POPC   C3B20457  13.033  35.173   7.764
 1244POPC   C4B20458  12.782  35.121   7.356
 1245POPC   NC320459  28.740  12.744   9.511
 1245POPC   PO420460  28.120  13.134   9.613
 1245POPC   GL120461  28.357  13.050   9.260
 1245POPC   GL220462  28.687  13.210   9.238
 1245POPC   C1A20463  28.358  12.924   8.834
 1245POPC   D2A20464  28.154  13.080   8.474
 1245POPC   C3A20465  28.281  12.807   8.150
 1245POPC   C4A20466  28.148  12.657   7.749
 1245POPC   C1B20467  28.441  13.424   8.883
 1245POPC   C2B20468  28.551  13.433   8.452
 1245POPC   C3B20469  28.717  13.121   8.171
 1245POPC   C4B20470  28.544  13.025   7.766
 1246POPC   NC320471  41.080  35.409   9.397
 1246POPC   PO420472  40.385  35.331   9.390
 1246POPC   GL120473  40.667  35.319   9.036
 1246POPC   GL220474  40.703  34.961   9.010
 1246POPC   C1A20475  41.063  35.337   8.757
 1246POPC   D2A20476  41.208  35.382   8.329
 1246POPC   C3A20477  40.957  35.176   8.007
 1246POPC   C4A20478  40.971  35.374   7.618
 1246POPC   C1B20479  40.403  35.066   8.664
 1246POPC   C2B20480  40.483  35.173   8.226
 1246POPC   C3B20481  40.507  35.302   7.797
 1246POPC   C4B20482  40.587  35.254   7.317
 1247POPC   NC320483  11.787  35.758   9.445
 1247POPC   PO420484  12.224  35.243   9.476
 1247POPC   GL120485  12.333  35.216   9.080
 1247POPC   GL220486  12.205  35.562   9.065
 1247POPC   C1A20487  12.328  35.309   8.636
 1247POPC   D2A20488  12.249  35.634   8.359
 1247POPC   C3A20489  12.151  35.383   8.050
 1247POPC   C4A20490  11.961  35.067   7.813
 1247POPC   C1B20491  11.853  35.571   8.782
 1247POPC   C2B20492  11.713  35.767   8.402
 1247POPC   C3B20493  11.652  35.566   8.002
 1247POPC   C4B20494  11.910  35.549   7.656
 1248POPC   NC320495  27.708  10.128   9.763
 1248POPC   PO420496  27.918  10.761   9.572
 1248POPC   GL120497  27.777  10.683   9.158
 1248POPC   GL220498  27.465  10.565   9.110
 1248POPC   C1A20499  27.671  10.862   8.729
 1248POPC   D2A20500  27.565  10.631   8.332
 1248POPC   C3A20501  27.650  10.741   7.921
 1248POPC   C4A20502  27.952  10.512   7.753
 1248POPC   C1B20503  27.744  10.367   8.757
 1248POPC   C2B20504  27.580  10.102   8.436
 1248POPC   C3B20505  27.589  10.214   8.014
 1248POPC   C4B20506  27.467  10.301   7.631
 1249POPC   NC320507   8.528   7.472   9.377
 1249POPC   PO420508   7.919   7.726   9.542
 1249POPC   GL120509   8.069   7.481   9.191
 1249POPC   GL220510   8.069   7.802   9.055
 1249POPC   C1A20511   8.252   7.410   8.752
 1249POPC   D2A20512   8.045   7.337   8.352
 1249POPC   C3A20513   8.272   7.166   7.989
 1249POPC   C4A20514   8.646   7.342   7.826
 1249POPC   C1B20515   7.829   7.858   8.685
 1249POPC   C2B20516   7.854   7.812   8.239
 1249POPC   C3B20517   8.060   7.610   7.889
 1249POPC   C4B20518   8.070   7.781   7.485
 1250POPC   NC320519  43.671  13.005   9.469
 1250POPC   PO420520  44.017  12.515   9.501
 1250POPC   GL120521  43.979  12.760   9.111
 1250POPC   GL220522  44.016  13.118   9.111
 1250POPC   C1A20523  43.734  12.886   8.733
 1250POPC   D2A20524  43.557  12.785   8.309
 1250POPC   C3A20525  43.832  12.754   7.936
 1250POPC   C4A20526  44.027  12.487   7.658
 1250POPC   C1B20527  44.130  13.267   8.722
 1250POPC   C2B20528  43.828  13.249   8.385
 1250POPC   C3B20529  43.597  13.218   8.014
 1250POPC   C4B20530  43.806  13.185   7.627
 1251POPC   NC320531   4.167   7.279   9.527
 1251POPC   PO420532   3.784   7.832   9.247
 1251POPC   GL120533   4.248   7.777   9.167
 1251POPC   GL220534   4.297   7.443   9.088
 1251POPC   C1A20535   4.565   7.707   8.786
 1251POPC   D2A20536   4.672   7.404   8.445
 1251POPC   C3A20537   4.483   7.447   8.015
 1251POPC   C4A20538   4.241   7.352   7.669
 1251POPC   C1B20539   4.348   7.152   8.782
 1251POPC   C2B20540   4.220   7.168   8.386
 1251POPC   C3B20541   3.964   7.259   8.083
 1251POPC   C4B20542   3.840   7.001   7.702
 1252POPC   NC320543  21.917  35.413   9.463
 1252POPC   PO420544  22.409  35.932   9.542
 1252POPC   GL120545  22.232  35.719   9.156
 1252POPC   GL220546  22.327  35.368   9.126
 1252POPC   C1A20547  22.056  35.539   8.732
 1252POPC   D2A20548  22.258  35.460   8.321
 1252POPC   C3A20549  22.092  35.362   7.913
 1252POPC   C4A20550  22.018  35.597   7.524
 1252POPC   C1B20551  22.335  35.099   8.722
 1252POPC   C2B20552  22.393  34.964   8.279
 1252POPC   C3B20553  22.513  35.063   7.844
 1252POPC   C4B20554  22.680  34.950   7.420
 1253POPC   NC320555  20.482  24.778   9.503
 1253POPC   PO420556  21.141  24.804   9.209
 1253POPC   GL120557  20.753  24.593   9.006
 1253POPC   GL220558  20.450  24.426   9.091
 1253POPC   C1A20559  20.719  24.219   8.692
 1253POPC   D2A20560  20.921  24.198   8.269
 1253POPC   C3A20561  20.826  24.362   7.852
 1253POPC   C4A20562  20.740  24.758   7.638
 1253POPC   C1B20563  20.334  24.546   8.644
 1253POPC   C2B20564  20.440  24.529   8.172
 1253POPC   C3B20565  20.326  24.390   7.723
 1253POPC   C4B20566  20.205  24.438   7.261
 1254POPC   NC320567  19.626  16.944   9.388
 1254POPC   PO420568  20.307  16.852   9.383
 1254POPC   GL120569  19.975  16.660   9.140
 1254POPC   GL220570  19.619  16.524   9.127
 1254POPC   C1A20571  19.755  16.859   8.760
 1254POPC   D2A20572  19.866  16.731   8.365
 1254POPC   C3A20573  19.893  17.079   8.087
 1254POPC   C4A20574  19.737  17.143   7.697
 1254POPC   C1B20575  19.457  16.459   8.695
 1254POPC   C2B20576  19.393  16.503   8.247
 1254POPC   C3B20577  19.593  16.686   7.927
 1254POPC   C4B20578  20.048  16.541   7.905
 1255POPC   NC320579  43.332  32.972   9.470
 1255POPC   PO420580  42.887  33.428   9.367
 1255POPC   GL120581  43.083  33.158   9.036
 1255POPC   GL220582  43.084  32.779   9.068
 1255POPC   C1A20583  43.039  33.017   8.597
 1255POPC   D2A20584  43.267  33.075   8.207
 1255POPC   C3A20585  43.245  33.075   7.755
 1255POPC   C4A20586  42.963  32.932   7.413
 1255POPC   C1B20587  43.401  32.692   8.744
 1255POPC   C2B20588  43.337  32.573   8.305
 1255POPC   C3B20589  43.548  32.656   7.913
 1255POPC   C4B20590  43.394  32.664   7.469
 1256POPC   NC320591  41.477  33.130   9.518
 1256POPC   PO420592  41.378  32.576   9.521
 1256POPC   GL120593  41.657  32.749   9.185
 1256POPC   GL220594  41.718  33.133   9.073
 1256POPC   C1A20595  41.603  32.768   8.757
 1256POPC   D2A20596  41.525  33.017   8.426
 1256POPC   C3A20597  41.739  32.906   8.082
 1256POPC   C4A20598  41.676  32.949   7.680
 1256POPC   C1B20599  41.358  33.335   8.805
 1256POPC   C2B20600  41.151  33.350   8.361
 1256POPC   C3B20601  41.400  33.297   7.971
 1256POPC   C4B20602  41.843  33.396   7.881
 1257POPC   NC320603  26.530  12.166   9.435
 1257POPC   PO420604  27.148  11.962   9.503
 1257POPC   GL120605  26.977  11.977   9.141
 1257POPC   GL220606  26.867  12.294   9.055
 1257POPC   C1A20607  26.790  11.787   8.805
 1257POPC   D2A20608  26.700  11.928   8.378
 1257POPC   C3A20609  26.860  11.682   8.034
 1257POPC   C4A20610  26.634  11.707   7.654
 1257POPC   C1B20611  27.060  12.182   8.646
 1257POPC   C2B20612  27.146  12.139   8.211
 1257POPC   C3B20613  26.887  12.155   7.856
 1257POPC   C4B20614  26.874  12.254   7.448
 1258POPC   NC320615  24.817  13.610   9.544
 1258POPC   PO420616  24.203  13.613   9.481
 1258POPC   GL120617  24.336  13.751   9.093
 1258POPC   GL220618  24.620  13.574   9.071
 1258POPC   C1A20619  24.433  13.814   8.635
 1258POPC   D2A20620  24.226  13.831   8.233
 1258POPC   C3A20621  24.558  13.782   7.929
 1258POPC   C4A20622  24.967  14.032   7.814
 1258POPC   C1B20623  24.321  13.325   8.793
 1258POPC   C2B20624  24.235  13.098   8.445
 1258POPC   C3B20625  24.248  13.333   8.085
 1258POPC   C4B20626  24.387  13.315   7.643
 1259POPC   NC320627  17.544   5.760   9.646
 1259POPC   PO420628  17.276   6.417   9.546
 1259POPC   GL120629  17.464   6.085   9.216
 1259POPC   GL220630  17.635   5.704   9.160
 1259POPC   C1A20631  17.550   6.031   8.767
 1259POPC   D2A20632  17.751   5.871   8.387
 1259POPC   C3A20633  17.597   5.995   8.024
 1259POPC   C4A20634  17.316   6.194   7.752
 1259POPC   C1B20635  17.422   5.531   8.805
 1259POPC   C2B20636  17.288   5.693   8.410
 1259POPC   C3B20637  17.303   5.579   7.973
 1259POPC   C4B20638  17.112   5.443   7.592
 1260POPC   NC320639  22.892  30.288   9.598
 1260POPC   PO420640  23.021  29.594   9.704
 1260POPC   GL120641  22.718  29.834   9.301
 1260POPC   GL220642  22.718  30.160   9.130
 1260POPC   C1A20643  22.740  29.748   8.804
 1260POPC   D2A20644  22.538  29.521   8.420
 1260POPC   C3A20645  22.729  29.613   8.026
 1260POPC   C4A20646  22.824  29.999   7.799
 1260POPC   C1B20647  22.980  30.220   8.751
 1260POPC   C2B20648  23.038  30.065   8.314
 1260POPC   C3B20649  23.256  30.224   7.946
 1260POPC   C4B20650  23.329  30.181   7.458
 1261POPC   NC320651  11.759   5.200   9.261
 1261POPC   PO420652  12.323   5.432   9.593
 1261POPC   GL120653  12.299   5.243   9.157
 1261POPC   GL220654  12.224   4.868   9.179
 1261POPC   C1A20655  12.211   5.317   8.690
 1261POPC   D2A20656  11.942   5.478   8.335
 1261POPC   C3A20657  11.927   5.260   7.943
 1261POPC   C4A20658  11.607   5.002   7.743
 1261POPC   C1B20659  12.354   4.827   8.745
 1261POPC   C2B20660  12.111   4.917   8.332
 1261POPC   C3B20661  12.018   4.763   7.884
 1261POPC   C4B20662  11.964   4.702   7.409
 1262POPC   NC320663  38.580  40.813   9.749
 1262POPC   PO420664  38.607  41.496   9.583
 1262POPC   GL120665  38.507  41.541   9.121
 1262POPC   GL220666  38.731  41.270   9.068
 1262POPC   C1A20667  38.262  41.738   8.735
 1262POPC   D2A20668  37.971  41.738   8.374
 1262POPC   C3A20669  38.207  41.791   8.001
 1262POPC   C4A20670  38.349  41.441   7.837
 1262POPC   C1B20671  38.545  41.281   8.675
 1262POPC   C2B20672  38.528  41.551   8.339
 1262POPC   C3B20673  38.804  41.458   8.049
 1262POPC   C4B20674  38.809  41.363   7.624
 1263POPC   NC320675   0.526  39.938   9.555
 1263POPC   PO420676  44.999  40.182   9.213
 1263POPC   GL120677   0.457  40.190   9.104
 1263POPC   GL220678   0.575  39.822   9.060
 1263POPC   C1A20679   0.663  40.174   8.696
 1263POPC   D2A20680   0.507  39.822   8.434
 1263POPC   C3A20681   0.307  39.911   8.051
 1263POPC   C4A20682   0.163  40.069   7.681
 1263POPC   C1B20683   0.891  39.704   8.760
 1263POPC   C2B20684   1.020  39.948   8.391
 1263POPC   C3B20685   0.815  40.064   8.028
 1263POPC   C4B20686   0.638  39.844   7.639
 1264POPC   NC320687   4.510  15.564   9.525
 1264POPC   PO420688   4.454  14.856   9.547
 1264POPC   GL120689   4.200  15.003   9.205
 1264POPC   GL220690   4.231  15.336   9.111
 1264POPC   C1A20691   4.232  14.878   8.781
 1264POPC   D2A20692   4.216  15.085   8.394
 1264POPC   C3A20693   4.142  14.841   8.024
 1264POPC   C4A20694   4.341  14.927   7.632
 1264POPC   C1B20695   4.268  15.535   8.694
 1264POPC   C2B20696   4.335  15.594   8.247
 1264POPC   C3B20697   4.374  15.434   7.803
 1264POPC   C4B20698   4.319  15.362   7.329
 1265POPC   NC320699  35.699   3.635   9.450
 1265POPC   PO420700  35.124   3.267   9.427
 1265POPC   GL120701  35.299   3.462   9.089
 1265POPC   GL220702  35.361   3.807   9.045
 1265POPC   C1A20703  35.248   3.336   8.678
 1265POPC   D2A20704  35.414   3.355   8.288
 1265POPC   C3A20705  35.569   3.713   8.079
 1265POPC   C4A20706  35.432   3.970   7.734
 1265POPC   C1B20707  34.969   3.771   8.809
 1265POPC   C2B20708  34.885   3.687   8.393
 1265POPC   C3B20709  35.058   3.580   7.999
 1265POPC   C4B20710  35.225   3.514   7.608
 1266POPC   NC320711   7.537  22.558   9.436
 1266POPC   PO420712   7.066  22.168   9.465
 1266POPC   GL120713   7.391  22.167   9.130
 1266POPC   GL220714   7.457  21.831   9.063
 1266POPC   C1A20715   7.540  22.232   8.704
 1266POPC   D2A20716   7.664  22.117   8.261
 1266POPC   C3A20717   7.413  22.298   7.880
 1266POPC   C4A20718   7.219  22.553   7.519
 1266POPC   C1B20719   7.754  21.774   8.752
 1266POPC   C2B20720   7.836  21.656   8.375
 1266POPC   C3B20721   7.627  21.586   7.986
 1266POPC   C4B20722   7.335  21.803   7.720
 1267POPC   NC320723  25.419  13.318   9.417
 1267POPC   PO420724  25.151  13.923   9.547
 1267POPC   GL120725  25.145  13.697   9.156
 1267POPC   GL220726  25.488  13.708   9.106
 1267POPC   C1A20727  24.993  13.729   8.741
 1267POPC   D2A20728  24.908  13.881   8.333
 1267POPC   C3A20729  25.098  13.593   8.028
 1267POPC   C4A20730  24.868  13.546   7.621
 1267POPC   C1B20731  25.464  13.407   8.764
 1267POPC   C2B20732  25.662  13.320   8.352
 1267POPC   C3B20733  25.592  13.439   7.913
 1267POPC   C4B20734  25.818  13.783   7.684
 1268POPC   NC320735  16.459  44.718   9.643
 1268POPC   PO420736  16.975  44.264   9.718
 1268POPC   GL120737  16.729  44.405   9.318
 1268POPC   GL220738  16.940  44.667   9.129
 1268POPC   C1A20739  16.497  44.586   8.916
 1268POPC   D2A20740  16.636  44.618   8.483
 1268POPC   C3A20741  16.535  44.714   8.034
 1268POPC   C4A20742  16.354  44.411   7.782
 1268POPC   C1B20743  17.144  44.761   8.724
 1268POPC   C2B20744  17.068  44.776   8.264
 1268POPC   C3B20745  17.041  44.625   7.821
 1268POPC   C4B20746  17.128  44.613   7.364
 1269POPC   NC320747  15.614  15.092   9.574
 1269POPC   PO420748  16.157  14.736   9.522
 1269POPC   GL120749  16.213  15.093   9.217
 1269POPC   GL220750  15.884  15.281   9.161
 1269POPC   C1A20751  16.234  15.275   8.781
 1269POPC   D2A20752  16.048  15.055   8.415
 1269POPC   C3A20753  15.914  15.197   8.002
 1269POPC   C4A20754  15.862  15.192   7.550
 1269POPC   C1B20755  15.709  15.435   8.745
 1269POPC   C2B20756  15.571  15.509   8.291
 1269POPC   C3B20757  15.498  15.453   7.827
 1269POPC   C4B20758  15.491  15.516   7.361
 1270POPC   NC320759  24.555  30.377   9.434
 1270POPC   PO420760  24.329  31.051   9.472
 1270POPC   GL120761  24.488  30.824   9.128
 1270POPC   GL220762  24.300  30.581   9.027
 1270POPC   C1A20763  24.601  30.867   8.705
 1270POPC   D2A20764  24.318  30.593   8.442
 1270POPC   C3A20765  24.351  30.698   8.012
 1270POPC   C4A20766  24.586  30.942   7.733
 1270POPC   C1B20767  24.664  30.395   8.814
 1270POPC   C2B20768  24.819  30.400   8.426
 1270POPC   C3B20769  24.588  30.242   8.076
 1270POPC   C4B20770  24.599  30.378   7.675
 1271POPC   NC320771   9.476   6.363   9.405
 1271POPC   PO420772  10.090   6.503   9.534
 1271POPC   GL120773   9.943   6.509   9.132
 1271POPC   GL220774   9.729   6.741   9.131
 1271POPC   C1A20775   9.753   6.565   8.665
 1271POPC   D2A20776   9.531   6.547   8.271
 1271POPC   C3A20777   9.798   6.612   7.916
 1271POPC   C4A20778   9.647   6.540   7.455
 1271POPC   C1B20779  10.049   6.924   8.857
 1271POPC   C2B20780  10.059   6.985   8.397
 1271POPC   C3B20781   9.691   7.080   8.130
 1271POPC   C4B20782   9.633   7.147   7.707
 1272POPC   NC320783   1.512  16.300   9.541
 1272POPC   PO420784   1.062  15.844   9.642
 1272POPC   GL120785   1.036  15.872   9.172
 1272POPC   GL220786   1.351  16.072   9.114
 1272POPC   C1A20787   1.222  15.713   8.770
 1272POPC   D2A20788   1.443  15.834   8.415
 1272POPC   C3A20789   1.217  15.722   8.046
 1272POPC   C4A20790   1.432  15.783   7.683
 1272POPC   C1B20791   1.112  16.240   8.776
 1272POPC   C2B20792   0.988  16.080   8.368
 1272POPC   C3B20793   1.128  16.204   7.933
 1272POPC   C4B20794   0.986  16.558   7.720
 1273POPC   NC320795  22.091  41.248   9.431
 1273POPC   PO420796  21.655  40.731   9.482
 1273POPC   GL120797  21.972  40.790   9.149
 1273POPC   GL220798  22.322  40.676   9.207
 1273POPC   C1A20799  22.048  40.643   8.719
 1273POPC   D2A20800  22.205  40.522   8.327
 1273POPC   C3A20801  22.181  40.791   7.970
 1273POPC   C4A20802  22.433  40.813   7.570
 1273POPC   C1B20803  22.435  40.949   8.850
 1273POPC   C2B20804  22.349  41.053   8.419
 1273POPC   C3B20805  22.448  41.223   8.017
 1273POPC   C4B20806  22.783  41.123   7.768
 1274POPC   NC320807   2.424  37.452   9.528
 1274POPC   PO420808   2.006  38.047   9.314
 1274POPC   GL120809   2.134  37.704   9.177
 1274POPC   GL220810   1.887  37.478   9.194
 1274POPC   C1A20811   2.267  37.678   8.778
 1274POPC   D2A20812   2.270  38.040   8.503
 1274POPC   C3A20813   1.973  37.871   8.224
 1274POPC   C4A20814   1.900  37.861   7.799
 1274POPC   C1B20815   1.717  37.619   8.795
 1274POPC   C2B20816   1.515  37.423   8.422
 1274POPC   C3B20817   1.521  37.570   8.023
 1274POPC   C4B20818   1.546  37.472   7.613
 1275POPC   NC320819   4.920  33.584   9.490
 1275POPC   PO420820   5.574  33.886   9.464
 1275POPC   GL120821   5.307  33.682   9.148
 1275POPC   GL220822   5.012  33.900   9.066
 1275POPC   C1A20823   5.330  33.675   8.700
 1275POPC   D2A20824   5.326  34.003   8.383
 1275POPC   C3A20825   5.291  33.892   7.951
 1275POPC   C4A20826   5.269  33.526   7.699
 1275POPC   C1B20827   4.806  33.828   8.643
 1275POPC   C2B20828   4.817  34.005   8.208
 1275POPC   C3B20829   4.850  34.120   7.760
 1275POPC   C4B20830   4.782  34.211   7.276
 1276POPC   NC320831  35.427   5.178   9.631
 1276POPC   PO420832  35.410   5.888   9.648
 1276POPC   GL120833  35.370   5.780   9.236
 1276POPC   GL220834  35.634   5.565   9.141
 1276POPC   C1A20835  35.199   5.650   8.823
 1276POPC   D2A20836  35.360   5.645   8.421
 1276POPC   C3A20837  35.129   5.756   8.048
 1276POPC   C4A20838  35.256   5.604   7.628
 1276POPC   C1B20839  35.648   5.901   8.822
 1276POPC   C2B20840  35.536   6.121   8.451
 1276POPC   C3B20841  35.570   6.017   8.046
 1276POPC   C4B20842  35.316   6.091   7.711
 1277POPC   NC320843   6.261  16.571   9.568
 1277POPC   PO420844   6.835  16.828   9.558
 1277POPC   GL120845   6.851  16.790   9.114
 1277POPC   GL220846   6.517  16.627   9.107
 1277POPC   C1A20847   6.783  16.713   8.669
 1277POPC   D2A20848   6.678  16.463   8.324
 1277POPC   C3A20849   6.855  16.567   7.904
 1277POPC   C4A20850   6.980  16.482   7.468
 1277POPC   C1B20851   6.260  16.621   8.724
 1277POPC   C2B20852   6.293  16.775   8.339
 1277POPC   C3B20853   6.341  16.564   7.952
 1277POPC   C4B20854   6.181  16.592   7.550
 1278POPC   NC320855  27.051  13.948   9.457
 1278POPC   PO420856  26.599  13.419   9.437
 1278POPC   GL120857  26.682  13.746   9.146
 1278POPC   GL220858  26.478  13.550   8.939
 1278POPC   C1A20859  26.836  13.965   8.783
 1278POPC   D2A20860  26.697  13.819   8.415
 1278POPC   C3A20861  26.938  13.834   8.079
 1278POPC   C4A20862  26.814  14.116   7.785
 1278POPC   C1B20863  26.828  13.434   8.707
 1278POPC   C2B20864  26.706  13.334   8.285
 1278POPC   C3B20865  26.597  13.472   7.884
 1278POPC   C4B20866  26.894  13.538   7.633
 1279POPC   NC320867  14.341   8.570   9.468
 1279POPC   PO420868  14.550   9.273   9.480
 1279POPC   GL120869  14.713   9.174   9.090
 1279POPC   GL220870  14.544   8.866   9.112
 1279POPC   C1A20871  14.591   9.204   8.651
 1279POPC   D2A20872  14.161   9.217   8.438
 1279POPC   C3A20873  14.112   9.303   7.991
 1279POPC   C4A20874  14.251   9.065   7.621
 1279POPC   C1B20875  14.618   8.651   8.750
 1279POPC   C2B20876  14.727   8.804   8.350
 1279POPC   C3B20877  14.607   9.070   8.026
 1279POPC   C4B20878  14.716   8.855   7.668
 1280POPC   NC320879  20.294  22.122   9.455
 1280POPC   PO420880  20.690  22.640   9.536
 1280POPC   GL120881  20.716  22.449   9.151
 1280POPC   GL220882  20.973  22.218   9.204
 1280POPC   C1A20883  20.463  22.283   8.810
 1280POPC   D2A20884  20.231  22.429   8.441
 1280POPC   C3A20885  20.368  22.209   8.079
 1280POPC   C4A20886  20.486  21.966   7.712
 1280POPC   C1B20887  20.933  22.048   8.796
 1280POPC   C2B20888  20.722  22.068   8.402
 1280POPC   C3B20889  20.902  22.018   7.997
 1280POPC   C4B20890  20.980  21.803   7.626
 1281POPC   NC320891   5.551  36.770   9.443
 1281POPC   PO420892   6.092  37.200   9.430
 1281POPC   GL120893   5.781  37.073   9.097
 1281POPC   GL220894   5.926  36.755   9.031
 1281POPC   C1A20895   5.708  36.941   8.640
 1281POPC   D2A20896   5.824  37.154   8.258
 1281POPC   C3A20897   5.679  36.865   7.957
 1281POPC   C4A20898   5.687  36.455   7.781
 1281POPC   C1B20899   6.179  37.074   8.770
 1281POPC   C2B20900   6.343  37.215   8.382
 1281POPC   C3B20901   6.323  37.088   7.973
 1281POPC   C4B20902   5.991  37.228   7.767
 1282POPC   NC320903   7.967  21.060   9.475
 1282POPC   PO420904   8.517  21.536   9.436
 1282POPC   GL120905   8.396  21.432   9.057
 1282POPC   GL220906   8.278  21.122   9.077
 1282POPC   C1A20907   8.244  21.627   8.704
 1282POPC   D2A20908   8.362  21.542   8.313
 1282POPC   C3A20909   8.143  21.638   7.983
 1282POPC   C4A20910   8.021  21.374   7.695
 1282POPC   C1B20911   8.368  21.142   8.637
 1282POPC   C2B20912   8.469  21.030   8.243
 1282POPC   C3B20913   8.257  20.969   7.897
 1282POPC   C4B20914   8.337  21.060   7.477
 1283POPC   NC320915  34.751  42.183   9.473
 1283POPC   PO420916  34.105  42.405   9.611
 1283POPC   GL120917  34.389  42.447   9.194
 1283POPC   GL220918  34.190  42.432   8.898
 1283POPC   C1A20919  34.743  42.306   8.846
 1283POPC   D2A20920  34.856  42.103   8.449
 1283POPC   C3A20921  34.786  42.244   8.049
 1283POPC   C4A20922  34.581  42.035   7.717
 1283POPC   C1B20923  34.336  42.069   8.664
 1283POPC   C2B20924  34.341  42.029   8.225
 1283POPC   C3B20925  34.181  42.275   7.891
 1283POPC   C4B20926  34.192  42.314   7.396
 1284POPC   NC320927  15.101  44.462   9.580
 1284POPC   PO420928  15.478  44.907   9.523
 1284POPC   GL120929  15.213  44.728   9.159
 1284POPC   GL220930  14.855  44.764   9.223
 1284POPC   C1A20931  15.306  44.866   8.716
 1284POPC   D2A20932  15.597  44.757   8.360
 1284POPC   C3A20933  15.404  44.625   7.961
 1284POPC   C4A20934  15.204  44.771   7.552
 1284POPC   C1B20935  14.828  44.575   8.791
 1284POPC   C2B20936  15.055  44.561   8.371
 1284POPC   C3B20937  14.896  44.689   7.959
 1284POPC   C4B20938  14.773  44.499   7.567
 1285POPC   NC320939  23.991  31.475   9.417
 1285POPC   PO420940  23.483  30.960   9.524
 1285POPC   GL120941  23.550  31.275   9.196
 1285POPC   GL220942  23.405  31.620   9.215
 1285POPC   C1A20943  23.748  31.480   8.812
 1285POPC   D2A20944  23.971  31.567   8.428
 1285POPC   C3A20945  23.766  31.498   8.061
 1285POPC   C4A20946  23.787  31.392   7.620
 1285POPC   C1B20947  23.295  31.713   8.758
 1285POPC   C2B20948  23.417  31.808   8.292
 1285POPC   C3B20949  23.318  31.677   7.863
 1285POPC   C4B20950  23.394  31.678   7.406
 1286POPC   NC320951  20.241  42.498   9.658
 1286POPC   PO420952  20.867  42.143   9.669
 1286POPC   GL120953  20.681  42.319   9.264
 1286POPC   GL220954  20.966  42.452   9.112
 1286POPC   C1A20955  20.600  42.412   8.768
 1286POPC   D2A20956  20.483  42.165   8.368
 1286POPC   C3A20957  20.253  42.307   7.970
 1286POPC   C4A20958  20.377  42.295   7.531
 1286POPC   C1B20959  21.028  42.701   8.716
 1286POPC   C2B20960  20.924  42.495   8.334
 1286POPC   C3B20961  20.754  42.354   7.947
 1286POPC   C4B20962  20.870  42.462   7.556
 1287POPC   NC320963  20.311  40.952   9.444
 1287POPC   PO420964  20.945  40.626   9.538
 1287POPC   GL120965  20.766  40.874   9.211
 1287POPC   GL220966  20.532  40.632   9.112
 1287POPC   C1A20967  20.665  41.013   8.787
 1287POPC   D2A20968  20.614  40.789   8.406
 1287POPC   C3A20969  20.736  40.959   7.976
 1287POPC   C4A20970  20.748  40.906   7.518
 1287POPC   C1B20971  20.291  40.607   8.770
 1287POPC   C2B20972  20.125  40.616   8.376
 1287POPC   C3B20973  20.184  40.475   7.965
 1287POPC   C4B20974  20.277  40.678   7.589
 1288POPC   NC320975  29.345  35.600   9.658
 1288POPC   PO420976  28.825  35.787   9.569
 1288POPC   GL120977  29.067  35.629   9.173
 1288POPC   GL220978  29.299  35.346   9.172
 1288POPC   C1A20979  29.084  35.494   8.706
 1288POPC   D2A20980  29.106  35.211   8.314
 1288POPC   C3A20981  29.064  35.392   7.899
 1288POPC   C4A20982  28.787  35.404   7.491
 1288POPC   C1B20983  29.381  35.078   8.767
 1288POPC   C2B20984  29.605  35.122   8.351
 1288POPC   C3B20985  29.461  35.017   7.932
 1288POPC   C4B20986  29.546  34.755   7.552
 1289POPC   NC320987  27.201  12.442   9.468
 1289POPC   PO420988  26.650  12.620   9.412
 1289POPC   GL120989  26.829  12.804   9.096
 1289POPC   GL220990  26.720  13.099   9.058
 1289POPC   C1A20991  27.009  12.670   8.722
 1289POPC   D2A20992  27.311  12.604   8.389
 1289POPC   C3A20993  27.117  12.597   7.992
 1289POPC   C4A20994  27.085  12.723   7.602
 1289POPC   C1B20995  26.599  12.968   8.644
 1289POPC   C2B20996  26.731  12.798   8.265
 1289POPC   C3B20997  26.849  13.032   7.909
 1289POPC   C4B20998  26.672  13.099   7.516
 1290POPC   NC320999  44.298  30.729   9.805
 1290POPC   PO421000  44.829  30.710   9.445
 1290POPC   GL121001  44.708  30.903   9.102
 1290POPC   GL221002  44.388  30.932   9.239
 1290POPC   C1A21003  44.586  30.695   8.745
 1290POPC   D2A21004  44.425  30.523   8.340
 1290POPC   C3A21005  44.667  30.661   7.960
 1290POPC   C4A21006  44.569  30.598   7.526
 1290POPC   C1B21007  44.276  31.090   8.818
 1290POPC   C2B21008  44.466  31.027   8.388
 1290POPC   C3B21009  44.243  30.928   8.027
 1290POPC   C4B21010  44.334  31.056   7.621
 1291POPC   NC321011  44.241  10.355   9.492
 1291POPC   PO421012  44.831  10.704   9.691
 1291POPC   GL121013  44.810  10.673   9.246
 1291POPC   GL221014  44.457  10.607   9.075
 1291POPC   C1A21015  44.902  10.726   8.826
 1291POPC   D2A21016  44.641  10.880   8.473
 1291POPC   C3A21017  44.878  10.749   8.093
 1291POPC   C4A21018  44.754  10.592   7.668
 1291POPC   C1B21019  44.122  10.772   8.758
 1291POPC   C2B21020  44.081  10.828   8.337
 1291POPC   C3B21021  44.371  10.729   8.045
 1291POPC   C4B21022  44.304  10.395   7.781
 1292POPC   NC321023  19.502  20.834   9.946
 1292POPC   PO421024  20.021  20.783   9.491
 1292POPC   GL121025  19.941  20.617   9.109
 1292POPC   GL221026  19.631  20.837   9.082
 1292POPC   C1A21027  19.982  20.731   8.675
 1292POPC   D2A21028  20.201  20.916   8.301
 1292POPC   C3A21029  20.089  20.758   7.892
 1292POPC   C4A21030  19.761  20.477   7.777
 1292POPC   C1B21031  19.478  20.819   8.646
 1292POPC   C2B21032  19.684  20.846   8.232
 1292POPC   C3B21033  19.605  20.956   7.794
 1292POPC   C4B21034  19.552  20.937   7.348
 1293POPC   NC321035  44.964  41.156   9.916
 1293POPC   PO421036   0.458  41.622   9.681
 1293POPC   GL121037   0.472  41.494   9.254
 1293POPC   GL221038   0.810  41.614   9.229
 1293POPC   C1A21039   0.515  41.652   8.814
 1293POPC   D2A21040   0.569  41.690   8.356
 1293POPC   C3A21041   0.232  41.584   8.018
 1293POPC   C4A21042   0.188  41.387   7.602
 1293POPC   C1B21043   0.801  41.242   8.946
 1293POPC   C2B21044   0.771  41.186   8.491
 1293POPC   C3B21045   0.638  41.257   8.054
 1293POPC   C4B21046   0.889  41.154   7.674
 1294POPC   NC321047  38.127   4.750   9.462
 1294POPC   PO421048  38.629   5.283   9.475
 1294POPC   GL121049  38.516   4.934   9.205
 1294POPC   GL221050  38.776   4.949   8.974
 1294POPC   C1A21051  38.305   4.791   8.799
 1294POPC   D2A21052  38.512   4.997   8.430
 1294POPC   C3A21053  38.457   4.990   7.989
 1294POPC   C4A21054  38.662   4.913   7.627
 1294POPC   C1B21055  38.428   5.278   8.861
 1294POPC   C2B21056  38.290   5.457   8.530
 1294POPC   C3B21057  38.248   5.442   8.090
 1294POPC   C4B21058  37.895   5.467   7.821
 1295POPC   NC321059  44.108  39.600   9.473
 1295POPC   PO421060  43.871  38.990   9.516
 1295POPC   GL121061  43.876  39.177   9.115
 1295POPC   GL221062  43.615  39.041   8.937
 1295POPC   C1A21063  43.977  39.325   8.677
 1295POPC   D2A21064  44.325  39.466   8.397
 1295POPC   C3A21065  44.159  39.567   7.992
 1295POPC   C4A21066  43.951  39.480   7.568
 1295POPC   C1B21067  43.622  38.877   8.543
 1295POPC   C2B21068  43.866  39.109   8.238
 1295POPC   C3B21069  44.105  39.077   7.896
 1295POPC   C4B21070  43.969  38.733   7.778
 1296POPC   NC321071  23.394  26.053   9.720
 1296POPC   PO421072  22.820  26.182   9.431
 1296POPC   GL121073  22.745  26.123   9.049
 1296POPC   GL221074  22.732  25.778   9.096
 1296POPC   C1A21075  22.902  26.303   8.672
 1296POPC   D2A21076  22.847  26.125   8.318
 1296POPC   C3A21077  23.201  26.021   8.076
 1296POPC   C4A21078  23.249  26.392   7.807
 1296POPC   C1B21079  22.931  25.773   8.707
 1296POPC   C2B21080  22.727  25.624   8.344
 1296POPC   C3B21081  22.681  25.822   7.963
 1296POPC   C4B21082  22.944  26.013   7.625
 1297POPC   NC321083  19.911  18.769   9.453
 1297POPC   PO421084  19.596  18.067   9.576
 1297POPC   GL121085  19.793  18.092   9.220
 1297POPC   GL221086  19.636  18.402   9.178
 1297POPC   C1A21087  19.834  18.108   8.786
 1297POPC   D2A21088  20.044  18.085   8.400
 1297POPC   C3A21089  19.881  18.249   8.021
 1297POPC   C4A21090  20.107  18.533   7.736
 1297POPC   C1B21091  19.400  18.510   8.820
 1297POPC   C2B21092  19.328  18.459   8.410
 1297POPC   C3B21093  19.453  18.728   8.093
 1297POPC   C4B21094  19.609  18.579   7.739
 1298POPC   NC321095  13.389  25.880   9.466
 1298POPC   PO421096  12.699  25.930   9.539
 1298POPC   GL121097  12.961  25.799   9.168
 1298POPC   GL221098  13.179  26.049   9.037
 1298POPC   C1A21099  12.781  25.782   8.768
 1298POPC   D2A21100  12.687  25.598   8.380
 1298POPC   C3A21101  12.672  25.906   8.057
 1298POPC   C4A21102  12.947  26.192   7.838
 1298POPC   C1B21103  13.289  25.761   8.704
 1298POPC   C2B21104  13.151  25.825   8.267
 1298POPC   C3B21105  13.343  25.887   7.870
 1298POPC   C4B21106  13.209  25.967   7.414
 1299POPC   NC321107   0.249  16.746   9.582
 1299POPC   PO421108   0.894  16.559   9.409
 1299POPC   GL121109   0.567  16.770   9.172
 1299POPC   GL221110   0.210  16.707   9.085
 1299POPC   C1A21111   0.550  16.879   8.747
 1299POPC   D2A21112   0.536  17.106   8.384
 1299POPC   C3A21113   0.580  16.828   8.034
 1299POPC   C4A21114   0.326  16.852   7.703
 1299POPC   C1B21115   0.196  16.431   8.745
 1299POPC   C2B21116   0.269  16.494   8.315
 1299POPC   C3B21117   0.152  16.410   7.897
 1299POPC   C4B21118   0.111  16.444   7.441
 1300POPC   NC321119  10.862   4.575   9.437
 1300POPC   PO421120  11.415   5.021   9.508
 1300POPC   GL121121  11.263   5.096   9.119
 1300POPC   GL221122  11.255   4.702   9.114
 1300POPC   C1A21123  11.363   5.317   8.705
 1300POPC   D2A21124  11.275   5.538   8.293
 1300POPC   C3A21125  11.238   5.304   7.901
 1300POPC   C4A21126  11.341   5.323   7.435
 1300POPC   C1B21127  11.053   4.833   8.751
 1300POPC   C2B21128  11.114   5.018   8.339
 1300POPC   C3B21129  10.911   4.916   7.964
 1300POPC   C4B21130  11.139   4.857   7.593
 1301POPC   NC321131  41.044   4.201   9.539
 1301POPC   PO421132  40.315   4.174   9.371
 1301POPC   GL121133  40.546   4.418   9.036
 1301POPC   GL221134  40.870   4.533   9.171
 1301POPC   C1A21135  40.745   4.356   8.623
 1301POPC   D2A21136  40.889   4.011   8.347
 1301POPC   C3A21137  40.802   4.060   7.893
 1301POPC   C4A21138  40.661   4.461   7.670
 1301POPC   C1B21139  41.154   4.536   8.822
 1301POPC   C2B21140  41.296   4.401   8.410
 1301POPC   C3B21141  41.153   4.408   7.971
 1301POPC   C4B21142  41.120   4.394   7.479
 1302POPC   NC321143  21.992  31.148   9.564
 1302POPC   PO421144  22.304  31.615   9.743
 1302POPC   GL121145  22.353  31.431   9.265
 1302POPC   GL221146  22.310  31.055   9.184
 1302POPC   C1A21147  22.126  31.404   8.819
 1302POPC   D2A21148  21.978  31.135   8.441
 1302POPC   C3A21149  21.958  31.361   8.036
 1302POPC   C4A21150  22.265  31.575   7.789
 1302POPC   C1B21151  22.431  30.999   8.742
 1302POPC   C2B21152  22.481  31.255   8.367
 1302POPC   C3B21153  22.428  31.120   7.973
 1302POPC   C4B21154  22.285  31.119   7.569
 1303POPC   NC321155  13.132  38.046   9.420
 1303POPC   PO421156  12.501  37.852   9.562
 1303POPC   GL121157  12.704  37.860   9.135
 1303POPC   GL221158  12.869  37.547   8.958
 1303POPC   C1A21159  12.514  37.811   8.756
 1303POPC   D2A21160  12.721  37.556   8.442
 1303POPC   C3A21161  12.629  37.726   8.069
 1303POPC   C4A21162  12.513  37.739   7.659
 1303POPC   C1B21163  13.010  37.894   8.680
 1303POPC   C2B21164  13.010  38.004   8.244
 1303POPC   C3B21165  13.112  37.732   7.875
 1303POPC   C4B21166  13.274  37.248   7.903
 1304POPC   NC321167   3.259  41.636   9.513
 1304POPC   PO421168   3.901  41.393   9.461
 1304POPC   GL121169   3.735  41.309   9.078
 1304POPC   GL221170   3.345  41.362   9.069
 1304POPC   C1A21171   4.017  41.386   8.718
 1304POPC   D2A21172   3.912  41.347   8.287
 1304POPC   C3A21173   3.977  41.618   7.939
 1304POPC   C4A21174   3.771  41.288   7.704
 1304POPC   C1B21175   3.543  41.574   8.686
 1304POPC   C2B21176   3.660  41.814   8.319
 1304POPC   C3B21177   3.515  41.841   7.876
 1304POPC   C4B21178   3.484  41.644   7.476
 1305POPC   NC321179  11.683  38.854   9.392
 1305POPC   PO421180  12.400  39.058   9.402
 1305POPC   GL121181  12.114  39.104   9.112
 1305POPC   GL221182  11.866  39.324   9.220
 1305POPC   C1A21183  12.174  39.162   8.692
 1305POPC   D2A21184  12.377  39.254   8.341
 1305POPC   C3A21185  12.304  39.019   7.978
 1305POPC   C4A21186  11.960  38.933   7.712
 1305POPC   C1B21187  11.685  39.176   8.821
 1305POPC   C2B21188  11.742  39.377   8.453
 1305POPC   C3B21189  11.770  39.236   8.057
 1305POPC   C4B21190  11.558  39.245   7.650
 1306POPC   NC321191  32.563  35.170   9.453
 1306POPC   PO421192  32.053  35.496   9.730
 1306POPC   GL121193  32.201  35.462   9.253
 1306POPC   GL221194  32.175  35.124   9.085
 1306POPC   C1A21195  32.219  35.495   8.752
 1306POPC   D2A21196  32.422  35.430   8.322
 1306POPC   C3A21197  32.181  35.407   7.901
 1306POPC   C4A21198  31.759  35.558   7.771
 1306POPC   C1B21199  32.225  34.937   8.646
 1306POPC   C2B21200  32.276  34.951   8.183
 1306POPC   C3B21201  32.252  34.900   7.756
 1306POPC   C4B21202  32.378  35.133   7.394
 1307POPC   NC321203  10.587  21.123   9.462
 1307POPC   PO421204  10.173  21.710   9.491
 1307POPC   GL121205  10.408  21.502   9.149
 1307POPC   GL221206  10.688  21.702   8.980
 1307POPC   C1A21207  10.270  21.587   8.730
 1307POPC   D2A21208  10.574  21.802   8.458
 1307POPC   C3A21209  10.503  21.827   8.014
 1307POPC   C4A21210  10.255  21.506   7.832
 1307POPC   C1B21211  10.727  21.329   8.748
 1307POPC   C2B21212  10.884  21.169   8.342
 1307POPC   C3B21213  10.756  21.346   7.950
 1307POPC   C4B21214  10.900  21.386   7.544
 1308POPC   NC321215  38.075  26.685   9.381
 1308POPC   PO421216  38.688  26.735   9.503
 1308POPC   GL121217  38.465  26.889   9.137
 1308POPC   GL221218  38.458  26.522   9.074
 1308POPC   C1A21219  38.207  26.903   8.746
 1308POPC   D2A21220  38.425  26.978   8.325
 1308POPC   C3A21221  38.185  26.915   7.973
 1308POPC   C4A21222  38.266  26.978   7.518
 1308POPC   C1B21223  38.611  26.611   8.658
 1308POPC   C2B21224  38.567  26.478   8.219
 1308POPC   C3B21225  38.457  26.544   7.774
 1308POPC   C4B21226  38.545  26.548   7.306
 1309POPC   NC321227  35.353  44.164   9.233
 1309POPC   PO421228  35.320  43.496   9.340
 1309POPC   GL121229  35.577  43.692   9.053
 1309POPC   GL221230  35.241  43.801   8.894
 1309POPC   C1A21231  35.698  43.802   8.625
 1309POPC   D2A21232  35.333  43.919   8.383
 1309POPC   C3A21233  35.328  43.853   7.947
 1309POPC   C4A21234  35.008  43.972   7.706
 1309POPC   C1B21235  35.356  43.424   8.672
 1309POPC   C2B21236  35.515  43.450   8.280
 1309POPC   C3B21237  35.101  43.458   8.156
 1309POPC   C4B21238  35.034  43.465   7.733
 1310POPC   NC321239  10.522   7.768   9.498
 1310POPC   PO421240  10.178   7.224   9.437
 1310POPC   GL121241  10.498   7.264   9.142
 1310POPC   GL221242  10.513   7.609   9.023
 1310POPC   C1A21243  10.438   7.205   8.714
 1310POPC   D2A21244  10.446   7.481   8.373
 1310POPC   C3A21245  10.475   7.238   8.011
 1310POPC   C4A21246  10.132   7.047   7.826
 1310POPC   C1B21247  10.244   7.809   8.745
 1310POPC   C2B21248  10.199   7.966   8.322
 1310POPC   C3B21249  10.422   7.793   7.953
 1310POPC   C4B21250  10.768   7.892   7.666
 1311POPC   NC321251  11.153   3.716   9.504
 1311POPC   PO421252  10.651   3.193   9.524
 1311POPC   GL121253  11.031   3.332   9.187
 1311POPC   GL221254  11.401   3.554   9.116
 1311POPC   C1A21255  11.126   3.341   8.737
 1311POPC   D2A21256  11.066   3.548   8.378
 1311POPC   C3A21257  11.167   3.374   8.040
 1311POPC   C4A21258  11.178   3.696   7.794
 1311POPC   C1B21259  11.606   3.562   8.722
 1311POPC   C2B21260  11.572   3.328   8.364
 1311POPC   C3B21261  11.659   3.493   7.976
 1311POPC   C4B21262  11.696   3.883   7.792
 1312POPC   NC321263  11.101  39.486   9.568
 1312POPC   PO421264  11.199  38.787   9.559
 1312POPC   GL121265  11.104  39.015   9.207
 1312POPC   GL221266  11.341  39.266   9.179
 1312POPC   C1A21267  11.186  38.999   8.757
 1312POPC   D2A21268  11.394  39.009   8.355
 1312POPC   C3A21269  11.190  39.140   7.978
 1312POPC   C4A21270  11.056  38.901   7.610
 1312POPC   C1B21271  11.295  39.507   8.792
 1312POPC   C2B21272  11.225  39.727   8.414
 1312POPC   C3B21273  11.413  39.611   8.022
 1312POPC   C4B21274  11.249  39.632   7.614
 1313POPC   NC321275  30.129  17.566   9.472
 1313POPC   PO421276  29.880  18.338   9.676
 1313POPC   GL121277  29.854  18.287   9.175
 1313POPC   GL221278  29.611  18.090   9.011
 1313POPC   C1A21279  29.949  18.335   8.715
 1313POPC   D2A21280  29.873  18.571   8.323
 1313POPC   C3A21281  29.792  18.354   7.931
 1313POPC   C4A21282  29.597  18.083   7.585
 1313POPC   C1B21283  29.635  17.919   8.605
 1313POPC   C2B21284  29.765  17.909   8.172
 1313POPC   C3B21285  29.877  17.686   7.773
 1313POPC   C4B21286  29.666  17.637   7.339
 1314POPC   NC321287  33.346  37.795   9.481
 1314POPC   PO421288  32.828  37.388   9.581
 1314POPC   GL121289  32.942  37.741   9.174
 1314POPC   GL221290  33.283  37.969   9.018
 1314POPC   C1A21291  32.948  37.782   8.705
 1314POPC   D2A21292  32.800  37.457   8.435
 1314POPC   C3A21293  32.890  37.413   8.018
 1314POPC   C4A21294  32.934  37.621   7.651
 1314POPC   C1B21295  33.465  37.770   8.625
 1314POPC   C2B21296  33.361  37.469   8.323
 1314POPC   C3B21297  33.325  37.725   7.985
 1314POPC   C4B21298  33.398  37.770   7.573
 1315POPC   NC321299  31.594  28.415   9.473
 1315POPC   PO421300  31.010  28.456   9.752
 1315POPC   GL121301  31.123  28.517   9.280
 1315POPC   GL221302  31.142  28.214   9.260
 1315POPC   C1A21303  31.424  28.393   8.866
 1315POPC   D2A21304  31.402  28.460   8.404
 1315POPC   C3A21305  31.632  28.246   8.060
 1315POPC   C4A21306  31.481  28.361   7.644
 1315POPC   C1B21307  31.052  28.045   8.861
 1315POPC   C2B21308  31.066  28.063   8.410
 1315POPC   C3B21309  31.176  28.030   7.949
 1315POPC   C4B21310  31.327  27.912   7.490
 1316POPC   NC321311  10.266  44.994   9.456
 1316POPC   PO421312  10.904  44.714   9.441
 1316POPC   GL121313  10.570  44.674   9.148
 1316POPC   GL221314  10.488   0.013   8.998
 1316POPC   C1A21315  10.437  44.587   8.712
 1316POPC   D2A21316  10.316  44.823   8.335
 1316POPC   C3A21317  10.303  44.506   8.035
 1316POPC   C4A21318  10.485  44.343   7.721
 1316POPC   C1B21319  10.827  44.969   8.682
 1316POPC   C2B21320  10.843  44.781   8.256
 1316POPC   C3B21321  10.639  44.845   7.857
 1316POPC   C4B21322  10.538  44.967   7.436
 1317POPC   NC321323  43.871  25.423   9.542
 1317POPC   PO421324  43.962  24.743   9.569
 1317POPC   GL121325  43.882  24.980   9.197
 1317POPC   GL221326  43.710  25.309   9.063
 1317POPC   C1A21327  44.012  25.006   8.776
 1317POPC   D2A21328  44.129  25.236   8.429
 1317POPC   C3A21329  44.000  25.121   8.043
 1317POPC   C4A21330  44.050  25.507   7.851
 1317POPC   C1B21331  43.584  25.517   8.654
 1317POPC   C2B21332  43.641  25.447   8.199
 1317POPC   C3B21333  43.573  25.319   7.756
 1317POPC   C4B21334  43.541  25.525   7.338
 1318POPC   NC321335  16.252   0.389   9.507
 1318POPC   PO421336  15.661   0.684   9.777
 1318POPC   GL121337  15.686   0.586   9.291
 1318POPC   GL221338  15.756   0.221   9.211
 1318POPC   C1A21339  15.633   0.498   8.810
 1318POPC   D2A21340  15.518   0.270   8.391
 1318POPC   C3A21341  15.754   0.501   8.075
 1318POPC   C4A21342  16.039   0.652   7.775
 1318POPC   C1B21343  15.916   0.062   8.764
 1318POPC   C2B21344  15.991   0.088   8.316
 1318POPC   C3B21345  16.174   0.182   7.918
 1318POPC   C4B21346  16.424   0.223   7.536
 1319POPC   NC321347   1.051  35.697   9.669
 1319POPC   PO421348   1.515  35.238   9.517
 1319POPC   GL121349   1.218  35.375   9.218
 1319POPC   GL221350   1.167  35.728   9.177
 1319POPC   C1A21351   1.294  35.429   8.777
 1319POPC   D2A21352   1.428  35.668   8.423
 1319POPC   C3A21353   1.315  35.440   8.066
 1319POPC   C4A21354   1.429  35.157   7.741
 1319POPC   C1B21355   0.899  35.755   8.809
 1319POPC   C2B21356   0.897  35.588   8.394
 1319POPC   C3B21357   0.884  35.699   7.952
 1319POPC   C4B21358   0.949  35.322   7.703
 1320POPC   NC321359  41.339  44.719   9.625
 1320POPC   PO421360  41.901  44.611   9.272
 1320POPC   GL121361  41.578  44.864   9.042
 1320POPC   GL221362  41.224  44.840   9.155
 1320POPC   C1A21363  41.642  44.817   8.615
 1320POPC   D2A21364  41.664  44.490   8.317
 1320POPC   C3A21365  41.846  44.663   7.961
 1320POPC   C4A21366  41.721  44.576   7.557
 1320POPC   C1B21367  41.201  44.594   8.768
 1320POPC   C2B21368  41.090  44.628   8.331
 1320POPC   C3B21369  41.319  44.647   7.969
 1320POPC   C4B21370  41.278  44.848   7.613
 1321POPC   NC321371  29.677  31.642   9.455
 1321POPC   PO421372  30.183  31.226   9.546
 1321POPC   GL121373  29.989  31.341   9.135
 1321POPC   GL221374  30.015  31.697   9.075
 1321POPC   C1A21375  29.761  31.401   8.718
 1321POPC   D2A21376  29.667  31.669   8.390
 1321POPC   C3A21377  29.831  31.623   8.014
 1321POPC   C4A21378  29.653  31.625   7.632
 1321POPC   C1B21379  30.288  31.534   8.770
 1321POPC   C2B21380  30.213  31.647   8.385
 1321POPC   C3B21381  30.328  31.554   7.995
 1321POPC   C4B21382  30.456  31.733   7.680
 1322POPC   NC321383   2.013   3.964   9.662
 1322POPC   PO421384   2.282   4.493   9.451
 1322POPC   GL121385   2.036   4.356   9.131
 1322POPC   GL221386   1.802   4.074   9.204
 1322POPC   C1A21387   2.082   4.489   8.714
 1322POPC   D2A21388   1.850   4.438   8.354
 1322POPC   C3A21389   2.081   4.375   7.986
 1322POPC   C4A21390   2.049   4.545   7.599
 1322POPC   C1B21391   1.758   3.831   8.807
 1322POPC   C2B21392   1.935   3.838   8.394
 1322POPC   C3B21393   1.808   3.939   7.978
 1322POPC   C4B21394   1.884   4.060   7.526
 1323POPC   NC321395  21.377   4.669   9.975
 1323POPC   PO421396  21.509   5.105   9.445
 1323POPC   GL121397  21.548   4.940   9.045
 1323POPC   GL221398  21.237   4.775   9.082
 1323POPC   C1A21399  21.576   5.171   8.647
 1323POPC   D2A21400  21.426   5.490   8.342
 1323POPC   C3A21401  21.375   5.350   7.909
 1323POPC   C4A21402  21.666   5.064   7.664
 1323POPC   C1B21403  21.232   4.772   8.641
 1323POPC   C2B21404  21.300   4.961   8.272
 1323POPC   C3B21405  21.159   4.905   7.899
 1323POPC   C4B21406  21.296   4.686   7.582
 1324POPC   NC321407  31.503   5.620   9.494
 1324POPC   PO421408  31.231   5.005   9.667
 1324POPC   GL121409  31.269   5.205   9.226
 1324POPC   GL221410  31.609   5.278   9.127
 1324POPC   C1A21411  31.363   5.084   8.746
 1324POPC   D2A21412  31.473   4.800   8.428
 1324POPC   C3A21413  31.204   4.896   8.093
 1324POPC   C4A21414  31.252   5.027   7.669
 1324POPC   C1B21415  31.842   5.318   8.754
 1324POPC   C2B21416  31.673   5.291   8.338
 1324POPC   C3B21417  31.687   5.066   7.954
 1324POPC   C4B21418  31.679   5.301   7.556
 1325POPC   NC321419  44.294  36.048   9.544
 1325POPC   PO421420  44.919  36.321   9.635
 1325POPC   GL121421  44.694  36.278   9.208
 1325POPC   GL221422  44.536  35.942   9.115
 1325POPC   C1A21423  44.822  36.137   8.756
 1325POPC   D2A21424  44.623  36.071   8.344
 1325POPC   C3A21425  44.861  36.244   7.982
 1325POPC   C4A21426  44.912  36.022   7.593
 1325POPC   C1B21427  44.302  36.103   8.758
 1325POPC   C2B21428  43.997  36.063   8.463
 1325POPC   C3B21429  44.040  35.899   8.089
 1325POPC   C4B21430  44.458  35.962   7.869
 1326POPC   NC321431  43.097   4.690   9.497
 1326POPC   PO421432  42.917   4.106   9.439
 1326POPC   GL121433  43.019   4.350   9.102
 1326POPC   GL221434  43.385   4.368   9.154
 1326POPC   C1A21435  42.861   4.354   8.682
 1326POPC   D2A21436  42.953   4.062   8.340
 1326POPC   C3A21437  42.985   4.269   7.958
 1326POPC   C4A21438  42.697   4.154   7.683
 1326POPC   C1B21439  43.327   4.578   8.750
 1326POPC   C2B21440  43.202   4.555   8.328
 1326POPC   C3B21441  43.414   4.571   7.936
 1326POPC   C4B21442  43.205   4.701   7.579
 1327POPC   NC321443  20.632  27.868   9.423
 1327POPC   PO421444  20.932  27.244   9.669
 1327POPC   GL121445  20.672  27.200   9.206
 1327POPC   GL221446  20.417  27.484   9.164
 1327POPC   C1A21447  20.652  27.361   8.737
 1327POPC   D2A21448  20.480  27.608   8.383
 1327POPC   C3A21449  20.507  27.524   7.952
 1327POPC   C4A21450  20.613  27.949   7.791
 1327POPC   C1B21451  20.424  27.836   8.831
 1327POPC   C2B21452  20.221  28.079   8.507
 1327POPC   C3B21453  20.184  27.906   8.090
 1327POPC   C4B21454  20.098  27.784   7.695
 1328POPC   NC321455  30.393  12.320   9.250
 1328POPC   PO421456  30.034  11.871   9.585
 1328POPC   GL121457  29.887  11.989   9.164
 1328POPC   GL221458  29.736  11.668   9.179
 1328POPC   C1A21459  30.036  12.063   8.715
 1328POPC   D2A21460  30.096  12.267   8.285
 1328POPC   C3A21461  30.058  12.014   7.917
 1328POPC   C4A21462  30.215  12.115   7.479
 1328POPC   C1B21463  29.635  11.689   8.750
 1328POPC   C2B21464  29.730  11.536   8.316
 1328POPC   C3B21465  29.657  11.661   7.880
 1328POPC   C4B21466  29.734  11.955   7.545
 1329POPC   NC321467  18.843  30.447   9.446
 1329POPC   PO421468  19.055  31.001   9.719
 1329POPC   GL121469  19.061  30.894   9.242
 1329POPC   GL221470  19.221  30.624   9.151
 1329POPC   C1A21471  18.857  30.656   8.813
 1329POPC   D2A21472  18.867  30.428   8.393
 1329POPC   C3A21473  18.922  30.626   7.986
 1329POPC   C4A21474  19.079  30.888   7.642
 1329POPC   C1B21475  19.363  30.658   8.731
 1329POPC   C2B21476  19.420  30.422   8.346
 1329POPC   C3B21477  19.445  30.555   7.936
 1329POPC   C4B21478  19.457  30.389   7.553
 1330POPC   NC321479  10.953   8.349   9.505
 1330POPC   PO421480  10.260   8.153   9.522
 1330POPC   GL121481  10.418   8.147   9.104
 1330POPC   GL221482  10.757   8.063   9.112
 1330POPC   C1A21483  10.489   8.366   8.700
 1330POPC   D2A21484  10.550   8.600   8.339
 1330POPC   C3A21485  10.531   8.283   8.090
 1330POPC   C4A21486  10.515   8.337   7.703
 1330POPC   C1B21487  10.952   8.377   8.872
 1330POPC   C2B21488  11.021   8.422   8.435
 1330POPC   C3B21489  10.971   8.519   8.001
 1330POPC   C4B21490  11.050   8.324   7.616
 1331POPC   NC321491  18.786   1.115   9.399
 1331POPC   PO421492  19.394   1.413   9.361
 1331POPC   GL121493  19.085   1.552   9.072
 1331POPC   GL221494  18.750   1.593   9.213
 1331POPC   C1A21495  18.925   1.339   8.747
 1331POPC   D2A21496  18.920   1.164   8.363
 1331POPC   C3A21497  18.991   1.435   8.026
 1331POPC   C4A21498  19.088   1.116   7.752
 1331POPC   C1B21499  18.616   1.733   8.790
 1331POPC   C2B21500  18.591   1.570   8.375
 1331POPC   C3B21501  18.534   1.649   7.948
 1331POPC   C4B21502  18.719   1.432   7.591
 1332POPC   NC321503  18.532  33.912   9.891
 1332POPC   PO421504  19.025  33.523   9.662
 1332POPC   GL121505  19.096  33.548   9.210
 1332POPC   GL221506  19.152  33.905   9.160
 1332POPC   C1A21507  19.224  33.608   8.758
 1332POPC   D2A21508  18.995  33.543   8.378
 1332POPC   C3A21509  19.162  33.634   7.965
 1332POPC   C4A21510  19.326  33.869   7.588
 1332POPC   C1B21511  18.871  33.977   8.772
 1332POPC   C2B21512  18.950  34.053   8.307
 1332POPC   C3B21513  18.863  34.027   7.834
 1332POPC   C4B21514  18.754  34.107   7.383
 1333POPC   NC321515  22.499  32.009   9.594
 1333POPC   PO421516  21.825  32.398   9.606
 1333POPC   GL121517  21.990  32.301   9.242
 1333POPC   GL221518  22.294  32.356   9.176
 1333POPC   C1A21519  21.892  32.002   8.928
 1333POPC   D2A21520  21.707  32.071   8.512
 1333POPC   C3A21521  21.935  31.895   8.186
 1333POPC   C4A21522  22.159  32.056   7.840
 1333POPC   C1B21523  22.171  32.362   8.707
 1333POPC   C2B21524  22.169  32.402   8.236
 1333POPC   C3B21525  22.541  32.364   7.909
 1333POPC   C4B21526  22.562  32.145   7.482
 1334POPC   NC321527  25.442  44.413   9.452
 1334POPC   PO421528  24.889  44.765   9.444
 1334POPC   GL121529  25.091  44.708   9.057
 1334POPC   GL221530  25.433  44.617   8.990
 1334POPC   C1A21531  25.157  44.827   8.620
 1334POPC   D2A21532  25.413  44.606   8.329
 1334POPC   C3A21533  25.309  44.678   7.937
 1334POPC   C4A21534  25.219  44.461   7.574
 1334POPC   C1B21535  25.720  44.824   8.685
 1334POPC   C2B21536  25.657   0.086   8.311
 1334POPC   C3B21537  25.668   0.071   7.861
 1334POPC   C4B21538  25.476  44.903   7.500
 1335POPC   NC321539  30.335  29.327   9.290
 1335POPC   PO421540  30.944  28.988   9.428
 1335POPC   GL121541  30.787  29.199   9.075
 1335POPC   GL221542  30.498  29.070   8.877
 1335POPC   C1A21543  30.751  29.535   8.744
 1335POPC   D2A21544  30.532  29.583   8.367
 1335POPC   C3A21545  30.747  29.252   8.145
 1335POPC   C4A21546  31.001  29.255   7.784
 1335POPC   C1B21547  30.897  29.053   8.613
 1335POPC   C2B21548  31.162  28.908   8.286
 1335POPC   C3B21549  31.202  28.763   7.865
 1335POPC   C4B21550  30.889  28.816   7.538
 1336POPC   NC321551   6.722   7.801   9.285
 1336POPC   PO421552   6.368   7.279   9.501
 1336POPC   GL121553   6.721   7.290   9.157
 1336POPC   GL221554   6.895   7.494   8.955
 1336POPC   C1A21555   6.802   6.991   8.822
 1336POPC   D2A21556   6.887   6.824   8.398
 1336POPC   C3A21557   6.685   7.064   8.086
 1336POPC   C4A21558   6.832   7.204   7.693
 1336POPC   C1B21559   6.765   7.771   8.613
 1336POPC   C2B21560   6.650   7.581   8.212
 1336POPC   C3B21561   6.566   7.606   7.768
 1336POPC   C4B21562   6.834   7.629   7.396
 1337POPC   NC321563  18.587  31.278   9.586
 1337POPC   PO421564  18.129  31.723   9.556
 1337POPC   GL121565  18.335  31.598   9.156
 1337POPC   GL221566  18.328  31.232   9.134
 1337POPC   C1A21567  18.314  31.478   8.674
 1337POPC   D2A21568  18.487  31.718   8.337
 1337POPC   C3A21569  18.484  31.558   7.929
 1337POPC   C4A21570  18.594  31.791   7.575
 1337POPC   C1B21571  18.595  31.089   8.777
 1337POPC   C2B21572  18.602  31.193   8.328
 1337POPC   C3B21573  18.632  31.051   7.914
 1337POPC   C4B21574  18.409  31.107   7.541
 1338POPC   NC321575  29.450  40.474   9.453
 1338POPC   PO421576  28.963  40.942   9.411
 1338POPC   GL121577  29.209  40.815   9.047
 1338POPC   GL221578  29.383  41.105   8.959
 1338POPC   C1A21579  29.020  40.744   8.618
 1338POPC   D2A21580  28.850  41.018   8.282
 1338POPC   C3A21581  29.061  40.897   7.888
 1338POPC   C4A21582  29.215  40.519   7.681
 1338POPC   C1B21583  29.411  41.067   8.532
 1338POPC   C2B21584  29.272  41.315   8.164
 1338POPC   C3B21585  29.192  41.369   7.727
 1338POPC   C4B21586  29.183  41.079   7.374
 1339POPC   NC321587  14.350  41.394   9.482
 1339POPC   PO421588  14.066  42.073   9.444
 1339POPC   GL121589  14.248  41.780   9.142
 1339POPC   GL221590  14.059  41.437   9.086
 1339POPC   C1A21591  14.607  41.688   8.849
 1339POPC   D2A21592  14.588  41.541   8.424
 1339POPC   C3A21593  14.412  41.706   8.095
 1339POPC   C4A21594  14.572  41.954   7.756
 1339POPC   C1B21595  14.125  41.563   8.687
 1339POPC   C2B21596  14.073  41.371   8.334
 1339POPC   C3B21597  14.135  41.278   7.931
 1339POPC   C4B21598  14.216  41.581   7.657
 1340POPC   NC321599  37.977   2.236   9.580
 1340POPC   PO421600  37.448   1.783   9.604
 1340POPC   GL121601  37.654   1.982   9.249
 1340POPC   GL221602  37.710   2.350   9.162
 1340POPC   C1A21603  37.673   1.885   8.834
 1340POPC   D2A21604  37.872   1.670   8.517
 1340POPC   C3A21605  37.721   1.695   8.126
 1340POPC   C4A21606  37.855   1.698   7.710
 1340POPC   C1B21607  37.530   2.377   8.761
 1340POPC   C2B21608  37.496   2.120   8.396
 1340POPC   C3B21609  37.626   2.174   7.983
 1340POPC   C4B21610  37.488   2.062   7.599
 1341POPC   NC321611   4.252  41.708   9.418
 1341POPC   PO421612   4.593  41.116   9.441
 1341POPC   GL121613   4.427  41.278   9.081
 1341POPC   GL221614   4.644  41.566   9.082
 1341POPC   C1A21615   4.542  41.368   8.648
 1341POPC   D2A21616   4.387  41.593   8.347
 1341POPC   C3A21617   4.388  41.316   8.030
 1341POPC   C4A21618   4.385  41.477   7.640
 1341POPC   C1B21619   4.867  41.773   8.743
 1341POPC   C2B21620   4.935  41.850   8.310
 1341POPC   C3B21621   4.704  41.762   7.947
 1341POPC   C4B21622   4.754  41.799   7.514
 1342POPC   NC321623   4.490   4.745   9.469
 1342POPC   PO421624   4.631   4.083   9.515
 1342POPC   GL121625   4.345   4.224   9.148
 1342POPC   GL221626   4.300   4.570   9.049
 1342POPC   C1A21627   4.303   4.142   8.691
 1342POPC   D2A21628   4.586   4.076   8.309
 1342POPC   C3A21629   4.383   4.214   7.901
 1342POPC   C4A21630   4.337   4.640   7.737
 1342POPC   C1B21631   4.241   4.662   8.649
 1342POPC   C2B21632   4.207   4.635   8.234
 1342POPC   C3B21633   3.847   4.669   7.969
 1342POPC   C4B21634   3.859   4.446   7.619
 1343POPC   NC321635  19.149  29.714   9.547
 1343POPC   PO421636  18.600  30.050   9.354
 1343POPC   GL121637  18.894  29.872   9.108
 1343POPC   GL221638  19.048  30.144   9.092
 1343POPC   C1A21639  18.974  29.676   8.713
 1343POPC   D2A21640  18.734  29.517   8.328
 1343POPC   C3A21641  18.897  29.614   7.931
 1343POPC   C4A21642  19.277  29.642   7.886
 1343POPC   C1B21643  19.158  30.175   8.719
 1343POPC   C2B21644  19.163  29.954   8.332
 1343POPC   C3B21645  19.109  30.143   7.951
 1343POPC   C4B21646  19.096  30.015   7.541
 1344POPC   NC321647  36.812  12.912   9.611
 1344POPC   PO421648  36.895  12.395   9.432
 1344POPC   GL121649  36.974  12.749   9.114
 1344POPC   GL221650  36.870  13.108   9.142
 1344POPC   C1A21651  37.028  12.896   8.665
 1344POPC   D2A21652  37.104  13.159   8.279
 1344POPC   C3A21653  37.177  12.895   7.918
 1344POPC   C4A21654  37.260  12.701   7.485
 1344POPC   C1B21655  36.642  13.204   8.764
 1344POPC   C2B21656  36.616  13.036   8.326
 1344POPC   C3B21657  36.748  13.219   7.905
 1344POPC   C4B21658  36.613  13.272   7.456
 1345POPC   NC321659  22.038  34.313   9.460
 1345POPC   PO421660  21.792  34.968   9.501
 1345POPC   GL121661  21.803  34.661   9.160
 1345POPC   GL221662  21.678  34.314   9.088
 1345POPC   C1A21663  21.983  34.566   8.756
 1345POPC   D2A21664  22.037  34.594   8.324
 1345POPC   C3A21665  22.060  34.814   7.928
 1345POPC   C4A21666  22.375  34.592   7.653
 1345POPC   C1B21667  21.822  34.066   8.748
 1345POPC   C2B21668  21.971  34.069   8.338
 1345POPC   C3B21669  22.023  34.284   7.929
 1345POPC   C4B21670  21.830  34.177   7.566
 1346POPC   NC321671   7.398   1.617   9.378
 1346POPC   PO421672   7.646   0.967   9.536
 1346POPC   GL121673   7.740   1.208   9.117
 1346POPC   GL221674   7.705   1.543   8.988
 1346POPC   C1A21675   7.963   1.215   8.697
 1346POPC   D2A21676   7.972   0.965   8.298
 1346POPC   C3A21677   7.653   1.033   7.955
 1346POPC   C4A21678   7.729   0.997   7.479
 1346POPC   C1B21679   7.456   1.374   8.681
 1346POPC   C2B21680   7.277   1.624   8.362
 1346POPC   C3B21681   7.150   1.571   7.935
 1346POPC   C4B21682   7.454   1.396   7.646
 1347POPC   NC321683   3.300   6.022   9.838
 1347POPC   PO421684   2.681   5.964   9.763
 1347POPC   GL121685   2.621   5.919   9.264
 1347POPC   GL221686   2.760   5.620   9.098
 1347POPC   C1A21687   2.486   5.958   8.822
 1347POPC   D2A21688   2.330   6.115   8.404
 1347POPC   C3A21689   2.454   5.809   8.139
 1347POPC   C4A21690   2.525   5.781   7.717
 1347POPC   C1B21691   2.966   5.699   8.732
 1347POPC   C2B21692   2.870   5.525   8.340
 1347POPC   C3B21693   2.940   5.728   7.973
 1347POPC   C4B21694   3.006   5.948   7.565
 1348POPC   NC321695  42.711  21.813   9.519
 1348POPC   PO421696  43.309  22.135   9.524
 1348POPC   GL121697  43.111  22.230   9.131
 1348POPC   GL221698  42.793  22.066   9.088
 1348POPC   C1A21699  43.028  22.267   8.703
 1348POPC   D2A21700  43.038  22.038   8.360
 1348POPC   C3A21701  42.926  22.159   7.969
 1348POPC   C4A21702  43.088  22.146   7.585
 1348POPC   C1B21703  42.636  21.948   8.668
 1348POPC   C2B21704  42.636  21.770   8.220
 1348POPC   C3B21705  42.625  21.766   7.741
 1348POPC   C4B21706  42.798  21.894   7.277
 1349POPC   NC321707  41.432  21.051   9.560
 1349POPC   PO421708  41.979  21.450   9.720
 1349POPC   GL121709  41.881  21.433   9.197
 1349POPC   GL221710  41.680  21.152   9.151
 1349POPC   C1A21711  41.910  21.284   8.747
 1349POPC   D2A21712  41.716  21.380   8.382
 1349POPC   C3A21713  41.855  21.360   7.989
 1349POPC   C4A21714  41.617  21.319   7.650
 1349POPC   C1B21715  41.411  21.235   8.814
 1349POPC   C2B21716  41.222  21.192   8.442
 1349POPC   C3B21717  41.330  21.296   8.068
 1349POPC   C4B21718  41.097  21.250   7.738
 1350POPC   NC321719  19.733  19.321   9.340
 1350POPC   PO421720  19.386  18.782   9.458
 1350POPC   GL121721  19.619  18.894   9.051
 1350POPC   GL221722  19.896  19.074   8.945
 1350POPC   C1A21723  19.897  18.624   8.755
 1350POPC   D2A21724  20.077  18.640   8.332
 1350POPC   C3A21725  19.903  19.017   8.143
 1350POPC   C4A21726  19.667  19.097   7.786
 1350POPC   C1B21727  19.976  19.304   8.613
 1350POPC   C2B21728  20.274  19.352   8.313
 1350POPC   C3B21729  20.330  19.223   7.912
 1350POPC   C4B21730  20.068  19.331   7.578
 1351POPC   NC321731   4.699   3.188   9.439
 1351POPC   PO421732   5.331   3.367   9.642
 1351POPC   GL121733   5.401   3.581   9.229
 1351POPC   GL221734   5.240   3.330   9.023
 1351POPC   C1A21735   5.467   3.676   8.766
 1351POPC   D2A21736   5.320   3.514   8.362
 1351POPC   C3A21737   4.966   3.714   8.154
 1351POPC   C4A21738   5.215   3.611   7.800
 1351POPC   C1B21739   4.948   3.368   8.656
 1351POPC   C2B21740   4.910   3.210   8.210
 1351POPC   C3B21741   4.963   3.192   7.754
 1351POPC   C4B21742   4.738   3.310   7.324
 1352POPC   NC321743  44.282   5.032   9.546
 1352POPC   PO421744  44.976   5.255   9.560
 1352POPC   GL121745  44.647   5.253   9.255
 1352POPC   GL221746  44.567   4.880   9.153
 1352POPC   C1A21747  44.642   5.244   8.809
 1352POPC   D2A21748  44.961   5.204   8.530
 1352POPC   C3A21749  44.862   5.231   8.065
 1352POPC   C4A21750  44.872   5.103   7.611
 1352POPC   C1B21751  44.316   4.854   8.761
 1352POPC   C2B21752  44.486   4.999   8.352
 1352POPC   C3B21753  44.359   5.059   7.913
 1352POPC   C4B21754  44.406   4.903   7.490
 1353POPC   NC321755  23.941  30.831   9.611
 1353POPC   PO421756  23.731  30.289   9.721
 1353POPC   GL121757  23.880  30.416   9.281
 1353POPC   GL221758  23.731  30.703   9.155
 1353POPC   C1A21759  23.905  30.371   8.811
 1353POPC   D2A21760  23.741  30.584   8.469
 1353POPC   C3A21761  23.878  30.505   8.095
 1353POPC   C4A21762  23.661  30.456   7.715
 1353POPC   C1B21763  23.712  30.971   8.808
 1353POPC   C2B21764  23.883  31.069   8.405
 1353POPC   C3B21765  23.794  30.990   8.002
 1353POPC   C4B21766  23.572  30.945   7.648
 1354POPC   NC321767  16.420  10.804   9.576
 1354POPC   PO421768  15.970  10.234   9.666
 1354POPC   GL121769  16.032  10.502   9.297
 1354POPC   GL221770  16.353  10.371   9.295
 1354POPC   C1A21771  15.953  10.582   8.842
 1354POPC   D2A21772  15.931  10.415   8.428
 1354POPC   C3A21773  16.043  10.642   8.035
 1354POPC   C4A21774  15.815  10.601   7.630
 1354POPC   C1B21775  16.456  10.556   8.904
 1354POPC   C2B21776  16.451  10.380   8.496
 1354POPC   C3B21777  16.521  10.130   8.136
 1354POPC   C4B21778  16.384  10.340   7.790
 1355POPC   NC321779  34.582  32.961   9.337
 1355POPC   PO421780  35.043  33.283   9.429
 1355POPC   GL121781  34.889  33.190   9.004
 1355POPC   GL221782  34.525  33.243   8.917
 1355POPC   C1A21783  34.878  33.219   8.554
 1355POPC   D2A21784  34.505  33.188   8.331
 1355POPC   C3A21785  34.628  32.848   8.115
 1355POPC   C4A21786  34.689  32.915   7.725
 1355POPC   C1B21787  34.531  32.816   8.675
 1355POPC   C2B21788  34.197  32.704   8.351
 1355POPC   C3B21789  34.169  32.945   7.963
 1355POPC   C4B21790  34.383  33.333   7.840
 1356POPC   NC321791  30.785   5.185   9.678
 1356POPC   PO421792  30.472   4.784   9.225
 1356POPC   GL121793  30.505   5.124   8.997
 1356POPC   GL221794  30.655   5.341   9.209
 1356POPC   C1A21795  30.485   5.369   8.613
 1356POPC   D2A21796  30.482   5.271   8.174
 1356POPC   C3A21797  30.437   5.549   7.857
 1356POPC   C4A21798  30.320   5.464   7.421
 1356POPC   C1B21799  30.945   5.349   8.859
 1356POPC   C2B21800  31.047   5.310   8.412
 1356POPC   C3B21801  30.951   5.336   7.983
 1356POPC   C4B21802  30.746   5.199   7.650
 1357POPC   NC321803  12.198  33.121   9.581
 1357POPC   PO421804  11.619  32.675   9.459
 1357POPC   GL121805  11.822  33.051   9.214
 1357POPC   GL221806  12.131  33.246   9.098
 1357POPC   C1A21807  11.785  33.135   8.757
 1357POPC   D2A21808  11.852  32.877   8.393
 1357POPC   C3A21809  11.866  32.999   7.996
 1357POPC   C4A21810  11.648  33.210   7.727
 1357POPC   C1B21811  12.262  33.006   8.721
 1357POPC   C2B21812  12.298  33.079   8.258
 1357POPC   C3B21813  12.342  32.832   7.876
 1357POPC   C4B21814  12.531  32.914   7.470
 1358POPC   NC321815  14.523  24.505   9.456
 1358POPC   PO421816  13.988  24.770   9.614
 1358POPC   GL121817  14.111  24.488   9.145
 1358POPC   GL221818  14.411  24.319   9.010
 1358POPC   C1A21819  14.123  24.547   8.664
 1358POPC   D2A21820  14.494  24.508   8.390
 1358POPC   C3A21821  14.461  24.606   7.940
 1358POPC   C4A21822  14.707  24.645   7.534
 1358POPC   C1B21823  14.233  24.046   8.742
 1358POPC   C2B21824  14.093  24.175   8.317
 1358POPC   C3B21825  14.352  24.093   7.995
 1358POPC   C4B21826  14.482  24.194   7.597
 1359POPC   NC321827  41.805  15.711   9.745
 1359POPC   PO421828  42.505  15.814   9.560
 1359POPC   GL121829  42.314  15.855   9.175
 1359POPC   GL221830  42.012  16.025   9.220
 1359POPC   C1A21831  42.491  16.013   8.799
 1359POPC   D2A21832  42.521  15.901   8.403
 1359POPC   C3A21833  42.283  16.129   8.110
 1359POPC   C4A21834  42.426  15.990   7.743
 1359POPC   C1B21835  41.984  15.959   8.762
 1359POPC   C2B21836  42.017  15.774   8.360
 1359POPC   C3B21837  42.074  15.665   7.919
 1359POPC   C4B21838  41.936  16.006   7.623
 1360POPC   NC321839   0.286  34.322   9.515
 1360POPC   PO421840   0.674  33.762   9.441
 1360POPC   GL121841   0.499  33.722   9.059
 1360POPC   GL221842   0.217  33.914   9.058
 1360POPC   C1A21843   0.329  33.545   8.695
 1360POPC   D2A21844   0.203  33.671   8.307
 1360POPC   C3A21845   0.410  33.708   7.914
 1360POPC   C4A21846   0.272  33.647   7.506
 1360POPC   C1B21847   0.327  34.054   8.651
 1360POPC   C2B21848   0.133  34.167   8.293
 1360POPC   C3B21849   0.058  34.053   7.908
 1360POPC   C4B21850   0.338  34.151   7.601
 1361POPC   NC321851   7.031  35.975   9.503
 1361POPC   PO421852   7.583  36.364   9.421
 1361POPC   GL121853   7.380  36.271   9.097
 1361POPC   GL221854   7.384  35.944   9.131
 1361POPC   C1A21855   7.230  36.274   8.691
 1361POPC   D2A21856   7.374  36.442   8.322
 1361POPC   C3A21857   7.355  36.182   7.963
 1361POPC   C4A21858   7.498  36.119   7.571
 1361POPC   C1B21859   7.580  35.916   8.764
 1361POPC   C2B21860   7.609  35.972   8.350
 1361POPC   C3B21861   7.791  35.907   7.944
 1361POPC   C4B21862   7.733  35.601   7.614
 1362POPC   NC321863   8.757  32.462   9.953
 1362POPC   PO421864   8.760  32.702   9.326
 1362POPC   GL121865   8.852  32.293   9.190
 1362POPC   GL221866   9.229  32.303   9.167
 1362POPC   C1A21867   8.682  32.042   8.843
 1362POPC   D2A21868   8.643  32.257   8.454
 1362POPC   C3A21869   8.949  32.392   8.196
 1362POPC   C4A21870   8.887  32.405   7.786
 1362POPC   C1B21871   9.130  32.226   8.701
 1362POPC   C2B21872   8.997  31.907   8.353
 1362POPC   C3B21873   9.036  31.916   7.873
 1362POPC   C4B21874   9.035  31.878   7.397
 1363POPC   NC321875  20.709  36.865   9.720
 1363POPC   PO421876  20.228  37.192   9.421
 1363POPC   GL121877  20.507  36.903   9.179
 1363POPC   GL221878  20.853  36.957   9.214
 1363POPC   C1A21879  20.631  36.941   8.709
 1363POPC   D2A21880  20.754  37.123   8.286
 1363POPC   C3A21881  20.533  36.981   7.896
 1363POPC   C4A21882  20.487  37.154   7.477
 1363POPC   C1B21883  21.032  36.682   8.871
 1363POPC   C2B21884  21.076  36.726   8.404
 1363POPC   C3B21885  21.032  36.848   7.944
 1363POPC   C4B21886  20.802  36.733   7.533
 1364POPC   NC321887  22.063  23.909   9.516
 1364POPC   PO421888  22.073  23.278   9.280
 1364POPC   GL121889  22.173  23.676   9.059
 1364POPC   GL221890  22.346  24.012   9.112
 1364POPC   C1A21891  21.988  23.887   8.700
 1364POPC   D2A21892  21.875  24.000   8.270
 1364POPC   C3A21893  21.992  23.715   7.985
 1364POPC   C4A21894  22.363  23.862   7.858
 1364POPC   C1B21895  22.530  23.858   8.736
 1364POPC   C2B21896  22.405  23.693   8.337
 1364POPC   C3B21897  22.609  23.455   7.990
 1364POPC   C4B21898  22.741  23.626   7.573
 1365POPC   NC321899  25.179  41.233   9.533
 1365POPC   PO421900  25.647  40.671   9.567
 1365POPC   GL121901  25.396  40.852   9.242
 1365POPC   GL221902  25.065  41.028   9.091
 1365POPC   C1A21903  25.496  41.062   8.859
 1365POPC   D2A21904  25.241  41.066   8.476
 1365POPC   C3A21905  25.432  41.029   8.060
 1365POPC   C4A21906  25.288  40.911   7.651
 1365POPC   C1B21907  25.171  40.648   8.845
 1365POPC   C2B21908  25.130  40.536   8.423
 1365POPC   C3B21909  25.075  40.573   7.969
 1365POPC   C4B21910  24.861  40.627   7.535
 1366POPC   NC321911   5.724   1.626   9.450
 1366POPC   PO421912   5.890   0.982   9.450
 1366POPC   GL121913   5.902   1.243   9.123
 1366POPC   GL221914   5.557   1.277   9.067
 1366POPC   C1A21915   6.103   1.258   8.723
 1366POPC   D2A21916   6.028   1.255   8.300
 1366POPC   C3A21917   6.303   1.093   8.000
 1366POPC   C4A21918   5.946   1.135   7.757
 1366POPC   C1B21919   5.609   1.113   8.683
 1366POPC   C2B21920   5.559   1.415   8.382
 1366POPC   C3B21921   5.650   1.503   7.967
 1366POPC   C4B21922   5.406   1.317   7.634
 1367POPC   NC321923  26.101  30.193   9.482
 1367POPC   PO421924  25.685  29.696   9.531
 1367POPC   GL121925  25.917  29.851   9.161
 1367POPC   GL221926  26.279  29.818   9.180
 1367POPC   C1A21927  25.940  30.031   8.761
 1367POPC   D2A21928  25.779  29.963   8.357
 1367POPC   C3A21929  25.994  30.080   8.011
 1367POPC   C4A21930  25.787  30.180   7.655
 1367POPC   C1B21931  26.235  29.612   8.804
 1367POPC   C2B21932  26.255  29.718   8.365
 1367POPC   C3B21933  26.193  29.543   7.938
 1367POPC   C4B21934  26.098  29.749   7.560
 1368POPC   NC321935  30.212  30.801   9.374
 1368POPC   PO421936  29.680  30.368   9.442
 1368POPC   GL121937  29.927  30.479   9.087
 1368POPC   GL221938  30.260  30.611   8.912
 1368POPC   C1A21939  29.718  30.662   8.769
 1368POPC   D2A21940  29.714  30.877   8.403
 1368POPC   C3A21941  29.873  30.715   8.041
 1368POPC   C4A21942  29.651  30.787   7.689
 1368POPC   C1B21943  30.098  31.016   8.698
 1368POPC   C2B21944  30.063  31.193   8.249
 1368POPC   C3B21945  30.007  31.172   7.788
 1368POPC   C4B21946  30.072  30.908   7.400
 1369POPC   NC321947  15.479  16.749   9.519
 1369POPC   PO421948  14.765  16.855   9.551
 1369POPC   GL121949  15.077  16.694   9.200
 1369POPC   GL221950  15.295  16.976   9.085
 1369POPC   C1A21951  15.189  16.468   8.792
 1369POPC   D2A21952  15.330  16.263   8.389
 1369POPC   C3A21953  15.235  16.411   7.981
 1369POPC   C4A21954  15.061  16.658   7.629
 1369POPC   C1B21955  15.461  16.877   8.652
 1369POPC   C2B21956  15.310  16.870   8.205
 1369POPC   C3B21957  15.349  17.056   7.788
 1369POPC   C4B21958  15.276  17.376   7.488
 1370POPC   NC321959  40.332  29.264   9.462
 1370POPC   PO421960  40.923  28.925   9.342
 1370POPC   GL121961  40.782  29.093   9.011
 1370POPC   GL221962  40.429  29.055   9.007
 1370POPC   C1A21963  41.002  29.135   8.611
 1370POPC   D2A21964  41.138  29.404   8.289
 1370POPC   C3A21965  40.949  29.260   7.900
 1370POPC   C4A21966  41.048  28.858   7.730
 1370POPC   C1B21967  40.488  29.264   8.637
 1370POPC   C2B21968  40.604  29.349   8.260
 1370POPC   C3B21969  40.370  29.668   8.020
 1370POPC   C4B21970  40.194  29.528   7.657
 1371POPC   NC321971  25.918  17.708   9.704
 1371POPC   PO421972  26.169  17.212   9.668
 1371POPC   GL121973  26.192  17.487   9.272
 1371POPC   GL221974  26.513  17.411   9.109
 1371POPC   C1A21975  26.162  17.609   8.798
 1371POPC   D2A21976  26.250  17.553   8.330
 1371POPC   C3A21977  25.894  17.616   7.999
 1371POPC   C4A21978  25.673  17.707   7.574
 1371POPC   C1B21979  26.515  17.214   8.669
 1371POPC   C2B21980  26.520  17.100   8.212
 1371POPC   C3B21981  26.392  17.172   7.765
 1371POPC   C4B21982  26.331  17.204   7.302
 1372POPC   NC321983  32.091  35.874   9.984
 1372POPC   PO421984  32.154  36.265   9.445
 1372POPC   GL121985  32.337  36.199   9.081
 1372POPC   GL221986  32.116  35.917   9.022
 1372POPC   C1A21987  32.487  36.053   8.684
 1372POPC   D2A21988  32.463  36.149   8.255
 1372POPC   C3A21989  32.450  35.921   7.857
 1372POPC   C4A21990  32.514  36.093   7.410
 1372POPC   C1B21991  31.926  36.225   8.783
 1372POPC   C2B21992  31.780  36.131   8.391
 1372POPC   C3B21993  31.988  36.206   8.039
 1372POPC   C4B21994  31.891  36.527   7.742
 1373POPC   NC321995  29.168  25.460   9.659
 1373POPC   PO421996  29.568  25.022   9.575
 1373POPC   GL121997  29.141  25.079   9.289
 1373POPC   GL221998  29.008  25.413   9.171
 1373POPC   C1A21999  28.939  24.994   8.866
 1373POPC   D2A22000  28.823  25.141   8.440
 1373POPC   C3A22001  29.062  25.049   8.082
 1373POPC   C4A22002  29.147  25.131   7.672
 1373POPC   C1B22003  29.178  25.432   8.743
 1373POPC   C2B22004  29.156  25.516   8.297
 1373POPC   C3B22005  28.920  25.546   7.916
 1373POPC   C4B22006  29.011  25.606   7.466
 1374POPC   NC322007  16.359  21.151   9.165
 1374POPC   PO422008  15.755  21.085   9.422
 1374POPC   GL122009  15.870  21.371   9.097
 1374POPC   GL222010  16.063  21.679   9.138
 1374POPC   C1A22011  15.925  21.311   8.673
 1374POPC   D2A22012  15.712  21.239   8.320
 1374POPC   C3A22013  15.975  21.109   8.010
 1374POPC   C4A22014  15.786  21.184   7.663
 1374POPC   C1B22015  16.289  21.661   8.714
 1374POPC   C2B22016  16.270  21.485   8.283
 1374POPC   C3B22017  16.115  21.566   7.873
 1374POPC   C4B22018  16.244  21.382   7.490
 1375POPC   NC322019  26.949  11.502   9.450
 1375POPC   PO422020  26.582  10.848   9.441
 1375POPC   GL122021  26.697  10.988   9.080
 1375POPC   GL222022  27.047  11.047   9.197
 1375POPC   C1A22023  26.707  11.272   8.745
 1375POPC   D2A22024  26.586  11.381   8.332
 1375POPC   C3A22025  26.752  11.169   7.961
 1375POPC   C4A22026  26.925  11.291   7.553
 1375POPC   C1B22027  27.157  10.973   8.780
 1375POPC   C2B22028  26.973  10.965   8.378
 1375POPC   C3B22029  27.138  10.790   7.988
 1375POPC   C4B22030  27.313  10.947   7.579
 1376POPC   NC322031  12.634  25.500   9.407
 1376POPC   PO422032  13.277  25.427   9.363
 1376POPC   GL122033  12.969  25.249   9.120
 1376POPC   GL222034  13.013  24.898   9.149
 1376POPC   C1A22035  12.987  25.324   8.709
 1376POPC   D2A22036  13.290  25.346   8.398
 1376POPC   C3A22037  13.188  25.389   7.985
 1376POPC   C4A22038  12.929  25.636   7.722
 1376POPC   C1B22039  12.675  24.922   8.811
 1376POPC   C2B22040  12.680  25.081   8.390
 1376POPC   C3B22041  12.678  25.274   7.996
 1376POPC   C4B22042  12.519  25.146   7.654
 1377POPC   NC322043  11.664  40.313   9.575
 1377POPC   PO422044  11.558  39.581   9.534
 1377POPC   GL122045  11.372  39.836   9.187
 1377POPC   GL222046  11.422  40.223   9.128
 1377POPC   C1A22047  11.580  39.924   8.783
 1377POPC   D2A22048  11.702  39.876   8.410
 1377POPC   C3A22049  11.457  40.096   8.150
 1377POPC   C4A22050  11.493  40.078   7.738
 1377POPC   C1B22051  11.276  40.546   8.812
 1377POPC   C2B22052  11.173  40.577   8.354
 1377POPC   C3B22053  11.215  40.488   7.902
 1377POPC   C4B22054  11.311  40.492   7.449
 1378POPC   NC322055  41.580  14.805   9.388
 1378POPC   PO422056  41.942  14.365   9.599
 1378POPC   GL122057  41.828  14.414   9.175
 1378POPC   GL222058  41.487  14.345   9.136
 1378POPC   C1A22059  41.697  14.623   8.770
 1378POPC   D2A22060  41.591  14.367   8.405
 1378POPC   C3A22061  41.883  14.226   8.079
 1378POPC   C4A22062  41.746  14.363   7.676
 1378POPC   C1B22063  41.235  14.398   8.779
 1378POPC   C2B22064  41.029  14.493   8.397
 1378POPC   C3B22065  41.251  14.448   7.999
 1378POPC   C4B22066  41.212  14.453   7.552
 1379POPC   NC322067  21.349  40.402   9.420
 1379POPC   PO422068  21.472  39.750   9.424
 1379POPC   GL122069  21.551  39.976   9.051
 1379POPC   GL222070  21.525  40.352   8.954
 1379POPC   C1A22071  21.590  39.773   8.655
 1379POPC   D2A22072  21.288  39.766   8.313
 1379POPC   C3A22073  21.434  40.087   8.068
 1379POPC   C4A22074  21.625  39.918   7.771
 1379POPC   C1B22075  21.221  40.149   8.676
 1379POPC   C2B22076  20.997  40.182   8.284
 1379POPC   C3B22077  20.987  40.006   7.841
 1379POPC   C4B22078  21.249  40.033   7.445
 1380POPC   NC322079  38.085   6.585   9.530
 1380POPC   PO422080  37.643   6.299   9.880
 1380POPC   GL122081  37.637   6.392   9.362
 1380POPC   GL222082  37.733   6.740   9.191
 1380POPC   C1A22083  37.717   6.306   8.892
 1380POPC   D2A22084  37.762   6.605   8.528
 1380POPC   C3A22085  37.819   6.569   8.071
 1380POPC   C4A22086  38.206   6.559   7.847
 1380POPC   C1B22087  37.788   7.037   8.814
 1380POPC   C2B22088  37.631   7.077   8.362
 1380POPC   C3B22089  37.728   7.054   7.903
 1380POPC   C4B22090  37.780   6.913   7.461
 1381POPC   NC322091  13.998  19.252   9.496
 1381POPC   PO422092  14.321  19.843   9.470
 1381POPC   GL122093  14.387  19.732   9.090
 1381POPC   GL222094  14.508  20.007   8.948
 1381POPC   C1A22095  14.187  19.711   8.689
 1381POPC   D2A22096  14.096  19.891   8.296
 1381POPC   C3A22097  14.331  19.795   7.919
 1381POPC   C4A22098  14.605  20.134   7.869
 1381POPC   C1B22099  14.723  19.714   8.703
 1381POPC   C2B22100  14.651  19.812   8.307
 1381POPC   C3B22101  14.884  19.720   7.956
 1381POPC   C4B22102  14.854  19.544   7.554
 1382POPC   NC322103  44.165  28.250   9.424
 1382POPC   PO422104  43.583  28.464   9.533
 1382POPC   GL122105  43.725  28.508   9.122
 1382POPC   GL222106  44.054  28.619   9.049
 1382POPC   C1A22107  43.731  28.257   8.753
 1382POPC   D2A22108  43.587  28.366   8.351
 1382POPC   C3A22109  43.717  28.190   8.008
 1382POPC   C4A22110  43.711  28.378   7.660
 1382POPC   C1B22111  44.246  28.340   8.754
 1382POPC   C2B22112  44.135  28.198   8.333
 1382POPC   C3B22113  44.116  28.493   7.994
 1382POPC   C4B22114  44.172  28.537   7.534
 1383POPC   NC322115   0.178  36.606   9.360
 1383POPC   PO422116   0.753  36.953   9.697
 1383POPC   GL122117   0.551  36.938   9.249
 1383POPC   GL222118   0.383  37.247   9.217
 1383POPC   C1A22119   0.562  36.746   8.792
 1383POPC   D2A22120   0.583  36.974   8.374
 1383POPC   C3A22121   0.408  36.799   7.956
 1383POPC   C4A22122   0.548  36.761   7.477
 1383POPC   C1B22123   0.197  37.111   8.817
 1383POPC   C2B22124   0.038  36.995   8.416
 1383POPC   C3B22125  44.923  37.227   8.051
 1383POPC   C4B22126   0.232  37.256   7.774
 1384POPC   NC322127  42.454  29.673   9.571
 1384POPC   PO422128  42.066  30.255   9.494
 1384POPC   GL122129  42.349  30.037   9.159
 1384POPC   GL222130  42.540  29.724   9.087
 1384POPC   C1A22131  42.260  29.992   8.716
 1384POPC   D2A22132  42.408  30.199   8.335
 1384POPC   C3A22133  42.530  30.007   7.983
 1384POPC   C4A22134  42.179  29.954   7.739
 1384POPC   C1B22135  42.702  29.533   8.746
 1384POPC   C2B22136  42.517  29.676   8.396
 1384POPC   C3B22137  42.238  29.581   8.087
 1384POPC   C4B22138  42.486  29.531   7.733
 1385POPC   NC322139  37.340  29.696   9.810
 1385POPC   PO422140  36.977  30.132   9.443
 1385POPC   GL122141  36.788  29.914   9.127
 1385POPC   GL222142  36.713  30.216   8.977
 1385POPC   C1A22143  36.639  29.797   8.715
 1385POPC   D2A22144  36.902  29.582   8.468
 1385POPC   C3A22145  36.985  29.664   8.066
 1385POPC   C4A22146  36.893  29.651   7.681
 1385POPC   C1B22147  36.941  30.406   8.636
 1385POPC   C2B22148  36.877  30.111   8.316
 1385POPC   C3B22149  36.748  30.100   7.901
 1385POPC   C4B22150  36.926  30.095   7.480
 1386POPC   NC322151  43.691  11.425   9.552
 1386POPC   PO422152  44.368  11.589   9.636
 1386POPC   GL122153  44.121  11.455   9.231
 1386POPC   GL222154  43.957  11.122   9.191
 1386POPC   C1A22155  43.922  11.453   8.780
 1386POPC   D2A22156  43.770  11.300   8.374
 1386POPC   C3A22157  43.734  11.511   7.961
 1386POPC   C4A22158  43.868  11.328   7.543
 1386POPC   C1B22159  43.654  10.991   8.832
 1386POPC   C2B22160  43.576  10.827   8.390
 1386POPC   C3B22161  43.681  10.998   7.955
 1386POPC   C4B22162  43.393  11.088   7.582
 1387POPC   NC322163   1.530  38.735   9.516
 1387POPC   PO422164   1.148  38.172   9.413
 1387POPC   GL122165   1.320  38.443   9.118
 1387POPC   GL222166   1.646  38.405   9.139
 1387POPC   C1A22167   1.429  38.586   8.675
 1387POPC   D2A22168   1.225  38.379   8.329
 1387POPC   C3A22169   1.222  38.473   7.886
 1387POPC   C4A22170   1.475  38.800   7.645
 1387POPC   C1B22171   1.474  38.098   8.783
 1387POPC   C2B22172   1.492  37.923   8.416
 1387POPC   C3B22173   1.544  38.095   8.061
 1387POPC   C4B22174   1.698  38.355   7.770
 1388POPC   NC322175  29.810  29.124   9.859
 1388POPC   PO422176  30.218  28.877   9.311
 1388POPC   GL122177  30.002  28.857   8.965
 1388POPC   GL222178  29.908  29.203   9.030
 1388POPC   C1A22179  29.634  28.921   8.712
 1388POPC   D2A22180  29.597  29.218   8.382
 1388POPC   C3A22181  29.636  28.940   8.050
 1388POPC   C4A22182  29.881  29.061   7.725
 1388POPC   C1B22183  30.073  29.207   8.615
 1388POPC   C2B22184  30.103  29.102   8.204
 1388POPC   C3B22185  30.300  29.294   7.874
 1388POPC   C4B22186  30.482  28.910   7.819
 1389POPC   NC322187  40.423  20.532   9.560
 1389POPC   PO422188  40.987  20.883   9.550
 1389POPC   GL122189  40.792  20.667   9.150
 1389POPC   GL222190  41.017  20.396   8.969
 1389POPC   C1A22191  40.691  20.676   8.690
 1389POPC   D2A22192  40.852  20.886   8.318
 1389POPC   C3A22193  40.681  20.895   7.889
 1389POPC   C4A22194  40.461  20.758   7.470
 1389POPC   C1B22195  40.766  20.132   8.667
 1389POPC   C2B22196  40.561  20.291   8.306
 1389POPC   C3B22197  40.876  20.440   8.067
 1389POPC   C4B22198  41.118  20.355   7.749
 1390POPC   NC322199  20.330  16.391   9.497
 1390POPC   PO422200  20.592  15.789   9.705
 1390POPC   GL122201  20.621  16.026   9.212
 1390POPC   GL222202  20.248  16.073   9.076
 1390POPC   C1A22203  20.571  15.849   8.736
 1390POPC   D2A22204  20.765  15.627   8.368
 1390POPC   C3A22205  20.842  15.812   7.938
 1390POPC   C4A22206  20.611  15.912   7.520
 1390POPC   C1B22207  20.062  15.849   8.699
 1390POPC   C2B22208  20.258  15.734   8.312
 1390POPC   C3B22209  20.390  16.024   7.991
 1390POPC   C4B22210  20.162  16.126   7.625
 1391POPC   NC322211  24.369  40.442   9.398
 1391POPC   PO422212  24.911  40.822   9.532
 1391POPC   GL122213  24.749  40.645   9.146
 1391POPC   GL222214  24.454  40.882   9.122
 1391POPC   C1A22215  24.678  40.706   8.704
 1391POPC   D2A22216  24.618  40.574   8.310
 1391POPC   C3A22217  24.212  40.659   8.124
 1391POPC   C4A22218  24.163  41.015   7.880
 1391POPC   C1B22219  24.415  41.168   8.750
 1391POPC   C2B22220  24.469  41.096   8.303
 1391POPC   C3B22221  24.694  40.941   7.940
 1391POPC   C4B22222  24.874  41.157   7.577
 1392POPC   NC322223  14.555  33.381   9.475
 1392POPC   PO422224  14.417  32.781   9.553
 1392POPC   GL122225  14.321  33.015   9.159
 1392POPC   GL222226  14.166  33.374   9.140
 1392POPC   C1A22227  14.401  32.853   8.745
 1392POPC   D2A22228  14.544  33.042   8.361
 1392POPC   C3A22229  14.357  32.967   7.958
 1392POPC   C4A22230  14.423  33.092   7.531
 1392POPC   C1B22231  14.311  33.360   8.710
 1392POPC   C2B22232  14.146  33.351   8.264
 1392POPC   C3B22233  14.278  33.473   7.833
 1392POPC   C4B22234  14.176  33.529   7.364
 1393POPC   NC322235   9.394   8.897   9.598
 1393POPC   PO422236  10.003   9.117   9.591
 1393POPC   GL122237   9.960   8.907   9.172
 1393POPC   GL222238   9.629   8.776   9.166
 1393POPC   C1A22239   9.802   9.032   8.736
 1393POPC   D2A22240   9.996   9.017   8.320
 1393POPC   C3A22241   9.833   9.050   7.923
 1393POPC   C4A22242  10.047   8.973   7.523
 1393POPC   C1B22243   9.608   8.574   8.768
 1393POPC   C2B22244   9.575   8.696   8.352
 1393POPC   C3B22245   9.633   8.546   7.952
 1393POPC   C4B22246   9.622   8.722   7.561
 1394POPC   NC322247  18.638  15.356   9.372
 1394POPC   PO422248  19.298  15.490   9.493
 1394POPC   GL122249  19.121  15.219   9.198
 1394POPC   GL222250  19.266  14.908   9.145
 1394POPC   C1A22251  19.232  15.255   8.766
 1394POPC   D2A22252  19.247  15.500   8.401
 1394POPC   C3A22253  18.955  15.428   8.098
 1394POPC   C4A22254  19.108  15.477   7.705
 1394POPC   C1B22255  18.919  14.866   8.860
 1394POPC   C2B22256  18.890  15.048   8.446
 1394POPC   C3B22257  19.021  14.910   8.036
 1394POPC   C4B22258  18.789  14.799   7.697
 1395POPC   NC322259  43.960  35.222   9.374
 1395POPC   PO422260  43.509  35.728   9.547
 1395POPC   GL122261  43.556  35.501   9.152
 1395POPC   GL222262  43.889  35.574   9.035
 1395POPC   C1A22263  43.593  35.291   8.737
 1395POPC   D2A22264  43.377  35.173   8.373
 1395POPC   C3A22265  43.579  35.026   7.962
 1395POPC   C4A22266  43.744  35.119   7.527
 1395POPC   C1B22267  44.038  35.558   8.617
 1395POPC   C2B22268  43.886  35.339   8.244
 1395POPC   C3B22269  43.799  35.512   7.849
 1395POPC   C4B22270  44.087  35.757   7.590
 1396POPC   NC322271  34.686  40.639   9.485
 1396POPC   PO422272  34.219  41.123   9.486
 1396POPC   GL122273  34.464  40.939   9.148
 1396POPC   GL222274  34.420  40.573   9.049
 1396POPC   C1A22275  34.676  41.018   8.778
 1396POPC   D2A22276  34.620  40.874   8.352
 1396POPC   C3A22277  34.570  41.183   7.991
 1396POPC   C4A22278  34.465  41.187   7.506
 1396POPC   C1B22279  34.828  40.528   8.859
 1396POPC   C2B22280  34.986  40.520   8.454
 1396POPC   C3B22281  34.794  40.426   8.083
 1396POPC   C4B22282  34.635  40.720   7.806
 1397POPC   NC322283  36.345   2.363   9.895
 1397POPC   PO422284  36.057   2.920   9.516
 1397POPC   GL122285  36.044   2.816   9.093
 1397POPC   GL222286  36.019   2.481   9.017
 1397POPC   C1A22287  36.156   2.875   8.650
 1397POPC   D2A22288  36.268   2.705   8.236
 1397POPC   C3A22289  36.187   2.965   7.884
 1397POPC   C4A22290  36.019   2.995   7.462
 1397POPC   C1B22291  36.346   2.401   8.670
 1397POPC   C2B22292  36.663   2.380   8.309
 1397POPC   C3B22293  36.602   2.535   7.867
 1397POPC   C4B22294  36.216   2.535   7.605
 1398POPC   NC322295   3.769  36.280   9.694
 1398POPC   PO422296   3.181  36.434   9.352
 1398POPC   GL122297   3.313  36.310   8.984
 1398POPC   GL222298   3.614  36.413   9.073
 1398POPC   C1A22299   3.299  35.955   8.695
 1398POPC   D2A22300   3.415  35.893   8.276
 1398POPC   C3A22301   3.302  36.145   7.920
 1398POPC   C4A22302   3.535  35.934   7.627
 1398POPC   C1B22303   3.742  36.265   8.684
 1398POPC   C2B22304   3.638  36.373   8.300
 1398POPC   C3B22305   3.828  36.212   7.959
 1398POPC   C4B22306   3.818  36.346   7.559
 1399POPC   NC322307  28.976  42.837   9.454
 1399POPC   PO422308  29.476  43.235   9.597
 1399POPC   GL122309  29.337  43.160   9.159
 1399POPC   GL222310  29.006  43.139   9.058
 1399POPC   C1A22311  29.289  43.371   8.736
 1399POPC   D2A22312  29.455  43.133   8.396
 1399POPC   C3A22313  29.367  43.244   7.995
 1399POPC   C4A22314  29.046  43.500   7.854
 1399POPC   C1B22315  28.875  43.063   8.675
 1399POPC   C2B22316  28.665  42.944   8.300
 1399POPC   C3B22317  28.909  43.024   8.013
 1399POPC   C4B22318  29.047  42.786   7.724
 1400POPC   NC322319  14.883   4.197   9.468
 1400POPC   PO422320  15.471   4.547   9.611
 1400POPC   GL122321  15.296   4.438   9.193
 1400POPC   GL222322  15.225   4.083   9.090
 1400POPC   C1A22323  15.206   4.532   8.738
 1400POPC   D2A22324  15.317   4.294   8.321
 1400POPC   C3A22325  15.178   4.361   7.870
 1400POPC   C4A22326  15.323   4.239   7.439
 1400POPC   C1B22327  15.009   4.068   8.673
 1400POPC   C2B22328  14.838   4.050   8.241
 1400POPC   C3B22329  14.888   3.961   7.787
 1400POPC   C4B22330  14.892   3.980   7.335
 1401POPC   NC322331   9.389  35.310   9.660
 1401POPC   PO422332  10.086  35.207   9.625
 1401POPC   GL122333   9.849  35.231   9.226
 1401POPC   GL222334   9.517  35.400   9.159
 1401POPC   C1A22335   9.957  35.345   8.815
 1401POPC   D2A22336   9.839  35.457   8.414
 1401POPC   C3A22337   9.887  35.296   8.029
 1401POPC   C4A22338   9.914  35.303   7.625
 1401POPC   C1B22339   9.422  35.280   8.720
 1401POPC   C2B22340   9.481  35.105   8.295
 1401POPC   C3B22341   9.424  35.237   7.834
 1401POPC   C4B22342   9.461  35.334   7.396
 1402POPC   NC322343  17.163  13.903   9.503
 1402POPC   PO422344  17.002  14.502   9.501
 1402POPC   GL122345  16.752  14.330   9.181
 1402POPC   GL222346  16.917  14.048   9.079
 1402POPC   C1A22347  16.715  14.497   8.781
 1402POPC   D2A22348  17.052  14.533   8.518
 1402POPC   C3A22349  16.947  14.583   8.099
 1402POPC   C4A22350  16.641  14.526   7.795
 1402POPC   C1B22351  16.750  13.997   8.674
 1402POPC   C2B22352  16.660  14.178   8.280
 1402POPC   C3B22353  16.892  14.089   7.924
 1402POPC   C4B22354  17.105  14.073   7.553
 1403POPC   NC322355  26.798   9.746   9.601
 1403POPC   PO422356  27.348  10.207   9.483
 1403POPC   GL122357  27.004  10.081   9.264
 1403POPC   GL222358  27.035   9.744   9.155
 1403POPC   C1A22359  26.911  10.096   8.810
 1403POPC   D2A22360  26.762   9.901   8.451
 1403POPC   C3A22361  26.635  10.103   8.090
 1403POPC   C4A22362  26.718   9.863   7.739
 1403POPC   C1B22363  26.806   9.525   8.836
 1403POPC   C2B22364  26.533   9.427   8.492
 1403POPC   C3B22365  26.724   9.447   8.078
 1403POPC   C4B22366  26.464   9.445   7.683
 1404POPC   NC322367  42.752   5.627   9.453
 1404POPC   PO422368  43.431   5.698   9.620
 1404POPC   GL122369  43.193   5.886   9.282
 1404POPC   GL222370  43.506   6.026   9.174
 1404POPC   C1A22371  42.970   5.906   8.846
 1404POPC   D2A22372  42.814   5.680   8.466
 1404POPC   C3A22373  42.940   5.875   8.068
 1404POPC   C4A22374  42.758   5.867   7.656
 1404POPC   C1B22375  43.433   5.669   8.887
 1404POPC   C2B22376  43.347   5.579   8.468
 1404POPC   C3B22377  43.405   5.623   8.012
 1404POPC   C4B22378  43.044   5.430   7.794
 1405POPC   NC322379  24.409   4.130   9.732
 1405POPC   PO422380  24.979   4.374   9.622
 1405POPC   GL122381  24.836   4.333   9.195
 1405POPC   GL222382  24.526   4.117   9.206
 1405POPC   C1A22383  24.732   4.500   8.812
 1405POPC   D2A22384  24.442   4.461   8.482
 1405POPC   C3A22385  24.538   4.534   8.061
 1405POPC   C4A22386  24.312   4.375   7.720
 1405POPC   C1B22387  24.727   3.980   8.821
 1405POPC   C2B22388  24.618   3.975   8.385
 1405POPC   C3B22389  24.287   4.014   8.089
 1405POPC   C4B22390  24.484   3.879   7.734
 1406POPC   NC322391  25.289  29.213  10.015
 1406POPC   PO422392  25.025  29.031   9.414
 1406POPC   GL122393  25.105  29.202   9.076
 1406POPC   GL222394  25.425  29.179   9.077
 1406POPC   C1A22395  24.970  29.083   8.709
 1406POPC   D2A22396  24.847  28.937   8.352
 1406POPC   C3A22397  24.949  29.100   7.951
 1406POPC   C4A22398  24.951  28.847   7.558
 1406POPC   C1B22399  25.476  29.052   8.694
 1406POPC   C2B22400  25.323  29.155   8.323
 1406POPC   C3B22401  25.500  29.183   7.948
 1406POPC   C4B22402  25.272  29.242   7.571
 1407POPC   NC322403   2.915  23.018   9.696
 1407POPC   PO422404   3.100  22.486   9.531
 1407POPC   GL122405   2.903  22.726   9.158
 1407POPC   GL222406   2.734  23.030   9.210
 1407POPC   C1A22407   2.702  22.694   8.728
 1407POPC   D2A22408   2.413  22.808   8.417
 1407POPC   C3A22409   2.655  22.860   8.038
 1407POPC   C4A22410   2.736  23.098   7.675
 1407POPC   C1B22411   2.867  23.178   8.804
 1407POPC   C2B22412   2.668  23.268   8.398
 1407POPC   C3B22413   2.745  23.491   7.983
 1407POPC   C4B22414   3.073  23.462   7.586
 1408POPC   NC322415  12.918  40.289   9.533
 1408POPC   PO422416  12.675  40.948   9.555
 1408POPC   GL122417  12.895  40.852   9.199
 1408POPC   GL222418  12.708  40.549   9.168
 1408POPC   C1A22419  12.774  40.888   8.768
 1408POPC   D2A22420  12.566  40.874   8.382
 1408POPC   C3A22421  12.821  40.847   8.024
 1408POPC   C4A22422  12.933  40.988   7.614
 1408POPC   C1B22423  12.876  40.383   8.799
 1408POPC   C2B22424  12.984  40.482   8.370
 1408POPC   C3B22425  12.806  40.336   7.986
 1408POPC   C4B22426  12.681  40.511   7.601
 1409POPC   NC322427  40.910  33.672   9.524
 1409POPC   PO422428  40.258  33.985   9.491
 1409POPC   GL122429  40.547  33.903   9.155
 1409POPC   GL222430  40.899  34.029   9.180
 1409POPC   C1A22431  40.681  33.942   8.712
 1409POPC   D2A22432  40.723  33.711   8.311
 1409POPC   C3A22433  40.672  33.925   7.892
 1409POPC   C4A22434  40.793  33.777   7.468
 1409POPC   C1B22435  41.155  33.824   8.871
 1409POPC   C2B22436  41.200  33.851   8.429
 1409POPC   C3B22437  41.117  33.724   7.985
 1409POPC   C4B22438  41.312  33.812   7.578
 1410POPC   NC322439  41.754   4.293   9.655
 1410POPC   PO422440  41.138   4.625   9.690
 1410POPC   GL122441  41.402   4.471   9.273
 1410POPC   GL222442  41.570   4.152   9.203
 1410POPC   C1A22443  41.653   4.476   8.831
 1410POPC   D2A22444  41.913   4.459   8.443
 1410POPC   C3A22445  41.681   4.497   8.071
 1410POPC   C4A22446  41.595   4.348   7.679
 1410POPC   C1B22447  41.817   3.942   8.845
 1410POPC   C2B22448  41.956   3.945   8.398
 1410POPC   C3B22449  41.764   3.980   7.981
 1410POPC   C4B22450  41.767   3.876   7.530
 1411POPC   NC322451  19.033  23.023   9.563
 1411POPC   PO422452  18.484  22.665   9.491
 1411POPC   GL122453  18.831  22.731   9.144
 1411POPC   GL222454  19.074  23.030   9.071
 1411POPC   C1A22455  19.019  22.605   8.757
 1411POPC   D2A22456  19.227  22.922   8.490
 1411POPC   C3A22457  19.178  22.926   8.041
 1411POPC   C4A22458  18.964  23.214   7.805
 1411POPC   C1B22459  19.380  23.264   8.851
 1411POPC   C2B22460  19.496  23.382   8.428
 1411POPC   C3B22461  19.435  23.377   7.994
 1411POPC   C4B22462  19.414  23.191   7.584
 1412POPC   NC322463   0.143  11.702   9.711
 1412POPC   PO422464   0.599  12.147   9.481
 1412POPC   GL122465   0.385  12.029   9.119
 1412POPC   GL222466   0.521  11.717   9.005
 1412POPC   C1A22467   0.420  12.182   8.695
 1412POPC   D2A22468   0.606  12.471   8.381
 1412POPC   C3A22469   0.351  12.441   8.009
 1412POPC   C4A22470   0.270  12.264   7.648
 1412POPC   C1B22471   0.210  11.689   8.711
 1412POPC   C2B22472   0.146  11.724   8.286
 1412POPC   C3B22473   0.389  11.914   8.002
 1412POPC   C4B22474   0.623  11.892   7.644
 1413POPC   NC322475  23.245  32.141   9.392
 1413POPC   PO422476  22.625  32.545   9.565
 1413POPC   GL122477  22.794  32.316   9.240
 1413POPC   GL222478  23.022  32.481   9.032
 1413POPC   C1A22479  22.650  32.128   8.868
 1413POPC   D2A22480  22.636  32.262   8.442
 1413POPC   C3A22481  22.969  32.145   8.160
 1413POPC   C4A22482  22.860  31.896   7.807
 1413POPC   C1B22483  23.129  32.195   8.694
 1413POPC   C2B22484  23.436  32.307   8.411
 1413POPC   C3B22485  23.364  32.460   8.047
 1413POPC   C4B22486  23.320  32.168   7.754
 1414POPC   NC322487  23.246   3.085   9.465
 1414POPC   PO422488  22.836   2.607   9.630
 1414POPC   GL122489  22.799   2.765   9.227
 1414POPC   GL222490  22.565   3.027   9.252
 1414POPC   C1A22491  22.963   2.816   8.833
 1414POPC   D2A22492  23.048   2.653   8.449
 1414POPC   C3A22493  22.979   2.877   8.083
 1414POPC   C4A22494  22.861   2.674   7.732
 1414POPC   C1B22495  22.461   2.952   8.840
 1414POPC   C2B22496  22.625   2.969   8.452
 1414POPC   C3B22497  22.472   2.938   8.052
 1414POPC   C4B22498  22.393   2.849   7.637
 1415POPC   NC322499   3.404  35.993   9.388
 1415POPC   PO422500   3.189  35.341   9.574
 1415POPC   GL122501   3.486  35.455   9.244
 1415POPC   GL222502   3.234  35.620   9.087
 1415POPC   C1A22503   3.688  35.511   8.813
 1415POPC   D2A22504   3.889  35.683   8.441
 1415POPC   C3A22505   3.719  35.516   8.039
 1415POPC   C4A22506   3.862  35.547   7.616
 1415POPC   C1B22507   3.220  35.384   8.717
 1415POPC   C2B22508   3.136  35.461   8.306
 1415POPC   C3B22509   3.214  35.567   7.889
 1415POPC   C4B22510   3.406  35.295   7.608
 1416POPC   NC322511   6.819  14.842   9.525
 1416POPC   PO422512   7.101  14.193   9.479
 1416POPC   GL122513   7.068  13.982   9.108
 1416POPC   GL222514   7.418  13.960   8.982
 1416POPC   C1A22515   6.901  14.123   8.719
 1416POPC   D2A22516   7.033  14.394   8.364
 1416POPC   C3A22517   7.122  14.386   7.898
 1416POPC   C4A22518   7.157  14.749   7.592
 1416POPC   C1B22519   7.384  14.317   8.752
 1416POPC   C2B22520   7.569  14.456   8.369
 1416POPC   C3B22521   7.653  14.398   7.947
 1416POPC   C4B22522   7.539  14.001   7.809
 1417POPC   NC322523   9.667  41.601   9.506
 1417POPC   PO422524   9.964  42.057   9.090
 1417POPC   GL122525   9.891  41.597   9.043
 1417POPC   GL222526   9.533  41.541   9.014
 1417POPC   C1A22527   9.950  41.431   8.641
 1417POPC   D2A22528   9.813  41.729   8.300
 1417POPC   C3A22529   9.960  41.652   7.887
 1417POPC   C4A22530   9.981  41.773   7.447
 1417POPC   C1B22531   9.454  41.318   8.653
 1417POPC   C2B22532   9.625  41.255   8.261
 1417POPC   C3B22533   9.406  41.504   7.988
 1417POPC   C4B22534   9.511  41.767   7.652
 1418POPC   NC322535  37.321  37.561   9.656
 1418POPC   PO422536  37.848  37.247   9.469
 1418POPC   GL122537  37.579  37.565   9.219
 1418POPC   GL222538  37.815  37.843   9.213
 1418POPC   C1A22539  37.532  37.799   8.801
 1418POPC   D2A22540  37.813  37.831   8.482
 1418POPC   C3A22541  37.759  37.858   8.072
 1418POPC   C4A22542  37.480  37.847   7.778
 1418POPC   C1B22543  37.970  37.530   8.896
 1418POPC   C2B22544  38.035  37.371   8.495
 1418POPC   C3B22545  38.158  37.520   8.088
 1418POPC   C4B22546  38.076  37.343   7.704
 1419POPC   NC322547  20.039  21.521   9.560
 1419POPC   PO422548  19.432  21.339   9.659
 1419POPC   GL122549  19.667  21.380   9.227
 1419POPC   GL222550  20.022  21.311   9.100
 1419POPC   C1A22551  19.615  21.297   8.776
 1419POPC   D2A22552  19.692  21.538   8.407
 1419POPC   C3A22553  19.843  21.316   8.080
 1419POPC   C4A22554  19.623  21.472   7.738
 1419POPC   C1B22555  20.081  21.620   8.747
 1419POPC   C2B22556  20.192  21.736   8.289
 1419POPC   C3B22557  20.088  21.687   7.832
 1419POPC   C4B22558  20.150  21.618   7.388
 1420POPC   NC322559  41.746  41.598   9.487
 1420POPC   PO422560  41.155  41.417   9.457
 1420POPC   GL122561  41.316  41.719   9.172
 1420POPC   GL222562  41.590  41.562   9.001
 1420POPC   C1A22563  41.170  41.674   8.733
 1420POPC   D2A22564  41.467  41.627   8.389
 1420POPC   C3A22565  41.313  41.507   7.995
 1420POPC   C4A22566  41.138  41.175   7.752
 1420POPC   C1B22567  41.855  41.746   8.729
 1420POPC   C2B22568  41.860  41.983   8.368
 1420POPC   C3B22569  41.972  41.829   7.965
 1420POPC   C4B22570  41.767  41.518   7.727
 1421POPC   NC322571  10.956  26.615   9.559
 1421POPC   PO422572  10.757  27.158   9.413
 1421POPC   GL122573  11.074  26.934   9.120
 1421POPC   GL222574  11.150  26.569   9.093
 1421POPC   C1A22575  11.187  26.883   8.667
 1421POPC   D2A22576  11.194  27.028   8.228
 1421POPC   C3A22577  11.266  26.729   7.893
 1421POPC   C4A22578  11.420  26.312   7.832
 1421POPC   C1B22579  10.990  26.412   8.727
 1421POPC   C2B22580  11.007  26.551   8.310
 1421POPC   C3B22581  10.890  26.369   7.944
 1421POPC   C4B22582  10.876  26.546   7.556
 1422POPC   NC322583   5.345   5.682   9.664
 1422POPC   PO422584   4.842   6.016   9.555
 1422POPC   GL122585   5.000   5.751   9.243
 1422POPC   GL222586   5.314   5.881   9.174
 1422POPC   C1A22587   4.907   5.712   8.802
 1422POPC   D2A22588   5.058   5.704   8.383
 1422POPC   C3A22589   4.870   5.841   7.957
 1422POPC   C4A22590   5.043   5.740   7.536
 1422POPC   C1B22591   5.426   5.655   8.804
 1422POPC   C2B22592   5.543   5.608   8.352
 1422POPC   C3B22593   5.368   5.674   7.930
 1422POPC   C4B22594   5.561   5.776   7.518
 1423POPC   NC322595  41.765  12.136   9.596
 1423POPC   PO422596  41.829  11.579   9.423
 1423POPC   GL122597  41.813  11.944   9.111
 1423POPC   GL222598  41.925  12.329   9.133
 1423POPC   C1A22599  41.651  11.992   8.675
 1423POPC   D2A22600  41.688  12.140   8.234
 1423POPC   C3A22601  41.421  11.949   7.884
 1423POPC   C4A22602  41.463  11.819   7.421
 1423POPC   C1B22603  41.788  12.491   8.713
 1423POPC   C2B22604  41.680  12.673   8.293
 1423POPC   C3B22605  41.610  12.511   7.875
 1423POPC   C4B22606  41.773  12.187   7.626
 1424POPC   NC322607  44.730  40.521   9.409
 1424POPC   PO422608   0.078  41.151   9.473
 1424POPC   GL122609  44.777  40.967   9.183
 1424POPC   GL222610  44.425  41.038   9.090
 1424POPC   C1A22611  44.847  40.948   8.764
 1424POPC   D2A22612  44.972  40.735   8.407
 1424POPC   C3A22613  44.681  40.833   8.139
 1424POPC   C4A22614  44.686  40.924   7.708
 1424POPC   C1B22615  44.329  40.843   8.709
 1424POPC   C2B22616  44.128  40.960   8.325
 1424POPC   C3B22617  44.231  40.857   7.930
 1424POPC   C4B22618  44.420  40.502   7.811
 1425POPC   NC322619  36.610  24.788   9.745
 1425POPC   PO422620  36.100  24.498   9.612
 1425POPC   GL122621  36.326  24.624   9.210
 1425POPC   GL222622  36.696  24.583   9.226
 1425POPC   C1A22623  36.271  24.655   8.719
 1425POPC   D2A22624  36.076  24.585   8.281
 1425POPC   C3A22625  36.289  24.604   7.865
 1425POPC   C4A22626  36.295  24.863   7.493
 1425POPC   C1B22627  36.695  24.382   8.787
 1425POPC   C2B22628  36.563  24.357   8.307
 1425POPC   C3B22629  36.487  24.138   7.867
 1425POPC   C4B22630  36.194  24.181   7.506
 1426POPC   NC322631   8.299   6.198   9.848
 1426POPC   PO422632   7.976   6.761   9.643
 1426POPC   GL122633   7.980   6.665   9.197
 1426POPC   GL222634   8.328   6.650   9.034
 1426POPC   C1A22635   7.993   6.928   8.804
 1426POPC   D2A22636   8.166   6.830   8.404
 1426POPC   C3A22637   7.833   6.925   8.115
 1426POPC   C4A22638   7.740   6.766   7.737
 1426POPC   C1B22639   8.465   6.394   8.664
 1426POPC   C2B22640   8.467   6.437   8.216
 1426POPC   C3B22641   8.255   6.654   7.888
 1426POPC   C4B22642   8.449   6.899   7.575
 1427POPC   NC322643   5.851  16.153   9.620
 1427POPC   PO422644   5.534  15.657   9.779
 1427POPC   GL122645   5.557  15.850   9.316
 1427POPC   GL222646   5.930  15.876   9.166
 1427POPC   C1A22647   5.536  16.073   8.881
 1427POPC   D2A22648   5.616  15.885   8.443
 1427POPC   C3A22649   5.665  16.204   8.097
 1427POPC   C4A22650   5.695  16.294   7.638
 1427POPC   C1B22651   6.035  16.060   8.726
 1427POPC   C2B22652   6.128  16.281   8.358
 1427POPC   C3B22653   6.136  15.999   8.056
 1427POPC   C4B22654   6.128  16.072   7.678
 1428POPC   NC322655   3.649  42.582   9.496
 1428POPC   PO422656   3.186  42.092   9.475
 1428POPC   GL122657   3.485  42.180   9.204
 1428POPC   GL222658   3.560  41.842   9.120
 1428POPC   C1A22659   3.746  42.336   8.862
 1428POPC   D2A22660   3.977  42.180   8.527
 1428POPC   C3A22661   3.805  42.251   8.100
 1428POPC   C4A22662   3.897  42.112   7.675
 1428POPC   C1B22663   3.320  42.028   8.760
 1428POPC   C2B22664   3.416  42.269   8.461
 1428POPC   C3B22665   3.261  42.199   8.113
 1428POPC   C4B22666   3.401  42.404   7.816
 1429POPC   NC322667   2.743  10.088   9.551
 1429POPC   PO422668   2.891  10.746   9.386
 1429POPC   GL122669   2.851  10.376   9.128
 1429POPC   GL222670   2.505  10.260   9.141
 1429POPC   C1A22671   2.800  10.428   8.698
 1429POPC   D2A22672   2.708  10.696   8.357
 1429POPC   C3A22673   2.882  10.607   7.962
 1429POPC   C4A22674   2.858  10.719   7.511
 1429POPC   C1B22675   2.472  10.002   8.800
 1429POPC   C2B22676   2.585  10.043   8.405
 1429POPC   C3B22677   2.450  10.108   7.998
 1429POPC   C4B22678   2.628  10.285   7.676
 1430POPC   NC322679  15.430  27.111   9.674
 1430POPC   PO422680  15.223  26.550   9.641
 1430POPC   GL122681  15.311  26.637   9.195
 1430POPC   GL222682  15.494  26.939   9.154
 1430POPC   C1A22683  15.136  26.817   8.802
 1430POPC   D2A22684  15.217  26.669   8.380
 1430POPC   C3A22685  15.132  26.950   8.044
 1430POPC   C4A22686  14.845  27.113   7.746
 1430POPC   C1B22687  15.649  26.766   8.737
 1430POPC   C2B22688  15.708  26.799   8.253
 1430POPC   C3B22689  15.459  26.587   7.914
 1430POPC   C4B22690  15.414  26.758   7.468
 1431POPC   NC322691  39.597  28.538   9.425
 1431POPC   PO422692  38.954  28.571   9.387
 1431POPC   GL122693  39.096  28.376   9.037
 1431POPC   GL222694  39.401  28.561   8.970
 1431POPC   C1A22695  39.166  28.351   8.587
 1431POPC   D2A22696  39.301  28.082   8.278
 1431POPC   C3A22697  39.105  28.179   7.880
 1431POPC   C4A22698  38.933  28.395   7.545
 1431POPC   C1B22699  39.546  28.122   8.878
 1431POPC   C2B22700  39.770  28.060   8.472
 1431POPC   C3B22701  39.707  28.315   8.060
 1431POPC   C4B22702  39.530  28.348   7.604
 1432POPC   NC322703  20.006  23.251   9.524
 1432POPC   PO422704  19.769  23.902   9.406
 1432POPC   GL122705  19.657  23.610   9.135
 1432POPC   GL222706  20.016  23.538   9.091
 1432POPC   C1A22707  19.416  23.770   8.785
 1432POPC   D2A22708  19.213  23.864   8.402
 1432POPC   C3A22709  19.492  23.893   8.056
 1432POPC   C4A22710  19.805  23.883   7.734
 1432POPC   C1B22711  19.909  23.611   8.658
 1432POPC   C2B22712  19.917  23.651   8.198
 1432POPC   C3B22713  19.909  23.380   7.800
 1432POPC   C4B22714  20.172  23.459   7.421
 1433POPC   NC322715  21.653  15.194   9.590
 1433POPC   PO422716  20.970  15.015   9.817
 1433POPC   GL122717  21.189  15.129   9.340
 1433POPC   GL222718  21.268  15.487   9.190
 1433POPC   C1A22719  21.410  15.116   8.884
 1433POPC   D2A22720  21.625  15.309   8.498
 1433POPC   C3A22721  21.536  15.137   8.056
 1433POPC   C4A22722  21.560  14.960   7.627
 1433POPC   C1B22723  21.159  15.574   8.728
 1433POPC   C2B22724  21.237  15.519   8.245
 1433POPC   C3B22725  21.142  15.394   7.813
 1433POPC   C4B22726  21.196  15.246   7.381
 1434POPC   NC322727  40.394   1.844   9.530
 1434POPC   PO422728  40.013   2.353   9.671
 1434POPC   GL122729  40.116   2.191   9.260
 1434POPC   GL222730  39.932   1.874   9.275
 1434POPC   C1A22731  40.286   2.222   8.823
 1434POPC   D2A22732  40.167   2.056   8.443
 1434POPC   C3A22733  40.224   2.171   8.032
 1434POPC   C4A22734  40.035   2.036   7.624
 1434POPC   C1B22735  40.081   1.717   8.866
 1434POPC   C2B22736  40.133   1.551   8.449
 1434POPC   C3B22737  39.985   1.706   8.052
 1434POPC   C4B22738  39.690   1.656   7.705
 1435POPC   NC322739   2.428   9.255   9.526
 1435POPC   PO422740   3.031   9.724   9.543
 1435POPC   GL122741   2.851   9.826   9.140
 1435POPC   GL222742   2.507   9.733   9.237
 1435POPC   C1A22743   3.030   9.978   8.778
 1435POPC   D2A22744   3.185   9.804   8.394
 1435POPC   C3A22745   2.922   9.864   8.068
 1435POPC   C4A22746   3.074  10.096   7.753
 1435POPC   C1B22747   2.416   9.474   8.889
 1435POPC   C2B22748   2.400   9.504   8.431
 1435POPC   C3B22749   2.441   9.342   8.019
 1435POPC   C4B22750   2.594   9.666   7.730
 1436POPC   NC322751  12.211  10.902   9.714
 1436POPC   PO422752  11.875  10.303   9.626
 1436POPC   GL122753  11.847  10.465   9.159
 1436POPC   GL222754  11.996  10.810   9.100
 1436POPC   C1A22755  11.913  10.524   8.678
 1436POPC   D2A22756  12.180  10.389   8.331
 1436POPC   C3A22757  12.263  10.606   7.940
 1436POPC   C4A22758  11.986  10.529   7.629
 1436POPC   C1B22759  12.313  10.822   8.695
 1436POPC   C2B22760  12.122  10.913   8.319
 1436POPC   C3B22761  11.797  10.704   8.090
 1436POPC   C4B22762  11.799  10.981   7.760
 1437POPC   NC322763  36.822  13.900   9.763
 1437POPC   PO422764  36.792  13.359   9.680
 1437POPC   GL122765  36.757  13.600   9.275
 1437POPC   GL222766  37.075  13.590   9.097
 1437POPC   C1A22767  36.660  13.715   8.815
 1437POPC   D2A22768  36.674  13.540   8.373
 1437POPC   C3A22769  36.672  13.732   7.969
 1437POPC   C4A22770  36.940  13.637   7.644
 1437POPC   C1B22771  37.101  13.497   8.648
 1437POPC   C2B22772  37.137  13.689   8.190
 1437POPC   C3B22773  37.325  13.900   7.807
 1437POPC   C4B22774  37.346  13.725   7.338
 1438POPC   NC322775  21.817  16.112   9.951
 1438POPC   PO422776  22.391  15.997   9.602
 1438POPC   GL122777  22.282  16.089   9.148
 1438POPC   GL222778  21.917  16.128   9.122
 1438POPC   C1A22779  22.385  15.910   8.722
 1438POPC   D2A22780  22.554  15.718   8.321
 1438POPC   C3A22781  22.251  15.736   7.984
 1438POPC   C4A22782  22.179  16.091   7.734
 1438POPC   C1B22783  21.918  16.132   8.718
 1438POPC   C2B22784  21.995  15.984   8.339
 1438POPC   C3B22785  21.748  15.703   8.072
 1438POPC   C4B22786  21.776  15.826   7.649
 1439POPC   NC322787   0.090  14.216   9.514
 1439POPC   PO422788   0.736  14.440   9.414
 1439POPC   GL122789   0.446  14.356   9.096
 1439POPC   GL222790   0.117  14.505   9.085
 1439POPC   C1A22791   0.422  14.539   8.694
 1439POPC   D2A22792   0.681  14.642   8.418
 1439POPC   C3A22793   0.520  14.559   8.019
 1439POPC   C4A22794   0.332  14.224   7.780
 1439POPC   C1B22795   0.040  14.210   8.752
 1439POPC   C2B22796   0.129  14.300   8.309
 1439POPC   C3B22797   0.009  14.559   7.960
 1439POPC   C4B22798   0.120  14.627   7.523
 1440POPC   NC322799  42.332  21.455  10.018
 1440POPC   PO422800  42.402  21.496   9.385
 1440POPC   GL122801  42.422  21.703   9.076
 1440POPC   GL222802  42.714  21.559   8.997
 1440POPC   C1A22803  42.241  21.648   8.690
 1440POPC   D2A22804  42.251  21.443   8.313
 1440POPC   C3A22805  42.157  21.763   8.013
 1440POPC   C4A22806  42.035  21.750   7.600
 1440POPC   C1B22807  42.794  21.377   8.618
 1440POPC   C2B22808  42.637  21.084   8.343
 1440POPC   C3B22809  42.740  21.295   7.993
 1440POPC   C4B22810  42.792  21.166   7.604
 1441POPC   NC322811  12.672  37.454   9.422
 1441POPC   PO422812  12.796  36.830   9.620
 1441POPC   GL122813  12.882  37.031   9.195
 1441POPC   GL222814  12.512  37.015   9.172
 1441POPC   C1A22815  12.905  37.109   8.713
 1441POPC   D2A22816  12.769  36.843   8.346
 1441POPC   C3A22817  12.852  36.832   7.873
 1441POPC   C4A22818  12.635  36.625   7.476
 1441POPC   C1B22819  12.459  37.281   8.824
 1441POPC   C2B22820  12.327  37.236   8.435
 1441POPC   C3B22821  12.552  37.212   8.083
 1441POPC   C4B22822  12.799  37.330   7.756
 1442POPC   NC322823  33.182  29.002   9.451
 1442POPC   PO422824  32.647  29.351   9.461
 1442POPC   GL122825  32.662  29.216   9.063
 1442POPC   GL222826  32.889  28.972   9.027
 1442POPC   C1A22827  32.514  29.033   8.701
 1442POPC   D2A22828  32.626  28.921   8.313
 1442POPC   C3A22829  32.927  29.143   8.099
 1442POPC   C4A22830  33.014  29.317   7.726
 1442POPC   C1B22831  33.036  29.119   8.621
 1442POPC   C2B22832  33.376  29.035   8.303
 1442POPC   C3B22833  33.278  28.861   7.858
 1442POPC   C4B22834  33.352  28.593   7.472
 1443POPC   NC322835  17.825  22.613   9.275
 1443POPC   PO422836  17.218  22.261   9.273
 1443POPC   GL122837  17.614  22.123   9.183
 1443POPC   GL222838  17.499  21.790   9.180
 1443POPC   C1A22839  17.737  22.187   8.774
 1443POPC   D2A22840  17.778  22.260   8.367
 1443POPC   C3A22841  17.401  22.372   8.225
 1443POPC   C4A22842  17.409  22.325   7.809
 1443POPC   C1B22843  17.431  21.752   8.766
 1443POPC   C2B22844  17.291  21.888   8.359
 1443POPC   C3B22845  17.461  21.776   7.957
 1443POPC   C4B22846  17.364  21.896   7.545
 1444POPC   NC322847   9.962  40.949   9.503
 1444POPC   PO422848  10.337  40.426   9.429
 1444POPC   GL122849  10.244  40.716   9.116
 1444POPC   GL222850  10.576  40.831   9.141
 1444POPC   C1A22851  10.328  40.661   8.685
 1444POPC   D2A22852  10.576  40.524   8.338
 1444POPC   C3A22853  10.311  40.650   8.013
 1444POPC   C4A22854  10.384  40.867   7.669
 1444POPC   C1B22855  10.817  40.748   8.760
 1444POPC   C2B22856  10.872  40.992   8.382
 1444POPC   C3B22857  10.823  40.858   7.973
 1444POPC   C4B22858  10.714  40.445   7.813
 1445POPC   NC322859  42.949  11.975   9.722
 1445POPC   PO422860  42.247  12.091   9.662
 1445POPC   GL122861  42.530  12.096   9.314
 1445POPC   GL222862  42.318  12.011   9.141
 1445POPC   C1A22863  42.626  12.222   8.820
 1445POPC   D2A22864  42.553  12.082   8.402
 1445POPC   C3A22865  42.190  12.202   8.142
 1445POPC   C4A22866  42.245  12.096   7.734
 1445POPC   C1B22867  42.150  12.073   8.725
 1445POPC   C2B22868  42.077  11.776   8.389
 1445POPC   C3B22869  41.907  11.753   7.946
 1445POPC   C4B22870  41.956  11.707   7.495
 1446POPC   NC322871   0.740  23.889   9.529
 1446POPC   PO422872   0.135  23.653   9.402
 1446POPC   GL122873   0.307  23.541   9.046
 1446POPC   GL222874   0.651  23.573   9.124
 1446POPC   C1A22875   0.308  23.742   8.665
 1446POPC   D2A22876   0.496  23.487   8.366
 1446POPC   C3A22877   0.493  23.571   7.962
 1446POPC   C4A22878   0.432  23.376   7.583
 1446POPC   C1B22879   0.799  23.714   8.732
 1446POPC   C2B22880   0.770  23.934   8.304
 1446POPC   C3B22881   0.767  23.978   7.827
 1446POPC   C4B22882   0.882  24.167   7.413
 1447POPC   NC322883   4.447  29.366   9.518
 1447POPC   PO422884   3.832  29.230   9.338
 1447POPC   GL122885   4.217  29.275   9.075
 1447POPC   GL222886   4.424  28.986   9.159
 1447POPC   C1A22887   4.349  29.210   8.659
 1447POPC   D2A22888   4.531  29.320   8.291
 1447POPC   C3A22889   4.380  29.101   7.968
 1447POPC   C4A22890   4.132  29.341   7.734
 1447POPC   C1B22891   4.137  28.789   8.854
 1447POPC   C2B22892   4.155  28.791   8.401
 1447POPC   C3B22893   4.329  28.588   8.049
 1447POPC   C4B22894   4.632  28.702   7.751
 1448POPC   NC322895  35.186  20.851   9.561
 1448POPC   PO422896  35.441  21.510   9.706
 1448POPC   GL122897  35.248  21.296   9.282
 1448POPC   GL222898  35.446  21.000   9.153
 1448POPC   C1A22899  35.108  21.207   8.817
 1448POPC   D2A22900  35.284  21.106   8.400
 1448POPC   C3A22901  35.186  21.388   8.037
 1448POPC   C4A22902  35.456  21.590   7.727
 1448POPC   C1B22903  35.665  21.028   8.753
 1448POPC   C2B22904  35.798  20.995   8.318
 1448POPC   C3B22905  35.592  21.109   7.915
 1448POPC   C4B22906  35.260  21.088   7.606
 1449POPC   NC322907  22.195  24.928   9.473
 1449POPC   PO422908  22.265  24.319   9.508
 1449POPC   GL122909  22.157  24.521   9.139
 1449POPC   GL222910  22.486  24.667   9.139
 1449POPC   C1A22911  21.984  24.398   8.733
 1449POPC   D2A22912  21.790  24.503   8.330
 1449POPC   C3A22913  21.983  24.427   7.917
 1449POPC   C4A22914  22.271  24.515   7.548
 1449POPC   C1B22915  22.496  24.364   8.785
 1449POPC   C2B22916  22.317  24.224   8.385
 1449POPC   C3B22917  22.499  24.331   7.992
 1449POPC   C4B22918  22.648  24.719   7.886
 1450POPC   NC322919  23.407  14.950   9.559
 1450POPC   PO422920  23.971  14.499   9.510
 1450POPC   GL122921  23.752  14.378   9.170
 1450POPC   GL222922  23.633  14.730   9.155
 1450POPC   C1A22923  23.636  14.125   8.788
 1450POPC   D2A22924  23.509  14.175   8.346
 1450POPC   C3A22925  23.751  14.239   7.973
 1450POPC   C4A22926  23.625  14.252   7.546
 1450POPC   C1B22927  23.746  14.636   8.722
 1450POPC   C2B22928  23.672  14.666   8.295
 1450POPC   C3B22929  23.621  14.744   7.887
 1450POPC   C4B22930  23.676  14.775   7.459
 1451POPC   NC322931  23.227  43.752   9.557
 1451POPC   PO422932  22.603  44.055   9.587
 1451POPC   GL122933  22.838  43.883   9.251
 1451POPC   GL222934  23.123  44.113   9.164
 1451POPC   C1A22935  22.810  43.666   8.875
 1451POPC   D2A22936  22.836  43.801   8.467
 1451POPC   C3A22937  22.945  43.577   8.098
 1451POPC   C4A22938  22.957  43.778   7.711
 1451POPC   C1B22939  22.938  44.200   8.786
 1451POPC   C2B22940  22.793  44.296   8.366
 1451POPC   C3B22941  23.040  44.315   7.971
 1451POPC   C4B22942  23.020  44.498   7.547
 1452POPC   NC322943  33.866  20.628   9.958
 1452POPC   PO422944  33.334  20.521   9.584
 1452POPC   GL122945  33.619  20.596   9.223
 1452POPC   GL222946  33.408  20.432   8.977
 1452POPC   C1A22947  33.829  20.743   8.835
 1452POPC   D2A22948  33.729  20.761   8.396
 1452POPC   C3A22949  34.003  20.691   8.022
 1452POPC   C4A22950  33.848  20.789   7.596
 1452POPC   C1B22951  33.731  20.255   8.714
 1452POPC   C2B22952  33.801  20.252   8.264
 1452POPC   C3B22953  33.688  20.329   7.825
 1452POPC   C4B22954  33.669  20.231   7.375
 1453POPC   NC322955   7.055  29.786   9.411
 1453POPC   PO422956   6.426  29.991   9.579
 1453POPC   GL122957   6.521  30.050   9.170
 1453POPC   GL222958   6.856  30.191   9.088
 1453POPC   C1A22959   6.634  29.874   8.766
 1453POPC   D2A22960   6.461  30.008   8.393
 1453POPC   C3A22961   6.626  29.863   7.994
 1453POPC   C4A22962   6.424  29.598   7.676
 1453POPC   C1B22963   6.540  30.379   8.788
 1453POPC   C2B22964   6.447  30.526   8.382
 1453POPC   C3B22965   6.345  30.328   8.026
 1453POPC   C4B22966   6.284  30.113   7.667
 1454POPC   NC322967  44.325  19.904   9.582
 1454POPC   PO422968  44.910  20.242   9.576
 1454POPC   GL122969  44.773  19.949   9.244
 1454POPC   GL222970  44.451  19.775   9.130
 1454POPC   C1A22971  44.819  19.854   8.804
 1454POPC   D2A22972  44.640  19.777   8.393
 1454POPC   C3A22973  44.775  20.110   8.122
 1454POPC   C4A22974  44.959  19.935   7.766
 1454POPC   C1B22975  44.269  19.845   8.752
 1454POPC   C2B22976  44.084  19.692   8.375
 1454POPC   C3B22977  44.246  19.589   7.987
 1454POPC   C4B22978  44.448  19.936   7.774
 1455POPC   NC322979  14.582  13.480   9.441
 1455POPC   PO422980  14.526  14.086   9.175
 1455POPC   GL122981  14.520  13.644   8.959
 1455POPC   GL222982  14.270  13.383   9.028
 1455POPC   C1A22983  14.586  13.295   8.640
 1455POPC   D2A22984  14.847  13.234   8.308
 1455POPC   C3A22985  14.751  13.626   8.146
 1455POPC   C4A22986  14.532  13.759   7.774
 1455POPC   C1B22987  14.134  13.536   8.625
 1455POPC   C2B22988  14.240  13.631   8.198
 1455POPC   C3B22989  14.077  13.473   7.814
 1455POPC   C4B22990  13.897  13.644   7.414
 1456POPC   NC322991   0.814  20.443   9.456
 1456POPC   PO422992   1.070  21.118   9.526
 1456POPC   GL122993   1.213  20.776   9.292
 1456POPC   GL222994   0.943  20.736   9.054
 1456POPC   C1A22995   1.431  20.713   8.892
 1456POPC   D2A22996   1.223  20.733   8.498
 1456POPC   C3A22997   1.359  20.779   8.099
 1456POPC   C4A22998   1.150  20.783   7.711
 1456POPC   C1B22999   1.015  20.371   8.781
 1456POPC   C2B23000   0.913  20.247   8.352
 1456POPC   C3B23001   1.030  20.301   7.899
 1456POPC   C4B23002   0.979  20.407   7.437
 1457POPC   NC323003  43.554  31.339   9.531
 1457POPC   PO423004  43.935  31.693   9.224
 1457POPC   GL123005  43.611  31.538   9.046
 1457POPC   GL223006  43.404  31.805   8.994
 1457POPC   C1A23007  43.759  31.381   8.680
 1457POPC   D2A23008  43.988  31.191   8.394
 1457POPC   C3A23009  43.880  31.305   8.015
 1457POPC   C4A23010  43.871  31.373   7.588
 1457POPC   C1B23011  43.285  31.677   8.626
 1457POPC   C2B23012  43.593  31.735   8.363
 1457POPC   C3B23013  43.944  31.785   8.141
 1457POPC   C4B23014  43.604  31.734   7.823
 1458POPC   NC323015  12.665   6.538   9.469
 1458POPC   PO423016  12.666   7.135   9.698
 1458POPC   GL123017  12.968   6.924   9.235
 1458POPC   GL223018  12.917   6.578   9.061
 1458POPC   C1A23019  12.809   6.896   8.697
 1458POPC   D2A23020  12.485   6.863   8.370
 1458POPC   C3A23021  12.728   6.814   8.007
 1458POPC   C4A23022  12.879   6.623   7.649
 1458POPC   C1B23023  13.061   6.381   8.731
 1458POPC   C2B23024  12.987   6.518   8.327
 1458POPC   C3B23025  13.161   6.337   7.965
 1458POPC   C4B23026  13.140   6.213   7.537
 1459POPC   NC323027   2.228  39.116   9.513
 1459POPC   PO423028   1.523  39.218   9.445
 1459POPC   GL123029   1.791  38.971   9.151
 1459POPC   GL223030   2.022  39.216   9.062
 1459POPC   C1A23031   1.804  38.933   8.691
 1459POPC   D2A23032   1.649  39.274   8.425
 1459POPC   C3A23033   1.619  39.200   8.004
 1459POPC   C4A23034   1.756  39.257   7.587
 1459POPC   C1B23035   2.266  39.156   8.692
 1459POPC   C2B23036   2.133  39.123   8.261
 1459POPC   C3B23037   2.058  39.461   7.967
 1459POPC   C4B23038   2.056  39.657   7.569
 1460POPC   NC323039  10.822  19.547   9.437
 1460POPC   PO423040  10.802  19.009   9.395
 1460POPC   GL123041  10.534  19.300   9.102
 1460POPC   GL223042  10.791  19.465   8.925
 1460POPC   C1A23043  10.318  19.397   8.694
 1460POPC   D2A23044  10.240  19.286   8.240
 1460POPC   C3A23045  10.391  19.075   7.845
 1460POPC   C4A23046  10.293  18.985   7.396
 1460POPC   C1B23047  10.749  19.097   8.674
 1460POPC   C2B23048  10.715  19.050   8.241
 1460POPC   C3B23049  10.960  19.156   7.890
 1460POPC   C4B23050  11.150  19.058   7.461
 1461POPC   NC323051  33.569  38.677   9.511
 1461POPC   PO423052  33.803  38.033   9.541
 1461POPC   GL123053  33.944  38.175   9.167
 1461POPC   GL223054  33.835  38.473   9.143
 1461POPC   C1A23055  33.735  38.179   8.751
 1461POPC   D2A23056  33.510  38.207   8.354
 1461POPC   C3A23057  33.633  38.431   8.015
 1461POPC   C4A23058  33.527  38.279   7.610
 1461POPC   C1B23059  33.624  38.702   8.819
 1461POPC   C2B23060  33.658  38.819   8.376
 1461POPC   C3B23061  33.711  38.956   7.951
 1461POPC   C4B23062  33.859  38.669   7.605
 1462POPC   NC323063  17.360  21.990   9.620
 1462POPC   PO423064  17.445  21.282   9.509
 1462POPC   GL123065  17.750  21.329   9.204
 1462POPC   GL223066  17.938  21.602   9.335
 1462POPC   C1A23067  17.703  21.306   8.768
 1462POPC   D2A23068  17.515  21.424   8.378
 1462POPC   C3A23069  17.541  21.213   8.022
 1462POPC   C4A23070  17.486  21.361   7.623
 1462POPC   C1B23071  17.944  21.755   8.926
 1462POPC   C2B23072  17.882  21.768   8.490
 1462POPC   C3B23073  17.966  21.753   8.064
 1462POPC   C4B23074  17.972  21.388   7.803
 1463POPC   NC323075  41.923  40.803   9.539
 1463POPC   PO423076  42.492  40.356   9.530
 1463POPC   GL123077  42.518  40.691   9.211
 1463POPC   GL223078  42.265  40.950   9.184
 1463POPC   C1A23079  42.635  40.776   8.794
 1463POPC   D2A23080  42.784  40.624   8.412
 1463POPC   C3A23081  42.599  40.786   8.036
 1463POPC   C4A23082  42.467  40.643   7.602
 1463POPC   C1B23083  42.131  40.673   8.841
 1463POPC   C2B23084  42.257  40.562   8.393
 1463POPC   C3B23085  42.096  40.688   7.961
 1463POPC   C4B23086  42.148  41.119   7.801
 1464POPC   NC323087  30.204  44.059   9.213
 1464POPC   PO423088  30.741  43.675   9.597
 1464POPC   GL123089  30.696  43.669   9.125
 1464POPC   GL223090  30.922  43.952   8.917
 1464POPC   C1A23091  30.531  43.697   8.735
 1464POPC   D2A23092  30.746  43.907   8.339
 1464POPC   C3A23093  30.776  43.823   7.910
 1464POPC   C4A23094  30.553  43.518   7.696
 1464POPC   C1B23095  30.545  44.206   8.681
 1464POPC   C2B23096  30.197  43.955   8.463
 1464POPC   C3B23097  30.263  43.937   8.040
 1464POPC   C4B23098  30.474  44.210   7.793
 1465POPC   NC323099  23.004   4.053   9.519
 1465POPC   PO423100  22.665   4.645   9.584
 1465POPC   GL123101  22.808   4.427   9.206
 1465POPC   GL223102  23.143   4.562   9.143
 1465POPC   C1A23103  22.939   4.183   8.808
 1465POPC   D2A23104  22.814   4.002   8.387
 1465POPC   C3A23105  22.847   4.195   7.970
 1465POPC   C4A23106  23.262   4.324   7.852
 1465POPC   C1B23107  22.873   4.688   8.776
 1465POPC   C2B23108  22.931   4.554   8.362
 1465POPC   C3B23109  22.727   4.721   8.043
 1465POPC   C4B23110  22.579   4.538   7.680
 1466POPC   NC323111   0.679  38.870   9.395
 1466POPC   PO423112   0.530  39.472   9.660
 1466POPC   GL123113   0.457  39.329   9.188
 1466POPC   GL223114   0.395  38.976   9.007
 1466POPC   C1A23115   0.267  39.383   8.719
 1466POPC   D2A23116   0.254  39.026   8.366
 1466POPC   C3A23117   0.408  39.153   7.948
 1466POPC   C4A23118   0.312  39.445   7.627
 1466POPC   C1B23119   0.731  39.203   8.780
 1466POPC   C2B23120   0.672  39.324   8.382
 1466POPC   C3B23121   0.729  39.553   8.044
 1466POPC   C4B23122   0.795  39.354   7.659
 1467POPC   NC323123  28.521  17.912   9.492
 1467POPC   PO423124  28.397  17.360   9.534
 1467POPC   GL123125  28.661  17.313   9.148
 1467POPC   GL223126  28.837  17.608   9.111
 1467POPC   C1A23127  28.547  17.447   8.698
 1467POPC   D2A23128  28.315  17.496   8.276
 1467POPC   C3A23129  28.536  17.369   7.892
 1467POPC   C4A23130  28.621  17.628   7.512
 1467POPC   C1B23131  28.710  17.918   8.805
 1467POPC   C2B23132  28.515  17.971   8.393
 1467POPC   C3B23133  28.504  17.908   7.935
 1467POPC   C4B23134  28.546  18.142   7.525
 1468POPC   NC323135  20.547  26.965   9.640
 1468POPC   PO423136  21.142  26.641   9.400
 1468POPC   GL123137  20.773  26.683   9.118
 1468POPC   GL223138  20.390  26.754   9.198
 1468POPC   C1A23139  20.699  26.858   8.698
 1468POPC   D2A23140  20.494  27.095   8.331
 1468POPC   C3A23141  20.450  26.876   7.974
 1468POPC   C4A23142  20.735  26.620   7.813
 1468POPC   C1B23143  20.322  26.531   8.830
 1468POPC   C2B23144  20.444  26.536   8.399
 1468POPC   C3B23145  20.446  26.268   8.062
 1468POPC   C4B23146  20.297  26.403   7.653
 1469POPC   NC323147   2.083  23.194   9.622
 1469POPC   PO423148   1.931  23.766   9.567
 1469POPC   GL123149   1.880  23.645   9.129
 1469POPC   GL223150   1.973  23.303   9.129
 1469POPC   C1A23151   2.019  23.685   8.668
 1469POPC   D2A23152   2.325  23.654   8.296
 1469POPC   C3A23153   2.235  23.726   7.851
 1469POPC   C4A23154   1.875  23.800   7.587
 1469POPC   C1B23155   1.696  23.309   8.797
 1469POPC   C2B23156   1.639  23.369   8.388
 1469POPC   C3B23157   1.844  23.432   8.001
 1469POPC   C4B23158   1.765  23.295   7.577
 1470POPC   NC323159  23.377  39.110   9.644
 1470POPC   PO423160  22.839  38.742   9.837
 1470POPC   GL123161  22.787  39.111   9.419
 1470POPC   GL223162  23.081  39.097   9.235
 1470POPC   C1A23163  22.776  39.325   8.906
 1470POPC   D2A23164  23.000  39.288   8.457
 1470POPC   C3A23165  22.832  39.391   8.038
 1470POPC   C4A23166  22.595  39.726   7.826
 1470POPC   C1B23167  23.251  39.058   8.830
 1470POPC   C2B23168  23.513  39.260   8.498
 1470POPC   C3B23169  23.368  39.397   8.070
 1470POPC   C4B23170  23.172  39.143   7.750
 1471POPC   NC323171  39.132  24.878   9.608
 1471POPC   PO423172  39.464  25.449   9.587
 1471POPC   GL123173  39.352  25.192   9.219
 1471POPC   GL223174  38.990  25.175   9.199
 1471POPC   C1A23175  39.506  25.065   8.781
 1471POPC   D2A23176  39.350  25.228   8.380
 1471POPC   C3A23177  39.104  25.044   8.057
 1471POPC   C4A23178  39.382  24.903   7.696
 1471POPC   C1B23179  39.054  25.283   8.796
 1471POPC   C2B23180  39.122  25.660   8.526
 1471POPC   C3B23181  39.155  25.603   8.091
 1471POPC   C4B23182  39.106  25.391   7.679
 1472POPC   NC323183  26.112  43.755   9.784
 1472POPC   PO423184  26.048  43.123   9.639
 1472POPC   GL123185  26.097  43.029   9.234
 1472POPC   GL223186  25.768  43.181   9.181
 1472POPC   C1A23187  26.008  42.925   8.818
 1472POPC   D2A23188  26.047  43.130   8.459
 1472POPC   C3A23189  26.110  42.862   8.118
 1472POPC   C4A23190  26.094  43.009   7.720
 1472POPC   C1B23191  25.612  43.319   8.792
 1472POPC   C2B23192  25.524  43.160   8.407
 1472POPC   C3B23193  25.752  43.237   8.047
 1472POPC   C4B23194  25.646  43.203   7.664
 1473POPC   NC323195   7.983  33.983   9.498
 1473POPC   PO423196   8.559  33.652   9.563
 1473POPC   GL123197   8.240  33.673   9.173
 1473POPC   GL223198   8.150  34.032   9.033
 1473POPC   C1A23199   8.143  33.604   8.701
 1473POPC   D2A23200   8.054  33.333   8.306
 1473POPC   C3A23201   8.109  33.486   7.886
 1473POPC   C4A23202   8.081  33.906   7.760
 1473POPC   C1B23203   7.885  34.129   8.699
 1473POPC   C2B23204   7.938  34.072   8.269
 1473POPC   C3B23205   7.721  34.212   7.892
 1473POPC   C4B23206   7.702  34.132   7.423
 1474POPC   NC323207  39.734  34.123   9.394
 1474POPC   PO423208  40.101  34.618   9.617
 1474POPC   GL123209  40.112  34.409   9.177
 1474POPC   GL223210  40.219  34.753   9.041
 1474POPC   C1A23211  39.937  34.199   8.773
 1474POPC   D2A23212  39.750  34.143   8.359
 1474POPC   C3A23213  39.979  34.088   7.962
 1474POPC   C4A23214  40.363  34.325   7.936
 1474POPC   C1B23215  39.822  34.690   8.871
 1474POPC   C2B23216  39.694  34.650   8.461
 1474POPC   C3B23217  39.851  34.586   8.051
 1474POPC   C4B23218  39.815  34.786   7.662
 1475POPC   NC323219  36.363  28.525   9.711
 1475POPC   PO423220  35.712  28.377   9.588
 1475POPC   GL123221  36.068  28.424   9.264
 1475POPC   GL223222  36.422  28.352   9.248
 1475POPC   C1A23223  36.107  28.556   8.833
 1475POPC   D2A23224  35.923  28.417   8.453
 1475POPC   C3A23225  36.072  28.507   8.046
 1475POPC   C4A23226  35.882  28.455   7.644
 1475POPC   C1B23227  36.580  28.287   8.843
 1475POPC   C2B23228  36.416  28.277   8.455
 1475POPC   C3B23229  36.527  28.257   8.032
 1475POPC   C4B23230  36.325  28.219   7.608
 1476POPC   NC323231   3.517  34.915   9.522
 1476POPC   PO423232   3.234  34.350   9.703
 1476POPC   GL123233   3.357  34.373   9.238
 1476POPC   GL223234   3.681  34.599   9.165
 1476POPC   C1A23235   3.405  34.436   8.776
 1476POPC   D2A23236   3.580  34.620   8.404
 1476POPC   C3A23237   3.565  34.332   8.069
 1476POPC   C4A23238   3.519  34.328   7.642
 1476POPC   C1B23239   3.559  34.951   8.835
 1476POPC   C2B23240   3.549  35.140   8.392
 1476POPC   C3B23241   3.597  34.954   7.959
 1476POPC   C4B23242   3.330  34.799   7.604
 1477POPC   NC323243   8.625   6.586   9.434
 1477POPC   PO423244   9.340   6.819   9.458
 1477POPC   GL123245   9.222   6.642   9.053
 1477POPC   GL223246   8.859   6.562   8.975
 1477POPC   C1A23247   9.257   6.391   8.690
 1477POPC   D2A23248   8.966   6.452   8.354
 1477POPC   C3A23249   9.141   6.418   7.950
 1477POPC   C4A23250   9.340   6.751   7.794
 1477POPC   C1B23251   8.635   6.882   8.698
 1477POPC   C2B23252   8.644   7.086   8.331
 1477POPC   C3B23253   8.772   6.864   7.977
 1477POPC   C4B23254   8.950   6.918   7.553
 1478POPC   NC323255  42.413  37.581   9.788
 1478POPC   PO423256  42.939  37.447   9.384
 1478POPC   GL123257  43.112  37.754   9.112
 1478POPC   GL223258  42.869  38.029   9.060
 1478POPC   C1A23259  43.330  37.627   8.746
 1478POPC   D2A23260  43.454  37.795   8.362
 1478POPC   C3A23261  43.148  37.706   8.062
 1478POPC   C4A23262  43.109  37.670   7.618
 1478POPC   C1B23263  42.867  37.841   8.626
 1478POPC   C2B23264  42.759  37.995   8.213
 1478POPC   C3B23265  42.663  37.726   7.861
 1478POPC   C4B23266  42.744  37.278   7.748
 1479POPC   NC323267  24.741   1.787   9.600
 1479POPC   PO423268  24.086   1.931   9.534
 1479POPC   GL123269  24.302   1.781   9.154
 1479POPC   GL223270  24.652   1.919   9.077
 1479POPC   C1A23271  24.276   1.762   8.695
 1479POPC   D2A23272  24.624   1.851   8.422
 1479POPC   C3A23273  24.538   2.012   8.030
 1479POPC   C4A23274  24.695   1.836   7.661
 1479POPC   C1B23275  24.498   2.221   8.745
 1479POPC   C2B23276  24.230   2.227   8.401
 1479POPC   C3B23277  24.214   2.439   8.015
 1479POPC   C4B23278  24.409   2.308   7.631
 1480POPC   NC323279  22.710  38.312   9.729
 1480POPC   PO423280  23.299  37.950   9.470
 1480POPC   GL123281  23.031  38.324   9.275
 1480POPC   GL223282  22.768  38.613   9.331
 1480POPC   C1A23283  22.724  38.320   8.925
 1480POPC   D2A23284  22.716  38.275   8.481
 1480POPC   C3A23285  22.797  38.455   8.078
 1480POPC   C4A23286  23.133  38.645   7.863
 1480POPC   C1B23287  22.773  38.821   8.936
 1480POPC   C2B23288  22.772  38.812   8.483
 1480POPC   C3B23289  22.577  38.920   8.087
 1480POPC   C4B23290  22.722  38.879   7.675
 1481POPC   NC323291  38.467   1.372   9.503
 1481POPC   PO423292  37.926   1.020   9.245
 1481POPC   GL123293  38.286   1.250   9.041
 1481POPC   GL223294  38.670   1.190   9.088
 1481POPC   C1A23295  38.437   1.255   8.639
 1481POPC   D2A23296  38.158   1.288   8.310
 1481POPC   C3A23297  38.247   1.000   7.986
 1481POPC   C4A23298  38.268   1.344   7.714
 1481POPC   C1B23299  38.904   1.475   8.858
 1481POPC   C2B23300  38.825   1.538   8.428
 1481POPC   C3B23301  38.643   1.266   8.169
 1481POPC   C4B23302  38.750   1.084   7.833
 1482POPC   NC323303  39.846  16.990   9.610
 1482POPC   PO423304  40.431  16.669   9.466
 1482POPC   GL123305  40.206  16.590   9.083
 1482POPC   GL223306  39.880  16.629   9.210
 1482POPC   C1A23307  40.010  16.507   8.697
 1482POPC   D2A23308  40.164  16.484   8.278
 1482POPC   C3A23309  39.908  16.729   8.039
 1482POPC   C4A23310  39.858  16.646   7.634
 1482POPC   C1B23311  39.704  16.913   8.922
 1482POPC   C2B23312  39.735  16.973   8.482
 1482POPC   C3B23313  39.709  17.205   8.100
 1482POPC   C4B23314  39.748  17.163   7.688
 1483POPC   NC323315   4.871  30.833   9.540
 1483POPC   PO423316   4.244  30.570   9.664
 1483POPC   GL123317   4.252  30.591   9.216
 1483POPC   GL223318   4.485  30.855   9.175
 1483POPC   C1A23319   4.281  30.475   8.771
 1483POPC   D2A23320   4.560  30.591   8.433
 1483POPC   C3A23321   4.458  30.514   8.027
 1483POPC   C4A23322   4.326  30.476   7.625
 1483POPC   C1B23323   4.291  30.966   8.779
 1483POPC   C2B23324   4.160  30.903   8.298
 1483POPC   C3B23325   4.309  30.959   7.842
 1483POPC   C4B23326   4.221  30.994   7.384
 1484POPC   NC323327  37.844  34.521   9.496
 1484POPC   PO423328  37.984  35.134   9.724
 1484POPC   GL123329  38.129  34.767   9.160
 1484POPC   GL223330  37.995  34.379   9.059
 1484POPC   C1A23331  37.829  34.712   8.745
 1484POPC   D2A23332  37.776  34.538   8.361
 1484POPC   C3A23333  37.589  34.648   8.003
 1484POPC   C4A23334  37.826  34.673   7.641
 1484POPC   C1B23335  37.757  34.074   8.800
 1484POPC   C2B23336  37.615  34.052   8.372
 1484POPC   C3B23337  37.356  34.170   8.055
 1484POPC   C4B23338  37.490  34.295   7.663
 1485POPC   NC323339  18.345  28.751   9.357
 1485POPC   PO423340  18.507  28.104   9.492
 1485POPC   GL123341  18.456  28.322   9.080
 1485POPC   GL223342  18.095  28.411   9.038
 1485POPC   C1A23343  18.527  28.601   8.701
 1485POPC   D2A23344  18.357  28.594   8.275
 1485POPC   C3A23345  18.626  28.397   7.968
 1485POPC   C4A23346  18.469  28.310   7.549
 1485POPC   C1B23347  18.039  28.775   8.740
 1485POPC   C2B23348  17.923  28.895   8.331
 1485POPC   C3B23349  17.909  28.634   7.946
 1485POPC   C4B23350  18.005  28.511   7.501
 1486POPC   NC323351  39.720   4.733   9.469
 1486POPC   PO423352  40.296   5.140   9.533
 1486POPC   GL123353  40.046   4.991   9.164
 1486POPC   GL223354  39.751   5.132   8.986
 1486POPC   C1A23355  40.125   4.934   8.717
 1486POPC   D2A23356  40.265   4.866   8.287
 1486POPC   C3A23357  40.061   5.044   7.910
 1486POPC   C4A23358  39.969   4.988   7.474
 1486POPC   C1B23359  39.957   5.439   8.770
 1486POPC   C2B23360  39.985   5.303   8.367
 1486POPC   C3B23361  39.803   5.474   8.050
 1486POPC   C4B23362  39.610   5.265   7.728
 1487POPC   NC323363  20.697  16.966   9.176
 1487POPC   PO423364  20.837  16.394   9.513
 1487POPC   GL123365  20.852  16.471   9.101
 1487POPC   GL223366  20.502  16.510   9.008
 1487POPC   C1A23367  20.904  16.586   8.673
 1487POPC   D2A23368  20.598  16.724   8.365
 1487POPC   C3A23369  20.667  16.734   7.959
 1487POPC   C4A23370  20.554  16.426   7.679
 1487POPC   C1B23371  20.253  16.764   8.725
 1487POPC   C2B23372  20.231  17.136   8.482
 1487POPC   C3B23373  20.413  17.198   8.076
 1487POPC   C4B23374  20.253  16.962   7.746
 1488POPC   NC323375   8.280  11.353   9.548
 1488POPC   PO423376   7.651  11.141   9.637
 1488POPC   GL123377   7.926  11.055   9.266
 1488POPC   GL223378   8.170  11.333   9.061
 1488POPC   C1A23379   7.854  11.056   8.804
 1488POPC   D2A23380   8.167  11.307   8.538
 1488POPC   C3A23381   8.189  11.259   8.106
 1488POPC   C4A23382   7.829  11.074   7.882
 1488POPC   C1B23383   8.574  11.469   8.797
 1488POPC   C2B23384   8.572  11.702   8.369
 1488POPC   C3B23385   8.466  11.659   7.910
 1488POPC   C4B23386   8.131  11.420   7.616
 1489POPC   NC323387  40.730   5.282   9.667
 1489POPC   PO423388  40.522   5.942   9.496
 1489POPC   GL123389  40.703   5.782   9.156
 1489POPC   GL223390  40.896   5.498   9.202
 1489POPC   C1A23391  40.931   5.830   8.798
 1489POPC   D2A23392  40.814   5.737   8.409
 1489POPC   C3A23393  41.095   5.995   8.129
 1489POPC   C4A23394  41.224   6.189   7.739
 1489POPC   C1B23395  40.908   5.307   8.753
 1489POPC   C2B23396  40.988   5.285   8.271
 1489POPC   C3B23397  40.824   5.624   7.912
 1489POPC   C4B23398  40.525   5.733   7.575
 1490POPC   NC323399  28.828  14.138   9.414
 1490POPC   PO423400  29.208  14.630   9.661
 1490POPC   GL123401  29.280  14.394   9.277
 1490POPC   GL223402  29.010  14.564   9.130
 1490POPC   C1A23403  29.338  14.303   8.808
 1490POPC   D2A23404  29.149  14.374   8.380
 1490POPC   C3A23405  29.279  14.193   7.986
 1490POPC   C4A23406  29.208  14.285   7.563
 1490POPC   C1B23407  28.828  14.327   8.783
 1490POPC   C2B23408  28.587  14.285   8.422
 1490POPC   C3B23409  28.755  14.337   8.009
 1490POPC   C4B23410  28.848  13.995   7.753
 1491POPC   NC323411  20.512  28.629   9.364
 1491POPC   PO423412  20.663  29.205   9.559
 1491POPC   GL123413  20.840  29.212   9.143
 1491POPC   GL223414  20.639  28.942   8.991
 1491POPC   C1A23415  20.728  29.355   8.729
 1491POPC   D2A23416  20.686  29.079   8.384
 1491POPC   C3A23417  20.564  29.368   8.061
 1491POPC   C4A23418  20.499  29.302   7.649
 1491POPC   C1B23419  20.462  28.641   8.695
 1491POPC   C2B23420  20.289  28.751   8.301
 1491POPC   C3B23421  20.557  28.856   7.922
 1491POPC   C4B23422  20.436  28.794   7.464
 1492POPC   NC323423  21.851  17.132   9.886
 1492POPC   PO423424  22.333  16.923   9.476
 1492POPC   GL123425  22.046  17.085   9.153
 1492POPC   GL223426  21.877  17.406   9.240
 1492POPC   C1A23427  22.130  17.233   8.741
 1492POPC   D2A23428  22.349  17.065   8.355
 1492POPC   C3A23429  22.250  17.360   7.992
 1492POPC   C4A23430  22.335  17.810   7.787
 1492POPC   C1B23431  21.824  17.660   8.825
 1492POPC   C2B23432  21.872  17.541   8.338
 1492POPC   C3B23433  21.839  17.710   7.886
 1492POPC   C4B23434  21.702  17.633   7.457
 1493POPC   NC323435   0.985  24.558   9.551
 1493POPC   PO423436   1.182  24.004   9.478
 1493POPC   GL123437   0.942  24.200   9.143
 1493POPC   GL223438   1.023  24.574   9.047
 1493POPC   C1A23439   1.046  24.149   8.710
 1493POPC   D2A23440   1.286  24.177   8.333
 1493POPC   C3A23441   1.163  24.286   7.915
 1493POPC   C4A23442   1.004  24.650   7.752
 1493POPC   C1B23443   1.342  24.589   8.704
 1493POPC   C2B23444   1.339  24.722   8.239
 1493POPC   C3B23445   1.499  24.717   7.800
 1493POPC   C4B23446   1.626  24.835   7.365
 1494POPC   NC323447  11.579   1.019   9.395
 1494POPC   PO423448  11.097   1.492   9.481
 1494POPC   GL123449  11.452   1.460   9.155
 1494POPC   GL223450  11.570   1.153   8.928
 1494POPC   C1A23451  11.428   1.599   8.734
 1494POPC   D2A23452  11.192   1.645   8.387
 1494POPC   C3A23453  11.445   1.481   8.081
 1494POPC   C4A23454  11.443   1.103   7.858
 1494POPC   C1B23455  11.211   1.114   8.748
 1494POPC   C2B23456  11.234   1.065   8.341
 1494POPC   C3B23457  11.192   0.683   8.139
 1494POPC   C4B23458  11.160   0.705   7.717
 1495POPC   NC323459  41.989  32.401   9.424
 1495POPC   PO423460  42.513  31.850   9.508
 1495POPC   GL123461  42.361  32.133   9.140
 1495POPC   GL223462  42.416  32.510   9.167
 1495POPC   C1A23463  42.240  32.340   8.714
 1495POPC   D2A23464  41.938  32.562   8.418
 1495POPC   C3A23465  41.986  32.418   8.004
 1495POPC   C4A23466  42.321  32.148   7.866
 1495POPC   C1B23467  42.658  32.673   8.812
 1495POPC   C2B23468  42.812  32.585   8.409
 1495POPC   C3B23469  42.490  32.602   8.099
 1495POPC   C4B23470  42.572  32.547   7.685
 1496POPC   NC323471  44.994  13.361   9.387
 1496POPC   PO423472  44.317  13.237   9.497
 1496POPC   GL123473  44.520  13.425   9.134
 1496POPC   GL223474  44.813  13.288   8.918
 1496POPC   C1A23475  44.554  13.712   8.781
 1496POPC   D2A23476  44.764  13.611   8.381
 1496POPC   C3A23477  44.602  13.847   8.022
 1496POPC   C4A23478  44.448  13.805   7.619
 1496POPC   C1B23479  44.680  13.059   8.539
 1496POPC   C2B23480  44.724  13.120   8.089
 1496POPC   C3B23481  44.848  13.435   7.769
 1496POPC   C4B23482   0.109  13.381   7.412
 1497POPC   NC323483  23.369  36.404   9.705
 1497POPC   PO423484  23.890  36.169   9.643
 1497POPC   GL123485  23.733  36.147   9.183
 1497POPC   GL223486  23.682  35.802   9.066
 1497POPC   C1A23487  23.889  36.149   8.720
 1497POPC   D2A23488  23.818  36.047   8.277
 1497POPC   C3A23489  24.036  36.183   7.892
 1497POPC   C4A23490  23.955  36.101   7.412
 1497POPC   C1B23491  23.644  35.677   8.615
 1497POPC   C2B23492  23.676  35.576   8.163
 1497POPC   C3B23493  23.702  35.824   7.810
 1497POPC   C4B23494  23.479  35.919   7.488
 1498POPC   NC323495  19.075  25.787   9.695
 1498POPC   PO423496  19.337  25.122   9.653
 1498POPC   GL123497  19.179  24.943   9.208
 1498POPC   GL223498  18.794  24.917   9.135
 1498POPC   C1A23499  19.124  25.177   8.808
 1498POPC   D2A23500  19.218  25.580   8.586
 1498POPC   C3A23501  19.119  25.581   8.136
 1498POPC   C4A23502  19.345  25.676   7.745
 1498POPC   C1B23503  18.568  24.990   8.768
 1498POPC   C2B23504  18.581  25.228   8.403
 1498POPC   C3B23505  18.754  25.187   8.034
 1498POPC   C4B23506  18.620  25.166   7.639
 1499POPC   NC323507  15.341  23.260   9.452
 1499POPC   PO423508  15.246  23.919   9.475
 1499POPC   GL123509  15.181  23.801   9.087
 1499POPC   GL223510  14.970  23.547   9.016
 1499POPC   C1A23511  15.300  23.876   8.703
 1499POPC   D2A23512  15.146  23.711   8.352
 1499POPC   C3A23513  15.251  23.981   8.000
 1499POPC   C4A23514  15.478  24.287   7.727
 1499POPC   C1B23515  15.279  23.368   8.771
 1499POPC   C2B23516  15.486  23.337   8.379
 1499POPC   C3B23517  15.388  23.471   7.959
 1499POPC   C4B23518  15.636  23.786   7.727
 1500POPC   NC323519  21.338  19.727   9.710
 1500POPC   PO423520  20.889  19.395   9.558
 1500POPC   GL123521  21.105  19.716   9.239
 1500POPC   GL223522  21.492  19.811   9.180
 1500POPC   C1A23523  21.158  19.793   8.785
 1500POPC   D2A23524  21.135  20.097   8.436
 1500POPC   C3A23525  21.174  19.874   8.032
 1500POPC   C4A23526  21.333  19.823   7.599
 1500POPC   C1B23527  21.583  20.075   8.750
 1500POPC   C2B23528  21.653  20.053   8.264
 1500POPC   C3B23529  21.785  19.938   7.830
 1500POPC   C4B23530  21.829  19.689   7.431
 1501POPC   NC323531  22.403   1.601   9.749
 1501POPC   PO423532  22.012   2.095   9.389
 1501POPC   GL123533  22.110   2.030   9.027
 1501POPC   GL223534  22.463   2.144   9.112
 1501POPC   C1A23535  22.090   2.167   8.627
 1501POPC   D2A23536  22.325   2.092   8.269
 1501POPC   C3A23537  22.153   1.924   7.895
 1501POPC   C4A23538  22.160   2.045   7.431
 1501POPC   C1B23539  22.533   1.948   8.730
 1501POPC   C2B23540  22.566   1.621   8.423
 1501POPC   C3B23541  22.397   1.468   8.028
 1501POPC   C4B23542  22.420   1.592   7.596
 1502POPC   NC323543  29.682  28.172   9.583
 1502POPC   PO423544  30.000  28.717   9.772
 1502POPC   GL123545  30.037  28.422   9.333
 1502POPC   GL223546  29.723  28.433   9.108
 1502POPC   C1A23547  30.171  28.383   8.882
 1502POPC   D2A23548  30.051  28.380   8.429
 1502POPC   C3A23549  30.264  28.483   8.045
 1502POPC   C4A23550  30.039  28.581   7.679
 1502POPC   C1B23551  29.699  28.177   8.733
 1502POPC   C2B23552  29.605  28.171   8.280
 1502POPC   C3B23553  29.670  28.276   7.871
 1502POPC   C4B23554  29.604  28.345   7.453
 1503POPC   NC323555  16.203   5.823   9.501
 1503POPC   PO423556  15.611   6.138   9.534
 1503POPC   GL123557  15.803   5.860   9.168
 1503POPC   GL223558  16.126   5.993   9.026
 1503POPC   C1A23559  15.881   5.678   8.706
 1503POPC   D2A23560  15.968   5.940   8.327
 1503POPC   C3A23561  16.102   5.843   7.882
 1503POPC   C4A23562  15.868   5.643   7.495
 1503POPC   C1B23563  15.747   6.175   8.767
 1503POPC   C2B23564  15.671   6.360   8.356
 1503POPC   C3B23565  15.766   6.237   7.951
 1503POPC   C4B23566  15.647   6.440   7.590
 1504POPC   NC323567  14.756  10.319   9.445
 1504POPC   PO423568  15.234  10.888   9.494
 1504POPC   GL123569  15.397  10.673   9.124
 1504POPC   GL223570  15.216  10.345   9.132
 1504POPC   C1A23571  15.448  10.483   8.690
 1504POPC   D2A23572  15.339  10.410   8.263
 1504POPC   C3A23573  15.341  10.662   7.880
 1504POPC   C4A23574  15.336  10.524   7.435
 1504POPC   C1B23575  14.957  10.613   8.846
 1504POPC   C2B23576  14.818  10.507   8.440
 1504POPC   C3B23577  14.867  10.492   8.019
 1504POPC   C4B23578  14.876  10.686   7.609
 1505POPC   NC323579  24.416   7.950   9.528
 1505POPC   PO423580  24.480   7.227   9.573
 1505POPC   GL123581  24.547   7.086   9.125
 1505POPC   GL223582  24.537   7.448   9.047
 1505POPC   C1A23583  24.751   7.154   8.700
 1505POPC   D2A23584  24.519   7.266   8.314
 1505POPC   C3A23585  24.673   7.366   7.894
 1505POPC   C4A23586  24.666   7.132   7.476
 1505POPC   C1B23587  24.633   7.674   8.662
 1505POPC   C2B23588  24.523   7.780   8.219
 1505POPC   C3B23589  24.256   7.745   7.846
 1505POPC   C4B23590  24.162   7.982   7.458
 1506POPC   NC323591  17.589  32.664   9.552
 1506POPC   PO423592  16.959  32.865   9.655
 1506POPC   GL123593  17.213  32.914   9.233
 1506POPC   GL223594  17.577  33.000   9.163
 1506POPC   C1A23595  17.282  32.901   8.745
 1506POPC   D2A23596  17.387  32.710   8.306
 1506POPC   C3A23597  17.436  32.966   7.904
 1506POPC   C4A23598  17.343  32.882   7.465
 1506POPC   C1B23599  17.740  33.157   8.753
 1506POPC   C2B23600  17.757  33.049   8.316
 1506POPC   C3B23601  17.912  33.145   7.902
 1506POPC   C4B23602  17.737  33.268   7.488
 1507POPC   NC323603  40.159   3.790   9.699
 1507POPC   PO423604  39.813   4.291   9.523
 1507POPC   GL123605  39.992   4.443   9.094
 1507POPC   GL223606  39.770   4.610   8.941
 1507POPC   C1A23607  40.219   4.422   8.651
 1507POPC   D2A23608  40.423   4.378   8.217
 1507POPC   C3A23609  40.081   4.515   7.946
 1507POPC   C4A23610  39.814   4.273   7.691
 1507POPC   C1B23611  39.611   4.821   8.604
 1507POPC   C2B23612  39.704   4.814   8.176
 1507POPC   C3B23613  39.586   4.742   7.719
 1507POPC   C4B23614  39.719   4.575   7.283
 1508POPC   NC323615  18.012   5.306   9.436
 1508POPC   PO423616  18.653   5.287   9.456
 1508POPC   GL123617  18.403   5.295   9.088
 1508POPC   GL223618  18.334   4.994   9.099
 1508POPC   C1A23619  18.192   5.245   8.652
 1508POPC   D2A23620  18.039   4.953   8.304
 1508POPC   C3A23621  18.148   5.095   7.875
 1508POPC   C4A23622  18.099   5.322   7.494
 1508POPC   C1B23623  18.259   4.735   8.743
 1508POPC   C2B23624  18.483   4.603   8.365
 1508POPC   C3B23625  18.277   4.596   7.952
 1508POPC   C4B23626  18.315   4.771   7.515
 1509POPC   NC323627   0.989  22.921   9.577
 1509POPC   PO423628   1.646  23.118   9.490
 1509POPC   GL123629   1.501  22.960   9.104
 1509POPC   GL223630   1.188  22.842   9.113
 1509POPC   C1A23631   1.448  22.885   8.643
 1509POPC   D2A23632   1.218  23.100   8.308
 1509POPC   C3A23633   1.422  23.135   7.943
 1509POPC   C4A23634   1.227  23.235   7.595
 1509POPC   C1B23635   0.954  22.761   8.749
 1509POPC   C2B23636   1.036  22.623   8.319
 1509POPC   C3B23637   1.086  22.731   7.880
 1509POPC   C4B23638   1.231  22.487   7.547
 1510POPC   NC323639  23.288  42.331   9.681
 1510POPC   PO423640  23.953  42.010   9.676
 1510POPC   GL123641  23.758  42.084   9.264
 1510POPC   GL223642  23.486  42.305   9.199
 1510POPC   C1A23643  23.710  42.015   8.808
 1510POPC   D2A23644  23.856  42.075   8.355
 1510POPC   C3A23645  23.623  42.264   8.016
 1510POPC   C4A23646  23.557  42.220   7.547
 1510POPC   C1B23647  23.612  42.510   8.813
 1510POPC   C2B23648  23.798  42.728   8.452
 1510POPC   C3B23649  23.895  42.732   8.005
 1510POPC   C4B23650  23.540  42.697   7.770
 1511POPC   NC323651  39.397  23.565   9.498
 1511POPC   PO423652  39.070  24.125   9.474
 1511POPC   GL123653  39.348  23.954   9.118
 1511POPC   GL223654  39.430  23.623   9.005
 1511POPC   C1A23655  39.504  24.007   8.707
 1511POPC   D2A23656  39.408  23.709   8.405
 1511POPC   C3A23657  39.255  23.791   8.023
 1511POPC   C4A23658  39.417  23.640   7.647
 1511POPC   C1B23659  39.057  23.671   8.791
 1511POPC   C2B23660  38.892  23.363   8.508
 1511POPC   C3B23661  39.110  23.329   8.142
 1511POPC   C4B23662  38.931  23.478   7.753
 1512POPC   NC323663  35.861   5.797   9.512
 1512POPC   PO423664  36.459   5.495   9.389
 1512POPC   GL123665  36.167   5.622   9.110
 1512POPC   GL223666  36.087   5.937   9.085
 1512POPC   C1A23667  35.990   5.555   8.719
 1512POPC   D2A23668  35.868   5.717   8.356
 1512POPC   C3A23669  36.072   5.485   8.055
 1512POPC   C4A23670  36.184   5.618   7.631
 1512POPC   C1B23671  36.206   6.047   8.707
 1512POPC   C2B23672  36.052   6.174   8.331
 1512POPC   C3B23673  36.061   5.997   7.943
 1512POPC   C4B23674  35.805   5.973   7.584
 1513POPC   NC323675  22.379  13.711   9.534
 1513POPC   PO423676  21.869  13.335   9.409
 1513POPC   GL123677  22.261  13.454   9.098
 1513POPC   GL223678  22.369  13.837   9.064
 1513POPC   C1A23679  22.315  13.579   8.646
 1513POPC   D2A23680  22.352  13.426   8.244
 1513POPC   C3A23681  22.047  13.567   7.913
 1513POPC   C4A23682  21.602  13.665   7.798
 1513POPC   C1B23683  22.333  14.092   8.681
 1513POPC   C2B23684  22.317  13.945   8.260
 1513POPC   C3B23685  22.530  13.773   7.905
 1513POPC   C4B23686  22.252  13.943   7.601
 1514POPC   NC323687  42.534  24.188   9.614
 1514POPC   PO423688  42.095  24.691   9.825
 1514POPC   GL123689  42.107  24.661   9.360
 1514POPC   GL223690  41.927  24.369   9.256
 1514POPC   C1A23691  42.407  24.537   9.018
 1514POPC   D2A23692  42.606  24.634   8.607
 1514POPC   C3A23693  42.335  24.682   8.235
 1514POPC   C4A23694  42.419  24.356   7.945
 1514POPC   C1B23695  41.939  24.464   8.819
 1514POPC   C2B23696  42.079  24.285   8.420
 1514POPC   C3B23697  41.921  24.358   8.013
 1514POPC   C4B23698  42.057  24.695   7.736
 1515POPC   NC323699  34.900  29.600   9.559
 1515POPC   PO423700  34.771  30.288   9.453
 1515POPC   GL123701  34.483  30.122   9.182
 1515POPC   GL223702  34.502  29.748   9.221
 1515POPC   C1A23703  34.444  30.068   8.738
 1515POPC   D2A23704  34.684  30.187   8.385
 1515POPC   C3A23705  34.641  29.956   8.025
 1515POPC   C4A23706  34.531  30.101   7.643
 1515POPC   C1B23707  34.644  29.600   8.798
 1515POPC   C2B23708  34.832  29.586   8.374
 1515POPC   C3B23709  34.994  29.609   7.932
 1515POPC   C4B23710  34.787  29.639   7.543
 1516POPC   NC323711  42.221   4.869   9.552
 1516POPC   PO423712  42.284   5.596   9.532
 1516POPC   GL123713  42.423   5.304   9.204
 1516POPC   GL223714  42.164   5.090   9.112
 1516POPC   C1A23715  42.562   5.243   8.756
 1516POPC   D2A23716  42.555   5.084   8.315
 1516POPC   C3A23717  42.344   5.255   7.981
 1516POPC   C4A23718  42.221   5.082   7.603
 1516POPC   C1B23719  42.058   4.787   8.832
 1516POPC   C2B23720  42.079   4.954   8.442
 1516POPC   C3B23721  42.116   4.779   8.034
 1516POPC   C4B23722  41.858   4.762   7.655
 1517POPC   NC323723  29.900  43.093   9.686
 1517POPC   PO423724  30.015  43.695   9.458
 1517POPC   GL123725  29.816  43.316   9.230
 1517POPC   GL223726  29.946  42.947   9.192
 1517POPC   C1A23727  29.753  43.216   8.812
 1517POPC   D2A23728  29.981  42.963   8.562
 1517POPC   C3A23729  29.893  43.024   8.116
 1517POPC   C4A23730  29.774  43.160   7.689
 1517POPC   C1B23731  30.219  43.309   8.973
 1517POPC   C2B23732  30.160  43.435   8.519
 1517POPC   C3B23733  30.394  43.238   8.190
 1517POPC   C4B23734  30.308  43.063   7.789
 1518POPC   NC323735  42.883  17.890   9.500
 1518POPC   PO423736  43.238  17.281   9.648
 1518POPC   GL123737  43.060  17.404   9.267
 1518POPC   GL223738  43.242  17.715   9.174
 1518POPC   C1A23739  42.914  17.521   8.864
 1518POPC   D2A23740  43.151  17.712   8.550
 1518POPC   C3A23741  43.063  17.541   8.162
 1518POPC   C4A23742  43.067  17.728   7.767
 1518POPC   C1B23743  43.518  17.890   8.890
 1518POPC   C2B23744  43.597  17.972   8.502
 1518POPC   C3B23745  43.412  17.908   8.116
 1518POPC   C4B23746  43.576  17.784   7.722
 1519POPC   NC323747  40.549  27.626   9.629
 1519POPC   PO423748  41.023  27.154   9.631
 1519POPC   GL123749  40.928  27.441   9.252
 1519POPC   GL223750  40.926  27.815   9.300
 1519POPC   C1A23751  41.030  27.504   8.787
 1519POPC   D2A23752  41.001  27.400   8.356
 1519POPC   C3A23753  41.125  27.608   7.983
 1519POPC   C4A23754  40.884  27.576   7.629
 1519POPC   C1B23755  40.648  27.803   8.924
 1519POPC   C2B23756  40.777  27.848   8.465
 1519POPC   C3B23757  40.623  27.672   8.078
 1519POPC   C4B23758  40.407  27.802   7.716
 1520POPC   NC323759  26.793  24.241   9.622
 1520POPC   PO423760  26.589  24.889   9.547
 1520POPC   GL123761  26.814  24.580   9.201
 1520POPC   GL223762  26.806  24.211   9.131
 1520POPC   C1A23763  26.956  24.517   8.761
 1520POPC   D2A23764  26.737  24.473   8.376
 1520POPC   C3A23765  26.990  24.340   8.043
 1520POPC   C4A23766  27.130  24.522   7.655
 1520POPC   C1B23767  26.658  24.068   8.728
 1520POPC   C2B23768  26.663  23.957   8.287
 1520POPC   C3B23769  26.490  24.208   7.991
 1520POPC   C4B23770  26.649  24.382   7.649
 1521POPC   NC323771   8.984  38.958   9.580
 1521POPC   PO423772   8.856  39.582   9.474
 1521POPC   GL123773   8.862  39.291   9.158
 1521POPC   GL223774   9.190  39.133   9.157
 1521POPC   C1A23775   8.791  39.347   8.739
 1521POPC   D2A23776   9.007  39.303   8.377
 1521POPC   C3A23777   8.788  39.246   8.044
 1521POPC   C4A23778   8.927  39.219   7.672
 1521POPC   C1B23779   9.318  39.218   8.759
 1521POPC   C2B23780   9.466  39.049   8.389
 1521POPC   C3B23781   9.336  39.108   7.969
 1521POPC   C4B23782   9.188  38.790   7.682
 1522POPC   NC323783  23.557   3.618   9.616
 1522POPC   PO423784  24.169   3.809   9.465
 1522POPC   GL123785  23.852   3.506   9.204
 1522POPC   GL223786  23.473   3.441   9.158
 1522POPC   C1A23787  23.770   3.451   8.758
 1522POPC   D2A23788  23.810   3.285   8.349
 1522POPC   C3A23789  23.689   3.637   8.107
 1522POPC   C4A23790  23.609   3.694   7.682
 1522POPC   C1B23791  23.331   3.175   8.824
 1522POPC   C2B23792  23.103   3.186   8.470
 1522POPC   C3B23793  23.316   3.271   8.121
 1522POPC   C4B23794  23.247   3.355   7.741
 1523POPC   NC323795   5.475  30.487   9.567
 1523POPC   PO423796   4.742  30.430   9.366
 1523POPC   GL123797   4.959  30.647   9.069
 1523POPC   GL223798   5.156  30.964   9.112
 1523POPC   C1A23799   5.001  30.612   8.675
 1523POPC   D2A23800   5.209  30.559   8.346
 1523POPC   C3A23801   4.988  30.414   8.056
 1523POPC   C4A23802   5.039  30.561   7.681
 1523POPC   C1B23803   4.793  31.051   8.826
 1523POPC   C2B23804   4.615  31.098   8.392
 1523POPC   C3B23805   4.809  30.912   8.001
 1523POPC   C4B23806   5.256  31.031   7.873
 1524POPC   NC323807  21.100  34.116   9.564
 1524POPC   PO423808  21.003  34.699   9.615
 1524POPC   GL123809  21.290  34.601   9.264
 1524POPC   GL223810  21.148  34.329   9.103
 1524POPC   C1A23811  21.441  34.646   8.802
 1524POPC   D2A23812  21.582  34.407   8.440
 1524POPC   C3A23813  21.344  34.462   8.082
 1524POPC   C4A23814  21.494  34.687   7.727
 1524POPC   C1B23815  21.296  34.129   8.752
 1524POPC   C2B23816  21.463  33.905   8.405
 1524POPC   C3B23817  21.572  34.008   8.001
 1524POPC   C4B23818  21.314  34.181   7.654
 1525POPC   NC323819  22.597   8.892   9.803
 1525POPC   PO423820  23.019   9.217   9.645
 1525POPC   GL123821  23.187   9.038   9.237
 1525POPC   GL223822  22.932   9.177   9.028
 1525POPC   C1A23823  23.243   8.824   8.816
 1525POPC   D2A23824  23.021   8.913   8.422
 1525POPC   C3A23825  23.140   8.889   7.992
 1525POPC   C4A23826  22.897   8.882   7.623
 1525POPC   C1B23827  23.225   9.322   8.698
 1525POPC   C2B23828  23.238   9.348   8.233
 1525POPC   C3B23829  22.879   9.320   7.954
 1525POPC   C4B23830  22.709   9.346   7.549
 1526POPC   NC323831  19.152   1.773   9.534
 1526POPC   PO423832  18.560   1.995   9.523
 1526POPC   GL123833  18.884   2.073   9.187
 1526POPC   GL223834  19.175   2.261   9.230
 1526POPC   C1A23835  19.057   1.992   8.791
 1526POPC   D2A23836  19.109   1.725   8.445
 1526POPC   C3A23837  19.050   1.980   8.085
 1526POPC   C4A23838  18.993   1.852   7.688
 1526POPC   C1B23839  19.479   2.286   8.869
 1526POPC   C2B23840  19.411   2.165   8.438
 1526POPC   C3B23841  19.374   2.396   8.056
 1526POPC   C4B23842  19.398   2.169   7.703
 1527POPC   NC323843  29.505  11.184   9.399
 1527POPC   PO423844  30.218  11.037   9.417
 1527POPC   GL123845  30.068  11.292   9.095
 1527POPC   GL223846  29.740  11.198   8.967
 1527POPC   C1A23847  30.073  11.429   8.684
 1527POPC   D2A23848  30.222  11.208   8.328
 1527POPC   C3A23849  30.114  11.410   7.956
 1527POPC   C4A23850  30.110  11.609   7.514
 1527POPC   C1B23851  29.838  10.948   8.631
 1527POPC   C2B23852  29.474  10.902   8.400
 1527POPC   C3B23853  29.474  11.152   8.074
 1527POPC   C4B23854  29.761  11.194   7.705
 1528POPC   NC323855  43.666  14.518   9.393
 1528POPC   PO423856  44.206  14.125   9.596
 1528POPC   GL123857  43.997  14.171   9.178
 1528POPC   GL223858  43.667  14.016   9.230
 1528POPC   C1A23859  43.907  14.386   8.764
 1528POPC   D2A23860  43.759  14.739   8.477
 1528POPC   C3A23861  43.750  14.542   8.043
 1528POPC   C4A23862  43.831  14.490   7.597
 1528POPC   C1B23863  43.489  14.058   8.837
 1528POPC   C2B23864  43.642  14.063   8.444
 1528POPC   C3B23865  43.458  14.052   8.049
 1528POPC   C4B23866  43.596  14.052   7.653
 1529POPC   NC323867   2.374  34.592   9.399
 1529POPC   PO423868   1.738  34.752   9.076
 1529POPC   GL123869   2.120  34.624   8.920
 1529POPC   GL223870   2.153  34.306   9.042
 1529POPC   C1A23871   2.218  34.463   8.546
 1529POPC   D2A23872   2.006  34.248   8.210
 1529POPC   C3A23873   1.984  34.512   7.862
 1529POPC   C4A23874   1.894  34.928   7.688
 1529POPC   C1B23875   1.827  34.158   8.729
 1529POPC   C2B23876   1.593  33.997   8.373
 1529POPC   C3B23877   1.565  34.172   7.950
 1529POPC   C4B23878   1.641  34.313   7.508
 1530POPC   NC323879  22.586  28.639   9.468
 1530POPC   PO423880  22.740  28.070   9.750
 1530POPC   GL123881  22.779  28.272   9.202
 1530POPC   GL223882  23.079  28.425   9.072
 1530POPC   C1A23883  22.869  28.088   8.779
 1530POPC   D2A23884  23.164  28.230   8.520
 1530POPC   C3A23885  23.019  28.238   8.097
 1530POPC   C4A23886  22.904  28.062   7.722
 1530POPC   C1B23887  22.998  28.667   8.697
 1530POPC   C2B23888  23.098  28.884   8.325
 1530POPC   C3B23889  23.231  28.693   7.971
 1530POPC   C4B23890  22.911  28.573   7.684
 1531POPC   NC323891  11.336  37.175   9.737
 1531POPC   PO423892  11.509  37.844   9.681
 1531POPC   GL123893  11.439  37.613   9.274
 1531POPC   GL223894  11.732  37.681   9.142
 1531POPC   C1A23895  11.152  37.620   8.872
 1531POPC   D2A23896  11.218  37.648   8.427
 1531POPC   C3A23897  11.341  37.954   8.149
 1531POPC   C4A23898  11.136  37.892   7.766
 1531POPC   C1B23899  11.608  37.809   8.729
 1531POPC   C2B23900  11.719  37.591   8.347
 1531POPC   C3B23901  11.667  37.403   7.965
 1531POPC   C4B23902  11.552  37.638   7.598
 1532POPC   NC323903  32.623  40.731   9.527
 1532POPC   PO423904  33.280  40.784   9.431
 1532POPC   GL123905  33.132  40.794   9.044
 1532POPC   GL223906  32.788  40.909   9.084
 1532POPC   C1A23907  33.105  40.593   8.656
 1532POPC   D2A23908  32.852  40.539   8.269
 1532POPC   C3A23909  33.012  40.801   7.950
 1532POPC   C4A23910  33.384  41.048   8.008
 1532POPC   C1B23911  32.643  40.797   8.687
 1532POPC   C2B23912  32.756  41.048   8.337
 1532POPC   C3B23913  32.541  41.261   8.023
 1532POPC   C4B23914  32.705  41.143   7.608
 1533POPC   NC323915  10.036   9.574   9.516
 1533POPC   PO423916  10.459   9.998   9.746
 1533POPC   GL123917  10.322   9.982   9.273
 1533POPC   GL223918  10.622  10.094   9.054
 1533POPC   C1A23919  10.324   9.768   8.831
 1533POPC   D2A23920  10.672   9.800   8.504
 1533POPC   C3A23921  10.510   9.603   8.115
 1533POPC   C4A23922  10.316   9.535   7.740
 1533POPC   C1B23923  10.345  10.249   8.686
 1533POPC   C2B23924  10.279  10.052   8.259
 1533POPC   C3B23925  10.472  10.031   7.826
 1533POPC   C4B23926  10.541  10.172   7.406
 1534POPC   NC323927  37.119  19.387   9.783
 1534POPC   PO423928  36.920  18.831   9.504
 1534POPC   GL123929  37.016  19.220   9.246
 1534POPC   GL223930  37.193  18.996   9.024
 1534POPC   C1A23931  36.980  19.399   8.805
 1534POPC   D2A23932  36.784  19.314   8.414
 1534POPC   C3A23933  37.003  19.307   8.041
 1534POPC   C4A23934  36.976  19.053   7.681
 1534POPC   C1B23935  36.882  18.896   8.707
 1534POPC   C2B23936  36.873  18.835   8.241
 1534POPC   C3B23937  36.838  18.600   7.852
 1534POPC   C4B23938  36.804  18.651   7.386
 1535POPC   NC323939  34.069  43.562   9.514
 1535POPC   PO423940  33.414  43.800   9.574
 1535POPC   GL123941  33.576  43.575   9.224
 1535POPC   GL223942  33.797  43.853   9.195
 1535POPC   C1A23943  33.608  43.653   8.763
 1535POPC   D2A23944  33.482  43.884   8.380
 1535POPC   C3A23945  33.715  43.778   8.016
 1535POPC   C4A23946  34.013  43.875   7.668
 1535POPC   C1B23947  34.002  44.004   8.857
 1535POPC   C2B23948  34.028  43.937   8.424
 1535POPC   C3B23949  33.991  44.200   8.082
 1535POPC   C4B23950  33.913  44.394   7.726
 1536POPC   NC323951  34.699   2.411   9.547
 1536POPC   PO423952  34.611   1.696   9.545
 1536POPC   GL123953  34.661   1.975   9.189
 1536POPC   GL223954  34.786   1.722   9.040
 1536POPC   C1A23955  34.451   2.068   8.755
 1536POPC   D2A23956  34.416   2.394   8.448
 1536POPC   C3A23957  34.530   2.200   8.064
 1536POPC   C4A23958  34.469   1.823   7.804
 1536POPC   C1B23959  34.583   1.580   8.703
 1536POPC   C2B23960  34.534   1.748   8.327
 1536POPC   C3B23961  34.882   1.774   8.072
 1536POPC   C4B23962  34.876   1.525   7.718
 1537POPC   NC323963  10.924   2.744   9.451
 1537POPC   PO423964  11.519   3.123   9.398
 1537POPC   GL123965  11.462   3.072   8.978
 1537POPC   GL223966  11.147   2.872   8.982
 1537POPC   C1A23967  11.521   2.865   8.601
 1537POPC   D2A23968  11.336   2.503   8.434
 1537POPC   C3A23969  11.371   2.492   7.991
 1537POPC   C4A23970  11.241   2.909   7.861
 1537POPC   C1B23971  10.824   2.612   8.795
 1537POPC   C2B23972  10.753   2.541   8.380
 1537POPC   C3B23973  10.862   2.553   7.965
 1537POPC   C4B23974  10.628   2.688   7.616
 1538POPC   NC323975  35.035   6.878   9.336
 1538POPC   PO423976  34.561   6.381   9.460
 1538POPC   GL123977  34.561   6.729   9.137
 1538POPC   GL223978  34.259   6.904   8.992
 1538POPC   C1A23979  34.642   6.708   8.692
 1538POPC   D2A23980  34.535   6.900   8.312
 1538POPC   C3A23981  34.771   6.805   7.973
 1538POPC   C4A23982  34.960   6.395   7.884
 1538POPC   C1B23983  34.206   6.471   8.825
 1538POPC   C2B23984  34.170   6.357   8.400
 1538POPC   C3B23985  34.294   6.524   8.014
 1538POPC   C4B23986  34.127   6.438   7.626
 1539POPC   NC323987  11.009   9.347   9.482
 1539POPC   PO423988  10.804   8.770   9.610
 1539POPC   GL123989  11.033   8.898   9.185
 1539POPC   GL223990  11.274   9.200   9.085
 1539POPC   C1A23991  11.286   8.775   8.789
 1539POPC   D2A23992  11.511   8.674   8.396
 1539POPC   C3A23993  11.428   8.861   7.985
 1539POPC   C4A23994  11.322   8.784   7.543
 1539POPC   C1B23995  10.984   9.291   8.720
 1539POPC   C2B23996  10.933   9.399   8.272
 1539POPC   C3B23997  11.284   9.394   8.027
 1539POPC   C4B23998  11.358   9.279   7.624
 1540POPC   NC323999  13.521  34.916   9.916
 1540POPC   PO424000  13.593  34.380   9.565
 1540POPC   GL124001  13.542  34.631   9.154
 1540POPC   GL224002  13.211  34.799   9.060
 1540POPC   C1A24003  13.714  34.521   8.733
 1540POPC   D2A24004  13.594  34.468   8.281
 1540POPC   C3A24005  13.832  34.491   7.888
 1540POPC   C4A24006  13.715  34.609   7.458
 1540POPC   C1B24007  13.286  34.761   8.622
 1540POPC   C2B24008  13.249  34.850   8.208
 1540POPC   C3B24009  13.365  34.773   7.782
 1540POPC   C4B24010  13.318  34.923   7.335
 1541POPC   NC324011  14.894  43.888   9.505
 1541POPC   PO424012  15.460  44.167   9.528
 1541POPC   GL124013  15.246  44.045   9.164
 1541POPC   GL224014  14.959  44.241   9.132
 1541POPC   C1A24015  15.082  43.667   8.874
 1541POPC   D2A24016  14.906  43.460   8.463
 1541POPC   C3A24017  14.987  43.573   8.007
 1541POPC   C4A24018  15.083  43.813   7.606
 1541POPC   C1B24019  15.082  44.141   8.694
 1541POPC   C2B24020  14.897  44.022   8.318
 1541POPC   C3B24021  14.942  44.181   7.918
 1541POPC   C4B24022  15.257  44.283   7.583
 1542POPC   NC324023  25.031  38.929   9.722
 1542POPC   PO424024  24.555  39.318   9.610
 1542POPC   GL124025  24.419  39.464   9.202
 1542POPC   GL224026  24.616  39.200   9.108
 1542POPC   C1A24027  24.553  39.557   8.739
 1542POPC   D2A24028  24.623  39.532   8.277
 1542POPC   C3A24029  24.384  39.315   7.928
 1542POPC   C4A24030  24.104  38.935   7.849
 1542POPC   C1B24031  24.416  39.059   8.740
 1542POPC   C2B24032  24.467  39.001   8.307
 1542POPC   C3B24033  24.615  38.868   7.894
 1542POPC   C4B24034  24.491  38.657   7.496
 1543POPC   NC324035  38.023  31.415   9.583
 1543POPC   PO424036  38.579  31.808   9.781
 1543POPC   GL124037  38.468  31.447   9.362
 1543POPC   GL224038  38.278  31.550   9.159
 1543POPC   C1A24039  38.685  31.388   8.890
 1543POPC   D2A24040  38.932  31.426   8.489
 1543POPC   C3A24041  38.818  31.188   8.127
 1543POPC   C4A24042  38.790  31.365   7.724
 1543POPC   C1B24043  38.275  31.678   8.736
 1543POPC   C2B24044  38.408  31.363   8.449
 1543POPC   C3B24045  38.387  31.437   8.037
 1543POPC   C4B24046  38.439  31.766   7.797
 1544POPC   NC324047   8.338   1.606   9.583
 1544POPC   PO424048   8.553   0.945   9.425
 1544POPC   GL124049   8.371   1.204   9.072
 1544POPC   GL224050   8.213   1.468   9.106
 1544POPC   C1A24051   8.495   1.403   8.660
 1544POPC   D2A24052   8.301   1.590   8.261
 1544POPC   C3A24053   8.327   1.350   7.866
 1544POPC   C4A24054   8.155   0.927   7.803
 1544POPC   C1B24055   8.104   1.727   8.764
 1544POPC   C2B24056   7.809   1.696   8.426
 1544POPC   C3B24057   7.853   1.498   8.000
 1544POPC   C4B24058   7.945   1.461   7.514
 1545POPC   NC324059  41.748  15.577   9.215
 1545POPC   PO424060  41.665  16.135   9.584
 1545POPC   GL124061  41.484  16.032   9.167
 1545POPC   GL224062  41.245  15.714   9.135
 1545POPC   C1A24063  41.457  15.960   8.716
 1545POPC   D2A24064  41.521  15.677   8.377
 1545POPC   C3A24065  41.631  15.862   8.004
 1545POPC   C4A24066  41.450  16.199   7.795
 1545POPC   C1B24067  41.176  15.475   8.731
 1545POPC   C2B24068  41.094  15.416   8.280
 1545POPC   C3B24069  41.154  15.743   7.979
 1545POPC   C4B24070  41.243  15.781   7.531
 1546POPC   NC324071   0.961   1.925   9.536
 1546POPC   PO424072   1.611   1.731   9.733
 1546POPC   GL124073   1.402   2.005   9.294
 1546POPC   GL224074   1.612   2.013   8.978
 1546POPC   C1A24075   1.115   2.017   8.900
 1546POPC   D2A24076   1.094   2.028   8.422
 1546POPC   C3A24077   1.301   1.887   8.040
 1546POPC   C4A24078   1.642   1.834   7.758
 1546POPC   C1B24079   1.439   2.361   8.727
 1546POPC   C2B24080   1.216   2.543   8.404
 1546POPC   C3B24081   1.103   2.416   8.029
 1546POPC   C4B24082   1.107   2.217   7.679
 1547POPC   NC324083  10.598  10.982   9.401
 1547POPC   PO424084  10.703  11.639   9.432
 1547POPC   GL124085  10.641  11.379   9.069
 1547POPC   GL224086  10.904  11.099   9.007
 1547POPC   C1A24087  10.241  11.259   8.866
 1547POPC   D2A24088  10.216  11.319   8.414
 1547POPC   C3A24089  10.516  11.185   8.117
 1547POPC   C4A24090  10.416  10.954   7.766
 1547POPC   C1B24091  10.652  11.106   8.634
 1547POPC   C2B24092  10.723  11.507   8.466
 1547POPC   C3B24093  10.742  11.660   8.047
 1547POPC   C4B24094  10.633  11.449   7.689
 1548POPC   NC324095  27.147  23.312   9.511
 1548POPC   PO424096  26.791  22.816   9.497
 1548POPC   GL124097  26.914  22.957   9.090
 1548POPC   GL224098  27.174  23.210   8.998
 1548POPC   C1A24099  26.772  23.040   8.676
 1548POPC   D2A24100  26.911  22.951   8.251
 1548POPC   C3A24101  26.651  22.954   7.885
 1548POPC   C4A24102  26.580  23.242   7.520
 1548POPC   C1B24103  27.241  22.820   8.709
 1548POPC   C2B24104  27.260  22.589   8.286
 1548POPC   C3B24105  27.116  22.688   7.833
 1548POPC   C4B24106  26.892  22.834   7.432
 1549POPC   NC324107   3.317  32.411   9.258
 1549POPC   PO424108   3.556  31.939   9.680
 1549POPC   GL124109   3.671  32.085   9.142
 1549POPC   GL224110   3.342  32.074   8.863
 1549POPC   C1A24111   3.703  32.377   8.721
 1549POPC   D2A24112   3.475  32.207   8.358
 1549POPC   C3A24113   3.723  32.130   8.029
 1549POPC   C4A24114   3.845  32.349   7.704
 1549POPC   C1B24115   3.165  32.477   8.658
 1549POPC   C2B24116   3.140  32.607   8.249
 1549POPC   C3B24117   3.216  32.362   7.881
 1549POPC   C4B24118   3.206  32.311   7.402
 1550POPC   NC324119   4.853  17.238   9.245
 1550POPC   PO424120   4.987  17.825   9.537
 1550POPC   GL124121   4.941  17.739   9.119
 1550POPC   GL224122   5.232  17.553   9.057
 1550POPC   C1A24123   5.003  17.808   8.669
 1550POPC   D2A24124   4.829  18.026   8.313
 1550POPC   C3A24125   4.856  17.714   7.988
 1550POPC   C4A24126   4.938  17.362   7.719
 1550POPC   C1B24127   5.171  17.292   8.662
 1550POPC   C2B24128   5.117  17.289   8.209
 1550POPC   C3B24129   5.382  17.129   7.885
 1550POPC   C4B24130   5.430  17.253   7.440
 1551POPC   NC324131  15.022   4.826   9.608
 1551POPC   PO424132  15.503   5.332   9.464
 1551POPC   GL124133  15.304   4.967   9.189
 1551POPC   GL224134  14.934   4.788   9.121
 1551POPC   C1A24135  15.295   5.080   8.759
 1551POPC   D2A24136  15.533   5.321   8.436
 1551POPC   C3A24137  15.352   5.241   8.023
 1551POPC   C4A24138  15.569   5.194   7.618
 1551POPC   C1B24139  14.774   5.023   8.786
 1551POPC   C2B24140  14.943   5.154   8.391
 1551POPC   C3B24141  14.773   5.283   8.018
 1551POPC   C4B24142  14.788   4.916   7.797
 1552POPC   NC324143   1.035  36.604   9.488
 1552POPC   PO424144   1.383  36.025   9.689
 1552POPC   GL124145   1.407  36.178   9.238
 1552POPC   GL224146   1.077  36.234   9.157
 1552POPC   C1A24147   1.318  36.043   8.767
 1552POPC   D2A24148   1.096  36.058   8.340
 1552POPC   C3A24149   1.353  35.948   7.954
 1552POPC   C4A24150   1.349  35.658   7.593
 1552POPC   C1B24151   1.213  36.560   8.843
 1552POPC   C2B24152   1.134  36.570   8.410
 1552POPC   C3B24153   1.185  36.435   7.987
 1552POPC   C4B24154   1.030  36.605   7.590
 1553POPC   NC324155   0.131   2.174   9.490
 1553POPC   PO424156   0.588   1.700   9.669
 1553POPC   GL124157   0.598   1.976   9.196
 1553POPC   GL224158   0.302   2.131   9.024
 1553POPC   C1A24159   0.648   1.975   8.710
 1553POPC   D2A24160   0.650   1.725   8.327
 1553POPC   C3A24161   0.778   1.961   7.983
 1553POPC   C4A24162   0.656   2.070   7.546
 1553POPC   C1B24163   0.054   2.486   8.915
 1553POPC   C2B24164   0.065   2.549   8.522
 1553POPC   C3B24165   0.228   2.247   8.256
 1553POPC   C4B24166   0.271   2.036   7.879
 1554POPC   NC324167  31.881   7.579   9.457
 1554POPC   PO424168  32.407   7.220   9.582
 1554POPC   GL124169  32.211   7.294   9.201
 1554POPC   GL224170  32.402   7.558   9.062
 1554POPC   C1A24171  32.025   7.227   8.808
 1554POPC   D2A24172  32.191   7.457   8.458
 1554POPC   C3A24173  32.168   7.441   8.016
 1554POPC   C4A24174  32.461   7.651   7.775
 1554POPC   C1B24175  32.408   7.874   8.722
 1554POPC   C2B24176  32.056   7.979   8.464
 1554POPC   C3B24177  31.981   7.935   8.034
 1554POPC   C4B24178  31.983   7.803   7.622
 1555POPC   NC324179  15.449  13.525   9.481
 1555POPC   PO424180  14.859  13.831   9.634
 1555POPC   GL124181  14.986  13.701   9.177
 1555POPC   GL224182  15.336  13.600   9.015
 1555POPC   C1A24183  14.968  13.617   8.703
 1555POPC   D2A24184  15.343  13.630   8.464
 1555POPC   C3A24185  15.229  13.510   8.061
 1555POPC   C4A24186  14.993  13.554   7.692
 1555POPC   C1B24187  15.590  13.932   8.820
 1555POPC   C2B24188  15.553  14.122   8.433
 1555POPC   C3B24189  15.463  13.956   8.076
 1555POPC   C4B24190  15.472  13.747   7.680
 1556POPC   NC324191  25.867   7.401   9.595
 1556POPC   PO424192  26.446   7.709   9.366
 1556POPC   GL124193  26.143   7.445   9.128
 1556POPC   GL224194  25.752   7.468   9.111
 1556POPC   C1A24195  26.021   7.242   8.760
 1556POPC   D2A24196  26.017   7.438   8.386
 1556POPC   C3A24197  26.276   7.300   8.083
 1556POPC   C4A24198  26.351   7.406   7.700
 1556POPC   C1B24199  25.668   7.729   8.746
 1556POPC   C2B24200  25.565   7.662   8.298
 1556POPC   C3B24201  25.790   7.471   7.913
 1556POPC   C4B24202  25.828   7.712   7.468
 1557POPC   NC324203  44.965  21.672   9.325
 1557POPC   PO424204  44.549  21.167   9.590
 1557POPC   GL124205  44.696  21.235   9.163
 1557POPC   GL224206   0.029  21.105   9.147
 1557POPC   C1A24207  44.513  21.238   8.742
 1557POPC   D2A24208  44.577  21.505   8.390
 1557POPC   C3A24209  44.704  21.482   7.981
 1557POPC   C4A24210  44.802  21.761   7.675
 1557POPC   C1B24211   0.007  21.386   8.732
 1557POPC   C2B24212   0.115  21.490   8.302
 1557POPC   C3B24213   0.116  21.211   7.941
 1557POPC   C4B24214  44.958  21.264   7.532
 1558POPC   NC324215  26.717   8.924   9.590
 1558POPC   PO424216  27.209   9.442   9.567
 1558POPC   GL124217  26.921   9.242   9.246
 1558POPC   GL224218  26.572   9.091   9.137
 1558POPC   C1A24219  26.977   9.029   8.852
 1558POPC   D2A24220  27.023   9.223   8.453
 1558POPC   C3A24221  27.065   8.964   8.090
 1558POPC   C4A24222  26.910   9.155   7.712
 1558POPC   C1B24223  26.568   8.697   8.847
 1558POPC   C2B24224  26.874   8.523   8.536
 1558POPC   C3B24225  26.832   8.509   8.071
 1558POPC   C4B24226  26.542   8.808   7.868
 1559POPC   NC324227  18.227  29.442   9.657
 1559POPC   PO424228  18.631  29.070   9.231
 1559POPC   GL124229  18.230  29.139   9.048
 1559POPC   GL224230  18.036  29.383   9.163
 1559POPC   C1A24231  18.244  29.260   8.653
 1559POPC   D2A24232  18.455  29.089   8.372
 1559POPC   C3A24233  18.264  29.082   8.000
 1559POPC   C4A24234  18.355  28.774   7.764
 1559POPC   C1B24235  17.780  29.391   8.756
 1559POPC   C2B24236  17.863  29.412   8.289
 1559POPC   C3B24237  17.888  29.388   7.839
 1559POPC   C4B24238  17.936  29.025   7.556
 1560POPC   NC324239   9.029  33.387   9.689
 1560POPC   PO424240   9.260  34.088   9.526
 1560POPC   GL124241   8.996  33.860   9.169
 1560POPC   GL224242   8.657  33.954   9.097
 1560POPC   C1A24243   9.009  33.778   8.735
 1560POPC   D2A24244   8.894  33.952   8.345
 1560POPC   C3A24245   8.824  33.731   7.976
 1560POPC   C4A24246   8.959  33.744   7.580
 1560POPC   C1B24247   8.488  34.004   8.651
 1560POPC   C2B24248   8.429  34.011   8.166
 1560POPC   C3B24249   8.530  34.132   7.710
 1560POPC   C4B24250   8.720  34.088   7.310
 1561POPC   NC324251   4.479  40.788   9.736
 1561POPC   PO424252   3.936  40.483   9.571
 1561POPC   GL124253   4.085  40.544   9.169
 1561POPC   GL224254   4.369  40.715   9.219
 1561POPC   C1A24255   4.050  40.859   8.826
 1561POPC   D2A24256   4.261  40.999   8.447
 1561POPC   C3A24257   4.087  40.887   8.038
 1561POPC   C4A24258   4.201  41.005   7.608
 1561POPC   C1B24259   4.599  40.745   8.833
 1561POPC   C2B24260   4.696  40.515   8.466
 1561POPC   C3B24261   4.575  40.748   8.124
 1561POPC   C4B24262   4.552  40.607   7.722
 1562POPC   NC324263  44.866  27.384   9.470
 1562POPC   PO424264  44.478  27.907   9.524
 1562POPC   GL124265  44.446  27.685   9.138
 1562POPC   GL224266  44.470  27.337   9.146
 1562POPC   C1A24267  44.449  27.551   8.712
 1562POPC   D2A24268  44.647  27.729   8.394
 1562POPC   C3A24269  44.485  27.903   8.042
 1562POPC   C4A24270  44.408  27.655   7.685
 1562POPC   C1B24271  44.682  27.117   8.852
 1562POPC   C2B24272  44.761  27.229   8.435
 1562POPC   C3B24273  44.609  27.342   8.040
 1562POPC   C4B24274  44.829  27.383   7.649
 1563POPC   NC324275  25.355  10.912   9.207
 1563POPC   PO424276  25.513  11.493   9.648
 1563POPC   GL124277  25.406  11.644   9.205
 1563POPC   GL224278  25.161  11.397   9.203
 1563POPC   C1A24279  25.401  11.639   8.738
 1563POPC   D2A24280  25.462  11.749   8.268
 1563POPC   C3A24281  25.402  11.402   7.954
 1563POPC   C4A24282  25.401  10.925   7.959
 1563POPC   C1B24283  24.958  11.387   8.801
 1563POPC   C2B24284  25.097  11.276   8.381
 1563POPC   C3B24285  24.944  11.189   7.976
 1563POPC   C4B24286  24.957  11.421   7.597
 1564POPC   NC324287  26.755  41.378   9.447
 1564POPC   PO424288  26.422  41.963   9.228
 1564POPC   GL124289  26.679  41.623   9.010
 1564POPC   GL224290  27.048  41.503   9.047
 1564POPC   C1A24291  26.806  41.548   8.600
 1564POPC   D2A24292  26.861  41.883   8.305
 1564POPC   C3A24293  26.843  41.724   7.916
 1564POPC   C4A24294  26.670  41.370   7.705
 1564POPC   C1B24295  27.137  41.154   8.779
 1564POPC   C2B24296  26.927  41.005   8.422
 1564POPC   C3B24297  26.997  41.098   8.016
 1564POPC   C4B24298  27.165  41.254   7.672
 1565POPC   NC324299  12.986  43.293   9.841
 1565POPC   PO424300  12.416  43.614   9.577
 1565POPC   GL124301  12.684  43.335   9.238
 1565POPC   GL224302  13.017  43.376   9.192
 1565POPC   C1A24303  12.771  42.948   8.947
 1565POPC   D2A24304  12.761  42.663   8.568
 1565POPC   C3A24305  12.947  42.818   8.170
 1565POPC   C4A24306  12.831  42.996   7.772
 1565POPC   C1B24307  12.862  43.411   8.793
 1565POPC   C2B24308  12.700  43.182   8.476
 1565POPC   C3B24309  12.622  43.325   8.080
 1565POPC   C4B24310  12.873  43.497   7.749
 1566POPC   NC324311   4.366  44.600   9.468
 1566POPC   PO424312   4.100   0.169   9.505
 1566POPC   GL124313   4.386  44.995   9.122
 1566POPC   GL224314   4.606  44.668   9.043
 1566POPC   C1A24315   4.352  44.887   8.664
 1566POPC   D2A24316   4.024  44.694   8.440
 1566POPC   C3A24317   4.177  44.593   8.056
 1566POPC   C4A24318   4.214  44.793   7.681
 1566POPC   C1B24319   4.594  44.416   8.700
 1566POPC   C2B24320   4.661  44.496   8.281
 1566POPC   C3B24321   4.596  44.372   7.871
 1566POPC   C4B24322   4.683  44.645   7.546
 1567POPC   NC324323  24.763  31.200   9.297
 1567POPC   PO424324  25.219  31.484   9.693
 1567POPC   GL124325  25.206  31.488   9.241
 1567POPC   GL224326  24.989  31.738   9.141
 1567POPC   C1A24327  25.287  31.353   8.801
 1567POPC   D2A24328  25.528  31.303   8.376
 1567POPC   C3A24329  25.306  31.374   7.977
 1567POPC   C4A24330  25.080  31.074   7.706
 1567POPC   C1B24331  25.075  31.823   8.731
 1567POPC   C2B24332  24.915  31.689   8.348
 1567POPC   C3B24333  25.016  31.821   7.921
 1567POPC   C4B24334  25.111  31.830   7.445
 1568POPC   NC324335  44.891   1.448   9.525
 1568POPC   PO424336  44.661   2.119   9.556
 1568POPC   GL124337  44.788   2.079   9.123
 1568POPC   GL224338  44.674   1.754   9.141
 1568POPC   C1A24339  44.935   2.052   8.674
 1568POPC   D2A24340  44.718   2.226   8.327
 1568POPC   C3A24341  44.754   2.012   7.986
 1568POPC   C4A24342  44.898   1.701   7.733
 1568POPC   C1B24343  44.479   1.863   8.756
 1568POPC   C2B24344  44.638   1.686   8.379
 1568POPC   C3B24345  44.441   1.612   7.965
 1568POPC   C4B24346  44.296   1.717   7.542
 1569POPC   NC324347   0.521  40.935   9.487
 1569POPC   PO424348   0.103  40.437   9.690
 1569POPC   GL124349   0.193  40.654   9.223
 1569POPC   GL224350   0.296  40.990   9.049
 1569POPC   C1A24351   0.286  40.570   8.772
 1569POPC   D2A24352   0.227  40.282   8.418
 1569POPC   C3A24353   0.447  40.435   8.060
 1569POPC   C4A24354   0.612  40.350   7.649
 1569POPC   C1B24355   0.297  41.203   8.683
 1569POPC   C2B24356   0.055  41.232   8.327
 1569POPC   C3B24357   0.132  41.010   7.955
 1569POPC   C4B24358   0.480  40.850   7.742
 1570POPC   NC324359  37.084  24.006   9.664
 1570POPC   PO424360  37.072  24.715   9.705
 1570POPC   GL124361  37.209  24.557   9.300
 1570POPC   GL224362  37.128  24.234   9.167
 1570POPC   C1A24363  37.128  24.682   8.875
 1570POPC   D2A24364  37.001  24.622   8.442
 1570POPC   C3A24365  37.238  24.753   8.076
 1570POPC   C4A24366  37.019  24.738   7.687
 1570POPC   C1B24367  37.164  24.184   8.695
 1570POPC   C2B24368  37.316  24.262   8.267
 1570POPC   C3B24369  36.964  24.277   7.976
 1570POPC   C4B24370  36.940  24.105   7.539
 1571POPC   NC324371  22.343   1.609   9.253
 1571POPC   PO424372  21.965   1.215   9.861
 1571POPC   GL124373  21.854   1.260   9.302
 1571POPC   GL224374  21.830   1.609   9.285
 1571POPC   C1A24375  22.079   1.144   8.856
 1571POPC   D2A24376  22.305   1.179   8.459
 1571POPC   C3A24377  22.156   1.005   8.074
 1571POPC   C4A24378  22.168   1.135   7.622
 1571POPC   C1B24379  21.845   1.599   8.809
 1571POPC   C2B24380  22.023   1.648   8.383
 1571POPC   C3B24381  21.904   1.461   7.983
 1571POPC   C4B24382  21.922   1.597   7.562
 1572POPC   NC324383  30.630  10.824   9.519
 1572POPC   PO424384  30.658  10.208   9.678
 1572POPC   GL124385  30.640  10.442   9.196
 1572POPC   GL224386  30.970  10.553   9.115
 1572POPC   C1A24387  30.676  10.409   8.715
 1572POPC   D2A24388  30.817  10.174   8.341
 1572POPC   C3A24389  30.690  10.364   7.972
 1572POPC   C4A24390  30.463  10.761   7.892
 1572POPC   C1B24391  31.172  10.299   8.757
 1572POPC   C2B24392  31.241  10.488   8.362
 1572POPC   C3B24393  31.209  10.319   7.970
 1572POPC   C4B24394  31.118  10.437   7.548
 1573POPC   NC324395  19.133  32.258   9.673
 1573POPC   PO424396  18.770  31.729   9.541
 1573POPC   GL124397  18.818  32.118   9.249
 1573POPC   GL224398  19.100  32.168   9.054
 1573POPC   C1A24399  18.697  32.299   8.829
 1573POPC   D2A24400  18.866  32.072   8.465
 1573POPC   C3A24401  18.786  32.221   8.069
 1573POPC   C4A24402  18.977  32.126   7.706
 1573POPC   C1B24403  19.263  32.325   8.647
 1573POPC   C2B24404  19.149  32.543   8.269
 1573POPC   C3B24405  19.286  32.552   7.850
 1573POPC   C4B24406  19.504  32.181   7.759
 1574POPC   NC324407  42.126  31.459   9.509
 1574POPC   PO424408  42.679  30.864   9.548
 1574POPC   GL124409  42.661  31.132   9.085
 1574POPC   GL224410  42.491  31.462   9.138
 1574POPC   C1A24411  42.427  31.178   8.689
 1574POPC   D2A24412  42.161  31.398   8.404
 1574POPC   C3A24413  42.411  31.594   8.080
 1574POPC   C4A24414  42.205  31.386   7.770
 1574POPC   C1B24415  42.300  31.713   8.798
 1574POPC   C2B24416  42.124  31.916   8.410
 1574POPC   C3B24417  41.971  31.827   7.985
 1574POPC   C4B24418  42.095  31.840   7.506
 1575POPC   NC324419  30.428   8.733   9.439
 1575POPC   PO424420  30.714   9.407   9.461
 1575POPC   GL124421  30.652   9.218   9.057
 1575POPC   GL224422  30.733   8.857   9.057
 1575POPC   C1A24423  30.531   9.074   8.631
 1575POPC   D2A24424  30.555   8.669   8.410
 1575POPC   C3A24425  30.642   8.760   7.983
 1575POPC   C4A24426  30.764   9.174   7.838
 1575POPC   C1B24427  31.016   8.947   8.737
 1575POPC   C2B24428  30.959   9.039   8.313
 1575POPC   C3B24429  31.173   8.925   7.958
 1575POPC   C4B24430  31.240   9.116   7.595
 1576POPC   NC324431  24.170  26.243   9.563
 1576POPC   PO424432  24.759  25.906   9.525
 1576POPC   GL124433  24.573  25.898   9.141
 1576POPC   GL224434  24.380  26.163   9.131
 1576POPC   C1A24435  24.649  26.090   8.728
 1576POPC   D2A24436  24.471  26.318   8.339
 1576POPC   C3A24437  24.556  26.064   7.952
 1576POPC   C4A24438  24.817  25.814   7.632
 1576POPC   C1B24439  24.157  26.092   8.778
 1576POPC   C2B24440  23.994  26.110   8.425
 1576POPC   C3B24441  24.063  26.025   8.031
 1576POPC   C4B24442  24.128  26.288   7.675
 1577POPC   NC324443   9.277  34.621   9.492
 1577POPC   PO424444   9.941  34.633   9.583
 1577POPC   GL124445   9.786  34.642   9.169
 1577POPC   GL224446   9.494  34.864   9.070
 1577POPC   C1A24447   9.878  34.397   8.797
 1577POPC   D2A24448   9.720  34.474   8.375
 1577POPC   C3A24449   9.940  34.423   7.998
 1577POPC   C4A24450   9.579  34.361   7.771
 1577POPC   C1B24451   9.788  34.891   8.701
 1577POPC   C2B24452   9.982  34.879   8.283
 1577POPC   C3B24453   9.693  34.837   7.927
 1577POPC   C4B24454   9.678  34.873   7.483
 1578POPC   NC324455   1.390  17.922   9.356
 1578POPC   PO424456   1.212  18.565   9.460
 1578POPC   GL124457   1.143  18.519   9.067
 1578POPC   GL224458   0.986  18.208   9.140
 1578POPC   C1A24459   1.364  18.266   8.768
 1578POPC   D2A24460   1.476  18.096   8.369
 1578POPC   C3A24461   1.415  18.413   8.055
 1578POPC   C4A24462   1.219  18.388   7.657
 1578POPC   C1B24463   0.871  17.994   8.771
 1578POPC   C2B24464   0.981  17.885   8.367
 1578POPC   C3B24465   1.060  18.033   7.984
 1578POPC   C4B24466   0.781  17.968   7.627
 1579POPC   NC324467  43.455  42.868   9.409
 1579POPC   PO424468  43.043  43.403   9.406
 1579POPC   GL124469  43.251  43.228   9.089
 1579POPC   GL224470  43.550  43.425   8.971
 1579POPC   C1A24471  43.105  43.018   8.712
 1579POPC   D2A24472  43.210  43.282   8.376
 1579POPC   C3A24473  43.127  43.108   8.023
 1579POPC   C4A24474  43.246  43.374   7.727
 1579POPC   C1B24475  43.594  42.985   8.797
 1579POPC   C2B24476  43.497  42.862   8.359
 1579POPC   C3B24477  43.593  42.937   7.909
 1579POPC   C4B24478  43.701  42.955   7.483
 1580POPC   NC324479  34.599   2.998   9.418
 1580POPC   PO424480  34.331   2.364   9.289
 1580POPC   GL124481  34.550   2.543   9.013
 1580POPC   GL224482  34.853   2.676   9.123
 1580POPC   C1A24483  34.438   2.841   8.744
 1580POPC   D2A24484  34.391   3.067   8.388
 1580POPC   C3A24485  34.383   2.794   8.079
 1580POPC   C4A24486  34.298   2.711   7.680
 1580POPC   C1B24487  34.935   2.812   8.716
 1580POPC   C2B24488  34.840   2.654   8.304
 1580POPC   C3B24489  34.791   2.586   7.862
 1580POPC   C4B24490  34.865   2.604   7.453
 1581POPC   NC324491  11.812  11.758   9.802
 1581POPC   PO424492  12.428  11.802   9.637
 1581POPC   GL124493  12.250  11.876   9.182
 1581POPC   GL224494  11.871  11.876   9.222
 1581POPC   C1A24495  12.206  11.867   8.696
 1581POPC   D2A24496  12.377  11.758   8.245
 1581POPC   C3A24497  12.327  12.048   7.867
 1581POPC   C4A24498  12.227  12.154   7.399
 1581POPC   C1B24499  11.693  11.814   8.768
 1581POPC   C2B24500  11.812  11.941   8.327
 1581POPC   C3B24501  11.815  12.045   7.876
 1581POPC   C4B24502  11.712  12.110   7.430
 1582POPC   NC324503   8.733  41.906   9.425
 1582POPC   PO424504   9.052  41.382   9.557
 1582POPC   GL124505   9.027  41.507   9.136
 1582POPC   GL224506   9.108  41.879   9.051
 1582POPC   C1A24507   8.809  41.534   8.756
 1582POPC   D2A24508   9.016  41.618   8.364
 1582POPC   C3A24509   8.911  41.316   8.064
 1582POPC   C4A24510   8.667  41.353   7.716
 1582POPC   C1B24511   8.747  42.034   8.764
 1582POPC   C2B24512   8.497  41.862   8.402
 1582POPC   C3B24513   8.664  41.849   7.996
 1582POPC   C4B24514   9.075  41.878   7.883
 1583POPC   NC324515  24.978  28.585   9.354
 1583POPC   PO424516  25.528  28.167   9.438
 1583POPC   GL124517  25.380  28.334   9.090
 1583POPC   GL224518  25.418  28.687   9.129
 1583POPC   C1A24519  25.388  28.179   8.671
 1583POPC   D2A24520  25.174  28.044   8.348
 1583POPC   C3A24521  25.377  28.221   8.002
 1583POPC   C4A24522  25.053  28.256   7.712
 1583POPC   C1B24523  25.177  28.635   8.734
 1583POPC   C2B24524  25.301  28.635   8.320
 1583POPC   C3B24525  25.313  28.714   7.886
 1583POPC   C4B24526  25.392  28.520   7.475
 1584POPC   NC324527  18.436   2.470   9.534
 1584POPC   PO424528  17.813   2.911   9.577
 1584POPC   GL124529  18.220   2.858   9.258
 1584POPC   GL224530  18.235   2.549   9.092
 1584POPC   C1A24531  18.527   2.823   8.816
 1584POPC   D2A24532  18.483   2.602   8.398
 1584POPC   C3A24533  18.438   2.820   7.979
 1584POPC   C4A24534  18.416   2.509   7.599
 1584POPC   C1B24535  18.057   2.638   8.736
 1584POPC   C2B24536  17.965   2.503   8.369
 1584POPC   C3B24537  18.131   2.425   8.037
 1584POPC   C4B24538  17.903   2.468   7.679
 1585POPC   NC324539  30.455   7.994   9.372
 1585POPC   PO424540  30.856   8.542   9.454
 1585POPC   GL124541  30.703   8.336   9.084
 1585POPC   GL224542  30.392   8.413   9.017
 1585POPC   C1A24543  30.692   8.219   8.631
 1585POPC   D2A24544  31.005   7.967   8.414
 1585POPC   C3A24545  30.989   7.945   7.967
 1585POPC   C4A24546  31.032   8.156   7.538
 1585POPC   C1B24547  30.181   8.263   8.648
 1585POPC   C2B24548  30.129   8.407   8.256
 1585POPC   C3B24549  30.340   8.322   7.909
 1585POPC   C4B24550  30.521   7.934   7.783
 1586POPC   NC324551  11.420   1.789   9.616
 1586POPC   PO424552  11.179   2.357   9.377
 1586POPC   GL124553  11.296   1.975   9.152
 1586POPC   GL224554  11.033   1.739   9.036
 1586POPC   C1A24555  11.467   2.098   8.741
 1586POPC   D2A24556  11.568   2.032   8.315
 1586POPC   C3A24557  11.309   1.975   7.995
 1586POPC   C4A24558  11.283   2.132   7.615
 1586POPC   C1B24559  10.971   2.122   8.809
 1586POPC   C2B24560  11.022   2.124   8.420
 1586POPC   C3B24561  10.807   2.030   8.106
 1586POPC   C4B24562  10.899   1.705   7.823
 1587POPC   NC324563  11.600  41.869   9.420
 1587POPC   PO424564  11.039  41.496   9.470
 1587POPC   GL124565  11.127  41.521   9.054
 1587POPC   GL224566  11.441  41.464   9.098
 1587POPC   C1A24567  10.901  41.477   8.647
 1587POPC   D2A24568  11.225  41.355   8.322
 1587POPC   C3A24569  11.132  41.416   7.872
 1587POPC   C4A24570  10.995  41.315   7.430
 1587POPC   C1B24571  11.628  41.369   8.751
 1587POPC   C2B24572  11.767  41.335   8.349
 1587POPC   C3B24573  11.638  41.454   7.961
 1587POPC   C4B24574  11.692  41.803   7.730
 1588POPC   NC324575  33.673   2.999   9.796
 1588POPC   PO424576  33.139   2.692   9.483
 1588POPC   GL124577  33.025   2.814   9.085
 1588POPC   GL224578  32.995   3.147   9.196
 1588POPC   C1A24579  33.216   2.782   8.647
 1588POPC   D2A24580  33.491   2.796   8.239
 1588POPC   C3A24581  33.328   2.543   7.896
 1588POPC   C4A24582  32.911   2.584   7.688
 1588POPC   C1B24583  32.970   3.254   8.790
 1588POPC   C2B24584  32.873   3.083   8.370
 1588POPC   C3B24585  33.068   2.979   7.991
 1588POPC   C4B24586  33.007   3.122   7.583
 1589POPC   NC324587  36.577  37.505   9.462
 1589POPC   PO424588  37.104  37.968   9.597
 1589POPC   GL124589  37.009  37.723   9.266
 1589POPC   GL224590  36.720  37.835   9.092
 1589POPC   C1A24591  37.108  37.543   8.891
 1589POPC   D2A24592  37.080  37.807   8.549
 1589POPC   C3A24593  37.069  37.790   8.101
 1589POPC   C4A24594  36.785  38.015   7.838
 1589POPC   C1B24595  36.606  37.481   8.826
 1589POPC   C2B24596  36.853  37.243   8.564
 1589POPC   C3B24597  36.948  37.293   8.140
 1589POPC   C4B24598  36.772  37.431   7.727
 1590POPC   NC324599   7.437  33.046   9.487
 1590POPC   PO424600   7.225  32.429   9.448
 1590POPC   GL124601   7.212  32.774   9.104
 1590POPC   GL224602   7.553  32.942   9.016
 1590POPC   C1A24603   7.214  32.925   8.650
 1590POPC   D2A24604   7.536  32.774   8.332
 1590POPC   C3A24605   7.403  32.801   7.897
 1590POPC   C4A24606   7.395  32.501   7.558
 1590POPC   C1B24607   7.697  33.174   8.650
 1590POPC   C2B24608   7.500  33.272   8.243
 1590POPC   C3B24609   7.576  33.310   7.795
 1590POPC   C4B24610   7.326  33.383   7.455
 1591POPC   NC324611  15.883  22.599   9.343
 1591POPC   PO424612  15.714  21.997   9.572
 1591POPC   GL124613  15.794  22.126   9.165
 1591POPC   GL224614  16.156  22.201   9.130
 1591POPC   C1A24615  15.872  21.985   8.758
 1591POPC   D2A24616  15.858  21.757   8.419
 1591POPC   C3A24617  16.053  21.990   8.150
 1591POPC   C4A24618  15.870  22.015   7.784
 1591POPC   C1B24619  16.116  22.451   8.778
 1591POPC   C2B24620  15.922  22.414   8.408
 1591POPC   C3B24621  15.878  22.495   7.988
 1591POPC   C4B24622  16.105  22.397   7.596
 1592POPC   NC324623  19.937  32.854   9.683
 1592POPC   PO424624  19.327  32.642   9.491
 1592POPC   GL124625  19.630  32.887   9.237
 1592POPC   GL224626  19.981  33.053   9.200
 1592POPC   C1A24627  19.729  32.902   8.807
 1592POPC   D2A24628  19.808  32.839   8.401
 1592POPC   C3A24629  19.544  32.926   8.117
 1592POPC   C4A24630  19.676  33.031   7.728
 1592POPC   C1B24631  20.170  33.186   8.759
 1592POPC   C2B24632  20.019  33.305   8.310
 1592POPC   C3B24633  20.116  33.286   7.847
 1592POPC   C4B24634  20.166  33.286   7.372
 1593POPC   NC324635  43.672  15.349   9.777
 1593POPC   PO424636  43.015  15.317   9.698
 1593POPC   GL124637  43.169  15.280   9.281
 1593POPC   GL224638  43.282  14.966   9.205
 1593POPC   C1A24639  43.023  15.432   8.870
 1593POPC   D2A24640  42.814  15.274   8.472
 1593POPC   C3A24641  43.002  15.279   8.046
 1593POPC   C4A24642  43.371  15.463   7.884
 1593POPC   C1B24643  43.005  14.938   8.829
 1593POPC   C2B24644  43.151  14.909   8.398
 1593POPC   C3B24645  43.368  14.906   8.004
 1593POPC   C4B24646  43.325  15.060   7.577
 1594POPC   NC324647   2.883  42.942   9.595
 1594POPC   PO424648   2.692  43.600   9.643
 1594POPC   GL124649   2.602  43.293   9.261
 1594POPC   GL224650   2.449  43.485   9.023
 1594POPC   C1A24651   2.487  43.030   8.823
 1594POPC   D2A24652   2.685  42.961   8.384
 1594POPC   C3A24653   2.513  42.950   7.939
 1594POPC   C4A24654   2.754  42.894   7.539
 1594POPC   C1B24655   2.622  43.501   8.631
 1594POPC   C2B24656   2.529  43.449   8.211
 1594POPC   C3B24657   2.837  43.337   7.934
 1594POPC   C4B24658   3.046  43.316   7.567
 1595POPC   NC324659  16.594  43.981   9.700
 1595POPC   PO424660  17.113  43.824   9.354
 1595POPC   GL124661  16.727  43.895   9.189
 1595POPC   GL224662  16.924  43.856   8.877
 1595POPC   C1A24663  16.494  44.097   8.893
 1595POPC   D2A24664  16.479  43.903   8.513
 1595POPC   C3A24665  16.379  44.016   8.118
 1595POPC   C4A24666  16.589  43.950   7.744
 1595POPC   C1B24667  16.943  44.276   8.725
 1595POPC   C2B24668  16.864  44.207   8.280
 1595POPC   C3B24669  16.858  43.767   8.148
 1595POPC   C4B24670  16.939  43.595   7.754
 1596POPC   NC324671  43.354  42.215   9.443
 1596POPC   PO424672  42.727  41.972   9.493
 1596POPC   GL124673  42.960  42.069   9.096
 1596POPC   GL224674  43.320  42.087   8.961
 1596POPC   C1A24675  42.910  42.311   8.702
 1596POPC   D2A24676  42.953  42.643   8.367
 1596POPC   C3A24677  42.749  42.441   8.003
 1596POPC   C4A24678  42.950  42.075   7.878
 1596POPC   C1B24679  43.387  42.491   8.747
 1596POPC   C2B24680  43.403  42.378   8.328
 1596POPC   C3B24681  43.261  42.537   7.948
 1596POPC   C4B24682  43.483  42.494   7.587
 1597POPC   NC324683  20.689  23.019   9.257
 1597POPC   PO424684  20.114  22.813   9.414
 1597POPC   GL124685  20.245  23.081   9.064
 1597POPC   GL224686  20.442  22.810   8.863
 1597POPC   C1A24687  20.379  23.275   8.670
 1597POPC   D2A24688  20.479  22.955   8.341
 1597POPC   C3A24689  20.617  22.874   7.917
 1597POPC   C4A24690  20.779  22.496   7.950
 1597POPC   C1B24691  20.873  22.926   8.655
 1597POPC   C2B24692  21.023  22.905   8.227
 1597POPC   C3B24693  21.126  22.843   7.786
 1597POPC   C4B24694  20.868  22.729   7.465
 1598POPC   NC324695  44.190  27.488   9.573
 1598POPC   PO424696  43.560  27.723   9.414
 1598POPC   GL124697  43.923  27.756   9.156
 1598POPC   GL224698  43.962  27.402   9.126
 1598POPC   C1A24699  44.065  27.861   8.725
 1598POPC   D2A24700  44.154  27.604   8.312
 1598POPC   C3A24701  43.972  27.718   7.949
 1598POPC   C4A24702  44.117  28.063   7.711
 1598POPC   C1B24703  43.906  27.384   8.697
 1598POPC   C2B24704  43.722  27.329   8.277
 1598POPC   C3B24705  43.591  27.306   7.827
 1598POPC   C4B24706  43.741  27.374   7.390
 1599POPC   NC324707  37.889  15.782   9.391
 1599POPC   PO424708  37.333  15.864   9.605
 1599POPC   GL124709  37.483  16.051   9.178
 1599POPC   GL224710  37.809  16.110   8.991
 1599POPC   C1A24711  37.462  15.866   8.732
 1599POPC   D2A24712  37.664  15.807   8.310
 1599POPC   C3A24713  37.744  16.086   7.945
 1599POPC   C4A24714  37.640  15.992   7.547
 1599POPC   C1B24715  37.967  15.768   8.722
 1599POPC   C2B24716  38.158  15.647   8.299
 1599POPC   C3B24717  37.918  15.606   7.903
 1599POPC   C4B24718  37.705  15.482   7.508
 1600POPC   NC324719  12.562  36.002   9.563
 1600POPC   PO424720  13.198  36.177   9.352
 1600POPC   GL124721  12.802  36.171   9.153
 1600POPC   GL224722  12.693  36.509   9.228
 1600POPC   C1A24723  12.584  36.224   8.780
 1600POPC   D2A24724  12.638  36.349   8.372
 1600POPC   C3A24725  12.569  36.065   8.033
 1600POPC   C4A24726  12.746  36.127   7.625
 1600POPC   C1B24727  12.925  36.616   8.843
 1600POPC   C2B24728  13.143  36.514   8.450
 1600POPC   C3B24729  13.025  36.376   8.018
 1600POPC   C4B24730  13.121  36.471   7.580
 1601POPC   NC324731  39.977  35.092   9.432
 1601POPC   PO424732  39.614  35.654   9.561
 1601POPC   GL124733  39.741  35.589   9.106
 1601POPC   GL224734  40.029  35.391   9.024
 1601POPC   C1A24735  39.789  35.716   8.688
 1601POPC   D2A24736  39.721  35.526   8.290
 1601POPC   C3A24737  39.842  35.733   7.910
 1601POPC   C4A24738  39.798  35.509   7.507
 1601POPC   C1B24739  39.839  35.178   8.691
 1601POPC   C2B24740  39.961  35.066   8.290
 1601POPC   C3B24741  39.987  35.232   7.896
 1601POPC   C4B24742  40.140  35.119   7.478
 1602POPC   NC324743  13.546  27.779   9.985
 1602POPC   PO424744  13.669  27.212   9.703
 1602POPC   GL124745  13.633  27.490   9.312
 1602POPC   GL224746  13.321  27.426   9.154
 1602POPC   C1A24747  13.736  27.594   8.846
 1602POPC   D2A24748  13.982  27.537   8.444
 1602POPC   C3A24749  13.918  27.637   8.008
 1602POPC   C4A24750  13.944  27.435   7.595
 1602POPC   C1B24751  13.261  27.536   8.692
 1602POPC   C2B24752  13.486  27.579   8.290
 1602POPC   C3B24753  13.446  27.525   7.818
 1602POPC   C4B24754  13.293  27.468   7.389
 1603POPC   NC324755  43.418  29.676   9.416
 1603POPC   PO424756  42.774  30.103   9.504
 1603POPC   GL124757  42.876  30.136   9.099
 1603POPC   GL224758  43.048  29.806   9.071
 1603POPC   C1A24759  42.796  30.033   8.683
 1603POPC   D2A24760  43.015  30.030   8.304
 1603POPC   C3A24761  42.916  29.664   8.066
 1603POPC   C4A24762  42.996  29.436   7.691
 1603POPC   C1B24763  43.329  29.950   8.742
 1603POPC   C2B24764  43.488  29.773   8.335
 1603POPC   C3B24765  43.368  29.858   7.924
 1603POPC   C4B24766  42.997  30.134   7.799
 1604POPC   NC324767   0.578  44.581   9.379
 1604POPC   PO424768   0.104   0.015   9.506
 1604POPC   GL124769   0.349  44.934   9.093
 1604POPC   GL224770   0.112  44.739   9.006
 1604POPC   C1A24771   0.511  44.567   8.738
 1604POPC   D2A24772   0.394  44.271   8.379
 1604POPC   C3A24773   0.469  44.443   7.976
 1604POPC   C4A24774   0.821  44.319   7.751
 1604POPC   C1B24775   0.177  44.901   8.585
 1604POPC   C2B24776   0.429   0.039   8.251
 1604POPC   C3B24777   0.574  44.985   7.841
 1604POPC   C4B24778   0.448  44.962   7.406
 1605POPC   NC324779   4.684  11.950   9.417
 1605POPC   PO424780   5.255  12.248   9.535
 1605POPC   GL124781   4.993  12.248   9.160
 1605POPC   GL224782   5.233  11.963   9.057
 1605POPC   C1A24783   4.851  12.055   8.734
 1605POPC   D2A24784   5.211  11.921   8.422
 1605POPC   C3A24785   5.093  11.941   7.986
 1605POPC   C4A24786   4.859  12.251   7.784
 1605POPC   C1B24787   5.282  12.312   8.741
 1605POPC   C2B24788   5.325  12.487   8.338
 1605POPC   C3B24789   5.319  12.435   7.900
 1605POPC   C4B24790   5.353  12.121   7.566
 1606POPC   NC324791  39.791  31.700   9.546
 1606POPC   PO424792  40.372  31.382   9.322
 1606POPC   GL124793  40.074  31.558   9.107
 1606POPC   GL224794  39.825  31.343   9.170
 1606POPC   C1A24795  40.149  31.650   8.686
 1606POPC   D2A24796  40.353  31.450   8.341
 1606POPC   C3A24797  40.167  31.541   7.971
 1606POPC   C4A24798  39.708  31.586   7.909
 1606POPC   C1B24799  39.884  31.213   8.749
 1606POPC   C2B24800  39.860  31.325   8.339
 1606POPC   C3B24801  39.760  31.078   7.998
 1606POPC   C4B24802  40.001  31.192   7.655
 1607POPC   NC324803  20.715   4.474  10.015
 1607POPC   PO424804  20.466   4.134   9.496
 1607POPC   GL124805  20.606   4.294   9.142
 1607POPC   GL224806  20.724   4.036   9.049
 1607POPC   C1A24807  20.449   4.339   8.712
 1607POPC   D2A24808  20.322   4.450   8.282
 1607POPC   C3A24809  20.625   4.368   7.964
 1607POPC   C4A24810  20.790   4.639   7.694
 1607POPC   C1B24811  20.575   3.838   8.668
 1607POPC   C2B24812  20.490   3.968   8.245
 1607POPC   C3B24813  20.427   3.901   7.792
 1607POPC   C4B24814  20.334   3.822   7.349
 1608POPC   NC324815  17.450  30.925   9.785
 1608POPC   PO424816  17.705  30.423   9.578
 1608POPC   GL124817  17.544  30.762   9.280
 1608POPC   GL224818  17.195  30.883   9.335
 1608POPC   C1A24819  17.665  30.894   8.855
 1608POPC   D2A24820  17.924  30.874   8.469
 1608POPC   C3A24821  17.758  30.622   8.127
 1608POPC   C4A24822  17.617  30.746   7.711
 1608POPC   C1B24823  17.158  30.991   8.890
 1608POPC   C2B24824  17.344  30.898   8.452
 1608POPC   C3B24825  17.226  30.944   8.010
 1608POPC   C4B24826  17.347  31.169   7.632
 1609POPC   NC324827   5.607  39.910   9.418
 1609POPC   PO424828   6.300  39.780   9.462
 1609POPC   GL124829   6.028  40.002   9.115
 1609POPC   GL224830   6.065  40.384   9.036
 1609POPC   C1A24831   5.778  40.046   8.751
 1609POPC   D2A24832   5.724  39.788   8.408
 1609POPC   C3A24833   5.531  39.963   8.026
 1609POPC   C4A24834   5.641  39.864   7.589
 1609POPC   C1B24835   6.237  40.252   8.669
 1609POPC   C2B24836   6.098  40.111   8.249
 1609POPC   C3B24837   5.943  40.189   7.841
 1609POPC   C4B24838   5.932  40.253   7.371
 1610POPC   NC324839  15.684  30.063   9.978
 1610POPC   PO424840  16.153  29.964   9.689
 1610POPC   GL124841  16.157  29.991   9.203
 1610POPC   GL224842  16.442  30.169   9.100
 1610POPC   C1A24843  16.085  30.070   8.720
 1610POPC   D2A24844  16.097  29.834   8.298
 1610POPC   C3A24845  16.014  29.852   7.827
 1610POPC   C4A24846  15.934  29.599   7.421
 1610POPC   C1B24847  16.529  29.832   8.796
 1610POPC   C2B24848  16.612  29.867   8.328
 1610POPC   C3B24849  16.494  30.031   7.893
 1610POPC   C4B24850  16.207  30.236   7.549
 1611POPC   NC324851  18.553  17.627   9.568
 1611POPC   PO424852  18.021  17.245   9.304
 1611POPC   GL124853  18.267  17.607   9.140
 1611POPC   GL224854  18.569  17.768   9.063
 1611POPC   C1A24855  18.152  17.633   8.750
 1611POPC   D2A24856  18.048  17.307   8.487
 1611POPC   C3A24857  18.223  17.490   8.145
 1611POPC   C4A24858  17.947  17.597   7.864
 1611POPC   C1B24859  18.571  17.326   8.847
 1611POPC   C2B24860  18.546  17.198   8.415
 1611POPC   C3B24861  18.671  17.277   7.955
 1611POPC   C4B24862  18.496  17.534   7.641
 1612POPC   NC324863   1.831  17.429   9.573
 1612POPC   PO424864   2.368  17.056   9.697
 1612POPC   GL124865   2.236  17.432   9.289
 1612POPC   GL224866   1.875  17.414   9.082
 1612POPC   C1A24867   2.249  17.636   8.847
 1612POPC   D2A24868   1.994  17.772   8.456
 1612POPC   C3A24869   1.950  17.502   8.100
 1612POPC   C4A24870   2.091  17.732   7.784
 1612POPC   C1B24871   1.629  17.672   8.782
 1612POPC   C2B24872   1.482  17.569   8.347
 1612POPC   C3B24873   1.522  17.768   7.963
 1612POPC   C4B24874   1.652  18.070   7.716
 1613POPC   NC324875  39.623  40.184   9.628
 1613POPC   PO424876  40.099  39.705   9.671
 1613POPC   GL124877  40.035  39.952   9.279
 1613POPC   GL224878  39.732  39.895   9.216
 1613POPC   C1A24879  40.168  40.093   8.870
 1613POPC   D2A24880  40.275  39.928   8.476
 1613POPC   C3A24881  40.122  40.095   8.064
 1613POPC   C4A24882  40.195  39.796   7.711
 1613POPC   C1B24883  39.782  39.778   8.797
 1613POPC   C2B24884  39.747  39.949   8.390
 1613POPC   C3B24885  39.728  39.789   7.951
 1613POPC   C4B24886  39.813  40.117   7.576
 1614POPC   NC324887   0.961   6.988   9.620
 1614POPC   PO424888   1.535   6.846   9.457
 1614POPC   GL124889   1.156   6.916   9.147
 1614POPC   GL224890   0.792   7.110   9.150
 1614POPC   C1A24891   1.161   6.661   8.776
 1614POPC   D2A24892   1.226   6.411   8.417
 1614POPC   C3A24893   1.249   6.660   8.045
 1614POPC   C4A24894   1.370   6.580   7.640
 1614POPC   C1B24895   0.692   6.836   8.806
 1614POPC   C2B24896   0.863   6.797   8.378
 1614POPC   C3B24897   0.668   6.920   7.994
 1614POPC   C4B24898   0.898   6.793   7.659
 1615POPC   NC324899  28.656  41.279   9.516
 1615POPC   PO424900  28.105  41.646   9.509
 1615POPC   GL124901  28.267  41.385   9.185
 1615POPC   GL224902  28.528  41.637   9.177
 1615POPC   C1A24903  28.469  41.269   8.794
 1615POPC   D2A24904  28.401  41.384   8.351
 1615POPC   C3A24905  28.064  41.193   8.082
 1615POPC   C4A24906  28.108  40.998   7.641
 1615POPC   C1B24907  28.630  41.754   8.792
 1615POPC   C2B24908  28.375  41.908   8.466
 1615POPC   C3B24909  28.218  41.772   8.074
 1615POPC   C4B24910  28.326  41.477   7.738
 1616POPC   NC324911  32.527   4.427   9.603
 1616POPC   PO424912  31.947   4.025   9.415
 1616POPC   GL124913  31.997   4.313   9.081
 1616POPC   GL224914  32.313   4.492   9.122
 1616POPC   C1A24915  32.082   4.239   8.648
 1616POPC   D2A24916  32.355   4.119   8.329
 1616POPC   C3A24917  32.119   4.156   7.969
 1616POPC   C4A24918  31.878   4.360   7.602
 1616POPC   C1B24919  32.571   4.347   8.770
 1616POPC   C2B24920  32.690   4.515   8.372
 1616POPC   C3B24921  32.627   4.370   7.948
 1616POPC   C4B24922  32.376   4.245   7.543
 1617POPC   NC324923  34.204  31.216   9.439
 1617POPC   PO424924  34.872  31.108   9.358
 1617POPC   GL124925  34.778  31.476   9.119
 1617POPC   GL224926  34.446  31.573   9.173
 1617POPC   C1A24927  34.643  31.520   8.693
 1617POPC   D2A24928  34.771  31.588   8.278
 1617POPC   C3A24929  34.418  31.501   8.097
 1617POPC   C4A24930  34.469  31.284   7.790
 1617POPC   C1B24931  34.275  31.840   8.872
 1617POPC   C2B24932  34.427  31.920   8.435
 1617POPC   C3B24933  34.514  31.982   7.980
 1617POPC   C4B24934  34.320  31.752   7.639
 1618POPC   NC324935  38.834  32.175   9.604
 1618POPC   PO424936  39.501  32.055   9.485
 1618POPC   GL124937  39.275  32.160   9.139
 1618POPC   GL224938  38.997  32.351   9.168
 1618POPC   C1A24939  39.140  32.093   8.722
 1618POPC   D2A24940  39.300  32.355   8.421
 1618POPC   C3A24941  39.225  32.316   8.017
 1618POPC   C4A24942  39.534  32.061   7.859
 1618POPC   C1B24943  38.759  32.475   8.822
 1618POPC   C2B24944  38.811  32.499   8.359
 1618POPC   C3B24945  38.780  32.574   7.914
 1618POPC   C4B24946  38.875  32.575   7.451
 1619POPC   NC324947  24.326  36.114   9.711
 1619POPC   PO424948  24.866  35.970   9.615
 1619POPC   GL124949  24.536  36.039   9.244
 1619POPC   GL224950  24.183  35.906   9.262
 1619POPC   C1A24951  24.408  36.162   8.795
 1619POPC   D2A24952  24.318  35.962   8.387
 1619POPC   C3A24953  24.525  36.038   7.967
 1619POPC   C4A24954  24.430  36.245   7.557
 1619POPC   C1B24955  24.140  35.716   8.840
 1619POPC   C2B24956  24.104  35.512   8.432
 1619POPC   C3B24957  24.157  35.663   8.003
 1619POPC   C4B24958  24.288  35.752   7.593
 1620POPC   NC324959  30.904  30.108   9.549
 1620POPC   PO424960  30.393  29.790   9.241
 1620POPC   GL124961  30.778  29.908   9.104
 1620POPC   GL224962  31.023  29.640   9.177
 1620POPC   C1A24963  30.717  30.096   8.727
 1620POPC   D2A24964  30.380  30.123   8.439
 1620POPC   C3A24965  30.595  30.052   8.067
 1620POPC   C4A24966  30.651  29.665   7.850
 1620POPC   C1B24967  31.166  29.845   8.785
 1620POPC   C2B24968  31.001  29.871   8.364
 1620POPC   C3B24969  31.142  29.731   7.967
 1620POPC   C4B24970  30.985  30.056   7.691
 1621POPC   NC324971  36.718  38.181   9.469
 1621POPC   PO424972  37.167  38.750   9.548
 1621POPC   GL124973  37.078  38.396   9.183
 1621POPC   GL224974  37.331  38.121   9.149
 1621POPC   C1A24975  36.764  38.259   8.793
 1621POPC   D2A24976  36.899  38.244   8.326
 1621POPC   C3A24977  36.791  38.524   7.959
 1621POPC   C4A24978  36.724  38.414   7.499
 1621POPC   C1B24979  37.251  38.258   8.719
 1621POPC   C2B24980  37.414  38.142   8.327
 1621POPC   C3B24981  37.247  38.267   7.918
 1621POPC   C4B24982  37.157  38.111   7.473
 1622POPC   NC324983  11.999   3.196   9.479
 1622POPC   PO424984  12.026   3.920   9.506
 1622POPC   GL124985  11.936   3.740   9.094
 1622POPC   GL224986  11.961   3.368   9.014
 1622POPC   C1A24987  12.162   3.710   8.692
 1622POPC   D2A24988  12.075   3.458   8.323
 1622POPC   C3A24989  12.143   3.653   7.923
 1622POPC   C4A24990  12.011   3.490   7.529
 1622POPC   C1B24991  12.324   3.238   8.747
 1622POPC   C2B24992  12.492   3.167   8.309
 1622POPC   C3B24993  12.260   3.159   7.879
 1622POPC   C4B24994  12.410   3.176   7.427
 1623POPC   NC324995  34.113  30.423   9.466
 1623POPC   PO424996  33.894  31.001   9.178
 1623POPC   GL124997  34.027  30.644   8.972
 1623POPC   GL224998  33.812  30.348   9.040
 1623POPC   C1A24999  33.966  30.765   8.542
 1623POPC   D2A25000  34.195  31.085   8.306
 1623POPC   C3A25001  34.137  30.923   7.941
 1623POPC   C4A25002  33.828  30.824   7.648
 1623POPC   C1B25003  33.571  30.421   8.667
 1623POPC   C2B25004  33.711  30.402   8.232
 1623POPC   C3B25005  33.492  30.485   7.860
 1623POPC   C4B25006  33.606  30.399   7.418
 1624POPC   NC325007  26.997  44.142   9.525
 1624POPC   PO425008  26.527  43.687   9.575
 1624POPC   GL125009  26.798  43.755   9.216
 1624POPC   GL225010  26.535  43.764   8.951
 1624POPC   C1A25011  26.978  44.012   8.855
 1624POPC   D2A25012  26.739  43.955   8.439
 1624POPC   C3A25013  27.024  44.010   8.074
 1624POPC   C4A25014  27.088  44.406   7.831
 1624POPC   C1B25015  26.846  43.542   8.744
 1624POPC   C2B25016  27.019  43.528   8.367
 1624POPC   C3B25017  26.890  43.517   7.977
 1624POPC   C4B25018  26.538  43.700   7.796
 1625POPC   NC325019  27.880  11.162   9.318
 1625POPC   PO425020  28.575  11.284   9.501
 1625POPC   GL125021  28.375  11.425   9.148
 1625POPC   GL225022  28.496  11.108   9.006
 1625POPC   C1A25023  28.376  11.719   8.793
 1625POPC   D2A25024  28.298  11.729   8.375
 1625POPC   C3A25025  28.425  11.366   8.207
 1625POPC   C4A25026  28.556  11.250   7.835
 1625POPC   C1B25027  28.172  11.254   8.704
 1625POPC   C2B25028  27.937  11.299   8.340
 1625POPC   C3B25029  28.012  11.105   7.957
 1625POPC   C4B25030  27.963  10.987   7.519
 1626POPC   NC325031  16.424  11.602   9.632
 1626POPC   PO425032  16.809  11.042   9.616
 1626POPC   GL125033  16.591  11.223   9.254
 1626POPC   GL225034  16.747  11.536   9.217
 1626POPC   C1A25035  16.353  11.077   8.870
 1626POPC   D2A25036  16.266  10.860   8.463
 1626POPC   C3A25037  16.390  11.119   8.058
 1626POPC   C4A25038  16.667  11.289   7.690
 1626POPC   C1B25039  16.698  11.456   8.756
 1626POPC   C2B25040  16.743  11.444   8.272
 1626POPC   C3B25041  17.008  11.588   7.910
 1626POPC   C4B25042  17.127  11.444   7.467
 1627POPC   NC325043   6.509  33.329   9.395
 1627POPC   PO425044   6.557  34.064   9.503
 1627POPC   GL125045   6.386  33.831   9.172
 1627POPC   GL225046   6.665  33.654   9.041
 1627POPC   C1A25047   6.289  33.841   8.742
 1627POPC   D2A25048   6.622  33.832   8.454
 1627POPC   C3A25049   6.491  33.939   8.064
 1627POPC   C4A25050   6.488  33.694   7.759
 1627POPC   C1B25051   6.946  33.506   8.727
 1627POPC   C2B25052   7.161  33.682   8.371
 1627POPC   C3B25053   6.983  33.863   8.005
 1627POPC   C4B25054   6.954  33.720   7.575
 1628POPC   NC325055   5.633  16.867   9.465
 1628POPC   PO425056   5.990  16.384   9.261
 1628POPC   GL125057   5.803  16.625   9.033
 1628POPC   GL225058   6.061  16.872   9.138
 1628POPC   C1A25059   5.748  16.515   8.615
 1628POPC   D2A25060   5.793  16.803   8.324
 1628POPC   C3A25061   5.855  16.667   7.957
 1628POPC   C4A25062   5.766  16.911   7.632
 1628POPC   C1B25063   5.955  17.029   8.757
 1628POPC   C2B25064   6.130  17.254   8.441
 1628POPC   C3B25065   6.087  17.121   8.028
 1628POPC   C4B25066   6.220  17.094   7.628
 1629POPC   NC325067  31.861  11.634   9.447
 1629POPC   PO425068  31.522  12.211   9.528
 1629POPC   GL125069  31.577  11.958   9.173
 1629POPC   GL225070  31.288  12.150   9.069
 1629POPC   C1A25071  31.460  11.821   8.738
 1629POPC   D2A25072  31.428  12.149   8.447
 1629POPC   C3A25073  31.375  11.969   8.056
 1629POPC   C4A25074  31.685  11.866   7.754
 1629POPC   C1B25075  31.153  12.438   8.781
 1629POPC   C2B25076  31.004  12.419   8.352
 1629POPC   C3B25077  31.278  12.507   8.075
 1629POPC   C4B25078  31.364  12.337   7.697
 1630POPC   NC325079   8.324  10.120   9.739
 1630POPC   PO425080   8.394  10.807   9.483
 1630POPC   GL125081   8.261  10.769   9.029
 1630POPC   GL225082   8.008  10.534   9.155
 1630POPC   C1A25083   8.378  10.517   8.637
 1630POPC   D2A25084   8.395  10.123   8.370
 1630POPC   C3A25085   8.365  10.321   7.975
 1630POPC   C4A25086   8.353  10.771   8.005
 1630POPC   C1B25087   7.864  10.554   8.711
 1630POPC   C2B25088   7.950  10.555   8.259
 1630POPC   C3B25089   7.926  10.521   7.799
 1630POPC   C4B25090   7.968  10.163   7.479
 1631POPC   NC325091   3.027  19.797   9.394
 1631POPC   PO425092   3.647  19.914   9.385
 1631POPC   GL125093   3.602  19.964   8.980
 1631POPC   GL225094   3.235  19.944   8.946
 1631POPC   C1A25095   3.562  19.750   8.590
 1631POPC   D2A25096   3.629  19.603   8.179
 1631POPC   C3A25097   3.766  19.946   7.915
 1631POPC   C4A25098   3.506  20.296   7.743
 1631POPC   C1B25099   2.963  19.738   8.617
 1631POPC   C2B25100   3.144  19.522   8.364
 1631POPC   C3B25101   3.105  19.563   7.979
 1631POPC   C4B25102   3.433  19.560   7.719
 1632POPC   NC325103  39.293  38.048   9.415
 1632POPC   PO425104  39.465  37.420   9.335
 1632POPC   GL125105  39.190  37.639   9.054
 1632POPC   GL225106  38.896  37.886   9.099
 1632POPC   C1A25107  39.356  37.631   8.643
 1632POPC   D2A25108  39.547  37.611   8.243
 1632POPC   C3A25109  39.304  37.589   7.860
 1632POPC   C4A25110  39.463  37.537   7.438
 1632POPC   C1B25111  38.883  37.816   8.648
 1632POPC   C2B25112  39.127  37.951   8.282
 1632POPC   C3B25113  39.025  38.050   7.903
 1632POPC   C4B25114  38.973  37.804   7.512
 1633POPC   NC325115  36.875  35.928   9.570
 1633POPC   PO425116  37.218  36.473   9.416
 1633POPC   GL125117  37.021  36.181   9.134
 1633POPC   GL225118  36.662  36.128   9.146
 1633POPC   C1A25119  36.948  36.165   8.703
 1633POPC   D2A25120  36.866  36.410   8.361
 1633POPC   C3A25121  36.863  36.172   8.013
 1633POPC   C4A25122  37.139  35.827   7.849
 1633POPC   C1B25123  36.518  35.883   8.772
 1633POPC   C2B25124  36.621  35.858   8.359
 1633POPC   C3B25125  36.654  35.689   7.958
 1633POPC   C4B25126  36.490  35.998   7.726
 1634POPC   NC325127   1.215   4.675   9.631
 1634POPC   PO425128   1.081   4.030   9.551
 1634POPC   GL125129   1.277   4.273   9.275
 1634POPC   GL225130   1.064   4.536   9.167
 1634POPC   C1A25131   1.442   4.216   8.879
 1634POPC   D2A25132   1.316   4.076   8.505
 1634POPC   C3A25133   1.426   4.240   8.141
 1634POPC   C4A25134   1.396   4.156   7.726
 1634POPC   C1B25135   0.926   4.230   8.867
 1634POPC   C2B25136   0.793   4.122   8.452
 1634POPC   C3B25137   0.912   4.158   8.039
 1634POPC   C4B25138   0.932   4.371   7.665
 1635POPC   NC325139  28.162  15.362   9.592
 1635POPC   PO425140  28.642  14.899   9.344
 1635POPC   GL125141  28.495  15.245   9.107
 1635POPC   GL225142  28.150  15.204   9.119
 1635POPC   C1A25143  28.608  15.259   8.661
 1635POPC   D2A25144  28.766  15.256   8.237
 1635POPC   C3A25145  28.465  15.437   7.979
 1635POPC   C4A25146  28.233  15.239   7.691
 1635POPC   C1B25147  28.160  15.056   8.721
 1635POPC   C2B25148  28.243  15.082   8.289
 1635POPC   C3B25149  27.955  14.925   7.986
 1635POPC   C4B25150  28.071  14.758   7.626
 1636POPC   NC325151  24.410   5.924   9.548
 1636POPC   PO425152  24.773   5.351   9.567
 1636POPC   GL125153  24.709   5.629   9.220
 1636POPC   GL225154  24.371   5.529   9.232
 1636POPC   C1A25155  24.496   5.769   8.817
 1636POPC   D2A25156  24.384   5.906   8.423
 1636POPC   C3A25157  24.701   5.884   8.114
 1636POPC   C4A25158  24.682   5.889   7.692
 1636POPC   C1B25159  24.209   5.343   8.882
 1636POPC   C2B25160  24.190   5.386   8.449
 1636POPC   C3B25161  24.277   5.572   8.025
 1636POPC   C4B25162  24.436   5.394   7.636
 1637POPC   NC325163  36.819   0.022   9.475
 1637POPC   PO425164  36.448   0.534   9.849
 1637POPC   GL125165  36.789   0.512   9.358
 1637POPC   GL225166  36.716   0.298   9.051
 1637POPC   C1A25167  37.018   0.632   8.886
 1637POPC   D2A25168  36.826   0.479   8.476
 1637POPC   C3A25169  36.982   0.664   8.076
 1637POPC   C4A25170  36.841   0.636   7.625
 1637POPC   C1B25171  37.089   0.126   8.789
 1637POPC   C2B25172  37.042   0.023   8.339
 1637POPC   C3B25173  36.864   0.179   7.929
 1637POPC   C4B25174  36.957   0.178   7.452
 1638POPC   NC325175  18.969  44.495   9.345
 1638POPC   PO425176  19.465  44.733   9.659
 1638POPC   GL125177  19.320  44.774   9.125
 1638POPC   GL225178  19.229  44.493   8.886
 1638POPC   C1A25179  18.983  44.917   8.796
 1638POPC   D2A25180  18.726  44.924   8.421
 1638POPC   C3A25181  18.908  44.702   8.059
 1638POPC   C4A25182  18.912  44.731   7.599
 1638POPC   C1B25183  19.477  44.721   8.628
 1638POPC   C2B25184  19.617  44.705   8.221
 1638POPC   C3B25185  19.360  44.829   7.868
 1638POPC   C4B25186  19.282   0.152   7.589
 1639POPC   NC325187  31.104  44.094   9.485
 1639POPC   PO425188  31.733  43.674   9.472
 1639POPC   GL125189  31.398  43.796   9.204
 1639POPC   GL225190  31.157  43.557   9.326
 1639POPC   C1A25191  31.418  44.079   8.846
 1639POPC   D2A25192  31.626  44.008   8.459
 1639POPC   C3A25193  31.568  44.291   8.144
 1639POPC   C4A25194  31.714  44.163   7.752
 1639POPC   C1B25195  31.103  43.445   8.886
 1639POPC   C2B25196  31.187  43.716   8.541
 1639POPC   C3B25197  31.269  43.698   8.140
 1639POPC   C4B25198  31.264  43.971   7.827
 1640POPC   NC325199  16.461   2.924   9.515
 1640POPC   PO425200  17.021   2.441   9.671
 1640POPC   GL125201  16.744   2.658   9.215
 1640POPC   GL225202  16.908   2.982   9.124
 1640POPC   C1A25203  16.789   2.655   8.728
 1640POPC   D2A25204  16.610   2.716   8.317
 1640POPC   C3A25205  16.941   2.856   8.057
 1640POPC   C4A25206  17.169   2.938   7.685
 1640POPC   C1B25207  16.625   3.131   8.765
 1640POPC   C2B25208  16.572   3.243   8.310
 1640POPC   C3B25209  16.574   3.179   7.844
 1640POPC   C4B25210  16.802   3.205   7.412
 1641POPC   NC325211  14.813  26.324   9.647
 1641POPC   PO425212  15.435  25.999   9.456
 1641POPC   GL125213  15.087  26.164   9.206
 1641POPC   GL225214  14.942  25.901   8.997
 1641POPC   C1A25215  15.065  26.323   8.766
 1641POPC   D2A25216  15.257  26.169   8.397
 1641POPC   C3A25217  15.119  26.146   7.978
 1641POPC   C4A25218  15.372  25.838   7.793
 1641POPC   C1B25219  15.260  25.778   8.721
 1641POPC   C2B25220  15.237  25.660   8.262
 1641POPC   C3B25221  14.988  25.521   7.874
 1641POPC   C4B25222  15.129  25.540   7.452
 1642POPC   NC325223  40.209  24.146   9.441
 1642POPC   PO425224  40.896  24.249   9.462
 1642POPC   GL125225  40.855  24.483   9.090
 1642POPC   GL225226  40.542  24.285   9.070
 1642POPC   C1A25227  40.908  24.429   8.671
 1642POPC   D2A25228  40.929  24.094   8.412
 1642POPC   C3A25229  40.859  24.241   8.002
 1642POPC   C4A25230  41.062  24.465   7.672
 1642POPC   C1B25231  40.442  24.609   8.782
 1642POPC   C2B25232  40.567  24.607   8.329
 1642POPC   C3B25233  40.373  24.489   7.961
 1642POPC   C4B25234  40.569  24.354   7.593
 1643POPC   NC325235  20.994  26.186   9.423
 1643POPC   PO425236  20.323  26.085   9.543
 1643POPC   GL125237  20.529  26.217   9.187
 1643POPC   GL225238  20.693  25.895   9.128
 1643POPC   C1A25239  20.755  26.274   8.785
 1643POPC   D2A25240  20.717  26.014   8.444
 1643POPC   C3A25241  20.983  26.046   8.111
 1643POPC   C4A25242  20.831  26.128   7.721
 1643POPC   C1B25243  20.357  25.884   8.822
 1643POPC   C2B25244  20.291  25.722   8.409
 1643POPC   C3B25245  20.529  25.693   8.031
 1643POPC   C4B25246  20.326  25.905   7.716
 1644POPC   NC325247  41.241   5.067   9.566
 1644POPC   PO425248  41.793   4.726   9.503
 1644POPC   GL125249  41.639   4.941   9.150
 1644POPC   GL225250  41.289   4.935   9.091
 1644POPC   C1A25251  41.764   5.193   8.816
 1644POPC   D2A25252  41.796   5.400   8.473
 1644POPC   C3A25253  41.800   5.181   8.089
 1644POPC   C4A25254  41.557   5.232   7.771
 1644POPC   C1B25255  41.309   5.008   8.689
 1644POPC   C2B25256  41.570   4.862   8.439
 1644POPC   C3B25257  41.345   4.901   8.104
 1644POPC   C4B25258  41.348   4.790   7.717
 1645POPC   NC325259   7.567  40.975   9.827
 1645POPC   PO425260   8.174  40.896   9.553
 1645POPC   GL125261   8.193  40.765   9.145
 1645POPC   GL225262   8.004  40.463   9.218
 1645POPC   C1A25263   8.326  40.910   8.745
 1645POPC   D2A25264   8.517  40.773   8.377
 1645POPC   C3A25265   8.447  41.002   8.020
 1645POPC   C4A25266   8.376  40.867   7.603
 1645POPC   C1B25267   8.088  40.450   8.765
 1645POPC   C2B25268   8.071  40.520   8.358
 1645POPC   C3B25269   8.001  40.650   7.959
 1645POPC   C4B25270   8.070  40.425   7.634
 1646POPC   NC325271  34.213  38.279   9.596
 1646POPC   PO425272  34.802  38.570   9.458
 1646POPC   GL125273  34.630  38.615   9.093
 1646POPC   GL225274  34.316  38.635   9.146
 1646POPC   C1A25275  34.565  38.779   8.712
 1646POPC   D2A25276  34.485  38.634   8.356
 1646POPC   C3A25277  34.796  38.478   8.136
 1646POPC   C4A25278  34.954  38.446   7.755
 1646POPC   C1B25279  34.215  38.387   8.780
 1646POPC   C2B25280  33.999  38.436   8.396
 1646POPC   C3B25281  34.097  38.654   8.052
 1646POPC   C4B25282  34.420  38.614   7.759
 1647POPC   NC325283  32.370  37.368   9.695
 1647POPC   PO425284  32.043  37.897   9.456
 1647POPC   GL125285  32.265  37.594   9.230
 1647POPC   GL225286  31.987  37.481   9.078
 1647POPC   C1A25287  32.475  37.556   8.824
 1647POPC   D2A25288  32.506  37.878   8.484
 1647POPC   C3A25289  32.468  37.725   8.048
 1647POPC   C4A25290  32.492  37.873   7.631
 1647POPC   C1B25291  32.031  37.796   8.782
 1647POPC   C2B25292  32.082  37.629   8.388
 1647POPC   C3B25293  31.949  37.786   8.013
 1647POPC   C4B25294  31.939  37.602   7.648
 1648POPC   NC325295  30.332  32.412   9.545
 1648POPC   PO425296  30.815  31.979   9.488
 1648POPC   GL125297  30.697  32.027   9.118
 1648POPC   GL225298  30.710  32.382   9.177
 1648POPC   C1A25299  30.639  31.918   8.680
 1648POPC   D2A25300  30.620  31.918   8.238
 1648POPC   C3A25301  30.722  32.208   7.907
 1648POPC   C4A25302  30.853  31.992   7.521
 1648POPC   C1B25303  30.619  32.420   8.758
 1648POPC   C2B25304  30.398  32.374   8.408
 1648POPC   C3B25305  30.369  32.607   8.052
 1648POPC   C4B25306  30.370  32.550   7.642
 1649POPC   NC325307  16.913   6.732   9.609
 1649POPC   PO425308  16.388   6.254   9.435
 1649POPC   GL125309  16.521   6.520   9.079
 1649POPC   GL225310  16.775   6.718   9.087
 1649POPC   C1A25311  16.388   6.845   8.759
 1649POPC   D2A25312  16.488   6.881   8.324
 1649POPC   C3A25313  16.745   6.535   8.217
 1649POPC   C4A25314  16.848   6.370   7.835
 1649POPC   C1B25315  16.881   6.979   8.701
 1649POPC   C2B25316  16.974   7.021   8.253
 1649POPC   C3B25317  16.878   6.888   7.833
 1649POPC   C4B25318  17.152   6.627   7.521
 1650POPC   NC325319   0.315  37.104   9.735
 1650POPC   PO425320   0.234  37.799   9.576
 1650POPC   GL125321   0.333  37.758   9.169
 1650POPC   GL225322   0.230  38.032   9.060
 1650POPC   C1A25323   0.278  37.607   8.724
 1650POPC   D2A25324   0.329  37.415   8.287
 1650POPC   C3A25325   0.567  37.597   7.917
 1650POPC   C4A25326   0.383  37.691   7.487
 1650POPC   C1B25327   0.571  38.004   8.770
 1650POPC   C2B25328   0.532  37.886   8.332
 1650POPC   C3B25329   0.306  38.026   7.968
 1650POPC   C4B25330   0.200  38.163   7.559
 1651POPC   NC325331  29.235  10.327   9.449
 1651POPC   PO425332  29.284  10.944   9.073
 1651POPC   GL125333  29.216  10.570   8.943
 1651POPC   GL225334  28.990  10.413   9.025
 1651POPC   C1A25335  29.166  10.505   8.541
 1651POPC   D2A25336  28.939  10.664   8.214
 1651POPC   C3A25337  29.271  10.635   7.993
 1651POPC   C4A25338  29.540  10.756   7.751
 1651POPC   C1B25339  28.869  10.137   8.708
 1651POPC   C2B25340  28.967  10.162   8.230
 1651POPC   C3B25341  28.939  10.300   7.795
 1651POPC   C4B25342  28.833  10.181   7.372
 1652POPC   NC325343   7.058   4.261   9.283
 1652POPC   PO425344   7.731   4.467   9.528
 1652POPC   GL125345   7.532   4.465   9.152
 1652POPC   GL225346   7.563   4.130   9.137
 1652POPC   C1A25347   7.451   4.503   8.711
 1652POPC   D2A25348   7.385   4.577   8.281
 1652POPC   C3A25349   7.558   4.389   7.926
 1652POPC   C4A25350   7.532   4.342   7.460
 1652POPC   C1B25351   7.373   3.976   8.757
 1652POPC   C2B25352   7.386   4.046   8.335
 1652POPC   C3B25353   7.194   4.055   7.962
 1652POPC   C4B25354   7.465   3.860   7.675
 1653POPC   NC325355   1.776   6.454   9.397
 1653POPC   PO425356   2.371   6.708   9.288
 1653POPC   GL125357   2.310   6.453   8.997
 1653POPC   GL225358   1.956   6.574   8.933
 1653POPC   C1A25359   2.330   6.608   8.598
 1653POPC   D2A25360   1.969   6.727   8.416
 1653POPC   C3A25361   2.058   6.581   8.085
 1653POPC   C4A25362   1.864   6.615   7.754
 1653POPC   C1B25363   1.633   6.872   8.790
 1653POPC   C2B25364   1.457   6.969   8.398
 1653POPC   C3B25365   1.607   7.029   7.976
 1653POPC   C4B25366   1.720   7.073   7.558
 1654POPC   NC325367  38.961   4.913   9.487
 1654POPC   PO425368  39.625   5.189   9.454
 1654POPC   GL125369  39.283   5.171   9.187
 1654POPC   GL225370  39.337   4.836   9.137
 1654POPC   C1A25371  39.199   5.117   8.757
 1654POPC   D2A25372  39.011   5.144   8.386
 1654POPC   C3A25373  39.262   5.025   8.054
 1654POPC   C4A25374  39.135   5.107   7.662
 1654POPC   C1B25375  39.152   4.608   8.831
 1654POPC   C2B25376  39.163   4.658   8.417
 1654POPC   C3B25377  38.867   4.701   8.121
 1654POPC   C4B25378  39.066   4.612   7.748
 1655POPC   NC325379  36.446  39.402   9.346
 1655POPC   PO425380  35.925  38.975   9.477
 1655POPC   GL125381  36.030  39.151   9.062
 1655POPC   GL225382  35.931  39.522   9.130
 1655POPC   C1A25383  36.001  38.940   8.622
 1655POPC   D2A25384  36.170  38.897   8.164
 1655POPC   C3A25385  36.007  39.032   7.721
 1655POPC   C4A25386  35.858  38.936   7.249
 1655POPC   C1B25387  36.104  39.556   8.715
 1655POPC   C2B25388  36.355  39.302   8.465
 1655POPC   C3B25389  36.489  39.382   8.064
 1655POPC   C4B25390  36.461  39.272   7.623
 1656POPC   NC325391  27.981  31.839   9.539
 1656POPC   PO425392  28.300  32.424   9.555
 1656POPC   GL125393  28.308  32.093   9.223
 1656POPC   GL225394  28.020  31.947   9.036
 1656POPC   C1A25395  28.507  31.947   8.841
 1656POPC   D2A25396  28.360  32.120   8.458
 1656POPC   C3A25397  28.300  31.938   8.055
 1656POPC   C4A25398  28.430  32.152   7.717
 1656POPC   C1B25399  28.098  32.364   8.837
 1656POPC   C2B25400  28.154  32.601   8.417
 1656POPC   C3B25401  28.159  32.545   7.929
 1656POPC   C4B25402  28.034  32.391   7.489
 1657POPC   NC325403   8.398  39.551   9.360
 1657POPC   PO425404   7.862  39.088   9.262
 1657POPC   GL125405   8.165  39.239   9.050
 1657POPC   GL225406   8.418  39.041   9.248
 1657POPC   C1A25407   8.173  39.546   8.720
 1657POPC   D2A25408   8.046  39.445   8.311
 1657POPC   C3A25409   8.208  39.601   7.915
 1657POPC   C4A25410   7.954  39.574   7.506
 1657POPC   C1B25411   8.482  38.931   8.825
 1657POPC   C2B25412   8.539  38.952   8.403
 1657POPC   C3B25413   8.317  39.056   8.050
 1657POPC   C4B25414   8.421  39.225   7.653
 1658POPC   NC325415   2.115  41.757   9.569
 1658POPC   PO425416   2.368  41.168   9.543
 1658POPC   GL125417   2.190  41.388   9.208
 1658POPC   GL225418   1.820  41.431   9.287
 1658POPC   C1A25419   2.199  41.684   8.859
 1658POPC   D2A25420   2.192  41.860   8.434
 1658POPC   C3A25421   1.983  41.662   8.083
 1658POPC   C4A25422   2.109  41.611   7.670
 1658POPC   C1B25423   1.702  41.528   8.880
 1658POPC   C2B25424   1.652  41.524   8.459
 1658POPC   C3B25425   1.697  41.242   8.127
 1658POPC   C4B25426   1.752  41.245   7.701
 1659POPC   NC325427  44.111  13.651   9.616
 1659POPC   PO425428  43.492  13.330   9.748
 1659POPC   GL125429  43.743  13.517   9.293
 1659POPC   GL225430  44.050  13.647   9.110
 1659POPC   C1A25431  43.667  13.555   8.788
 1659POPC   D2A25432  43.479  13.605   8.349
 1659POPC   C3A25433  43.821  13.703   8.083
 1659POPC   C4A25434  43.968  13.663   7.686
 1659POPC   C1B25435  44.060  13.891   8.706
 1659POPC   C2B25436  44.124  14.164   8.314
 1659POPC   C3B25437  44.123  14.154   7.850
 1659POPC   C4B25438  44.043  14.067   7.400
 1660POPC   NC325439  12.062  37.968   9.653
 1660POPC   PO425440  12.155  37.302   9.450
 1660POPC   GL125441  12.244  37.588   9.151
 1660POPC   GL225442  12.185  37.939   9.145
 1660POPC   C1A25443  12.058  37.575   8.743
 1660POPC   D2A25444  12.199  37.775   8.368
 1660POPC   C3A25445  12.159  37.539   8.052
 1660POPC   C4A25446  12.047  37.575   7.690
 1660POPC   C1B25447  12.035  38.108   8.748
 1660POPC   C2B25448  11.815  38.122   8.346
 1660POPC   C3B25449  11.837  37.956   7.928
 1660POPC   C4B25450  12.098  38.034   7.508
 1661POPC   NC325451  44.349   6.852   9.473
 1661POPC   PO425452  43.762   6.397   9.551
 1661POPC   GL125453  44.012   6.564   9.196
 1661POPC   GL225454  43.762   6.431   9.003
 1661POPC   C1A25455  44.192   6.762   8.788
 1661POPC   D2A25456  44.295   6.602   8.354
 1661POPC   C3A25457  44.097   6.739   7.960
 1661POPC   C4A25458  43.612   6.725   7.833
 1661POPC   C1B25459  43.820   6.457   8.583
 1661POPC   C2B25460  43.798   6.424   8.190
 1661POPC   C3B25461  43.637   6.225   7.852
 1661POPC   C4B25462  43.628   6.273   7.426
 1662POPC   NC325463  11.995  34.842   9.447
 1662POPC   PO425464  11.752  34.223   9.472
 1662POPC   GL125465  11.902  34.335   9.059
 1662POPC   GL225466  12.183  34.519   9.079
 1662POPC   C1A25467  11.949  34.509   8.623
 1662POPC   D2A25468  11.839  34.747   8.284
 1662POPC   C3A25469  11.802  34.595   7.881
 1662POPC   C4A25470  11.693  34.726   7.463
 1662POPC   C1B25471  12.318  34.812   8.768
 1662POPC   C2B25472  12.337  34.850   8.301
 1662POPC   C3B25473  12.302  34.643   7.877
 1662POPC   C4B25474  12.472  34.450   7.466
 1663POPC   NC325475  21.983  14.629   9.469
 1663POPC   PO425476  22.410  14.171   9.502
 1663POPC   GL125477  22.113  14.278   9.126
 1663POPC   GL225478  21.712  14.312   9.180
 1663POPC   C1A25479  22.172  14.577   8.776
 1663POPC   D2A25480  22.317  14.698   8.343
 1663POPC   C3A25481  22.277  14.388   8.002
 1663POPC   C4A25482  22.184  14.444   7.570
 1663POPC   C1B25483  21.675  14.471   8.761
 1663POPC   C2B25484  21.927  14.321   8.383
 1663POPC   C3B25485  21.872  14.082   7.995
 1663POPC   C4B25486  21.753  14.121   7.575
 1664POPC   NC325487   2.849   8.539   9.534
 1664POPC   PO425488   2.855   7.806   9.509
 1664POPC   GL125489   2.570   8.073   9.230
 1664POPC   GL225490   2.667   8.391   9.103
 1664POPC   C1A25491   2.427   7.995   8.796
 1664POPC   D2A25492   2.586   8.115   8.399
 1664POPC   C3A25493   2.619   7.951   7.978
 1664POPC   C4A25494   2.825   8.142   7.635
 1664POPC   C1B25495   2.892   8.293   8.756
 1664POPC   C2B25496   3.060   8.363   8.331
 1664POPC   C3B25497   3.184   8.391   7.888
 1664POPC   C4B25498   2.946   8.650   7.574
 1665POPC   NC325499  42.050  21.828   9.440
 1665POPC   PO425500  42.535  22.252   9.499
 1665POPC   GL125501  42.305  22.240   9.105
 1665POPC   GL225502  42.051  22.043   8.986
 1665POPC   C1A25503  42.360  22.420   8.696
 1665POPC   D2A25504  42.605  22.335   8.330
 1665POPC   C3A25505  42.411  22.202   7.931
 1665POPC   C4A25506  42.361  22.089   7.447
 1665POPC   C1B25507  41.847  22.263   8.670
 1665POPC   C2B25508  41.995  22.314   8.265
 1665POPC   C3B25509  41.914  22.218   7.855
 1665POPC   C4B25510  42.146  22.515   7.590
 1666POPC   NC325511  31.214  31.030   9.476
 1666POPC   PO425512  31.497  30.497   9.471
 1666POPC   GL125513  31.282  30.615   9.134
 1666POPC   GL225514  31.503  30.894   9.072
 1666POPC   C1A25515  31.274  30.546   8.695
 1666POPC   D2A25516  31.377  30.680   8.299
 1666POPC   C3A25517  31.256  30.538   7.888
 1666POPC   C4A25518  31.673  30.501   7.711
 1666POPC   C1B25519  31.718  30.848   8.689
 1666POPC   C2B25520  31.748  31.055   8.301
 1666POPC   C3B25521  31.549  30.969   7.924
 1666POPC   C4B25522  31.380  30.864   7.505
 1667POPC   NC325523  41.220  18.135   9.974
 1667POPC   PO425524  41.551  18.299   9.404
 1667POPC   GL125525  41.722  18.240   9.095
 1667POPC   GL225526  41.563  18.526   8.952
 1667POPC   C1A25527  41.689  18.098   8.723
 1667POPC   D2A25528  41.497  18.321   8.414
 1667POPC   C3A25529  41.642  18.206   8.031
 1667POPC   C4A25530  41.623  18.558   7.842
 1667POPC   C1B25531  41.216  18.745   8.840
 1667POPC   C2B25532  41.294  18.802   8.435
 1667POPC   C3B25533  41.163  18.577   8.092
 1667POPC   C4B25534  41.155  18.752   7.717
 1668POPC   NC325535  28.279   0.082   9.491
 1668POPC   PO425536  28.632   0.580   9.270
 1668POPC   GL125537  28.328   0.690   9.017
 1668POPC   GL225538  28.094   0.501   9.231
 1668POPC   C1A25539  28.448   0.773   8.566
 1668POPC   D2A25540  28.657   0.434   8.303
 1668POPC   C3A25541  28.641   0.395   7.849
 1668POPC   C4A25542  28.733   0.351   7.389
 1668POPC   C1B25543  28.140   0.232   8.863
 1668POPC   C2B25544  28.172   0.326   8.472
 1668POPC   C3B25545  28.197   0.247   8.066
 1668POPC   C4B25546  28.052   0.547   7.798
 1669POPC   NC325547  35.105  34.350   9.457
 1669POPC   PO425548  35.480  33.827   9.485
 1669POPC   GL125549  35.207  33.776   9.154
 1669POPC   GL225550  35.310  33.466   9.007
 1669POPC   C1A25551  35.113  34.110   8.827
 1669POPC   D2A25552  34.968  34.329   8.440
 1669POPC   C3A25553  35.190  34.220   8.033
 1669POPC   C4A25554  35.116  33.809   7.816
 1669POPC   C1B25555  35.379  33.714   8.646
 1669POPC   C2B25556  35.450  33.807   8.207
 1669POPC   C3B25557  35.517  33.478   7.913
 1669POPC   C4B25558  35.316  33.311   7.566
 1670POPC   NC325559  18.927  14.080   9.541
 1670POPC   PO425560  19.150  13.464   9.584
 1670POPC   GL125561  19.150  13.437   9.148
 1670POPC   GL225562  19.061  13.787   9.125
 1670POPC   C1A25563  18.994  13.471   8.712
 1670POPC   D2A25564  19.220  13.510   8.295
 1670POPC   C3A25565  19.087  13.360   7.875
 1670POPC   C4A25566  19.298  13.170   7.497
 1670POPC   C1B25567  19.061  14.058   8.773
 1670POPC   C2B25568  19.095  14.041   8.345
 1670POPC   C3B25569  19.170  13.959   7.928
 1670POPC   C4B25570  18.765  13.915   7.730
 1671POPC   NC325571  33.338  32.089   9.537
 1671POPC   PO425572  32.859  32.560   9.451
 1671POPC   GL125573  33.190  32.450   9.181
 1671POPC   GL225574  32.994  32.150   9.133
 1671POPC   C1A25575  33.433  32.175   8.890
 1671POPC   D2A25576  33.399  31.929   8.486
 1671POPC   C3A25577  33.207  32.131   8.145
 1671POPC   C4A25578  33.302  32.023   7.733
 1671POPC   C1B25579  32.969  32.166   8.688
 1671POPC   C2B25580  32.829  31.896   8.369
 1671POPC   C3B25581  32.821  31.849   7.950
 1671POPC   C4B25582  32.815  32.135   7.646
 1672POPC   NC325583  29.979  37.446  10.035
 1672POPC   PO425584  29.718  37.842   9.706
 1672POPC   GL125585  29.986  37.950   9.315
 1672POPC   GL225586  29.777  38.120   9.050
 1672POPC   C1A25587  30.172  37.835   8.888
 1672POPC   D2A25588  29.899  37.776   8.509
 1672POPC   C3A25589  29.967  37.691   8.063
 1672POPC   C4A25590  29.755  37.391   7.776
 1672POPC   C1B25591  30.002  38.253   8.654
 1672POPC   C2B25592  30.009  38.202   8.219
 1672POPC   C3B25593  29.607  38.125   8.022
 1672POPC   C4B25594  29.436  38.297   7.611
 1673POPC   NC325595   7.271   3.293   9.440
 1673POPC   PO425596   7.181   3.928   9.602
 1673POPC   GL125597   7.182   3.751   9.195
 1673POPC   GL225598   7.547   3.616   9.151
 1673POPC   C1A25599   7.138   3.504   8.807
 1673POPC   D2A25600   7.441   3.361   8.484
 1673POPC   C3A25601   7.366   3.566   8.097
 1673POPC   C4A25602   7.254   3.355   7.710
 1673POPC   C1B25603   7.794   3.314   8.884
 1673POPC   C2B25604   7.996   3.264   8.469
 1673POPC   C3B25605   7.797   3.302   8.040
 1673POPC   C4B25606   7.733   3.292   7.580
 1674POPC   NC325607   5.238   6.332   9.517
 1674POPC   PO425608   4.789   6.759   9.529
 1674POPC   GL125609   5.025   6.663   9.165
 1674POPC   GL225610   5.043   6.312   9.053
 1674POPC   C1A25611   5.291   6.690   8.815
 1674POPC   D2A25612   5.481   6.507   8.463
 1674POPC   C3A25613   5.285   6.648   8.131
 1674POPC   C4A25614   5.127   6.707   7.763
 1674POPC   C1B25615   5.222   6.114   8.687
 1674POPC   C2B25616   5.297   6.110   8.223
 1674POPC   C3B25617   5.227   6.175   7.794
 1674POPC   C4B25618   4.907   6.314   7.511
 1675POPC   NC325619  16.309   9.857   9.648
 1675POPC   PO425620  16.910   9.918   9.539
 1675POPC   GL125621  16.585   9.927   9.186
 1675POPC   GL225622  16.385   9.645   9.116
 1675POPC   C1A25623  16.633   9.945   8.711
 1675POPC   D2A25624  16.936   9.764   8.397
 1675POPC   C3A25625  16.863   9.783   7.940
 1675POPC   C4A25626  16.608   9.930   7.580
 1675POPC   C1B25627  16.370   9.514   8.651
 1675POPC   C2B25628  16.446   9.608   8.213
 1675POPC   C3B25629  16.385   9.532   7.781
 1675POPC   C4B25630  16.280   9.602   7.317
 1676POPC   NC325631  17.013  21.105   9.452
 1676POPC   PO425632  16.521  21.547   9.332
 1676POPC   GL125633  16.757  21.503   8.984
 1676POPC   GL225634  17.099  21.486   9.103
 1676POPC   C1A25635  16.722  21.403   8.544
 1676POPC   D2A25636  16.587  21.035   8.293
 1676POPC   C3A25637  16.506  21.182   7.898
 1676POPC   C4A25638  16.607  21.607   7.773
 1676POPC   C1B25639  17.172  21.237   8.733
 1676POPC   C2B25640  17.096  21.125   8.284
 1676POPC   C3B25641  17.057  21.406   7.921
 1676POPC   C4B25642  17.010  21.552   7.477
 1677POPC   NC325643  28.783  15.887   9.596
 1677POPC   PO425644  29.360  16.231   9.500
 1677POPC   GL125645  29.073  16.038   9.160
 1677POPC   GL225646  28.705  16.107   9.147
 1677POPC   C1A25647  28.978  16.122   8.716
 1677POPC   D2A25648  29.168  15.999   8.347
 1677POPC   C3A25649  29.143  16.200   7.960
 1677POPC   C4A25650  29.300  16.077   7.541
 1677POPC   C1B25651  28.694  15.719   8.893
 1677POPC   C2B25652  28.744  15.714   8.444
 1677POPC   C3B25653  28.867  15.750   8.002
 1677POPC   C4B25654  28.682  15.749   7.603
 1678POPC   NC325655  13.364   4.894   9.726
 1678POPC   PO425656  13.889   5.235   9.624
 1678POPC   GL125657  13.592   5.106   9.285
 1678POPC   GL225658  13.241   4.940   9.247
 1678POPC   C1A25659  13.744   4.961   8.897
 1678POPC   D2A25660  13.968   5.143   8.547
 1678POPC   C3A25661  13.811   4.974   8.169
 1678POPC   C4A25662  13.862   5.046   7.754
 1678POPC   C1B25663  13.249   5.165   8.892
 1678POPC   C2B25664  13.417   5.063   8.513
 1678POPC   C3B25665  13.326   5.146   8.120
 1678POPC   C4B25666  13.340   5.040   7.717
 1679POPC   NC325667   3.735   2.147   9.510
 1679POPC   PO425668   4.440   1.983   9.521
 1679POPC   GL125669   4.220   1.914   9.164
 1679POPC   GL225670   4.117   1.606   9.126
 1679POPC   C1A25671   4.321   1.830   8.726
 1679POPC   D2A25672   4.289   2.059   8.385
 1679POPC   C3A25673   4.396   1.905   8.009
 1679POPC   C4A25674   4.347   2.072   7.607
 1679POPC   C1B25675   3.850   1.564   8.785
 1679POPC   C2B25676   3.868   1.738   8.413
 1679POPC   C3B25677   4.012   1.565   8.073
 1679POPC   C4B25678   4.016   1.688   7.683
 1680POPC   NC325679  28.177  37.762   9.536
 1680POPC   PO425680  28.307  37.284   9.265
 1680POPC   GL125681  28.428  37.725   9.092
 1680POPC   GL225682  28.146  37.932   9.025
 1680POPC   C1A25683  28.556  37.959   8.706
 1680POPC   D2A25684  28.630  37.762   8.300
 1680POPC   C3A25685  28.462  37.917   7.899
 1680POPC   C4A25686  28.276  37.807   7.501
 1680POPC   C1B25687  28.164  37.646   8.644
 1680POPC   C2B25688  28.135  37.618   8.196
 1680POPC   C3B25689  27.927  37.855   7.867
 1680POPC   C4B25690  27.756  37.695   7.452
 1681POPC   NC325691  11.458  21.024   9.534
 1681POPC   PO425692  10.895  21.503   9.429
 1681POPC   GL125693  11.110  21.265   9.157
 1681POPC   GL225694  11.445  21.355   9.142
 1681POPC   C1A25695  11.215  21.224   8.729
 1681POPC   D2A25696  11.198  21.570   8.480
 1681POPC   C3A25697  11.250  21.439   8.067
 1681POPC   C4A25698  11.239  21.090   7.808
 1681POPC   C1B25699  11.704  21.266   8.786
 1681POPC   C2B25700  11.868  21.245   8.357
 1681POPC   C3B25701  11.767  21.447   8.000
 1681POPC   C4B25702  11.630  21.332   7.590
 1682POPC   NC325703  22.480  16.470   9.534
 1682POPC   PO425704  21.742  16.511   9.711
 1682POPC   GL125705  21.980  16.582   9.298
 1682POPC   GL225706  22.269  16.598   9.089
 1682POPC   C1A25707  21.842  16.618   8.839
 1682POPC   D2A25708  21.872  16.877   8.501
 1682POPC   C3A25709  21.941  16.927   8.096
 1682POPC   C4A25710  21.776  16.749   7.782
 1682POPC   C1B25711  22.324  16.420   8.702
 1682POPC   C2B25712  22.137  16.480   8.323
 1682POPC   C3B25713  22.248  16.545   7.931
 1682POPC   C4B25714  22.608  16.362   7.749
 1683POPC   NC325715   3.149  25.843   9.685
 1683POPC   PO425716   2.621  26.297   9.650
 1683POPC   GL125717   2.647  26.125   9.211
 1683POPC   GL225718   2.514  25.778   9.178
 1683POPC   C1A25719   2.818  26.191   8.769
 1683POPC   D2A25720   2.698  26.060   8.337
 1683POPC   C3A25721   2.881  26.140   7.924
 1683POPC   C4A25722   2.845  26.393   7.513
 1683POPC   C1B25723   2.523  25.746   8.722
 1683POPC   C2B25724   2.355  25.686   8.298
 1683POPC   C3B25725   2.535  25.736   7.895
 1683POPC   C4B25726   2.719  25.889   7.520
 1684POPC   NC325727  27.527  27.975   9.529
 1684POPC   PO425728  28.129  27.578   9.599
 1684POPC   GL125729  27.878  27.665   9.261
 1684POPC   GL225730  27.922  27.999   9.128
 1684POPC   C1A25731  27.807  27.484   8.851
 1684POPC   D2A25732  27.885  27.696   8.481
 1684POPC   C3A25733  27.699  27.561   8.093
 1684POPC   C4A25734  27.882  27.796   7.740
 1684POPC   C1B25735  27.562  27.959   8.823
 1684POPC   C2B25736  27.319  27.979   8.421
 1684POPC   C3B25737  27.459  27.999   7.993
 1684POPC   C4B25738  27.410  27.627   7.670
 1685POPC   NC325739  34.186   4.315   9.517
 1685POPC   PO425740  34.786   4.596   9.618
 1685POPC   GL125741  34.594   4.433   9.229
 1685POPC   GL225742  34.701   4.080   9.193
 1685POPC   C1A25743  34.273   4.564   8.862
 1685POPC   D2A25744  34.088   4.521   8.397
 1685POPC   C3A25745  34.316   4.473   8.030
 1685POPC   C4A25746  34.501   4.225   7.702
 1685POPC   C1B25747  34.635   4.203   8.771
 1685POPC   C2B25748  34.886   4.212   8.420
 1685POPC   C3B25749  34.870   4.076   8.033
 1685POPC   C4B25750  34.927   3.942   7.655
 1686POPC   NC325751  29.092  15.021   9.455
 1686POPC   PO425752  29.195  15.664   9.517
 1686POPC   GL125753  29.026  15.422   9.119
 1686POPC   GL225754  28.963  15.064   8.985
 1686POPC   C1A25755  29.101  15.389   8.645
 1686POPC   D2A25756  29.237  15.490   8.243
 1686POPC   C3A25757  29.154  15.226   7.886
 1686POPC   C4A25758  29.247  15.222   7.446
 1686POPC   C1B25759  29.013  14.805   8.665
 1686POPC   C2B25760  29.140  14.877   8.264
 1686POPC   C3B25761  29.151  14.698   7.874
 1686POPC   C4B25762  28.981  14.798   7.489
 1687POPC   NC325763  41.228  31.297   9.930
 1687POPC   PO425764  41.793  31.189   9.724
 1687POPC   GL125765  41.693  31.377   9.268
 1687POPC   GL225766  41.376  31.268   9.181
 1687POPC   C1A25767  41.767  31.401   8.774
 1687POPC   D2A25768  41.662  31.579   8.327
 1687POPC   C3A25769  41.701  31.435   7.865
 1687POPC   C4A25770  41.567  31.698   7.479
 1687POPC   C1B25771  41.231  31.440   8.798
 1687POPC   C2B25772  41.260  31.261   8.399
 1687POPC   C3B25773  41.212  31.458   8.015
 1687POPC   C4B25774  41.296  31.299   7.596
 1688POPC   NC325775  32.080  43.960   9.315
 1688POPC   PO425776  32.461  43.668   9.759
 1688POPC   GL125777  32.338  43.534   9.275
 1688POPC   GL225778  32.039  43.561   9.060
 1688POPC   C1A25779  32.500  43.601   8.806
 1688POPC   D2A25780  32.529  43.983   8.545
 1688POPC   C3A25781  32.477  43.994   8.067
 1688POPC   C4A25782  32.225  44.188   7.730
 1688POPC   C1B25783  32.053  43.786   8.674
 1688POPC   C2B25784  32.215  43.620   8.316
 1688POPC   C3B25785  31.968  43.762   7.990
 1688POPC   C4B25786  31.979  43.751   7.563
 1689POPC   NC325787  10.793  44.331   9.683
 1689POPC   PO425788  10.608  43.763   9.348
 1689POPC   GL125789  10.246  43.757   9.093
 1689POPC   GL225790  10.185  43.475   8.978
 1689POPC   C1A25791  10.182  44.085   8.779
 1689POPC   D2A25792  10.400  44.152   8.392
 1689POPC   C3A25793  10.275  43.952   8.002
 1689POPC   C4A25794  10.298  43.909   7.550
 1689POPC   C1B25795  10.471  43.639   8.653
 1689POPC   C2B25796  10.671  43.705   8.258
 1689POPC   C3B25797  10.639  43.439   7.881
 1689POPC   C4B25798  10.640  43.551   7.444
 1690POPC   NC325799  43.448  43.666   9.456
 1690POPC   PO425800  44.097  43.938   9.547
 1690POPC   GL125801  43.906  43.765   9.194
 1690POPC   GL225802  43.645  44.009   9.163
 1690POPC   C1A25803  43.883  43.757   8.742
 1690POPC   D2A25804  43.713  43.802   8.326
 1690POPC   C3A25805  44.020  43.852   7.999
 1690POPC   C4A25806  44.127  43.776   7.603
 1690POPC   C1B25807  43.453  44.065   8.783
 1690POPC   C2B25808  43.576  44.297   8.443
 1690POPC   C3B25809  43.644  44.191   8.008
 1690POPC   C4B25810  43.524  43.841   7.783
 1691POPC   NC325811  40.106  14.862   9.312
 1691POPC   PO425812  40.155  14.248   9.506
 1691POPC   GL125813  40.053  14.401   9.120
 1691POPC   GL225814  40.390  14.471   9.052
 1691POPC   C1A25815  40.032  14.630   8.705
 1691POPC   D2A25816  39.876  14.623   8.307
 1691POPC   C3A25817  40.134  14.569   7.963
 1691POPC   C4A25818  40.024  14.295   7.650
 1691POPC   C1B25819  40.244  14.146   8.724
 1691POPC   C2B25820  40.146  14.179   8.294
 1691POPC   C3B25821  40.391  14.057   7.928
 1691POPC   C4B25822  40.410  13.986   7.454
 1692POPC   NC325823   0.784  11.732   9.432
 1692POPC   PO425824   1.294  12.162   9.597
 1692POPC   GL125825   1.147  12.064   9.190
 1692POPC   GL225826   0.860  12.247   9.073
 1692POPC   C1A25827   1.325  12.234   8.800
 1692POPC   D2A25828   1.144  12.329   8.409
 1692POPC   C3A25829   1.340  12.176   8.034
 1692POPC   C4A25830   1.630  12.155   7.695
 1692POPC   C1B25831   0.890  11.945   8.746
 1692POPC   C2B25832   0.754  11.968   8.349
 1692POPC   C3B25833   0.811  12.208   8.004
 1692POPC   C4B25834   0.987  12.259   7.655
 1693POPC   NC325835  21.819  42.824   9.428
 1693POPC   PO425836  22.544  42.719   9.333
 1693POPC   GL125837  22.389  42.394   9.074
 1693POPC   GL225838  22.091  42.291   9.221
 1693POPC   C1A25839  22.301  42.163   8.697
 1693POPC   D2A25840  22.257  42.052   8.261
 1693POPC   C3A25841  22.123  42.397   7.975
 1693POPC   C4A25842  22.199  42.432   7.525
 1693POPC   C1B25843  21.891  42.437   8.842
 1693POPC   C2B25844  21.818  42.304   8.412
 1693POPC   C3B25845  21.771  42.034   8.055
 1693POPC   C4B25846  21.575  42.135   7.657
 1694POPC   NC325847   3.957  32.134   9.562
 1694POPC   PO425848   4.599  32.313   9.580
 1694POPC   GL125849   4.349  32.171   9.238
 1694POPC   GL225850   4.445  31.884   9.076
 1694POPC   C1A25851   4.195  32.318   8.847
 1694POPC   D2A25852   4.312  32.562   8.491
 1694POPC   C3A25853   4.150  32.447   8.108
 1694POPC   C4A25854   4.359  32.469   7.711
 1694POPC   C1B25855   4.147  31.821   8.741
 1694POPC   C2B25856   4.115  31.912   8.289
 1694POPC   C3B25857   4.314  31.957   7.870
 1694POPC   C4B25858   4.407  31.914   7.411
 1695POPC   NC325859  37.068  39.174   9.802
 1695POPC   PO425860  37.347  39.565   9.351
 1695POPC   GL125861  36.950  39.242   9.211
 1695POPC   GL225862  37.066  38.893   9.053
 1695POPC   C1A25863  36.793  39.215   8.776
 1695POPC   D2A25864  37.124  39.219   8.455
 1695POPC   C3A25865  37.023  39.540   8.147
 1695POPC   C4A25866  37.196  39.562   7.741
 1695POPC   C1B25867  36.905  38.734   8.653
 1695POPC   C2B25868  36.738  38.951   8.268
 1695POPC   C3B25869  36.895  39.106   7.858
 1695POPC   C4B25870  36.781  38.921   7.449
 1696POPC   NC325871   1.015  28.620   9.607
 1696POPC   PO425872   0.372  28.353   9.571
 1696POPC   GL125873   0.423  28.436   9.159
 1696POPC   GL225874   0.081  28.366   9.052
 1696POPC   C1A25875   0.696  28.319   8.820
 1696POPC   D2A25876   0.934  28.278   8.397
 1696POPC   C3A25877   0.830  28.311   7.964
 1696POPC   C4A25878   0.904  28.613   7.642
 1696POPC   C1B25879   0.259  28.021   8.872
 1696POPC   C2B25880   0.479  27.967   8.499
 1696POPC   C3B25881   0.450  27.968   8.075
 1696POPC   C4B25882   0.327  28.219   7.718
 1697POPC   NC325883  38.608  15.953   9.485
 1697POPC   PO425884  38.002  16.225   9.438
 1697POPC   GL125885  38.311  16.033   9.089
 1697POPC   GL225886  38.706  16.137   9.029
 1697POPC   C1A25887  38.391  16.002   8.633
 1697POPC   D2A25888  38.087  16.144   8.326
 1697POPC   C3A25889  38.260  15.997   7.905
 1697POPC   C4A25890  38.122  15.822   7.484
 1697POPC   C1B25891  38.786  15.735   8.820
 1697POPC   C2B25892  38.682  15.638   8.398
 1697POPC   C3B25893  38.859  15.544   8.002
 1697POPC   C4B25894  38.585  15.625   7.664
 1698POPC   NC325895  33.177  33.542   9.681
 1698POPC   PO425896  33.069  34.148   9.651
 1698POPC   GL125897  32.844  33.912   9.334
 1698POPC   GL225898  33.124  33.742   9.201
 1698POPC   C1A25899  32.760  33.863   8.864
 1698POPC   D2A25900  32.658  34.066   8.483
 1698POPC   C3A25901  32.798  33.950   8.079
 1698POPC   C4A25902  32.889  33.805   7.651
 1698POPC   C1B25903  33.339  33.752   8.813
 1698POPC   C2B25904  33.200  33.865   8.403
 1698POPC   C3B25905  33.193  33.610   8.042
 1698POPC   C4B25906  33.389  33.656   7.643
 1699POPC   NC325907   4.099  10.477   9.598
 1699POPC   PO425908   4.551   9.941   9.691
 1699POPC   GL125909   4.273  10.119   9.317
 1699POPC   GL225910   4.503  10.423   9.257
 1699POPC   C1A25911   4.187  10.318   8.882
 1699POPC   D2A25912   4.335  10.366   8.473
 1699POPC   C3A25913   4.142  10.320   8.085
 1699POPC   C4A25914   4.191  10.542   7.691
 1699POPC   C1B25915   4.697  10.560   8.848
 1699POPC   C2B25916   4.651  10.747   8.419
 1699POPC   C3B25917   4.589  10.572   8.034
 1699POPC   C4B25918   4.686  10.761   7.660
 1700POPC   NC325919  22.281  27.943   9.648
 1700POPC   PO425920  21.890  28.463   9.482
 1700POPC   GL125921  22.129  28.532   9.144
 1700POPC   GL225922  22.271  28.215   9.191
 1700POPC   C1A25923  21.915  28.334   8.805
 1700POPC   D2A25924  21.734  28.226   8.425
 1700POPC   C3A25925  21.962  28.289   8.073
 1700POPC   C4A25926  22.027  28.333   7.662
 1700POPC   C1B25927  22.402  28.245   8.758
 1700POPC   C2B25928  22.609  28.379   8.378
 1700POPC   C3B25929  22.489  28.292   7.933
 1700POPC   C4B25930  22.427  28.014   7.539
 1701POPC   NC325931  15.650  18.760   9.520
 1701POPC   PO425932  15.952  18.182   9.516
 1701POPC   GL125933  15.942  18.280   9.113
 1701POPC   GL225934  15.989  18.612   9.152
 1701POPC   C1A25935  16.163  18.309   8.728
 1701POPC   D2A25936  16.077  18.492   8.331
 1701POPC   C3A25937  15.904  18.244   8.023
 1701POPC   C4A25938  16.067  18.069   7.681
 1701POPC   C1B25939  15.843  18.834   8.789
 1701POPC   C2B25940  15.779  18.902   8.366
 1701POPC   C3B25941  15.841  18.765   7.949
 1701POPC   C4B25942  15.862  18.760   7.498
 1702POPC   NC325943  21.547  32.014   9.689
 1702POPC   PO425944  20.968  32.217   9.464
 1702POPC   GL125945  21.146  32.152   9.107
 1702POPC   GL225946  21.483  32.210   9.204
 1702POPC   C1A25947  21.250  32.201   8.688
 1702POPC   D2A25948  21.200  31.870   8.435
 1702POPC   C3A25949  21.096  31.968   8.070
 1702POPC   C4A25950  21.361  32.048   7.742
 1702POPC   C1B25951  21.676  32.467   8.880
 1702POPC   C2B25952  21.543  32.595   8.501
 1702POPC   C3B25953  21.460  32.376   8.144
 1702POPC   C4B25954  21.764  32.382   7.827
 1703POPC   NC325955  38.251  35.515   9.590
 1703POPC   PO425956  38.781  35.067   9.562
 1703POPC   GL125957  38.509  35.138   9.150
 1703POPC   GL225958  38.213  35.269   9.173
 1703POPC   C1A25959  38.536  35.325   8.739
 1703POPC   D2A25960  38.624  35.494   8.341
 1703POPC   C3A25961  38.406  35.376   7.980
 1703POPC   C4A25962  38.686  35.251   7.670
 1703POPC   C1B25963  38.078  35.137   8.808
 1703POPC   C2B25964  38.172  34.945   8.435
 1703POPC   C3B25965  38.017  34.955   8.037
 1703POPC   C4B25966  38.247  34.964   7.668
 1704POPC   NC325967  33.289  32.857   9.511
 1704POPC   PO425968  32.780  33.292   9.627
 1704POPC   GL125969  33.070  33.242   9.263
 1704POPC   GL225970  32.951  32.953   9.134
 1704POPC   C1A25971  33.066  33.310   8.790
 1704POPC   D2A25972  32.864  33.091   8.417
 1704POPC   C3A25973  33.075  33.037   8.004
 1704POPC   C4A25974  33.023  33.281   7.645
 1704POPC   C1B25975  32.970  32.703   8.769
 1704POPC   C2B25976  33.108  32.611   8.353
 1704POPC   C3B25977  32.898  32.525   7.979
 1704POPC   C4B25978  32.845  32.718   7.597
 1705POPC   NC325979  43.270  28.086   9.527
 1705POPC   PO425980  42.997  28.666   9.403
 1705POPC   GL125981  43.207  28.450   9.148
 1705POPC   GL225982  42.894  28.213   9.205
 1705POPC   C1A25983  43.335  28.594   8.727
 1705POPC   D2A25984  43.159  28.716   8.306
 1705POPC   C3A25985  43.286  28.483   7.932
 1705POPC   C4A25986  43.136  28.101   7.716
 1705POPC   C1B25987  42.866  28.392   8.791
 1705POPC   C2B25988  43.078  28.223   8.440
 1705POPC   C3B25989  42.845  28.304   8.093
 1705POPC   C4B25990  42.611  28.289   7.759
 1706POPC   NC325991  20.795  30.091   9.471
 1706POPC   PO425992  20.255  29.751   9.501
 1706POPC   GL125993  20.551  29.658   9.166
 1706POPC   GL225994  20.919  29.742   9.135
 1706POPC   C1A25995  20.578  29.872   8.768
 1706POPC   D2A25996  20.592  30.183   8.440
 1706POPC   C3A25997  20.547  29.972   8.050
 1706POPC   C4A25998  20.375  30.014   7.663
 1706POPC   C1B25999  21.041  30.074   8.826
 1706POPC   C2B26000  21.106  30.033   8.394
 1706POPC   C3B26001  20.942  29.704   8.197
 1706POPC   C4B26002  20.868  29.665   7.768
 1707POPC   NC326003  34.356  35.697   9.453
 1707POPC   PO426004  34.525  35.073   9.651
 1707POPC   GL126005  34.600  35.067   9.167
 1707POPC   GL226006  34.594  35.445   9.084
 1707POPC   C1A26007  34.395  35.056   8.736
 1707POPC   D2A26008  34.238  35.235   8.335
 1707POPC   C3A26009  34.475  35.081   7.998
 1707POPC   C4A26010  34.759  35.336   7.656
 1707POPC   C1B26011  34.432  35.549   8.686
 1707POPC   C2B26012  34.438  35.697   8.287
 1707POPC   C3B26013  34.344  35.549   7.878
 1707POPC   C4B26014  34.469  35.694   7.454
 1708POPC   NC326015  38.091  16.746   9.565
 1708POPC   PO426016  38.754  16.466   9.574
 1708POPC   GL126017  38.449  16.512   9.265
 1708POPC   GL226018  38.520  16.813   9.124
 1708POPC   C1A26019  38.346  16.462   8.813
 1708POPC   D2A26020  38.484  16.462   8.391
 1708POPC   C3A26021  38.242  16.527   8.020
 1708POPC   C4A26022  38.551  16.489   7.718
 1708POPC   C1B26023  38.537  16.931   8.710
 1708POPC   C2B26024  38.372  16.956   8.283
 1708POPC   C3B26025  38.440  16.973   7.826
 1708POPC   C4B26026  38.430  17.029   7.396
 1709POPC   NC326027  22.094   2.555   9.457
 1709POPC   PO426028  22.115   3.258   9.391
 1709POPC   GL126029  22.009   2.907   9.085
 1709POPC   GL226030  22.184   2.556   8.960
 1709POPC   C1A26031  21.989   2.900   8.641
 1709POPC   D2A26032  22.175   2.605   8.373
 1709POPC   C3A26033  22.049   2.663   7.971
 1709POPC   C4A26034  21.988   3.079   7.807
 1709POPC   C1B26035  22.572   2.468   8.669
 1709POPC   C2B26036  22.644   2.488   8.194
 1709POPC   C3B26037  22.458   2.344   7.808
 1709POPC   C4B26038  22.515   2.440   7.372
 1710POPC   NC326039  19.376  13.070   9.505
 1710POPC   PO426040  18.762  13.055   9.285
 1710POPC   GL126041  18.983  12.996   8.929
 1710POPC   GL226042  19.302  12.953   9.019
 1710POPC   C1A26043  19.125  13.007   8.501
 1710POPC   D2A26044  19.355  12.981   8.125
 1710POPC   C3A26045  19.098  12.839   7.845
 1710POPC   C4A26046  18.693  12.999   7.777
 1710POPC   C1B26047  19.300  12.600   8.759
 1710POPC   C2B26048  19.220  12.476   8.316
 1710POPC   C3B26049  19.456  12.479   7.911
 1710POPC   C4B26050  19.412  12.647   7.485
 1711POPC   NC326051  42.570   3.950   9.732
 1711POPC   PO426052  42.268   3.399   9.397
 1711POPC   GL126053  42.279   3.449   9.002
 1711POPC   GL226054  42.632   3.407   9.015
 1711POPC   C1A26055  42.353   3.686   8.643
 1711POPC   D2A26056  42.543   3.652   8.248
 1711POPC   C3A26057  42.183   3.645   8.015
 1711POPC   C4A26058  41.991   3.376   7.733
 1711POPC   C1B26059  42.598   3.247   8.629
 1711POPC   C2B26060  42.316   3.179   8.329
 1711POPC   C3B26061  42.405   3.168   7.937
 1711POPC   C4B26062  42.529   3.495   7.648
 1712POPC   NC326063  21.933  33.606   9.351
 1712POPC   PO426064  22.437  34.061   9.446
 1712POPC   GL126065  22.181  33.949   9.095
 1712POPC   GL226066  22.449  33.691   9.068
 1712POPC   C1A26067  22.142  33.669   8.685
 1712POPC   D2A26068  22.330  33.689   8.279
 1712POPC   C3A26069  22.061  33.775   7.921
 1712POPC   C4A26070  22.227  33.598   7.626
 1712POPC   C1B26071  22.489  34.037   8.719
 1712POPC   C2B26072  22.446  34.242   8.334
 1712POPC   C3B26073  22.500  34.066   7.952
 1712POPC   C4B26074  22.413  34.072   7.544
 1713POPC   NC326075  38.800  22.047   9.431
 1713POPC   PO426076  38.102  22.015   9.489
 1713POPC   GL126077  38.167  22.290   9.183
 1713POPC   GL226078  38.495  22.443   9.244
 1713POPC   C1A26079  38.247  22.131   8.795
 1713POPC   D2A26080  38.497  22.037   8.447
 1713POPC   C3A26081  38.243  22.048   8.102
 1713POPC   C4A26082  38.180  22.295   7.742
 1713POPC   C1B26083  38.728  22.326   8.837
 1713POPC   C2B26084  38.868  22.413   8.425
 1713POPC   C3B26085  38.706  22.265   8.032
 1713POPC   C4B26086  38.597  22.044   7.639
 1714POPC   NC326087   6.991  33.935   9.381
 1714POPC   PO426088   7.578  33.874   9.677
 1714POPC   GL126089   7.483  33.786   9.264
 1714POPC   GL226090   7.555  34.102   9.133
 1714POPC   C1A26091   7.440  33.575   8.865
 1714POPC   D2A26092   7.678  33.692   8.508
 1714POPC   C3A26093   7.647  33.723   8.073
 1714POPC   C4A26094   7.418  33.824   7.749
 1714POPC   C1B26095   7.289  34.049   8.752
 1714POPC   C2B26096   7.414  34.132   8.337
 1714POPC   C3B26097   7.241  34.302   7.986
 1714POPC   C4B26098   7.230  34.274   7.568
 1715POPC   NC326099  37.804  26.002   9.658
 1715POPC   PO426100  37.189  26.233   9.727
 1715POPC   GL126101  37.476  26.094   9.289
 1715POPC   GL226102  37.837  26.239   9.123
 1715POPC   C1A26103  37.544  25.934   8.855
 1715POPC   D2A26104  37.805  25.898   8.491
 1715POPC   C3A26105  37.596  26.041   8.132
 1715POPC   C4A26106  37.589  26.007   7.683
 1715POPC   C1B26107  38.099  26.362   8.761
 1715POPC   C2B26108  38.238  26.150   8.402
 1715POPC   C3B26109  38.092  26.114   7.991
 1715POPC   C4B26110  37.979  26.371   7.723
 1716POPC   NC326111  15.024   1.950   9.560
 1716POPC   PO426112  15.085   2.558   9.239
 1716POPC   GL126113  15.253   2.107   9.131
 1716POPC   GL226114  14.966   1.821   9.089
 1716POPC   C1A26115  15.334   1.856   8.744
 1716POPC   D2A26116  15.249   2.026   8.333
 1716POPC   C3A26117  15.305   1.872   7.930
 1716POPC   C4A26118  15.289   1.755   7.491
 1716POPC   C1B26119  14.853   2.155   8.801
 1716POPC   C2B26120  14.788   2.256   8.394
 1716POPC   C3B26121  14.791   1.964   8.075
 1716POPC   C4B26122  14.868   2.019   7.653
 1717POPC   NC326123   5.009  37.610   9.460
 1717POPC   PO426124   5.292  38.162   9.331
 1717POPC   GL126125   5.035  37.923   9.022
 1717POPC   GL226126   5.254  37.633   9.024
 1717POPC   C1A26127   4.882  37.581   8.699
 1717POPC   D2A26128   4.989  37.413   8.282
 1717POPC   C3A26129   5.034  37.632   7.901
 1717POPC   C4A26130   4.873  37.652   7.470
 1717POPC   C1B26131   5.499  37.924   8.734
 1717POPC   C2B26132   5.551  38.045   8.314
 1717POPC   C3B26133   5.445  37.935   7.883
 1717POPC   C4B26134   5.371  37.686   7.481
 1718POPC   NC326135  37.091  26.587   9.404
 1718POPC   PO426136  37.715  26.456   9.547
 1718POPC   GL126137  37.588  26.709   9.188
 1718POPC   GL226138  37.391  26.504   9.003
 1718POPC   C1A26139  37.671  26.864   8.752
 1718POPC   D2A26140  37.482  27.190   8.444
 1718POPC   C3A26141  37.675  27.043   8.071
 1718POPC   C4A26142  37.790  26.840   7.664
 1718POPC   C1B26143  37.609  26.375   8.621
 1718POPC   C2B26144  37.811  26.502   8.237
 1718POPC   C3B26145  37.523  26.479   7.880
 1718POPC   C4B26146  37.547  26.438   7.420
 1719POPC   NC326147  29.151  21.534   9.551
 1719POPC   PO426148  29.590  21.002   9.563
 1719POPC   GL126149  29.503  21.283   9.222
 1719POPC   GL226150  29.290  21.103   9.024
 1719POPC   C1A26151  29.580  21.491   8.804
 1719POPC   D2A26152  29.450  21.571   8.349
 1719POPC   C3A26153  29.430  21.267   7.997
 1719POPC   C4A26154  29.347  21.517   7.660
 1719POPC   C1B26155  29.248  21.148   8.550
 1719POPC   C2B26156  28.963  21.225   8.182
 1719POPC   C3B26157  28.724  21.014   7.861
 1719POPC   C4B26158  28.787  20.827   7.440
 1720POPC   NC326159   6.076  30.300   9.425
 1720POPC   PO426160   5.622  30.903   9.380
 1720POPC   GL126161   5.864  30.673   9.115
 1720POPC   GL226162   5.689  30.381   9.080
 1720POPC   C1A26163   6.040  30.560   8.717
 1720POPC   D2A26164   5.884  30.422   8.300
 1720POPC   C3A26165   6.004  30.695   7.957
 1720POPC   C4A26166   6.264  31.035   7.851
 1720POPC   C1B26167   5.524  30.696   8.734
 1720POPC   C2B26168   5.603  30.860   8.284
 1720POPC   C3B26169   5.498  30.597   7.921
 1720POPC   C4B26170   5.516  30.495   7.480
 1721POPC   NC326171  27.603   3.182   9.365
 1721POPC   PO426172  27.660   3.804   9.572
 1721POPC   GL126173  27.571   3.889   9.166
 1721POPC   GL226174  27.245   3.824   9.189
 1721POPC   C1A26175  27.749   3.848   8.732
 1721POPC   D2A26176  27.618   3.875   8.277
 1721POPC   C3A26177  27.812   3.573   7.978
 1721POPC   C4A26178  28.122   3.594   7.632
 1721POPC   C1B26179  27.330   3.566   8.813
 1721POPC   C2B26180  27.282   3.506   8.358
 1721POPC   C3B26181  27.145   3.631   7.921
 1721POPC   C4B26182  27.327   3.537   7.480
 1722POPC   NC326183  39.023  42.653   9.599
 1722POPC   PO426184  39.173  41.996   9.567
 1722POPC   GL126185  39.064  42.176   9.175
 1722POPC   GL226186  39.325  42.426   9.133
 1722POPC   C1A26187  39.235  42.065   8.759
 1722POPC   D2A26188  39.538  42.052   8.420
 1722POPC   C3A26189  39.303  42.150   8.078
 1722POPC   C4A26190  39.375  42.195   7.662
 1722POPC   C1B26191  39.300  42.579   8.691
 1722POPC   C2B26192  39.517  42.578   8.282
 1722POPC   C3B26193  39.294  42.625   7.884
 1722POPC   C4B26194  38.917  42.383   7.813
 1723POPC   NC326195  18.635  42.215   9.241
 1723POPC   PO426196  18.043  42.544   9.435
 1723POPC   GL126197  18.230  42.495   9.057
 1723POPC   GL226198  18.508  42.675   9.026
 1723POPC   C1A26199  18.200  42.636   8.626
 1723POPC   D2A26200  17.992  42.598   8.238
 1723POPC   C3A26201  18.180  42.398   7.884
 1723POPC   C4A26202  17.929  42.559   7.498
 1723POPC   C1B26203  18.724  42.476   8.671
 1723POPC   C2B26204  18.481  42.220   8.414
 1723POPC   C3B26205  18.410  41.937   8.091
 1723POPC   C4B26206  18.211  41.869   7.707
 1724POPC   NC326207  34.023  37.611   9.504
 1724POPC   PO426208  33.400  37.467   9.174
 1724POPC   GL126209  33.736  37.707   9.092
 1724POPC   GL226210  33.926  37.408   9.065
 1724POPC   C1A26211  34.103  37.829   8.851
 1724POPC   D2A26212  34.139  37.953   8.463
 1724POPC   C3A26213  33.825  37.886   8.177
 1724POPC   C4A26214  33.830  37.736   7.798
 1724POPC   C1B26215  33.845  37.431   8.639
 1724POPC   C2B26216  33.884  37.392   8.229
 1724POPC   C3B26217  33.657  37.281   7.892
 1724POPC   C4B26218  33.975  37.310   7.578
 1725POPC   NC326219  44.914  28.380   9.540
 1725POPC   PO426220  44.370  28.675   9.441
 1725POPC   GL126221  44.603  28.553   9.131
 1725POPC   GL226222  44.587  28.223   9.146
 1725POPC   C1A26223  44.716  28.539   8.710
 1725POPC   D2A26224  44.445  28.677   8.383
 1725POPC   C3A26225  44.717  28.716   8.048
 1725POPC   C4A26226  44.593  28.433   7.758
 1725POPC   C1B26227  44.687  28.032   8.803
 1725POPC   C2B26228  44.970  28.108   8.461
 1725POPC   C3B26229  44.936  28.190   8.040
 1725POPC   C4B26230  44.812  27.993   7.649
 1726POPC   NC326231  12.517   9.159   9.419
 1726POPC   PO426232  12.741   9.860   9.396
 1726POPC   GL126233  12.868   9.635   9.064
 1726POPC   GL226234  12.582   9.476   9.038
 1726POPC   C1A26235  13.070   9.708   8.681
 1726POPC   D2A26236  12.894   9.793   8.278
 1726POPC   C3A26237  13.084  10.124   8.050
 1726POPC   C4A26238  13.215   9.855   7.728
 1726POPC   C1B26239  12.536   9.720   8.687
 1726POPC   C2B26240  12.420   9.944   8.344
 1726POPC   C3B26241  12.364   9.772   7.954
 1726POPC   C4B26242  12.694   9.548   7.756
 1727POPC   NC326243  22.746  35.740   9.293
 1727POPC   PO426244  22.956  36.205   9.732
 1727POPC   GL126245  22.963  36.202   9.249
 1727POPC   GL226246  23.211  35.993   9.157
 1727POPC   C1A26247  22.852  36.089   8.758
 1727POPC   D2A26248  22.865  36.260   8.307
 1727POPC   C3A26249  22.836  35.992   7.932
 1727POPC   C4A26250  22.647  36.030   7.511
 1727POPC   C1B26251  23.371  36.094   8.742
 1727POPC   C2B26252  23.311  35.959   8.309
 1727POPC   C3B26253  23.309  36.169   7.914
 1727POPC   C4B26254  22.972  36.419   7.683
 1728POPC   NC326255   9.254   5.618   9.507
 1728POPC   PO426256   8.688   6.074   9.599
 1728POPC   GL126257   8.817   6.034   9.170
 1728POPC   GL226258   9.187   6.014   9.134
 1728POPC   C1A26259   8.861   6.068   8.713
 1728POPC   D2A26260   8.741   5.993   8.279
 1728POPC   C3A26261   8.833   5.578   8.116
 1728POPC   C4A26262   8.708   5.518   7.712
 1728POPC   C1B26263   9.341   5.856   8.706
 1728POPC   C2B26264   9.274   6.007   8.280
 1728POPC   C3B26265   9.134   5.907   7.857
 1728POPC   C4B26266   9.310   6.107   7.506
 1729POPC   NC326267  28.415   4.633   9.591
 1729POPC   PO426268  28.600   4.046   9.331
 1729POPC   GL126269  28.603   4.252   8.988
 1729POPC   GL226270  28.436   4.479   9.094
 1729POPC   C1A26271  28.645   4.561   8.643
 1729POPC   D2A26272  28.361   4.549   8.327
 1729POPC   C3A26273  28.384   4.317   7.978
 1729POPC   C4A26274  28.286   4.488   7.576
 1729POPC   C1B26275  28.161   4.382   8.759
 1729POPC   C2B26276  27.951   4.222   8.450
 1729POPC   C3B26277  27.879   4.257   8.046
 1729POPC   C4B26278  28.009   4.078   7.679
 1730POPC   NC326279   3.085  18.002   9.426
 1730POPC   PO426280   2.762  18.613   9.523
 1730POPC   GL126281   2.873  18.381   9.102
 1730POPC   GL226282   3.083  18.055   8.935
 1730POPC   C1A26283   2.956  18.454   8.647
 1730POPC   D2A26284   2.829  18.183   8.319
 1730POPC   C3A26285   2.952  18.237   7.950
 1730POPC   C4A26286   2.599  18.416   7.784
 1730POPC   C1B26287   2.654  18.047   8.765
 1730POPC   C2B26288   2.498  17.814   8.442
 1730POPC   C3B26289   2.437  17.957   8.062
 1730POPC   C4B26290   2.645  17.892   7.719
 1731POPC   NC326291  43.676  17.167   9.768
 1731POPC   PO426292  43.970  16.656   9.391
 1731POPC   GL126293  43.753  16.763   9.054
 1731POPC   GL226294  43.606  16.434   8.964
 1731POPC   C1A26295  43.836  17.052   8.727
 1731POPC   D2A26296  44.104  16.913   8.390
 1731POPC   C3A26297  43.956  16.752   8.013
 1731POPC   C4A26298  43.879  17.085   7.741
 1731POPC   C1B26299  43.741  16.578   8.553
 1731POPC   C2B26300  43.566  16.922   8.298
 1731POPC   C3B26301  43.480  16.808   7.854
 1731POPC   C4B26302  43.709  16.448   7.646
 1732POPC   NC326303  16.148  12.945   9.544
 1732POPC   PO426304  15.706  12.536   9.278
 1732POPC   GL126305  15.938  12.804   9.072
 1732POPC   GL226306  16.242  12.661   9.146
 1732POPC   C1A26307  15.766  12.891   8.681
 1732POPC   D2A26308  15.643  12.679   8.305
 1732POPC   C3A26309  15.890  12.901   8.007
 1732POPC   C4A26310  16.065  12.815   7.604
 1732POPC   C1B26311  16.368  12.719   8.752
 1732POPC   C2B26312  16.188  12.748   8.382
 1732POPC   C3B26313  16.386  12.867   8.014
 1732POPC   C4B26314  16.482  13.138   7.630
 1733POPC   NC326315  44.495  34.399   9.563
 1733POPC   PO426316  44.948  34.855   9.699
 1733POPC   GL126317  44.823  34.662   9.270
 1733POPC   GL226318  44.876  34.338   9.222
 1733POPC   C1A26319  44.729  34.703   8.840
 1733POPC   D2A26320  44.629  34.968   8.495
 1733POPC   C3A26321  44.760  34.839   8.099
 1733POPC   C4A26322  44.570  34.808   7.706
 1733POPC   C1B26323  44.859  34.211   8.817
 1733POPC   C2B26324  44.691  34.367   8.429
 1733POPC   C3B26325  44.628  34.317   7.981
 1733POPC   C4B26326  44.845  34.365   7.587
 1734POPC   NC326327  24.385   0.916   9.354
 1734POPC   PO426328  24.900   1.401   9.394
 1734POPC   GL126329  24.604   1.300   9.101
 1734POPC   GL226330  24.800   0.991   9.025
 1734POPC   C1A26331  24.252   1.255   8.807
 1734POPC   D2A26332  24.503   1.321   8.469
 1734POPC   C3A26333  24.482   1.489   8.054
 1734POPC   C4A26334  24.691   1.338   7.687
 1734POPC   C1B26335  24.533   0.812   8.708
 1734POPC   C2B26336  24.337   0.869   8.313
 1734POPC   C3B26337  24.553   0.878   7.934
 1734POPC   C4B26338  24.451   0.932   7.510
 1735POPC   NC326339  20.498  40.385   9.551
 1735POPC   PO426340  20.513  39.724   9.536
 1735POPC   GL126341  20.582  40.008   9.201
 1735POPC   GL226342  20.887  40.247   9.181
 1735POPC   C1A26343  20.462  39.910   8.808
 1735POPC   D2A26344  20.812  39.814   8.555
 1735POPC   C3A26345  20.696  39.744   8.147
 1735POPC   C4A26346  20.457  40.011   7.849
 1735POPC   C1B26347  20.732  40.323   8.757
 1735POPC   C2B26348  20.501  40.252   8.381
 1735POPC   C3B26349  20.672  40.451   8.024
 1735POPC   C4B26350  20.708  40.407   7.630
 1736POPC   NC326351  14.355   0.688   9.452
 1736POPC   PO426352  14.810   0.229   9.514
 1736POPC   GL126353  14.583   0.312   9.115
 1736POPC   GL226354  14.231   0.349   9.092
 1736POPC   C1A26355  14.648   0.544   8.724
 1736POPC   D2A26356  14.830   0.647   8.304
 1736POPC   C3A26357  14.577   0.553   7.952
 1736POPC   C4A26358  14.234   0.278   7.739
 1736POPC   C1B26359  14.143   0.587   8.677
 1736POPC   C2B26360  14.212   0.773   8.269
 1736POPC   C3B26361  14.140   0.773   7.794
 1736POPC   C4B26362  14.041   0.638   7.363
 1737POPC   NC326363   1.286  39.416   9.795
 1737POPC   PO426364   0.960  39.970   9.393
 1737POPC   GL126365   1.132  40.109   9.032
 1737POPC   GL226366   1.487  40.047   9.075
 1737POPC   C1A26367   1.305  40.332   8.680
 1737POPC   D2A26368   1.173  40.451   8.281
 1737POPC   C3A26369   1.331  40.217   7.945
 1737POPC   C4A26370   1.085  40.112   7.597
 1737POPC   C1B26371   1.401  39.803   8.712
 1737POPC   C2B26372   1.505  39.786   8.289
 1737POPC   C3B26373   1.223  39.708   7.955
 1737POPC   C4B26374   1.463  39.745   7.630
 1738POPC   NC326375   6.667   3.733   9.695
 1738POPC   PO426376   6.629   3.138   9.869
 1738POPC   GL126377   6.618   3.380   9.338
 1738POPC   GL226378   6.635   3.735   9.186
 1738POPC   C1A26379   6.613   3.384   8.832
 1738POPC   D2A26380   6.408   3.610   8.461
 1738POPC   C3A26381   6.453   3.443   8.045
 1738POPC   C4A26382   6.745   3.198   7.778
 1738POPC   C1B26383   6.755   3.902   8.766
 1738POPC   C2B26384   6.944   3.764   8.370
 1738POPC   C3B26385   6.881   3.674   7.920
 1738POPC   C4B26386   6.799   3.970   7.603
 1739POPC   NC326387  31.671   6.609   9.377
 1739POPC   PO426388  31.105   6.872   9.765
 1739POPC   GL126389  31.250   6.906   9.246
 1739POPC   GL226390  31.603   6.935   8.992
 1739POPC   C1A26391  31.232   6.661   8.822
 1739POPC   D2A26392  31.585   6.646   8.539
 1739POPC   C3A26393  31.533   6.606   8.108
 1739POPC   C4A26394  31.828   6.506   7.824
 1739POPC   C1B26395  31.369   7.122   8.661
 1739POPC   C2B26396  31.234   7.003   8.226
 1739POPC   C3B26397  31.515   7.034   7.844
 1739POPC   C4B26398  31.978   7.003   7.815
 1740POPC   NC326399  31.779   1.381   9.441
 1740POPC   PO426400  31.126   1.753   9.588
 1740POPC   GL126401  31.309   1.560   9.230
 1740POPC   GL226402  31.347   1.195   9.162
 1740POPC   C1A26403  31.407   1.550   8.809
 1740POPC   D2A26404  31.312   1.277   8.436
 1740POPC   C3A26405  31.484   1.349   8.042
 1740POPC   C4A26406  31.336   1.409   7.624
 1740POPC   C1B26407  31.657   1.116   8.785
 1740POPC   C2B26408  31.704   0.752   8.523
 1740POPC   C3B26409  31.542   0.818   8.117
 1740POPC   C4B26410  31.649   1.007   7.708
 1741POPC   NC326411  34.385  44.811   9.397
 1741POPC   PO426412  34.984  44.377   9.452
 1741POPC   GL126413  34.626  44.349   9.165
 1741POPC   GL226414  34.245  44.351   9.215
 1741POPC   C1A26415  34.672  44.542   8.753
 1741POPC   D2A26416  34.629  44.894   8.464
 1741POPC   C3A26417  34.804  44.872   8.049
 1741POPC   C4A26418  34.697  44.678   7.682
 1741POPC   C1B26419  34.150  44.498   8.808
 1741POPC   C2B26420  34.330  44.379   8.416
 1741POPC   C3B26421  34.340  44.587   8.029
 1741POPC   C4B26422  34.166  44.843   7.721
 1742POPC   NC326423   4.004  32.977   9.482
 1742POPC   PO426424   4.545  33.309   9.515
 1742POPC   GL126425   4.358  33.110   9.147
 1742POPC   GL226426   4.301  32.720   9.148
 1742POPC   C1A26427   4.507  32.999   8.757
 1742POPC   D2A26428   4.588  33.153   8.375
 1742POPC   C3A26429   4.503  32.853   8.062
 1742POPC   C4A26430   4.455  32.993   7.682
 1742POPC   C1B26431   4.016  32.844   8.787
 1742POPC   C2B26432   4.089  33.013   8.347
 1742POPC   C3B26433   3.996  32.918   7.900
 1742POPC   C4B26434   4.028  32.758   7.475
 1743POPC   NC326435  41.600  30.181   9.456
 1743POPC   PO426436  41.238  29.684   9.437
 1743POPC   GL126437  41.414  29.894   9.074
 1743POPC   GL226438  41.270  30.224   9.053
 1743POPC   C1A26439  41.672  29.950   8.668
 1743POPC   D2A26440  41.886  30.102   8.261
 1743POPC   C3A26441  41.666  30.010   7.857
 1743POPC   C4A26442  41.570  29.798   7.448
 1743POPC   C1B26443  41.145  30.033   8.679
 1743POPC   C2B26444  41.285  29.944   8.268
 1743POPC   C3B26445  41.195  30.243   7.937
 1743POPC   C4B26446  41.340  30.236   7.524
 1744POPC   NC326447  37.781   1.330   9.568
 1744POPC   PO426448  37.075   1.283   9.633
 1744POPC   GL126449  37.412   1.211   9.254
 1744POPC   GL226450  37.457   0.850   9.081
 1744POPC   C1A26451  37.583   1.366   8.821
 1744POPC   D2A26452  37.643   1.237   8.379
 1744POPC   C3A26453  37.790   1.230   7.960
 1744POPC   C4A26454  37.541   1.306   7.625
 1744POPC   C1B26455  37.675   0.825   8.672
 1744POPC   C2B26456  37.687   0.743   8.226
 1744POPC   C3B26457  37.686   0.758   7.804
 1744POPC   C4B26458  37.968   0.951   7.563
 1745POPC   NC326459  13.532  38.739   9.547
 1745POPC   PO426460  13.591  38.033   9.456
 1745POPC   GL126461  13.684  38.352   9.154
 1745POPC   GL226462  13.391  38.541   9.080
 1745POPC   C1A26463  13.858  38.378   8.706
 1745POPC   D2A26464  13.727  38.476   8.273
 1745POPC   C3A26465  13.911  38.407   7.844
 1745POPC   C4A26466  14.102  38.680   7.499
 1745POPC   C1B26467  13.393  38.198   8.773
 1745POPC   C2B26468  13.495  38.026   8.382
 1745POPC   C3B26469  13.476  38.128   7.962
 1745POPC   C4B26470  13.442  38.375   7.585
 1746POPC   NC326471  24.781  29.722   9.517
 1746POPC   PO426472  24.192  30.061   9.443
 1746POPC   GL126473  24.313  30.072   9.049
 1746POPC   GL226474  24.636  29.954   9.058
 1746POPC   C1A26475  24.329  30.081   8.613
 1746POPC   D2A26476  24.443  29.790   8.326
 1746POPC   C3A26477  24.229  29.900   7.932
 1746POPC   C4A26478  24.131  30.272   7.727
 1746POPC   C1B26479  24.897  29.947   8.673
 1746POPC   C2B26480  24.946  29.930   8.243
 1746POPC   C3B26481  24.729  29.720   7.920
 1746POPC   C4B26482  24.604  29.872   7.575
 1747POPC   NC326483   4.626  42.324   9.430
 1747POPC   PO426484   4.060  42.381   9.460
 1747POPC   GL126485   4.217  42.187   9.097
 1747POPC   GL226486   4.509  42.356   8.942
 1747POPC   C1A26487   4.353  41.892   8.790
 1747POPC   D2A26488   4.532  42.104   8.471
 1747POPC   C3A26489   4.281  42.045   8.121
 1747POPC   C4A26490   4.408  42.146   7.754
 1747POPC   C1B26491   4.709  42.632   8.654
 1747POPC   C2B26492   4.814  42.516   8.222
 1747POPC   C3B26493   4.635  42.624   7.801
 1747POPC   C4B26494   4.551  42.777   7.377
 1748POPC   NC326495  34.931  30.715   9.604
 1748POPC   PO426496  34.232  30.817   9.682
 1748POPC   GL126497  34.485  30.750   9.284
 1748POPC   GL226498  34.470  31.037   9.036
 1748POPC   C1A26499  34.535  30.559   8.869
 1748POPC   D2A26500  34.462  30.664   8.434
 1748POPC   C3A26501  34.365  30.424   8.050
 1748POPC   C4A26502  34.311  30.564   7.631
 1748POPC   C1B26503  34.802  31.012   8.703
 1748POPC   C2B26504  34.719  31.082   8.277
 1748POPC   C3B26505  34.654  30.841   7.905
 1748POPC   C4B26506  34.774  31.003   7.484
 1749POPC   NC326507  10.657  23.576   9.617
 1749POPC   PO426508  10.160  23.887   9.502
 1749POPC   GL126509  10.284  23.782   9.117
 1749POPC   GL226510  10.619  23.852   9.113
 1749POPC   C1A26511  10.430  23.616   8.711
 1749POPC   D2A26512  10.671  23.436   8.380
 1749POPC   C3A26513  10.474  23.581   8.041
 1749POPC   C4A26514  10.326  23.643   7.643
 1749POPC   C1B26515  10.631  24.097   8.735
 1749POPC   C2B26516  10.759  23.954   8.314
 1749POPC   C3B26517  10.610  24.039   7.884
 1749POPC   C4B26518  10.673  23.969   7.447
 1750POPC   NC326519  36.999  15.670   9.833
 1750POPC   PO426520  36.839  16.227   9.790
 1750POPC   GL126521  36.977  16.149   9.298
 1750POPC   GL226522  37.025  15.808   9.165
 1750POPC   C1A26523  37.108  16.212   8.811
 1750POPC   D2A26524  37.186  16.017   8.333
 1750POPC   C3A26525  37.237  16.236   7.921
 1750POPC   C4A26526  37.153  16.161   7.479
 1750POPC   C1B26527  36.924  15.743   8.696
 1750POPC   C2B26528  36.712  15.850   8.278
 1750POPC   C3B26529  36.863  15.874   7.844
 1750POPC   C4B26530  36.948  15.505   7.581
 1751POPC   NC326531   9.809   6.980   9.565
 1751POPC   PO426532   9.607   7.563   9.620
 1751POPC   GL126533   9.701   7.338   9.223
 1751POPC   GL226534   9.445   7.148   9.042
 1751POPC   C1A26535   9.898   7.419   8.829
 1751POPC   D2A26536   9.797   7.698   8.491
 1751POPC   C3A26537   9.970   7.531   8.101
 1751POPC   C4A26538  10.019   7.525   7.663
 1751POPC   C1B26539   9.391   7.556   8.853
 1751POPC   C2B26540   9.264   7.776   8.490
 1751POPC   C3B26541   9.433   7.570   8.159
 1751POPC   C4B26542   9.533   7.628   7.768
 1752POPC   NC326543  21.109  25.255   9.315
 1752POPC   PO426544  21.739  24.958   9.424
 1752POPC   GL126545  21.531  25.134   9.041
 1752POPC   GL226546  21.523  25.484   8.987
 1752POPC   C1A26547  21.215  25.156   8.676
 1752POPC   D2A26548  21.118  25.320   8.250
 1752POPC   C3A26549  21.358  25.216   7.872
 1752POPC   C4A26550  21.161  24.996   7.481
 1752POPC   C1B26551  21.580  25.477   8.516
 1752POPC   C2B26552  21.458  25.700   8.146
 1752POPC   C3B26553  21.147  25.666   7.822
 1752POPC   C4B26554  21.196  25.511   7.405
 1753POPC   NC326555  33.458  36.136   9.472
 1753POPC   PO426556  34.139  36.272   9.472
 1753POPC   GL126557  33.836  36.181   9.121
 1753POPC   GL226558  33.684  35.839   9.104
 1753POPC   C1A26559  33.615  36.225   8.718
 1753POPC   D2A26560  33.450  36.212   8.273
 1753POPC   C3A26561  33.781  36.252   7.942
 1753POPC   C4A26562  34.132  36.494   7.828
 1753POPC   C1B26563  33.476  35.729   8.695
 1753POPC   C2B26564  33.388  35.692   8.258
 1753POPC   C3B26565  33.398  35.893   7.869
 1753POPC   C4B26566  33.451  35.936   7.418
 1754POPC   NC326567   8.803  34.058   9.586
 1754POPC   PO426568   8.885  34.664   9.733
 1754POPC   GL126569   8.832  34.680   9.262
 1754POPC   GL226570   8.946  34.374   9.198
 1754POPC   C1A26571   8.988  34.771   8.830
 1754POPC   D2A26572   9.028  34.889   8.412
 1754POPC   C3A26573   9.259  34.644   8.129
 1754POPC   C4A26574   9.230  34.751   7.706
 1754POPC   C1B26575   8.919  34.267   8.797
 1754POPC   C2B26576   8.773  34.441   8.443
 1754POPC   C3B26577   8.834  34.371   8.032
 1754POPC   C4B26578   9.086  34.229   7.697
 1755POPC   NC326579  24.351   2.275   9.352
 1755POPC   PO426580  24.424   2.853   9.609
 1755POPC   GL126581  24.520   2.830   9.205
 1755POPC   GL226582  24.703   2.548   9.096
 1755POPC   C1A26583  24.326   2.748   8.824
 1755POPC   D2A26584  24.483   2.667   8.464
 1755POPC   C3A26585  24.408   2.979   8.199
 1755POPC   C4A26586  24.404   2.887   7.776
 1755POPC   C1B26587  24.942   2.469   8.731
 1755POPC   C2B26588  24.844   2.319   8.355
 1755POPC   C3B26589  24.710   2.511   8.020
 1755POPC   C4B26590  24.897   2.297   7.713
 1756POPC   NC326591  25.291  29.421   9.500
 1756POPC   PO426592  24.977  30.113   9.397
 1756POPC   GL126593  25.154  29.847   9.101
 1756POPC   GL226594  25.441  29.674   9.093
 1756POPC   C1A26595  25.418  30.006   8.730
 1756POPC   D2A26596  25.336  30.258   8.384
 1756POPC   C3A26597  25.391  30.068   7.994
 1756POPC   C4A26598  25.031  30.135   7.765
 1756POPC   C1B26599  25.238  29.527   8.714
 1756POPC   C2B26600  25.355  29.660   8.327
 1756POPC   C3B26601  25.201  29.592   7.925
 1756POPC   C4B26602  25.117  29.729   7.485
 1757POPC   NC326603  44.801  32.677   9.501
 1757POPC   PO426604  44.353  33.202   9.532
 1757POPC   GL126605  44.637  33.283   9.166
 1757POPC   GL226606  44.688  32.946   9.095
 1757POPC   C1A26607  44.873  33.214   8.740
 1757POPC   D2A26608  44.814  33.343   8.342
 1757POPC   C3A26609  44.499  33.294   8.032
 1757POPC   C4A26610  44.773  33.092   7.708
 1757POPC   C1B26611  44.553  32.794   8.682
 1757POPC   C2B26612  44.618  32.841   8.251
 1757POPC   C3B26613  44.556  32.669   7.869
 1757POPC   C4B26614  44.561  32.666   7.437
 1758POPC   NC326615   5.339   2.985   9.383
 1758POPC   PO426616   4.795   2.583   9.411
 1758POPC   GL126617   5.060   2.644   9.107
 1758POPC   GL226618   4.904   2.955   8.999
 1758POPC   C1A26619   5.322   2.656   8.749
 1758POPC   D2A26620   5.071   2.745   8.392
 1758POPC   C3A26621   5.287   2.857   8.038
 1758POPC   C4A26622   5.219   2.642   7.657
 1758POPC   C1B26623   4.576   3.028   8.673
 1758POPC   C2B26624   4.525   2.883   8.276
 1758POPC   C3B26625   4.779   2.758   7.948
 1758POPC   C4B26626   4.722   2.825   7.518
 1759POPC   NC326627  28.950  28.797   9.488
 1759POPC   PO426628  28.362  29.104   9.677
 1759POPC   GL126629  28.359  29.103   9.210
 1759POPC   GL226630  28.714  29.171   9.188
 1759POPC   C1A26631  28.045  28.991   8.869
 1759POPC   D2A26632  28.202  29.051   8.457
 1759POPC   C3A26633  28.031  28.998   8.079
 1759POPC   C4A26634  28.117  29.070   7.675
 1759POPC   C1B26635  28.610  29.180   8.738
 1759POPC   C2B26636  28.678  29.147   8.299
 1759POPC   C3B26637  28.563  29.165   7.889
 1759POPC   C4B26638  28.624  29.182   7.417
 1760POPC   NC326639  28.461  27.285   9.815
 1760POPC   PO426640  28.236  26.770   9.530
 1760POPC   GL126641  28.419  26.803   9.157
 1760POPC   GL226642  28.525  27.140   9.213
 1760POPC   C1A26643  28.342  26.692   8.726
 1760POPC   D2A26644  28.030  26.850   8.442
 1760POPC   C3A26645  28.187  26.805   8.025
 1760POPC   C4A26646  28.239  26.725   7.578
 1760POPC   C1B26647  28.282  27.185   8.802
 1760POPC   C2B26648  28.434  27.122   8.362
 1760POPC   C3B26649  28.603  27.180   7.954
 1760POPC   C4B26650  28.672  27.036   7.515
 1761POPC   NC326651  12.429  18.789   9.683
 1761POPC   PO426652  12.826  19.248   9.547
 1761POPC   GL126653  12.763  19.215   9.123
 1761POPC   GL226654  12.659  18.876   9.107
 1761POPC   C1A26655  12.797  19.314   8.695
 1761POPC   D2A26656  13.034  19.185   8.330
 1761POPC   C3A26657  12.864  19.145   7.902
 1761POPC   C4A26658  13.041  19.057   7.479
 1761POPC   C1B26659  12.851  18.805   8.693
 1761POPC   C2B26660  12.940  18.604   8.280
 1761POPC   C3B26661  12.966  18.658   7.845
 1761POPC   C4B26662  12.607  18.788   7.573
 1762POPC   NC326663  17.993  15.322   9.401
 1762POPC   PO426664  18.563  14.904   9.428
 1762POPC   GL126665  18.406  15.094   9.018
 1762POPC   GL226666  18.064  15.034   8.971
 1762POPC   C1A26667  18.363  15.123   8.555
 1762POPC   D2A26668  18.146  14.782   8.304
 1762POPC   C3A26669  18.042  14.893   7.898
 1762POPC   C4A26670  18.387  15.105   7.693
 1762POPC   C1B26671  18.054  15.491   8.780
 1762POPC   C2B26672  17.938  15.647   8.374
 1762POPC   C3B26673  18.048  15.389   8.013
 1762POPC   C4B26674  18.072  15.491   7.591
 1763POPC   NC326675  17.336  29.272   9.668
 1763POPC   PO426676  17.929  28.913   9.419
 1763POPC   GL126677  17.713  29.000   9.077
 1763POPC   GL226678  17.508  29.251   9.191
 1763POPC   C1A26679  17.531  28.910   8.711
 1763POPC   D2A26680  17.435  28.729   8.327
 1763POPC   C3A26681  17.548  28.988   7.956
 1763POPC   C4A26682  17.424  29.108   7.539
 1763POPC   C1B26683  17.286  29.349   8.817
 1763POPC   C2B26684  17.355  29.255   8.358
 1763POPC   C3B26685  17.384  29.489   7.946
 1763POPC   C4B26686  17.219  29.583   7.512
 1764POPC   NC326687   2.737  42.040   9.435
 1764POPC   PO426688   2.540  42.615   9.557
 1764POPC   GL126689   2.543  42.430   9.133
 1764POPC   GL226690   2.909  42.306   9.034
 1764POPC   C1A26691   2.567  42.533   8.689
 1764POPC   D2A26692   2.889  42.406   8.387
 1764POPC   C3A26693   2.872  42.548   7.928
 1764POPC   C4A26694   2.627  42.402   7.546
 1764POPC   C1B26695   2.662  42.025   8.758
 1764POPC   C2B26696   2.693  41.872   8.361
 1764POPC   C3B26697   2.782  42.054   7.985
 1764POPC   C4B26698   3.053  42.051   7.658
 1765POPC   NC326699  21.826   3.622   9.376
 1765POPC   PO426700  22.492   3.907   9.540
 1765POPC   GL126701  22.286   3.697   9.179
 1765POPC   GL226702  22.015   3.856   8.975
 1765POPC   C1A26703  22.308   3.451   8.794
 1765POPC   D2A26704  22.218   3.275   8.373
 1765POPC   C3A26705  22.333   3.407   7.957
 1765POPC   C4A26706  22.040   3.589   7.692
 1765POPC   C1B26707  21.849   3.598   8.629
 1765POPC   C2B26708  21.877   3.649   8.194
 1765POPC   C3B26709  21.910   3.997   7.943
 1765POPC   C4B26710  21.879   4.104   7.468
 1766POPC   NC326711  33.466   1.728   9.652
 1766POPC   PO426712  33.114   1.155   9.758
 1766POPC   GL126713  33.000   1.081   9.268
 1766POPC   GL226714  32.767   1.350   9.089
 1766POPC   C1A26715  33.195   1.155   8.839
 1766POPC   D2A26716  33.334   1.014   8.420
 1766POPC   C3A26717  33.217   1.223   8.039
 1766POPC   C4A26718  33.046   1.091   7.660
 1766POPC   C1B26719  32.911   1.568   8.707
 1766POPC   C2B26720  32.773   1.503   8.259
 1766POPC   C3B26721  32.779   1.513   7.808
 1766POPC   C4B26722  32.808   1.806   7.467
 1767POPC   NC326723   3.025  18.993   9.554
 1767POPC   PO426724   3.169  19.439   9.126
 1767POPC   GL126725   2.800  19.192   9.062
 1767POPC   GL226726   2.602  18.886   9.126
 1767POPC   C1A26727   2.613  19.148   8.673
 1767POPC   D2A26728   2.864  19.106   8.328
 1767POPC   C3A26729   2.682  19.282   8.005
 1767POPC   C4A26730   2.503  18.981   7.809
 1767POPC   C1B26731   2.483  18.645   8.742
 1767POPC   C2B26732   2.615  18.656   8.270
 1767POPC   C3B26733   2.942  18.754   7.938
 1767POPC   C4B26734   2.843  18.806   7.464
 1768POPC   NC326735  15.858  17.740   9.542
 1768POPC   PO426736  15.712  17.145   9.417
 1768POPC   GL126737  15.992  17.382   9.081
 1768POPC   GL226738  16.251  17.176   8.934
 1768POPC   C1A26739  16.227  17.680   8.779
 1768POPC   D2A26740  16.051  17.893   8.406
 1768POPC   C3A26741  15.991  17.658   8.004
 1768POPC   C4A26742  15.659  17.695   7.688
 1768POPC   C1B26743  16.077  17.264   8.516
 1768POPC   C2B26744  15.848  17.124   8.138
 1768POPC   C3B26745  15.879  17.208   7.688
 1768POPC   C4B26746  16.085  17.144   7.271
 1769POPC   NC326747  40.514  34.585   9.423
 1769POPC   PO426748  41.091  34.539   9.501
 1769POPC   GL126749  40.954  34.517   9.071
 1769POPC   GL226750  40.624  34.403   8.970
 1769POPC   C1A26751  41.058  34.329   8.671
 1769POPC   D2A26752  40.794  34.249   8.319
 1769POPC   C3A26753  40.809  34.586   8.050
 1769POPC   C4A26754  40.840  34.395   7.671
 1769POPC   C1B26755  40.381  34.401   8.627
 1769POPC   C2B26756  40.292  34.679   8.311
 1769POPC   C3B26757  40.319  34.830   7.893
 1769POPC   C4B26758  40.694  34.875   7.628
 1770POPC   NC326759  43.526   8.629   9.539
 1770POPC   PO426760  44.128   9.059   9.430
 1770POPC   GL126761  43.873   9.124   9.060
 1770POPC   GL226762  43.647   8.829   9.060
 1770POPC   C1A26763  43.880   9.151   8.599
 1770POPC   D2A26764  43.676   8.914   8.266
 1770POPC   C3A26765  43.659   9.129   7.842
 1770POPC   C4A26766  43.585   9.334   7.443
 1770POPC   C1B26767  43.932   8.649   8.747
 1770POPC   C2B26768  44.236   8.808   8.425
 1770POPC   C3B26769  44.254   8.700   7.988
 1770POPC   C4B26770  43.812   8.642   7.848
 1771POPC   NC326771  34.391   1.381   9.794
 1771POPC   PO426772  34.693   0.932   9.470
 1771POPC   GL126773  34.634   1.215   9.144
 1771POPC   GL226774  34.346   1.436   9.142
 1771POPC   C1A26775  34.559   1.078   8.727
 1771POPC   D2A26776  34.529   0.871   8.358
 1771POPC   C3A26777  34.646   1.163   8.029
 1771POPC   C4A26778  34.780   1.039   7.617
 1771POPC   C1B26779  34.117   1.290   8.748
 1771POPC   C2B26780  34.212   1.291   8.322
 1771POPC   C3B26781  34.145   1.003   7.977
 1771POPC   C4B26782  34.279   1.105   7.575
 1772POPC   NC326783  33.398  44.970   9.429
 1772POPC   PO426784  33.155  44.376   9.620
 1772POPC   GL126785  33.236  44.529   9.209
 1772POPC   GL226786  32.998  44.809   9.131
 1772POPC   C1A26787  33.347  44.649   8.795
 1772POPC   D2A26788  33.081  44.713   8.469
 1772POPC   C3A26789  33.261  44.665   8.103
 1772POPC   C4A26790  33.131  44.653   7.707
 1772POPC   C1B26791  32.707  44.852   8.770
 1772POPC   C2B26792  32.695   0.005   8.327
 1772POPC   C3B26793  32.752  44.915   7.880
 1772POPC   C4B26794  32.770  44.853   7.411
 1773POPC   NC326795  22.875  33.916   9.483
 1773POPC   PO426796  23.122  33.333   9.447
 1773POPC   GL126797  22.959  33.560   9.061
 1773POPC   GL226798  22.912  33.931   8.986
 1773POPC   C1A26799  22.752  33.592   8.650
 1773POPC   D2A26800  22.814  33.849   8.321
 1773POPC   C3A26801  22.879  33.597   7.994
 1773POPC   C4A26802  22.727  33.700   7.674
 1773POPC   C1B26803  23.214  33.827   8.659
 1773POPC   C2B26804  23.312  33.766   8.208
 1773POPC   C3B26805  23.136  34.003   7.832
 1773POPC   C4B26806  22.856  34.374   7.717
 1774POPC   NC326807   3.320   8.946   9.678
 1774POPC   PO426808   3.774   9.299   9.197
 1774POPC   GL126809   3.530   8.970   9.079
 1774POPC   GL226810   3.194   8.875   9.191
 1774POPC   C1A26811   3.268   9.095   8.721
 1774POPC   D2A26812   3.333   9.318   8.349
 1774POPC   C3A26813   3.634   9.137   8.102
 1774POPC   C4A26814   3.620   9.295   7.674
 1774POPC   C1B26815   3.293   8.596   8.835
 1774POPC   C2B26816   3.463   8.701   8.441
 1774POPC   C3B26817   3.223   8.853   8.115
 1774POPC   C4B26818   3.413   8.845   7.730
 1775POPC   NC326819  13.071  19.627   9.486
 1775POPC   PO426820  12.668  20.208   9.501
 1775POPC   GL126821  12.864  20.090   9.074
 1775POPC   GL226822  12.958  19.738   8.996
 1775POPC   C1A26823  12.845  20.137   8.596
 1775POPC   D2A26824  13.163  20.099   8.279
 1775POPC   C3A26825  13.137  19.972   7.883
 1775POPC   C4A26826  12.761  20.107   7.714
 1775POPC   C1B26827  13.139  19.677   8.585
 1775POPC   C2B26828  12.864  19.684   8.236
 1775POPC   C3B26829  12.749  19.618   7.805
 1775POPC   C4B26830  13.037  19.568   7.462
 1776POPC   NC326831  21.006  15.659   9.581
 1776POPC   PO426832  21.611  15.773   9.693
 1776POPC   GL126833  21.480  15.958   9.349
 1776POPC   GL226834  21.140  16.038   9.248
 1776POPC   C1A26835  21.517  15.862   8.944
 1776POPC   D2A26836  21.552  15.831   8.527
 1776POPC   C3A26837  21.306  16.034   8.243
 1776POPC   C4A26838  21.318  15.908   7.819
 1776POPC   C1B26839  21.011  16.067   8.805
 1776POPC   C2B26840  20.816  16.167   8.374
 1776POPC   C3B26841  20.973  16.314   7.960
 1776POPC   C4B26842  21.016  16.193   7.531
 1777POPC   NC326843  42.909  33.874   9.490
 1777POPC   PO426844  42.289  33.832   9.619
 1777POPC   GL126845  42.230  33.833   9.218
 1777POPC   GL226846  42.556  33.784   9.136
 1777POPC   C1A26847  42.158  33.657   8.823
 1777POPC   D2A26848  42.068  33.940   8.482
 1777POPC   C3A26849  42.102  33.825   8.073
 1777POPC   C4A26850  42.213  33.934   7.672
 1777POPC   C1B26851  42.656  33.710   8.712
 1777POPC   C2B26852  42.415  33.544   8.392
 1777POPC   C3B26853  42.488  33.509   7.986
 1777POPC   C4B26854  42.602  33.634   7.602
 1778POPC   NC326855  38.548  36.327   9.446
 1778POPC   PO426856  38.638  35.585   9.351
 1778POPC   GL126857  38.449  35.776   9.077
 1778POPC   GL226858  38.671  36.039   9.044
 1778POPC   C1A26859  38.421  35.830   8.647
 1778POPC   D2A26860  38.356  36.074   8.280
 1778POPC   C3A26861  38.410  35.945   7.866
 1778POPC   C4A26862  38.123  35.809   7.575
 1778POPC   C1B26863  38.584  36.311   8.711
 1778POPC   C2B26864  38.604  36.516   8.328
 1778POPC   C3B26865  38.481  36.487   7.894
 1778POPC   C4B26866  38.647  36.264   7.503
 1779POPC   NC326867  21.525   1.133   9.646
 1779POPC   PO426868  21.251   1.699   9.480
 1779POPC   GL126869  21.158   1.396   9.147
 1779POPC   GL226870  21.310   1.054   9.175
 1779POPC   C1A26871  21.294   1.291   8.718
 1779POPC   D2A26872  21.281   0.984   8.360
 1779POPC   C3A26873  21.179   1.184   7.939
 1779POPC   C4A26874  21.434   1.460   7.681
 1779POPC   C1B26875  21.628   0.942   8.858
 1779POPC   C2B26876  21.763   1.149   8.441
 1779POPC   C3B26877  21.658   1.023   8.004
 1779POPC   C4B26878  21.840   0.730   7.735
 1780POPC   NC326879   7.258   4.379   9.730
 1780POPC   PO426880   6.648   4.145   9.477
 1780POPC   GL126881   6.588   4.284   9.083
 1780POPC   GL226882   6.681   4.619   9.170
 1780POPC   C1A26883   6.458   4.515   8.723
 1780POPC   D2A26884   6.570   4.570   8.322
 1780POPC   C3A26885   6.653   4.130   8.096
 1780POPC   C4A26886   6.343   3.911   7.846
 1780POPC   C1B26887   6.954   4.611   8.767
 1780POPC   C2B26888   6.984   4.323   8.442
 1780POPC   C3B26889   6.958   4.515   7.999
 1780POPC   C4B26890   7.055   4.407   7.589
 1781POPC   NC326891  15.286  41.633   9.402
 1781POPC   PO426892  14.787  41.253   9.513
 1781POPC   GL126893  14.922  41.311   9.073
 1781POPC   GL226894  15.290  41.392   8.953
 1781POPC   C1A26895  14.927  41.251   8.626
 1781POPC   D2A26896  15.122  41.494   8.293
 1781POPC   C3A26897  14.909  41.597   7.953
 1781POPC   C4A26898  14.973  41.298   7.648
 1781POPC   C1B26899  15.135  41.758   8.725
 1781POPC   C2B26900  15.316  41.973   8.355
 1781POPC   C3B26901  15.401  41.792   7.927
 1781POPC   C4B26902  15.604  41.916   7.549
 1782POPC   NC326903   1.197  41.260   9.641
 1782POPC   PO426904   1.203  41.852   9.525
 1782POPC   GL126905   1.293  41.721   9.112
 1782POPC   GL226906   1.284  41.371   9.143
 1782POPC   C1A26907   1.027  41.728   8.736
 1782POPC   D2A26908   1.048  41.906   8.318
 1782POPC   C3A26909   0.878  41.709   7.917
 1782POPC   C4A26910   0.801  41.617   7.463
 1782POPC   C1B26911   1.250  41.282   8.706
 1782POPC   C2B26912   1.185  41.412   8.283
 1782POPC   C3B26913   1.412  41.668   7.992
 1782POPC   C4B26914   1.290  41.479   7.638
 1783POPC   NC326915   4.337   2.501   9.464
 1783POPC   PO426916   4.227   3.168   9.494
 1783POPC   GL126917   4.137   2.961   9.122
 1783POPC   GL226918   4.425   2.769   9.061
 1783POPC   C1A26919   4.016   2.790   8.709
 1783POPC   D2A26920   4.079   2.644   8.281
 1783POPC   C3A26921   4.112   2.952   7.977
 1783POPC   C4A26922   4.461   3.173   7.823
 1783POPC   C1B26923   4.451   2.405   8.775
 1783POPC   C2B26924   4.666   2.401   8.376
 1783POPC   C3B26925   4.434   2.400   8.013
 1783POPC   C4B26926   4.290   2.598   7.671
 1784POPC   NC326927  14.818  23.716   9.454
 1784POPC   PO426928  14.308  24.091   9.460
 1784POPC   GL126929  14.336  23.731   9.191
 1784POPC   GL226930  14.057  23.485   9.314
 1784POPC   C1A26931  14.514  23.606   8.790
 1784POPC   D2A26932  14.502  23.804   8.395
 1784POPC   C3A26933  14.756  23.755   8.036
 1784POPC   C4A26934  14.572  23.682   7.706
 1784POPC   C1B26935  14.038  23.425   8.860
 1784POPC   C2B26936  14.251  23.306   8.450
 1784POPC   C3B26937  14.250  23.507   8.057
 1784POPC   C4B26938  14.114  23.354   7.662
 1785POPC   NC326939   1.346  43.856   9.773
 1785POPC   PO426940   0.914  44.258   9.377
 1785POPC   GL126941   1.018  43.874   9.144
 1785POPC   GL226942   1.332  43.885   9.203
 1785POPC   C1A26943   1.156  43.623   8.757
 1785POPC   D2A26944   1.018  43.547   8.324
 1785POPC   C3A26945   1.232  43.772   8.015
 1785POPC   C4A26946   1.077  43.915   7.631
 1785POPC   C1B26947   1.278  44.125   8.780
 1785POPC   C2B26948   1.189  44.242   8.337
 1785POPC   C3B26949   1.291  44.288   7.935
 1785POPC   C4B26950   1.561  44.080   7.677
 1786POPC   NC326951  19.519  32.308   9.248
 1786POPC   PO426952  19.938  32.359   9.685
 1786POPC   GL126953  20.116  32.290   9.294
 1786POPC   GL226954  19.975  32.534   9.116
 1786POPC   C1A26955  20.102  32.086   8.889
 1786POPC   D2A26956  19.855  31.969   8.502
 1786POPC   C3A26957  20.078  32.188   8.146
 1786POPC   C4A26958  20.011  32.111   7.714
 1786POPC   C1B26959  19.774  32.421   8.684
 1786POPC   C2B26960  19.624  32.376   8.249
 1786POPC   C3B26961  19.824  32.560   7.888
 1786POPC   C4B26962  19.729  32.606   7.452
 1787POPC   NC326963   0.431  14.846   9.376
 1787POPC   PO426964   0.767  15.388   9.350
 1787POPC   GL126965   0.486  15.232   9.039
 1787POPC   GL226966   0.150  15.242   9.125
 1787POPC   C1A26967   0.321  15.363   8.624
 1787POPC   D2A26968   0.293  15.463   8.195
 1787POPC   C3A26969   0.650  15.350   7.864
 1787POPC   C4A26970   0.601  15.406   7.430
 1787POPC   C1B26971   0.117  14.938   8.783
 1787POPC   C2B26972   0.225  14.874   8.341
 1787POPC   C3B26973   0.169  15.037   7.932
 1787POPC   C4B26974   0.484  14.926   7.663
 1788POPC   NC326975  28.915  42.121   9.439
 1788POPC   PO426976  29.427  42.535   9.492
 1788POPC   GL126977  29.217  42.439   9.151
 1788POPC   GL226978  29.335  42.105   9.130
 1788POPC   C1A26979  29.010  42.581   8.803
 1788POPC   D2A26980  29.101  42.700   8.398
 1788POPC   C3A26981  28.865  42.484   8.088
 1788POPC   C4A26982  28.794  42.339   7.649
 1788POPC   C1B26983  29.402  42.240   8.686
 1788POPC   C2B26984  29.309  42.262   8.231
 1788POPC   C3B26985  29.273  42.289   7.779
 1788POPC   C4B26986  29.559  42.270   7.405
 1789POPC   NC326987   4.720   8.030   9.444
 1789POPC   PO426988   4.281   8.496   9.510
 1789POPC   GL126989   4.395   8.282   9.140
 1789POPC   GL226990   4.076   8.263   9.014
 1789POPC   C1A26991   4.596   8.226   8.728
 1789POPC   D2A26992   4.725   7.953   8.374
 1789POPC   C3A26993   4.563   8.068   7.969
 1789POPC   C4A26994   4.173   8.319   7.960
 1789POPC   C1B26995   4.104   7.936   8.693
 1789POPC   C2B26996   4.201   7.711   8.330
 1789POPC   C3B26997   4.123   7.807   7.872
 1789POPC   C4B26998   4.067   7.753   7.413
 1790POPC   NC326999  31.703  27.455   9.212
 1790POPC   PO427000  31.571  27.949   9.625
 1790POPC   GL127001  31.572  27.958   9.162
 1790POPC   GL227002  31.289  27.738   9.170
 1790POPC   C1A27003  31.530  27.909   8.684
 1790POPC   D2A27004  31.375  27.679   8.288
 1790POPC   C3A27005  31.585  27.708   7.884
 1790POPC   C4A27006  31.817  27.695   7.490
 1790POPC   C1B27007  31.200  27.522   8.769
 1790POPC   C2B27008  31.374  27.200   8.471
 1790POPC   C3B27009  31.364  27.238   7.997
 1790POPC   C4B27010  31.096  27.542   7.761
 1791POPC   NC327011  20.835  43.315   9.471
 1791POPC   PO427012  20.610  42.765   9.756
 1791POPC   GL127013  20.598  42.824   9.292
 1791POPC   GL227014  20.892  42.962   9.115
 1791POPC   C1A27015  20.467  42.917   8.853
 1791POPC   D2A27016  20.356  43.051   8.453
 1791POPC   C3A27017  20.479  42.755   8.162
 1791POPC   C4A27018  20.473  42.822   7.747
 1791POPC   C1B27019  20.817  43.300   8.788
 1791POPC   C2B27020  20.926  43.492   8.370
 1791POPC   C3B27021  20.874  43.269   7.967
 1791POPC   C4B27022  20.968  42.829   7.906
 1792POPC   NC327023   6.826  39.694   9.468
 1792POPC   PO427024   6.761  39.045   9.422
 1792POPC   GL127025   6.572  39.121   9.056
 1792POPC   GL227026   6.480  39.444   9.120
 1792POPC   C1A27027   6.371  39.021   8.662
 1792POPC   D2A27028   6.400  39.107   8.210
 1792POPC   C3A27029   6.825  39.167   8.037
 1792POPC   C4A27030   7.054  38.935   7.713
 1792POPC   C1B27031   6.822  39.523   8.807
 1792POPC   C2B27032   6.944  39.619   8.361
 1792POPC   C3B27033   6.758  39.685   7.938
 1792POPC   C4B27034   6.481  39.390   7.706
 1793POPC   NC327035  21.348  30.376   9.699
 1793POPC   PO427036  21.792  30.758   9.698
 1793POPC   GL127037  21.455  30.591   9.274
 1793POPC   GL227038  21.227  30.328   9.204
 1793POPC   C1A27039  21.093  30.711   8.918
 1793POPC   D2A27040  21.060  30.878   8.508
 1793POPC   C3A27041  21.005  30.628   8.132
 1793POPC   C4A27042  21.279  30.760   7.802
 1793POPC   C1B27043  21.473  30.405   8.821
 1793POPC   C2B27044  21.458  30.412   8.399
 1793POPC   C3B27045  21.710  30.598   8.117
 1793POPC   C4B27046  21.690  30.489   7.713
 1794POPC   NC327047   5.942   5.421   9.550
 1794POPC   PO427048   5.604   6.051   9.576
 1794POPC   GL127049   5.811   6.026   9.164
 1794POPC   GL227050   5.843   5.700   9.131
 1794POPC   C1A27051   5.748   6.059   8.733
 1794POPC   D2A27052   5.959   5.880   8.392
 1794POPC   C3A27053   5.767   5.992   8.029
 1794POPC   C4A27054   6.017   6.022   7.690
 1794POPC   C1B27055   5.889   5.477   8.747
 1794POPC   C2B27056   6.184   5.414   8.457
 1794POPC   C3B27057   6.241   5.543   8.046
 1794POPC   C4B27058   5.854   5.530   7.839
 1795POPC   NC327059  41.868  34.040   9.556
 1795POPC   PO427060  41.362  33.576   9.507
 1795POPC   GL127061  41.570  33.785   9.184
 1795POPC   GL227062  41.409  34.098   9.268
 1795POPC   C1A27063  41.662  33.727   8.739
 1795POPC   D2A27064  41.647  33.540   8.350
 1795POPC   C3A27065  41.601  33.821   8.008
 1795POPC   C4A27066  41.771  34.155   7.783
 1795POPC   C1B27067  41.532  34.197   8.838
 1795POPC   C2B27068  41.606  34.145   8.406
 1795POPC   C3B27069  41.295  34.252   8.087
 1795POPC   C4B27070  41.343  34.422   7.681
 1796POPC   NC327071   1.370  32.538   9.429
 1796POPC   PO427072   1.400  33.162   9.776
 1796POPC   GL127073   1.521  33.307   9.276
 1796POPC   GL227074   1.633  33.014   9.100
 1796POPC   C1A27075   1.353  33.266   8.780
 1796POPC   D2A27076   1.136  33.018   8.418
 1796POPC   C3A27077   0.967  33.110   7.977
 1796POPC   C4A27078   1.042  33.135   7.485
 1796POPC   C1B27079   1.578  32.821   8.662
 1796POPC   C2B27080   1.645  32.967   8.261
 1796POPC   C3B27081   1.379  32.809   7.939
 1796POPC   C4B27082   1.402  32.710   7.521
 1797POPC   NC327083  20.238  24.054   9.380
 1797POPC   PO427084  20.465  23.384   9.485
 1797POPC   GL127085  20.516  23.650   9.126
 1797POPC   GL227086  20.819  23.796   9.020
 1797POPC   C1A27087  20.397  23.810   8.702
 1797POPC   D2A27088  20.437  24.014   8.268
 1797POPC   C3A27089  20.325  23.770   7.888
 1797POPC   C4A27090  20.404  23.326   7.887
 1797POPC   C1B27091  20.854  23.513   8.707
 1797POPC   C2B27092  20.979  23.687   8.315
 1797POPC   C3B27093  20.852  23.844   7.915
 1797POPC   C4B27094  20.950  23.998   7.485
 1798POPC   NC327095   7.419  28.869   9.248
 1798POPC   PO427096   7.446  29.479   9.484
 1798POPC   GL127097   7.438  29.576   9.072
 1798POPC   GL227098   7.289  29.290   8.960
 1798POPC   C1A27099   7.729  29.474   8.768
 1798POPC   D2A27100   7.818  29.335   8.394
 1798POPC   C3A27101   7.485  29.463   8.189
 1798POPC   C4A27102   7.351  29.268   7.850
 1798POPC   C1B27103   7.399  29.099   8.562
 1798POPC   C2B27104   7.279  28.867   8.179
 1798POPC   C3B27105   7.046  28.871   7.771
 1798POPC   C4B27106   7.121  29.143   7.404
 1799POPC   NC327107  21.587  25.384   9.500
 1799POPC   PO427108  22.333  25.357   9.511
 1799POPC   GL127109  22.014  25.370   9.199
 1799POPC   GL227110  22.039  25.041   9.002
 1799POPC   C1A27111  22.005  25.498   8.784
 1799POPC   D2A27112  22.017  25.186   8.446
 1799POPC   C3A27113  21.861  25.348   8.053
 1799POPC   C4A27114  22.042  25.359   7.651
 1799POPC   C1B27115  22.283  24.819   8.696
 1799POPC   C2B27116  22.236  24.727   8.268
 1799POPC   C3B27117  22.184  24.924   7.894
 1799POPC   C4B27118  22.422  25.041   7.551
 1800POPC   NC327119   2.168  40.759   9.549
 1800POPC   PO427120   1.787  40.285   9.418
 1800POPC   GL127121   1.970  40.550   9.111
 1800POPC   GL227122   1.858  40.916   9.171
 1800POPC   C1A27123   1.861  40.517   8.692
 1800POPC   D2A27124   1.924  40.847   8.391
 1800POPC   C3A27125   2.148  40.688   8.064
 1800POPC   C4A27126   1.936  40.484   7.756
 1800POPC   C1B27127   2.024  41.131   8.808
 1800POPC   C2B27128   2.132  41.329   8.438
 1800POPC   C3B27129   2.234  41.213   8.026
 1800POPC   C4B27130   2.244  41.052   7.625
 1801POPC   NC327131   6.162  27.237   9.707
 1801POPC   PO427132   5.762  27.604   9.591
 1801POPC   GL127133   5.957  27.455   9.192
 1801POPC   GL227134   5.700  27.228   9.074
 1801POPC   C1A27135   6.000  27.432   8.711
 1801POPC   D2A27136   5.812  27.611   8.337
 1801POPC   C3A27137   6.028  27.734   7.960
 1801POPC   C4A27138   5.868  27.915   7.565
 1801POPC   C1B27139   5.481  27.485   8.743
 1801POPC   C2B27140   5.315  27.555   8.297
 1801POPC   C3B27141   5.530  27.614   7.867
 1801POPC   C4B27142   5.846  27.396   7.583
 1802POPC   NC327143   4.555  36.076   9.695
 1802POPC   PO427144   5.222  36.383   9.520
 1802POPC   GL127145   5.064  36.140   9.142
 1802POPC   GL227146   5.222  35.798   9.042
 1802POPC   C1A27147   5.093  36.149   8.683
 1802POPC   D2A27148   4.806  36.210   8.345
 1802POPC   C3A27149   5.028  36.219   7.956
 1802POPC   C4A27150   5.007  35.892   7.675
 1802POPC   C1B27151   5.377  35.724   8.599
 1802POPC   C2B27152   5.239  35.680   8.158
 1802POPC   C3B27153   5.365  35.526   7.747
 1802POPC   C4B27154   5.419  35.759   7.313
 1803POPC   NC327155  14.815  12.755   9.409
 1803POPC   PO427156  14.225  13.124   9.456
 1803POPC   GL127157  14.334  12.849   9.112
 1803POPC   GL227158  14.640  13.001   9.020
 1803POPC   C1A27159  14.267  12.862   8.645
 1803POPC   D2A27160  14.283  13.136   8.264
 1803POPC   C3A27161  14.165  12.966   7.859
 1803POPC   C4A27162  14.262  12.602   7.715
 1803POPC   C1B27163  14.735  12.652   8.731
 1803POPC   C2B27164  14.550  12.496   8.345
 1803POPC   C3B27165  14.620  12.817   8.040
 1803POPC   C4B27166  14.578  13.247   7.837
 1804POPC   NC327167   3.410   1.041   9.486
 1804POPC   PO427168   3.745   1.629   9.545
 1804POPC   GL127169   3.761   1.276   9.216
 1804POPC   GL227170   3.465   1.412   9.113
 1804POPC   C1A27171   3.786   1.064   8.773
 1804POPC   D2A27172   3.699   1.258   8.373
 1804POPC   C3A27173   3.661   1.044   7.998
 1804POPC   C4A27174   3.687   1.299   7.641
 1804POPC   C1B27175   3.332   1.311   8.720
 1804POPC   C2B27176   3.202   1.103   8.320
 1804POPC   C3B27177   3.203   1.252   7.916
 1804POPC   C4B27178   3.240   1.120   7.469
 1805POPC   NC327179  41.904  28.087   9.231
 1805POPC   PO427180  42.396  28.292   9.684
 1805POPC   GL127181  42.391  28.352   9.257
 1805POPC   GL227182  42.414  28.017   9.211
 1805POPC   C1A27183  42.351  28.350   8.808
 1805POPC   D2A27184  42.082  28.332   8.464
 1805POPC   C3A27185  42.241  28.455   8.087
 1805POPC   C4A27186  42.120  28.631   7.698
 1805POPC   C1B27187  42.667  27.920   8.860
 1805POPC   C2B27188  42.587  28.061   8.451
 1805POPC   C3B27189  42.415  27.941   8.070
 1805POPC   C4B27190  42.081  28.071   7.813
 1806POPC   NC327191  36.295  41.806   9.591
 1806POPC   PO427192  35.907  41.271   9.549
 1806POPC   GL127193  36.035  41.529   9.209
 1806POPC   GL227194  36.373  41.584   9.126
 1806POPC   C1A27195  35.985  41.391   8.788
 1806POPC   D2A27196  35.985  41.589   8.400
 1806POPC   C3A27197  35.936  41.362   8.073
 1806POPC   C4A27198  35.958  41.446   7.659
 1806POPC   C1B27199  36.443  41.601   8.705
 1806POPC   C2B27200  36.392  41.864   8.379
 1806POPC   C3B27201  36.235  41.805   7.957
 1806POPC   C4B27202  36.453  41.636   7.551
 1807POPC   NC327203  13.911  22.597   9.299
 1807POPC   PO427204  13.500  22.152   9.692
 1807POPC   GL127205  13.608  22.165   9.250
 1807POPC   GL227206  13.416  22.446   9.173
 1807POPC   C1A27207  13.893  22.092   8.857
 1807POPC   D2A27208  13.810  21.917   8.416
 1807POPC   C3A27209  13.857  22.217   8.060
 1807POPC   C4A27210  13.788  22.377   7.625
 1807POPC   C1B27211  13.435  22.277   8.750
 1807POPC   C2B27212  13.420  22.401   8.325
 1807POPC   C3B27213  13.366  22.295   7.915
 1807POPC   C4B27214  13.289  22.233   7.489
 1808POPC   NC327215  16.268  13.621   9.442
 1808POPC   PO427216  15.759  13.186   9.581
 1808POPC   GL127217  15.950  13.311   9.200
 1808POPC   GL227218  16.339  13.208   9.164
 1808POPC   C1A27219  15.765  13.439   8.794
 1808POPC   D2A27220  15.858  13.712   8.449
 1808POPC   C3A27221  15.769  13.565   8.069
 1808POPC   C4A27222  15.986  13.788   7.796
 1808POPC   C1B27223  16.185  13.168   8.786
 1808POPC   C2B27224  16.041  13.241   8.392
 1808POPC   C3B27225  16.211  13.337   8.019
 1808POPC   C4B27226  15.996  13.305   7.653
 1809POPC   NC327227  32.699  34.401   9.500
 1809POPC   PO427228  32.141  34.780   9.452
 1809POPC   GL127229  32.268  34.610   9.098
 1809POPC   GL227230  32.598  34.767   9.131
 1809POPC   C1A27231  32.129  34.430   8.694
 1809POPC   D2A27232  32.000  34.536   8.237
 1809POPC   C3A27233  32.007  34.445   7.788
 1809POPC   C4A27234  32.065  34.648   7.348
 1809POPC   C1B27235  32.647  34.465   8.807
 1809POPC   C2B27236  32.531  34.549   8.391
 1809POPC   C3B27237  32.480  34.372   8.010
 1809POPC   C4B27238  32.446  34.386   7.556
 1810POPC   NC327239  39.442   4.041   9.574
 1810POPC   PO427240  38.881   3.655   9.710
 1810POPC   GL127241  39.004   3.715   9.199
 1810POPC   GL227242  39.332   3.761   9.177
 1810POPC   C1A27243  39.186   3.754   8.694
 1810POPC   D2A27244  39.372   3.880   8.266
 1810POPC   C3A27245  39.189   3.692   7.902
 1810POPC   C4A27246  39.265   3.690   7.425
 1810POPC   C1B27247  39.402   3.376   8.947
 1810POPC   C2B27248  39.506   3.378   8.508
 1810POPC   C3B27249  39.644   3.412   8.089
 1810POPC   C4B27250  39.448   3.297   7.701
 1811POPC   NC327251  42.991  30.514   9.570
 1811POPC   PO427252  43.218  31.038   9.464
 1811POPC   GL127253  43.129  30.774   9.139
 1811POPC   GL227254  42.818  30.652   9.090
 1811POPC   C1A27255  43.212  30.496   8.797
 1811POPC   D2A27256  43.293  30.729   8.437
 1811POPC   C3A27257  43.188  30.524   8.080
 1811POPC   C4A27258  43.368  30.682   7.715
 1811POPC   C1B27259  42.870  30.905   8.713
 1811POPC   C2B27260  42.932  31.141   8.339
 1811POPC   C3B27261  42.986  30.969   7.924
 1811POPC   C4B27262  42.874  30.599   7.646
 1812POPC   NC327263   3.949  38.134   9.850
 1812POPC   PO427264   4.568  37.962   9.485
 1812POPC   GL127265   4.525  37.807   9.124
 1812POPC   GL227266   4.294  37.533   9.267
 1812POPC   C1A27267   4.588  37.999   8.728
 1812POPC   D2A27268   4.414  37.690   8.453
 1812POPC   C3A27269   4.543  37.610   8.052
 1812POPC   C4A27270   4.423  37.825   7.676
 1812POPC   C1B27271   4.133  37.547   8.866
 1812POPC   C2B27272   4.083  37.243   8.567
 1812POPC   C3B27273   4.142  37.328   8.142
 1812POPC   C4B27274   3.989  37.562   7.789
 1813POPC   NC327275   2.928   5.556   9.557
 1813POPC   PO427276   3.196   4.885   9.529
 1813POPC   GL127277   2.867   5.069   9.214
 1813POPC   GL227278   2.555   4.852   9.087
 1813POPC   C1A27279   2.808   5.194   8.765
 1813POPC   D2A27280   2.825   4.967   8.370
 1813POPC   C3A27281   2.962   5.175   7.968
 1813POPC   C4A27282   2.882   5.443   7.553
 1813POPC   C1B27283   2.345   4.949   8.663
 1813POPC   C2B27284   2.399   5.249   8.306
 1813POPC   C3B27285   2.498   5.306   7.904
 1813POPC   C4B27286   2.594   5.039   7.540
 1814POPC   NC327287  23.397  30.429   9.450
 1814POPC   PO427288  22.764  30.747   9.556
 1814POPC   GL127289  22.925  30.623   9.171
 1814POPC   GL227290  23.202  30.805   9.152
 1814POPC   C1A27291  22.885  30.757   8.736
 1814POPC   D2A27292  22.960  31.057   8.404
 1814POPC   C3A27293  22.901  30.901   8.012
 1814POPC   C4A27294  22.754  30.934   7.616
 1814POPC   C1B27295  23.357  30.584   8.818
 1814POPC   C2B27296  23.233  30.544   8.413
 1814POPC   C3B27297  23.373  30.702   8.063
 1814POPC   C4B27298  23.173  30.645   7.662
 1815POPC   NC327299  22.716  35.842   9.886
 1815POPC   PO427300  22.723  35.331   9.479
 1815POPC   GL127301  22.842  35.322   9.049
 1815POPC   GL227302  23.166  35.485   9.110
 1815POPC   C1A27303  22.615  35.521   8.717
 1815POPC   D2A27304  22.730  35.327   8.374
 1815POPC   C3A27305  22.750  35.494   7.989
 1815POPC   C4A27306  22.997  35.230   7.718
 1815POPC   C1B27307  23.118  35.637   8.691
 1815POPC   C2B27308  23.201  35.466   8.282
 1815POPC   C3B27309  23.238  35.647   7.892
 1815POPC   C4B27310  23.014  35.708   7.531
 1816POPC   NC327311   2.460  30.707   9.576
 1816POPC   PO427312   2.995  31.040   9.459
 1816POPC   GL127313   2.809  30.679   9.185
 1816POPC   GL227314   3.047  30.405   9.041
 1816POPC   C1A27315   2.560  30.539   8.838
 1816POPC   D2A27316   2.356  30.717   8.480
 1816POPC   C3A27317   2.609  30.726   8.079
 1816POPC   C4A27318   2.738  30.892   7.657
 1816POPC   C1B27319   3.060  30.771   8.760
 1816POPC   C2B27320   3.062  30.641   8.357
 1816POPC   C3B27321   3.121  30.720   7.962
 1816POPC   C4B27322   3.097  30.500   7.590
 1817POPC   NC327323   2.660   7.407   9.708
 1817POPC   PO427324   3.101   7.102   9.275
 1817POPC   GL127325   2.946   7.495   9.111
 1817POPC   GL227326   2.584   7.570   9.145
 1817POPC   C1A27327   2.890   7.760   8.748
 1817POPC   D2A27328   2.697   7.622   8.350
 1817POPC   C3A27329   2.911   7.412   8.002
 1817POPC   C4A27330   2.763   7.628   7.601
 1817POPC   C1B27331   2.553   7.348   8.744
 1817POPC   C2B27332   2.459   7.183   8.339
 1817POPC   C3B27333   2.429   7.404   7.923
 1817POPC   C4B27334   2.609   7.148   7.538
 1818POPC   NC327335  39.867  17.765  10.302
 1818POPC   PO427336  39.977  17.459   9.651
 1818POPC   GL127337  39.976  17.369   9.208
 1818POPC   GL227338  40.197  17.080   9.218
 1818POPC   C1A27339  39.979  17.618   8.794
 1818POPC   D2A27340  39.984  17.848   8.346
 1818POPC   C3A27341  39.918  17.666   7.918
 1818POPC   C4A27342  39.591  17.627   7.585
 1818POPC   C1B27343  40.160  17.107   8.766
 1818POPC   C2B27344  40.118  17.335   8.377
 1818POPC   C3B27345  40.204  17.255   7.958
 1818POPC   C4B27346  40.179  17.377   7.539
 1819POPC   NC327347  23.386  11.891   9.745
 1819POPC   PO427348  23.959  11.703   9.680
 1819POPC   GL127349  23.814  11.986   9.318
 1819POPC   GL227350  23.788  12.370   9.249
 1819POPC   C1A27351  23.865  12.000   8.877
 1819POPC   D2A27352  23.776  12.167   8.471
 1819POPC   C3A27353  24.010  12.073   8.134
 1819POPC   C4A27354  23.896  12.150   7.724
 1819POPC   C1B27355  23.559  12.460   8.840
 1819POPC   C2B27356  23.395  12.484   8.401
 1819POPC   C3B27357  23.464  12.202   8.013
 1819POPC   C4B27358  23.402  12.252   7.535
 1820POPC   NC327359  37.286  18.783   9.766
 1820POPC   PO427360  37.919  18.800   9.476
 1820POPC   GL127361  37.712  19.019   9.074
 1820POPC   GL227362  37.532  19.318   9.237
 1820POPC   C1A27363  37.957  19.257   8.717
 1820POPC   D2A27364  38.263  19.264   8.407
 1820POPC   C3A27365  38.185  19.038   8.036
 1820POPC   C4A27366  37.981  19.240   7.729
 1820POPC   C1B27367  37.469  19.363   8.779
 1820POPC   C2B27368  37.277  19.117   8.448
 1820POPC   C3B27369  37.351  18.936   8.031
 1820POPC   C4B27370  37.478  19.287   7.816
 1821POPC   NC327371  23.436  16.284   9.328
 1821POPC   PO427372  23.702  16.836   9.694
 1821POPC   GL127373  23.749  16.686   9.186
 1821POPC   GL227374  23.553  16.482   8.900
 1821POPC   C1A27375  23.972  16.663   8.722
 1821POPC   D2A27376  23.703  16.561   8.347
 1821POPC   C3A27377  23.876  16.641   7.925
 1821POPC   C4A27378  23.739  16.829   7.539
 1821POPC   C1B27379  23.288  16.140   8.717
 1821POPC   C2B27380  23.394  16.109   8.298
 1821POPC   C3B27381  23.471  16.337   7.939
 1821POPC   C4B27382  23.430  16.434   7.477
 1822POPC   NC327383  34.035  29.441   9.291
 1822POPC   PO427384  33.800  30.047   9.463
 1822POPC   GL127385  33.721  29.812   9.103
 1822POPC   GL227386  34.054  29.884   9.031
 1822POPC   C1A27387  33.696  29.915   8.693
 1822POPC   D2A27388  33.515  29.950   8.348
 1822POPC   C3A27389  33.755  29.861   8.011
 1822POPC   C4A27390  33.542  29.982   7.692
 1822POPC   C1B27391  34.143  29.641   8.676
 1822POPC   C2B27392  34.238  29.734   8.260
 1822POPC   C3B27393  34.225  29.723   7.809
 1822POPC   C4B27394  34.326  29.712   7.370
 1823POPC   NC327395   8.317  32.580   9.397
 1823POPC   PO427396   8.496  32.095   9.794
 1823POPC   GL127397   8.363  32.099   9.257
 1823POPC   GL227398   8.021  32.217   9.149
 1823POPC   C1A27399   8.317  32.403   8.799
 1823POPC   D2A27400   8.139  32.353   8.361
 1823POPC   C3A27401   8.424  32.324   7.994
 1823POPC   C4A27402   8.427  32.456   7.555
 1823POPC   C1B27403   8.170  31.914   8.790
 1823POPC   C2B27404   8.335  31.862   8.369
 1823POPC   C3B27405   8.120  31.921   7.984
 1823POPC   C4B27406   8.090  32.089   7.569
 1824POPC   NC327407  24.342  32.077   9.530
 1824POPC   PO427408  24.896  32.381   9.625
 1824POPC   GL127409  24.741  32.204   9.242
 1824POPC   GL227410  24.439  32.420   9.169
 1824POPC   C1A27411  24.608  32.033   8.851
 1824POPC   D2A27412  24.347  32.133   8.455
 1824POPC   C3A27413  24.545  32.061   8.034
 1824POPC   C4A27414  24.641  31.962   7.608
 1824POPC   C1B27415  24.544  32.540   8.765
 1824POPC   C2B27416  24.338  32.656   8.404
 1824POPC   C3B27417  24.295  32.497   8.021
 1824POPC   C4B27418  24.498  32.459   7.672
 1825POPC   NC327419  20.954  39.502   9.442
 1825POPC   PO427420  20.908  38.993   9.094
 1825POPC   GL127421  20.749  39.459   8.979
 1825POPC   GL227422  21.023  39.770   9.016
 1825POPC   C1A27423  20.488  39.444   8.621
 1825POPC   D2A27424  20.384  39.224   8.282
 1825POPC   C3A27425  20.328  39.459   7.930
 1825POPC   C4A27426  20.590  39.543   7.615
 1825POPC   C1B27427  21.181  39.466   8.716
 1825POPC   C2B27428  20.962  39.344   8.357
 1825POPC   C3B27429  21.125  39.320   7.948
 1825POPC   C4B27430  21.090  39.573   7.589
 1826POPC   NC327431   5.557  38.543   9.607
 1826POPC   PO427432   6.141  38.793   9.440
 1826POPC   GL127433   5.944  38.586   9.176
 1826POPC   GL227434   5.657  38.808   9.184
 1826POPC   C1A27435   6.080  38.449   8.754
 1826POPC   D2A27436   6.033  38.247   8.355
 1826POPC   C3A27437   6.194  38.489   7.981
 1826POPC   C4A27438   6.084  38.161   7.707
 1826POPC   C1B27439   5.580  38.479   8.856
 1826POPC   C2B27440   5.563  38.540   8.427
 1826POPC   C3B27441   5.698  38.425   8.006
 1826POPC   C4B27442   5.774  38.599   7.591
 1827POPC   NC327443  35.836  36.901   9.514
 1827POPC   PO427444  36.306  36.418   9.441
 1827POPC   GL127445  35.981  36.588   9.156
 1827POPC   GL227446  36.084  36.915   9.076
 1827POPC   C1A27447  36.004  36.589   8.719
 1827POPC   D2A27448  36.100  36.843   8.409
 1827POPC   C3A27449  35.964  36.663   8.061
 1827POPC   C4A27450  36.121  36.848   7.744
 1827POPC   C1B27451  36.155  37.245   8.772
 1827POPC   C2B27452  36.343  37.306   8.400
 1827POPC   C3B27453  36.099  37.298   8.034
 1827POPC   C4B27454  36.266  37.314   7.649
 1828POPC   NC327455  13.556  23.282   9.565
 1828POPC   PO427456  13.514  23.895   9.515
 1828POPC   GL127457  13.568  23.623   9.166
 1828POPC   GL227458  13.283  23.430   9.161
 1828POPC   C1A27459  13.610  23.671   8.734
 1828POPC   D2A27460  13.950  23.717   8.428
 1828POPC   C3A27461  13.752  23.654   8.003
 1828POPC   C4A27462  13.363  23.760   7.735
 1828POPC   C1B27463  13.262  23.305   8.732
 1828POPC   C2B27464  13.272  23.538   8.336
 1828POPC   C3B27465  13.372  23.311   7.988
 1828POPC   C4B27466  13.241  23.251   7.578
 1829POPC   NC327467   2.663  28.742   9.518
 1829POPC   PO427468   2.950  29.374   9.470
 1829POPC   GL127469   2.698  29.295   9.082
 1829POPC   GL227470   2.541  28.952   9.072
 1829POPC   C1A27471   2.673  29.173   8.641
 1829POPC   D2A27472   2.500  28.913   8.369
 1829POPC   C3A27473   2.480  29.226   8.070
 1829POPC   C4A27474   2.626  29.189   7.693
 1829POPC   C1B27475   2.869  28.751   8.831
 1829POPC   C2B27476   3.129  28.875   8.473
 1829POPC   C3B27477   2.954  28.943   8.077
 1829POPC   C4B27478   2.638  28.709   7.894
 1830POPC   NC327479   0.284  35.944   9.639
 1830POPC   PO427480   0.608  36.457   9.410
 1830POPC   GL127481   0.577  36.222   9.108
 1830POPC   GL227482   0.666  35.892   9.256
 1830POPC   C1A27483   0.795  36.259   8.713
 1830POPC   D2A27484   0.650  36.456   8.322
 1830POPC   C3A27485   0.674  36.359   7.887
 1830POPC   C4A27486   0.264  36.384   7.652
 1830POPC   C1B27487   0.400  35.839   8.860
 1830POPC   C2B27488   0.520  35.924   8.440
 1830POPC   C3B27489   0.324  36.031   8.077
 1830POPC   C4B27490   0.453  35.920   7.704
 1831POPC   NC327491   3.529   4.129   9.500
 1831POPC   PO427492   4.080   4.493   9.642
 1831POPC   GL127493   3.861   4.430   9.264
 1831POPC   GL227494   3.544   4.608   9.256
 1831POPC   C1A27495   3.825   4.266   8.864
 1831POPC   D2A27496   3.780   4.446   8.462
 1831POPC   C3A27497   3.640   4.217   8.099
 1831POPC   C4A27498   3.381   4.370   7.780
 1831POPC   C1B27499   3.355   4.534   8.830
 1831POPC   C2B27500   3.310   4.674   8.389
 1831POPC   C3B27501   3.031   4.652   8.028
 1831POPC   C4B27502   3.017   4.762   7.626
 1832POPC   NC327503  19.068  42.153   9.596
 1832POPC   PO427504  19.425  42.700   9.453
 1832POPC   GL127505  19.185  42.475   9.094
 1832POPC   GL227506  19.099  42.140   9.077
 1832POPC   C1A27507  19.351  42.371   8.680
 1832POPC   D2A27508  19.522  42.301   8.273
 1832POPC   C3A27509  19.285  42.502   7.960
 1832POPC   C4A27510  19.007  42.530   7.619
 1832POPC   C1B27511  19.013  41.993   8.677
 1832POPC   C2B27512  19.008  42.213   8.315
 1832POPC   C3B27513  18.772  42.329   8.011
 1832POPC   C4B27514  18.694  42.094   7.694
 1833POPC   NC327515  33.155  35.272   9.684
 1833POPC   PO427516  32.695  35.626   9.369
 1833POPC   GL127517  32.980  35.442   9.118
 1833POPC   GL227518  32.981  35.144   9.164
 1833POPC   C1A27519  33.130  35.333   8.695
 1833POPC   D2A27520  32.943  35.466   8.359
 1833POPC   C3A27521  33.157  35.271   8.053
 1833POPC   C4A27522  33.062  35.525   7.739
 1833POPC   C1B27523  32.666  35.161   8.789
 1833POPC   C2B27524  32.743  35.013   8.349
 1833POPC   C3B27525  32.673  35.213   7.905
 1833POPC   C4B27526  32.892  35.132   7.472
 1834POPC   NC327527   3.898  40.013   9.491
 1834POPC   PO427528   3.229  39.850   9.476
 1834POPC   GL127529   3.492  40.011   9.139
 1834POPC   GL227530   3.605  40.359   9.192
 1834POPC   C1A27531   3.480  39.911   8.703
 1834POPC   D2A27532   3.191  40.043   8.396
 1834POPC   C3A27533   3.324  39.996   7.982
 1834POPC   C4A27534   3.477  39.664   7.761
 1834POPC   C1B27535   3.842  40.262   8.798
 1834POPC   C2B27536   3.874  40.083   8.338
 1834POPC   C3B27537   3.862  39.997   7.855
 1834POPC   C4B27538   3.748  40.255   7.459
 1835POPC   NC327539  37.059  28.202   9.620
 1835POPC   PO427540  36.723  28.781   9.535
 1835POPC   GL127541  36.922  28.485   9.210
 1835POPC   GL227542  36.862  28.073   9.194
 1835POPC   C1A27543  37.044  28.498   8.770
 1835POPC   D2A27544  36.826  28.574   8.378
 1835POPC   C3A27545  36.988  28.459   7.968
 1835POPC   C4A27546  36.830  28.195   7.638
 1835POPC   C1B27547  37.106  27.983   8.853
 1835POPC   C2B27548  36.947  28.084   8.455
 1835POPC   C3B27549  37.002  27.939   8.061
 1835POPC   C4B27550  37.277  28.002   7.745
 1836POPC   NC327551  41.733   0.891   9.551
 1836POPC   PO427552  41.376   0.301   9.494
 1836POPC   GL127553  41.461   0.386   9.122
 1836POPC   GL227554  41.485   0.736   9.121
 1836POPC   C1A27555  41.603   0.337   8.730
 1836POPC   D2A27556  41.765   0.252   8.356
 1836POPC   C3A27557  41.615   0.169   7.993
 1836POPC   C4A27558  41.801   0.510   7.796
 1836POPC   C1B27559  41.207   0.672   8.764
 1836POPC   C2B27560  41.354   0.597   8.344
 1836POPC   C3B27561  41.296   0.583   7.912
 1836POPC   C4B27562  41.061   0.651   7.535
 1837POPC   NC327563  30.965  10.093   9.337
 1837POPC   PO427564  31.381   9.526   9.566
 1837POPC   GL127565  31.508   9.661   9.142
 1837POPC   GL227566  31.468  10.011   9.091
 1837POPC   C1A27567  31.453   9.727   8.677
 1837POPC   D2A27568  31.253   9.888   8.313
 1837POPC   C3A27569  31.525   9.827   8.003
 1837POPC   C4A27570  31.365   9.964   7.640
 1837POPC   C1B27571  31.863  10.006   8.837
 1837POPC   C2B27572  31.959   9.783   8.476
 1837POPC   C3B27573  32.046   9.914   8.078
 1837POPC   C4B27574  31.901   9.934   7.638
 1838POPC   NC327575  19.864  28.067   9.303
 1838POPC   PO427576  20.126  28.668   9.626
 1838POPC   GL127577  19.968  28.559   9.246
 1838POPC   GL227578  19.671  28.702   9.206
 1838POPC   C1A27579  19.970  28.494   8.807
 1838POPC   D2A27580  19.705  28.281   8.525
 1838POPC   C3A27581  19.905  28.317   8.160
 1838POPC   C4A27582  19.840  28.257   7.743
 1838POPC   C1B27583  19.589  28.858   8.802
 1838POPC   C2B27584  19.431  28.725   8.400
 1838POPC   C3B27585  19.561  28.642   7.988
 1838POPC   C4B27586  19.651  28.866   7.650
 1839POPC   NC327587  41.888  39.310   9.348
 1839POPC   PO427588  41.318  38.942   9.567
 1839POPC   GL127589  41.530  39.036   9.139
 1839POPC   GL227590  41.516  39.413   9.019
 1839POPC   C1A27591  41.716  39.064   8.702
 1839POPC   D2A27592  41.531  39.354   8.390
 1839POPC   C3A27593  41.443  39.243   7.996
 1839POPC   C4A27594  41.598  38.908   7.762
 1839POPC   C1B27595  41.818  39.627   8.686
 1839POPC   C2B27596  41.800  39.755   8.229
 1839POPC   C3B27597  41.955  39.523   7.853
 1839POPC   C4B27598  41.830  39.491   7.437
 1840POPC   NC327599  11.281  44.386   9.426
 1840POPC   PO427600  11.416   0.029   9.627
 1840POPC   GL127601  11.446  44.835   9.218
 1840POPC   GL227602  11.711  44.586   9.115
 1840POPC   C1A27603  11.268  44.684   8.829
 1840POPC   D2A27604  11.528  44.673   8.492
 1840POPC   C3A27605  11.345  44.594   8.128
 1840POPC   C4A27606  11.162  44.842   7.816
 1840POPC   C1B27607  11.611  44.251   8.809
 1840POPC   C2B27608  11.262  44.193   8.542
 1840POPC   C3B27609  10.902  44.242   8.304
 1840POPC   C4B27610  10.940  44.393   7.907
 1841POPC   NC327611  24.978  15.123   9.408
 1841POPC   PO427612  25.520  14.839   9.630
 1841POPC   GL127613  25.433  15.133   9.208
 1841POPC   GL227614  25.604  15.432   9.111
 1841POPC   C1A27615  25.251  15.113   8.787
 1841POPC   D2A27616  25.440  14.936   8.421
 1841POPC   C3A27617  25.276  15.002   8.003
 1841POPC   C4A27618  25.230  14.855   7.565
 1841POPC   C1B27619  25.321  15.602   8.790
 1841POPC   C2B27620  25.279  15.445   8.384
 1841POPC   C3B27621  25.418  15.496   7.985
 1841POPC   C4B27622  25.183  15.350   7.635
 1842POPC   NC327623   6.293  36.100   9.476
 1842POPC   PO427624   6.849  36.410   9.445
 1842POPC   GL127625   6.877  36.188   9.075
 1842POPC   GL227626   6.614  35.982   9.102
 1842POPC   C1A27627   6.714  36.270   8.677
 1842POPC   D2A27628   6.614  36.076   8.331
 1842POPC   C3A27629   6.882  36.315   8.103
 1842POPC   C4A27630   7.122  36.643   7.922
 1842POPC   C1B27631   6.280  36.013   8.783
 1842POPC   C2B27632   6.209  35.727   8.409
 1842POPC   C3B27633   6.379  35.752   8.018
 1842POPC   C4B27634   6.525  36.115   7.782
 1843POPC   NC327635  23.081  25.120   9.542
 1843POPC   PO427636  23.263  25.714   9.425
 1843POPC   GL127637  23.043  25.382   9.108
 1843POPC   GL227638  22.719  25.192   9.178
 1843POPC   C1A27639  22.967  25.277   8.668
 1843POPC   D2A27640  23.204  25.475   8.320
 1843POPC   C3A27641  23.042  25.484   7.901
 1843POPC   C4A27642  22.894  25.154   7.656
 1843POPC   C1B27643  22.478  25.289   8.805
 1843POPC   C2B27644  22.536  25.143   8.371
 1843POPC   C3B27645  22.496  25.333   7.969
 1843POPC   C4B27646  22.530  25.542   7.566
 1844POPC   NC327647  22.718  39.753   9.444
 1844POPC   PO427648  23.153  40.343   9.499
 1844POPC   GL127649  22.943  40.121   9.184
 1844POPC   GL227650  23.192  39.874   9.181
 1844POPC   C1A27651  22.804  39.859   8.801
 1844POPC   D2A27652  22.721  39.790   8.345
 1844POPC   C3A27653  22.799  40.161   8.048
 1844POPC   C4A27654  22.547  40.251   7.696
 1844POPC   C1B27655  23.236  39.574   8.853
 1844POPC   C2B27656  23.230  39.750   8.444
 1844POPC   C3B27657  23.231  39.885   8.013
 1844POPC   C4B27658  23.098  39.640   7.666
 1845POPC   NC327659  26.594   7.243   9.427
 1845POPC   PO427660  27.143   7.628   9.442
 1845POPC   GL127661  27.193   7.545   9.018
 1845POPC   GL227662  26.985   7.263   9.098
 1845POPC   C1A27663  26.889   7.586   8.678
 1845POPC   D2A27664  26.507   7.681   8.426
 1845POPC   C3A27665  26.682   7.607   8.041
 1845POPC   C4A27666  26.760   7.769   7.668
 1845POPC   C1B27667  26.778   7.049   8.768
 1845POPC   C2B27668  26.679   7.187   8.378
 1845POPC   C3B27669  26.793   7.077   7.992
 1845POPC   C4B27670  26.868   7.284   7.624
 1846POPC   NC327671  18.167  23.370   9.345
 1846POPC   PO427672  18.146  24.103   9.409
 1846POPC   GL127673  18.373  24.003   9.040
 1846POPC   GL227674  18.501  23.677   9.096
 1846POPC   C1A27675  18.164  23.822   8.694
 1846POPC   D2A27676  17.886  23.651   8.390
 1846POPC   C3A27677  18.006  23.800   7.997
 1846POPC   C4A27678  18.247  24.077   7.752
 1846POPC   C1B27679  18.478  23.449   8.714
 1846POPC   C2B27680  18.384  23.544   8.305
 1846POPC   C3B27681  18.524  23.702   7.953
 1846POPC   C4B27682  18.677  23.552   7.578
 1847POPC   NC327683  17.107  24.880   9.514
 1847POPC   PO427684  17.095  25.566   9.470
 1847POPC   GL127685  16.813  25.493   9.122
 1847POPC   GL227686  16.687  25.144   9.161
 1847POPC   C1A27687  16.654  25.430   8.716
 1847POPC   D2A27688  16.608  25.156   8.385
 1847POPC   C3A27689  16.866  25.183   8.000
 1847POPC   C4A27690  17.045  24.875   7.699
 1847POPC   C1B27691  16.316  25.079   8.886
 1847POPC   C2B27692  16.101  25.083   8.504
 1847POPC   C3B27693  16.274  24.833   8.167
 1847POPC   C4B27694  16.504  24.878   7.802
 1848POPC   NC327695  37.875  23.965   9.317
 1848POPC   PO427696  37.944  24.692   9.432
 1848POPC   GL127697  37.693  24.450   9.150
 1848POPC   GL227698  37.961  24.304   8.954
 1848POPC   C1A27699  37.569  24.485   8.708
 1848POPC   D2A27700  37.862  24.449   8.379
 1848POPC   C3A27701  37.706  24.533   7.996
 1848POPC   C4A27702  37.386  24.366   7.755
 1848POPC   C1B27703  38.148  24.081   8.629
 1848POPC   C2B27704  38.246  24.149   8.196
 1848POPC   C3B27705  37.871  24.053   7.914
 1848POPC   C4B27706  37.770  23.839   7.476
 1849POPC   NC327707  11.703  22.579   9.421
 1849POPC   PO427708  12.416  22.584   9.385
 1849POPC   GL127709  12.090  22.906   9.245
 1849POPC   GL227710  11.766  22.869   9.006
 1849POPC   C1A27711  12.078  23.260   8.950
 1849POPC   D2A27712  11.857  23.228   8.555
 1849POPC   C3A27713  11.943  23.120   8.107
 1849POPC   C4A27714  11.760  22.802   7.803
 1849POPC   C1B27715  12.133  22.792   8.742
 1849POPC   C2B27716  12.350  22.621   8.413
 1849POPC   C3B27717  12.534  22.713   8.049
 1849POPC   C4B27718  12.278  22.874   7.746
 1850POPC   NC327719   2.958  26.609   9.623
 1850POPC   PO427720   3.391  26.230   9.644
 1850POPC   GL127721   3.306  26.479   9.253
 1850POPC   GL227722   3.321  26.853   9.297
 1850POPC   C1A27723   3.234  26.561   8.797
 1850POPC   D2A27724   3.334  26.866   8.458
 1850POPC   C3A27725   3.517  26.669   8.124
 1850POPC   C4A27726   3.290  26.444   7.830
 1850POPC   C1B27727   3.607  26.913   8.908
 1850POPC   C2B27728   3.838  26.969   8.483
 1850POPC   C3B27729   3.752  27.111   8.045
 1850POPC   C4B27730   3.331  27.099   7.878
 1851POPC   NC327731   3.882  11.444   9.465
 1851POPC   PO427732   3.239  11.560   9.289
 1851POPC   GL127733   3.553  11.241   9.130
 1851POPC   GL227734   3.419  10.925   8.990
 1851POPC   C1A27735   3.825  11.151   8.766
 1851POPC   D2A27736   3.613  10.986   8.405
 1851POPC   C3A27737   3.616  11.223   8.028
 1851POPC   C4A27738   3.757  11.280   7.609
 1851POPC   C1B27739   3.148  10.841   8.617
 1851POPC   C2B27740   3.133  11.028   8.194
 1851POPC   C3B27741   3.215  11.047   7.737
 1851POPC   C4B27742   3.314  10.867   7.311
 1852POPC   NC327743  26.676  31.470   9.654
 1852POPC   PO427744  27.321  31.469   9.722
 1852POPC   GL127745  27.011  31.582   9.277
 1852POPC   GL227746  26.634  31.475   9.148
 1852POPC   C1A27747  27.020  31.447   8.805
 1852POPC   D2A27748  26.926  31.199   8.417
 1852POPC   C3A27749  26.825  31.445   8.043
 1852POPC   C4A27750  26.702  31.305   7.647
 1852POPC   C1B27751  26.526  31.256   8.756
 1852POPC   C2B27752  26.412  31.228   8.299
 1852POPC   C3B27753  26.326  31.536   7.970
 1852POPC   C4B27754  26.500  31.815   7.683
 1853POPC   NC327755  44.218   0.157   9.348
 1853POPC   PO427756  44.717   0.584   9.330
 1853POPC   GL127757  44.397   0.546   9.064
 1853POPC   GL227758  44.485   0.847   8.903
 1853POPC   C1A27759  44.342   0.408   8.693
 1853POPC   D2A27760  44.501   0.654   8.416
 1853POPC   C3A27761  44.492   0.424   8.084
 1853POPC   C4A27762  44.420   0.298   7.703
 1853POPC   C1B27763  44.892   0.807   8.708
 1853POPC   C2B27764  44.947   0.800   8.278
 1853POPC   C3B27765  44.777   0.795   7.889
 1853POPC   C4B27766   0.044   0.738   7.540
 1854POPC   NC327767  21.609  37.121   9.534
 1854POPC   PO427768  22.133  36.761   9.851
 1854POPC   GL127769  22.280  36.836   9.322
 1854POPC   GL227770  22.056  37.132   9.240
 1854POPC   C1A27771  22.234  36.886   8.839
 1854POPC   D2A27772  22.354  37.070   8.414
 1854POPC   C3A27773  22.160  36.926   8.039
 1854POPC   C4A27774  21.990  36.514   7.913
 1854POPC   C1B27775  21.846  37.249   8.845
 1854POPC   C2B27776  21.806  37.135   8.394
 1854POPC   C3B27777  21.835  37.364   8.013
 1854POPC   C4B27778  21.901  37.397   7.582
 1855POPC   NC327779   8.938  36.733   9.223
 1855POPC   PO427780   9.262  37.210   9.585
 1855POPC   GL127781   9.163  37.186   9.128
 1855POPC   GL227782   8.865  37.140   8.902
 1855POPC   C1A27783   9.283  36.956   8.719
 1855POPC   D2A27784   8.954  36.947   8.409
 1855POPC   C3A27785   9.146  37.085   8.079
 1855POPC   C4A27786   9.361  36.856   7.795
 1855POPC   C1B27787   8.521  36.843   8.716
 1855POPC   C2B27788   8.379  36.482   8.457
 1855POPC   C3B27789   8.670  36.420   8.125
 1855POPC   C4B27790   8.780  36.800   7.902
 1856POPC   NC327791  16.820  43.496   9.494
 1856POPC   PO427792  17.091  42.840   9.357
 1856POPC   GL127793  16.843  43.058   9.094
 1856POPC   GL227794  16.947  43.378   9.041
 1856POPC   C1A27795  16.827  43.074   8.655
 1856POPC   D2A27796  16.848  42.808   8.308
 1856POPC   C3A27797  16.911  43.163   8.077
 1856POPC   C4A27798  16.725  43.135   7.715
 1856POPC   C1B27799  16.557  43.483   8.824
 1856POPC   C2B27800  16.501  43.417   8.361
 1856POPC   C3B27801  16.392  43.507   7.928
 1856POPC   C4B27802  16.443  43.515   7.466
 1857POPC   NC327803  41.201  25.415   9.510
 1857POPC   PO427804  40.529  25.077   9.522
 1857POPC   GL127805  40.833  25.141   9.206
 1857POPC   GL227806  41.076  24.907   9.275
 1857POPC   C1A27807  40.818  25.230   8.766
 1857POPC   D2A27808  40.779  25.075   8.371
 1857POPC   C3A27809  40.790  25.310   7.995
 1857POPC   C4A27810  40.498  25.330   7.640
 1857POPC   C1B27811  41.179  24.858   8.833
 1857POPC   C2B27812  41.304  24.956   8.404
 1857POPC   C3B27813  41.056  24.749   8.095
 1857POPC   C4B27814  40.717  24.838   7.799
 1858POPC   NC327815   7.651   6.400   9.563
 1858POPC   PO427816   7.319   6.927   9.501
 1858POPC   GL127817   7.161   6.637   9.196
 1858POPC   GL227818   7.474   6.440   9.094
 1858POPC   C1A27819   7.124   6.542   8.749
 1858POPC   D2A27820   7.240   6.364   8.344
 1858POPC   C3A27821   7.315   6.669   8.026
 1858POPC   C4A27822   7.296   7.022   7.739
 1858POPC   C1B27823   7.652   6.519   8.668
 1858POPC   C2B27824   7.759   6.431   8.228
 1858POPC   C3B27825   7.645   6.282   7.816
 1858POPC   C4B27826   7.726   6.428   7.346
 1859POPC   NC327827  23.444  15.605   9.580
 1859POPC   PO427828  23.874  15.075   9.548
 1859POPC   GL127829  23.727  15.293   9.171
 1859POPC   GL227830  23.364  15.293   9.187
 1859POPC   C1A27831  23.825  15.357   8.700
 1859POPC   D2A27832  23.919  15.169   8.276
 1859POPC   C3A27833  23.909  15.425   7.908
 1859POPC   C4A27834  23.756  15.279   7.521
 1859POPC   C1B27835  23.418  15.044   8.826
 1859POPC   C2B27836  23.419  15.111   8.412
 1859POPC   C3B27837  23.443  15.239   7.996
 1859POPC   C4B27838  23.300  15.073   7.646
 1860POPC   NC327839  19.796  20.303   9.520
 1860POPC   PO427840  19.916  19.611   9.638
 1860POPC   GL127841  19.897  19.862   9.226
 1860POPC   GL227842  19.566  19.980   9.182
 1860POPC   C1A27843  19.820  19.941   8.744
 1860POPC   D2A27844  19.665  19.659   8.416
 1860POPC   C3A27845  19.812  19.549   8.004
 1860POPC   C4A27846  19.480  19.547   7.650
 1860POPC   C1B27847  19.552  20.357   8.887
 1860POPC   C2B27848  19.629  20.376   8.457
 1860POPC   C3B27849  19.741  20.094   8.141
 1860POPC   C4B27850  19.728  19.975   7.747
 1861POPC   NC327851  12.274  23.848   9.439
 1861POPC   PO427852  11.648  23.816   9.461
 1861POPC   GL127853  11.848  23.962   9.097
 1861POPC   GL227854  12.171  24.121   9.025
 1861POPC   C1A27855  11.995  23.727   8.744
 1861POPC   D2A27856  12.218  23.617   8.383
 1861POPC   C3A27857  12.038  23.866   8.062
 1861POPC   C4A27858  11.843  23.718   7.693
 1861POPC   C1B27859  12.468  23.913   8.791
 1861POPC   C2B27860  12.514  24.054   8.404
 1861POPC   C3B27861  12.558  23.846   8.051
 1861POPC   C4B27862  12.362  23.688   7.701
 1862POPC   NC327863  22.542  42.137   9.502
 1862POPC   PO427864  22.929  42.628   9.707
 1862POPC   GL127865  22.946  42.309   9.247
 1862POPC   GL227866  22.793  41.905   9.132
 1862POPC   C1A27867  23.150  42.207   8.835
 1862POPC   D2A27868  23.352  42.092   8.444
 1862POPC   C3A27869  23.122  42.143   8.069
 1862POPC   C4A27870  23.111  42.416   7.716
 1862POPC   C1B27871  22.744  41.910   8.721
 1862POPC   C2B27872  22.755  42.212   8.411
 1862POPC   C3B27873  22.637  42.349   8.003
 1862POPC   C4B27874  22.687  42.147   7.637
 1863POPC   NC327875  30.745  43.247   9.428
 1863POPC   PO427876  30.281  42.788   9.587
 1863POPC   GL127877  30.454  42.871   9.139
 1863POPC   GL227878  30.790  42.855   9.082
 1863POPC   C1A27879  30.553  43.110   8.693
 1863POPC   D2A27880  30.805  43.404   8.457
 1863POPC   C3A27881  30.879  43.350   8.046
 1863POPC   C4A27882  30.996  43.249   7.678
 1863POPC   C1B27883  31.008  42.918   8.730
 1863POPC   C2B27884  30.846  42.927   8.320
 1863POPC   C3B27885  30.757  42.850   7.893
 1863POPC   C4B27886  30.966  42.770   7.470
 1864POPC   NC327887  39.218  39.730   9.466
 1864POPC   PO427888  39.391  40.269   9.245
 1864POPC   GL127889  39.104  40.057   9.060
 1864POPC   GL227890  39.303  39.762   8.982
 1864POPC   C1A27891  39.133  40.071   8.607
 1864POPC   D2A27892  39.266  39.969   8.231
 1864POPC   C3A27893  39.503  40.222   7.994
 1864POPC   C4A27894  39.321  40.006   7.672
 1864POPC   C1B27895  38.918  39.658   8.818
 1864POPC   C2B27896  38.895  39.585   8.401
 1864POPC   C3B27897  38.885  39.749   7.995
 1864POPC   C4B27898  38.844  39.538   7.649
 1865POPC   NC327899  23.485  24.508   9.531
 1865POPC   PO427900  24.133  24.194   9.633
 1865POPC   GL127901  23.967  24.498   9.207
 1865POPC   GL227902  23.741  24.742   9.122
 1865POPC   C1A27903  24.100  24.517   8.707
 1865POPC   D2A27904  23.925  24.278   8.342
 1865POPC   C3A27905  24.110  24.362   7.921
 1865POPC   C4A27906  23.876  24.414   7.522
 1865POPC   C1B27907  23.623  24.627   8.698
 1865POPC   C2B27908  23.798  24.786   8.320
 1865POPC   C3B27909  23.672  24.646   7.951
 1865POPC   C4B27910  23.460  24.266   7.818
 1866POPC   NC327911  34.712   7.696   9.542
 1866POPC   PO427912  34.214   7.318   9.481
 1866POPC   GL127913  34.548   7.312   9.155
 1866POPC   GL227914  34.794   7.591   9.066
 1866POPC   C1A27915  34.543   7.217   8.719
 1866POPC   D2A27916  34.299   7.363   8.379
 1866POPC   C3A27917  34.382   7.263   7.996
 1866POPC   C4A27918  34.452   7.449   7.639
 1866POPC   C1B27919  34.965   7.475   8.699
 1866POPC   C2B27920  34.840   7.337   8.288
 1866POPC   C3B27921  34.898   7.309   7.869
 1866POPC   C4B27922  34.908   7.639   7.580
 1867POPC   NC327923  28.165  17.003   9.710
 1867POPC   PO427924  28.492  16.364   9.539
 1867POPC   GL127925  28.372  16.532   9.177
 1867POPC   GL227926  28.330  16.874   9.241
 1867POPC   C1A27927  28.162  16.554   8.798
 1867POPC   D2A27928  27.977  16.659   8.431
 1867POPC   C3A27929  28.277  16.583   8.123
 1867POPC   C4A27930  28.376  16.827   7.775
 1867POPC   C1B27931  28.450  16.970   8.824
 1867POPC   C2B27932  28.416  17.001   8.381
 1867POPC   C3B27933  28.062  17.071   8.086
 1867POPC   C4B27934  27.959  17.112   7.637
 1868POPC   NC327935  38.147  21.471   9.478
 1868POPC   PO427936  38.819  21.601   9.392
 1868POPC   GL127937  38.562  21.400   9.118
 1868POPC   GL227938  38.385  21.750   9.118
 1868POPC   C1A27939  38.673  21.219   8.686
 1868POPC   D2A27940  38.699  21.455   8.309
 1868POPC   C3A27941  38.771  21.305   7.871
 1868POPC   C4A27942  38.725  21.183   7.434
 1868POPC   C1B27943  38.380  21.621   8.698
 1868POPC   C2B27944  38.205  21.311   8.409
 1868POPC   C3B27945  38.276  21.400   7.978
 1868POPC   C4B27946  38.184  21.740   7.709
 1869POPC   NC327947   5.100   3.954   9.434
 1869POPC   PO427948   5.068   4.590   9.525
 1869POPC   GL127949   4.822   4.460   9.195
 1869POPC   GL227950   5.112   4.314   9.076
 1869POPC   C1A27951   4.721   4.417   8.765
 1869POPC   D2A27952   4.998   4.428   8.408
 1869POPC   C3A27953   4.804   4.456   8.021
 1869POPC   C4A27954   4.887   4.104   7.752
 1869POPC   C1B27955   5.030   3.998   8.772
 1869POPC   C2B27956   5.266   4.010   8.435
 1869POPC   C3B27957   5.288   4.150   8.059
 1869POPC   C4B27958   5.391   4.044   7.658
 1870POPC   NC327959   1.357  27.791   9.693
 1870POPC   PO427960   1.525  27.260   9.299
 1870POPC   GL127961   1.130  27.472   9.038
 1870POPC   GL227962   1.015  27.811   9.211
 1870POPC   C1A27963   1.273  27.531   8.625
 1870POPC   D2A27964   1.556  27.584   8.308
 1870POPC   C3A27965   1.404  27.439   7.957
 1870POPC   C4A27966   1.398  27.744   7.692
 1870POPC   C1B27967   0.929  27.876   8.765
 1870POPC   C2B27968   0.904  27.761   8.317
 1870POPC   C3B27969   0.904  27.803   7.858
 1870POPC   C4B27970   0.970  27.422   7.663
 1871POPC   NC327971   5.896  10.173   9.429
 1871POPC   PO427972   5.559  10.739   9.450
 1871POPC   GL127973   5.760  10.570   9.101
 1871POPC   GL227974   6.053  10.730   9.083
 1871POPC   C1A27975   5.767  10.707   8.670
 1871POPC   D2A27976   5.928  10.776   8.271
 1871POPC   C3A27977   5.602  10.805   7.990
 1871POPC   C4A27978   5.405  10.462   7.721
 1871POPC   C1B27979   6.286  10.687   8.694
 1871POPC   C2B27980   6.462  10.866   8.317
 1871POPC   C3B27981   6.361  10.663   7.935
 1871POPC   C4B27982   5.978  10.642   7.700
 1872POPC   NC327983   1.524  27.717   9.189
 1872POPC   PO427984   2.064  27.630   9.551
 1872POPC   GL127985   2.018  27.594   9.122
 1872POPC   GL227986   2.006  27.939   9.089
 1872POPC   C1A27987   1.922  27.578   8.668
 1872POPC   D2A27988   1.987  27.313   8.285
 1872POPC   C3A27989   1.908  27.536   7.882
 1872POPC   C4A27990   1.817  27.628   7.434
 1872POPC   C1B27991   2.320  27.927   8.735
 1872POPC   C2B27992   2.242  27.792   8.286
 1872POPC   C3B27993   2.333  27.858   7.837
 1872POPC   C4B27994   2.314  27.506   7.533
 1873POPC   NC327995  36.089  27.895   9.593
 1873POPC   PO427996  36.244  27.356   9.659
 1873POPC   GL127997  36.296  27.529   9.243
 1873POPC   GL227998  36.393  27.853   9.182
 1873POPC   C1A27999  36.251  27.497   8.788
 1873POPC   D2A28000  36.426  27.336   8.387
 1873POPC   C3A28001  36.184  27.493   8.044
 1873POPC   C4A28002  36.109  27.339   7.640
 1873POPC   C1B28003  36.138  28.035   8.874
 1873POPC   C2B28004  36.041  27.910   8.466
 1873POPC   C3B28005  36.100  27.997   8.047
 1873POPC   C4B28006  35.978  27.853   7.660
 1874POPC   NC328007  39.113  29.805   9.513
 1874POPC   PO428008  39.483  30.293   9.671
 1874POPC   GL128009  39.303  30.139   9.181
 1874POPC   GL228010  39.304  29.761   9.061
 1874POPC   C1A28011  38.969  29.991   8.811
 1874POPC   D2A28012  38.985  29.831   8.401
 1874POPC   C3A28013  38.987  30.147   8.104
 1874POPC   C4A28014  39.151  30.129   7.720
 1874POPC   C1B28015  39.474  29.926   8.661
 1874POPC   C2B28016  39.454  29.934   8.230
 1874POPC   C3B28017  39.255  29.672   7.974
 1874POPC   C4B28018  39.337  29.636   7.567
 1875POPC   NC328019   2.089   7.915   9.359
 1875POPC   PO428020   1.465   8.315   9.447
 1875POPC   GL128021   1.731   8.384   9.090
 1875POPC   GL228022   2.085   8.377   9.168
 1875POPC   C1A28023   1.838   8.199   8.728
 1875POPC   D2A28024   1.680   8.228   8.331
 1875POPC   C3A28025   2.029   8.153   8.059
 1875POPC   C4A28026   2.159   7.890   7.778
 1875POPC   C1B28027   2.300   8.493   8.803
 1875POPC   C2B28028   2.199   8.452   8.413
 1875POPC   C3B28029   2.452   8.437   8.038
 1875POPC   C4B28030   2.386   8.419   7.642
 1876POPC   NC328031  18.273  43.692   9.486
 1876POPC   PO428032  18.623  44.229   9.468
 1876POPC   GL128033  18.366  44.058   9.113
 1876POPC   GL228034  18.056  43.792   9.048
 1876POPC   C1A28035  18.474  43.849   8.738
 1876POPC   D2A28036  18.340  43.759   8.319
 1876POPC   C3A28037  18.498  44.018   7.974
 1876POPC   C4A28038  18.580  43.722   7.662
 1876POPC   C1B28039  17.932  44.077   8.724
 1876POPC   C2B28040  18.015  44.173   8.285
 1876POPC   C3B28041  18.031  44.200   7.823
 1876POPC   C4B28042  18.013  44.280   7.374
 1877POPC   NC328043  29.571  11.959   9.585
 1877POPC   PO428044  28.957  12.315   9.428
 1877POPC   GL128045  29.025  11.959   9.136
 1877POPC   GL228046  29.360  12.004   9.125
 1877POPC   C1A28047  29.132  11.914   8.689
 1877POPC   D2A28048  29.193  12.325   8.470
 1877POPC   C3A28049  29.105  12.353   8.044
 1877POPC   C4A28050  28.881  12.092   7.786
 1877POPC   C1B28051  29.565  12.205   8.791
 1877POPC   C2B28052  29.636  12.051   8.374
 1877POPC   C3B28053  29.569  12.173   7.966
 1877POPC   C4B28054  29.373  12.323   7.595
 1878POPC   NC328055  16.398  27.126   9.525
 1878POPC   PO428056  15.823  26.916   9.553
 1878POPC   GL128057  15.943  26.688   9.179
 1878POPC   GL228058  16.214  26.903   9.104
 1878POPC   C1A28059  16.095  26.507   8.803
 1878POPC   D2A28060  16.329  26.581   8.408
 1878POPC   C3A28061  16.074  26.467   8.071
 1878POPC   C4A28062  15.905  26.670   7.722
 1878POPC   C1B28063  16.141  27.000   8.676
 1878POPC   C2B28064  16.248  27.054   8.252
 1878POPC   C3B28065  16.021  27.133   7.897
 1878POPC   C4B28066  15.584  27.095   7.810
 1879POPC   NC328067  37.274  34.859   9.392
 1879POPC   PO428068  37.043  35.499   9.607
 1879POPC   GL128069  36.865  35.630   9.142
 1879POPC   GL228070  36.542  35.473   9.045
 1879POPC   C1A28071  36.889  35.518   8.666
 1879POPC   D2A28072  37.086  35.133   8.440
 1879POPC   C3A28073  37.017  34.965   8.008
 1879POPC   C4A28074  36.952  35.307   7.743
 1879POPC   C1B28075  36.511  35.174   8.728
 1879POPC   C2B28076  36.429  35.354   8.326
 1879POPC   C3B28077  36.453  35.205   7.892
 1879POPC   C4B28078  36.569  35.150   7.448
 1880POPC   NC328079  10.354   3.933   9.487
 1880POPC   PO428080  10.208   4.525   9.797
 1880POPC   GL128081  10.353   4.463   9.313
 1880POPC   GL228082  10.557   4.253   9.135
 1880POPC   C1A28083  10.417   4.589   8.800
 1880POPC   D2A28084  10.675   4.731   8.428
 1880POPC   C3A28085  10.518   4.590   8.036
 1880POPC   C4A28086  10.336   4.355   7.723
 1880POPC   C1B28087  10.845   4.266   8.764
 1880POPC   C2B28088  10.936   4.062   8.361
 1880POPC   C3B28089  10.712   4.086   7.976
 1880POPC   C4B28090  10.797   3.947   7.570
 1881POPC   NC328091  30.696  38.243   9.504
 1881POPC   PO428092  31.085  38.735   9.496
 1881POPC   GL128093  30.816  38.624   9.108
 1881POPC   GL228094  30.823  38.275   9.006
 1881POPC   C1A28095  30.793  38.610   8.620
 1881POPC   D2A28096  30.773  38.846   8.199
 1881POPC   C3A28097  30.847  38.588   7.823
 1881POPC   C4A28098  30.913  38.107   7.845
 1881POPC   C1B28099  30.519  38.169   8.659
 1881POPC   C2B28100  30.385  37.861   8.352
 1881POPC   C3B28101  30.409  37.897   7.912
 1881POPC   C4B28102  30.433  38.304   7.878
 1882POPC   NC328103  30.498  30.998   9.870
 1882POPC   PO428104  30.499  30.441   9.510
 1882POPC   GL128105  30.747  30.515   9.163
 1882POPC   GL228106  30.800  30.866   9.214
 1882POPC   C1A28107  30.765  30.599   8.719
 1882POPC   D2A28108  30.930  30.400   8.329
 1882POPC   C3A28109  30.749  30.591   7.973
 1882POPC   C4A28110  30.385  30.672   7.719
 1882POPC   C1B28111  31.064  31.000   8.856
 1882POPC   C2B28112  30.995  30.983   8.437
 1882POPC   C3B28113  31.056  31.041   8.009
 1882POPC   C4B28114  30.885  30.946   7.614
 1883POPC   NC328115   6.272  35.468   9.785
 1883POPC   PO428116   5.686  35.500   9.461
 1883POPC   GL128117   5.920  35.767   9.219
 1883POPC   GL228118   6.229  35.638   9.254
 1883POPC   C1A28119   5.870  35.693   8.790
 1883POPC   D2A28120   5.849  35.299   8.544
 1883POPC   C3A28121   5.645  35.287   8.149
 1883POPC   C4A28122   5.685  35.127   7.744
 1883POPC   C1B28123   6.373  35.517   8.853
 1883POPC   C2B28124   6.359  35.184   8.576
 1883POPC   C3B28125   6.241  35.255   8.170
 1883POPC   C4B28126   6.251  35.345   7.757
 1884POPC   NC328127  32.454  43.033   9.382
 1884POPC   PO428128  31.992  43.328   9.832
 1884POPC   GL128129  31.973  43.137   9.300
 1884POPC   GL228130  32.139  42.876   9.025
 1884POPC   C1A28131  31.951  43.216   8.747
 1884POPC   D2A28132  32.110  43.091   8.336
 1884POPC   C3A28133  32.177  43.263   7.914
 1884POPC   C4A28134  31.924  43.049   7.588
 1884POPC   C1B28135  32.455  43.083   8.738
 1884POPC   C2B28136  32.607  43.231   8.336
 1884POPC   C3B28137  32.642  42.994   7.926
 1884POPC   C4B28138  32.402  42.920   7.533
 1885POPC   NC328139   9.559  12.282   9.532
 1885POPC   PO428140  10.218  12.397   9.454
 1885POPC   GL128141   9.924  12.130   9.174
 1885POPC   GL228142   9.639  12.317   9.054
 1885POPC   C1A28143   9.732  11.941   8.777
 1885POPC   D2A28144   9.611  12.139   8.410
 1885POPC   C3A28145   9.605  11.870   8.068
 1885POPC   C4A28146   9.885  11.864   7.708
 1885POPC   C1B28147   9.286  12.283   8.790
 1885POPC   C2B28148   9.167  12.489   8.457
 1885POPC   C3B28149   9.233  12.271   8.056
 1885POPC   C4B28150   9.611  12.287   7.801
 1886POPC   NC328151  37.692  36.374   9.478
 1886POPC   PO428152  37.938  35.831   9.732
 1886POPC   GL128153  38.045  36.023   9.308
 1886POPC   GL228154  37.701  36.020   9.114
 1886POPC   C1A28155  38.110  36.159   8.863
 1886POPC   D2A28156  37.892  35.995   8.498
 1886POPC   C3A28157  37.887  36.183   8.063
 1886POPC   C4A28158  37.648  36.000   7.716
 1886POPC   C1B28159  37.479  36.247   8.759
 1886POPC   C2B28160  37.395  36.400   8.295
 1886POPC   C3B28161  37.276  36.368   7.822
 1886POPC   C4B28162  37.372  36.317   7.361
 1887POPC   NC328163  28.607  40.309   9.754
 1887POPC   PO428164  28.974  39.757   9.543
 1887POPC   GL128165  28.674  40.050   9.230
 1887POPC   GL228166  28.314  39.965   9.157
 1887POPC   C1A28167  28.605  40.103   8.763
 1887POPC   D2A28168  28.699  39.987   8.332
 1887POPC   C3A28169  28.387  40.057   8.008
 1887POPC   C4A28170  28.479  40.045   7.588
 1887POPC   C1B28171  28.141  39.885   8.743
 1887POPC   C2B28172  28.305  39.675   8.373
 1887POPC   C3B28173  28.120  39.559   7.999
 1887POPC   C4B28174  28.032  39.793   7.653
 1888POPC   NC328175  41.035  43.328   9.456
 1888POPC   PO428176  40.455  42.933   9.568
 1888POPC   GL128177  40.724  42.991   9.224
 1888POPC   GL228178  40.598  43.290   9.189
 1888POPC   C1A28179  40.985  43.048   8.827
 1888POPC   D2A28180  41.115  43.273   8.460
 1888POPC   C3A28181  41.192  43.150   8.051
 1888POPC   C4A28182  41.005  42.934   7.706
 1888POPC   C1B28183  40.461  43.203   8.806
 1888POPC   C2B28184  40.592  43.235   8.430
 1888POPC   C3B28185  40.371  43.225   8.071
 1888POPC   C4B28186  40.547  43.190   7.694
 1889POPC   NC328187  30.511  33.159   9.457
 1889POPC   PO428188  30.739  32.626   9.658
 1889POPC   GL128189  30.912  32.836   9.275
 1889POPC   GL228190  31.183  32.627   9.121
 1889POPC   C1A28191  30.863  33.086   8.889
 1889POPC   D2A28192  31.003  33.160   8.442
 1889POPC   C3A28193  30.686  33.162   8.131
 1889POPC   C4A28194  30.427  33.047   7.792
 1889POPC   C1B28195  31.052  32.673   8.683
 1889POPC   C2B28196  30.810  32.689   8.298
 1889POPC   C3B28197  30.826  32.732   7.836
 1889POPC   C4B28198  31.064  32.941   7.520
 1890POPC   NC328199   5.470  20.984   9.451
 1890POPC   PO428200   5.956  20.594   9.532
 1890POPC   GL128201   5.726  20.610   9.162
 1890POPC   GL228202   5.950  20.764   8.982
 1890POPC   C1A28203   5.595  20.386   8.781
 1890POPC   D2A28204   5.773  20.264   8.378
 1890POPC   C3A28205   5.737  20.547   8.017
 1890POPC   C4A28206   5.860  20.365   7.640
 1890POPC   C1B28207   5.918  20.738   8.534
 1890POPC   C2B28208   6.118  20.860   8.184
 1890POPC   C3B28209   6.158  20.930   7.764
 1890POPC   C4B28210   6.219  21.010   7.322
 1891POPC   NC328211   0.859  30.268   9.261
 1891POPC   PO428212   0.383  29.947   9.692
 1891POPC   GL128213   0.345  30.025   9.214
 1891POPC   GL228214   0.316  29.727   9.023
 1891POPC   C1A28215   0.447  30.177   8.782
 1891POPC   D2A28216   0.411  30.394   8.406
 1891POPC   C3A28217   0.511  30.183   8.028
 1891POPC   C4A28218   0.332  30.214   7.648
 1891POPC   C1B28219   0.630  29.698   8.695
 1891POPC   C2B28220   0.579  29.714   8.270
 1891POPC   C3B28221   0.750  29.631   7.900
 1891POPC   C4B28222   0.669  29.840   7.531
 1892POPC   NC328223  34.633  34.638   9.678
 1892POPC   PO428224  34.038  34.307   9.465
 1892POPC   GL128225  34.369  34.402   9.174
 1892POPC   GL228226  34.702  34.555   9.172
 1892POPC   C1A28227  34.384  34.543   8.762
 1892POPC   D2A28228  34.438  34.339   8.357
 1892POPC   C3A28229  34.421  34.505   7.953
 1892POPC   C4A28230  34.672  34.330   7.633
 1892POPC   C1B28231  34.827  34.789   8.789
 1892POPC   C2B28232  34.701  34.772   8.376
 1892POPC   C3B28233  34.887  34.634   8.013
 1892POPC   C4B28234  34.742  34.842   7.658
 1893POPC   NC328235   2.993  15.046   9.566
 1893POPC   PO428236   2.411  15.360   9.720
 1893POPC   GL128237   2.629  15.334   9.237
 1893POPC   GL228238   2.962  15.137   9.074
 1893POPC   C1A28239   2.598  15.186   8.755
 1893POPC   D2A28240   2.475  15.261   8.316
 1893POPC   C3A28241   2.652  15.033   7.952
 1893POPC   C4A28242   3.010  15.259   7.755
 1893POPC   C1B28243   3.099  14.934   8.681
 1893POPC   C2B28244   3.108  15.031   8.237
 1893POPC   C3B28245   3.104  14.771   7.864
 1893POPC   C4B28246   2.993  14.829   7.402
 1894POPC   NC328247   6.303  39.207   9.563
 1894POPC   PO428248   5.693  39.013   9.670
 1894POPC   GL128249   5.829  39.295   9.306
 1894POPC   GL228250   6.058  39.126   9.080
 1894POPC   C1A28251   5.881  39.543   8.883
 1894POPC   D2A28252   5.971  39.333   8.458
 1894POPC   C3A28253   5.746  39.421   8.055
 1894POPC   C4A28254   5.969  39.475   7.677
 1894POPC   C1B28255   5.852  38.918   8.741
 1894POPC   C2B28256   5.999  38.793   8.343
 1894POPC   C3B28257   5.985  38.971   7.932
 1894POPC   C4B28258   6.075  39.004   7.512
 1895POPC   NC328259   7.581   4.917   9.397
 1895POPC   PO428260   7.134   5.427   9.469
 1895POPC   GL128261   7.369   5.280   9.106
 1895POPC   GL228262   7.701   5.367   9.053
 1895POPC   C1A28263   7.314   5.039   8.679
 1895POPC   D2A28264   7.078   4.982   8.256
 1895POPC   C3A28265   7.318   4.830   7.831
 1895POPC   C4A28266   7.293   4.788   7.347
 1895POPC   C1B28267   7.455   5.575   8.721
 1895POPC   C2B28268   7.332   5.486   8.320
 1895POPC   C3B28269   7.428   5.317   7.959
 1895POPC   C4B28270   7.230   5.254   7.577
 1896POPC   NC328271  12.873  13.183   9.451
 1896POPC   PO428272  12.916  12.578   9.667
 1896POPC   GL128273  12.995  12.744   9.219
 1896POPC   GL228274  12.700  12.673   9.068
 1896POPC   C1A28275  13.124  12.767   8.745
 1896POPC   D2A28276  13.364  12.734   8.323
 1896POPC   C3A28277  13.049  12.858   7.988
 1896POPC   C4A28278  12.861  12.735   7.583
 1896POPC   C1B28279  12.525  12.300   8.855
 1896POPC   C2B28280  12.473  12.236   8.397
 1896POPC   C3B28281  12.479  12.524   8.033
 1896POPC   C4B28282  12.371  12.603   7.607
 1897POPC   NC328283   9.191  38.405   9.801
 1897POPC   PO428284   8.601  38.696   9.585
 1897POPC   GL128285   8.912  38.518   9.302
 1897POPC   GL228286   8.867  38.760   9.092
 1897POPC   C1A28287   9.074  38.347   8.875
 1897POPC   D2A28288   8.945  38.141   8.466
 1897POPC   C3A28289   9.018  38.327   8.046
 1897POPC   C4A28290   9.287  38.292   7.708
 1897POPC   C1B28291   8.977  38.841   8.664
 1897POPC   C2B28292   8.998  38.806   8.217
 1897POPC   C3B28293   8.710  38.760   7.880
 1897POPC   C4B28294   8.675  38.836   7.449
 1898POPC   NC328295  37.312  40.829   9.546
 1898POPC   PO428296  36.697  40.615   9.545
 1898POPC   GL128297  36.832  40.669   9.142
 1898POPC   GL228298  37.149  40.514   9.177
 1898POPC   C1A28299  36.765  40.737   8.687
 1898POPC   D2A28300  36.974  41.029   8.389
 1898POPC   C3A28301  36.786  41.000   7.980
 1898POPC   C4A28302  36.783  41.199   7.561
 1898POPC   C1B28303  37.238  40.778   8.837
 1898POPC   C2B28304  37.327  40.636   8.433
 1898POPC   C3B28305  37.112  40.603   8.049
 1898POPC   C4B28306  37.167  40.849   7.684
 1899POPC   NC328307  30.227   4.432   9.450
 1899POPC   PO428308  29.523   4.526   9.431
 1899POPC   GL128309  29.809   4.388   9.136
 1899POPC   GL228310  30.107   4.517   8.948
 1899POPC   C1A28311  29.689   4.256   8.766
 1899POPC   D2A28312  29.872   4.219   8.369
 1899POPC   C3A28313  29.715   3.896   8.111
 1899POPC   C4A28314  29.664   4.083   7.718
 1899POPC   C1B28315  30.192   4.082   8.780
 1899POPC   C2B28316  30.260   3.871   8.353
 1899POPC   C3B28317  30.197   4.046   7.918
 1899POPC   C4B28318  30.105   4.094   7.456
 1900POPC   NC328319  36.599  23.067   9.409
 1900POPC   PO428320  37.213  22.852   9.422
 1900POPC   GL128321  36.962  22.669   9.101
 1900POPC   GL228322  36.799  22.932   8.944
 1900POPC   C1A28323  36.816  22.501   8.670
 1900POPC   D2A28324  36.710  22.699   8.258
 1900POPC   C3A28325  36.914  22.739   7.842
 1900POPC   C4A28326  36.672  22.873   7.491
 1900POPC   C1B28327  37.129  22.909   8.613
 1900POPC   C2B28328  37.239  23.231   8.289
 1900POPC   C3B28329  37.145  23.407   7.874
 1900POPC   C4B28330  37.007  23.251   7.473
 1901POPC   NC328331  36.396  41.034   9.556
 1901POPC   PO428332  35.885  40.643   9.614
 1901POPC   GL128333  36.132  40.683   9.241
 1901POPC   GL228334  36.104  41.016   9.141
 1901POPC   C1A28335  36.250  40.606   8.801
 1901POPC   D2A28336  36.370  40.621   8.352
 1901POPC   C3A28337  36.119  40.879   8.078
 1901POPC   C4A28338  35.834  40.886   7.726
 1901POPC   C1B28339  36.423  41.104   8.838
 1901POPC   C2B28340  36.380  41.206   8.389
 1901POPC   C3B28341  36.420  41.328   7.956
 1901POPC   C4B28342  36.310  41.038   7.624
 1902POPC   NC328343  11.371  21.744   9.476
 1902POPC   PO428344  10.926  22.207   9.371
 1902POPC   GL128345  11.260  22.109   9.074
 1902POPC   GL228346  11.179  21.768   9.004
 1902POPC   C1A28347  11.244  22.083   8.593
 1902POPC   D2A28348  10.993  21.960   8.199
 1902POPC   C3A28349  11.183  22.232   7.908
 1902POPC   C4A28350  11.612  22.310   7.870
 1902POPC   C1B28351  11.585  21.759   8.846
 1902POPC   C2B28352  11.695  21.705   8.468
 1902POPC   C3B28353  11.493  21.884   8.163
 1902POPC   C4B28354  11.450  21.796   7.775
 1903POPC   NC328355   4.559  34.560   9.471
 1903POPC   PO428356   3.997  34.959   9.485
 1903POPC   GL128357   4.217  34.746   9.126
 1903POPC   GL228358   4.202  34.369   9.146
 1903POPC   C1A28359   4.463  34.611   8.748
 1903POPC   D2A28360   4.605  34.454   8.331
 1903POPC   C3A28361   4.451  34.407   7.912
 1903POPC   C4A28362   4.321  34.665   7.553
 1903POPC   C1B28363   3.964  34.484   8.768
 1903POPC   C2B28364   4.103  34.583   8.358
 1903POPC   C3B28365   3.985  34.595   7.948
 1903POPC   C4B28366   4.010  34.274   7.617
 1904POPC   NC328367  20.487   1.336   9.649
 1904POPC   PO428368  19.866   1.189   9.611
 1904POPC   GL128369  19.958   1.226   9.174
 1904POPC   GL228370  19.736   0.999   8.968
 1904POPC   C1A28371  19.943   1.426   8.767
 1904POPC   D2A28372  19.902   1.112   8.430
 1904POPC   C3A28373  20.062   1.233   8.031
 1904POPC   C4A28374  20.044   1.535   7.731
 1904POPC   C1B28375  19.450   1.247   8.671
 1904POPC   C2B28376  19.414   1.241   8.213
 1904POPC   C3B28377  19.577   1.266   7.796
 1904POPC   C4B28378  19.801   0.932   7.645
 1905POPC   NC328379   5.922  32.076   9.498
 1905POPC   PO428380   6.430  32.463   9.186
 1905POPC   GL128381   5.962  32.425   9.094
 1905POPC   GL228382   5.654  32.202   9.108
 1905POPC   C1A28383   5.649  32.540   8.748
 1905POPC   D2A28384   5.782  32.642   8.344
 1905POPC   C3A28385   5.897  32.314   8.091
 1905POPC   C4A28386   5.797  32.236   7.702
 1905POPC   C1B28387   5.868  32.070   8.736
 1905POPC   C2B28388   5.615  32.066   8.430
 1905POPC   C3B28389   5.517  31.848   8.135
 1905POPC   C4B28390   5.696  31.749   7.797
 1906POPC   NC328391  38.870   2.479   9.597
 1906POPC   PO428392  38.411   1.874   9.595
 1906POPC   GL128393  38.738   1.936   9.278
 1906POPC   GL228394  38.556   2.242   9.184
 1906POPC   C1A28395  38.694   1.927   8.793
 1906POPC   D2A28396  38.370   1.766   8.478
 1906POPC   C3A28397  38.480   1.723   8.017
 1906POPC   C4A28398  38.699   1.966   7.667
 1906POPC   C1B28399  38.184   2.041   8.938
 1906POPC   C2B28400  37.984   2.163   8.534
 1906POPC   C3B28401  38.089   2.050   8.139
 1906POPC   C4B28402  38.210   2.061   7.730
 1907POPC   NC328403   6.817  44.980   9.375
 1907POPC   PO428404   6.450   0.596   9.451
 1907POPC   GL128405   6.608   0.377   9.123
 1907POPC   GL228406   6.966   0.430   9.153
 1907POPC   C1A28407   6.466   0.249   8.723
 1907POPC   D2A28408   6.492   0.435   8.312
 1907POPC   C3A28409   6.671   0.170   7.999
 1907POPC   C4A28410   7.008   0.270   7.727
 1907POPC   C1B28411   6.870   0.597   8.737
 1907POPC   C2B28412   6.942   0.732   8.319
 1907POPC   C3B28413   6.730   0.733   7.926
 1907POPC   C4B28414   6.902   0.745   7.490
 1908POPC   NC328415  34.498  13.650   9.847
 1908POPC   PO428416  34.688  13.289   9.628
 1908POPC   GL128417  34.503  13.485   9.233
 1908POPC   GL228418  34.516  13.851   9.228
 1908POPC   C1A28419  34.423  13.491   8.751
 1908POPC   D2A28420  34.586  13.407   8.298
 1908POPC   C3A28421  34.334  13.238   7.925
 1908POPC   C4A28422  34.483  13.304   7.494
 1908POPC   C1B28423  34.486  13.999   8.779
 1908POPC   C2B28424  34.343  13.856   8.355
 1908POPC   C3B28425  34.410  13.744   7.903
 1908POPC   C4B28426  34.462  13.838   7.453
 1909POPC   NC328427  21.048  29.451   9.556
 1909POPC   PO428428  21.705  29.333   9.502
 1909POPC   GL128429  21.381  29.137   9.264
 1909POPC   GL228430  21.339  29.448   9.130
 1909POPC   C1A28431  21.342  29.049   8.818
 1909POPC   D2A28432  21.645  29.222   8.544
 1909POPC   C3A28433  21.553  29.207   8.095
 1909POPC   C4A28434  21.783  29.119   7.753
 1909POPC   C1B28435  21.196  29.557   8.738
 1909POPC   C2B28436  21.149  29.305   8.405
 1909POPC   C3B28437  21.047  29.207   7.987
 1909POPC   C4B28438  21.280  29.317   7.621
 1910POPC   NC328439  44.629   7.631   9.434
 1910POPC   PO428440  44.834   6.976   9.536
 1910POPC   GL128441  44.928   7.242   9.184
 1910POPC   GL228442  44.575   7.243   9.121
 1910POPC   C1A28443  44.906   7.490   8.766
 1910POPC   D2A28444  44.729   7.536   8.319
 1910POPC   C3A28445  44.970   7.669   7.908
 1910POPC   C4A28446  44.983   7.429   7.465
 1910POPC   C1B28447  44.314   7.274   8.764
 1910POPC   C2B28448  44.379   7.117   8.371
 1910POPC   C3B28449  44.312   7.350   8.028
 1910POPC   C4B28450  44.550   7.467   7.724
 1911POPC   NC328451  32.508  13.964   9.768
 1911POPC   PO428452  32.158  13.498   9.572
 1911POPC   GL128453  32.002  13.576   9.151
 1911POPC   GL228454  32.259  13.789   9.043
 1911POPC   C1A28455  31.921  13.578   8.702
 1911POPC   D2A28456  32.100  13.459   8.310
 1911POPC   C3A28457  32.087  13.676   7.944
 1911POPC   C4A28458  32.104  13.677   7.506
 1911POPC   C1B28459  32.414  13.737   8.605
 1911POPC   C2B28460  32.379  13.994   8.221
 1911POPC   C3B28461  32.469  13.961   7.755
 1911POPC   C4B28462  32.518  13.901   7.287
 1912POPC   NC328463  43.280  10.147   9.307
 1912POPC   PO428464  43.098  10.704   9.604
 1912POPC   GL128465  42.939  10.724   9.186
 1912POPC   GL228466  42.708  10.449   9.215
 1912POPC   C1A28467  43.153  10.719   8.778
 1912POPC   D2A28468  43.246  10.420   8.439
 1912POPC   C3A28469  43.282  10.574   8.028
 1912POPC   C4A28470  43.215  10.295   7.695
 1912POPC   C1B28471  42.850  10.279   8.814
 1912POPC   C2B28472  42.670  10.149   8.432
 1912POPC   C3B28473  42.866  10.223   8.079
 1912POPC   C4B28474  42.691  10.354   7.725
 1913POPC   NC328475   6.359  15.352   9.934
 1913POPC   PO428476   7.034  15.423   9.591
 1913POPC   GL128477   6.624  15.314   9.370
 1913POPC   GL228478   6.800  15.382   9.080
 1913POPC   C1A28479   6.403  15.055   8.997
 1913POPC   D2A28480   6.384  14.946   8.532
 1913POPC   C3A28481   6.277  15.203   8.167
 1913POPC   C4A28482   6.477  15.084   7.769
 1913POPC   C1B28483   6.811  15.203   8.656
 1913POPC   C2B28484   6.792  15.198   8.183
 1913POPC   C3B28485   6.975  15.205   7.754
 1913POPC   C4B28486   7.239  15.243   7.367
 1914POPC   NC328487  31.270   8.417   9.647
 1914POPC   PO428488  31.487   7.784   9.617
 1914POPC   GL128489  31.562   7.992   9.193
 1914POPC   GL228490  31.376   8.324   9.161
 1914POPC   C1A28491  31.448   8.034   8.732
 1914POPC   D2A28492  31.550   7.875   8.310
 1914POPC   C3A28493  31.480   8.052   7.904
 1914POPC   C4A28494  31.573   8.063   7.459
 1914POPC   C1B28495  31.117   8.437   8.807
 1914POPC   C2B28496  31.061   8.532   8.379
 1914POPC   C3B28497  31.125   8.431   7.962
 1914POPC   C4B28498  31.386   8.524   7.604
 1915POPC   NC328499   0.715   4.335   9.525
 1915POPC   PO428500   0.115   4.273   9.457
 1915POPC   GL128501   0.399   4.234   9.149
 1915POPC   GL228502   0.459   4.582   9.156
 1915POPC   C1A28503   0.424   4.301   8.744
 1915POPC   D2A28504   0.132   4.367   8.486
 1915POPC   C3A28505   0.139   4.338   8.034
 1915POPC   C4A28506   0.446   4.188   7.729
 1915POPC   C1B28507   0.731   4.706   8.820
 1915POPC   C2B28508   0.603   4.646   8.408
 1915POPC   C3B28509   0.619   4.590   8.004
 1915POPC   C4B28510   0.733   4.856   7.667
 1916POPC   NC328511  13.774  42.547   9.933
 1916POPC   PO428512  13.772  43.028   9.482
 1916POPC   GL128513  13.587  42.937   9.161
 1916POPC   GL228514  13.247  42.936   9.187
 1916POPC   C1A28515  13.739  42.884   8.771
 1916POPC   D2A28516  13.729  43.200   8.492
 1916POPC   C3A28517  13.885  43.008   8.151
 1916POPC   C4A28518  13.681  43.089   7.796
 1916POPC   C1B28519  13.337  43.225   8.830
 1916POPC   C2B28520  13.206  43.203   8.439
 1916POPC   C3B28521  13.233  43.253   8.025
 1916POPC   C4B28522  13.249  43.195   7.586
 1917POPC   NC328523  39.491  40.722   9.347
 1917POPC   PO428524  39.047  40.158   9.608
 1917POPC   GL128525  39.008  40.552   9.188
 1917POPC   GL228526  39.038  40.898   9.220
 1917POPC   C1A28527  39.209  40.587   8.727
 1917POPC   D2A28528  39.185  40.492   8.285
 1917POPC   C3A28529  39.344  40.678   7.887
 1917POPC   C4A28530  39.606  40.695   7.485
 1917POPC   C1B28531  39.149  41.085   8.786
 1917POPC   C2B28532  39.180  41.232   8.356
 1917POPC   C3B28533  39.205  41.162   7.916
 1917POPC   C4B28534  39.097  40.951   7.514
 1918POPC   NC328535  13.232   0.875   9.480
 1918POPC   PO428536  12.733   1.304   9.669
 1918POPC   GL128537  12.884   1.220   9.273
 1918POPC   GL228538  12.554   1.076   9.203
 1918POPC   C1A28539  13.096   1.431   8.925
 1918POPC   D2A28540  13.111   1.304   8.519
 1918POPC   C3A28541  13.016   1.599   8.214
 1918POPC   C4A28542  12.897   1.483   7.818
 1918POPC   C1B28543  12.754   1.044   8.801
 1918POPC   C2B28544  12.740   0.806   8.431
 1918POPC   C3B28545  12.971   1.011   8.102
 1918POPC   C4B28546  12.893   1.003   7.669
 1919POPC   NC328547  44.533  17.247   9.793
 1919POPC   PO428548  44.820  17.771   9.402
 1919POPC   GL128549  44.654  17.384   9.276
 1919POPC   GL228550  44.329  17.522   9.249
 1919POPC   C1A28551  44.672  17.254   8.843
 1919POPC   D2A28552  44.598  17.080   8.449
 1919POPC   C3A28553  44.687  17.313   8.087
 1919POPC   C4A28554  44.455  17.325   7.726
 1919POPC   C1B28555  44.430  17.723   8.853
 1919POPC   C2B28556  44.609  17.691   8.454
 1919POPC   C3B28557  44.413  17.746   8.065
 1919POPC   C4B28558  44.550  17.823   7.665
 1920POPC   NC328559  22.996  44.278   9.635
 1920POPC   PO428560  22.953  44.909   9.522
 1920POPC   GL128561  22.905  44.600   9.181
 1920POPC   GL228562  22.617  44.360   9.185
 1920POPC   C1A28563  23.056  44.693   8.745
 1920POPC   D2A28564  23.241  44.601   8.347
 1920POPC   C3A28565  23.007  44.847   8.073
 1920POPC   C4A28566  22.973   0.006   7.675
 1920POPC   C1B28567  22.560  44.560   8.798
 1920POPC   C2B28568  22.635  44.788   8.423
 1920POPC   C3B28569  22.573  44.596   8.004
 1920POPC   C4B28570  22.560  44.739   7.603
 1921POPC   NC328571   8.197   4.699   9.604
 1921POPC   PO428572   7.892   5.256   9.504
 1921POPC   GL128573   8.176   5.139   9.230
 1921POPC   GL228574   8.039   4.840   9.141
 1921POPC   C1A28575   8.180   5.318   8.833
 1921POPC   D2A28576   8.198   5.122   8.445
 1921POPC   C3A28577   8.422   5.226   8.108
 1921POPC   C4A28578   8.385   5.132   7.712
 1921POPC   C1B28579   7.818   4.933   8.779
 1921POPC   C2B28580   7.830   4.776   8.382
 1921POPC   C3B28581   7.985   4.916   7.996
 1921POPC   C4B28582   7.888   5.232   7.688
 1922POPC   NC328583  33.268  40.310   9.359
 1922POPC   PO428584  32.727  40.015   9.549
 1922POPC   GL128585  32.936  40.001   9.123
 1922POPC   GL228586  32.830  40.364   9.085
 1922POPC   C1A28587  33.191  40.086   8.705
 1922POPC   D2A28588  33.350  40.317   8.295
 1922POPC   C3A28589  33.089  40.232   7.920
 1922POPC   C4A28590  32.894  39.931   7.616
 1922POPC   C1B28591  32.695  40.267   8.676
 1922POPC   C2B28592  32.798  40.036   8.305
 1922POPC   C3B28593  32.583  40.167   7.964
 1922POPC   C4B28594  32.380  40.082   7.617
 1923POPC   NC328595   5.389   0.957   9.424
 1923POPC   PO428596   4.848   0.515   9.529
 1923POPC   GL128597   5.034   0.546   9.152
 1923POPC   GL228598   5.193   0.808   8.987
 1923POPC   C1A28599   4.872   0.449   8.764
 1923POPC   D2A28600   4.906   0.600   8.370
 1923POPC   C3A28601   5.244   0.445   8.102
 1923POPC   C4A28602   5.066   0.158   7.781
 1923POPC   C1B28603   5.362   0.593   8.683
 1923POPC   C2B28604   5.616   0.687   8.396
 1923POPC   C3B28605   5.574   0.979   8.073
 1923POPC   C4B28606   5.221   0.883   7.795
 1924POPC   NC328607   4.250   3.815   9.445
 1924POPC   PO428608   4.885   3.570   9.278
 1924POPC   GL128609   4.589   3.749   9.057
 1924POPC   GL228610   4.415   3.420   9.073
 1924POPC   C1A28611   4.518   3.668   8.636
 1924POPC   D2A28612   4.419   3.399   8.302
 1924POPC   C3A28613   4.399   3.675   7.977
 1924POPC   C4A28614   4.712   3.636   7.706
 1924POPC   C1B28615   4.148   3.302   8.726
 1924POPC   C2B28616   3.906   3.270   8.339
 1924POPC   C3B28617   3.941   3.413   7.898
 1924POPC   C4B28618   3.829   3.180   7.520
 1925POPC   NC328619  28.675  32.140   9.566
 1925POPC   PO428620  29.298  32.370   9.561
 1925POPC   GL128621  29.303  32.242   9.129
 1925POPC   GL228622  29.392  31.940   9.184
 1925POPC   C1A28623  29.065  32.079   8.764
 1925POPC   D2A28624  28.868  32.150   8.338
 1925POPC   C3A28625  29.098  32.241   7.932
 1925POPC   C4A28626  28.883  32.195   7.504
 1925POPC   C1B28627  29.606  31.959   8.796
 1925POPC   C2B28628  29.456  32.132   8.384
 1925POPC   C3B28629  29.593  32.083   7.962
 1925POPC   C4B28630  29.494  32.255   7.570
 1926POPC   NC328631  29.837  18.891  10.046
 1926POPC   PO428632  29.753  19.364   9.572
 1926POPC   GL128633  29.919  19.207   9.164
 1926POPC   GL228634  29.918  18.807   9.074
 1926POPC   C1A28635  29.886  19.218   8.719
 1926POPC   D2A28636  29.656  19.059   8.354
 1926POPC   C3A28637  29.778  19.288   7.988
 1926POPC   C4A28638  30.187  19.319   7.797
 1926POPC   C1B28639  30.164  18.810   8.677
 1926POPC   C2B28640  30.167  18.993   8.250
 1926POPC   C3B28641  30.062  18.822   7.850
 1926POPC   C4B28642  30.185  18.805   7.372
 1927POPC   NC328643  42.129  21.090   9.447
 1927POPC   PO428644  42.572  20.516   9.482
 1927POPC   GL128645  42.421  20.735   9.138
 1927POPC   GL228646  42.608  21.063   9.187
 1927POPC   C1A28647  42.303  20.565   8.709
 1927POPC   D2A28648  42.421  20.581   8.251
 1927POPC   C3A28649  42.099  20.507   7.925
 1927POPC   C4A28650  42.297  20.209   7.709
 1927POPC   C1B28651  42.380  21.117   8.790
 1927POPC   C2B28652  42.124  20.957   8.427
 1927POPC   C3B28653  42.219  21.003   8.014
 1927POPC   C4B28654  42.300  21.327   7.732
 1928POPC   NC328655  39.878  26.761   9.770
 1928POPC   PO428656  40.297  27.254   9.445
 1928POPC   GL128657  40.057  26.877   9.290
 1928POPC   GL228658  40.036  27.065   9.036
 1928POPC   C1A28659  39.974  26.607   8.850
 1928POPC   D2A28660  40.299  26.594   8.492
 1928POPC   C3A28661  40.152  26.547   8.042
 1928POPC   C4A28662  39.886  26.614   7.632
 1928POPC   C1B28663  40.095  27.041   8.651
 1928POPC   C2B28664  39.843  26.844   8.393
 1928POPC   C3B28665  39.870  26.977   8.003
 1928POPC   C4B28666  39.799  27.150   7.632
 1929POPC   NC328667  40.479  42.507   9.734
 1929POPC   PO428668  40.945  42.064   9.496
 1929POPC   GL128669  40.881  42.365   9.186
 1929POPC   GL228670  40.560  42.506   9.233
 1929POPC   C1A28671  41.077  42.468   8.799
 1929POPC   D2A28672  40.933  42.219   8.484
 1929POPC   C3A28673  40.972  42.408   8.098
 1929POPC   C4A28674  41.093  42.342   7.704
 1929POPC   C1B28675  40.616  42.695   8.829
 1929POPC   C2B28676  40.780  42.758   8.438
 1929POPC   C3B28677  40.621  42.792   8.030
 1929POPC   C4B28678  40.651  42.584   7.651
 1930POPC   NC328679  34.172  34.829   9.418
 1930POPC   PO428680  33.430  34.957   9.481
 1930POPC   GL128681  33.701  34.789   9.193
 1930POPC   GL228682  33.630  34.441   9.180
 1930POPC   C1A28683  33.936  34.805   8.782
 1930POPC   D2A28684  34.158  34.754   8.375
 1930POPC   C3A28685  33.974  34.464   8.165
 1930POPC   C4A28686  33.947  34.404   7.763
 1930POPC   C1B28687  33.478  34.567   8.795
 1930POPC   C2B28688  33.536  34.435   8.394
 1930POPC   C3B28689  33.543  34.653   7.989
 1930POPC   C4B28690  33.482  34.488   7.572
 1931POPC   NC328691   5.417   8.720   9.579
 1931POPC   PO428692   6.082   8.987   9.494
 1931POPC   GL128693   5.825   9.103   9.155
 1931POPC   GL228694   5.676   8.808   9.162
 1931POPC   C1A28695   5.846   9.084   8.703
 1931POPC   D2A28696   5.804   9.190   8.256
 1931POPC   C3A28697   6.142   9.180   7.943
 1931POPC   C4A28698   6.151   9.033   7.508
 1931POPC   C1B28699   5.565   8.576   8.834
 1931POPC   C2B28700   5.561   8.672   8.411
 1931POPC   C3B28701   5.571   8.587   7.978
 1931POPC   C4B28702   6.023   8.650   7.859
 1932POPC   NC328703  35.033  39.778   9.635
 1932POPC   PO428704  35.513  40.169   9.665
 1932POPC   GL128705  35.418  40.201   9.196
 1932POPC   GL228706  35.541  39.885   9.092
 1932POPC   C1A28707  35.256  40.169   8.740
 1932POPC   D2A28708  35.136  40.070   8.284
 1932POPC   C3A28709  35.356  40.056   7.873
 1932POPC   C4A28710  35.295  39.656   7.700
 1932POPC   C1B28711  35.674  39.861   8.662
 1932POPC   C2B28712  35.540  39.743   8.258
 1932POPC   C3B28713  35.759  39.719   7.877
 1932POPC   C4B28714  35.718  39.793   7.438
 1933POPC   NC328715  23.724   6.044   9.454
 1933POPC   PO428716  24.050   5.549   9.626
 1933POPC   GL128717  23.865   5.588   9.239
 1933POPC   GL228718  23.515   5.616   9.241
 1933POPC   C1A28719  23.985   5.803   8.867
 1933POPC   D2A28720  23.864   5.792   8.443
 1933POPC   C3A28721  23.997   6.029   8.094
 1933POPC   C4A28722  23.852   5.960   7.667
 1933POPC   C1B28723  23.463   5.814   8.823
 1933POPC   C2B28724  23.366   5.725   8.388
 1933POPC   C3B28725  23.464   5.912   7.997
 1933POPC   C4B28726  23.396   5.745   7.579
 1934POPC   NC328727  13.688  41.904   9.646
 1934POPC   PO428728  13.431  41.305   9.534
 1934POPC   GL128729  13.569  41.571   9.225
 1934POPC   GL228730  13.579  41.260   9.041
 1934POPC   C1A28731  13.644  41.710   8.798
 1934POPC   D2A28732  13.542  41.602   8.376
 1934POPC   C3A28733  13.807  41.662   8.005
 1934POPC   C4A28734  13.734  41.581   7.571
 1934POPC   C1B28735  13.278  40.978   8.839
 1934POPC   C2B28736  13.160  40.967   8.429
 1934POPC   C3B28737  13.156  41.242   8.068
 1934POPC   C4B28738  13.350  41.276   7.671
 1935POPC   NC328739   2.329   5.720   9.621
 1935POPC   PO428740   1.716   5.984   9.503
 1935POPC   GL128741   2.063   6.039   9.224
 1935POPC   GL228742   2.096   5.711   9.137
 1935POPC   C1A28743   1.998   6.103   8.781
 1935POPC   D2A28744   1.799   6.258   8.411
 1935POPC   C3A28745   1.946   6.085   8.014
 1935POPC   C4A28746   2.267   6.196   7.822
 1935POPC   C1B28747   1.732   5.680   8.810
 1935POPC   C2B28748   1.930   5.749   8.375
 1935POPC   C3B28749   2.068   5.569   7.936
 1935POPC   C4B28750   2.271   5.422   7.468
 1936POPC   NC328751  22.717  24.162   9.543
 1936POPC   PO428752  23.055  24.680   9.650
 1936POPC   GL128753  22.999  24.680   9.217
 1936POPC   GL228754  23.272  24.509   9.069
 1936POPC   C1A28755  22.824  24.790   8.787
 1936POPC   D2A28756  22.712  24.616   8.392
 1936POPC   C3A28757  23.034  24.436   8.116
 1936POPC   C4A28758  22.949  24.314   7.682
 1936POPC   C1B28759  23.296  24.939   8.903
 1936POPC   C2B28760  23.292  24.962   8.467
 1936POPC   C3B28761  22.986  24.976   8.146
 1936POPC   C4B28762  23.183  24.754   7.749
 1937POPC   NC328763  12.022   5.820   9.734
 1937POPC   PO428764  11.545   5.602   9.299
 1937POPC   GL128765  11.866   5.934   9.218
 1937POPC   GL228766  12.197   5.780   9.220
 1937POPC   C1A28767  12.061   6.095   8.835
 1937POPC   D2A28768  12.191   5.900   8.459
 1937POPC   C3A28769  11.993   5.929   8.058
 1937POPC   C4A28770  12.177   6.195   7.743
 1937POPC   C1B28771  12.472   5.727   8.856
 1937POPC   C2B28772  12.574   5.594   8.414
 1937POPC   C3B28773  12.471   5.744   7.995
 1937POPC   C4B28774  12.157   5.630   7.672
 1938POPC   NC328775  41.648   2.484   9.374
 1938POPC   PO428776  41.313   3.104   9.357
 1938POPC   GL128777  41.632   2.918   9.040
 1938POPC   GL228778  41.868   2.611   8.948
 1938POPC   C1A28779  41.763   2.966   8.605
 1938POPC   D2A28780  41.861   3.028   8.170
 1938POPC   C3A28781  41.469   3.026   8.007
 1938POPC   C4A28782  41.432   2.653   7.798
 1938POPC   C1B28783  41.783   2.235   8.715
 1938POPC   C2B28784  41.952   2.113   8.327
 1938POPC   C3B28785  41.844   2.382   7.944
 1938POPC   C4B28786  41.788   2.513   7.457
 1939POPC   NC328787   2.077  21.697   9.393
 1939POPC   PO428788   2.112  22.361   9.433
 1939POPC   GL128789   2.007  22.121   9.107
 1939POPC   GL228790   1.810  22.378   8.952
 1939POPC   C1A28791   1.990  21.916   8.712
 1939POPC   D2A28792   1.973  22.176   8.351
 1939POPC   C3A28793   2.002  21.958   8.006
 1939POPC   C4A28794   1.969  21.803   7.626
 1939POPC   C1B28795   2.244  22.382   8.744
 1939POPC   C2B28796   2.472  22.310   8.376
 1939POPC   C3B28797   2.286  22.489   8.016
 1939POPC   C4B28798   2.286  22.241   7.674
 1940POPC   NC328799   4.905  14.749   9.568
 1940POPC   PO428800   4.970  15.420   9.561
 1940POPC   GL128801   5.076  15.140   9.232
 1940POPC   GL228802   4.862  14.897   9.099
 1940POPC   C1A28803   5.187  15.125   8.791
 1940POPC   D2A28804   5.032  14.940   8.417
 1940POPC   C3A28805   5.220  15.082   8.056
 1940POPC   C4A28806   5.474  15.307   7.775
 1940POPC   C1B28807   4.654  15.175   8.843
 1940POPC   C2B28808   4.689  15.302   8.430
 1940POPC   C3B28809   4.649  15.072   8.049
 1940POPC   C4B28810   4.875  14.968   7.700
 1941POPC   NC328811  15.720  24.021   9.476
 1941POPC   PO428812  16.085  23.441   9.553
 1941POPC   GL128813  16.010  23.644   9.189
 1941POPC   GL228814  15.638  23.601   9.180
 1941POPC   C1A28815  16.032  23.853   8.765
 1941POPC   D2A28816  15.734  23.815   8.404
 1941POPC   C3A28817  15.948  24.006   8.063
 1941POPC   C4A28818  16.281  23.849   7.809
 1941POPC   C1B28819  15.779  23.427   8.802
 1941POPC   C2B28820  16.018  23.370   8.457
 1941POPC   C3B28821  15.935  23.476   8.046
 1941POPC   C4B28822  16.204  23.345   7.739
 1942POPC   NC328823  39.061  41.562   9.678
 1942POPC   PO428824  39.480  41.057   9.679
 1942POPC   GL128825  39.196  41.383   9.241
 1942POPC   GL228826  39.348  41.711   9.151
 1942POPC   C1A28827  39.017  41.576   8.780
 1942POPC   D2A28828  39.165  41.730   8.337
 1942POPC   C3A28829  39.160  41.731   7.836
 1942POPC   C4A28830  39.301  41.455   7.514
 1942POPC   C1B28831  39.531  41.635   8.729
 1942POPC   C2B28832  39.680  41.377   8.420
 1942POPC   C3B28833  39.580  41.500   8.020
 1942POPC   C4B28834  39.704  41.787   7.708
 1943POPC   NC328835  31.451   4.072   9.458
 1943POPC   PO428836  31.396   4.720   9.251
 1943POPC   GL128837  31.466   4.385   9.047
 1943POPC   GL228838  31.135   4.295   9.106
 1943POPC   C1A28839  31.563   4.179   8.688
 1943POPC   D2A28840  31.699   4.118   8.281
 1943POPC   C3A28841  31.724   4.499   8.073
 1943POPC   C4A28842  31.413   4.551   7.795
 1943POPC   C1B28843  31.068   4.294   8.683
 1943POPC   C2B28844  31.223   4.359   8.286
 1943POPC   C3B28845  31.279   4.077   7.963
 1943POPC   C4B28846  31.117   4.193   7.585
 1944POPC   NC328847  10.408   6.829   9.432
 1944POPC   PO428848  11.051   6.766   9.601
 1944POPC   GL128849  10.818   6.518   9.244
 1944POPC   GL228850  10.451   6.420   9.165
 1944POPC   C1A28851  10.716   6.722   8.838
 1944POPC   D2A28852  10.568   6.795   8.428
 1944POPC   C3A28853  10.851   6.856   8.088
 1944POPC   C4A28854  10.564   6.740   7.791
 1944POPC   C1B28855  10.296   6.471   8.768
 1944POPC   C2B28856  10.428   6.235   8.446
 1944POPC   C3B28857  10.446   6.319   8.049
 1944POPC   C4B28858  10.158   6.166   7.780
 1945POPC   NC328859  36.731  32.358   9.978
 1945POPC   PO428860  36.193  32.305   9.532
 1945POPC   GL128861  36.119  32.209   9.106
 1945POPC   GL228862  36.476  32.154   9.117
 1945POPC   C1A28863  35.855  32.285   8.749
 1945POPC   D2A28864  35.782  32.629   8.436
 1945POPC   C3A28865  35.801  32.474   8.020
 1945POPC   C4A28866  35.897  32.558   7.583
 1945POPC   C1B28867  36.378  32.443   8.749
 1945POPC   C2B28868  36.191  32.315   8.349
 1945POPC   C3B28869  36.277  32.335   7.908
 1945POPC   C4B28870  36.258  32.088   7.530
 1946POPC   NC328871  33.393   4.443   9.502
 1946POPC   PO428872  32.808   4.009   9.433
 1946POPC   GL128873  33.003   4.276   9.087
 1946POPC   GL228874  33.360   4.315   9.032
 1946POPC   C1A28875  33.058   4.263   8.622
 1946POPC   D2A28876  32.863   4.035   8.307
 1946POPC   C3A28877  33.053   3.947   7.929
 1946POPC   C4A28878  32.855   4.116   7.573
 1946POPC   C1B28879  33.276   4.678   8.802
 1946POPC   C2B28880  33.157   4.737   8.396
 1946POPC   C3B28881  33.142   4.442   8.050
 1946POPC   C4B28882  33.378   4.259   7.687
 1947POPC   NC328883  30.001  13.901   9.443
 1947POPC   PO428884  29.734  13.281   9.367
 1947POPC   GL128885  29.785  13.597   9.069
 1947POPC   GL228886  30.107  13.605   9.054
 1947POPC   C1A28887  29.960  13.735   8.612
 1947POPC   D2A28888  30.098  13.495   8.327
 1947POPC   C3A28889  30.096  13.668   7.982
 1947POPC   C4A28890  29.900  13.580   7.636
 1947POPC   C1B28891  30.185  13.270   8.775
 1947POPC   C2B28892  30.413  13.108   8.431
 1947POPC   C3B28893  30.384  13.237   7.999
 1947POPC   C4B28894  30.162  13.123   7.627
 1948POPC   NC328895  19.876  44.798   9.461
 1948POPC   PO428896  19.385  44.286   9.298
 1948POPC   GL128897  19.731  44.488   9.039
 1948POPC   GL228898  19.794  44.891   8.977
 1948POPC   C1A28899  19.811  44.320   8.625
 1948POPC   D2A28900  20.123  44.151   8.342
 1948POPC   C3A28901  20.137  44.463   8.031
 1948POPC   C4A28902  19.777  44.570   7.748
 1948POPC   C1B28903  20.044  44.822   8.620
 1948POPC   C2B28904  20.097  44.997   8.200
 1948POPC   C3B28905  20.138  44.899   7.759
 1948POPC   C4B28906  20.236  44.906   7.292
 1949POPC   NC328907  34.279  21.271   9.578
 1949POPC   PO428908  34.794  21.040   9.374
 1949POPC   GL128909  34.542  21.306   9.093
 1949POPC   GL228910  34.224  21.181   8.975
 1949POPC   C1A28911  34.562  21.385   8.630
 1949POPC   D2A28912  34.784  21.146   8.279
 1949POPC   C3A28913  34.762  21.182   7.799
 1949POPC   C4A28914  34.841  21.077   7.322
 1949POPC   C1B28915  34.090  21.136   8.526
 1949POPC   C2B28916  34.291  21.156   8.092
 1949POPC   C3B28917  34.342  20.919   7.684
 1949POPC   C4B28918  34.493  20.704   7.311
 1950POPC   NC328919   9.865   4.507   9.475
 1950POPC   PO428920   9.872   5.204   9.682
 1950POPC   GL128921   9.775   5.005   9.259
 1950POPC   GL228922  10.069   4.855   9.140
 1950POPC   C1A28923   9.646   5.193   8.848
 1950POPC   D2A28924   9.852   5.285   8.414
 1950POPC   C3A28925   9.805   5.123   8.015
 1950POPC   C4A28926   9.722   5.184   7.614
 1950POPC   C1B28927   9.977   4.843   8.728
 1950POPC   C2B28928   9.729   4.788   8.385
 1950POPC   C3B28929   9.931   4.595   8.042
 1950POPC   C4B28930  10.032   4.773   7.681
 1951POPC   NC328931   6.033  33.995   9.489
 1951POPC   PO428932   6.092  33.404   9.214
 1951POPC   GL128933   5.841  33.758   9.040
 1951POPC   GL228934   5.851  34.144   9.063
 1951POPC   C1A28935   5.775  33.927   8.622
 1951POPC   D2A28936   6.045  33.963   8.294
 1951POPC   C3A28937   5.997  33.748   7.906
 1951POPC   C4A28938   5.698  33.790   7.564
 1951POPC   C1B28939   6.101  34.323   8.719
 1951POPC   C2B28940   6.396  34.319   8.403
 1951POPC   C3B28941   6.221  34.369   8.017
 1951POPC   C4B28942   6.179  34.132   7.641
 1952POPC   NC328943  16.117  20.842   9.623
 1952POPC   PO428944  15.674  20.377   9.498
 1952POPC   GL128945  15.912  20.618   9.190
 1952POPC   GL228946  16.236  20.603   9.185
 1952POPC   C1A28947  15.890  20.802   8.792
 1952POPC   D2A28948  16.122  20.830   8.406
 1952POPC   C3A28949  15.933  20.608   8.032
 1952POPC   C4A28950  15.735  20.690   7.684
 1952POPC   C1B28951  16.300  20.488   8.795
 1952POPC   C2B28952  16.117  20.322   8.407
 1952POPC   C3B28953  16.191  20.159   7.965
 1952POPC   C4B28954  16.144  20.411   7.574
 1953POPC   NC328955  17.227   1.435   9.701
 1953POPC   PO428956  17.421   0.781   9.585
 1953POPC   GL128957  17.508   1.161   9.236
 1953POPC   GL228958  17.819   1.361   9.230
 1953POPC   C1A28959  17.579   1.407   8.798
 1953POPC   D2A28960  17.573   1.327   8.357
 1953POPC   C3A28961  17.497   1.592   8.004
 1953POPC   C4A28962  17.341   1.396   7.634
 1953POPC   C1B28963  17.945   1.063   8.939
 1953POPC   C2B28964  17.926   0.993   8.536
 1953POPC   C3B28965  17.909   1.014   8.096
 1953POPC   C4B28966  17.964   1.126   7.678
 1954POPC   NC328967  33.095   2.228   9.478
 1954POPC   PO428968  33.122   1.549   9.409
 1954POPC   GL128969  33.221   1.833   9.161
 1954POPC   GL228970  32.894   1.890   9.117
 1954POPC   C1A28971  33.376   1.837   8.749
 1954POPC   D2A28972  33.277   1.618   8.359
 1954POPC   C3A28973  33.101   1.853   8.030
 1954POPC   C4A28974  33.193   2.100   7.664
 1954POPC   C1B28975  32.748   2.145   8.824
 1954POPC   C2B28976  32.730   2.000   8.409
 1954POPC   C3B28977  32.772   2.242   8.052
 1954POPC   C4B28978  32.570   2.193   7.693
 1955POPC   NC328979  12.436  44.073   9.544
 1955POPC   PO428980  11.732  44.225   9.490
 1955POPC   GL128981  11.946  43.950   9.145
 1955POPC   GL228982  12.313  43.929   9.087
 1955POPC   C1A28983  11.986  43.833   8.703
 1955POPC   D2A28984  12.112  44.026   8.310
 1955POPC   C3A28985  11.962  43.818   7.953
 1955POPC   C4A28986  11.567  43.628   7.905
 1955POPC   C1B28987  12.381  43.557   8.896
 1955POPC   C2B28988  12.386  43.582   8.472
 1955POPC   C3B28989  12.560  43.842   8.163
 1955POPC   C4B28990  12.421  43.702   7.789
 1956POPC   NC328991  26.154  24.732   9.680
 1956POPC   PO428992  26.331  24.159   9.729
 1956POPC   GL128993  26.337  24.428   9.309
 1956POPC   GL228994  25.982  24.540   9.214
 1956POPC   C1A28995  26.434  24.586   8.855
 1956POPC   D2A28996  26.360  24.830   8.442
 1956POPC   C3A28997  26.369  24.710   8.002
 1956POPC   C4A28998  26.285  24.692   7.535
 1956POPC   C1B28999  25.914  24.637   8.757
 1956POPC   C2B29000  25.930  24.585   8.287
 1956POPC   C3B29001  26.007  24.346   7.893
 1956POPC   C4B29002  25.687  24.120   7.629
 1957POPC   NC329003  35.446  42.333   9.621
 1957POPC   PO429004  34.806  42.653   9.494
 1957POPC   GL129005  35.113  42.402   9.192
 1957POPC   GL229006  35.419  42.175   9.155
 1957POPC   C1A29007  35.309  42.495   8.789
 1957POPC   D2A29008  35.646  42.545   8.495
 1957POPC   C3A29009  35.477  42.502   8.096
 1957POPC   C4A29010  35.682  42.670   7.765
 1957POPC   C1B29011  35.188  42.002   8.835
 1957POPC   C2B29012  35.387  42.091   8.443
 1957POPC   C3B29013  35.521  41.806   8.129
 1957POPC   C4B29014  35.265  42.063   7.867
 1958POPC   NC329015  12.528   4.980   9.610
 1958POPC   PO429016  13.140   5.287   9.613
 1958POPC   GL129017  12.817   5.289   9.267
 1958POPC   GL229018  12.740   4.958   9.163
 1958POPC   C1A29019  12.764   5.309   8.799
 1958POPC   D2A29020  13.052   5.431   8.447
 1958POPC   C3A29021  12.849   5.345   8.062
 1958POPC   C4A29022  12.453   5.150   8.027
 1958POPC   C1B29023  12.883   4.797   8.814
 1958POPC   C2B29024  12.764   4.847   8.406
 1958POPC   C3B29025  12.927   4.847   8.006
 1958POPC   C4B29026  12.788   4.953   7.630
 1959POPC   NC329027   5.470  31.362   9.338
 1959POPC   PO429028   4.825  31.342   9.501
 1959POPC   GL129029   4.950  31.467   9.137
 1959POPC   GL229030   5.162  31.761   9.179
 1959POPC   C1A29031   5.168  31.382   8.748
 1959POPC   D2A29032   5.123  31.061   8.434
 1959POPC   C3A29033   4.979  31.358   8.146
 1959POPC   C4A29034   5.215  31.556   7.861
 1959POPC   C1B29035   4.883  31.821   8.798
 1959POPC   C2B29036   5.030  31.800   8.386
 1959POPC   C3B29037   4.816  31.841   7.994
 1959POPC   C4B29038   4.874  31.777   7.530
 1960POPC   NC329039  35.907  36.165   9.484
 1960POPC   PO429040  36.474  35.771   9.457
 1960POPC   GL129041  36.148  35.855   9.139
 1960POPC   GL229042  36.174  36.159   9.016
 1960POPC   C1A29043  35.802  35.948   8.773
 1960POPC   D2A29044  35.823  36.251   8.373
 1960POPC   C3A29045  36.083  36.148   7.993
 1960POPC   C4A29046  36.017  35.996   7.563
 1960POPC   C1B29047  36.468  36.384   8.749
 1960POPC   C2B29048  36.355  36.392   8.343
 1960POPC   C3B29049  36.483  36.522   7.947
 1960POPC   C4B29050  36.450  36.470   7.515
 1961POPC   NC329051  21.600  41.901   9.742
 1961POPC   PO429052  21.197  41.981   9.169
 1961POPC   GL129053  21.289  41.568   9.073
 1961POPC   GL229054  21.081  41.316   9.254
 1961POPC   C1A29055  21.552  41.446   8.722
 1961POPC   D2A29056  21.586  41.574   8.298
 1961POPC   C3A29057  21.448  41.676   7.907
 1961POPC   C4A29058  21.793  41.683   7.631
 1961POPC   C1B29059  21.151  41.154   8.828
 1961POPC   C2B29060  21.328  41.080   8.451
 1961POPC   C3B29061  21.338  41.177   8.072
 1961POPC   C4B29062  21.203  40.932   7.736
 1962POPC   NC329063   0.058  26.738   9.680
 1962POPC   PO429064  44.501  27.104   9.569
 1962POPC   GL129065  44.701  26.789   9.292
 1962POPC   GL229066  44.441  26.586   9.130
 1962POPC   C1A29067  44.884  26.650   8.879
 1962POPC   D2A29068  44.601  26.718   8.514
 1962POPC   C3A29069  44.742  26.823   8.104
 1962POPC   C4A29070  44.575  26.931   7.683
 1962POPC   C1B29071  44.203  26.941   8.911
 1962POPC   C2B29072  44.277  27.112   8.500
 1962POPC   C3B29073  44.252  26.978   8.095
 1962POPC   C4B29074  44.107  27.230   7.754
 1963POPC   NC329075  38.654  41.945   9.433
 1963POPC   PO429076  38.599  42.598   9.447
 1963POPC   GL129077  38.401  42.422   9.115
 1963POPC   GL229078  38.517  42.104   8.978
 1963POPC   C1A29079  38.296  42.466   8.687
 1963POPC   D2A29080  38.343  42.132   8.376
 1963POPC   C3A29081  38.395  42.308   7.971
 1963POPC   C4A29082  38.526  42.719   7.849
 1963POPC   C1B29083  38.811  42.390   8.777
 1963POPC   C2B29084  38.925  42.366   8.355
 1963POPC   C3B29085  38.788  41.995   8.127
 1963POPC   C4B29086  38.640  41.900   7.740
 1964POPC   NC329087  24.520  24.038   9.406
 1964POPC   PO429088  24.966  23.509   9.306
 1964POPC   GL129089  24.606  23.680   9.055
 1964POPC   GL229090  24.310  23.571   9.265
 1964POPC   C1A29091  24.484  23.878   8.639
 1964POPC   D2A29092  24.600  23.859   8.201
 1964POPC   C3A29093  24.402  23.830   7.794
 1964POPC   C4A29094  24.819  23.649   7.725
 1964POPC   C1B29095  24.215  23.442   8.845
 1964POPC   C2B29096  24.398  23.418   8.460
 1964POPC   C3B29097  24.467  23.389   8.040
 1964POPC   C4B29098  24.452  23.310   7.618
 1965POPC   NC329099   2.774  41.160   9.287
 1965POPC   PO429100   2.607  40.586   9.604
 1965POPC   GL129101   2.622  40.683   9.174
 1965POPC   GL229102   2.373  40.904   9.105
 1965POPC   C1A29103   2.868  40.807   8.757
 1965POPC   D2A29104   3.173  40.732   8.385
 1965POPC   C3A29105   3.130  40.782   7.938
 1965POPC   C4A29106   2.911  40.736   7.566
 1965POPC   C1B29107   2.332  40.714   8.742
 1965POPC   C2B29108   2.454  40.918   8.411
 1965POPC   C3B29109   2.637  40.866   8.028
 1965POPC   C4B29110   2.745  41.183   7.745
 1966POPC   NC329111   7.878  43.409   9.457
 1966POPC   PO429112   8.351  42.938   9.605
 1966POPC   GL129113   8.099  42.965   9.241
 1966POPC   GL229114   8.303  43.258   9.190
 1966POPC   C1A29115   7.935  43.088   8.814
 1966POPC   D2A29116   8.119  43.094   8.401
 1966POPC   C3A29117   7.936  43.024   7.997
 1966POPC   C4A29118   8.159  43.084   7.589
 1966POPC   C1B29119   8.452  43.006   8.844
 1966POPC   C2B29120   8.581  42.894   8.429
 1966POPC   C3B29121   8.480  42.986   8.005
 1966POPC   C4B29122   8.619  42.819   7.615
 1967POPC   NC329123   1.525  30.987   9.459
 1967POPC   PO429124   1.989  30.536   9.636
 1967POPC   GL129125   2.045  30.710   9.231
 1967POPC   GL229126   1.714  30.660   9.120
 1967POPC   C1A29127   2.027  30.959   8.825
 1967POPC   D2A29128   1.866  30.864   8.415
 1967POPC   C3A29129   2.098  30.738   8.042
 1967POPC   C4A29130   2.294  30.641   7.671
 1967POPC   C1B29131   1.907  30.459   8.798
 1967POPC   C2B29132   1.947  30.355   8.410
 1967POPC   C3B29133   1.681  30.459   8.094
 1967POPC   C4B29134   1.796  30.467   7.671
 1968POPC   NC329135   1.538  21.129   9.522
 1968POPC   PO429136   2.246  21.250   9.443
 1968POPC   GL129137   2.088  21.291   9.059
 1968POPC   GL229138   1.754  21.354   9.114
 1968POPC   C1A29139   2.122  21.361   8.631
 1968POPC   D2A29140   2.278  21.675   8.343
 1968POPC   C3A29141   2.172  21.461   7.966
 1968POPC   C4A29142   2.204  21.034   7.773
 1968POPC   C1B29143   1.639  21.494   8.727
 1968POPC   C2B29144   1.783  21.556   8.304
 1968POPC   C3B29145   1.616  21.587   7.915
 1968POPC   C4B29146   1.800  21.322   7.664
 1969POPC   NC329147  22.946  29.396   9.292
 1969POPC   PO429148  23.049  28.709   9.521
 1969POPC   GL129149  22.928  28.904   9.157
 1969POPC   GL229150  23.288  29.049   9.202
 1969POPC   C1A29151  22.562  28.860   8.831
 1969POPC   D2A29152  22.530  28.991   8.397
 1969POPC   C3A29153  22.666  28.810   8.051
 1969POPC   C4A29154  22.955  29.088   7.839
 1969POPC   C1B29155  23.201  29.139   8.758
 1969POPC   C2B29156  23.036  29.394   8.427
 1969POPC   C3B29157  23.217  29.483   8.043
 1969POPC   C4B29158  23.296  29.763   7.754
 1970POPC   NC329159  17.430  25.778   9.727
 1970POPC   PO429160  17.815  26.068   9.281
 1970POPC   GL129161  17.495  26.227   9.041
 1970POPC   GL229162  17.369  26.506   9.068
 1970POPC   C1A29163  17.335  26.059   8.664
 1970POPC   D2A29164  17.223  25.978   8.251
 1970POPC   C3A29165  17.530  25.961   7.904
 1970POPC   C4A29166  17.397  25.782   7.519
 1970POPC   C1B29167  17.527  26.546   8.662
 1970POPC   C2B29168  17.690  26.248   8.360
 1970POPC   C3B29169  17.431  26.436   8.088
 1970POPC   C4B29170  17.493  26.456   7.688
 1971POPC   NC329171  34.112  32.111   9.573
 1971POPC   PO429172  33.582  32.525   9.704
 1971POPC   GL129173  33.806  32.447   9.287
 1971POPC   GL229174  33.876  32.091   9.135
 1971POPC   C1A29175  33.852  32.527   8.826
 1971POPC   D2A29176  33.574  32.419   8.460
 1971POPC   C3A29177  33.617  32.376   8.007
 1971POPC   C4A29178  33.323  32.529   7.665
 1971POPC   C1B29179  33.867  32.034   8.681
 1971POPC   C2B29180  34.024  32.206   8.294
 1971POPC   C3B29181  33.994  32.028   7.898
 1971POPC   C4B29182  33.742  31.810   7.569
 1972POPC   NC329183  38.911  31.551   9.502
 1972POPC   PO429184  39.499  31.402   9.758
 1972POPC   GL129185  39.357  31.341   9.337
 1972POPC   GL229186  39.391  31.654   9.199
 1972POPC   C1A29187  39.223  31.291   8.893
 1972POPC   D2A29188  39.422  31.240   8.551
 1972POPC   C3A29189  39.329  31.327   8.152
 1972POPC   C4A29190  39.242  31.098   7.793
 1972POPC   C1B29191  39.606  31.643   8.799
 1972POPC   C2B29192  39.469  31.780   8.408
 1972POPC   C3B29193  39.148  31.802   8.123
 1972POPC   C4B29194  39.223  31.623   7.736
 1973POPC   NC329195  11.737  43.727   9.557
 1973POPC   PO429196  11.080  43.982   9.573
 1973POPC   GL129197  11.083  44.010   9.132
 1973POPC   GL229198  11.425  43.923   9.170
 1973POPC   C1A29199  10.960  43.822   8.733
 1973POPC   D2A29200  11.167  43.638   8.379
 1973POPC   C3A29201  11.135  43.881   8.028
 1973POPC   C4A29202  10.774  43.927   7.787
 1973POPC   C1B29203  11.486  43.726   8.773
 1973POPC   C2B29204  11.615  43.883   8.354
 1973POPC   C3B29205  11.577  44.153   7.986
 1973POPC   C4B29206  11.645  44.014   7.553
 1974POPC   NC329207  28.735  29.606   9.562
 1974POPC   PO429208  28.164  30.029   9.559
 1974POPC   GL129209  28.474  29.937   9.239
 1974POPC   GL229210  28.344  29.615   9.200
 1974POPC   C1A29211  28.660  30.148   8.864
 1974POPC   D2A29212  28.626  30.281   8.407
 1974POPC   C3A29213  28.438  30.004   8.115
 1974POPC   C4A29214  28.599  29.832   7.729
 1974POPC   C1B29215  28.203  29.483   8.781
 1974POPC   C2B29216  28.369  29.521   8.352
 1974POPC   C3B29217  28.229  29.535   7.935
 1974POPC   C4B29218  28.228  29.524   7.464
 1975POPC   NC329219  35.986  38.529   9.507
 1975POPC   PO429220  36.301  37.962   9.436
 1975POPC   GL129221  36.029  38.234   9.091
 1975POPC   GL229222  35.848  38.642   9.047
 1975POPC   C1A29223  36.235  38.480   8.768
 1975POPC   D2A29224  36.474  38.530   8.424
 1975POPC   C3A29225  36.402  38.196   8.171
 1975POPC   C4A29226  36.331  38.272   7.776
 1975POPC   C1B29227  35.725  38.425   8.668
 1975POPC   C2B29228  35.937  38.430   8.279
 1975POPC   C3B29229  35.876  38.469   7.837
 1975POPC   C4B29230  35.892  38.111   7.525
 1976POPC   NC329231  41.377  42.198   9.419
 1976POPC   PO429232  41.968  42.000   9.466
 1976POPC   GL129233  41.769  42.040   9.122
 1976POPC   GL229234  41.768  42.401   9.141
 1976POPC   C1A29235  41.468  42.082   8.783
 1976POPC   D2A29236  41.447  42.307   8.414
 1976POPC   C3A29237  41.423  42.072   8.046
 1976POPC   C4A29238  41.630  42.098   7.660
 1976POPC   C1B29239  41.903  42.357   8.733
 1976POPC   C2B29240  41.906  42.604   8.401
 1976POPC   C3B29241  41.823  42.403   8.043
 1976POPC   C4B29242  41.850  42.590   7.657
 1977POPC   NC329243  39.638  17.771   9.529
 1977POPC   PO429244  38.981  17.534   9.600
 1977POPC   GL129245  39.174  17.684   9.248
 1977POPC   GL229246  38.848  17.810   9.182
 1977POPC   C1A29247  39.442  17.688   8.856
 1977POPC   D2A29248  39.600  17.533   8.467
 1977POPC   C3A29249  39.428  17.651   8.071
 1977POPC   C4A29250  39.263  17.295   7.872
 1977POPC   C1B29251  38.948  17.542   8.821
 1977POPC   C2B29252  39.077  17.667   8.428
 1977POPC   C3B29253  38.901  17.632   7.980
 1977POPC   C4B29254  39.098  17.696   7.573
 1978POPC   NC329255  13.953  10.494   9.600
 1978POPC   PO429256  14.497  10.869   9.550
 1978POPC   GL129257  14.523  10.703   9.153
 1978POPC   GL229258  14.178  10.664   9.162
 1978POPC   C1A29259  14.475  10.364   8.816
 1978POPC   D2A29260  14.465  10.098   8.462
 1978POPC   C3A29261  14.317  10.244   8.077
 1978POPC   C4A29262  14.506  10.317   7.711
 1978POPC   C1B29263  14.224  10.803   8.742
 1978POPC   C2B29264  14.330  10.638   8.390
 1978POPC   C3B29265  14.453  10.776   7.995
 1978POPC   C4B29266  14.292  10.769   7.588
 1979POPC   NC329267   1.796  29.241   9.538
 1979POPC   PO429268   2.176  28.651   9.503
 1979POPC   GL129269   2.057  28.944   9.240
 1979POPC   GL229270   1.732  28.902   9.115
 1979POPC   C1A29271   2.166  29.305   8.954
 1979POPC   D2A29272   2.161  29.269   8.487
 1979POPC   C3A29273   1.934  29.417   8.129
 1979POPC   C4A29274   2.086  29.347   7.719
 1979POPC   C1B29275   2.060  28.847   8.763
 1979POPC   C2B29276   2.021  28.712   8.375
 1979POPC   C3B29277   2.078  28.919   8.019
 1979POPC   C4B29278   2.221  28.830   7.642
 1980POPC   NC329279  20.906  23.686   9.498
 1980POPC   PO429280  21.551  23.981   9.520
 1980POPC   GL129281  21.337  23.786   9.201
 1980POPC   GL229282  21.654  23.658   9.091
 1980POPC   C1A29283  21.270  23.832   8.756
 1980POPC   D2A29284  21.506  23.690   8.416
 1980POPC   C3A29285  21.448  23.817   8.003
 1980POPC   C4A29286  21.248  23.622   7.681
 1980POPC   C1B29287  21.742  23.389   8.739
 1980POPC   C2B29288  21.778  23.285   8.292
 1980POPC   C3B29289  21.667  23.354   7.835
 1980POPC   C4B29290  21.696  23.613   7.438
 1981POPC   NC329291  19.306  17.669   9.526
 1981POPC   PO429292  18.835  17.186   9.695
 1981POPC   GL129293  18.934  17.439   9.234
 1981POPC   GL229294  19.292  17.452   9.071
 1981POPC   C1A29295  18.957  17.645   8.762
 1981POPC   D2A29296  18.971  17.482   8.320
 1981POPC   C3A29297  19.119  17.701   7.926
 1981POPC   C4A29298  18.972  17.789   7.500
 1981POPC   C1B29299  19.236  17.208   8.672
 1981POPC   C2B29300  19.436  17.043   8.314
 1981POPC   C3B29301  19.292  17.223   7.928
 1981POPC   C4B29302  19.323  17.421   7.500
 1982POPC   NC329303  24.016  42.440   9.874
 1982POPC   PO429304  24.323  42.900   9.409
 1982POPC   GL129305  24.427  43.162   9.082
 1982POPC   GL229306  24.713  43.313   9.206
 1982POPC   C1A29307  24.501  43.059   8.648
 1982POPC   D2A29308  24.239  43.009   8.283
 1982POPC   C3A29309  24.409  42.837   7.887
 1982POPC   C4A29310  24.245  42.780   7.480
 1982POPC   C1B29311  24.729  43.494   8.792
 1982POPC   C2B29312  24.544  43.504   8.371
 1982POPC   C3B29313  24.533  43.325   7.984
 1982POPC   C4B29314  24.885  43.093   7.813
 1983POPC   NC329315  23.651  44.863   9.420
 1983POPC   PO429316  23.447  44.203   9.557
 1983POPC   GL129317  23.678  44.376   9.182
 1983POPC   GL229318  23.406  44.564   9.088
 1983POPC   C1A29319  23.876  44.643   8.820
 1983POPC   D2A29320  24.007  44.861   8.434
 1983POPC   C3A29321  23.880  44.734   8.034
 1983POPC   C4A29322  23.840  44.930   7.639
 1983POPC   C1B29323  23.476  44.341   8.720
 1983POPC   C2B29324  23.793  44.324   8.391
 1983POPC   C3B29325  23.594  44.327   8.012
 1983POPC   C4B29326  23.404  44.679   7.823
 1984POPC   NC329327   2.964   3.539   9.515
 1984POPC   PO429328   3.256   2.941   9.571
 1984POPC   GL129329   3.067   3.136   9.173
 1984POPC   GL229330   2.712   3.307   9.146
 1984POPC   C1A29331   2.958   3.266   8.711
 1984POPC   D2A29332   2.969   3.596   8.376
 1984POPC   C3A29333   3.012   3.488   7.921
 1984POPC   C4A29334   2.764   3.795   7.708
 1984POPC   C1B29335   2.573   3.620   8.864
 1984POPC   C2B29336   2.415   3.620   8.458
 1984POPC   C3B29337   2.536   3.425   8.110
 1984POPC   C4B29338   2.439   3.424   7.716
 1985POPC   NC329339  24.215   3.322   9.527
 1985POPC   PO429340  24.683   3.769   9.737
 1985POPC   GL129341  24.635   3.615   9.277
 1985POPC   GL229342  24.350   3.512   9.060
 1985POPC   C1A29343  24.847   3.476   8.870
 1985POPC   D2A29344  24.717   3.329   8.459
 1985POPC   C3A29345  24.801   3.540   8.066
 1985POPC   C4A29346  24.581   3.370   7.713
 1985POPC   C1B29347  24.254   3.289   8.650
 1985POPC   C2B29348  24.278   3.494   8.214
 1985POPC   C3B29349  24.103   3.525   7.798
 1985POPC   C4B29350  24.098   3.182   7.462
 1986POPC   NC329351  42.044  38.331   9.473
 1986POPC   PO429352  42.760  38.401   9.627
 1986POPC   GL129353  42.492  38.499   9.253
 1986POPC   GL229354  42.365  38.144   9.139
 1986POPC   C1A29355  42.312  38.618   8.839
 1986POPC   D2A29356  42.155  38.826   8.472
 1986POPC   C3A29357  42.094  38.627   8.033
 1986POPC   C4A29358  42.459  38.756   7.817
 1986POPC   C1B29359  42.474  38.157   8.709
 1986POPC   C2B29360  42.362  38.302   8.318
 1986POPC   C3B29361  42.497  38.268   7.880
 1986POPC   C4B29362  42.313  38.336   7.520
 1987POPC   NC329363  38.976   3.214   9.647
 1987POPC   PO429364  39.307   2.679   9.606
 1987POPC   GL129365  39.402   2.821   9.176
 1987POPC   GL229366  39.689   3.045   9.215
 1987POPC   C1A29367  39.205   2.944   8.750
 1987POPC   D2A29368  39.297   2.944   8.298
 1987POPC   C3A29369  39.294   2.521   8.105
 1987POPC   C4A29370  38.958   2.370   7.876
 1987POPC   C1B29371  39.714   2.971   8.769
 1987POPC   C2B29372  39.813   2.984   8.339
 1987POPC   C3B29373  39.625   2.880   7.909
 1987POPC   C4B29374  39.212   2.816   7.684
 1988POPC   NC329375   3.652   0.326   9.476
 1988POPC   PO429376   3.062   0.756   9.550
 1988POPC   GL129377   3.330   0.583   9.184
 1988POPC   GL229378   3.387   0.894   9.015
 1988POPC   C1A29379   3.573   0.469   8.782
 1988POPC   D2A29380   3.693   0.708   8.398
 1988POPC   C3A29381   3.652   0.483   7.992
 1988POPC   C4A29382   3.971   0.265   7.734
 1988POPC   C1B29383   3.168   0.743   8.669
 1988POPC   C2B29384   3.205   0.581   8.274
 1988POPC   C3B29385   3.183   0.751   7.862
 1988POPC   C4B29386   3.373   0.587   7.487
 1989POPC   NC329387  37.889  22.413   9.619
 1989POPC   PO429388  37.347  22.149   9.949
 1989POPC   GL129389  37.505  22.179   9.387
 1989POPC   GL229390  37.670  21.875   9.182
 1989POPC   C1A29391  37.710  22.306   8.916
 1989POPC   D2A29392  37.861  22.139   8.466
 1989POPC   C3A29393  37.744  22.222   8.019
 1989POPC   C4A29394  37.402  22.481   7.831
 1989POPC   C1B29395  37.469  21.888   8.729
 1989POPC   C2B29396  37.429  21.914   8.263
 1989POPC   C3B29397  37.442  21.794   7.826
 1989POPC   C4B29398  37.348  21.793   7.364
 1990POPC   NC329399  13.077  39.628   9.488
 1990POPC   PO429400  12.530  40.049   9.369
 1990POPC   GL129401  12.795  39.940   9.057
 1990POPC   GL229402  13.142  40.046   9.129
 1990POPC   C1A29403  12.671  39.939   8.606
 1990POPC   D2A29404  12.671  39.693   8.241
 1990POPC   C3A29405  12.861  39.840   7.876
 1990POPC   C4A29406  12.656  39.988   7.515
 1990POPC   C1B29407  13.168  39.846   8.723
 1990POPC   C2B29408  13.109  39.985   8.305
 1990POPC   C3B29409  13.292  40.208   7.968
 1990POPC   C4B29410  13.143  40.166   7.523
 1991POPC   NC329411  22.008  44.388   9.751
 1991POPC   PO429412  21.293  44.652   9.620
 1991POPC   GL129413  21.385  44.716   9.167
 1991POPC   GL229414  21.648  44.586   9.025
 1991POPC   C1A29415  21.185  44.648   8.793
 1991POPC   D2A29416  20.953  44.862   8.485
 1991POPC   C3A29417  21.148  44.916   8.084
 1991POPC   C4A29418  21.135  44.646   7.719
 1991POPC   C1B29419  21.691  44.737   8.661
 1991POPC   C2B29420  21.811  44.652   8.248
 1991POPC   C3B29421  21.633  44.552   7.841
 1991POPC   C4B29422  21.677  44.812   7.450
 1992POPC   NC329423  13.836  20.919   9.449
 1992POPC   PO429424  13.480  20.269   9.489
 1992POPC   GL129425  13.664  20.522   9.147
 1992POPC   GL229426  13.525  20.888   9.056
 1992POPC   C1A29427  13.633  20.516   8.707
 1992POPC   D2A29428  13.387  20.532   8.344
 1992POPC   C3A29429  13.582  20.450   7.973
 1992POPC   C4A29430  13.933  20.684   7.813
 1992POPC   C1B29431  13.813  20.997   8.701
 1992POPC   C2B29432  13.749  20.880   8.255
 1992POPC   C3B29433  13.402  20.921   7.920
 1992POPC   C4B29434  13.362  21.059   7.486
 1993POPC   NC329435  30.078   6.251   9.327
 1993POPC   PO429436  30.036   5.652   9.467
 1993POPC   GL129437  29.946   5.802   9.068
 1993POPC   GL229438  29.672   6.021   9.009
 1993POPC   C1A29439  30.058   5.702   8.662
 1993POPC   D2A29440  29.756   5.743   8.353
 1993POPC   C3A29441  29.730   5.477   8.001
 1993POPC   C4A29442  29.956   5.667   7.694
 1993POPC   C1B29443  29.940   6.209   8.705
 1993POPC   C2B29444  30.087   6.171   8.329
 1993POPC   C3B29445  29.938   6.069   7.970
 1993POPC   C4B29446  29.843   6.182   7.554
 1994POPC   NC329447   0.374  23.249   9.477
 1994POPC   PO429448   0.115  22.660   9.515
 1994POPC   GL129449   0.489  22.719   9.218
 1994POPC   GL229450   0.706  23.032   9.162
 1994POPC   C1A29451   0.428  22.778   8.765
 1994POPC   D2A29452   0.192  23.084   8.494
 1994POPC   C3A29453   0.311  23.074   8.050
 1994POPC   C4A29454   0.261  22.737   7.764
 1994POPC   C1B29455   0.685  23.214   8.769
 1994POPC   C2B29456   0.717  23.030   8.372
 1994POPC   C3B29457   0.816  23.158   7.960
 1994POPC   C4B29458   0.693  22.952   7.602
 1995POPC   NC329459   1.397  34.806   9.373
 1995POPC   PO429460   0.748  34.602   9.609
 1995POPC   GL129461   0.900  34.659   9.155
 1995POPC   GL229462   1.153  34.410   9.134
 1995POPC   C1A29463   1.163  34.708   8.711
 1995POPC   D2A29464   1.518  34.521   8.386
 1995POPC   C3A29465   1.492  34.678   7.925
 1995POPC   C4A29466   1.090  34.777   7.695
 1995POPC   C1B29467   1.306  34.230   8.790
 1995POPC   C2B29468   1.112  34.177   8.409
 1995POPC   C3B29469   1.105  34.381   8.054
 1995POPC   C4B29470   1.157  34.266   7.631
 1996POPC   NC329471  32.443   6.818   9.781
 1996POPC   PO429472  31.910   6.374   9.776
 1996POPC   GL129473  32.210   6.494   9.418
 1996POPC   GL229474  32.153   6.806   9.305
 1996POPC   C1A29475  32.426   6.378   8.999
 1996POPC   D2A29476  32.447   6.495   8.557
 1996POPC   C3A29477  32.181   6.409   8.196
 1996POPC   C4A29478  32.328   6.610   7.829
 1996POPC   C1B29479  32.055   6.714   8.846
 1996POPC   C2B29480  32.066   6.886   8.403
 1996POPC   C3B29481  32.421   7.007   8.133
 1996POPC   C4B29482  32.511   7.094   7.691
 1997POPC   NC329483   7.131   7.992   9.672
 1997POPC   PO429484   7.553   8.493   9.399
 1997POPC   GL129485   7.462   8.134   9.104
 1997POPC   GL229486   7.193   7.906   9.178
 1997POPC   C1A29487   7.158   8.199   8.772
 1997POPC   D2A29488   6.956   8.194   8.382
 1997POPC   C3A29489   7.192   8.354   8.081
 1997POPC   C4A29490   7.509   8.337   7.769
 1997POPC   C1B29491   7.317   7.704   8.800
 1997POPC   C2B29492   7.365   7.875   8.434
 1997POPC   C3B29493   7.362   7.874   8.046
 1997POPC   C4B29494   7.645   7.851   7.742
 1998POPC   NC329495   9.788   7.979   9.543
 1998POPC   PO429496   9.310   8.465   9.498
 1998POPC   GL129497   9.568   8.269   9.186
 1998POPC   GL229498   9.926   8.356   9.185
 1998POPC   C1A29499   9.549   8.047   8.820
 1998POPC   D2A29500   9.613   8.190   8.401
 1998POPC   C3A29501   9.748   8.024   8.022
 1998POPC   C4A29502   9.379   8.113   7.767
 1998POPC   C1B29503  10.004   8.260   8.751
 1998POPC   C2B29504  10.050   8.491   8.374
 1998POPC   C3B29505  10.142   8.621   7.958
 1998POPC   C4B29506  10.013   8.389   7.600
 1999POPC   NC329507   3.710  31.543   9.520
 1999POPC   PO429508   3.170  31.958   9.320
 1999POPC   GL129509   3.437  31.641   9.118
 1999POPC   GL229510   3.387  31.296   9.088
 1999POPC   C1A29511   3.643  31.655   8.762
 1999POPC   D2A29512   3.489  31.680   8.355
 1999POPC   C3A29513   3.743  31.632   7.986
 1999POPC   C4A29514   3.594  31.485   7.605
 1999POPC   C1B29515   3.466  31.122   8.714
 1999POPC   C2B29516   3.246  31.142   8.336
 1999POPC   C3B29517   3.323  31.195   7.916
 1999POPC   C4B29518   3.209  31.067   7.487
 2000POPC   NC329519   2.966  32.252   9.621
 2000POPC   PO429520   2.494  32.738   9.511
 2000POPC   GL129521   2.680  32.581   9.142
 2000POPC   GL229522   2.770  32.224   9.149
 2000POPC   C1A29523   2.465  32.415   8.781
 2000POPC   D2A29524   2.402  32.294   8.353
 2000POPC   C3A29525   2.647  32.555   8.083
 2000POPC   C4A29526   2.765  32.484   7.654
 2000POPC   C1B29527   2.840  32.072   8.728
 2000POPC   C2B29528   2.964  32.126   8.334
 2000POPC   C3B29529   2.767  32.066   8.005
 2000POPC   C4B29530   2.903  31.999   7.641
 2001POPC   NC329531  32.428  38.190   9.443
 2001POPC   PO429532  31.917  38.639   9.529
 2001POPC   GL129533  32.171  38.517   9.148
 2001POPC   GL229534  32.509  38.644   9.200
 2001POPC   C1A29535  32.263  38.267   8.764
 2001POPC   D2A29536  32.122  38.171   8.332
 2001POPC   C3A29537  32.387  38.269   7.951
 2001POPC   C4A29538  32.478  38.347   7.446
 2001POPC   C1B29539  32.532  38.771   8.769
 2001POPC   C2B29540  32.401  38.607   8.392
 2001POPC   C3B29541  32.061  38.695   8.133
 2001POPC   C4B29542  31.858  38.748   7.728
 2002POPC   NC329543  16.080   6.994   9.307
 2002POPC   PO429544  15.858   7.654   9.458
 2002POPC   GL129545  16.071   7.474   9.119
 2002POPC   GL229546  15.733   7.304   9.062
 2002POPC   C1A29547  16.078   7.266   8.700
 2002POPC   D2A29548  15.838   7.261   8.387
 2002POPC   C3A29549  16.034   7.262   7.987
 2002POPC   C4A29550  15.903   7.426   7.592
 2002POPC   C1B29551  15.715   7.660   8.775
 2002POPC   C2B29552  15.793   7.760   8.349
 2002POPC   C3B29553  15.620   7.590   7.969
 2002POPC   C4B29554  15.299   7.684   7.630
 2003POPC   NC329555  21.644  41.911   9.217
 2003POPC   PO429556  22.320  41.725   9.424
 2003POPC   GL129557  22.135  41.814   9.049
 2003POPC   GL229558  21.933  41.524   9.046
 2003POPC   C1A29559  21.951  41.798   8.623
 2003POPC   D2A29560  22.066  41.482   8.362
 2003POPC   C3A29561  22.162  41.631   7.972
 2003POPC   C4A29562  22.216  41.966   7.726
 2003POPC   C1B29563  21.980  41.172   8.779
 2003POPC   C2B29564  21.839  41.016   8.383
 2003POPC   C3B29565  21.848  41.220   7.996
 2003POPC   C4B29566  22.089  41.204   7.624
 2004POPC   NC329567   4.994  13.249   9.483
 2004POPC   PO429568   5.404  13.779   9.574
 2004POPC   GL129569   5.236  13.601   9.165
 2004POPC   GL229570   5.363  13.258   9.089
 2004POPC   C1A29571   5.169  13.614   8.703
 2004POPC   D2A29572   4.912  13.864   8.432
 2004POPC   C3A29573   5.028  13.863   8.036
 2004POPC   C4A29574   5.289  13.553   7.861
 2004POPC   C1B29575   4.982  13.167   8.844
 2004POPC   C2B29576   4.779  13.336   8.483
 2004POPC   C3B29577   4.828  13.357   8.048
 2004POPC   C4B29578   4.897  13.174   7.653
 2005POPC   NC329579   4.123  20.822   9.891
 2005POPC   PO429580   4.473  20.313   9.518
 2005POPC   GL129581   4.322  20.465   9.124
 2005POPC   GL229582   3.966  20.445   9.023
 2005POPC   C1A29583   4.398  20.345   8.706
 2005POPC   D2A29584   4.161  20.607   8.414
 2005POPC   C3A29585   4.342  20.693   8.044
 2005POPC   C4A29586   4.436  20.639   7.617
 2005POPC   C1B29587   3.911  20.201   8.632
 2005POPC   C2B29588   4.202  20.127   8.254
 2005POPC   C3B29589   4.171  20.266   7.841
 2005POPC   C4B29590   3.978  20.323   7.457
 2006POPC   NC329591  43.620   0.956   9.410
 2006POPC   PO429592  44.221   1.352   9.478
 2006POPC   GL129593  43.928   1.297   9.156
 2006POPC   GL229594  43.999   0.988   9.023
 2006POPC   C1A29595  43.806   1.450   8.755
 2006POPC   D2A29596  43.717   1.703   8.362
 2006POPC   C3A29597  43.747   1.369   8.057
 2006POPC   C4A29598  43.997   1.340   7.721
 2006POPC   C1B29599  44.103   0.959   8.582
 2006POPC   C2B29600  44.058   0.686   8.212
 2006POPC   C3B29601  44.180   0.745   7.806
 2006POPC   C4B29602  43.763   0.875   7.764
 2007POPC   NC329603  29.455  41.217   9.452
 2007POPC   PO429604  28.937  41.663   9.499
 2007POPC   GL129605  29.018  41.405   9.159
 2007POPC   GL229606  29.317  41.591   9.149
 2007POPC   C1A29607  28.978  41.304   8.715
 2007POPC   D2A29608  28.873  41.588   8.381
 2007POPC   C3A29609  28.773  41.480   7.984
 2007POPC   C4A29610  28.848  41.772   7.629
 2007POPC   C1B29611  29.153  41.780   8.796
 2007POPC   C2B29612  29.343  41.787   8.422
 2007POPC   C3B29613  29.197  41.812   8.009
 2007POPC   C4B29614  29.432  41.816   7.630
 2008POPC   NC329615  10.478  24.217   9.432
 2008POPC   PO429616  10.143  24.834   9.552
 2008POPC   GL129617  10.363  24.703   9.184
 2008POPC   GL229618  10.714  24.728   9.221
 2008POPC   C1A29619  10.358  24.583   8.755
 2008POPC   D2A29620  10.421  24.769   8.363
 2008POPC   C3A29621  10.343  24.445   8.069
 2008POPC   C4A29622  10.285  24.359   7.637
 2008POPC   C1B29623  10.852  24.625   8.790
 2008POPC   C2B29624  10.814  24.449   8.391
 2008POPC   C3B29625  10.815  24.602   7.974
 2008POPC   C4B29626  10.787  24.914   7.659
 2009POPC   NC329627  41.669  24.601   9.655
 2009POPC   PO429628  41.643  23.998   9.475
 2009POPC   GL129629  41.392  24.348   9.254
 2009POPC   GL229630  41.551  24.703   9.155
 2009POPC   C1A29631  41.388  24.359   8.814
 2009POPC   D2A29632  41.575  24.472   8.442
 2009POPC   C3A29633  41.387  24.347   8.068
 2009POPC   C4A29634  41.558  24.579   7.735
 2009POPC   C1B29635  41.701  24.916   8.753
 2009POPC   C2B29636  41.852  24.895   8.309
 2009POPC   C3B29637  41.639  25.040   7.939
 2009POPC   C4B29638  41.246  24.983   7.680
 2010POPC   NC329639  19.067  16.821   9.861
 2010POPC   PO429640  19.190  16.990   9.265
 2010POPC   GL129641  19.113  16.756   8.960
 2010POPC   GL229642  19.112  16.458   9.059
 2010POPC   C1A29643  19.068  16.744   8.545
 2010POPC   D2A29644  18.941  16.953   8.235
 2010POPC   C3A29645  19.032  16.795   7.884
 2010POPC   C4A29646  19.302  16.880   7.535
 2010POPC   C1B29647  18.843  16.308   8.688
 2010POPC   C2B29648  18.896  16.359   8.240
 2010POPC   C3B29649  18.693  16.404   7.850
 2010POPC   C4B29650  18.911  16.560   7.452
 2011POPC   NC329651  31.129   9.183   9.364
 2011POPC   PO429652  31.581   8.777   9.687
 2011POPC   GL129653  31.609   8.850   9.285
 2011POPC   GL229654  31.705   9.189   9.282
 2011POPC   C1A29655  31.493   8.762   8.878
 2011POPC   D2A29656  31.447   8.890   8.447
 2011POPC   C3A29657  31.585   8.678   8.088
 2011POPC   C4A29658  31.705   8.911   7.716
 2011POPC   C1B29659  31.640   9.251   8.828
 2011POPC   C2B29660  31.759   9.300   8.391
 2011POPC   C3B29661  31.515   9.296   8.021
 2011POPC   C4B29662  31.556   9.500   7.618
 2012POPC   NC329663   0.735  42.912   9.269
 2012POPC   PO429664   1.140  43.346   9.626
 2012POPC   GL129665   0.985  43.318   9.123
 2012POPC   GL229666   1.166  42.980   8.942
 2012POPC   C1A29667   0.858  43.202   8.652
 2012POPC   D2A29668   1.195  43.012   8.371
 2012POPC   C3A29669   1.142  43.192   7.968
 2012POPC   C4A29670   0.829  43.500   7.830
 2012POPC   C1B29671   0.939  42.684   8.690
 2012POPC   C2B29672   0.770  42.720   8.286
 2012POPC   C3B29673   1.035  42.699   7.934
 2012POPC   C4B29674   0.866  42.650   7.562
 2013POPC   NC329675  32.856   8.986   9.451
 2013POPC   PO429676  33.469   9.078   9.739
 2013POPC   GL129677  33.333   8.972   9.244
 2013POPC   GL229678  33.122   9.218   9.073
 2013POPC   C1A29679  33.175   8.761   8.826
 2013POPC   D2A29680  33.270   8.918   8.431
 2013POPC   C3A29681  33.052   9.013   8.067
 2013POPC   C4A29682  33.284   9.259   7.790
 2013POPC   C1B29683  32.856   9.182   8.707
 2013POPC   C2B29684  32.703   9.510   8.457
 2013POPC   C3B29685  32.713   9.398   8.043
 2013POPC   C4B29686  32.809   9.330   7.666
 2014POPC   NC329687   8.909  37.469   9.754
 2014POPC   PO429688   9.117  38.085   9.475
 2014POPC   GL129689   9.069  37.707   9.173
 2014POPC   GL229690   8.733  37.556   9.187
 2014POPC   C1A29691   9.210  37.505   8.753
 2014POPC   D2A29692   9.339  37.495   8.319
 2014POPC   C3A29693   9.186  37.825   8.041
 2014POPC   C4A29694   8.911  37.915   7.694
 2014POPC   C1B29695   8.743  37.735   8.730
 2014POPC   C2B29696   8.730  37.724   8.246
 2014POPC   C3B29697   8.833  37.452   7.876
 2014POPC   C4B29698   8.613  37.467   7.467
 2015POPC   NC329699   4.219   1.540   9.612
 2015POPC   PO429700   4.547   1.022   9.774
 2015POPC   GL129701   4.354   1.077   9.355
 2015POPC   GL229702   4.550   1.384   9.269
 2015POPC   C1A29703   4.256   1.159   8.917
 2015POPC   D2A29704   4.243   1.370   8.525
 2015POPC   C3A29705   4.162   1.086   8.224
 2015POPC   C4A29706   4.135   1.137   7.806
 2015POPC   C1B29707   4.674   1.489   8.864
 2015POPC   C2B29708   4.745   1.520   8.423
 2015POPC   C3B29709   4.510   1.428   8.041
 2015POPC   C4B29710   4.480   1.523   7.567
 2016POPC   NC329711  28.193  14.757   9.387
 2016POPC   PO429712  28.374  14.097   9.519
 2016POPC   GL129713  28.186  14.298   9.188
 2016POPC   GL229714  28.494  14.452   9.116
 2016POPC   C1A29715  28.149  14.344   8.752
 2016POPC   D2A29716  28.058  14.625   8.420
 2016POPC   C3A29717  28.260  14.501   8.057
 2016POPC   C4A29718  28.193  14.266   7.694
 2016POPC   C1B29719  28.515  14.714   8.724
 2016POPC   C2B29720  28.641  14.771   8.295
 2016POPC   C3B29721  28.599  14.816   7.841
 2016POPC   C4B29722  28.626  14.448   7.513
 2017POPC   NC329723  20.294   4.615   9.376
 2017POPC   PO429724  19.760   4.275   9.377
 2017POPC   GL129725  20.029   4.256   9.057
 2017POPC   GL229726  20.215   3.952   9.022
 2017POPC   C1A29727  19.775   4.381   8.716
 2017POPC   D2A29728  19.830   4.613   8.370
 2017POPC   C3A29729  19.564   4.551   8.031
 2017POPC   C4A29730  19.624   4.348   7.662
 2017POPC   C1B29731  20.081   4.018   8.577
 2017POPC   C2B29732  19.949   4.126   8.144
 2017POPC   C3B29733  20.144   4.321   7.753
 2017POPC   C4B29734  20.029   4.234   7.284
 2018POPC   NC329735  42.575  16.246   9.403
 2018POPC   PO429736  42.482  16.835   9.445
 2018POPC   GL129737  42.402  16.739   9.043
 2018POPC   GL229738  42.271  16.415   9.016
 2018POPC   C1A29739  42.419  16.825   8.624
 2018POPC   D2A29740  42.777  16.699   8.395
 2018POPC   C3A29741  42.683  16.735   7.966
 2018POPC   C4A29742  42.496  17.056   7.685
 2018POPC   C1B29743  42.200  16.378   8.572
 2018POPC   C2B29744  41.959  16.711   8.380
 2018POPC   C3B29745  42.136  16.855   7.994
 2018POPC   C4B29746  42.308  16.529   7.709
 2019POPC   NC329747  31.694   4.972   9.507
 2019POPC   PO429748  32.355   4.834   9.511
 2019POPC   GL129749  32.140   5.032   9.171
 2019POPC   GL229750  31.867   4.829   9.032
 2019POPC   C1A29751  32.357   5.251   8.825
 2019POPC   D2A29752  32.353   5.438   8.399
 2019POPC   C3A29753  32.227   5.128   8.090
 2019POPC   C4A29754  32.108   5.090   7.652
 2019POPC   C1B29755  32.189   4.763   8.700
 2019POPC   C2B29756  32.202   4.614   8.269
 2019POPC   C3B29757  32.224   4.648   7.829
 2019POPC   C4B29758  32.232   4.694   7.354
 2020POPC   NC329759   0.069  24.165   9.485
 2020POPC   PO429760  44.796  24.775   9.598
 2020POPC   GL129761  44.671  24.750   9.169
 2020POPC   GL229762  44.776  24.412   9.125
 2020POPC   C1A29763  44.741  24.768   8.716
 2020POPC   D2A29764  44.488  24.873   8.358
 2020POPC   C3A29765  44.668  24.794   7.958
 2020POPC   C4A29766  44.517  24.637   7.588
 2020POPC   C1B29767  44.660  24.254   8.714
 2020POPC   C2B29768  44.726  24.406   8.302
 2020POPC   C3B29769  44.490  24.280   7.946
 2020POPC   C4B29770  44.626  23.976   7.684
 2021POPC   NC329771  38.683  33.986   9.393
 2021POPC   PO429772  38.339  33.411   9.611
 2021POPC   GL129773  38.279  33.386   9.181
 2021POPC   GL229774  38.651  33.464   9.180
 2021POPC   C1A29775  38.343  33.524   8.753
 2021POPC   D2A29776  38.511  33.831   8.448
 2021POPC   C3A29777  38.371  33.956   8.029
 2021POPC   C4A29778  38.165  33.677   7.730
 2021POPC   C1B29779  38.834  33.626   8.808
 2021POPC   C2B29780  38.954  33.572   8.385
 2021POPC   C3B29781  38.846  33.452   8.027
 2021POPC   C4B29782  38.682  33.676   7.721
 2022POPC   NC329783  19.017  19.571   9.460
 2022POPC   PO429784  19.260  20.247   9.493
 2022POPC   GL129785  19.019  19.988   9.191
 2022POPC   GL229786  19.115  20.137   9.000
 2022POPC   C1A29787  18.835  19.721   8.841
 2022POPC   D2A29788  18.991  19.586   8.423
 2022POPC   C3A29789  18.778  19.735   8.050
 2022POPC   C4A29790  18.931  19.621   7.646
 2022POPC   C1B29791  19.305  19.908   8.729
 2022POPC   C2B29792  19.295  20.010   8.343
 2022POPC   C3B29793  19.272  19.868   7.970
 2022POPC   C4B29794  19.240  20.072   7.570
 2023POPC   NC329795   0.288  22.209   9.542
 2023POPC   PO429796   0.746  21.666   9.716
 2023POPC   GL129797   0.845  21.964   9.248
 2023POPC   GL229798   0.516  22.183   9.098
 2023POPC   C1A29799   0.802  21.972   8.764
 2023POPC   D2A29800   0.658  22.351   8.537
 2023POPC   C3A29801   0.519  22.446   8.100
 2023POPC   C4A29802   0.667  22.442   7.641
 2023POPC   C1B29803   0.291  21.943   8.744
 2023POPC   C2B29804   0.375  21.930   8.347
 2023POPC   C3B29805   0.086  21.982   8.062
 2023POPC   C4B29806   0.128  22.182   7.728
 2024POPC   NC329807  37.669   5.943   9.592
 2024POPC   PO429808  37.672   5.285   9.764
 2024POPC   GL129809  37.755   5.477   9.263
 2024POPC   GL229810  37.679   5.825   9.108
 2024POPC   C1A29811  37.853   5.487   8.789
 2024POPC   D2A29812  37.850   5.652   8.343
 2024POPC   C3A29813  37.462   5.686   8.110
 2024POPC   C4A29814  37.450   5.669   7.661
 2024POPC   C1B29815  37.515   5.864   8.682
 2024POPC   C2B29816  37.635   6.128   8.322
 2024POPC   C3B29817  37.647   6.120   7.866
 2024POPC   C4B29818  37.470   6.126   7.441
 2025POPC   NC329819  29.985  38.946   9.495
 2025POPC   PO429820  29.545  39.448   9.334
 2025POPC   GL129821  29.805  39.172   9.078
 2025POPC   GL229822  30.090  39.346   9.095
 2025POPC   C1A29823  30.011  39.072   8.686
 2025POPC   D2A29824  29.876  39.293   8.312
 2025POPC   C3A29825  29.921  39.128   7.898
 2025POPC   C4A29826  29.745  39.257   7.505
 2025POPC   C1B29827  30.299  39.493   8.670
 2025POPC   C2B29828  30.430  39.661   8.260
 2025POPC   C3B29829  30.313  39.474   7.891
 2025POPC   C4B29830  30.153  39.527   7.472
 2026POPC   NC329831   7.153  20.909   9.577
 2026POPC   PO429832   7.748  20.608   9.556
 2026POPC   GL129833   7.586  20.781   9.230
 2026POPC   GL229834   7.345  20.504   9.197
 2026POPC   C1A29835   7.496  20.919   8.838
 2026POPC   D2A29836   7.227  20.749   8.534
 2026POPC   C3A29837   7.285  20.827   8.117
 2026POPC   C4A29838   7.431  20.746   7.726
 2026POPC   C1B29839   7.142  20.329   8.818
 2026POPC   C2B29840   7.120  20.271   8.359
 2026POPC   C3B29841   7.203  20.356   7.928
 2026POPC   C4B29842   7.288  20.373   7.422
 2027POPC   NC329843  22.759  12.616   9.459
 2027POPC   PO429844  22.625  13.310   9.476
 2027POPC   GL129845  22.638  13.011   9.131
 2027POPC   GL229846  22.981  12.923   9.093
 2027POPC   C1A29847  22.683  12.721   8.736
 2027POPC   D2A29848  22.908  12.676   8.330
 2027POPC   C3A29849  22.749  12.775   7.922
 2027POPC   C4A29850  22.765  12.931   7.497
 2027POPC   C1B29851  23.195  12.931   8.692
 2027POPC   C2B29852  23.318  12.981   8.273
 2027POPC   C3B29853  23.285  12.664   7.927
 2027POPC   C4B29854  23.249  12.752   7.489
 2028POPC   NC329855  34.639  41.326   9.511
 2028POPC   PO429856  34.359  41.936   9.408
 2028POPC   GL129857  34.644  41.741   9.181
 2028POPC   GL229858  34.448  41.441   9.062
 2028POPC   C1A29859  34.738  41.730   8.774
 2028POPC   D2A29860  34.699  41.419   8.459
 2028POPC   C3A29861  34.702  41.699   8.112
 2028POPC   C4A29862  34.756  41.563   7.703
 2028POPC   C1B29863  34.247  41.548   8.693
 2028POPC   C2B29864  34.242  41.489   8.263
 2028POPC   C3B29865  34.266  41.609   7.855
 2028POPC   C4B29866  34.072  41.878   7.609
 2029POPC   NC329867  40.828   2.348   9.444
 2029POPC   PO429868  40.843   1.744   9.648
 2029POPC   GL129869  40.782   1.891   9.196
 2029POPC   GL229870  41.057   1.838   8.929
 2029POPC   C1A29871  40.574   1.793   8.837
 2029POPC   D2A29872  40.679   1.887   8.455
 2029POPC   C3A29873  40.508   1.724   8.162
 2029POPC   C4A29874  40.439   1.747   7.774
 2029POPC   C1B29875  40.888   2.240   8.754
 2029POPC   C2B29876  40.661   2.382   8.363
 2029POPC   C3B29877  40.733   2.178   7.991
 2029POPC   C4B29878  40.964   1.793   7.901
 2030POPC   NC329879   8.077  20.541   9.861
 2030POPC   PO429880   8.463  20.932   9.573
 2030POPC   GL129881   8.443  20.659   9.243
 2030POPC   GL229882   8.098  20.641   9.186
 2030POPC   C1A29883   8.501  20.704   8.806
 2030POPC   D2A29884   8.258  20.603   8.392
 2030POPC   C3A29885   8.511  20.534   7.993
 2030POPC   C4A29886   8.267  20.520   7.619
 2030POPC   C1B29887   7.996  20.794   8.787
 2030POPC   C2B29888   7.737  20.777   8.402
 2030POPC   C3B29889   7.869  20.618   7.993
 2030POPC   C4B29890   7.889  20.835   7.566
 2031POPC   NC329891  13.513   0.149   9.478
 2031POPC   PO429892  13.911   0.734   9.550
 2031POPC   GL129893  13.760   0.505   9.204
 2031POPC   GL229894  13.412   0.536   9.144
 2031POPC   C1A29895  13.763   0.284   8.813
 2031POPC   D2A29896  13.682   0.486   8.436
 2031POPC   C3A29897  13.914   0.383   8.116
 2031POPC   C4A29898  13.729   0.463   7.730
 2031POPC   C1B29899  13.254   0.229   8.853
 2031POPC   C2B29900  13.411   0.045   8.471
 2031POPC   C3B29901  13.449   0.158   8.061
 2031POPC   C4B29902  13.378   0.130   7.608
 2032POPC   NC329903   2.783  34.187   9.635
 2032POPC   PO429904   3.077  33.550   9.547
 2032POPC   GL129905   2.718  33.641   9.276
 2032POPC   GL229906   2.707  34.002   9.153
 2032POPC   C1A29907   2.731  33.592   8.843
 2032POPC   D2A29908   2.826  33.766   8.447
 2032POPC   C3A29909   2.725  33.512   8.124
 2032POPC   C4A29910   3.020  33.417   7.811
 2032POPC   C1B29911   2.476  34.040   8.763
 2032POPC   C2B29912   2.470  34.094   8.324
 2032POPC   C3B29913   2.736  34.189   8.039
 2032POPC   C4B29914   2.646  33.878   7.787
 2033POPC   NC329915   5.656  33.382   9.393
 2033POPC   PO429916   6.206  33.147   9.694
 2033POPC   GL129917   6.008  32.911   9.260
 2033POPC   GL229918   5.748  33.070   9.009
 2033POPC   C1A29919   6.085  32.810   8.757
 2033POPC   D2A29920   6.219  32.974   8.361
 2033POPC   C3A29921   6.126  32.764   7.964
 2033POPC   C4A29922   5.712  32.734   7.824
 2033POPC   C1B29923   5.813  33.397   8.656
 2033POPC   C2B29924   5.710  33.537   8.267
 2033POPC   C3B29925   5.853  33.259   7.935
 2033POPC   C4B29926   5.731  33.289   7.531
 2034POPC   NC329927  43.513  19.407   9.422
 2034POPC   PO429928  42.990  19.003   9.629
 2034POPC   GL129929  43.172  19.074   9.235
 2034POPC   GL229930  42.872  18.988   9.100
 2034POPC   C1A29931  43.267  19.230   8.807
 2034POPC   D2A29932  43.173  19.098   8.389
 2034POPC   C3A29933  43.347  19.281   8.016
 2034POPC   C4A29934  43.272  19.177   7.599
 2034POPC   C1B29935  42.741  18.751   8.770
 2034POPC   C2B29936  42.907  18.627   8.370
 2034POPC   C3B29937  43.154  18.704   8.002
 2034POPC   C4B29938  42.956  18.736   7.611
 2035POPC   NC329939   8.852   8.413   9.475
 2035POPC   PO429940   8.913   7.722   9.430
 2035POPC   GL129941   9.099   8.067   9.197
 2035POPC   GL229942   9.058   7.921   8.938
 2035POPC   C1A29943   9.134   8.444   8.877
 2035POPC   D2A29944   9.036   8.699   8.500
 2035POPC   C3A29945   9.146   8.493   8.113
 2035POPC   C4A29946   9.172   8.563   7.654
 2035POPC   C1B29947   8.858   8.109   8.625
 2035POPC   C2B29948   8.831   8.058   8.209
 2035POPC   C3B29949   8.866   8.198   7.800
 2035POPC   C4B29950   8.969   8.179   7.380
 2036POPC   NC329951  41.161  20.406   9.446
 2036POPC   PO429952  41.813  20.711   9.425
 2036POPC   GL129953  41.516  20.624   9.130
 2036POPC   GL229954  41.257  20.848   9.117
 2036POPC   C1A29955  41.689  20.472   8.769
 2036POPC   D2A29956  41.881  20.465   8.384
 2036POPC   C3A29957  41.567  20.401   8.070
 2036POPC   C4A29958  41.604  20.519   7.691
 2036POPC   C1B29959  41.252  20.751   8.690
 2036POPC   C2B29960  41.619  20.885   8.457
 2036POPC   C3B29961  41.666  20.899   8.038
 2036POPC   C4B29962  41.232  20.808   7.934
 2037POPC   NC329963  44.338   8.665   9.290
 2037POPC   PO429964  43.864   8.293   9.613
 2037POPC   GL129965  43.911   8.271   9.196
 2037POPC   GL229966  44.199   8.033   9.200
 2037POPC   C1A29967  43.711   8.147   8.808
 2037POPC   D2A29968  43.669   8.331   8.412
 2037POPC   C3A29969  43.497   8.068   8.123
 2037POPC   C4A29970  43.623   8.180   7.727
 2037POPC   C1B29971  44.218   8.190   8.792
 2037POPC   C2B29972  44.184   8.306   8.391
 2037POPC   C3B29973  44.066   8.216   7.987
 2037POPC   C4B29974  44.101   8.370   7.545
 2038POPC   NC329975   4.692  39.456   9.412
 2038POPC   PO429976   4.341  40.129   9.427
 2038POPC   GL129977   4.470  39.834   9.150
 2038POPC   GL229978   4.136  39.879   9.010
 2038POPC   C1A29979   4.526  39.713   8.726
 2038POPC   D2A29980   4.390  39.977   8.428
 2038POPC   C3A29981   4.324  39.865   8.058
 2038POPC   C4A29982   4.514  40.104   7.746
 2038POPC   C1B29983   4.352  40.273   8.824
 2038POPC   C2B29984   4.195  40.492   8.496
 2038POPC   C3B29985   4.248  40.371   8.116
 2038POPC   C4B29986   4.083  40.440   7.775
 2039POPC   NC329987  40.709  21.490   9.551
 2039POPC   PO429988  41.404  21.505   9.450
 2039POPC   GL129989  41.066  21.325   9.220
 2039POPC   GL229990  40.789  21.613   9.074
 2039POPC   C1A29991  40.895  21.154   8.848
 2039POPC   D2A29992  40.794  21.477   8.562
 2039POPC   C3A29993  40.813  21.375   8.153
 2039POPC   C4A29994  40.678  21.627   7.836
 2039POPC   C1B29995  41.170  21.673   8.858
 2039POPC   C2B29996  41.276  21.677   8.442
 2039POPC   C3B29997  41.140  21.758   8.028
 2039POPC   C4B29998  41.113  21.736   7.586
 2040POPC   NC329999  42.980  15.810   9.530
 2040POPC   PO430000  43.661  15.745   9.517
 2040POPC   GL130001  43.523  15.642   9.133
 2040POPC   GL230002  43.367  15.966   9.115
 2040POPC   C1A30003  43.440  15.662   8.689
 2040POPC   D2A30004  43.092  15.695   8.422
 2040POPC   C3A30005  43.183  15.911   8.103
 2040POPC   C4A30006  42.924  15.804   7.812
 2040POPC   C1B30007  43.002  15.948   8.860
 2040POPC   C2B30008  42.903  16.215   8.524
 2040POPC   C3B30009  42.785  16.244   8.088
 2040POPC   C4B30010  42.802  16.301   7.641
 2041POPC   NC330011  27.320  31.202   9.346
 2041POPC   PO430012  27.371  30.625   9.682
 2041POPC   GL130013  27.456  30.441   9.238
 2041POPC   GL230014  27.785  30.544   9.205
 2041POPC   C1A30015  27.475  30.556   8.798
 2041POPC   D2A30016  27.612  30.458   8.387
 2041POPC   C3A30017  27.593  30.743   8.045
 2041POPC   C4A30018  27.490  30.845   7.625
 2041POPC   C1B30019  27.960  30.444   8.828
 2041POPC   C2B30020  28.119  30.348   8.428
 2041POPC   C3B30021  27.972  30.364   8.029
 2041POPC   C4B30022  27.665  30.294   7.723
 2042POPC   NC330023  37.196  28.931   9.474
 2042POPC   PO430024  37.660  29.476   9.540
 2042POPC   GL130025  37.684  29.315   9.132
 2042POPC   GL230026  37.371  29.203   9.082
 2042POPC   C1A30027  37.893  29.254   8.720
 2042POPC   D2A30028  37.779  29.310   8.282
 2042POPC   C3A30029  37.785  29.014   7.977
 2042POPC   C4A30030  38.041  29.019   7.614
 2042POPC   C1B30031  37.386  29.437   8.696
 2042POPC   C2B30032  37.269  29.298   8.298
 2042POPC   C3B30033  37.384  29.347   7.916
 2042POPC   C4B30034  37.738  29.441   7.685
 2043POPC   NC330035  34.792  26.273   9.508
 2043POPC   PO430036  34.518  26.752   9.478
 2043POPC   GL130037  34.576  27.038   9.108
 2043POPC   GL230038  34.634  27.391   9.141
 2043POPC   C1A30039  34.452  27.129   8.698
 2043POPC   D2A30040  34.517  26.942   8.289
 2043POPC   C3A30041  34.263  26.993   7.915
 2043POPC   C4A30042  34.141  26.638   7.626
 2043POPC   C1B30043  34.910  27.363   8.757
 2043POPC   C2B30044  34.968  27.189   8.343
 2043POPC   C3B30045  34.770  27.208   7.918
 2043POPC   C4B30046  34.905  27.297   7.478
 2044POPC   NC330047  43.922   1.694   9.480
 2044POPC   PO430048  43.771   2.315   9.465
 2044POPC   GL130049  43.906   2.079   9.119
 2044POPC   GL230050  43.642   1.819   9.069
 2044POPC   C1A30051  44.054   2.161   8.692
 2044POPC   D2A30052  44.239   1.985   8.303
 2044POPC   C3A30053  44.006   1.864   7.935
 2044POPC   C4A30054  43.893   2.143   7.571
 2044POPC   C1B30055  43.519   2.143   8.763
 2044POPC   C2B30056  43.663   2.285   8.365
 2044POPC   C3B30057  43.578   2.094   8.003
 2044POPC   C4B30058  43.392   2.116   7.648
 2045POPC   NC330059  43.432  21.638   9.695
 2045POPC   PO430060  42.786  21.384   9.929
 2045POPC   GL130061  42.967  21.381   9.446
 2045POPC   GL230062  43.137  21.703   9.263
 2045POPC   C1A30063  43.081  21.198   9.015
 2045POPC   D2A30064  43.257  20.921   8.687
 2045POPC   C3A30065  43.158  21.097   8.286
 2045POPC   C4A30066  43.272  21.206   7.873
 2045POPC   C1B30067  43.126  21.772   8.813
 2045POPC   C2B30068  43.257  21.598   8.415
 2045POPC   C3B30069  43.274  21.748   7.980
 2045POPC   C4B30070  43.080  21.604   7.605
 2046POPC   NC330071  38.929  21.159   9.427
 2046POPC   PO430072  39.547  21.579   9.467
 2046POPC   GL130073  39.388  21.337   9.121
 2046POPC   GL230074  39.067  21.351   8.977
 2046POPC   C1A30075  39.533  21.201   8.715
 2046POPC   D2A30076  39.526  20.900   8.367
 2046POPC   C3A30077  39.469  21.091   7.943
 2046POPC   C4A30078  39.222  21.260   7.594
 2046POPC   C1B30079  38.872  21.708   8.758
 2046POPC   C2B30080  38.988  21.909   8.413
 2046POPC   C3B30081  38.879  21.794   7.992
 2046POPC   C4B30082  38.925  21.671   7.550
 2047POPC   NC330083  16.407  19.412   9.476
 2047POPC   PO430084  16.889  19.882   9.540
 2047POPC   GL130085  16.751  19.917   9.143
 2047POPC   GL230086  16.549  20.197   9.168
 2047POPC   C1A30087  16.762  19.672   8.768
 2047POPC   D2A30088  16.846  19.527   8.347
 2047POPC   C3A30089  16.561  19.677   8.007
 2047POPC   C4A30090  16.650  19.727   7.581
 2047POPC   C1B30091  16.335  19.981   8.808
 2047POPC   C2B30092  16.528  19.996   8.403
 2047POPC   C3B30093  16.716  20.181   8.013
 2047POPC   C4B30094  16.613  20.240   7.571
 2048POPC   NC330095   4.882  36.688   9.614
 2048POPC   PO430096   5.228  37.193   9.474
 2048POPC   GL130097   5.233  36.991   9.087
 2048POPC   GL230098   5.054  36.689   9.136
 2048POPC   C1A30099   5.052  37.054   8.683
 2048POPC   D2A30100   5.321  37.030   8.330
 2048POPC   C3A30101   5.140  36.910   7.970
 2048POPC   C4A30102   5.030  37.177   7.631
 2048POPC   C1B30103   4.801  36.561   8.787
 2048POPC   C2B30104   4.695  36.708   8.383
 2048POPC   C3B30105   4.696  36.606   7.966
 2048POPC   C4B30106   4.883  36.655   7.579
 2049POPC   NC330107  43.095  22.579   9.518
 2049POPC   PO430108  43.323  23.320   9.434
 2049POPC   GL130109  43.100  23.132   9.085
 2049POPC   GL230110  43.189  22.778   9.064
 2049POPC   C1A30111  43.088  23.128   8.632
 2049POPC   D2A30112  43.281  23.044   8.241
 2049POPC   C3A30113  42.967  23.121   7.950
 2049POPC   C4A30114  42.784  23.004   7.571
 2049POPC   C1B30115  43.338  22.652   8.644
 2049POPC   C2B30116  43.081  22.561   8.292
 2049POPC   C3B30117  43.186  22.595   7.900
 2049POPC   C4B30118  43.424  22.904   7.751
 2050POPC   NC330119  16.393   3.714   9.451
 2050POPC   PO430120  15.795   3.431   9.645
 2050POPC   GL130121  15.963   3.567   9.228
 2050POPC   GL230122  15.866   3.930   9.220
 2050POPC   C1A30123  16.108   3.368   8.831
 2050POPC   D2A30124  16.171   3.574   8.411
 2050POPC   C3A30125  16.082   3.369   8.028
 2050POPC   C4A30126  15.770   3.557   7.756
 2050POPC   C1B30127  16.093   3.909   8.810
 2050POPC   C2B30128  16.307   4.123   8.489
 2050POPC   C3B30129  16.197   4.061   8.065
 2050POPC   C4B30130  16.175   3.955   7.636
 2051POPC   NC330131  14.514  32.367   9.425
 2051POPC   PO430132  14.647  31.841   9.302
 2051POPC   GL130133  14.468  32.103   8.983
 2051POPC   GL230134  14.141  32.246   9.056
 2051POPC   C1A30135  14.396  32.343   8.615
 2051POPC   D2A30136  14.421  32.193   8.207
 2051POPC   C3A30137  14.334  32.455   7.887
 2051POPC   C4A30138  14.574  32.615   7.552
 2051POPC   C1B30139  14.066  31.951   8.679
 2051POPC   C2B30140  14.126  31.778   8.249
 2051POPC   C3B30141  14.100  31.999   7.830
 2051POPC   C4B30142  14.154  32.259   7.427
 2052POPC   NC330143   6.036   6.237   9.551
 2052POPC   PO430144   5.525   6.741   9.477
 2052POPC   GL130145   5.705   6.533   9.134
 2052POPC   GL230146   6.070   6.545   9.134
 2052POPC   C1A30147   5.817   6.738   8.742
 2052POPC   D2A30148   5.938   6.894   8.329
 2052POPC   C3A30149   5.690   6.932   7.966
 2052POPC   C4A30150   5.645   6.799   7.555
 2052POPC   C1B30151   6.168   6.356   8.730
 2052POPC   C2B30152   5.967   6.382   8.343
 2052POPC   C3B30153   5.890   6.475   7.926
 2052POPC   C4B30154   6.078   6.527   7.508
 2053POPC   NC330155  43.375  12.051   9.415
 2053POPC   PO430156  42.766  11.638   9.466
 2053POPC   GL130157  42.952  11.921   9.124
 2053POPC   GL230158  43.002  12.266   9.130
 2053POPC   C1A30159  42.992  11.872   8.680
 2053POPC   D2A30160  43.091  11.669   8.301
 2053POPC   C3A30161  42.878  11.917   8.012
 2053POPC   C4A30162  42.716  11.915   7.616
 2053POPC   C1B30163  43.334  12.243   8.798
 2053POPC   C2B30164  43.416  12.067   8.394
 2053POPC   C3B30165  43.373  12.024   7.957
 2053POPC   C4B30166  43.531  12.340   7.686
 2054POPC   NC330167  40.830  36.335   9.613
 2054POPC   PO430168  41.244  35.829   9.506
 2054POPC   GL130169  41.070  36.132   9.183
 2054POPC   GL230170  40.679  36.094   9.179
 2054POPC   C1A30171  40.915  36.279   8.765
 2054POPC   D2A30172  40.675  36.067   8.425
 2054POPC   C3A30173  40.867  36.169   8.024
 2054POPC   C4A30174  40.649  36.357   7.683
 2054POPC   C1B30175  40.802  35.785   8.862
 2054POPC   C2B30176  40.720  35.565   8.469
 2054POPC   C3B30177  40.818  35.657   8.051
 2054POPC   C4B30178  40.719  35.828   7.653
 2055POPC   NC330179  14.648   7.839   9.517
 2055POPC   PO430180  14.225   8.280   9.805
 2055POPC   GL130181  14.208   8.135   9.281
 2055POPC   GL230182  14.521   8.246   9.110
 2055POPC   C1A30183  14.201   7.871   8.878
 2055POPC   D2A30184  13.957   7.777   8.479
 2055POPC   C3A30185  14.145   7.793   8.085
 2055POPC   C4A30186  13.951   7.730   7.680
 2055POPC   C1B30187  14.602   8.141   8.665
 2055POPC   C2B30188  14.480   8.353   8.295
 2055POPC   C3B30189  14.439   8.477   7.890
 2055POPC   C4B30190  14.285   8.144   7.651
 2056POPC   NC330191  13.683  40.925   9.441
 2056POPC   PO430192  13.397  40.306   9.503
 2056POPC   GL130193  13.368  40.564   9.136
 2056POPC   GL230194  13.704  40.743   8.969
 2056POPC   C1A30195  13.374  40.442   8.714
 2056POPC   D2A30196  13.574  40.648   8.393
 2056POPC   C3A30197  13.338  40.730   8.026
 2056POPC   C4A30198  13.409  40.593   7.656
 2056POPC   C1B30199  13.736  41.084   8.607
 2056POPC   C2B30200  13.638  41.142   8.167
 2056POPC   C3B30201  13.744  40.974   7.777
 2056POPC   C4B30202  13.988  41.128   7.412
 2057POPC   NC330203   6.942  37.511   9.412
 2057POPC   PO430204   6.420  37.905   9.452
 2057POPC   GL130205   6.602  37.751   9.105
 2057POPC   GL230206   6.948  37.865   9.053
 2057POPC   C1A30207   6.427  37.534   8.787
 2057POPC   D2A30208   6.449  37.776   8.436
 2057POPC   C3A30209   6.386  37.589   8.037
 2057POPC   C4A30210   6.408  37.762   7.662
 2057POPC   C1B30211   6.937  37.537   8.725
 2057POPC   C2B30212   6.820  37.456   8.293
 2057POPC   C3B30213   6.874  37.727   7.906
 2057POPC   C4B30214   6.860  37.758   7.411
 2058POPC   NC330215   3.928   8.171   9.504
 2058POPC   PO430216   3.336   8.510   9.538
 2058POPC   GL130217   3.547   8.293   9.153
 2058POPC   GL230218   3.324   8.054   8.934
 2058POPC   C1A30219   3.690   8.289   8.693
 2058POPC   D2A30220   3.532   8.195   8.284
 2058POPC   C3A30221   3.676   8.496   7.990
 2058POPC   C4A30222   3.873   8.500   7.598
 2058POPC   C1B30223   3.590   7.779   8.638
 2058POPC   C2B30224   3.701   7.725   8.184
 2058POPC   C3B30225   3.630   7.999   7.797
 2058POPC   C4B30226   3.290   8.016   7.486
 2059POPC   NC330227   5.994  40.994   9.474
 2059POPC   PO430228   5.828  40.321   9.482
 2059POPC   GL130229   5.670  40.675   9.198
 2059POPC   GL230230   5.864  40.955   9.006
 2059POPC   C1A30231   5.648  40.555   8.772
 2059POPC   D2A30232   5.883  40.542   8.407
 2059POPC   C3A30233   5.645  40.570   8.040
 2059POPC   C4A30234   5.777  40.633   7.648
 2059POPC   C1B30235   6.182  40.813   8.736
 2059POPC   C2B30236   6.125  41.003   8.329
 2059POPC   C3B30237   5.883  41.037   7.965
 2059POPC   C4B30238   5.910  41.094   7.536
 2060POPC   NC330239  40.731   1.419   9.983
 2060POPC   PO430240  41.260   1.122   9.499
 2060POPC   GL130241  40.998   1.147   9.156
 2060POPC   GL230242  40.713   1.387   9.250
 2060POPC   C1A30243  40.968   1.357   8.758
 2060POPC   D2A30244  41.061   1.562   8.374
 2060POPC   C3A30245  40.842   1.332   8.054
 2060POPC   C4A30246  41.061   1.075   7.797
 2060POPC   C1B30247  40.448   1.299   8.877
 2060POPC   C2B30248  40.439   1.148   8.435
 2060POPC   C3B30249  40.319   1.273   8.012
 2060POPC   C4B30250  40.495   1.279   7.581
 2061POPC   NC330251  36.446   2.432   9.310
 2061POPC   PO430252  36.937   2.981   9.241
 2061POPC   GL130253  36.841   2.621   9.049
 2061POPC   GL230254  36.541   2.773   8.966
 2061POPC   C1A30255  36.990   2.412   8.713
 2061POPC   D2A30256  37.209   2.544   8.365
 2061POPC   C3A30257  36.987   2.793   8.107
 2061POPC   C4A30258  37.082   2.901   7.687
 2061POPC   C1B30259  36.667   2.838   8.562
 2061POPC   C2B30260  36.522   3.154   8.269
 2061POPC   C3B30261  36.662   3.113   7.862
 2061POPC   C4B30262  36.559   2.887   7.482
 2062POPC   NC330263  25.207   1.740   9.276
 2062POPC   PO430264  24.796   2.232   9.477
 2062POPC   GL130265  25.088   2.214   9.146
 2062POPC   GL230266  25.428   2.261   9.303
 2062POPC   C1A30267  25.056   1.983   8.723
 2062POPC   D2A30268  25.305   1.828   8.411
 2062POPC   C3A30269  25.057   1.933   8.063
 2062POPC   C4A30270  25.238   1.917   7.668
 2062POPC   C1B30271  25.512   2.232   8.855
 2062POPC   C2B30272  25.356   2.346   8.440
 2062POPC   C3B30273  25.506   2.178   8.060
 2062POPC   C4B30274  25.712   2.130   7.694
 2063POPC   NC330275  37.455  43.320   9.539
 2063POPC   PO430276  37.926  42.797   9.632
 2063POPC   GL130277  37.960  42.934   9.213
 2063POPC   GL230278  37.935  42.628   9.039
 2063POPC   C1A30279  37.745  43.255   8.946
 2063POPC   D2A30280  37.651  43.506   8.591
 2063POPC   C3A30281  37.732  43.360   8.184
 2063POPC   C4A30282  37.692  43.283   7.753
 2063POPC   C1B30283  37.531  42.795   8.907
 2063POPC   C2B30284  37.515  43.011   8.513
 2063POPC   C3B30285  37.559  42.885   8.074
 2063POPC   C4B30286  37.656  42.761   7.652
 2064POPC   NC330287  26.619   3.316   9.486
 2064POPC   PO430288  26.800   3.945   9.680
 2064POPC   GL130289  26.755   3.761   9.206
 2064POPC   GL230290  26.934   3.391   9.103
 2064POPC   C1A30291  26.843   3.728   8.741
 2064POPC   D2A30292  26.622   3.571   8.396
 2064POPC   C3A30293  26.617   3.538   7.950
 2064POPC   C4A30294  26.276   3.588   7.649
 2064POPC   C1B30295  26.974   3.217   8.655
 2064POPC   C2B30296  26.923   3.200   8.187
 2064POPC   C3B30297  27.203   3.120   7.850
 2064POPC   C4B30298  27.035   3.108   7.464
 2065POPC   NC330299   3.338  33.932   9.563
 2065POPC   PO430300   3.805  33.415   9.468
 2065POPC   GL130301   3.503  33.603   9.164
 2065POPC   GL230302   3.180  33.797   9.118
 2065POPC   C1A30303   3.605  33.943   8.862
 2065POPC   D2A30304   3.800  34.108   8.480
 2065POPC   C3A30305   3.756  33.860   8.105
 2065POPC   C4A30306   3.846  33.677   7.707
 2065POPC   C1B30307   3.090  34.030   8.788
 2065POPC   C2B30308   3.323  33.925   8.427
 2065POPC   C3B30309   3.210  33.899   8.013
 2065POPC   C4B30310   3.076  34.116   7.658
 2066POPC   NC330311  28.962   0.261   9.352
 2066POPC   PO430312  29.384   0.700   9.709
 2066POPC   GL130313  29.232   0.708   9.235
 2066POPC   GL230314  29.340   0.396   9.043
 2066POPC   C1A30315  29.031   0.713   8.792
 2066POPC   D2A30316  28.963   0.858   8.374
 2066POPC   C3A30317  29.116   0.552   8.106
 2066POPC   C4A30318  29.105   0.541   7.684
 2066POPC   C1B30319  29.162   0.139   8.726
 2066POPC   C2B30320  29.341   0.044   8.355
 2066POPC   C3B30321  29.438   0.184   7.956
 2066POPC   C4B30322  29.202   0.052   7.611
 2067POPC   NC330323  15.518  33.648   9.495
 2067POPC   PO430324  14.946  33.620   9.422
 2067POPC   GL130325  15.010  33.871   9.053
 2067POPC   GL230326  15.328  33.942   9.058
 2067POPC   C1A30327  15.058  33.985   8.589
 2067POPC   D2A30328  15.098  33.660   8.235
 2067POPC   C3A30329  15.100  33.715   7.769
 2067POPC   C4A30330  14.903  33.989   7.468
 2067POPC   C1B30331  15.350  33.590   8.752
 2067POPC   C2B30332  15.561  33.464   8.346
 2067POPC   C3B30333  15.567  33.519   7.882
 2067POPC   C4B30334  15.465  33.542   7.409
 2068POPC   NC330335  42.059   6.009   9.573
 2068POPC   PO430336  42.792   6.201   9.407
 2068POPC   GL130337  42.503   5.965   9.138
 2068POPC   GL230338  42.136   5.883   9.103
 2068POPC   C1A30339  42.445   5.971   8.697
 2068POPC   D2A30340  42.177   6.084   8.348
 2068POPC   C3A30341  42.353   5.995   7.944
 2068POPC   C4A30342  42.215   5.890   7.524
 2068POPC   C1B30343  42.149   5.548   8.837
 2068POPC   C2B30344  42.285   5.545   8.416
 2068POPC   C3B30345  42.002   5.661   8.091
 2068POPC   C4B30346  41.969   5.501   7.716
 2069POPC   NC330347  26.339  31.010   9.352
 2069POPC   PO430348  25.811  30.553   9.451
 2069POPC   GL130349  25.892  30.780   9.139
 2069POPC   GL230350  25.559  30.986   9.163
 2069POPC   C1A30351  26.093  30.527   8.823
 2069POPC   D2A30352  26.228  30.311   8.440
 2069POPC   C3A30353  26.207  30.589   8.103
 2069POPC   C4A30354  26.093  30.584   7.703
 2069POPC   C1B30355  25.726  31.051   8.766
 2069POPC   C2B30356  26.041  30.938   8.493
 2069POPC   C3B30357  25.833  30.957   8.128
 2069POPC   C4B30358  25.687  30.916   7.719
 2070POPC   NC330359  16.301  24.834   9.502
 2070POPC   PO430360  15.770  24.476   9.438
 2070POPC   GL130361  16.058  24.607   9.119
 2070POPC   GL230362  15.915  24.920   9.155
 2070POPC   C1A30363  16.181  24.609   8.682
 2070POPC   D2A30364  15.894  24.539   8.359
 2070POPC   C3A30365  15.969  24.502   7.903
 2070POPC   C4A30366  15.955  24.184   7.558
 2070POPC   C1B30367  15.711  24.824   8.770
 2070POPC   C2B30368  15.426  24.851   8.440
 2070POPC   C3B30369  15.504  24.661   8.082
 2070POPC   C4B30370  15.624  24.799   7.672
 2071POPC   NC330371  24.078   4.351   9.395
 2071POPC   PO430372  23.477   4.075   9.552
 2071POPC   GL130373  23.614   4.206   9.145
 2071POPC   GL230374  23.904   3.993   9.043
 2071POPC   C1A30375  23.764   4.422   8.754
 2071POPC   D2A30376  23.960   4.362   8.340
 2071POPC   C3A30377  23.817   4.615   7.992
 2071POPC   C4A30378  23.868   4.519   7.541
 2071POPC   C1B30379  23.583   3.935   8.700
 2071POPC   C2B30380  23.501   4.108   8.280
 2071POPC   C3B30381  23.766   4.122   7.909
 2071POPC   C4B30382  24.010   3.995   7.565
 2072POPC   NC330383  40.404  18.437   9.975
 2072POPC   PO430384  39.919  18.118   9.614
 2072POPC   GL130385  39.979  18.044   9.195
 2072POPC   GL230386  39.980  18.407   9.140
 2072POPC   C1A30387  40.110  18.126   8.752
 2072POPC   D2A30388  39.911  18.427   8.466
 2072POPC   C3A30389  39.968  18.286   8.051
 2072POPC   C4A30390  39.771  18.105   7.695
 2072POPC   C1B30391  40.248  18.616   8.820
 2072POPC   C2B30392  40.387  18.665   8.381
 2072POPC   C3B30393  40.385  18.588   7.929
 2072POPC   C4B30394  40.080  18.579   7.651
 2073POPC   NC330395  41.631  16.573   9.429
 2073POPC   PO430396  41.766  17.247   9.328
 2073POPC   GL130397  41.588  16.992   9.088
 2073POPC   GL230398  41.890  16.790   9.030
 2073POPC   C1A30399  41.544  16.884   8.671
 2073POPC   D2A30400  41.394  16.577   8.413
 2073POPC   C3A30401  41.338  16.686   7.998
 2073POPC   C4A30402  41.222  16.602   7.575
 2073POPC   C1B30403  41.737  16.413   8.791
 2073POPC   C2B30404  41.758  16.219   8.361
 2073POPC   C3B30405  41.872  16.402   7.966
 2073POPC   C4B30406  41.731  16.728   7.681
 2074POPC   NC330407  43.646  32.044   9.365
 2074POPC   PO430408  44.220  32.036   9.730
 2074POPC   GL130409  44.140  32.154   9.271
 2074POPC   GL230410  43.893  32.444   9.183
 2074POPC   C1A30411  44.070  32.170   8.794
 2074POPC   D2A30412  43.681  32.274   8.569
 2074POPC   C3A30413  43.652  32.200   8.131
 2074POPC   C4A30414  43.754  32.201   7.696
 2074POPC   C1B30415  43.927  32.697   8.803
 2074POPC   C2B30416  44.141  32.577   8.438
 2074POPC   C3B30417  44.125  32.393   8.044
 2074POPC   C4B30418  44.078  32.576   7.644
 2075POPC   NC330419  36.311  32.759   9.472
 2075POPC   PO430420  35.976  33.280   9.486
 2075POPC   GL130421  36.228  33.152   9.124
 2075POPC   GL230422  36.510  32.898   9.035
 2075POPC   C1A30423  36.089  32.933   8.750
 2075POPC   D2A30424  36.001  33.096   8.348
 2075POPC   C3A30425  36.143  32.865   7.982
 2075POPC   C4A30426  36.291  33.180   7.701
 2075POPC   C1B30427  36.576  33.087   8.635
 2075POPC   C2B30428  36.559  33.103   8.181
 2075POPC   C3B30429  36.696  32.896   7.771
 2075POPC   C4B30430  36.600  33.049   7.328
 2076POPC   NC330431  26.327  44.877   9.420
 2076POPC   PO430432  25.624  44.857   9.387
 2076POPC   GL130433  25.933  44.675   9.152
 2076POPC   GL230434  25.926  44.332   9.236
 2076POPC   C1A30435  26.222  44.631   8.808
 2076POPC   D2A30436  26.191  44.422   8.423
 2076POPC   C3A30437  25.908  44.645   8.150
 2076POPC   C4A30438  26.095  44.800   7.790
 2076POPC   C1B30439  25.793  44.323   8.800
 2076POPC   C2B30440  25.736  44.193   8.382
 2076POPC   C3B30441  25.584  44.244   7.964
 2076POPC   C4B30442  25.725  44.488   7.636
 2077POPC   NC330443  32.067   2.293   9.409
 2077POPC   PO430444  32.670   2.054   9.554
 2077POPC   GL130445  32.399   1.964   9.184
 2077POPC   GL230446  32.097   2.055   8.965
 2077POPC   C1A30447  32.449   1.738   8.797
 2077POPC   D2A30448  32.284   1.640   8.415
 2077POPC   C3A30449  32.387   1.836   8.024
 2077POPC   C4A30450  32.065   1.992   7.718
 2077POPC   C1B30451  32.268   2.172   8.564
 2077POPC   C2B30452  32.262   2.345   8.127
 2077POPC   C3B30453  32.155   2.497   7.707
 2077POPC   C4B30454  31.948   2.335   7.296
 2078POPC   NC330455   1.316  40.278   9.498
 2078POPC   PO430456   0.989  40.876   9.537
 2078POPC   GL130457   1.208  40.859   9.157
 2078POPC   GL230458   1.451  40.585   9.107
 2078POPC   C1A30459   1.038  40.785   8.752
 2078POPC   D2A30460   0.713  40.659   8.469
 2078POPC   C3A30461   0.864  40.801   8.081
 2078POPC   C4A30462   1.018  40.638   7.704
 2078POPC   C1B30463   1.547  40.890   8.773
 2078POPC   C2B30464   1.375  40.919   8.359
 2078POPC   C3B30465   1.453  40.823   7.921
 2078POPC   C4B30466   1.353  40.972   7.495
 2079POPC   NC330467  20.488  15.375   9.885
 2079POPC   PO430468  20.776  15.426   9.267
 2079POPC   GL130469  20.802  15.183   8.944
 2079POPC   GL230470  20.435  15.182   8.969
 2079POPC   C1A30471  20.986  15.146   8.550
 2079POPC   D2A30472  20.860  15.101   8.158
 2079POPC   C3A30473  20.603  15.364   7.931
 2079POPC   C4A30474  20.720  15.422   7.493
 2079POPC   C1B30475  20.456  15.244   8.516
 2079POPC   C2B30476  20.351  14.973   8.186
 2079POPC   C3B30477  20.567  14.829   7.840
 2079POPC   C4B30478  20.319  15.095   7.597
 2080POPC   NC330479  16.985   0.506   9.474
 2080POPC   PO430480  16.533   0.158   9.795
 2080POPC   GL130481  16.662   0.156   9.268
 2080POPC   GL230482  16.847   0.452   9.007
 2080POPC   C1A30483  16.700   0.034   8.794
 2080POPC   D2A30484  16.507   0.102   8.361
 2080POPC   C3A30485  16.658   0.339   7.986
 2080POPC   C4A30486  16.542   0.729   7.752
 2080POPC   C1B30487  16.994   0.741   8.657
 2080POPC   C2B30488  17.010   0.665   8.199
 2080POPC   C3B30489  17.045   0.614   7.767
 2080POPC   C4B30490  17.174   0.797   7.408
 2081POPC   NC330491  17.202   2.084   9.392
 2081POPC   PO430492  17.655   1.587   9.649
 2081POPC   GL130493  17.625   1.823   9.301
 2081POPC   GL230494  17.333   1.639   9.182
 2081POPC   C1A30495  17.662   1.906   8.876
 2081POPC   D2A30496  17.697   1.824   8.441
 2081POPC   C3A30497  17.675   2.142   8.124
 2081POPC   C4A30498  17.603   2.015   7.706
 2081POPC   C1B30499  17.165   1.802   8.791
 2081POPC   C2B30500  17.220   2.097   8.450
 2081POPC   C3B30501  17.156   2.043   8.010
 2081POPC   C4B30502  17.104   2.133   7.587
 2082POPC   NC330503  14.474  16.487   9.604
 2082POPC   PO430504  14.716  15.857   9.515
 2082POPC   GL130505  14.452  16.068   9.191
 2082POPC   GL230506  14.181  15.836   9.139
 2082POPC   C1A30507  14.399  16.205   8.721
 2082POPC   D2A30508  14.318  16.318   8.271
 2082POPC   C3A30509  14.298  16.045   7.928
 2082POPC   C4A30510  14.192  16.169   7.486
 2082POPC   C1B30511  14.346  15.701   8.747
 2082POPC   C2B30512  14.564  15.824   8.371
 2082POPC   C3B30513  14.795  15.864   8.005
 2082POPC   C4B30514  14.602  15.830   7.600
 2083POPC   NC330515  11.945  32.356   9.452
 2083POPC   PO430516  12.414  32.717   9.607
 2083POPC   GL130517  12.215  32.712   9.175
 2083POPC   GL230518  12.481  32.577   8.936
 2083POPC   C1A30519  12.000  32.578   8.775
 2083POPC   D2A30520  12.239  32.564   8.350
 2083POPC   C3A30521  11.957  32.500   7.969
 2083POPC   C4A30522  11.769  32.336   7.574
 2083POPC   C1B30523  12.326  32.188   8.728
 2083POPC   C2B30524  12.137  32.067   8.325
 2083POPC   C3B30525  12.292  32.108   7.895
 2083POPC   C4B30526  12.615  31.871   7.656
 2084POPC   NC330527  41.935  28.639   9.737
 2084POPC   PO430528  42.225  29.273   9.593
 2084POPC   GL130529  42.288  29.225   9.155
 2084POPC   GL230530  42.630  29.191   9.118
 2084POPC   C1A30531  42.248  29.294   8.697
 2084POPC   D2A30532  42.463  29.157   8.320
 2084POPC   C3A30533  42.280  29.097   7.884
 2084POPC   C4A30534  42.279  29.175   7.418
 2084POPC   C1B30535  42.485  28.846   8.822
 2084POPC   C2B30536  42.588  28.641   8.425
 2084POPC   C3B30537  42.639  28.760   7.995
 2084POPC   C4B30538  42.571  28.765   7.536
 2085POPC   NC330539  40.113  34.212   9.864
 2085POPC   PO430540  39.752  33.682   9.569
 2085POPC   GL130541  39.948  33.769   9.129
 2085POPC   GL230542  39.639  33.842   8.999
 2085POPC   C1A30543  40.201  33.756   8.763
 2085POPC   D2A30544  40.280  33.957   8.360
 2085POPC   C3A30545  40.282  33.629   8.021
 2085POPC   C4A30546  40.164  33.737   7.609
 2085POPC   C1B30547  39.720  33.557   8.687
 2085POPC   C2B30548  39.882  33.609   8.334
 2085POPC   C3B30549  39.756  33.601   7.945
 2085POPC   C4B30550  39.627  33.849   7.639
 2086POPC   NC330551  17.828  20.959   9.553
 2086POPC   PO430552  17.425  20.378   9.643
 2086POPC   GL130553  17.428  20.687   9.322
 2086POPC   GL230554  17.760  20.587   9.194
 2086POPC   C1A30555  17.275  20.761   8.897
 2086POPC   D2A30556  17.497  20.896   8.503
 2086POPC   C3A30557  17.448  20.713   8.077
 2086POPC   C4A30558  17.193  20.937   7.724
 2086POPC   C1B30559  17.681  20.487   8.779
 2086POPC   C2B30560  17.871  20.572   8.391
 2086POPC   C3B30561  17.913  20.331   8.078
 2086POPC   C4B30562  17.610  20.320   7.756
 2087POPC   NC330563  37.143  30.574   9.502
 2087POPC   PO430564  36.473  30.676   9.560
 2087POPC   GL130565  36.698  30.660   9.195
 2087POPC   GL230566  36.973  30.808   9.058
 2087POPC   C1A30567  36.517  30.638   8.767
 2087POPC   D2A30568  36.540  30.504   8.332
 2087POPC   C3A30569  36.923  30.598   8.113
 2087POPC   C4A30570  36.920  30.548   7.684
 2087POPC   C1B30571  36.700  31.093   8.773
 2087POPC   C2B30572  36.632  31.002   8.321
 2087POPC   C3B30573  36.660  30.990   7.849
 2087POPC   C4B30574  36.814  30.985   7.391
 2088POPC   NC330575  25.152   5.642   9.516
 2088POPC   PO430576  25.751   5.471   9.396
 2088POPC   GL130577  25.532   5.855   9.202
 2088POPC   GL230578  25.172   5.930   9.084
 2088POPC   C1A30579  25.539   5.863   8.745
 2088POPC   D2A30580  25.194   5.899   8.449
 2088POPC   C3A30581  25.248   5.736   8.049
 2088POPC   C4A30582  25.233   5.917   7.641
 2088POPC   C1B30583  24.864   6.106   8.800
 2088POPC   C2B30584  24.863   6.291   8.404
 2088POPC   C3B30585  25.068   6.227   8.027
 2088POPC   C4B30586  24.918   6.338   7.643
 2089POPC   NC330587  33.243   0.754   9.601
 2089POPC   PO430588  32.977   0.182   9.484
 2089POPC   GL130589  33.051   0.490   9.187
 2089POPC   GL230590  33.394   0.453   9.189
 2089POPC   C1A30591  33.168   0.647   8.768
 2089POPC   D2A30592  32.975   0.483   8.394
 2089POPC   C3A30593  33.077   0.664   7.982
 2089POPC   C4A30594  32.845   0.635   7.570
 2089POPC   C1B30595  33.235   0.149   8.822
 2089POPC   C2B30596  33.438   0.048   8.419
 2089POPC   C3B30597  33.165   0.148   8.071
 2089POPC   C4B30598  33.128   0.197   7.639
 2090POPC   NC330599  32.561  10.749   9.537
 2090POPC   PO430600  33.083  10.308   9.465
 2090POPC   GL130601  33.165  10.582   9.120
 2090POPC   GL230602  33.425  10.346   9.045
 2090POPC   C1A30603  32.970  10.739   8.710
 2090POPC   D2A30604  32.651  10.470   8.468
 2090POPC   C3A30605  32.730  10.392   8.015
 2090POPC   C4A30606  32.921  10.679   7.732
 2090POPC   C1B30607  33.289  10.353   8.644
 2090POPC   C2B30608  33.167  10.467   8.250
 2090POPC   C3B30609  33.198  10.265   7.847
 2090POPC   C4B30610  33.247  10.448   7.419
 2091POPC   NC330611  36.613   0.918   9.587
 2091POPC   PO430612  36.623   1.547   9.280
 2091POPC   GL130613  36.657   1.087   9.089
 2091POPC   GL230614  36.959   0.985   9.227
 2091POPC   C1A30615  36.728   0.974   8.624
 2091POPC   D2A30616  36.850   1.370   8.481
 2091POPC   C3A30617  36.903   1.449   8.078
 2091POPC   C4A30618  36.878   1.217   7.741
 2091POPC   C1B30619  37.129   1.154   8.848
 2091POPC   C2B30620  37.214   0.974   8.448
 2091POPC   C3B30621  37.296   1.076   8.022
 2091POPC   C4B30622  37.243   0.908   7.607
 2092POPC   NC330623  37.256   3.333   9.332
 2092POPC   PO430624  37.897   3.607   9.538
 2092POPC   GL130625  37.614   3.681   9.194
 2092POPC   GL230626  37.706   3.394   9.086
 2092POPC   C1A30627  37.493   3.842   8.841
 2092POPC   D2A30628  37.714   3.859   8.488
 2092POPC   C3A30629  37.487   3.647   8.182
 2092POPC   C4A30630  37.570   3.865   7.829
 2092POPC   C1B30631  37.617   3.365   8.668
 2092POPC   C2B30632  37.899   3.387   8.337
 2092POPC   C3B30633  37.961   3.514   7.960
 2092POPC   C4B30634  37.631   3.366   7.709
 2093POPC   NC330635   1.566  37.942   9.383
 2093POPC   PO430636   1.580  37.283   9.563
 2093POPC   GL130637   1.371  37.499   9.199
 2093POPC   GL230638   1.066  37.677   9.297
 2093POPC   C1A30639   1.206  37.609   8.779
 2093POPC   D2A30640   1.001  37.904   8.507
 2093POPC   C3A30641   1.040  37.970   8.062
 2093POPC   C4A30642   1.301  37.949   7.671
 2093POPC   C1B30643   0.752  37.535   8.997
 2093POPC   C2B30644   0.754  37.445   8.561
 2093POPC   C3B30645   1.010  37.474   8.193
 2093POPC   C4B30646   1.061  37.526   7.769
 2094POPC   NC330647  20.717  18.178   9.482
 2094POPC   PO430648  20.366  18.704   9.548
 2094POPC   GL130649  20.364  18.455   9.166
 2094POPC   GL230650  20.318  18.081   9.164
 2094POPC   C1A30651  20.337  18.371   8.726
 2094POPC   D2A30652  20.553  18.178   8.377
 2094POPC   C3A30653  20.375  18.061   8.012
 2094POPC   C4A30654  20.543  18.313   7.735
 2094POPC   C1B30655  20.540  17.901   8.804
 2094POPC   C2B30656  20.931  17.868   8.516
 2094POPC   C3B30657  20.968  18.013   8.052
 2094POPC   C4B30658  20.965  18.101   7.590
 2095POPC   NC330659   1.073  33.490   9.489
 2095POPC   PO430660   1.359  34.043   9.513
 2095POPC   GL130661   1.354  33.831   9.137
 2095POPC   GL230662   1.018  33.892   9.092
 2095POPC   C1A30663   1.275  33.748   8.688
 2095POPC   D2A30664   1.141  33.552   8.370
 2095POPC   C3A30665   1.207  33.805   8.051
 2095POPC   C4A30666   1.027  33.571   7.769
 2095POPC   C1B30667   0.804  33.913   8.719
 2095POPC   C2B30668   0.709  33.852   8.306
 2095POPC   C3B30669   0.775  34.037   7.898
 2095POPC   C4B30670   0.730  33.851   7.512
 2096POPC   NC330671  43.490  10.479   9.757
 2096POPC   PO430672  44.094  10.787   9.628
 2096POPC   GL130673  43.920  10.608   9.193
 2096POPC   GL230674  43.526  10.644   9.223
 2096POPC   C1A30675  44.096  10.282   8.835
 2096POPC   D2A30676  44.291  10.305   8.386
 2096POPC   C3A30677  44.039  10.052   8.065
 2096POPC   C4A30678  43.706  10.119   7.735
 2096POPC   C1B30679  43.608  10.455   8.810
 2096POPC   C2B30680  43.790  10.368   8.416
 2096POPC   C3B30681  43.846  10.525   8.001
 2096POPC   C4B30682  43.619  10.623   7.614
 2097POPC   NC330683  25.334   6.290   9.443
 2097POPC   PO430684  24.941   6.844   9.364
 2097POPC   GL130685  25.074   6.509   9.079
 2097POPC   GL230686  25.401   6.678   9.064
 2097POPC   C1A30687  25.306   6.342   8.708
 2097POPC   D2A30688  25.568   6.636   8.475
 2097POPC   C3A30689  25.347   6.640   8.111
 2097POPC   C4A30690  25.389   6.517   7.690
 2097POPC   C1B30691  25.150   6.834   8.702
 2097POPC   C2B30692  25.103   7.032   8.325
 2097POPC   C3B30693  24.958   6.940   7.910
 2097POPC   C4B30694  25.165   6.938   7.523
 2098POPC   NC330695  34.618  12.326   9.350
 2098POPC   PO430696  34.171  11.980   9.597
 2098POPC   GL130697  34.209  12.023   9.136
 2098POPC   GL230698  34.281  11.699   8.986
 2098POPC   C1A30699  34.373  12.113   8.692
 2098POPC   D2A30700  34.565  12.369   8.351
 2098POPC   C3A30701  34.538  12.242   7.909
 2098POPC   C4A30702  34.591  12.231   7.459
 2098POPC   C1B30703  34.575  11.646   8.608
 2098POPC   C2B30704  34.657  11.807   8.183
 2098POPC   C3B30705  34.376  11.759   7.807
 2098POPC   C4B30706  34.106  12.033   7.544
 2099POPC   NC330707   4.076  12.362   9.458
 2099POPC   PO430708   4.273  11.698   9.431
 2099POPC   GL130709   4.156  11.983   9.100
 2099POPC   GL230710   4.430  12.208   9.056
 2099POPC   C1A30711   4.145  12.057   8.641
 2099POPC   D2A30712   4.118  12.133   8.180
 2099POPC   C3A30713   4.417  11.951   7.876
 2099POPC   C4A30714   4.669  11.596   7.898
 2099POPC   C1B30715   4.477  12.455   8.680
 2099POPC   C2B30716   4.620  12.376   8.262
 2099POPC   C3B30717   4.396  12.462   7.889
 2099POPC   C4B30718   4.025  12.238   7.671
 2100POPC   NC330719  10.958  22.655   9.469
 2100POPC   PO430720  11.526  23.001   9.447
 2100POPC   GL130721  11.275  23.101   9.111
 2100POPC   GL230722  11.094  22.849   9.033
 2100POPC   C1A30723  11.325  23.292   8.717
 2100POPC   D2A30724  11.424  23.114   8.304
 2100POPC   C3A30725  11.460  23.334   7.928
 2100POPC   C4A30726  11.224  23.210   7.570
 2100POPC   C1B30727  11.353  22.771   8.701
 2100POPC   C2B30728  11.331  22.570   8.317
 2100POPC   C3B30729  11.276  22.759   7.936
 2100POPC   C4B30730  11.324  22.577   7.532
 2101POPC   NC330731  31.382  16.584   9.560
 2101POPC   PO430732  31.788  16.940   9.391
 2101POPC   GL130733  31.444  16.778   9.082
 2101POPC   GL230734  31.329  16.422   9.074
 2101POPC   C1A30735  31.298  16.764   8.641
 2101POPC   D2A30736  31.075  16.704   8.244
 2101POPC   C3A30737  31.096  17.059   7.947
 2101POPC   C4A30738  31.417  17.237   7.654
 2101POPC   C1B30739  31.514  16.303   8.670
 2101POPC   C2B30740  31.547  16.468   8.236
 2101POPC   C3B30741  31.557  16.807   7.938
 2101POPC   C4B30742  31.642  16.803   7.493
 2102POPC   NC330743   2.329  18.312   9.558
 2102POPC   PO430744   1.838  17.853   9.405
 2102POPC   GL130745   1.807  18.097   9.063
 2102POPC   GL230746   1.934  18.417   9.183
 2102POPC   C1A30747   2.153  18.150   8.799
 2102POPC   D2A30748   2.277  18.287   8.422
 2102POPC   C3A30749   1.968  18.185   8.115
 2102POPC   C4A30750   2.131  18.225   7.712
 2102POPC   C1B30751   1.951  18.641   8.780
 2102POPC   C2B30752   2.124  18.783   8.389
 2102POPC   C3B30753   2.136  18.659   7.967
 2102POPC   C4B30754   1.762  18.567   7.686
 2103POPC   NC330755  38.225  37.019   9.331
 2103POPC   PO430756  38.804  36.799   9.472
 2103POPC   GL130757  38.707  37.005   9.130
 2103POPC   GL230758  38.520  36.680   9.049
 2103POPC   C1A30759  38.468  37.088   8.743
 2103POPC   D2A30760  38.298  36.936   8.375
 2103POPC   C3A30761  38.419  37.033   7.960
 2103POPC   C4A30762  38.142  36.825   7.657
 2103POPC   C1B30763  38.860  36.754   8.735
 2103POPC   C2B30764  38.836  36.978   8.369
 2103POPC   C3B30765  38.886  36.808   8.018
 2103POPC   C4B30766  38.790  36.802   7.618
 2104POPC   NC330767  44.018  15.454   9.393
 2104POPC   PO430768  43.592  14.914   9.623
 2104POPC   GL130769  43.777  15.056   9.200
 2104POPC   GL230770  43.736  14.807   8.982
 2104POPC   C1A30771  43.978  15.220   8.781
 2104POPC   D2A30772  44.292  15.212   8.419
 2104POPC   C3A30773  44.168  15.477   8.056
 2104POPC   C4A30774  43.856  15.479   7.696
 2104POPC   C1B30775  43.474  15.131   8.766
 2104POPC   C2B30776  43.543  15.277   8.358
 2104POPC   C3B30777  43.847  15.089   8.097
 2104POPC   C4B30778  43.808  14.971   7.688
 2105POPC   NC330779  40.212  15.555   9.463
 2105POPC   PO430780  39.712  15.099   9.342
 2105POPC   GL130781  40.022  15.293   9.051
 2105POPC   GL230782  40.293  15.033   8.878
 2105POPC   C1A30783  39.788  15.429   8.703
 2105POPC   D2A30784  39.683  15.087   8.414
 2105POPC   C3A30785  39.918  15.053   8.023
 2105POPC   C4A30786  39.804  15.272   7.648
 2105POPC   C1B30787  40.279  15.370   8.611
 2105POPC   C2B30788  40.061  15.498   8.259
 2105POPC   C3B30789  40.244  15.414   7.864
 2105POPC   C4B30790  40.309  15.370   7.413
 2106POPC   NC330791   1.523  18.902   9.507
 2106POPC   PO430792   1.111  19.333   9.567
 2106POPC   GL130793   1.027  19.025   9.246
 2106POPC   GL230794   1.317  19.125   9.113
 2106POPC   C1A30795   0.997  18.911   8.772
 2106POPC   D2A30796   1.236  18.849   8.364
 2106POPC   C3A30797   0.924  18.942   8.068
 2106POPC   C4A30798   0.868  18.935   7.636
 2106POPC   C1B30799   1.513  18.919   8.798
 2106POPC   C2B30800   1.707  19.087   8.434
 2106POPC   C3B30801   1.678  18.902   8.055
 2106POPC   C4B30802   1.354  18.875   7.765
 2107POPC   NC330803  41.737  44.036   9.379
 2107POPC   PO430804  42.283  43.678   9.426
 2107POPC   GL130805  42.376  43.985   9.083
 2107POPC   GL230806  42.605  43.801   8.918
 2107POPC   C1A30807  42.461  44.168   8.630
 2107POPC   D2A30808  42.667  44.118   8.213
 2107POPC   C3A30809  42.408  43.890   7.915
 2107POPC   C4A30810  42.000  43.702   7.770
 2107POPC   C1B30811  42.258  43.662   8.685
 2107POPC   C2B30812  42.132  43.593   8.267
 2107POPC   C3B30813  42.367  43.376   7.946
 2107POPC   C4B30814  42.339  43.405   7.481
 2108POPC   NC330815  27.846  24.705   9.441
 2108POPC   PO430816  27.238  24.460   9.494
 2108POPC   GL130817  27.500  24.441   9.119
 2108POPC   GL230818  27.872  24.411   8.998
 2108POPC   C1A30819  27.456  24.674   8.735
 2108POPC   D2A30820  27.269  24.649   8.342
 2108POPC   C3A30821  27.552  24.602   8.005
 2108POPC   C4A30822  27.571  24.719   7.582
 2108POPC   C1B30823  27.581  24.197   8.672
 2108POPC   C2B30824  27.437  24.156   8.231
 2108POPC   C3B30825  27.500  24.166   7.768
 2108POPC   C4B30826  27.923  24.367   7.664
 2109POPC   NC330827   8.336  42.476   9.530
 2109POPC   PO430828   7.713  42.335   9.406
 2109POPC   GL130829   8.041  42.307   9.154
 2109POPC   GL230830   8.403  42.195   9.102
 2109POPC   C1A30831   8.157  42.582   8.849
 2109POPC   D2A30832   7.894  42.625   8.527
 2109POPC   C3A30833   8.114  42.595   8.176
 2109POPC   C4A30834   8.170  42.607   7.757
 2109POPC   C1B30835   8.157  42.040   8.755
 2109POPC   C2B30836   8.025  42.113   8.338
 2109POPC   C3B30837   8.227  42.121   7.935
 2109POPC   C4B30838   8.355  42.217   7.494
 2110POPC   NC330839  38.960  44.871   9.431
 2110POPC   PO430840  39.670  44.707   9.513
 2110POPC   GL130841  39.457  44.710   9.146
 2110POPC   GL230842  39.243  44.429   9.183
 2110POPC   C1A30843  39.198  44.808   8.786
 2110POPC   D2A30844  39.078  44.638   8.406
 2110POPC   C3A30845  39.163  44.894   8.044
 2110POPC   C4A30846  39.125  44.796   7.581
 2110POPC   C1B30847  39.330  44.281   8.761
 2110POPC   C2B30848  39.276  44.136   8.340
 2110POPC   C3B30849  39.246  44.407   7.979
 2110POPC   C4B30850  39.556  44.683   7.781
 2111POPC   NC330851  29.420  29.679   9.488
 2111POPC   PO430852  28.902  30.085   9.519
 2111POPC   GL130853  29.069  29.923   9.156
 2111POPC   GL230854  29.054  29.555   9.148
 2111POPC   C1A30855  29.219  29.822   8.749
 2111POPC   D2A30856  29.555  29.766   8.457
 2111POPC   C3A30857  29.395  29.709   8.043
 2111POPC   C4A30858  29.106  29.928   7.777
 2111POPC   C1B30859  28.734  29.647   8.870
 2111POPC   C2B30860  28.776  29.800   8.478
 2111POPC   C3B30861  28.849  29.605   8.114
 2111POPC   C4B30862  28.947  29.447   7.725
 2112POPC   NC330863  44.221  29.780   9.526
 2112POPC   PO430864  43.663  30.144   9.434
 2112POPC   GL130865  43.833  29.857   9.149
 2112POPC   GL230866  44.127  30.052   9.098
 2112POPC   C1A30867  43.842  29.875   8.710
 2112POPC   D2A30868  44.065  30.154   8.482
 2112POPC   C3A30869  44.009  30.024   8.132
 2112POPC   C4A30870  43.953  29.990   7.726
 2112POPC   C1B30871  44.312  29.717   8.825
 2112POPC   C2B30872  44.305  29.651   8.359
 2112POPC   C3B30873  44.331  29.697   7.893
 2112POPC   C4B30874  44.190  29.676   7.404
 2113POPC   NC330875  11.748  25.958   9.472
 2113POPC   PO430876  11.158  26.226   9.470
 2113POPC   GL130877  11.058  26.035   9.087
 2113POPC   GL230878  11.406  25.977   9.050
 2113POPC   C1A30879  11.085  25.915   8.650
 2113POPC   D2A30880  11.214  26.095   8.281
 2113POPC   C3A30881  11.150  25.885   7.921
 2113POPC   C4A30882  11.073  26.089   7.532
 2113POPC   C1B30883  11.587  26.004   8.635
 2113POPC   C2B30884  11.608  25.774   8.238
 2113POPC   C3B30885  11.670  25.839   7.776
 2113POPC   C4B30886  11.932  25.773   7.375
 2114POPC   NC330887  13.069  24.010   9.572
 2114POPC   PO430888  12.597  23.504   9.461
 2114POPC   GL130889  12.827  23.702   9.120
 2114POPC   GL230890  13.130  23.903   9.100
 2114POPC   C1A30891  12.909  23.682   8.680
 2114POPC   D2A30892  12.750  23.478   8.335
 2114POPC   C3A30893  12.914  23.525   7.898
 2114POPC   C4A30894  12.832  23.539   7.449
 2114POPC   C1B30895  13.247  24.057   8.759
 2114POPC   C2B30896  13.036  24.148   8.418
 2114POPC   C3B30897  13.109  24.098   8.016
 2114POPC   C4B30898  12.853  23.996   7.665
 2115POPC   NC330899  43.141  13.843   9.595
 2115POPC   PO430900  43.348  13.238   9.248
 2115POPC   GL130901  43.267  13.663   9.127
 2115POPC   GL230902  43.008  13.944   9.134
 2115POPC   C1A30903  43.166  13.659   8.728
 2115POPC   D2A30904  42.954  13.536   8.351
 2115POPC   C3A30905  43.154  13.581   7.960
 2115POPC   C4A30906  43.459  13.581   7.687
 2115POPC   C1B30907  42.972  14.135   8.790
 2115POPC   C2B30908  43.087  14.041   8.416
 2115POPC   C3B30909  42.889  13.993   8.086
 2115POPC   C4B30910  43.073  14.042   7.711
 2116POPC   NC330911  21.213  27.153   9.296
 2116POPC   PO430912  21.898  27.294   9.418
 2116POPC   GL130913  21.760  27.042   9.091
 2116POPC   GL230914  21.594  26.715   9.154
 2116POPC   C1A30915  21.579  26.943   8.692
 2116POPC   D2A30916  21.407  26.769   8.333
 2116POPC   C3A30917  21.083  26.971   8.103
 2116POPC   C4A30918  21.144  26.908   7.678
 2116POPC   C1B30919  21.698  26.448   8.776
 2116POPC   C2B30920  21.856  26.515   8.369
 2116POPC   C3B30921  21.726  26.672   7.950
 2116POPC   C4B30922  21.564  26.536   7.584
 2117POPC   NC330923  35.567   2.252   9.432
 2117POPC   PO430924  35.481   1.585   9.284
 2117POPC   GL130925  35.278   1.806   8.990
 2117POPC   GL230926  35.164   2.094   9.159
 2117POPC   C1A30927  35.362   2.008   8.604
 2117POPC   D2A30928  35.590   2.148   8.222
 2117POPC   C3A30929  35.444   1.936   7.809
 2117POPC   C4A30930  35.591   2.034   7.342
 2117POPC   C1B30931  34.936   2.248   8.851
 2117POPC   C2B30932  34.881   2.142   8.453
 2117POPC   C3B30933  35.097   2.244   8.091
 2117POPC   C4B30934  34.961   2.106   7.696
 2118POPC   NC330935   5.198  11.003   9.568
 2118POPC   PO430936   4.947  11.577   9.387
 2118POPC   GL130937   5.167  11.381   9.125
 2118POPC   GL230938   4.954  11.105   9.138
 2118POPC   C1A30939   5.152  11.470   8.697
 2118POPC   D2A30940   4.907  11.522   8.337
 2118POPC   C3A30941   5.172  11.429   7.975
 2118POPC   C4A30942   5.271  11.613   7.578
 2118POPC   C1B30943   4.827  11.073   8.762
 2118POPC   C2B30944   5.059  11.043   8.388
 2118POPC   C3B30945   4.796  11.095   8.025
 2118POPC   C4B30946   4.862  11.257   7.588
 2119POPC   NC330947  28.241   7.922   9.547
 2119POPC   PO430948  28.573   8.448   9.306
 2119POPC   GL130949  28.304   8.191   9.107
 2119POPC   GL230950  28.536   7.950   9.114
 2119POPC   C1A30951  28.110   8.136   8.717
 2119POPC   D2A30952  27.911   8.302   8.371
 2119POPC   C3A30953  28.137   8.256   8.000
 2119POPC   C4A30954  28.263   8.163   7.575
 2119POPC   C1B30955  28.558   7.808   8.721
 2119POPC   C2B30956  28.444   7.898   8.309
 2119POPC   C3B30957  28.622   8.062   7.952
 2119POPC   C4B30958  28.701   7.918   7.556
 2120POPC   NC330959  19.832   1.629   9.462
 2120POPC   PO430960  19.433   2.112   9.656
 2120POPC   GL130961  19.688   2.112   9.310
 2120POPC   GL230962  19.492   1.871   9.157
 2120POPC   C1A30963  19.949   2.017   8.937
 2120POPC   D2A30964  19.910   2.084   8.502
 2120POPC   C3A30965  20.070   1.853   8.136
 2120POPC   C4A30966  19.908   2.046   7.776
 2120POPC   C1B30967  19.526   1.757   8.762
 2120POPC   C2B30968  19.656   1.650   8.372
 2120POPC   C3B30969  19.495   1.738   7.974
 2120POPC   C4B30970  19.602   1.733   7.532
 2121POPC   NC330971   7.075   2.543   9.405
 2121POPC   PO430972   7.531   2.956   9.617
 2121POPC   GL130973   7.447   2.852   9.196
 2121POPC   GL230974   7.590   2.509   9.202
 2121POPC   C1A30975   7.262   2.990   8.805
 2121POPC   D2A30976   6.942   3.050   8.487
 2121POPC   C3A30977   7.122   2.996   8.068
 2121POPC   C4A30978   7.356   2.844   7.703
 2121POPC   C1B30979   7.382   2.487   8.811
 2121POPC   C2B30980   7.318   2.658   8.411
 2121POPC   C3B30981   7.514   2.505   8.053
 2121POPC   C4B30982   7.548   2.348   7.669
 2122POPC   NC330983  28.276  28.034   9.546
 2122POPC   PO430984  28.775  27.609   9.678
 2122POPC   GL130985  28.550  27.651   9.303
 2122POPC   GL230986  28.623  27.971   9.199
 2122POPC   C1A30987  28.277  27.677   8.931
 2122POPC   D2A30988  28.407  27.596   8.510
 2122POPC   C3A30989  28.198  27.504   8.107
 2122POPC   C4A30990  28.284  27.456   7.671
 2122POPC   C1B30991  28.750  27.830   8.826
 2122POPC   C2B30992  28.775  27.929   8.408
 2122POPC   C3B30993  28.645  27.742   8.040
 2122POPC   C4B30994  28.558  27.863   7.636
 2123POPC   NC330995  31.661  32.642   9.454
 2123POPC   PO430996  31.454  32.037   9.662
 2123POPC   GL130997  31.461  32.187   9.228
 2123POPC   GL230998  31.214  31.963   9.167
 2123POPC   C1A30999  31.570  32.249   8.775
 2123POPC   D2A31000  31.639  32.396   8.335
 2123POPC   C3A31001  31.569  32.211   7.894
 2123POPC   C4A31002  31.600  32.240   7.424
 2123POPC   C1B31003  31.073  32.187   8.832
 2123POPC   C2B31004  31.001  32.228   8.405
 2123POPC   C3B31005  31.186  32.457   8.075
 2123POPC   C4B31006  31.164  32.368   7.651
 2124POPC   NC331007  19.587  15.096   9.553
 2124POPC   PO431008  20.260  15.219   9.513
 2124POPC   GL131009  19.978  15.318   9.173
 2124POPC   GL231010  19.645  15.258   9.092
 2124POPC   C1A31011  20.008  15.338   8.732
 2124POPC   D2A31012  19.904  15.170   8.351
 2124POPC   C3A31013  20.059  15.364   7.983
 2124POPC   C4A31014  19.868  15.327   7.588
 2124POPC   C1B31015  19.647  14.951   8.756
 2124POPC   C2B31016  19.422  14.924   8.384
 2124POPC   C3B31017  19.456  15.189   8.012
 2124POPC   C4B31018  19.400  15.093   7.560
 2125POPC   NC331019  34.077   5.307   9.453
 2125POPC   PO431020  33.778   4.668   9.365
 2125POPC   GL131021  33.642   4.976   9.142
 2125POPC   GL231022  33.988   5.019   9.043
 2125POPC   C1A31023  33.621   5.040   8.706
 2125POPC   D2A31024  33.650   4.820   8.349
 2125POPC   C3A31025  33.436   5.026   8.004
 2125POPC   C4A31026  33.525   5.108   7.549
 2125POPC   C1B31027  34.079   5.290   8.701
 2125POPC   C2B31028  34.143   5.025   8.362
 2125POPC   C3B31029  33.973   4.868   7.966
 2125POPC   C4B31030  34.254   4.874   7.659
 2126POPC   NC331031   8.474  40.448   9.431
 2126POPC   PO431032   8.108  39.904   9.451
 2126POPC   GL131033   8.117  39.951   9.044
 2126POPC   GL231034   8.366  40.137   9.014
 2126POPC   C1A31035   7.819  39.984   8.714
 2126POPC   D2A31036   7.811  39.916   8.309
 2126POPC   C3A31037   8.116  40.109   8.064
 2126POPC   C4A31038   8.390  40.034   7.729
 2126POPC   C1B31039   8.299  40.033   8.555
 2126POPC   C2B31040   8.565  40.242   8.265
 2126POPC   C3B31041   8.495  40.479   7.913
 2126POPC   C4B31042   8.559  40.441   7.416
 2127POPC   NC331043  28.291  13.637   9.495
 2127POPC   PO431044  28.874  13.687   9.328
 2127POPC   GL131045  28.519  13.907   9.044
 2127POPC   GL231046  28.122  13.821   9.060
 2127POPC   C1A31047  28.323  13.870   8.605
 2127POPC   D2A31048  28.031  13.611   8.323
 2127POPC   C3A31049  28.253  13.341   8.046
 2127POPC   C4A31050  28.617  13.539   7.870
 2127POPC   C1B31051  27.813  13.941   8.718
 2127POPC   C2B31052  27.951  14.126   8.318
 2127POPC   C3B31053  28.322  13.973   8.085
 2127POPC   C4B31054  28.136  13.740   7.769
 2128POPC   NC331055  22.415  38.839   9.688
 2128POPC   PO431056  22.354  39.452   9.426
 2128POPC   GL131057  22.340  39.145   9.147
 2128POPC   GL231058  22.007  39.195   9.066
 2128POPC   C1A31059  22.366  39.039   8.714
 2128POPC   D2A31060  22.500  39.319   8.439
 2128POPC   C3A31061  22.319  39.370   8.055
 2128POPC   C4A31062  22.369  39.232   7.641
 2128POPC   C1B31063  21.930  39.335   8.658
 2128POPC   C2B31064  21.594  39.344   8.352
 2128POPC   C3B31065  21.641  39.233   7.933
 2128POPC   C4B31066  21.935  39.509   7.766
 2129POPC   NC331067   2.073  15.584   9.940
 2129POPC   PO431068   1.981  16.237   9.620
 2129POPC   GL131069   2.202  16.172   9.193
 2129POPC   GL231070   2.017  15.857   9.083
 2129POPC   C1A31071   2.227  16.099   8.721
 2129POPC   D2A31072   1.954  15.820   8.511
 2129POPC   C3A31073   1.968  15.947   8.103
 2129POPC   C4A31074   2.314  16.002   7.827
 2129POPC   C1B31075   1.697  15.567   8.893
 2129POPC   C2B31076   1.653  15.358   8.498
 2129POPC   C3B31077   1.693  15.491   8.074
 2129POPC   C4B31078   1.922  15.628   7.723
 2130POPC   NC331079  43.291   6.337   9.530
 2130POPC   PO431080  42.921   6.917   9.401
 2130POPC   GL131081  43.213   6.696   9.143
 2130POPC   GL231082  43.142   6.360   9.044
 2130POPC   C1A31083  43.442   6.753   8.770
 2130POPC   D2A31084  43.409   6.739   8.331
 2130POPC   C3A31085  43.210   6.409   8.117
 2130POPC   C4A31086  43.203   6.439   7.677
 2130POPC   C1B31087  43.042   6.443   8.631
 2130POPC   C2B31088  42.877   6.774   8.383
 2130POPC   C3B31089  42.903   6.811   7.938
 2130POPC   C4B31090  42.803   6.689   7.518
 2131POPC   NC331091  25.986  26.160   9.473
 2131POPC   PO431092  25.996  25.588   9.149
 2131POPC   GL131093  25.982  25.956   8.955
 2131POPC   GL231094  25.678  26.090   9.072
 2131POPC   C1A31095  26.075  25.852   8.538
 2131POPC   D2A31096  26.482  25.764   8.372
 2131POPC   C3A31097  26.394  25.959   8.061
 2131POPC   C4A31098  26.162  25.892   7.707
 2131POPC   C1B31099  25.650  26.201   8.639
 2131POPC   C2B31100  25.641  26.020   8.245
 2131POPC   C3B31101  25.747  26.140   7.833
 2131POPC   C4B31102  25.534  26.265   7.421
 2132POPC   NC331103  20.649  13.930   9.268
 2132POPC   PO431104  20.077  13.960   9.165
 2132POPC   GL131105  20.372  13.805   8.854
 2132POPC   GL231106  20.492  13.501   9.015
 2132POPC   C1A31107  20.782  13.859   8.622
 2132POPC   D2A31108  20.921  13.891   8.193
 2132POPC   C3A31109  20.623  13.704   7.922
 2132POPC   C4A31110  20.286  13.698   7.607
 2132POPC   C1B31111  20.549  13.387   8.581
 2132POPC   C2B31112  20.295  13.358   8.209
 2132POPC   C3B31113  20.421  13.254   7.803
 2132POPC   C4B31114  20.691  13.033   7.507
 2133POPC   NC331115   3.200  12.694   9.492
 2133POPC   PO431116   3.695  13.146   9.491
 2133POPC   GL131117   3.573  12.913   9.163
 2133POPC   GL231118   3.257  13.088   9.170
 2133POPC   C1A31119   3.520  12.818   8.734
 2133POPC   D2A31120   3.328  12.612   8.379
 2133POPC   C3A31121   3.499  12.798   7.997
 2133POPC   C4A31122   3.554  12.593   7.593
 2133POPC   C1B31123   3.286  13.273   8.780
 2133POPC   C2B31124   3.231  13.109   8.382
 2133POPC   C3B31125   3.200  13.221   7.971
 2133POPC   C4B31126   3.456  13.185   7.602
 2134POPC   NC331127   1.150  29.588   9.513
 2134POPC   PO431128   1.386  28.971   9.551
 2134POPC   GL131129   1.124  29.149   9.250
 2134POPC   GL231130   1.428  29.336   9.109
 2134POPC   C1A31131   0.987  29.324   8.852
 2134POPC   D2A31132   1.251  29.302   8.500
 2134POPC   C3A31133   1.103  29.260   8.079
 2134POPC   C4A31134   0.884  29.126   7.734
 2134POPC   C1B31135   1.689  29.196   8.717
 2134POPC   C2B31136   1.622  29.013   8.280
 2134POPC   C3B31137   1.567  29.187   7.842
 2134POPC   C4B31138   1.630  29.502   7.491
 2135POPC   NC331139  42.494  34.463   9.705
 2135POPC   PO431140  42.820  35.079   9.695
 2135POPC   GL131141  42.597  34.699   9.278
 2135POPC   GL231142  42.426  34.328   9.234
 2135POPC   C1A31143  42.275  34.676   8.892
 2135POPC   D2A31144  42.154  34.491   8.449
 2135POPC   C3A31145  42.205  34.781   8.074
 2135POPC   C4A31146  42.578  34.928   7.846
 2135POPC   C1B31147  42.399  34.159   8.819
 2135POPC   C2B31148  42.576  34.107   8.398
 2135POPC   C3B31149  42.621  34.045   7.948
 2135POPC   C4B31150  42.356  34.409   7.759
 2136POPC   NC331151  37.250  33.041   9.612
 2136POPC   PO431152  36.598  33.109   9.519
 2136POPC   GL131153  36.719  33.344   9.165
 2136POPC   GL231154  36.988  33.102   9.166
 2136POPC   C1A31155  36.931  33.431   8.774
 2136POPC   D2A31156  37.064  33.233   8.384
 2136POPC   C3A31157  36.952  33.307   7.933
 2136POPC   C4A31158  37.092  33.140   7.503
 2136POPC   C1B31159  37.038  32.894   8.815
 2136POPC   C2B31160  37.337  32.821   8.503
 2136POPC   C3B31161  37.107  32.759   8.150
 2136POPC   C4B31162  37.181  32.715   7.758
 2137POPC   NC331163  10.833   1.935   9.455
 2137POPC   PO431164  10.157   1.727   9.235
 2137POPC   GL131165  10.523   1.893   9.027
 2137POPC   GL231166  10.568   2.216   9.093
 2137POPC   C1A31167  10.724   1.727   8.632
 2137POPC   D2A31168  10.398   1.667   8.373
 2137POPC   C3A31169  10.388   1.783   7.944
 2137POPC   C4A31170  10.416   1.760   7.489
 2137POPC   C1B31171  10.496   2.184   8.632
 2137POPC   C2B31172  10.268   2.334   8.318
 2137POPC   C3B31173  10.416   2.295   7.926
 2137POPC   C4B31174  10.302   2.266   7.510
 2138POPC   NC331175  34.950  28.883   9.389
 2138POPC   PO431176  34.431  29.323   9.522
 2138POPC   GL131177  34.707  29.272   9.174
 2138POPC   GL231178  34.483  28.998   9.098
 2138POPC   C1A31179  34.832  29.098   8.751
 2138POPC   D2A31180  34.751  29.021   8.303
 2138POPC   C3A31181  34.524  29.333   8.052
 2138POPC   C4A31182  34.426  29.281   7.642
 2138POPC   C1B31183  34.326  29.154   8.662
 2138POPC   C2B31184  34.237  28.946   8.238
 2138POPC   C3B31185  34.495  28.811   7.862
 2138POPC   C4B31186  34.562  28.831   7.403
 2139POPC   NC331187   3.166  12.026   9.284
 2139POPC   PO431188   3.630  12.463   9.469
 2139POPC   GL131189   3.636  12.223   9.158
 2139POPC   GL231190   3.673  11.886   9.278
 2139POPC   C1A31191   3.472  12.311   8.779
 2139POPC   D2A31192   3.773  12.380   8.475
 2139POPC   C3A31193   3.664  12.313   8.029
 2139POPC   C4A31194   3.475  12.101   7.671
 2139POPC   C1B31195   3.692  11.839   8.827
 2139POPC   C2B31196   3.795  11.724   8.421
 2139POPC   C3B31197   3.710  11.763   8.010
 2139POPC   C4B31198   3.386  11.599   7.749
 2140POPC   NC331199  21.013  21.434   9.359
 2140POPC   PO431200  20.404  21.697   9.362
 2140POPC   GL131201  20.522  21.481   9.052
 2140POPC   GL231202  20.549  21.145   9.196
 2140POPC   C1A31203  20.617  21.621   8.644
 2140POPC   D2A31204  20.905  21.602   8.309
 2140POPC   C3A31205  20.627  21.556   7.985
 2140POPC   C4A31206  20.329  21.227   7.902
 2140POPC   C1B31207  20.745  21.126   8.766
 2140POPC   C2B31208  20.664  21.132   8.320
 2140POPC   C3B31209  20.806  21.018   7.908
 2140POPC   C4B31210  21.096  21.005   7.565
 2141POPC   NC331211  28.202  28.710   9.474
 2141POPC   PO431212  27.702  29.182   9.494
 2141POPC   GL131213  27.441  29.171   9.104
 2141POPC   GL231214  27.178  28.885   9.062
 2141POPC   C1A31215  27.543  29.249   8.654
 2141POPC   D2A31216  27.850  29.405   8.352
 2141POPC   C3A31217  27.744  29.393   7.921
 2141POPC   C4A31218  27.357  29.375   7.789
 2141POPC   C1B31219  27.542  28.760   8.822
 2141POPC   C2B31220  27.738  28.811   8.466
 2141POPC   C3B31221  27.524  28.962   8.126
 2141POPC   C4B31222  27.626  28.905   7.715
 2142POPC   NC331223  27.695  13.254   9.779
 2142POPC   PO431224  27.478  13.862   9.615
 2142POPC   GL131225  27.634  13.685   9.221
 2142POPC   GL231226  27.867  13.410   9.263
 2142POPC   C1A31227  27.431  13.567   8.831
 2142POPC   D2A31228  27.236  13.584   8.437
 2142POPC   C3A31229  27.512  13.739   8.134
 2142POPC   C4A31230  27.327  13.774   7.735
 2142POPC   C1B31231  27.923  13.435   8.794
 2142POPC   C2B31232  27.661  13.272   8.429
 2142POPC   C3B31233  27.741  13.323   7.959
 2142POPC   C4B31234  27.986  13.125   7.657
 2143POPC   NC331235  39.899  37.253   9.381
 2143POPC   PO431236  40.127  37.897   9.559
 2143POPC   GL131237  40.206  37.937   9.116
 2143POPC   GL231238  40.010  37.602   8.996
 2143POPC   C1A31239  40.345  37.819   8.668
 2143POPC   D2A31240  40.139  37.511   8.377
 2143POPC   C3A31241  40.246  37.617   7.937
 2143POPC   C4A31242  40.235  38.028   7.726
 2143POPC   C1B31243  39.765  37.298   8.701
 2143POPC   C2B31244  39.787  37.162   8.253
 2143POPC   C3B31245  39.785  37.353   7.850
 2143POPC   C4B31246  39.779  37.801   7.789
 2144POPC   NC331247  43.703  34.469   9.366
 2144POPC   PO431248  44.296  34.819   9.405
 2144POPC   GL131249  44.316  34.516   9.082
 2144POPC   GL231250  44.036  34.282   9.041
 2144POPC   C1A31251  44.244  34.538   8.639
 2144POPC   D2A31252  44.308  34.631   8.218
 2144POPC   C3A31253  44.082  34.891   7.971
 2144POPC   C4A31254  43.861  34.650   7.695
 2144POPC   C1B31255  43.741  34.398   8.684
 2144POPC   C2B31256  43.751  34.533   8.248
 2144POPC   C3B31257  43.712  34.224   7.933
 2144POPC   C4B31258  43.532  34.144   7.520
 2145POPC   NC331259  42.859  23.416   9.451
 2145POPC   PO431260  42.296  23.774   9.737
 2145POPC   GL131261  42.208  23.947   9.283
 2145POPC   GL231262  42.261  23.620   9.095
 2145POPC   C1A31263  42.301  24.061   8.837
 2145POPC   D2A31264  42.382  23.803   8.476
 2145POPC   C3A31265  42.183  23.899   8.073
 2145POPC   C4A31266  42.404  23.896   7.695
 2145POPC   C1B31267  42.606  23.438   8.812
 2145POPC   C2B31268  42.611  23.338   8.381
 2145POPC   C3B31269  42.483  23.412   7.963
 2145POPC   C4B31270  42.794  23.552   7.675
 2146POPC   NC331271  30.350  11.493   9.489
 2146POPC   PO431272  30.869  11.207   9.637
 2146POPC   GL131273  30.755  11.347   9.221
 2146POPC   GL231274  30.910  11.064   9.069
 2146POPC   C1A31275  30.550  11.306   8.808
 2146POPC   D2A31276  30.689  11.442   8.368
 2146POPC   C3A31277  30.650  11.248   7.965
 2146POPC   C4A31278  30.740  11.446   7.551
 2146POPC   C1B31279  30.900  10.996   8.608
 2146POPC   C2B31280  30.799  10.736   8.289
 2146POPC   C3B31281  30.987  10.799   7.897
 2146POPC   C4B31282  31.145  11.212   7.807
 2147POPC   NC331283  10.330   2.016   9.535
 2147POPC   PO431284   9.624   2.022   9.601
 2147POPC   GL131285   9.720   2.036   9.170
 2147POPC   GL231286  10.033   2.251   9.165
 2147POPC   C1A31287   9.564   1.876   8.769
 2147POPC   D2A31288   9.541   1.662   8.401
 2147POPC   C3A31289   9.496   1.899   8.049
 2147POPC   C4A31290   9.493   1.756   7.638
 2147POPC   C1B31291   9.993   2.158   8.720
 2147POPC   C2B31292   9.961   1.935   8.302
 2147POPC   C3B31293   9.956   2.082   7.853
 2147POPC   C4B31294   9.910   1.950   7.408
 2148POPC   NC331295  28.139   4.157   9.376
 2148POPC   PO431296  28.287   3.603   9.765
 2148POPC   GL131297  28.337   3.615   9.292
 2148POPC   GL231298  28.033   3.687   9.167
 2148POPC   C1A31299  28.340   3.397   8.860
 2148POPC   D2A31300  28.110   3.502   8.442
 2148POPC   C3A31301  28.263   3.303   8.028
 2148POPC   C4A31302  28.500   3.265   7.631
 2148POPC   C1B31303  28.263   3.884   8.802
 2148POPC   C2B31304  28.415   4.019   8.442
 2148POPC   C3B31305  28.301   3.827   8.072
 2148POPC   C4B31306  28.564   3.883   7.733
 2149POPC   NC331307   9.698  13.662   9.461
 2149POPC   PO431308  10.123  13.309   9.798
 2149POPC   GL131309   9.945  13.244   9.291
 2149POPC   GL231310   9.574  13.269   9.152
 2149POPC   C1A31311   9.926  13.531   8.872
 2149POPC   D2A31312   9.911  13.492   8.406
 2149POPC   C3A31313   9.856  13.719   8.015
 2149POPC   C4A31314  10.053  13.550   7.629
 2149POPC   C1B31315   9.466  13.356   8.701
 2149POPC   C2B31316   9.396  13.516   8.261
 2149POPC   C3B31317   9.375  13.607   7.807
 2149POPC   C4B31318   9.578  13.432   7.435
 2150POPC   NC331319  14.775  37.452   9.406
 2150POPC   PO431320  14.187  37.419   9.531
 2150POPC   GL131321  14.143  37.546   9.104
 2150POPC   GL231322  14.481  37.482   8.986
 2150POPC   C1A31323  14.239  37.804   8.703
 2150POPC   D2A31324  14.518  37.610   8.382
 2150POPC   C3A31325  14.497  37.817   7.989
 2150POPC   C4A31326  14.579  37.755   7.560
 2150POPC   C1B31327  14.207  37.290   8.665
 2150POPC   C2B31328  14.271  37.137   8.244
 2150POPC   C3B31329  14.553  37.298   7.907
 2150POPC   C4B31330  14.658  37.255   7.447
 2151POPC   NC331331   6.934  11.257   9.356
 2151POPC   PO431332   6.293  11.340   9.578
 2151POPC   GL131333   6.436  11.055   9.230
 2151POPC   GL231334   6.497  11.387   9.100
 2151POPC   C1A31335   6.649  11.024   8.795
 2151POPC   D2A31336   6.663  11.354   8.497
 2151POPC   C3A31337   6.827  11.331   8.086
 2151POPC   C4A31338   6.569  11.113   7.801
 2151POPC   C1B31339   6.239  11.568   8.792
 2151POPC   C2B31340   6.340  11.763   8.439
 2151POPC   C3B31341   6.366  11.501   8.090
 2151POPC   C4B31342   6.255  11.519   7.677
 2152POPC   NC331343   0.412   7.242   9.481
 2152POPC   PO431344   0.077   7.744   9.347
 2152POPC   GL131345   0.333   7.566   9.086
 2152POPC   GL231346   0.649   7.679   9.214
 2152POPC   C1A31347   0.362   7.223   8.823
 2152POPC   D2A31348   0.602   7.216   8.458
 2152POPC   C3A31349   0.397   7.434   8.158
 2152POPC   C4A31350   0.403   7.402   7.747
 2152POPC   C1B31351   0.766   7.574   8.805
 2152POPC   C2B31352   0.790   7.738   8.395
 2152POPC   C3B31353   0.839   7.616   7.966
 2152POPC   C4B31354   0.644   7.850   7.630
 2153POPC   NC331355   2.636   7.078   9.298
 2153POPC   PO431356   2.230   7.536   9.573
 2153POPC   GL131357   2.111   7.392   9.140
 2153POPC   GL231358   1.993   7.039   9.149
 2153POPC   C1A31359   2.096   7.601   8.701
 2153POPC   D2A31360   2.155   7.693   8.259
 2153POPC   C3A31361   1.893   7.492   7.884
 2153POPC   C4A31362   2.142   7.441   7.497
 2153POPC   C1B31363   2.097   7.096   8.725
 2153POPC   C2B31364   1.961   7.211   8.295
 2153POPC   C3B31365   2.122   7.034   7.860
 2153POPC   C4B31366   2.160   6.949   7.370
 2154POPC   NC331367  24.978  12.523   9.419
 2154POPC   PO431368  24.972  13.183   9.450
 2154POPC   GL131369  25.151  12.918   9.139
 2154POPC   GL231370  25.455  12.754   9.257
 2154POPC   C1A31371  25.127  12.836   8.711
 2154POPC   D2A31372  25.161  13.190   8.397
 2154POPC   C3A31373  25.162  12.983   8.041
 2154POPC   C4A31374  24.948  12.606   7.927
 2154POPC   C1B31375  25.615  12.913   8.865
 2154POPC   C2B31376  25.557  12.827   8.426
 2154POPC   C3B31377  25.666  12.922   8.002
 2154POPC   C4B31378  25.443  12.676   7.710
 2155POPC   NC331379  30.619  28.624   9.552
 2155POPC   PO431380  30.574  27.930   9.546
 2155POPC   GL131381  30.634  28.244   9.169
 2155POPC   GL231382  30.652  28.614   9.061
 2155POPC   C1A31383  30.611  28.223   8.702
 2155POPC   D2A31384  30.451  28.070   8.330
 2155POPC   C3A31385  30.633  28.027   7.926
 2155POPC   C4A31386  30.469  28.278   7.586
 2155POPC   C1B31387  30.974  28.574   8.760
 2155POPC   C2B31388  30.848  28.515   8.342
 2155POPC   C3B31389  30.776  28.505   7.933
 2155POPC   C4B31390  30.972  28.311   7.587
 2156POPC   NC331391  26.771  28.010   9.613
 2156POPC   PO431392  27.088  28.529   9.442
 2156POPC   GL131393  26.871  28.241   9.161
 2156POPC   GL231394  26.550  28.019   9.147
 2156POPC   C1A31395  26.697  28.360   8.785
 2156POPC   D2A31396  26.852  28.515   8.421
 2156POPC   C3A31397  26.958  28.256   8.123
 2156POPC   C4A31398  26.742  28.464   7.862
 2156POPC   C1B31399  26.383  27.967   8.732
 2156POPC   C2B31400  26.450  28.209   8.339
 2156POPC   C3B31401  26.515  28.001   7.935
 2156POPC   C4B31402  26.689  28.109   7.504
 2157POPC   NC331403  23.522  33.119   9.363
 2157POPC   PO431404  24.126  32.894   9.246
 2157POPC   GL131405  23.730  32.891   8.945
 2157POPC   GL231406  23.616  33.217   8.877
 2157POPC   C1A31407  23.480  32.797   8.583
 2157POPC   D2A31408  23.482  32.936   8.140
 2157POPC   C3A31409  23.804  32.932   7.811
 2157POPC   C4A31410  24.258  32.935   7.746
 2157POPC   C1B31411  23.238  33.323   8.683
 2157POPC   C2B31412  23.136  33.267   8.272
 2157POPC   C3B31413  23.371  33.362   7.882
 2157POPC   C4B31414  23.447  33.131   7.474
 2158POPC   NC331415  31.769  10.164   9.517
 2158POPC   PO431416  32.096  10.839   9.569
 2158POPC   GL131417  32.189  10.668   9.204
 2158POPC   GL231418  31.973  10.884   9.048
 2158POPC   C1A31419  32.292  10.368   8.874
 2158POPC   D2A31420  32.098  10.328   8.497
 2158POPC   C3A31421  32.248  10.378   8.120
 2158POPC   C4A31422  32.343  10.174   7.748
 2158POPC   C1B31423  32.014  10.801   8.655
 2158POPC   C2B31424  31.919  10.745   8.227
 2158POPC   C3B31425  31.959  11.019   7.889
 2158POPC   C4B31426  32.106  10.983   7.448
 2159POPC   NC331427  40.054   2.783   9.477
 2159POPC   PO431428  40.436   3.300   9.227
 2159POPC   GL131429  40.174   2.997   9.018
 2159POPC   GL231430  40.016   2.636   9.010
 2159POPC   C1A31431  40.258   2.886   8.619
 2159POPC   D2A31432  40.250   2.666   8.253
 2159POPC   C3A31433  40.128   2.954   7.950
 2159POPC   C4A31434  40.175   2.876   7.542
 2159POPC   C1B31435  39.901   2.514   8.605
 2159POPC   C2B31436  39.792   2.486   8.204
 2159POPC   C3B31437  39.938   2.506   7.789
 2159POPC   C4B31438  39.891   2.491   7.330
 2160POPC   NC331439  39.644   5.643   9.522
 2160POPC   PO431440  39.071   6.007   9.605
 2160POPC   GL131441  39.348   5.983   9.262
 2160POPC   GL231442  39.166   5.679   9.175
 2160POPC   C1A31443  39.350   6.055   8.824
 2160POPC   D2A31444  39.159   5.845   8.481
 2160POPC   C3A31445  39.234   6.055   8.103
 2160POPC   C4A31446  39.073   6.084   7.690
 2160POPC   C1B31447  39.460   5.558   8.850
 2160POPC   C2B31448  39.476   5.384   8.437
 2160POPC   C3B31449  39.282   5.536   8.069
 2160POPC   C4B31450  39.454   5.759   7.718
 2161POPC   NC331451  18.140  41.434   9.622
 2161POPC   PO431452  18.733  41.822   9.471
 2161POPC   GL131453  18.297  41.843   9.225
 2161POPC   GL231454  18.068  41.581   9.125
 2161POPC   C1A31455  18.293  41.897   8.760
 2161POPC   D2A31456  18.637  41.695   8.497
 2161POPC   C3A31457  18.573  41.439   8.137
 2161POPC   C4A31458  18.602  41.547   7.712
 2161POPC   C1B31459  18.247  41.403   8.729
 2161POPC   C2B31460  18.117  41.573   8.313
 2161POPC   C3B31461  18.103  41.400   7.863
 2161POPC   C4B31462  17.920  41.124   7.516
 2162POPC   NC331463  34.496  38.939   9.540
 2162POPC   PO431464  34.255  39.558   9.335
 2162POPC   GL131465  34.401  39.175   9.101
 2162POPC   GL231466  34.697  39.115   9.054
 2162POPC   C1A31467  34.419  39.270   8.658
 2162POPC   D2A31468  34.554  39.162   8.250
 2162POPC   C3A31469  34.554  39.463   7.873
 2162POPC   C4A31470  34.350  39.400   7.435
 2162POPC   C1B31471  34.937  39.141   8.678
 2162POPC   C2B31472  34.995  38.903   8.317
 2162POPC   C3B31473  34.809  38.917   7.886
 2162POPC   C4B31474  34.700  39.024   7.462
 2163POPC   NC331475   4.131  16.164   9.322
 2163POPC   PO431476   4.681  16.001   9.585
 2163POPC   GL131477   4.612  16.123   9.127
 2163POPC   GL231478   4.455  15.807   9.095
 2163POPC   C1A31479   4.428  16.051   8.668
 2163POPC   D2A31480   4.058  16.013   8.412
 2163POPC   C3A31481   4.081  16.304   8.041
 2163POPC   C4A31482   4.115  16.187   7.610
 2163POPC   C1B31483   4.763  15.689   8.774
 2163POPC   C2B31484   4.794  15.857   8.337
 2163POPC   C3B31485   4.533  15.953   7.937
 2163POPC   C4B31486   4.456  15.825   7.496
 2164POPC   NC331487  31.307  29.298   9.523
 2164POPC   PO431488  31.947  29.636   9.434
 2164POPC   GL131489  31.652  29.278   9.168
 2164POPC   GL231490  31.411  28.955   9.162
 2164POPC   C1A31491  31.311  29.355   8.844
 2164POPC   D2A31492  31.199  29.419   8.410
 2164POPC   C3A31493  31.426  29.268   8.052
 2164POPC   C4A31494  31.483  29.134   7.650
 2164POPC   C1B31495  31.454  28.887   8.716
 2164POPC   C2B31496  31.684  28.913   8.321
 2164POPC   C3B31497  31.715  28.746   7.881
 2164POPC   C4B31498  31.691  28.754   7.392
 2165POPC   NC331499  34.257  27.117   9.488
 2165POPC   PO431500  34.174  27.691   9.481
 2165POPC   GL131501  34.378  27.836   9.070
 2165POPC   GL231502  34.729  27.922   9.136
 2165POPC   C1A31503  34.529  27.682   8.685
 2165POPC   D2A31504  34.541  27.454   8.322
 2165POPC   C3A31505  34.317  27.522   7.994
 2165POPC   C4A31506  34.413  27.426   7.609
 2165POPC   C1B31507  35.000  27.903   8.754
 2165POPC   C2B31508  34.963  27.724   8.332
 2165POPC   C3B31509  34.784  27.723   7.873
 2165POPC   C4B31510  34.723  27.765   7.395
 2166POPC   NC331511  37.313  29.767   9.290
 2166POPC   PO431512  37.773  30.169   9.536
 2166POPC   GL131513  37.535  30.218   9.149
 2166POPC   GL231514  37.216  30.314   9.048
 2166POPC   C1A31515  37.632  30.134   8.724
 2166POPC   D2A31516  37.820  29.759   8.524
 2166POPC   C3A31517  37.770  29.782   8.065
 2166POPC   C4A31518  37.767  30.166   7.820
 2166POPC   C1B31519  37.141  29.960   8.735
 2166POPC   C2B31520  37.338  29.861   8.375
 2166POPC   C3B31521  37.290  30.068   7.999
 2166POPC   C4B31522  37.379  29.799   7.689
 2167POPC   NC331523  43.947  44.376   9.486
 2167POPC   PO431524  43.528  44.849   9.549
 2167POPC   GL131525  43.579  44.529   9.165
 2167POPC   GL231526  43.660  44.702   8.864
 2167POPC   C1A31527  43.914  44.288   8.844
 2167POPC   D2A31528  44.088  44.535   8.499
 2167POPC   C3A31529  44.090  44.425   8.075
 2167POPC   C4A31530  43.812  44.628   7.798
 2167POPC   C1B31531  44.026  44.985   8.749
 2167POPC   C2B31532  44.298   0.013   8.370
 2167POPC   C3B31533  44.171  44.944   7.952
 2167POPC   C4B31534  44.080  44.957   7.495
 2168POPC   NC331535  42.442  10.607   9.634
 2168POPC   PO431536  42.038  10.056   9.702
 2168POPC   GL131537  42.166  10.330   9.306
 2168POPC   GL231538  42.242  10.693   9.153
 2168POPC   C1A31539  42.338  10.278   8.887
 2168POPC   D2A31540  42.198  10.480   8.524
 2168POPC   C3A31541  42.377  10.474   8.130
 2168POPC   C4A31542  42.194  10.365   7.757
 2168POPC   C1B31543  42.562  10.734   8.809
 2168POPC   C2B31544  42.780  10.642   8.421
 2168POPC   C3B31545  42.781  10.787   7.993
 2168POPC   C4B31546  42.409  10.827   7.733
 2169POPC   NC331547  23.854  23.774   9.382
 2169POPC   PO431548  23.197  24.029   9.460
 2169POPC   GL131549  23.459  24.018   9.110
 2169POPC   GL231550  23.530  23.679   8.984
 2169POPC   C1A31551  23.476  24.117   8.670
 2169POPC   D2A31552  23.285  23.944   8.285
 2169POPC   C3A31553  23.574  23.766   7.999
 2169POPC   C4A31554  23.887  23.930   7.720
 2169POPC   C1B31555  23.819  23.737   8.616
 2169POPC   C2B31556  23.940  23.499   8.249
 2169POPC   C3B31557  23.996  23.389   7.826
 2169POPC   C4B31558  24.075  23.554   7.416
 2170POPC   NC331559  10.046  30.647   9.738
 2170POPC   PO431560   9.434  30.579   9.600
 2170POPC   GL131561   9.404  30.480   9.138
 2170POPC   GL231562   9.525  30.785   8.971
 2170POPC   C1A31563   9.235  30.487   8.676
 2170POPC   D2A31564   9.284  30.654   8.247
 2170POPC   C3A31565   9.498  30.426   7.914
 2170POPC   C4A31566   9.800  30.615   7.589
 2170POPC   C1B31567   9.717  30.643   8.568
 2170POPC   C2B31568   9.849  30.708   8.132
 2170POPC   C3B31569   9.777  31.053   7.847
 2170POPC   C4B31570   9.650  31.104   7.392
 2171POPC   NC331571  30.143  19.665   9.492
 2171POPC   PO431572  29.769  20.124   9.770
 2171POPC   GL131573  29.723  20.014   9.249
 2171POPC   GL231574  29.993  19.869   9.079
 2171POPC   C1A31575  29.680  19.906   8.720
 2171POPC   D2A31576  29.866  19.599   8.382
 2171POPC   C3A31577  29.986  19.768   7.959
 2171POPC   C4A31578  30.020  19.693   7.495
 2171POPC   C1B31579  30.182  20.101   8.775
 2171POPC   C2B31580  30.104  20.046   8.390
 2171POPC   C3B31581  30.294  20.169   8.049
 2171POPC   C4B31582  30.275  20.083   7.642
 2172POPC   NC331583   2.741  41.006   9.786
 2172POPC   PO431584   2.782  41.590   9.475
 2172POPC   GL131585   2.688  41.626   9.076
 2172POPC   GL231586   3.020  41.790   9.071
 2172POPC   C1A31587   2.572  41.376   8.689
 2172POPC   D2A31588   2.724  41.347   8.250
 2172POPC   C3A31589   2.545  41.618   7.921
 2172POPC   C4A31590   2.549  41.904   7.539
 2172POPC   C1B31591   3.029  41.601   8.681
 2172POPC   C2B31592   3.167  41.703   8.279
 2172POPC   C3B31593   3.100  41.534   7.888
 2172POPC   C4B31594   3.262  41.178   7.633
 2173POPC   NC331595  20.858  31.772   9.539
 2173POPC   PO431596  20.857  31.098   9.404
 2173POPC   GL131597  20.642  31.179   9.079
 2173POPC   GL231598  20.554  31.498   9.197
 2173POPC   C1A31599  20.724  31.270   8.705
 2173POPC   D2A31600  20.554  31.465   8.387
 2173POPC   C3A31601  20.750  31.583   8.038
 2173POPC   C4A31602  20.703  31.289   7.713
 2173POPC   C1B31603  20.345  31.634   8.844
 2173POPC   C2B31604  20.347  31.897   8.481
 2173POPC   C3B31605  20.229  31.712   8.071
 2173POPC   C4B31606  20.443  31.834   7.716
 2174POPC   NC331607   4.092  14.569   9.475
 2174POPC   PO431608   4.688  14.287   9.569
 2174POPC   GL131609   4.433  14.293   9.202
 2174POPC   GL231610   4.472  14.580   9.133
 2174POPC   C1A31611   4.185  14.321   8.816
 2174POPC   D2A31612   4.056  14.527   8.431
 2174POPC   C3A31613   4.041  14.290   8.036
 2174POPC   C4A31614   4.179  14.410   7.620
 2174POPC   C1B31615   4.653  14.576   8.767
 2174POPC   C2B31616   4.557  14.703   8.392
 2174POPC   C3B31617   4.512  14.496   8.029
 2174POPC   C4B31618   4.685  14.519   7.664
 2175POPC   NC331619   0.933  42.945   9.755
 2175POPC   PO431620   0.523  43.338   9.416
 2175POPC   GL131621   0.242  43.222   9.145
 2175POPC   GL231622   0.243  42.879   9.146
 2175POPC   C1A31623   0.377  43.290   8.767
 2175POPC   D2A31624   0.384  43.037   8.425
 2175POPC   C3A31625   0.405  43.277   8.077
 2175POPC   C4A31626   0.606  43.008   7.835
 2175POPC   C1B31627   0.035  42.903   8.786
 2175POPC   C2B31628  44.862  42.850   8.401
 2175POPC   C3B31629   0.060  42.900   8.025
 2175POPC   C4B31630   0.057  42.787   7.621
 2176POPC   NC331631  24.200  11.312   9.725
 2176POPC   PO431632  24.867  11.327   9.682
 2176POPC   GL131633  24.647  11.478   9.260
 2176POPC   GL231634  24.358  11.724   9.220
 2176POPC   C1A31635  24.475  11.248   8.868
 2176POPC   D2A31636  24.659  10.994   8.505
 2176POPC   C3A31637  24.474  11.018   8.069
 2176POPC   C4A31638  24.581  11.085   7.635
 2176POPC   C1B31639  24.523  11.744   8.769
 2176POPC   C2B31640  24.596  11.477   8.374
 2176POPC   C3B31641  24.533  11.529   7.938
 2176POPC   C4B31642  24.358  11.902   7.772
 2177POPC   NC331643  43.878  40.441   9.641
 2177POPC   PO431644  43.566  39.923   9.331
 2177POPC   GL131645  43.927  40.011   9.117
 2177POPC   GL231646  43.888  39.687   9.019
 2177POPC   C1A31647  44.020  40.302   8.733
 2177POPC   D2A31648  43.825  40.092   8.410
 2177POPC   C3A31649  43.589  40.137   8.093
 2177POPC   C4A31650  43.773  39.871   7.825
 2177POPC   C1B31651  44.141  39.811   8.711
 2177POPC   C2B31652  44.331  40.043   8.403
 2177POPC   C3B31653  44.202  40.087   8.008
 2177POPC   C4B31654  44.226  39.889   7.600
 2178POPC   NC331655  29.110  39.274   9.455
 2178POPC   PO431656  29.574  38.733   9.503
 2178POPC   GL131657  29.348  38.961   9.102
 2178POPC   GL231658  29.208  39.322   8.971
 2178POPC   C1A31659  29.491  39.059   8.658
 2178POPC   D2A31660  29.344  39.329   8.327
 2178POPC   C3A31661  29.397  39.129   7.918
 2178POPC   C4A31662  29.164  38.749   7.745
 2178POPC   C1B31663  28.954  39.130   8.667
 2178POPC   C2B31664  28.943  38.974   8.247
 2178POPC   C3B31665  28.892  39.168   7.870
 2178POPC   C4B31666  28.746  39.038   7.497
 2179POPC   NC331667  36.797  42.655   9.424
 2179POPC   PO431668  37.293  42.189   9.416
 2179POPC   GL131669  36.965  42.249   9.145
 2179POPC   GL231670  36.730  41.972   9.288
 2179POPC   C1A31671  36.804  42.529   8.774
 2179POPC   D2A31672  36.724  42.690   8.328
 2179POPC   C3A31673  36.888  42.443   7.984
 2179POPC   C4A31674  37.055  42.104   7.655
 2179POPC   C1B31675  36.645  42.034   8.841
 2179POPC   C2B31676  36.860  42.109   8.441
 2179POPC   C3B31677  36.729  41.975   8.034
 2179POPC   C4B31678  36.544  42.132   7.688
 2180POPC   NC331679  19.184  31.384   9.521
 2180POPC   PO431680  19.415  31.935   9.474
 2180POPC   GL131681  19.089  31.681   9.144
 2180POPC   GL231682  18.842  31.360   9.155
 2180POPC   C1A31683  18.803  31.690   8.794
 2180POPC   D2A31684  18.979  31.520   8.442
 2180POPC   C3A31685  18.937  31.726   8.072
 2180POPC   C4A31686  19.261  31.716   7.839
 2180POPC   C1B31687  19.097  31.155   8.816
 2180POPC   C2B31688  19.066  30.967   8.394
 2180POPC   C3B31689  19.116  31.231   8.019
 2180POPC   C4B31690  18.891  31.391   7.652
 2181POPC   NC331691  40.511  41.993   9.337
 2181POPC   PO431692  40.053  42.397   9.609
 2181POPC   GL131693  39.886  42.397   9.212
 2181POPC   GL231694  40.164  42.248   9.062
 2181POPC   C1A31695  39.739  42.312   8.795
 2181POPC   D2A31696  39.981  42.323   8.393
 2181POPC   C3A31697  39.794  42.222   7.996
 2181POPC   C4A31698  39.766  42.553   7.723
 2181POPC   C1B31699  40.418  42.252   8.688
 2181POPC   C2B31700  40.482  42.365   8.274
 2181POPC   C3B31701  40.253  42.397   7.928
 2181POPC   C4B31702  40.232  42.334   7.485
 2182POPC   NC331703  18.227  44.497   9.503
 2182POPC   PO431704  18.773  44.978   9.411
 2182POPC   GL131705  18.519  44.725   9.149
 2182POPC   GL231706  18.141  44.751   9.069
 2182POPC   C1A31707  18.521  44.589   8.750
 2182POPC   D2A31708  18.466  44.485   8.318
 2182POPC   C3A31709  18.430  44.822   7.991
 2182POPC   C4A31710  18.448  44.509   7.689
 2182POPC   C1B31711  18.020  44.607   8.633
 2182POPC   C2B31712  18.002  44.666   8.176
 2182POPC   C3B31713  17.968  44.711   7.719
 2182POPC   C4B31714  17.916  44.760   7.250
 2183POPC   NC331715  38.394  39.168   9.529
 2183POPC   PO431716  38.289  39.885   9.446
 2183POPC   GL131717  38.269  39.546   9.177
 2183POPC   GL231718  38.579  39.385   9.103
 2183POPC   C1A31719  38.181  39.372   8.765
 2183POPC   D2A31720  38.389  39.151   8.421
 2183POPC   C3A31721  38.471  39.405   8.054
 2183POPC   C4A31722  38.197  39.341   7.675
 2183POPC   C1B31723  38.774  39.179   8.755
 2183POPC   C2B31724  38.968  39.076   8.377
 2183POPC   C3B31725  38.693  38.896   8.079
 2183POPC   C4B31726  38.627  39.074   7.701
 2184POPC   NC331727  15.965  32.934   9.409
 2184POPC   PO431728  15.953  33.524   9.598
 2184POPC   GL131729  15.846  33.392   9.185
 2184POPC   GL231730  16.149  33.317   9.023
 2184POPC   C1A31731  15.695  33.199   8.794
 2184POPC   D2A31732  15.705  32.955   8.411
 2184POPC   C3A31733  15.869  33.085   7.995
 2184POPC   C4A31734  15.868  33.257   7.550
 2184POPC   C1B31735  16.146  32.959   8.714
 2184POPC   C2B31736  16.159  32.750   8.292
 2184POPC   C3B31737  16.289  32.789   7.857
 2184POPC   C4B31738  16.378  32.705   7.395
 2185POPC   NC331739  17.837   4.007   9.524
 2185POPC   PO431740  17.290   4.260   9.616
 2185POPC   GL131741  17.337   4.093   9.225
 2185POPC   GL231742  17.642   4.195   9.111
 2185POPC   C1A31743  17.283   4.306   8.802
 2185POPC   D2A31744  17.337   4.194   8.415
 2185POPC   C3A31745  17.203   4.497   8.138
 2185POPC   C4A31746  17.170   4.415   7.731
 2185POPC   C1B31747  17.875   4.026   8.783
 2185POPC   C2B31748  17.738   3.916   8.368
 2185POPC   C3B31749  17.611   4.171   7.987
 2185POPC   C4B31750  17.781   3.972   7.641
 2186POPC   NC331751  27.579  14.314   9.665
 2186POPC   PO431752  27.750  14.838   9.269
 2186POPC   GL131753  27.509  14.520   9.093
 2186POPC   GL231754  27.613  14.196   9.182
 2186POPC   C1A31755  27.629  14.432   8.680
 2186POPC   D2A31756  27.512  14.608   8.303
 2186POPC   C3A31757  27.755  14.453   7.964
 2186POPC   C4A31758  27.739  14.057   7.776
 2186POPC   C1B31759  27.331  14.064   8.883
 2186POPC   C2B31760  27.314  14.088   8.452
 2186POPC   C3B31761  27.297  14.212   8.035
 2186POPC   C4B31762  27.241  14.296   7.615
 2187POPC   NC331763  16.776   8.455   9.599
 2187POPC   PO431764  16.657   7.856   9.607
 2187POPC   GL131765  16.528   7.777   9.186
 2187POPC   GL231766  16.506   8.147   9.179
 2187POPC   C1A31767  16.699   7.873   8.774
 2187POPC   D2A31768  16.511   8.021   8.391
 2187POPC   C3A31769  16.695   7.868   8.049
 2187POPC   C4A31770  16.810   8.306   7.927
 2187POPC   C1B31771  16.385   8.312   8.792
 2187POPC   C2B31772  16.357   8.545   8.370
 2187POPC   C3B31773  16.313   8.446   7.917
 2187POPC   C4B31774  16.569   8.516   7.517
 2188POPC   NC331775   9.330  35.884   9.282
 2188POPC   PO431776   9.913  36.055   9.536
 2188POPC   GL131777   9.824  36.074   9.130
 2188POPC   GL231778   9.990  35.747   9.109
 2188POPC   C1A31779   9.765  36.260   8.716
 2188POPC   D2A31780   9.949  36.230   8.293
 2188POPC   C3A31781   9.618  36.243   7.958
 2188POPC   C4A31782   9.590  36.461   7.563
 2188POPC   C1B31783   9.659  35.757   8.771
 2188POPC   C2B31784   9.566  35.889   8.368
 2188POPC   C3B31785   9.832  35.794   8.013
 2188POPC   C4B31786   9.593  35.735   7.657
 2189POPC   NC331787  31.618  10.958   9.441
 2189POPC   PO431788  31.331  10.342   9.442
 2189POPC   GL131789  31.483  10.562   9.142
 2189POPC   GL231790  31.769  10.429   9.083
 2189POPC   C1A31791  31.322  10.800   8.824
 2189POPC   D2A31792  31.550  10.984   8.510
 2189POPC   C3A31793  31.441  10.913   8.113
 2189POPC   C4A31794  31.513  10.712   7.761
 2189POPC   C1B31795  31.649  10.448   8.673
 2189POPC   C2B31796  31.649  10.186   8.346
 2189POPC   C3B31797  31.732  10.299   7.953
 2189POPC   C4B31798  31.989  10.555   7.718
 2190POPC   NC331799  39.141  12.607   9.396
 2190POPC   PO431800  39.049  13.149   9.334
 2190POPC   GL131801  39.335  12.970   9.044
 2190POPC   GL231802  39.114  12.753   8.882
 2190POPC   C1A31803  39.494  12.900   8.585
 2190POPC   D2A31804  39.267  12.813   8.193
 2190POPC   C3A31805  39.413  13.023   7.812
 2190POPC   C4A31806  39.392  13.186   7.404
 2190POPC   C1B31807  39.095  13.187   8.650
 2190POPC   C2B31808  39.142  13.301   8.207
 2190POPC   C3B31809  38.915  13.125   7.863
 2190POPC   C4B31810  39.003  12.841   7.525
 2191POPC   NC331811  35.998   6.801   9.434
 2191POPC   PO431812  36.120   6.194   9.520
 2191POPC   GL131813  36.189   6.456   9.091
 2191POPC   GL231814  36.241   6.831   9.013
 2191POPC   C1A31815  36.248   6.581   8.599
 2191POPC   D2A31816  36.419   6.502   8.211
 2191POPC   C3A31817  36.098   6.497   7.925
 2191POPC   C4A31818  36.210   6.311   7.543
 2191POPC   C1B31819  35.837   6.902   8.777
 2191POPC   C2B31820  35.708   7.075   8.358
 2191POPC   C3B31821  35.706   6.926   7.908
 2191POPC   C4B31822  35.985   6.813   7.551
 2192POPC   NC331823  43.389  27.177   9.926
 2192POPC   PO431824  43.327  26.750   9.411
 2192POPC   GL131825  43.230  26.839   9.045
 2192POPC   GL231826  42.893  26.765   9.059
 2192POPC   C1A31827  43.217  26.778   8.614
 2192POPC   D2A31828  43.313  27.017   8.249
 2192POPC   C3A31829  43.286  26.778   7.878
 2192POPC   C4A31830  43.330  26.567   7.503
 2192POPC   C1B31831  42.844  27.092   8.799
 2192POPC   C2B31832  42.811  27.078   8.378
 2192POPC   C3B31833  42.772  26.850   8.008
 2192POPC   C4B31834  42.876  26.840   7.557
 2193POPC   NC331835  44.434  25.986   9.892
 2193POPC   PO431836   0.046  26.283   9.739
 2193POPC   GL131837  44.871  26.261   9.303
 2193POPC   GL231838  44.537  26.061   9.376
 2193POPC   C1A31839   0.062  26.071   8.892
 2193POPC   D2A31840  44.937  25.754   8.541
 2193POPC   C3A31841  44.728  25.788   8.076
 2193POPC   C4A31842  44.742  25.957   7.615
 2193POPC   C1B31843  44.571  25.958   8.950
 2193POPC   C2B31844  44.639  26.215   8.615
 2193POPC   C3B31845  44.574  26.294   8.189
 2193POPC   C4B31846  44.619  26.426   7.784
 2194POPC   NC331847  32.880  28.049   9.430
 2194POPC   PO431848  32.848  28.673   9.449
 2194POPC   GL131849  32.967  28.466   9.059
 2194POPC   GL231850  32.703  28.217   8.968
 2194POPC   C1A31851  33.197  28.631   8.672
 2194POPC   D2A31852  33.422  28.532   8.257
 2194POPC   C3A31853  33.121  28.379   7.952
 2194POPC   C4A31854  32.875  28.456   7.592
 2194POPC   C1B31855  32.680  28.496   8.600
 2194POPC   C2B31856  32.634  28.431   8.138
 2194POPC   C3B31857  32.419  28.265   7.776
 2194POPC   C4B31858  32.486  28.270   7.306
 2195POPC   NC331859   2.462  36.211   9.283
 2195POPC   PO431860   3.045  36.112   9.703
 2195POPC   GL131861   2.928  36.040   9.221
 2195POPC   GL231862   2.769  35.786   9.246
 2195POPC   C1A31863   2.865  36.251   8.769
 2195POPC   D2A31864   3.055  36.291   8.358
 2195POPC   C3A31865   2.807  36.415   7.985
 2195POPC   C4A31866   2.896  36.267   7.600
 2195POPC   C1B31867   2.823  35.752   8.808
 2195POPC   C2B31868   2.789  35.814   8.395
 2195POPC   C3B31869   2.842  35.906   7.986
 2195POPC   C4B31870   2.498  36.000   7.735
 2196POPC   NC331871  21.278  22.476   9.528
 2196POPC   PO431872  21.227  21.833   9.433
 2196POPC   GL131873  21.493  22.125   9.185
 2196POPC   GL231874  21.517  22.480   9.097
 2196POPC   C1A31875  21.453  22.150   8.722
 2196POPC   D2A31876  21.257  21.998   8.355
 2196POPC   C3A31877  21.453  21.997   7.925
 2196POPC   C4A31878  21.605  22.162   7.506
 2196POPC   C1B31879  21.150  22.544   8.858
 2196POPC   C2B31880  21.040  22.454   8.453
 2196POPC   C3B31881  21.267  22.446   8.072
 2196POPC   C4B31882  21.159  22.332   7.662
 2197POPC   NC331883   2.458  20.926   9.179
 2197POPC   PO431884   2.160  20.478   9.553
 2197POPC   GL131885   2.024  20.587   9.147
 2197POPC   GL231886   1.842  20.849   9.225
 2197POPC   C1A31887   1.978  20.403   8.731
 2197POPC   D2A31888   1.816  20.587   8.335
 2197POPC   C3A31889   2.117  20.548   7.985
 2197POPC   C4A31890   2.222  20.190   7.728
 2197POPC   C1B31891   1.887  20.917   8.783
 2197POPC   C2B31892   1.641  21.057   8.474
 2197POPC   C3B31893   1.804  21.066   8.098
 2197POPC   C4B31894   1.721  20.818   7.739
 2198POPC   NC331895  44.593  36.628   9.873
 2198POPC   PO431896  44.964  37.028   9.434
 2198POPC   GL131897  44.739  36.835   9.156
 2198POPC   GL231898  44.442  36.733   9.324
 2198POPC   C1A31899  44.642  37.031   8.778
 2198POPC   D2A31900  44.516  37.033   8.361
 2198POPC   C3A31901  44.712  36.771   8.067
 2198POPC   C4A31902  44.583  37.027   7.721
 2198POPC   C1B31903  44.382  36.583   8.883
 2198POPC   C2B31904  44.206  36.549   8.431
 2198POPC   C3B31905  44.204  36.700   7.993
 2198POPC   C4B31906  44.517  36.521   7.673
 2199POPC   NC331907  40.768  23.345   9.498
 2199POPC   PO431908  40.917  22.650   9.422
 2199POPC   GL131909  40.755  22.944   9.175
 2199POPC   GL231910  40.550  22.737   9.015
 2199POPC   C1A31911  40.809  23.178   8.796
 2199POPC   D2A31912  40.934  23.034   8.381
 2199POPC   C3A31913  41.028  23.328   8.054
 2199POPC   C4A31914  40.803  23.361   7.726
 2199POPC   C1B31915  40.888  22.547   8.757
 2199POPC   C2B31916  40.867  22.529   8.317
 2199POPC   C3B31917  40.831  22.716   7.911
 2199POPC   C4B31918  41.098  22.547   7.616
 2200POPC   NC331919  22.522  44.924   9.353
 2200POPC   PO431920  21.853  44.704   9.461
 2200POPC   GL131921  22.133  44.654   9.181
 2200POPC   GL231922  22.071  44.307   9.217
 2200POPC   C1A31923  22.169  44.880   8.790
 2200POPC   D2A31924  22.024   0.101   8.459
 2200POPC   C3A31925  22.216  44.938   8.138
 2200POPC   C4A31926  22.084  44.771   7.786
 2200POPC   C1B31927  22.046  44.386   8.772
 2200POPC   C2B31928  22.246  44.461   8.407
 2200POPC   C3B31929  22.140  44.321   8.019
 2200POPC   C4B31930  22.189  44.298   7.600
 2201POPC   NC331931  11.096   0.201   9.320
 2201POPC   PO431932  10.614   0.626   9.607
 2201POPC   GL131933  10.672   0.496   9.159
 2201POPC   GL231934  10.972   0.673   9.096
 2201POPC   C1A31935  10.490   0.475   8.711
 2201POPC   D2A31936  10.326   0.624   8.284
 2201POPC   C3A31937  10.397   0.347   7.910
 2201POPC   C4A31938  10.291   0.393   7.460
 2201POPC   C1B31939  11.021   0.499   8.675
 2201POPC   C2B31940  10.791   0.339   8.308
 2201POPC   C3B31941  10.911   0.282   7.908
 2201POPC   C4B31942  10.787   0.405   7.505
 2202POPC   NC331943  27.487  25.643   9.571
 2202POPC   PO431944  27.951  25.160   9.540
 2202POPC   GL131945  27.671  25.285   9.230
 2202POPC   GL231946  27.506  24.975   9.147
 2202POPC   C1A31947  27.572  25.626   8.912
 2202POPC   D2A31948  27.502  25.663   8.444
 2202POPC   C3A31949  27.664  25.466   8.036
 2202POPC   C4A31950  27.648  25.324   7.584
 2202POPC   C1B31951  27.558  25.166   8.732
 2202POPC   C2B31952  27.362  25.160   8.346
 2202POPC   C3B31953  27.354  25.061   7.925
 2202POPC   C4B31954  27.166  25.021   7.538
 2203POPC   NC331955  24.269  14.794   9.733
 2203POPC   PO431956  24.472  15.246   9.294
 2203POPC   GL131957  24.561  15.046   8.975
 2203POPC   GL231958  24.654  14.699   8.983
 2203POPC   C1A31959  24.358  15.178   8.607
 2203POPC   D2A31960  24.364  15.449   8.279
 2203POPC   C3A31961  24.367  15.229   7.941
 2203POPC   C4A31962  24.073  14.953   7.766
 2203POPC   C1B31963  24.827  14.930   8.571
 2203POPC   C2B31964  24.830  15.187   8.182
 2203POPC   C3B31965  24.786  15.016   7.747
 2203POPC   C4B31966  24.760  15.176   7.326
 2204POPC   NC331967  41.410  26.218   9.365
 2204POPC   PO431968  41.947  25.822   9.492
 2204POPC   GL131969  41.792  25.839   9.118
 2204POPC   GL231970  41.473  25.724   9.174
 2204POPC   C1A31971  41.840  26.072   8.758
 2204POPC   D2A31972  41.570  26.278   8.468
 2204POPC   C3A31973  41.498  25.970   8.133
 2204POPC   C4A31974  41.702  25.960   7.716
 2204POPC   C1B31975  41.346  25.893   8.767
 2204POPC   C2B31976  41.052  25.999   8.451
 2204POPC   C3B31977  40.983  26.054   8.043
 2204POPC   C4B31978  41.203  25.925   7.703
 2205POPC   NC331979  30.973  34.035   9.598
 2205POPC   PO431980  30.578  33.605   9.537
 2205POPC   GL131981  30.953  33.671   9.209
 2205POPC   GL231982  31.099  34.019   9.098
 2205POPC   C1A31983  30.973  33.565   8.756
 2205POPC   D2A31984  30.723  33.653   8.338
 2205POPC   C3A31985  30.548  33.590   7.868
 2205POPC   C4A31986  30.338  33.876   7.525
 2205POPC   C1B31987  30.875  34.065   8.706
 2205POPC   C2B31988  31.016  34.091   8.275
 2205POPC   C3B31989  30.727  34.087   7.931
 2205POPC   C4B31990  30.664  34.316   7.537
 2206POPC   NC331991   3.553  17.188   9.508
 2206POPC   PO431992   3.783  16.444   9.452
 2206POPC   GL131993   3.576  16.758   9.129
 2206POPC   GL231994   3.309  17.023   9.092
 2206POPC   C1A31995   3.563  16.778   8.681
 2206POPC   D2A31996   3.847  16.738   8.319
 2206POPC   C3A31997   3.611  16.555   7.998
 2206POPC   C4A31998   3.519  16.578   7.583
 2206POPC   C1B31999   3.135  17.070   8.677
 2206POPC   C2B32000   3.216  16.826   8.286
 2206POPC   C3B32001   3.352  16.987   7.886
 2206POPC   C4B32002   3.163  17.062   7.525
 2207POPC   NC332003  28.734  31.337   9.587
 2207POPC   PO432004  29.282  31.651   9.680
 2207POPC   GL132005  29.156  31.483   9.243
 2207POPC   GL232006  28.991  31.152   9.137
 2207POPC   C1A32007  29.270  31.591   8.805
 2207POPC   D2A32008  29.133  31.720   8.397
 2207POPC   C3A32009  29.297  31.676   8.014
 2207POPC   C4A32010  29.207  31.830   7.610
 2207POPC   C1B32011  29.242  31.100   8.744
 2207POPC   C2B32012  29.380  31.247   8.346
 2207POPC   C3B32013  29.502  31.218   7.920
 2207POPC   C4B32014  29.237  31.327   7.546
 2208POPC   NC332015  25.370  30.414   9.414
 2208POPC   PO432016  24.844  30.795   9.528
 2208POPC   GL132017  24.981  30.656   9.127
 2208POPC   GL232018  25.137  30.361   8.962
 2208POPC   C1A32019  25.121  30.865   8.763
 2208POPC   D2A32020  25.044  31.139   8.399
 2208POPC   C3A32021  25.281  30.871   8.127
 2208POPC   C4A32022  24.936  30.619   7.971
 2208POPC   C1B32023  25.544  30.535   8.800
 2208POPC   C2B32024  25.768  30.517   8.431
 2208POPC   C3B32025  25.681  30.489   8.034
 2208POPC   C4B32026  25.372  30.524   7.735
 2209POPC   NC332027  20.362  15.639   9.324
 2209POPC   PO432028  19.868  16.166   9.417
 2209POPC   GL132029  19.794  15.803   9.141
 2209POPC   GL232030  19.660  16.059   8.951
 2209POPC   C1A32031  19.592  15.617   8.753
 2209POPC   D2A32032  19.748  15.635   8.317
 2209POPC   C3A32033  19.618  15.665   7.878
 2209POPC   C4A32034  19.819  15.809   7.487
 2209POPC   C1B32035  19.956  16.347   8.752
 2209POPC   C2B32036  20.165  16.287   8.382
 2209POPC   C3B32037  19.881  16.082   8.089
 2209POPC   C4B32038  19.671  16.224   7.730
 2210POPC   NC332039  43.425   0.309   9.537
 2210POPC   PO432040  43.980   0.636   9.393
 2210POPC   GL132041  43.724   0.503   9.085
 2210POPC   GL232042  43.708   0.143   9.141
 2210POPC   C1A32043  43.831   0.504   8.647
 2210POPC   D2A32044  43.600   0.454   8.253
 2210POPC   C3A32045  43.844   0.377   7.818
 2210POPC   C4A32046  43.624   0.552   7.400
 2210POPC   C1B32047  43.493   0.141   8.736
 2210POPC   C2B32048  43.672  44.939   8.377
 2210POPC   C3B32049  43.537   0.015   7.991
 2210POPC   C4B32050  43.560   0.037   7.574
 2211POPC   NC332051   4.945  16.615   9.583
 2211POPC   PO432052   5.288  17.187   9.399
 2211POPC   GL132053   5.209  16.781   9.167
 2211POPC   GL232054   4.877  16.612   9.074
 2211POPC   C1A32055   5.275  16.628   8.752
 2211POPC   D2A32056   5.290  16.805   8.318
 2211POPC   C3A32057   5.356  16.598   7.907
 2211POPC   C4A32058   5.415  16.636   7.429
 2211POPC   C1B32059   4.830  16.889   8.712
 2211POPC   C2B32060   4.796  16.880   8.296
 2211POPC   C3B32061   4.909  16.884   7.897
 2211POPC   C4B32062   4.592  17.007   7.636
 2212POPC   NC332063  12.406  43.151   9.578
 2212POPC   PO432064  11.759  43.250   9.519
 2212POPC   GL132065  12.067  43.280   9.182
 2212POPC   GL232066  12.265  42.962   9.122
 2212POPC   C1A32067  11.977  43.301   8.716
 2212POPC   D2A32068  11.830  43.389   8.285
 2212POPC   C3A32069  12.110  43.296   7.917
 2212POPC   C4A32070  12.422  43.255   7.569
 2212POPC   C1B32071  12.311  42.899   8.679
 2212POPC   C2B32072  12.363  42.886   8.232
 2212POPC   C3B32073  12.309  42.807   7.802
 2212POPC   C4B32074  12.007  42.962   7.475
 2213POPC   NC332075   0.011   4.740   9.481
 2213POPC   PO432076   0.768   4.807   9.488
 2213POPC   GL132077   0.419   5.079   9.226
 2213POPC   GL232078   0.070   5.019   9.078
 2213POPC   C1A32079   0.387   5.314   8.844
 2213POPC   D2A32080   0.486   5.174   8.478
 2213POPC   C3A32081   0.355   5.376   8.154
 2213POPC   C4A32082   0.534   5.341   7.753
 2213POPC   C1B32083   0.245   4.814   8.737
 2213POPC   C2B32084   0.149   4.824   8.280
 2213POPC   C3B32085   0.261   4.935   7.907
 2213POPC   C4B32086   0.209   4.647   7.629
 2214POPC   NC332087  22.013  15.759   9.448
 2214POPC   PO432088  22.131  15.081   9.475
 2214POPC   GL132089  22.038  15.217   9.094
 2214POPC   GL232090  21.765  15.434   9.138
 2214POPC   C1A32091  22.042  15.058   8.665
 2214POPC   D2A32092  21.769  14.810   8.373
 2214POPC   C3A32093  21.936  14.767   7.947
 2214POPC   C4A32094  22.344  14.871   7.810
 2214POPC   C1B32095  21.955  15.625   8.790
 2214POPC   C2B32096  22.115  15.500   8.428
 2214POPC   C3B32097  22.072  15.240   8.099
 2214POPC   C4B32098  21.881  15.335   7.702
 2215POPC   NC332099  33.329   5.926   9.455
 2215POPC   PO432100  32.685   5.721   9.496
 2215POPC   GL132101  32.799   5.998   9.175
 2215POPC   GL232102  33.071   5.788   9.037
 2215POPC   C1A32103  32.783   6.067   8.730
 2215POPC   D2A32104  32.804   5.703   8.427
 2215POPC   C3A32105  32.892   5.890   8.042
 2215POPC   C4A32106  32.725   6.250   7.804
 2215POPC   C1B32107  33.244   5.824   8.623
 2215POPC   C2B32108  33.364   5.692   8.220
 2215POPC   C3B32109  33.373   5.874   7.839
 2215POPC   C4B32110  33.021   5.853   7.554
 2216POPC   NC332111   9.792  23.801   9.823
 2216POPC   PO432112   9.317  23.402   9.545
 2216POPC   GL132113   9.717  23.662   9.287
 2216POPC   GL232114   9.815  24.038   9.169
 2216POPC   C1A32115   9.853  23.696   8.792
 2216POPC   D2A32116   9.759  23.922   8.343
 2216POPC   C3A32117   9.691  23.658   7.940
 2216POPC   C4A32118   9.807  23.209   7.822
 2216POPC   C1B32119  10.116  24.128   8.789
 2216POPC   C2B32120  10.263  24.007   8.356
 2216POPC   C3B32121  10.089  23.985   7.926
 2216POPC   C4B32122   9.818  24.161   7.584
 2217POPC   NC332123   2.280  28.123   9.520
 2217POPC   PO432124   1.575  28.128   9.406
 2217POPC   GL132125   1.666  28.344   9.051
 2217POPC   GL232126   1.992  28.445   9.057
 2217POPC   C1A32127   1.628  28.602   8.687
 2217POPC   D2A32128   1.492  28.458   8.308
 2217POPC   C3A32129   1.724  28.558   7.959
 2217POPC   C4A32130   1.802  28.487   7.530
 2217POPC   C1B32131   1.907  28.190   8.642
 2217POPC   C2B32132   1.813  28.062   8.223
 2217POPC   C3B32133   1.819  28.038   7.793
 2217POPC   C4B32134   2.094  28.068   7.430
 2218POPC   NC332135  23.379   9.436   9.500
 2218POPC   PO432136  24.007   9.288   9.508
 2218POPC   GL132137  23.737   9.138   9.164
 2218POPC   GL232138  23.942   8.846   9.118
 2218POPC   C1A32139  23.683   9.066   8.694
 2218POPC   D2A32140  23.604   8.852   8.284
 2218POPC   C3A32141  23.588   9.120   7.928
 2218POPC   C4A32142  23.740   9.395   7.607
 2218POPC   C1B32143  24.179   8.888   8.716
 2218POPC   C2B32144  24.145   8.773   8.262
 2218POPC   C3B32145  23.959   8.722   7.852
 2218POPC   C4B32146  23.802   8.375   7.591
 2219POPC   NC332147  38.537  17.675   9.557
 2219POPC   PO432148  38.416  17.091   9.523
 2219POPC   GL132149  38.534  17.362   9.146
 2219POPC   GL232150  38.319  17.686   9.090
 2219POPC   C1A32151  38.480  17.428   8.692
 2219POPC   D2A32152  38.723  17.308   8.347
 2219POPC   C3A32153  38.436  17.438   8.024
 2219POPC   C4A32154  38.418  17.603   7.612
 2219POPC   C1B32155  38.149  17.831   8.635
 2219POPC   C2B32156  38.141  17.890   8.144
 2219POPC   C3B32157  38.212  18.065   7.695
 2219POPC   C4B32158  38.372  17.981   7.248
 2220POPC   NC332159   8.261   2.170   9.757
 2220POPC   PO432160   7.878   1.651   9.446
 2220POPC   GL132161   8.200   1.970   9.242
 2220POPC   GL232162   8.199   2.340   9.273
 2220POPC   C1A32163   8.453   2.092   8.858
 2220POPC   D2A32164   8.233   2.104   8.454
 2220POPC   C3A32165   8.380   2.063   8.061
 2220POPC   C4A32166   8.169   1.855   7.744
 2220POPC   C1B32167   8.122   2.473   8.847
 2220POPC   C2B32168   8.231   2.606   8.426
 2220POPC   C3B32169   8.124   2.486   8.018
 2220POPC   C4B32170   8.047   2.360   7.583
 2221POPC   NC332171  24.350  24.614   9.512
 2221POPC   PO432172  24.142  24.049   9.134
 2221POPC   GL132173  24.467  24.397   9.054
 2221POPC   GL232174  24.391  24.762   9.043
 2221POPC   C1A32175  24.701  24.400   8.696
 2221POPC   D2A32176  24.451  24.317   8.346
 2221POPC   C3A32177  24.634  24.326   7.949
 2221POPC   C4A32178  24.610  24.711   7.773
 2221POPC   C1B32179  24.475  24.856   8.640
 2221POPC   C2B32180  24.316  24.803   8.266
 2221POPC   C3B32181  24.337  25.073   7.964
 2221POPC   C4B32182  24.129  24.824   7.677
 2222POPC   NC332183  36.124  22.654  10.185
 2222POPC   PO432184  36.516  22.706   9.673
 2222POPC   GL132185  36.433  22.645   9.178
 2222POPC   GL232186  36.175  22.907   9.095
 2222POPC   C1A32187  36.388  22.742   8.678
 2222POPC   D2A32188  36.204  22.579   8.270
 2222POPC   C3A32189  36.338  22.749   7.868
 2222POPC   C4A32190  36.224  23.080   7.520
 2222POPC   C1B32191  35.900  22.875   8.678
 2222POPC   C2B32192  35.790  22.897   8.211
 2222POPC   C3B32193  35.847  22.849   7.760
 2222POPC   C4B32194  35.787  22.895   7.299
 2223POPC   NC332195  10.615  41.706   9.483
 2223POPC   PO432196  10.067  41.362   9.658
 2223POPC   GL132197  10.286  41.315   9.215
 2223POPC   GL232198  10.664  41.330   9.137
 2223POPC   C1A32199  10.384  41.626   8.842
 2223POPC   D2A32200  10.333  41.651   8.382
 2223POPC   C3A32201  10.673  41.485   8.157
 2223POPC   C4A32202  10.622  41.301   7.769
 2223POPC   C1B32203  10.493  41.147   8.749
 2223POPC   C2B32204  10.374  41.074   8.336
 2223POPC   C3B32205  10.131  41.183   7.999
 2223POPC   C4B32206  10.143  41.294   7.547
 2224POPC   NC332207  17.273  18.092   9.765
 2224POPC   PO432208  17.660  18.537   9.481
 2224POPC   GL132209  17.667  18.159   9.267
 2224POPC   GL232210  17.301  18.174   9.260
 2224POPC   C1A32211  17.722  18.092   8.822
 2224POPC   D2A32212  17.538  18.243   8.422
 2224POPC   C3A32213  17.729  18.507   8.093
 2224POPC   C4A32214  17.656  18.439   7.683
 2224POPC   C1B32215  17.240  18.316   8.839
 2224POPC   C2B32216  17.075  18.457   8.423
 2224POPC   C3B32217  17.193  18.370   8.020
 2224POPC   C4B32218  16.976  18.201   7.650
 2225POPC   NC332219  43.138  44.616   9.483
 2225POPC   PO432220  43.046   0.291   9.296
 2225POPC   GL132221  43.225  44.926   9.111
 2225POPC   GL232222  42.853  44.805   9.094
 2225POPC   C1A32223  43.185  44.538   8.815
 2225POPC   D2A32224  43.064  44.448   8.404
 2225POPC   C3A32225  43.346  44.572   8.098
 2225POPC   C4A32226  43.331  44.527   7.679
 2225POPC   C1B32227  42.968   0.023   8.707
 2225POPC   C2B32228  43.147  44.973   8.361
 2225POPC   C3B32229  42.925  44.819   8.050
 2225POPC   C4B32230  43.088  44.993   7.732
 2226POPC   NC332231   2.764   4.596   9.469
 2226POPC   PO432232   3.090   3.974   9.516
 2226POPC   GL132233   2.928   4.199   9.145
 2226POPC   GL232234   2.578   4.314   9.074
 2226POPC   C1A32235   2.857   4.050   8.720
 2226POPC   D2A32236   2.950   4.287   8.374
 2226POPC   C3A32237   2.717   4.218   8.033
 2226POPC   C4A32238   2.872   4.287   7.663
 2226POPC   C1B32239   2.608   4.513   8.677
 2226POPC   C2B32240   2.456   4.624   8.258
 2226POPC   C3B32241   2.510   4.626   7.804
 2226POPC   C4B32242   2.595   4.556   7.331
 2227POPC   NC332243  33.646  44.214   9.641
 2227POPC   PO432244  33.931  44.885   9.523
 2227POPC   GL132245  33.766  44.717   9.147
 2227POPC   GL232246  33.731  44.366   9.160
 2227POPC   C1A32247  33.812  44.898   8.746
 2227POPC   D2A32248  34.085  44.861   8.395
 2227POPC   C3A32249  33.806  44.737   8.085
 2227POPC   C4A32250  33.602  44.888   7.719
 2227POPC   C1B32251  33.516  44.176   8.813
 2227POPC   C2B32252  33.586  44.375   8.391
 2227POPC   C3B32253  33.480  44.251   7.943
 2227POPC   C4B32254  33.484  44.419   7.472
 2228POPC   NC332255  13.612  44.403   9.360
 2228POPC   PO432256  13.972   0.001   9.396
 2228POPC   GL132257  13.697  44.862   9.099
 2228POPC   GL232258  13.920  44.603   9.016
 2228POPC   C1A32259  13.382  44.690   8.828
 2228POPC   D2A32260  13.451  44.420   8.497
 2228POPC   C3A32261  13.531  44.642   8.144
 2228POPC   C4A32262  13.481  44.603   7.708
 2228POPC   C1B32263  13.848  44.764   8.612
 2228POPC   C2B32264  14.088  44.778   8.263
 2228POPC   C3B32265  13.983  44.554   7.922
 2228POPC   C4B32266  13.834  44.953   7.813
 2229POPC   NC332267  15.956  42.993   9.538
 2229POPC   PO432268  16.315  43.569   9.544
 2229POPC   GL132269  16.123  43.444   9.144
 2229POPC   GL232270  15.897  43.167   9.080
 2229POPC   C1A32271  16.066  43.363   8.663
 2229POPC   D2A32272  15.873  43.062   8.391
 2229POPC   C3A32273  15.922  43.254   8.032
 2229POPC   C4A32274  15.940  43.505   7.635
 2229POPC   C1B32275  16.320  43.007   8.942
 2229POPC   C2B32276  16.357  42.944   8.498
 2229POPC   C3B32277  16.408  42.990   8.078
 2229POPC   C4B32278  16.217  43.081   7.672
 2230POPC   NC332279  39.495  30.747   9.617
 2230POPC   PO432280  38.978  31.015   9.394
 2230POPC   GL132281  39.282  30.810   9.148
 2230POPC   GL232282  39.649  30.858   9.062
 2230POPC   C1A32283  39.238  30.781   8.732
 2230POPC   D2A32284  39.163  30.875   8.332
 2230POPC   C3A32285  38.866  30.666   8.136
 2230POPC   C4A32286  38.894  30.709   7.709
 2230POPC   C1B32287  39.595  30.434   8.823
 2230POPC   C2B32288  39.362  30.399   8.396
 2230POPC   C3B32289  39.352  30.583   7.946
 2230POPC   C4B32290  39.405  30.494   7.494
 2231POPC   NC332291  28.806   0.936   9.494
 2231POPC   PO432292  28.938   1.528   9.366
 2231POPC   GL132293  29.032   1.203   9.122
 2231POPC   GL232294  29.393   1.240   9.142
 2231POPC   C1A32295  29.083   1.213   8.716
 2231POPC   D2A32296  29.319   1.459   8.461
 2231POPC   C3A32297  29.307   1.397   8.025
 2231POPC   C4A32298  29.098   1.022   7.880
 2231POPC   C1B32299  29.499   0.933   8.812
 2231POPC   C2B32300  29.492   0.952   8.333
 2231POPC   C3B32301  29.565   0.756   7.898
 2231POPC   C4B32302  29.420   0.867   7.462
 2232POPC   NC332303  28.019  32.781   9.623
 2232POPC   PO432304  27.526  33.020   9.770
 2232POPC   GL132305  27.671  33.063   9.291
 2232POPC   GL232306  27.876  32.797   9.122
 2232POPC   C1A32307  27.557  33.176   8.822
 2232POPC   D2A32308  27.390  33.330   8.394
 2232POPC   C3A32309  27.530  33.237   7.946
 2232POPC   C4A32310  27.630  33.155   7.485
 2232POPC   C1B32311  27.730  32.706   8.702
 2232POPC   C2B32312  27.731  32.896   8.285
 2232POPC   C3B32313  27.685  32.754   7.836
 2232POPC   C4B32314  27.589  32.642   7.390
 2233POPC   NC332315  24.968   2.678   9.528
 2233POPC   PO432316  25.643   2.764   9.500
 2233POPC   GL132317  25.569   2.702   9.074
 2233POPC   GL232318  25.200   2.722   9.079
 2233POPC   C1A32319  25.683   2.692   8.641
 2233POPC   D2A32320  25.482   2.860   8.252
 2233POPC   C3A32321  25.213   2.594   7.996
 2233POPC   C4A32322  25.317   2.491   7.533
 2233POPC   C1B32323  24.838   2.947   8.814
 2233POPC   C2B32324  24.937   2.853   8.378
 2233POPC   C3B32325  24.874   3.013   7.989
 2233POPC   C4B32326  24.888   2.801   7.630
 2234POPC   NC332327  15.347   3.433   9.693
 2234POPC   PO432328  14.743   3.749   9.475
 2234POPC   GL132329  15.097   3.576   9.190
 2234POPC   GL232330  15.457   3.536   9.204
 2234POPC   C1A32331  15.215   3.405   8.771
 2234POPC   D2A32332  15.145   3.643   8.386
 2234POPC   C3A32333  15.253   3.527   7.968
 2234POPC   C4A32334  15.301   3.731   7.571
 2234POPC   C1B32335  15.663   3.626   8.782
 2234POPC   C2B32336  15.655   3.433   8.337
 2234POPC   C3B32337  15.587   3.135   7.968
 2234POPC   C4B32338  15.373   3.217   7.542
 2235POPC   NC332339  10.195   5.305   9.375
 2235POPC   PO432340   9.660   5.898   9.443
 2235POPC   GL132341   9.746   5.856   9.080
 2235POPC   GL232342   9.641   6.158   8.961
 2235POPC   C1A32343   9.909   5.630   8.763
 2235POPC   D2A32344   9.749   5.776   8.351
 2235POPC   C3A32345   9.890   5.644   7.946
 2235POPC   C4A32346   9.562   5.671   7.654
 2235POPC   C1B32347   9.968   6.113   8.675
 2235POPC   C2B32348   9.946   6.235   8.250
 2235POPC   C3B32349   9.655   6.123   7.900
 2235POPC   C4B32350   9.808   6.064   7.448
 2236POPC   NC332351  38.096  37.627   9.602
 2236POPC   PO432352  38.683  37.787   9.573
 2236POPC   GL132353  38.400  37.812   9.230
 2236POPC   GL232354  38.258  38.129   9.216
 2236POPC   C1A32355  38.471  37.592   8.839
 2236POPC   D2A32356  38.550  37.448   8.408
 2236POPC   C3A32357  38.644  37.742   8.078
 2236POPC   C4A32358  38.539  37.592   7.653
 2236POPC   C1B32359  38.146  38.000   8.827
 2236POPC   C2B32360  38.312  37.905   8.449
 2236POPC   C3B32361  38.219  38.050   8.059
 2236POPC   C4B32362  38.118  37.864   7.667
 2237POPC   NC332363  18.165   1.734   9.555
 2237POPC   PO432364  17.983   2.333   9.521
 2237POPC   GL132365  18.049   2.080   9.152
 2237POPC   GL232366  18.371   2.068   9.083
 2237POPC   C1A32367  18.086   2.117   8.673
 2237POPC   D2A32368  18.191   1.922   8.270
 2237POPC   C3A32369  18.100   1.986   7.828
 2237POPC   C4A32370  18.050   2.046   7.426
 2237POPC   C1B32371  18.580   2.264   8.779
 2237POPC   C2B32372  18.659   2.085   8.397
 2237POPC   C3B32373  18.565   2.152   7.968
 2237POPC   C4B32374  18.538   2.005   7.545
 2238POPC   NC332375  41.297  22.915   9.381
 2238POPC   PO432376  42.000  23.089   9.384
 2238POPC   GL132377  41.772  22.794   9.140
 2238POPC   GL232378  41.608  23.080   9.023
 2238POPC   C1A32379  41.484  22.621   8.821
 2238POPC   D2A32380  41.365  22.622   8.400
 2238POPC   C3A32381  41.681  22.694   8.063
 2238POPC   C4A32382  41.653  22.600   7.634
 2238POPC   C1B32383  41.340  23.134   8.692
 2238POPC   C2B32384  41.428  23.098   8.255
 2238POPC   C3B32385  41.314  22.981   7.803
 2238POPC   C4B32386  41.278  23.290   7.449
 2239POPC   NC332387   3.959  17.806   9.431
 2239POPC   PO432388   3.228  17.512   9.469
 2239POPC   GL132389   3.482  17.519   9.108
 2239POPC   GL232390   3.808  17.505   9.083
 2239POPC   C1A32391   3.599  17.292   8.706
 2239POPC   D2A32392   3.583  17.181   8.295
 2239POPC   C3A32393   3.511  17.478   7.958
 2239POPC   C4A32394   3.478  17.487   7.542
 2239POPC   C1B32395   3.659  17.830   8.770
 2239POPC   C2B32396   3.669  17.703   8.377
 2239POPC   C3B32397   3.919  17.790   8.028
 2239POPC   C4B32398   3.940  17.664   7.627
 2240POPC   NC332399  23.001  31.167   9.551
 2240POPC   PO432400  22.920  31.810   9.456
 2240POPC   GL132401  22.904  31.487   9.133
 2240POPC   GL232402  22.807  31.132   9.085
 2240POPC   C1A32403  22.806  31.474   8.702
 2240POPC   D2A32404  22.952  31.624   8.315
 2240POPC   C3A32405  22.843  31.407   7.960
 2240POPC   C4A32406  22.687  31.447   7.534
 2240POPC   C1B32407  23.214  31.188   8.833
 2240POPC   C2B32408  23.421  31.301   8.446
 2240POPC   C3B32409  23.324  31.206   8.030
 2240POPC   C4B32410  23.170  31.244   7.604
 2241POPC   NC332411   8.433   9.154   9.504
 2241POPC   PO432412   9.052   9.190   9.659
 2241POPC   GL132413   8.880   9.194   9.215
 2241POPC   GL232414   8.927   8.829   9.173
 2241POPC   C1A32415   8.779   9.092   8.750
 2241POPC   D2A32416   8.516   8.939   8.424
 2241POPC   C3A32417   8.576   9.143   8.051
 2241POPC   C4A32418   8.823   8.834   7.883
 2241POPC   C1B32419   9.263   8.983   8.886
 2241POPC   C2B32420   9.359   9.134   8.472
 2241POPC   C3B32421   9.301   9.019   8.035
 2241POPC   C4B32422   9.033   9.284   7.794
 2242POPC   NC332423  20.815   1.767   9.340
 2242POPC   PO432424  20.857   1.114   9.498
 2242POPC   GL132425  20.503   1.172   9.175
 2242POPC   GL232426  20.411   1.502   9.015
 2242POPC   C1A32427  20.276   1.031   8.812
 2242POPC   D2A32428  20.423   1.179   8.421
 2242POPC   C3A32429  20.488   0.929   8.052
 2242POPC   C4A32430  20.524   1.102   7.649
 2242POPC   C1B32431  20.773   1.379   8.782
 2242POPC   C2B32432  20.924   1.364   8.377
 2242POPC   C3B32433  20.716   1.380   8.023
 2242POPC   C4B32434  20.832   1.501   7.631
 2243POPC   NC332435  25.980  28.046   9.402
 2243POPC   PO432436  25.814  27.371   9.412
 2243POPC   GL132437  25.951  27.646   9.095
 2243POPC   GL232438  25.696  27.918   9.011
 2243POPC   C1A32439  25.959  27.600   8.680
 2243POPC   D2A32440  25.904  27.388   8.315
 2243POPC   C3A32441  26.120  27.558   7.983
 2243POPC   C4A32442  26.148  27.383   7.591
 2243POPC   C1B32443  25.899  28.109   8.700
 2243POPC   C2B32444  26.030  27.950   8.314
 2243POPC   C3B32445  25.935  28.031   7.898
 2243POPC   C4B32446  26.178  27.881   7.572
 2244POPC   NC332447   3.046  37.709   9.917
 2244POPC   PO432448   2.492  37.894   9.638
 2244POPC   GL132449   2.648  37.735   9.183
 2244POPC   GL232450   2.934  37.615   9.195
 2244POPC   C1A32451   2.769  37.762   8.739
 2244POPC   D2A32452   2.804  37.871   8.320
 2244POPC   C3A32453   2.458  37.895   8.044
 2244POPC   C4A32454   2.398  37.768   7.646
 2244POPC   C1B32455   3.052  37.341   8.828
 2244POPC   C2B32456   2.864  37.296   8.412
 2244POPC   C3B32457   2.665  37.432   8.022
 2244POPC   C4B32458   2.844  37.494   7.597
 2245POPC   NC332459  23.932  27.757   9.499
 2245POPC   PO432460  23.423  27.352   9.621
 2245POPC   GL132461  23.597  27.309   9.222
 2245POPC   GL232462  23.900  27.436   9.092
 2245POPC   C1A32463  23.467  27.306   8.834
 2245POPC   D2A32464  23.626  27.457   8.475
 2245POPC   C3A32465  23.453  27.360   8.075
 2245POPC   C4A32466  23.390  27.197   7.714
 2245POPC   C1B32467  23.740  27.810   8.848
 2245POPC   C2B32468  23.814  27.916   8.393
 2245POPC   C3B32469  23.822  27.711   8.007
 2245POPC   C4B32470  23.671  27.608   7.573
 2246POPC   NC332471  11.194  11.424   9.504
 2246POPC   PO432472  11.886  11.301   9.692
 2246POPC   GL132473  11.631  11.209   9.274
 2246POPC   GL232474  11.511  11.533   9.142
 2246POPC   C1A32475  11.393  11.163   8.846
 2246POPC   D2A32476  11.117  11.092   8.505
 2246POPC   C3A32477  11.039  11.239   8.088
 2246POPC   C4A32478  10.915  11.037   7.680
 2246POPC   C1B32479  11.158  11.605   8.827
 2246POPC   C2B32480  11.345  11.561   8.429
 2246POPC   C3B32481  11.358  11.792   8.056
 2246POPC   C4B32482  11.147  11.598   7.732
 2247POPC   NC332483  40.986  40.950   9.445
 2247POPC   PO432484  41.566  40.506   9.489
 2247POPC   GL132485  41.575  40.793   9.143
 2247POPC   GL232486  41.603  41.129   9.267
 2247POPC   C1A32487  41.322  40.978   8.797
 2247POPC   D2A32488  41.236  41.095   8.345
 2247POPC   C3A32489  41.236  40.754   8.030
 2247POPC   C4A32490  41.206  40.620   7.595
 2247POPC   C1B32491  41.848  41.131   8.864
 2247POPC   C2B32492  41.923  41.314   8.450
 2247POPC   C3B32493  41.693  41.167   8.089
 2247POPC   C4B32494  41.636  40.899   7.737
 2248POPC   NC332495  40.681  27.002   9.343
 2248POPC   PO432496  41.059  26.519   9.335
 2248POPC   GL132497  40.812  26.637   9.002
 2248POPC   GL232498  40.450  26.693   8.999
 2248POPC   C1A32499  40.832  26.580   8.578
 2248POPC   D2A32500  41.139  26.497   8.307
 2248POPC   C3A32501  41.016  26.572   7.916
 2248POPC   C4A32502  40.790  26.789   7.633
 2248POPC   C1B32503  40.606  27.019   8.699
 2248POPC   C2B32504  40.766  26.972   8.271
 2248POPC   C3B32505  40.662  27.179   7.909
 2248POPC   C4B32506  40.300  26.928   7.719
 2249POPC   NC332507  34.870   6.005   9.563
 2249POPC   PO432508  34.542   5.415   9.502
 2249POPC   GL132509  34.498   5.793   9.268
 2249POPC   GL232510  34.839   5.714   9.164
 2249POPC   C1A32511  34.506   6.014   8.867
 2249POPC   D2A32512  34.386   5.867   8.448
 2249POPC   C3A32513  34.597   6.090   8.139
 2249POPC   C4A32514  34.518   6.138   7.730
 2249POPC   C1B32515  34.678   5.516   8.821
 2249POPC   C2B32516  34.834   5.580   8.433
 2249POPC   C3B32517  34.617   5.576   8.065
 2249POPC   C4B32518  34.750   5.692   7.700
 2250POPC   NC332519  35.468  19.274   9.593
 2250POPC   PO432520  34.916  19.474   9.581
 2250POPC   GL132521  35.189  19.323   9.174
 2250POPC   GL232522  35.553  19.449   9.117
 2250POPC   C1A32523  35.304  19.172   8.735
 2250POPC   D2A32524  35.475  19.078   8.314
 2250POPC   C3A32525  35.250  19.229   7.936
 2250POPC   C4A32526  34.972  18.931   7.704
 2250POPC   C1B32527  35.735  19.492   8.696
 2250POPC   C2B32528  35.850  19.435   8.242
 2250POPC   C3B32529  35.782  19.319   7.787
 2250POPC   C4B32530  35.805  19.420   7.295
 2251POPC   NC332531  19.451  30.776   9.591
 2251POPC   PO432532  20.128  30.512   9.479
 2251POPC   GL132533  19.983  30.659   9.118
 2251POPC   GL232534  19.687  30.465   9.207
 2251POPC   C1A32535  20.168  30.971   8.802
 2251POPC   D2A32536  20.120  31.163   8.389
 2251POPC   C3A32537  19.859  30.887   8.148
 2251POPC   C4A32538  19.888  30.746   7.733
 2251POPC   C1B32539  19.694  30.269   8.823
 2251POPC   C2B32540  19.889  30.198   8.447
 2251POPC   C3B32541  19.915  30.372   8.084
 2251POPC   C4B32542  19.915  30.232   7.709
 2252POPC   NC332543  11.122   0.248   9.908
 2252POPC   PO432544  11.343   0.612   9.420
 2252POPC   GL132545  11.454   0.467   9.049
 2252POPC   GL232546  11.733   0.655   9.015
 2252POPC   C1A32547  11.439   0.172   8.719
 2252POPC   D2A32548  11.246   0.091   8.320
 2252POPC   C3A32549  11.429   0.267   7.956
 2252POPC   C4A32550  11.273   0.256   7.530
 2252POPC   C1B32551  11.522   0.711   8.601
 2252POPC   C2B32552  11.703   0.759   8.181
 2252POPC   C3B32553  11.676   0.661   7.751
 2252POPC   C4B32554  11.612   0.612   7.306
 2253POPC   NC332555   9.657   0.604   9.600
 2253POPC   PO432556   9.835   0.067   9.328
 2253POPC   GL132557   9.691   0.483   9.079
 2253POPC   GL232558   9.382   0.707   9.152
 2253POPC   C1A32559   9.898   0.596   8.667
 2253POPC   D2A32560   9.960   0.282   8.319
 2253POPC   C3A32561   9.877   0.388   7.896
 2253POPC   C4A32562   9.617   0.053   7.756
 2253POPC   C1B32563   9.274   0.795   8.730
 2253POPC   C2B32564   9.494   0.650   8.360
 2253POPC   C3B32565   9.410   0.596   7.934
 2253POPC   C4B32566   9.587   0.765   7.561
 2254POPC   NC332567  15.257   8.349   9.475
 2254POPC   PO432568  14.943   7.956   9.189
 2254POPC   GL132569  15.373   8.073   9.017
 2254POPC   GL232570  15.437   8.433   9.018
 2254POPC   C1A32571  15.507   8.159   8.579
 2254POPC   D2A32572  15.378   7.973   8.193
 2254POPC   C3A32573  15.115   8.071   7.894
 2254POPC   C4A32574  14.688   8.004   7.929
 2254POPC   C1B32575  15.087   8.426   8.747
 2254POPC   C2B32576  14.992   8.319   8.345
 2254POPC   C3B32577  14.950   8.534   7.974
 2254POPC   C4B32578  15.186   8.661   7.606
 2255POPC   NC332579  13.123  11.282   9.563
 2255POPC   PO432580  12.749  10.799   9.741
 2255POPC   GL132581  12.914  10.974   9.221
 2255POPC   GL232582  13.179  11.230   9.060
 2255POPC   C1A32583  12.779  11.189   8.774
 2255POPC   D2A32584  12.793  11.449   8.376
 2255POPC   C3A32585  12.806  11.161   8.068
 2255POPC   C4A32586  12.555  10.983   7.729
 2255POPC   C1B32587  13.177  11.570   8.697
 2255POPC   C2B32588  13.297  11.612   8.245
 2255POPC   C3B32589  13.162  11.460   7.830
 2255POPC   C4B32590  13.059  11.044   7.638
 2256POPC   NC332591   7.954   3.106   9.588
 2256POPC   PO432592   8.575   2.849   9.605
 2256POPC   GL132593   8.323   2.846   9.217
 2256POPC   GL232594   7.965   2.857   9.153
 2256POPC   C1A32595   8.284   2.977   8.787
 2256POPC   D2A32596   8.514   3.044   8.405
 2256POPC   C3A32597   8.281   2.974   8.068
 2256POPC   C4A32598   8.335   2.811   7.650
 2256POPC   C1B32599   7.767   2.823   8.726
 2256POPC   C2B32600   7.803   2.841   8.272
 2256POPC   C3B32601   7.845   2.837   7.802
 2256POPC   C4B32602   7.927   2.830   7.349
 2257POPC   NC332603   4.394   0.592   9.590
 2257POPC   PO432604   3.779   0.781   9.397
 2257POPC   GL132605   4.108   0.569   9.145
 2257POPC   GL232606   4.496   0.509   9.111
 2257POPC   C1A32607   4.042   0.263   8.827
 2257POPC   D2A32608   3.904   0.213   8.403
 2257POPC   C3A32609   4.245   0.089   8.132
 2257POPC   C4A32610   4.544   0.169   7.788
 2257POPC   C1B32611   4.370   0.641   8.690
 2257POPC   C2B32612   4.244   0.589   8.262
 2257POPC   C3B32613   4.300   0.642   7.825
 2257POPC   C4B32614   4.125   0.685   7.410
 2258POPC   NC332615  29.525   4.058   9.422
 2258POPC   PO432616  28.918   4.374   9.679
 2258POPC   GL132617  29.047   4.335   9.237
 2258POPC   GL232618  29.068   4.036   9.053
 2258POPC   C1A32619  29.193   4.492   8.828
 2258POPC   D2A32620  29.324   4.331   8.417
 2258POPC   C3A32621  29.126   4.517   8.073
 2258POPC   C4A32622  29.340   4.479   7.700
 2258POPC   C1B32623  28.894   4.121   8.609
 2258POPC   C2B32624  28.864   4.020   8.157
 2258POPC   C3B32625  29.078   4.018   7.745
 2258POPC   C4B32626  28.861   4.068   7.338
 2259POPC   NC332627  27.519   1.756   9.537
 2259POPC   PO432628  27.747   2.433   9.602
 2259POPC   GL132629  27.700   2.127   9.195
 2259POPC   GL232630  27.341   2.020   9.119
 2259POPC   C1A32631  27.712   1.986   8.717
 2259POPC   D2A32632  27.947   2.086   8.297
 2259POPC   C3A32633  27.743   2.181   7.866
 2259POPC   C4A32634  27.772   1.920   7.477
 2259POPC   C1B32635  27.189   1.783   8.750
 2259POPC   C2B32636  27.298   1.661   8.324
 2259POPC   C3B32637  27.348   1.812   7.901
 2259POPC   C4B32638  27.299   2.108   7.561
 2260POPC   NC332639  24.936  42.662   9.796
 2260POPC   PO432640  25.168  43.226   9.523
 2260POPC   GL132641  25.212  43.299   9.111
 2260POPC   GL232642  25.142  43.634   9.121
 2260POPC   C1A32643  25.102  43.143   8.727
 2260POPC   D2A32644  25.006  43.045   8.307
 2260POPC   C3A32645  25.318  42.871   8.002
 2260POPC   C4A32646  25.282  42.889   7.553
 2260POPC   C1B32647  25.149  43.764   8.743
 2260POPC   C2B32648  25.098  43.547   8.388
 2260POPC   C3B32649  25.263  43.386   8.026
 2260POPC   C4B32650  25.212  43.449   7.618
 2261POPC   NC332651  40.678  24.646   9.527
 2261POPC   PO432652  39.956  24.588   9.454
 2261POPC   GL132653  39.872  24.457   9.047
 2261POPC   GL232654  39.858  24.129   9.019
 2261POPC   C1A32655  39.724  24.487   8.616
 2261POPC   D2A32656  39.927  24.389   8.231
 2261POPC   C3A32657  39.849  24.592   7.858
 2261POPC   C4A32658  40.079  24.441   7.500
 2261POPC   C1B32659  40.190  24.146   8.725
 2261POPC   C2B32660  40.393  24.111   8.314
 2261POPC   C3B32661  40.235  23.996   7.882
 2261POPC   C4B32662  40.247  23.957   7.400
 2262POPC   NC332663  13.054  22.281   9.520
 2262POPC   PO432664  12.619  21.815   9.632
 2262POPC   GL132665  12.721  22.199   9.173
 2262POPC   GL232666  12.998  22.200   8.993
 2262POPC   C1A32667  12.487  22.278   8.764
 2262POPC   D2A32668  12.421  22.136   8.318
 2262POPC   C3A32669  12.722  21.813   8.151
 2262POPC   C4A32670  13.031  21.920   7.838
 2262POPC   C1B32671  12.957  22.387   8.576
 2262POPC   C2B32672  12.887  22.334   8.139
 2262POPC   C3B32673  12.939  22.519   7.739
 2262POPC   C4B32674  12.915  22.518   7.287
 2263POPC   NC332675  18.507  26.258   9.611
 2263POPC   PO432676  18.607  25.690   9.761
 2263POPC   GL132677  18.285  25.846   9.367
 2263POPC   GL232678  18.308  26.191   9.161
 2263POPC   C1A32679  18.256  25.784   8.890
 2263POPC   D2A32680  18.348  25.747   8.431
 2263POPC   C3A32681  18.059  25.884   8.092
 2263POPC   C4A32682  18.283  25.988   7.705
 2263POPC   C1B32683  18.385  26.315   8.726
 2263POPC   C2B32684  18.232  26.348   8.284
 2263POPC   C3B32685  17.943  26.351   7.907
 2263POPC   C4B32686  17.952  26.349   7.438
 2264POPC   NC332687  26.663  28.693   9.388
 2264POPC   PO432688  26.551  29.371   9.479
 2264POPC   GL132689  26.703  29.159   9.134
 2264POPC   GL232690  26.385  29.158   8.998
 2264POPC   C1A32691  26.775  28.881   8.767
 2264POPC   D2A32692  27.148  28.922   8.501
 2264POPC   C3A32693  27.006  28.882   8.060
 2264POPC   C4A32694  26.904  29.155   7.713
 2264POPC   C1B32695  26.634  29.351   8.642
 2264POPC   C2B32696  26.795  29.584   8.296
 2264POPC   C3B32697  26.886  29.648   7.883
 2264POPC   C4B32698  26.590  29.590   7.583
 2265POPC   NC332699   1.676  28.581   9.497
 2265POPC   PO432700   1.084  28.163   9.643
 2265POPC   GL132701   1.105  28.323   9.210
 2265POPC   GL232702   1.275  28.645   9.177
 2265POPC   C1A32703   1.222  28.322   8.799
 2265POPC   D2A32704   1.412  28.017   8.562
 2265POPC   C3A32705   1.307  28.010   8.124
 2265POPC   C4A32706   1.325  28.276   7.768
 2265POPC   C1B32707   1.267  28.898   8.833
 2265POPC   C2B32708   1.152  28.812   8.424
 2265POPC   C3B32709   1.239  28.772   7.993
 2265POPC   C4B32710   1.389  28.773   7.587
 2266POPC   NC332711  12.349  36.969   9.700
 2266POPC   PO432712  11.709  36.888   9.710
 2266POPC   GL132713  12.028  36.808   9.329
 2266POPC   GL232714  11.774  36.710   9.160
 2266POPC   C1A32715  12.057  36.982   8.841
 2266POPC   D2A32716  11.848  37.067   8.421
 2266POPC   C3A32717  12.061  37.033   8.015
 2266POPC   C4A32718  12.364  37.027   7.657
 2266POPC   C1B32719  11.583  36.742   8.770
 2266POPC   C2B32720  11.743  36.556   8.391
 2266POPC   C3B32721  11.868  36.437   8.008
 2266POPC   C4B32722  11.940  36.670   7.677
 2267POPC   NC332723  20.833  44.766   9.711
 2267POPC   PO432724  20.360  44.307   9.522
 2267POPC   GL132725  20.515  44.684   9.275
 2267POPC   GL232726  20.878  44.698   9.211
 2267POPC   C1A32727  20.555  44.846   8.837
 2267POPC   D2A32728  20.489  44.604   8.447
 2267POPC   C3A32729  20.573  44.849   8.078
 2267POPC   C4A32730  20.624  44.808   7.665
 2267POPC   C1B32731  20.756  44.376   8.895
 2267POPC   C2B32732  20.950  44.292   8.532
 2267POPC   C3B32733  20.887  44.457   8.146
 2267POPC   C4B32734  20.708  44.318   7.787
 2268POPC   NC332735   3.915  18.539   9.579
 2268POPC   PO432736   3.555  18.015   9.410
 2268POPC   GL132737   3.716  18.276   9.102
 2268POPC   GL232738   3.983  18.545   9.082
 2268POPC   C1A32739   3.494  18.345   8.720
 2268POPC   D2A32740   3.299  18.044   8.438
 2268POPC   C3A32741   3.455  18.031   8.011
 2268POPC   C4A32742   3.407  18.391   7.745
 2268POPC   C1B32743   4.025  18.339   8.710
 2268POPC   C2B32744   3.821  18.204   8.342
 2268POPC   C3B32745   3.933  18.291   7.931
 2268POPC   C4B32746   3.858  18.574   7.601
 2269POPC   NC332747   7.189  18.022   9.527
 2269POPC   PO432748   7.025  18.599   9.333
 2269POPC   GL132749   7.293  18.387   9.117
 2269POPC   GL232750   7.134  18.133   9.027
 2269POPC   C1A32751   7.486  18.308   8.690
 2269POPC   D2A32752   7.440  18.359   8.218
 2269POPC   C3A32753   7.737  18.576   7.909
 2269POPC   C4A32754   7.768  18.706   7.444
 2269POPC   C1B32755   7.019  17.917   8.650
 2269POPC   C2B32756   7.128  17.930   8.200
 2269POPC   C3B32757   7.133  18.216   7.829
 2269POPC   C4B32758   7.082  17.956   7.459
 2270POPC   NC332759   4.798  18.590   9.647
 2270POPC   PO432760   4.441  17.945   9.416
 2270POPC   GL132761   4.328  18.157   9.103
 2270POPC   GL232762   4.114  17.925   8.974
 2270POPC   C1A32763   4.523  18.168   8.705
 2270POPC   D2A32764   4.346  18.254   8.316
 2270POPC   C3A32765   4.465  18.562   8.112
 2270POPC   C4A32766   4.373  18.525   7.724
 2270POPC   C1B32767   4.134  17.848   8.546
 2270POPC   C2B32768   4.397  17.755   8.220
 2270POPC   C3B32769   4.359  17.999   7.836
 2270POPC   C4B32770   4.108  18.126   7.475
 2271POPC   NC332771  33.597   4.910   9.705
 2271POPC   PO432772  33.760   4.145   9.585
 2271POPC   GL132773  33.884   4.259   9.119
 2271POPC   GL232774  34.209   4.101   9.066
 2271POPC   C1A32775  33.742   4.469   8.747
 2271POPC   D2A32776  33.516   4.313   8.397
 2271POPC   C3A32777  33.734   4.400   8.024
 2271POPC   C4A32778  33.979   4.418   7.648
 2271POPC   C1B32779  34.106   4.100   8.681
 2271POPC   C2B32780  33.932   4.007   8.323
 2271POPC   C3B32781  34.084   4.010   7.929
 2271POPC   C4B32782  34.228   3.751   7.620
 2272POPC   NC332783  36.707  31.138   9.477
 2272POPC   PO432784  36.916  31.782   9.667
 2272POPC   GL132785  37.070  31.508   9.302
 2272POPC   GL232786  36.761  31.505   9.098
 2272POPC   C1A32787  37.154  31.257   8.900
 2272POPC   D2A32788  37.036  31.380   8.479
 2272POPC   C3A32789  37.088  31.173   8.131
 2272POPC   C4A32790  37.170  30.964   7.785
 2272POPC   C1B32791  37.047  31.759   8.819
 2272POPC   C2B32792  37.218  31.873   8.415
 2272POPC   C3B32793  37.095  31.723   8.004
 2272POPC   C4B32794  36.946  31.407   7.696
 2273POPC   NC332795  41.270   6.036  10.016
 2273POPC   PO432796  41.208   5.510   9.712
 2273POPC   GL132797  41.531   5.714   9.388
 2273POPC   GL232798  41.791   5.464   9.260
 2273POPC   C1A32799  41.632   5.855   8.932
 2273POPC   D2A32800  41.394   6.045   8.560
 2273POPC   C3A32801  41.610   6.097   8.153
 2273POPC   C4A32802  41.780   5.998   7.760
 2273POPC   C1B32803  41.366   5.432   9.006
 2273POPC   C2B32804  41.315   5.542   8.573
 2273POPC   C3B32805  41.446   5.590   8.144
 2273POPC   C4B32806  41.368   5.696   7.728
 2274POPC   NC332807  38.999  17.936   9.857
 2274POPC   PO432808  39.318  18.474   9.648
 2274POPC   GL132809  39.496  18.249   9.293
 2274POPC   GL232810  39.214  18.180   9.201
 2274POPC   C1A32811  39.608  18.180   8.854
 2274POPC   D2A32812  39.483  18.045   8.443
 2274POPC   C3A32813  39.467  18.402   8.169
 2274POPC   C4A32814  39.603  18.595   7.801
 2274POPC   C1B32815  39.101  18.066   8.816
 2274POPC   C2B32816  38.957  18.177   8.443
 2274POPC   C3B32817  39.101  18.065   8.084
 2274POPC   C4B32818  39.270  18.133   7.725
 2275POPC   NC332819  44.369  33.660   9.504
 2275POPC   PO432820   0.008  33.936   9.520
 2275POPC   GL132821  44.736  33.813   9.168
 2275POPC   GL232822  44.474  34.043   9.181
 2275POPC   C1A32823  44.816  33.720   8.720
 2275POPC   D2A32824  44.725  33.854   8.289
 2275POPC   C3A32825  44.883  33.591   7.895
 2275POPC   C4A32826  44.798  33.526   7.449
 2275POPC   C1B32827  44.382  34.054   8.742
 2275POPC   C2B32828  44.207  34.041   8.326
 2275POPC   C3B32829  44.355  33.814   7.957
 2275POPC   C4B32830  44.586  33.946   7.616
 2276POPC   NC332831  39.929   0.112   9.481
 2276POPC   PO432832  39.653   0.704   9.484
 2276POPC   GL132833  39.953   0.505   9.123
 2276POPC   GL232834  40.219   0.247   9.010
 2276POPC   C1A32835  40.120   0.591   8.677
 2276POPC   D2A32836  40.187   0.265   8.366
 2276POPC   C3A32837  40.005   0.448   8.036
 2276POPC   C4A32838  40.087   0.840   7.865
 2276POPC   C1B32839  39.822   0.159   8.786
 2276POPC   C2B32840  39.575   0.058   8.434
 2276POPC   C3B32841  39.791  44.978   8.104
 2276POPC   C4B32842  39.778   0.135   7.709
 2277POPC   NC332843   3.550   7.007   9.487
 2277POPC   PO432844   3.593   6.374   9.753
 2277POPC   GL132845   3.614   6.522   9.282
 2277POPC   GL232846   3.468   6.246   9.099
 2277POPC   C1A32847   3.684   6.651   8.816
 2277POPC   D2A32848   3.746   6.558   8.348
 2277POPC   C3A32849   3.470   6.734   7.986
 2277POPC   C4A32850   3.147   7.003   7.750
 2277POPC   C1B32851   3.507   6.157   8.670
 2277POPC   C2B32852   3.271   6.335   8.324
 2277POPC   C3B32853   3.281   6.208   7.913
 2277POPC   C4B32854   3.646   6.268   7.714
 2278POPC   NC332855  37.307  21.735   9.574
 2278POPC   PO432856  37.805  21.188   9.625
 2278POPC   GL132857  37.791  21.360   9.128
 2278POPC   GL232858  38.067  21.342   8.966
 2278POPC   C1A32859  37.482  21.384   8.754
 2278POPC   D2A32860  37.505  21.236   8.354
 2278POPC   C3A32861  37.258  21.353   8.020
 2278POPC   C4A32862  37.346  21.339   7.596
 2278POPC   C1B32863  37.895  21.651   8.642
 2278POPC   C2B32864  37.864  21.676   8.178
 2278POPC   C3B32865  37.776  21.325   7.920
 2278POPC   C4B32866  38.019  20.937   7.910
 2279POPC   NC332867   7.752  29.830   9.387
 2279POPC   PO432868   7.242  30.243   9.421
 2279POPC   GL132869   7.415  30.097   9.065
 2279POPC   GL232870   7.795  30.212   9.041
 2279POPC   C1A32871   7.172  29.988   8.693
 2279POPC   D2A32872   7.064  29.772   8.305
 2279POPC   C3A32873   7.186  29.957   7.918
 2279POPC   C4A32874   7.174  30.044   7.500
 2279POPC   C1B32875   7.690  30.062   8.634
 2279POPC   C2B32876   7.567  30.018   8.227
 2279POPC   C3B32877   7.687  29.785   7.860
 2279POPC   C4B32878   7.919  29.396   7.888
 2280POPC   NC332879  11.713  37.186   9.356
 2280POPC   PO432880  11.217  36.756   9.545
 2280POPC   GL132881  11.180  36.867   9.133
 2280POPC   GL232882  11.262  37.172   9.117
 2280POPC   C1A32883  11.074  36.952   8.698
 2280POPC   D2A32884  11.246  36.707   8.368
 2280POPC   C3A32885  11.326  36.816   7.949
 2280POPC   C4A32886  11.460  36.488   7.689
 2280POPC   C1B32887  11.500  37.272   8.736
 2280POPC   C2B32888  11.361  37.192   8.318
 2280POPC   C3B32889  11.165  37.383   7.953
 2280POPC   C4B32890  11.339  37.183   7.569
 2281POPC   NC332891  15.959  23.071   9.796
 2281POPC   PO432892  16.282  22.497   9.532
 2281POPC   GL132893  16.201  22.978   9.339
 2281POPC   GL232894  15.827  23.116   9.260
 2281POPC   C1A32895  16.154  23.076   8.895
 2281POPC   D2A32896  16.178  22.868   8.510
 2281POPC   C3A32897  16.162  22.989   8.101
 2281POPC   C4A32898  16.015  22.878   7.681
 2281POPC   C1B32899  15.620  22.965   8.866
 2281POPC   C2B32900  15.668  22.860   8.432
 2281POPC   C3B32901  15.661  23.025   8.014
 2281POPC   C4B32902  15.701  23.277   7.607
 2282POPC   NC332903   6.289  40.248   9.470
 2282POPC   PO432904   6.926  40.136   9.540
 2282POPC   GL132905   6.874  40.156   9.120
 2282POPC   GL232906   6.551  40.022   9.087
 2282POPC   C1A32907   6.833  40.021   8.674
 2282POPC   D2A32908   6.585  40.019   8.328
 2282POPC   C3A32909   6.660  40.241   7.963
 2282POPC   C4A32910   6.766  40.161   7.546
 2282POPC   C1B32911   6.350  39.776   8.775
 2282POPC   C2B32912   6.435  39.545   8.449
 2282POPC   C3B32913   6.241  39.644   8.077
 2282POPC   C4B32914   6.326  39.897   7.694
 2283POPC   NC332915  26.266  13.729   9.446
 2283POPC   PO432916  25.882  13.259   9.390
 2283POPC   GL132917  25.978  13.563   9.048
 2283POPC   GL232918  25.961  13.954   9.110
 2283POPC   C1A32919  25.885  13.737   8.646
 2283POPC   D2A32920  25.909  13.750   8.210
 2283POPC   C3A32921  26.095  13.460   7.948
 2283POPC   C4A32922  26.133  13.394   7.510
 2283POPC   C1B32923  26.316  14.004   8.828
 2283POPC   C2B32924  26.269  14.077   8.400
 2283POPC   C3B32925  26.373  13.900   8.013
 2283POPC   C4B32926  26.411  13.896   7.583
 2284POPC   NC332927   2.668  29.731   9.516
 2284POPC   PO432928   2.737  30.345   9.575
 2284POPC   GL132929   2.637  30.117   9.160
 2284POPC   GL232930   2.444  29.774   9.085
 2284POPC   C1A32931   2.793  30.060   8.730
 2284POPC   D2A32932   3.038  29.889   8.371
 2284POPC   C3A32933   3.051  30.167   8.027
 2284POPC   C4A32934   2.677  30.274   7.833
 2284POPC   C1B32935   2.473  29.642   8.681
 2284POPC   C2B32936   2.241  29.770   8.323
 2284POPC   C3B32937   2.388  29.736   7.920
 2284POPC   C4B32938   2.817  29.703   7.880
 2285POPC   NC332939  26.008   9.536   9.618
 2285POPC   PO432940  25.972  10.074   9.275
 2285POPC   GL132941  26.151   9.677   9.170
 2285POPC   GL232942  26.481   9.590   9.238
 2285POPC   C1A32943  26.047   9.538   8.802
 2285POPC   D2A32944  25.972   9.485   8.393
 2285POPC   C3A32945  25.831   9.851   8.133
 2285POPC   C4A32946  25.854   9.555   7.777
 2285POPC   C1B32947  26.462   9.902   8.874
 2285POPC   C2B32948  26.257   9.900   8.483
 2285POPC   C3B32949  26.309   9.719   8.090
 2285POPC   C4B32950  26.193   9.934   7.748
 2286POPC   NC332951   8.067  17.207   9.545
 2286POPC   PO432952   8.489  16.683   9.592
 2286POPC   GL132953   8.410  16.827   9.131
 2286POPC   GL232954   8.082  17.006   9.074
 2286POPC   C1A32955   8.320  16.875   8.646
 2286POPC   D2A32956   8.039  16.741   8.303
 2286POPC   C3A32957   8.202  16.736   7.884
 2286POPC   C4A32958   8.238  16.518   7.502
 2286POPC   C1B32959   7.809  16.818   8.764
 2286POPC   C2B32960   7.547  16.892   8.393
 2286POPC   C3B32961   7.661  16.981   7.980
 2286POPC   C4B32962   7.999  17.192   7.747
 2287POPC   NC332963   4.905  10.180   9.485
 2287POPC   PO432964   4.750  10.839   9.537
 2287POPC   GL132965   5.064  10.611   9.220
 2287POPC   GL232966   5.333  10.310   9.230
 2287POPC   C1A32967   5.243  10.717   8.798
 2287POPC   D2A32968   5.381  10.538   8.385
 2287POPC   C3A32969   5.090  10.663   8.060
 2287POPC   C4A32970   5.191  10.929   7.733
 2287POPC   C1B32971   5.149  10.211   8.826
 2287POPC   C2B32972   4.932  10.320   8.445
 2287POPC   C3B32973   5.111  10.157   8.041
 2287POPC   C4B32974   4.898  10.298   7.689
 2288POPC   NC332975  22.334  27.466   9.341
 2288POPC   PO432976  21.796  27.748   9.680
 2288POPC   GL132977  21.989  27.778   9.168
 2288POPC   GL232978  22.080  27.440   8.920
 2288POPC   C1A32979  22.051  27.866   8.671
 2288POPC   D2A32980  22.293  27.961   8.298
 2288POPC   C3A32981  22.099  27.820   7.900
 2288POPC   C4A32982  21.816  27.480   7.816
 2288POPC   C1B32983  22.510  27.665   8.731
 2288POPC   C2B32984  22.775  27.766   8.367
 2288POPC   C3B32985  22.603  27.724   7.941
 2288POPC   C4B32986  22.543  27.437   7.568
 2289POPC   NC332987   4.163   9.536   9.322
 2289POPC   PO432988   4.695   9.908   9.180
 2289POPC   GL132989   4.524   9.585   8.966
 2289POPC   GL232990   4.230   9.823   8.901
 2289POPC   C1A32991   4.303   9.469   8.584
 2289POPC   D2A32992   4.207   9.761   8.258
 2289POPC   C3A32993   4.418   9.591   7.917
 2289POPC   C4A32994   4.087   9.436   7.683
 2289POPC   C1B32995   4.579   9.924   8.563
 2289POPC   C2B32996   4.621  10.067   8.130
 2289POPC   C3B32997   4.425  10.070   7.750
 2289POPC   C4B32998   4.012   9.908   7.797
 2290POPC   NC332999   1.357  26.800   9.553
 2290POPC   PO433000   1.084  27.433   9.547
 2290POPC   GL133001   1.114  26.996   9.167
 2290POPC   GL233002   0.879  26.726   9.231
 2290POPC   C1A33003   1.141  27.035   8.705
 2290POPC   D2A33004   1.043  27.254   8.286
 2290POPC   C3A33005   1.126  26.963   8.030
 2290POPC   C4A33006   1.303  27.021   7.671
 2290POPC   C1B33007   0.946  26.558   8.822
 2290POPC   C2B33008   1.046  26.449   8.406
 2290POPC   C3B33009   0.902  26.492   8.010
 2290POPC   C4B33010   1.134  26.545   7.663
 2291POPC   NC333011   2.477  13.357   9.511
 2291POPC   PO433012   3.050  13.882   9.454
 2291POPC   GL133013   2.853  13.869   9.062
 2291POPC   GL233014   2.536  13.654   9.059
 2291POPC   C1A33015   2.937  13.649   8.672
 2291POPC   D2A33016   2.836  13.434   8.293
 2291POPC   C3A33017   2.945  13.679   7.930
 2291POPC   C4A33018   2.735  13.973   7.678
 2291POPC   C1B33019   2.494  13.315   8.710
 2291POPC   C2B33020   2.374  13.224   8.258
 2291POPC   C3B33021   2.668  13.162   7.878
 2291POPC   C4B33022   2.520  13.231   7.419
 2292POPC   NC333023   9.423  25.563   9.641
 2292POPC   PO433024   9.330  24.971   9.537
 2292POPC   GL133025   9.286  25.195   9.111
 2292POPC   GL233026   9.350  25.560   9.101
 2292POPC   C1A33027   9.277  25.165   8.637
 2292POPC   D2A33028   9.108  25.038   8.208
 2292POPC   C3A33029   8.941  25.354   7.914
 2292POPC   C4A33030   8.933  25.501   7.477
 2292POPC   C1B33031   9.349  25.668   8.622
 2292POPC   C2B33032   9.395  25.467   8.194
 2292POPC   C3B33033   9.371  25.591   7.736
 2292POPC   C4B33034   9.251  25.903   7.435
 2293POPC   NC333035  40.048  39.213   9.678
 2293POPC   PO433036  39.405  39.322   9.567
 2293POPC   GL133037  39.636  39.378   9.176
 2293POPC   GL233038  40.000  39.443   9.201
 2293POPC   C1A33039  39.787  39.265   8.753
 2293POPC   D2A33040  39.881  39.467   8.343
 2293POPC   C3A33041  39.765  39.255   7.967
 2293POPC   C4A33042  39.839  38.837   7.787
 2293POPC   C1B33043  40.239  39.509   8.800
 2293POPC   C2B33044  40.240  39.150   8.487
 2293POPC   C3B33045  40.254  39.044   8.029
 2293POPC   C4B33046  40.122  39.245   7.601
 2294POPC   NC333047   6.596  20.229   9.536
 2294POPC   PO433048   6.658  20.918   9.595
 2294POPC   GL133049   6.411  20.726   9.238
 2294POPC   GL233050   6.290  20.399   9.172
 2294POPC   C1A33051   6.449  20.732   8.791
 2294POPC   D2A33052   6.722  20.581   8.470
 2294POPC   C3A33053   6.623  20.756   8.086
 2294POPC   C4A33054   6.894  20.717   7.785
 2294POPC   C1B33055   6.134  20.352   8.744
 2294POPC   C2B33056   6.271  20.383   8.330
 2294POPC   C3B33057   6.270  20.441   7.898
 2294POPC   C4B33058   6.473  20.626   7.530
 2295POPC   NC333059  26.951  40.397   9.428
 2295POPC   PO433060  26.564  40.976   9.309
 2295POPC   GL133061  26.854  40.750   9.066
 2295POPC   GL233062  26.681  40.438   8.983
 2295POPC   C1A33063  27.111  40.622   8.725
 2295POPC   D2A33064  27.278  40.637   8.285
 2295POPC   C3A33065  26.932  40.595   7.969
 2295POPC   C4A33066  26.893  40.821   7.569
 2295POPC   C1B33067  26.548  40.701   8.655
 2295POPC   C2B33068  26.400  41.004   8.351
 2295POPC   C3B33069  26.518  40.917   7.931
 2295POPC   C4B33070  26.474  40.548   7.674
 2296POPC   NC333071  44.258  31.427   9.409
 2296POPC   PO433072  44.891  31.635   9.407
 2296POPC   GL133073  44.665  31.496   9.088
 2296POPC   GL233074  44.446  31.785   9.085
 2296POPC   C1A33075  44.758  31.290   8.719
 2296POPC   D2A33076  44.949  31.464   8.363
 2296POPC   C3A33077  44.825  31.446   7.957
 2296POPC   C4A33078  44.743  31.837   7.762
 2296POPC   C1B33079  44.314  31.590   8.695
 2296POPC   C2B33080  44.426  31.519   8.283
 2296POPC   C3B33081  44.321  31.509   7.862
 2296POPC   C4B33082  44.114  31.826   7.665
 2297POPC   NC333083  13.525  25.026   9.401
 2297POPC   PO433084  13.808  25.679   9.508
 2297POPC   GL133085  13.727  25.420   9.093
 2297POPC   GL233086  13.446  25.181   8.927
 2297POPC   C1A33087  13.733  25.477   8.637
 2297POPC   D2A33088  13.663  25.727   8.267
 2297POPC   C3A33089  13.686  25.504   7.883
 2297POPC   C4A33090  13.391  25.520   7.518
 2297POPC   C1B33091  13.626  24.987   8.546
 2297POPC   C2B33092  13.546  25.018   8.109
 2297POPC   C3B33093  13.529  25.074   7.675
 2297POPC   C4B33094  13.881  24.971   7.372
 2298POPC   NC333095  27.566  31.039   9.803
 2298POPC   PO433096  27.857  31.433   9.350
 2298POPC   GL133097  27.735  31.335   8.979
 2298POPC   GL233098  27.672  30.996   9.039
 2298POPC   C1A33099  27.510  31.552   8.655
 2298POPC   D2A33100  27.214  31.647   8.322
 2298POPC   C3A33101  27.416  31.582   7.908
 2298POPC   C4A33102  27.722  31.287   7.702
 2298POPC   C1B33103  27.365  31.055   8.706
 2298POPC   C2B33104  27.423  31.177   8.278
 2298POPC   C3B33105  27.192  31.133   7.914
 2298POPC   C4B33106  27.237  31.315   7.485
 2299POPC   NC333107  21.559  17.935   9.575
 2299POPC   PO433108  21.106  18.420   9.503
 2299POPC   GL133109  21.199  18.097   9.195
 2299POPC   GL233110  20.924  17.907   9.112
 2299POPC   C1A33111  21.350  18.149   8.762
 2299POPC   D2A33112  21.685  18.039   8.487
 2299POPC   C3A33113  21.507  18.055   8.094
 2299POPC   C4A33114  21.419  18.298   7.714
 2299POPC   C1B33115  20.858  18.292   8.820
 2299POPC   C2B33116  21.024  18.394   8.384
 2299POPC   C3B33117  20.987  18.528   7.916
 2299POPC   C4B33118  21.217  18.772   7.569
 2300POPC   NC333119  27.515   9.710   9.347
 2300POPC   PO433120  28.088   9.939   9.575
 2300POPC   GL133121  27.790  10.081   9.174
 2300POPC   GL233122  27.434  10.065   8.995
 2300POPC   C1A33123  27.822   9.812   8.779
 2300POPC   D2A33124  28.014   9.746   8.385
 2300POPC   C3A33125  27.701   9.720   8.095
 2300POPC   C4A33126  27.647   9.823   7.661
 2300POPC   C1B33127  27.282   9.756   8.705
 2300POPC   C2B33128  27.197   9.726   8.278
 2300POPC   C3B33129  27.202   9.834   7.881
 2300POPC   C4B33130  27.247   9.524   7.559
 2301POPC   NC333131  22.747  41.506   9.516
 2301POPC   PO433132  23.432  41.244   9.414
 2301POPC   GL133133  23.048  41.367   9.101
 2301POPC   GL233134  22.638  41.363   9.068
 2301POPC   C1A33135  22.915  41.440   8.662
 2301POPC   D2A33136  23.064  41.683   8.321
 2301POPC   C3A33137  23.075  41.512   7.906
 2301POPC   C4A33138  23.044  41.397   7.444
 2301POPC   C1B33139  22.398  41.489   8.749
 2301POPC   C2B33140  22.544  41.615   8.356
 2301POPC   C3B33141  22.665  41.824   8.026
 2301POPC   C4B33142  22.603  41.618   7.661
 2302POPC   NC333143  28.362   9.331   9.476
 2302POPC   PO433144  28.274   8.732   9.653
 2302POPC   GL133145  28.291   8.861   9.173
 2302POPC   GL233146  28.192   9.166   9.020
 2302POPC   C1A33147  28.136   8.681   8.739
 2302POPC   D2A33148  28.158   8.726   8.262
 2302POPC   C3A33149  28.503   8.658   7.998
 2302POPC   C4A33150  28.788   8.993   7.888
 2302POPC   C1B33151  27.917   9.147   8.662
 2302POPC   C2B33152  27.927   9.204   8.220
 2302POPC   C3B33153  28.200   9.080   7.891
 2302POPC   C4B33154  28.455   9.325   7.691
 2303POPC   NC333155  42.514  27.824   9.701
 2303POPC   PO433156  41.989  27.392   9.531
 2303POPC   GL133157  42.174  27.555   9.206
 2303POPC   GL233158  42.562  27.537   9.262
 2303POPC   C1A33159  41.996  27.591   8.805
 2303POPC   D2A33160  42.145  27.770   8.459
 2303POPC   C3A33161  41.971  27.647   8.076
 2303POPC   C4A33162  42.166  27.579   7.714
 2303POPC   C1B33163  42.487  27.449   8.822
 2303POPC   C2B33164  42.633  27.552   8.451
 2303POPC   C3B33165  42.431  27.390   8.127
 2303POPC   C4B33166  42.497  27.185   7.747
 2304POPC   NC333167  21.581  28.106   9.494
 2304POPC   PO433168  20.920  28.239   9.574
 2304POPC   GL133169  21.157  28.060   9.221
 2304POPC   GL233170  21.411  28.345   9.095
 2304POPC   C1A33171  21.142  28.074   8.773
 2304POPC   D2A33172  21.209  28.295   8.381
 2304POPC   C3A33173  21.078  28.148   7.982
 2304POPC   C4A33174  21.327  28.287   7.644
 2304POPC   C1B33175  21.477  28.571   8.716
 2304POPC   C2B33176  21.654  28.732   8.322
 2304POPC   C3B33177  21.638  28.645   7.887
 2304POPC   C4B33178  21.393  28.817   7.568
 2305POPC   NC333179   0.752  18.584   9.457
 2305POPC   PO433180   0.693  17.889   9.465
 2305POPC   GL133181   0.471  18.190   9.181
 2305POPC   GL233182   0.314  18.525   9.065
 2305POPC   C1A33183   0.363  18.104   8.765
 2305POPC   D2A33184   0.546  18.204   8.361
 2305POPC   C3A33185   0.386  18.172   7.946
 2305POPC   C4A33186   0.089  18.412   7.680
 2305POPC   C1B33187   0.702  18.494   8.790
 2305POPC   C2B33188   0.996  18.408   8.420
 2305POPC   C3B33189   0.814  18.467   7.992
 2305POPC   C4B33190   0.457  18.726   7.817
 2306POPC   NC333191  31.946  12.427   9.520
 2306POPC   PO433192  32.279  11.822   9.549
 2306POPC   GL133193  32.121  11.927   9.147
 2306POPC   GL233194  32.235  12.222   9.107
 2306POPC   C1A33195  31.963  11.755   8.727
 2306POPC   D2A33196  31.794  11.758   8.285
 2306POPC   C3A33197  32.124  11.968   8.002
 2306POPC   C4A33198  32.409  11.799   7.753
 2306POPC   C1B33199  31.844  12.252   8.863
 2306POPC   C2B33200  31.929  12.201   8.447
 2306POPC   C3B33201  31.754  12.288   8.050
 2306POPC   C4B33202  31.871  12.349   7.627
 2307POPC   NC333203  38.656  40.277   9.390
 2307POPC   PO433204  38.185  40.895   9.540
 2307POPC   GL133205  38.299  41.046   9.166
 2307POPC   GL233206  38.521  40.749   9.185
 2307POPC   C1A33207  38.247  40.881   8.750
 2307POPC   D2A33208  38.396  40.588   8.495
 2307POPC   C3A33209  38.358  40.671   8.115
 2307POPC   C4A33210  38.422  40.398   7.788
 2307POPC   C1B33211  38.742  40.777   8.817
 2307POPC   C2B33212  38.838  40.853   8.398
 2307POPC   C3B33213  38.836  40.785   7.958
 2307POPC   C4B33214  38.501  40.971   7.731
 2308POPC   NC333215  41.763  18.727   9.378
 2308POPC   PO433216  41.256  19.251   9.478
 2308POPC   GL133217  41.452  19.085   9.143
 2308POPC   GL233218  41.755  19.227   9.046
 2308POPC   C1A33219  41.349  19.234   8.745
 2308POPC   D2A33220  41.564  19.268   8.376
 2308POPC   C3A33221  41.455  19.055   8.012
 2308POPC   C4A33222  41.546  19.081   7.587
 2308POPC   C1B33223  41.756  18.912   8.710
 2308POPC   C2B33224  41.812  18.777   8.278
 2308POPC   C3B33225  41.958  18.915   7.856
 2308POPC   C4B33226  41.985  18.886   7.364
 2309POPC   NC333227  29.890  42.512   9.517
 2309POPC   PO433228  30.363  42.061   9.389
 2309POPC   GL133229  30.134  42.386   9.089
 2309POPC   GL233230  29.749  42.391   9.066
 2309POPC   C1A33231  30.010  42.450   8.643
 2309POPC   D2A33232  29.802  42.170   8.353
 2309POPC   C3A33233  29.749  42.272   7.949
 2309POPC   C4A33234  29.960  42.109   7.636
 2309POPC   C1B33235  29.568  42.720   8.831
 2309POPC   C2B33236  29.611  42.648   8.402
 2309POPC   C3B33237  29.454  42.730   8.038
 2309POPC   C4B33238  29.549  42.704   7.663
 2310POPC   NC333239   2.391  19.313   9.341
 2310POPC   PO433240   1.977  18.841   9.469
 2310POPC   GL133241   1.878  19.067   9.115
 2310POPC   GL233242   1.884  19.429   9.130
 2310POPC   C1A33243   2.100  19.164   8.751
 2310POPC   D2A33244   2.152  19.443   8.408
 2310POPC   C3A33245   2.113  19.180   8.066
 2310POPC   C4A33246   2.015  19.034   7.632
 2310POPC   C1B33247   1.556  19.447   8.798
 2310POPC   C2B33248   1.502  19.570   8.363
 2310POPC   C3B33249   1.669  19.410   7.990
 2310POPC   C4B33250   1.579  19.287   7.556
 2311POPC   NC333251  29.533  19.755   9.644
 2311POPC   PO433252  29.070  20.179   9.533
 2311POPC   GL133253  29.235  19.893   9.160
 2311POPC   GL233254  29.488  19.579   9.111
 2311POPC   C1A33255  29.132  19.831   8.704
 2311POPC   D2A33256  29.017  19.499   8.359
 2311POPC   C3A33257  29.034  19.686   7.933
 2311POPC   C4A33258  29.103  20.149   7.825
 2311POPC   C1B33259  29.450  19.459   8.638
 2311POPC   C2B33260  29.430  19.773   8.247
 2311POPC   C3B33261  29.511  19.829   7.787
 2311POPC   C4B33262  29.314  19.968   7.386
 2312POPC   NC333263   7.888   8.159   9.401
 2312POPC   PO433264   8.360   8.633   9.457
 2312POPC   GL133265   8.321   8.302   9.128
 2312POPC   GL233266   8.571   8.015   9.127
 2312POPC   C1A33267   8.041   8.325   8.759
 2312POPC   D2A33268   7.695   8.316   8.436
 2312POPC   C3A33269   7.911   8.459   8.071
 2312POPC   C4A33270   8.041   8.231   7.726
 2312POPC   C1B33271   8.388   7.933   8.705
 2312POPC   C2B33272   8.398   7.736   8.299
 2312POPC   C3B33273   8.462   7.899   7.881
 2312POPC   C4B33274   8.471   8.116   7.490
 2313POPC   NC333275  30.817   2.121   9.512
 2313POPC   PO433276  30.292   1.699   9.582
 2313POPC   GL133277  30.462   1.878   9.207
 2313POPC   GL233278  30.822   1.741   9.164
 2313POPC   C1A33279  30.674   2.136   8.879
 2313POPC   D2A33280  30.885   2.373   8.555
 2313POPC   C3A33281  30.890   2.182   8.156
 2313POPC   C4A33282  30.970   2.365   7.791
 2313POPC   C1B33283  30.638   1.639   8.794
 2313POPC   C2B33284  30.758   1.796   8.450
 2313POPC   C3B33285  30.626   1.689   8.065
 2313POPC   C4B33286  30.700   1.926   7.738
 2314POPC   NC333287  15.530  19.939   9.328
 2314POPC   PO433288  15.960  19.516   9.588
 2314POPC   GL133289  16.025  19.731   9.192
 2314POPC   GL233290  16.031  20.103   9.214
 2314POPC   C1A33291  15.846  19.743   8.774
 2314POPC   D2A33292  16.010  19.848   8.359
 2314POPC   C3A33293  15.902  19.708   7.956
 2314POPC   C4A33294  16.189  19.557   7.663
 2314POPC   C1B33295  15.831  20.258   8.831
 2314POPC   C2B33296  15.572  20.100   8.505
 2314POPC   C3B33297  15.665  20.175   8.104
 2314POPC   C4B33298  15.723  20.124   7.693
 2315POPC   NC333299  13.055  20.458   9.542
 2315POPC   PO433300  12.556  20.913   9.471
 2315POPC   GL133301  12.762  20.585   9.169
 2315POPC   GL233302  13.145  20.549   9.047
 2315POPC   C1A33303  12.752  20.623   8.753
 2315POPC   D2A33304  12.469  20.630   8.478
 2315POPC   C3A33305  12.643  20.400   8.168
 2315POPC   C4A33306  12.561  20.563   7.792
 2315POPC   C1B33307  13.188  20.866   8.665
 2315POPC   C2B33308  12.962  20.807   8.252
 2315POPC   C3B33309  13.070  20.504   7.908
 2315POPC   C4B33310  13.280  20.561   7.520
 2316POPC   NC333311   0.027  41.629   9.494
 2316POPC   PO433312  44.537  41.257   9.773
 2316POPC   GL133313  44.632  41.444   9.286
 2316POPC   GL233314  44.980  41.412   9.045
 2316POPC   C1A33315  44.551  41.495   8.805
 2316POPC   D2A33316  44.555  41.236   8.425
 2316POPC   C3A33317  44.673  41.361   7.978
 2316POPC   C4A33318  44.451  41.631   7.686
 2316POPC   C1B33319   0.022  41.646   8.658
 2316POPC   C2B33320  44.762  41.721   8.324
 2316POPC   C3B33321  44.818  41.905   7.912
 2316POPC   C4B33322  44.882  41.794   7.479
 2317POPC   NC333323   3.785  15.283   9.394
 2317POPC   PO433324   3.138  15.459   9.413
 2317POPC   GL133325   3.381  15.499   9.023
 2317POPC   GL233326   3.748  15.525   8.970
 2317POPC   C1A33327   3.395  15.337   8.590
 2317POPC   D2A33328   3.623  15.010   8.325
 2317POPC   C3A33329   3.507  15.082   7.907
 2317POPC   C4A33330   3.437  15.055   7.479
 2317POPC   C1B33331   3.860  15.225   8.735
 2317POPC   C2B33332   3.843  15.484   8.374
 2317POPC   C3B33333   3.949  15.303   8.026
 2317POPC   C4B33334   3.914  15.245   7.618
 2318POPC   NC333335  19.972  43.820   9.487
 2318POPC   PO433336  19.385  43.444   9.290
 2318POPC   GL133337  19.389  43.735   8.999
 2318POPC   GL233338  19.670  43.932   9.088
 2318POPC   C1A33339  19.379  44.009   8.659
 2318POPC   D2A33340  19.429  43.913   8.228
 2318POPC   C3A33341  19.740  44.097   7.965
 2318POPC   C4A33342  19.688  44.140   7.513
 2318POPC   C1B33343  19.848  43.704   8.753
 2318POPC   C2B33344  19.879  43.645   8.315
 2318POPC   C3B33345  20.007  43.661   7.907
 2318POPC   C4B33346  20.273  43.993   7.780
 2319POPC   NC333347  22.711  17.175   9.371
 2319POPC   PO433348  23.151  16.635   9.479
 2319POPC   GL133349  23.090  16.626   9.061
 2319POPC   GL233350  22.756  16.704   9.154
 2319POPC   C1A33351  23.186  16.658   8.594
 2319POPC   D2A33352  23.346  16.984   8.298
 2319POPC   C3A33353  23.384  16.836   7.904
 2319POPC   C4A33354  23.053  16.587   7.787
 2319POPC   C1B33355  22.689  16.762   8.721
 2319POPC   C2B33356  22.645  16.594   8.296
 2319POPC   C3B33357  22.651  16.868   7.952
 2319POPC   C4B33358  22.981  17.126   7.786
 2320POPC   NC333359   2.897  35.672   9.729
 2320POPC   PO433360   2.456  35.413   9.298
 2320POPC   GL133361   2.817  35.302   9.015
 2320POPC   GL233362   3.128  35.087   9.123
 2320POPC   C1A33363   2.744  35.289   8.609
 2320POPC   D2A33364   2.426  35.360   8.352
 2320POPC   C3A33365   2.685  35.417   8.032
 2320POPC   C4A33366   2.684  35.551   7.629
 2320POPC   C1B33367   3.046  34.844   8.772
 2320POPC   C2B33368   3.067  34.899   8.367
 2320POPC   C3B33369   3.088  35.067   7.982
 2320POPC   C4B33370   2.817  35.069   7.663
 2321POPC   NC333371  11.413  24.204   9.473
 2321POPC   PO433372  11.488  24.861   9.507
 2321POPC   GL133373  11.412  24.638   9.139
 2321POPC   GL233374  11.113  24.416   9.148
 2321POPC   C1A33375  11.349  24.625   8.703
 2321POPC   D2A33376  11.273  24.633   8.287
 2321POPC   C3A33377  11.515  24.424   7.992
 2321POPC   C4A33378  11.242  24.616   7.684
 2321POPC   C1B33379  11.130  24.176   8.781
 2321POPC   C2B33380  11.243  24.126   8.366
 2321POPC   C3B33381  11.090  24.161   7.927
 2321POPC   C4B33382  11.137  24.170   7.467
 2322POPC   NC333383   9.357  20.189   9.951
 2322POPC   PO433384   8.968  19.769   9.589
 2322POPC   GL133385   8.794  19.908   9.201
 2322POPC   GL233386   9.126  20.029   9.094
 2322POPC   C1A33387   8.637  19.844   8.768
 2322POPC   D2A33388   8.873  19.984   8.384
 2322POPC   C3A33389   8.823  20.040   7.929
 2322POPC   C4A33390   9.261  20.105   7.752
 2322POPC   C1B33391   9.160  19.734   8.739
 2322POPC   C2B33392   9.317  19.715   8.297
 2322POPC   C3B33393   9.141  19.629   7.886
 2322POPC   C4B33394   8.698  19.533   7.787
 2323POPC   NC333395   0.766  30.194   9.761
 2323POPC   PO433396   1.389  29.967   9.641
 2323POPC   GL133397   1.299  29.966   9.181
 2323POPC   GL233398   1.332  30.300   9.018
 2323POPC   C1A33399   1.159  29.828   8.761
 2323POPC   D2A33400   1.087  29.723   8.322
 2323POPC   C3A33401   1.371  29.687   7.974
 2323POPC   C4A33402   1.155  29.644   7.593
 2323POPC   C1B33403   1.004  30.419   8.687
 2323POPC   C2B33404   0.852  30.145   8.408
 2323POPC   C3B33405   0.999  30.073   7.959
 2323POPC   C4B33406   0.847  30.289   7.592
 2324POPC   NC333407  27.959  16.228  10.048
 2324POPC   PO433408  27.690  16.653   9.516
 2324POPC   GL133409  27.543  16.556   9.134
 2324POPC   GL233410  27.784  16.358   9.073
 2324POPC   C1A33411  27.448  16.628   8.733
 2324POPC   D2A33412  27.535  16.928   8.445
 2324POPC   C3A33413  27.622  16.745   8.068
 2324POPC   C4A33414  27.352  16.791   7.736
 2324POPC   C1B33415  27.890  16.131   8.742
 2324POPC   C2B33416  28.059  16.166   8.373
 2324POPC   C3B33417  27.894  16.292   7.991
 2324POPC   C4B33418  27.871  16.595   7.650
 2325POPC   NC333419  41.840  13.101   9.417
 2325POPC   PO433420  41.625  12.556   9.492
 2325POPC   GL133421  41.595  12.846   9.061
 2325POPC   GL233422  41.469  13.246   9.085
 2325POPC   C1A33423  41.403  12.990   8.642
 2325POPC   D2A33424  41.111  13.146   8.312
 2325POPC   C3A33425  41.311  13.038   7.941
 2325POPC   C4A33426  41.365  12.820   7.561
 2325POPC   C1B33427  41.775  13.329   8.744
 2325POPC   C2B33428  41.797  13.172   8.308
 2325POPC   C3B33429  41.813  13.006   7.860
 2325POPC   C4B33430  41.756  13.108   7.400
 2326POPC   NC333431   1.259  39.620   9.327
 2326POPC   PO433432   1.008  39.014   9.685
 2326POPC   GL133433   1.035  39.182   9.232
 2326POPC   GL233434   1.243  38.933   9.154
 2326POPC   C1A33435   1.246  39.270   8.786
 2326POPC   D2A33436   1.154  39.444   8.406
 2326POPC   C3A33437   1.114  39.206   8.059
 2326POPC   C4A33438   1.271  39.268   7.629
 2326POPC   C1B33439   1.019  38.808   8.858
 2326POPC   C2B33440   0.998  38.865   8.455
 2326POPC   C3B33441   0.750  38.826   8.121
 2326POPC   C4B33442   0.936  38.859   7.738
 2327POPC   NC333443  21.463   3.924   9.945
 2327POPC   PO433444  21.146   3.407   9.591
 2327POPC   GL133445  21.339   3.476   9.218
 2327POPC   GL233446  21.323   3.814   9.235
 2327POPC   C1A33447  21.394   3.390   8.790
 2327POPC   D2A33448  21.263   3.513   8.372
 2327POPC   C3A33449  21.530   3.295   8.076
 2327POPC   C4A33450  21.585   3.311   7.637
 2327POPC   C1B33451  21.532   3.954   8.824
 2327POPC   C2B33452  21.518   4.114   8.395
 2327POPC   C3B33453  21.408   3.887   8.028
 2327POPC   C4B33454  21.426   3.855   7.590
 2328POPC   NC333455   4.587  20.768   9.452
 2328POPC   PO433456   5.247  20.572   9.423
 2328POPC   GL133457   5.167  20.256   9.123
 2328POPC   GL233458   4.813  20.302   9.102
 2328POPC   C1A33459   5.084  20.275   8.667
 2328POPC   D2A33460   5.297  20.490   8.363
 2328POPC   C3A33461   5.215  20.461   7.954
 2328POPC   C4A33462   5.315  20.842   7.799
 2328POPC   C1B33463   4.806  20.648   8.826
 2328POPC   C2B33464   4.742  20.580   8.375
 2328POPC   C3B33465   4.825  20.806   7.991
 2328POPC   C4B33466   4.866  21.077   7.634
 2329POPC   NC333467   2.464  20.831   9.707
 2329POPC   PO433468   2.879  20.313   9.515
 2329POPC   GL133469   2.810  20.525   9.150
 2329POPC   GL233470   2.485  20.411   9.116
 2329POPC   C1A33471   2.979  20.660   8.760
 2329POPC   D2A33472   3.026  20.839   8.340
 2329POPC   C3A33473   3.047  20.558   7.990
 2329POPC   C4A33474   2.725  20.283   7.846
 2329POPC   C1B33475   2.463  20.529   8.662
 2329POPC   C2B33476   2.265  20.851   8.392
 2329POPC   C3B33477   2.575  20.865   8.073
 2329POPC   C4B33478   2.704  20.784   7.668
 2330POPC   NC333479   0.268  20.117   9.325
 2330POPC   PO433480   0.466  20.767   9.574
 2330POPC   GL133481   0.314  20.616   9.180
 2330POPC   GL233482  44.976  20.505   9.152
 2330POPC   C1A33483   0.522  20.498   8.813
 2330POPC   D2A33484   0.707  20.693   8.471
 2330POPC   C3A33485   0.547  20.515   8.086
 2330POPC   C4A33486   0.533  20.403   7.665
 2330POPC   C1B33487   0.037  20.338   8.751
 2330POPC   C2B33488   0.162  20.611   8.445
 2330POPC   C3B33489   0.056  20.694   8.065
 2330POPC   C4B33490   0.030  20.419   7.758
 2331POPC   NC333491   0.150  29.601   9.489
 2331POPC   PO433492   0.790  29.805   9.337
 2331POPC   GL133493   0.619  29.370   9.215
 2331POPC   GL233494   0.610  29.019   9.345
 2331POPC   C1A33495   0.488  29.206   8.807
 2331POPC   D2A33496   0.720  29.242   8.414
 2331POPC   C3A33497   0.458  29.245   8.047
 2331POPC   C4A33498   0.375  29.387   7.631
 2331POPC   C1B33499   0.792  28.810   8.990
 2331POPC   C2B33500   0.673  28.751   8.559
 2331POPC   C3B33501   0.732  28.803   8.112
 2331POPC   C4B33502   0.450  28.824   7.743
 2332POPC   NC333503  41.919  23.609   9.509
 2332POPC   PO433504  41.236  23.387   9.426
 2332POPC   GL133505  41.537  23.577   9.149
 2332POPC   GL233506  41.497  23.891   9.014
 2332POPC   C1A33507  41.761  23.486   8.759
 2332POPC   D2A33508  41.969  23.522   8.356
 2332POPC   C3A33509  41.873  23.216   8.048
 2332POPC   C4A33510  41.518  23.436   7.882
 2332POPC   C1B33511  41.774  23.992   8.715
 2332POPC   C2B33512  41.690  23.965   8.294
 2332POPC   C3B33513  41.629  23.935   7.877
 2332POPC   C4B33514  41.438  24.150   7.498
 2333POPC   NC333515  23.733   1.700   9.334
 2333POPC   PO433516  23.718   2.183   9.837
 2333POPC   GL133517  23.762   2.266   9.320
 2333POPC   GL233518  23.465   2.145   9.128
 2333POPC   C1A33519  23.903   2.168   8.828
 2333POPC   D2A33520  23.830   1.891   8.414
 2333POPC   C3A33521  24.000   1.970   7.998
 2333POPC   C4A33522  24.121   1.837   7.595
 2333POPC   C1B33523  23.484   1.843   8.777
 2333POPC   C2B33524  23.388   1.558   8.429
 2333POPC   C3B33525  23.210   1.782   8.097
 2333POPC   C4B33526  23.455   1.975   7.791
 2334POPC   NC333527  33.719   7.624   9.449
 2334POPC   PO433528  33.738   6.942   9.374
 2334POPC   GL133529  33.895   7.292   9.084
 2334POPC   GL233530  33.871   7.708   8.994
 2334POPC   C1A33531  33.889   7.326   8.674
 2334POPC   D2A33532  33.597   7.281   8.372
 2334POPC   C3A33533  33.834   7.337   8.054
 2334POPC   C4A33534  33.976   7.317   7.669
 2334POPC   C1B33535  33.563   7.720   8.699
 2334POPC   C2B33536  33.467   7.797   8.276
 2334POPC   C3B33537  33.361   7.520   7.946
 2334POPC   C4B33538  33.428   7.580   7.477
 2335POPC   NC333539  39.804  21.113   9.352
 2335POPC   PO433540  40.247  21.555   9.593
 2335POPC   GL133541  40.138  21.446   9.142
 2335POPC   GL233542  39.833  21.642   9.055
 2335POPC   C1A33543  40.318  21.316   8.732
 2335POPC   D2A33544  40.341  21.539   8.329
 2335POPC   C3A33545  40.331  21.284   7.987
 2335POPC   C4A33546  40.164  21.106   7.667
 2335POPC   C1B33547  39.889  21.584   8.622
 2335POPC   C2B33548  39.863  21.309   8.278
 2335POPC   C3B33549  39.841  21.458   7.859
 2335POPC   C4B33550  39.776  21.333   7.431
 2336POPC   NC333551   5.313  44.281   9.443
 2336POPC   PO433552   4.969  43.669   9.595
 2336POPC   GL133553   5.210  43.796   9.245
 2336POPC   GL233554   5.544  43.597   9.214
 2336POPC   C1A33555   5.019  44.074   8.898
 2336POPC   D2A33556   5.067  44.225   8.483
 2336POPC   C3A33557   4.828  44.003   8.182
 2336POPC   C4A33558   4.881  43.971   7.744
 2336POPC   C1B33559   5.464  43.823   8.808
 2336POPC   C2B33560   5.271  43.732   8.443
 2336POPC   C3B33561   5.254  43.736   8.015
 2336POPC   C4B33562   4.864  43.506   7.935
 2337POPC   NC333563  28.680  11.747   9.450
 2337POPC   PO433564  28.018  11.552   9.527
 2337POPC   GL133565  28.100  11.893   9.180
 2337POPC   GL233566  28.460  12.082   9.125
 2337POPC   C1A33567  28.068  12.147   8.762
 2337POPC   D2A33568  28.323  12.250   8.384
 2337POPC   C3A33569  28.230  12.110   7.955
 2337POPC   C4A33570  28.482  11.791   7.727
 2337POPC   C1B33571  28.717  12.264   8.742
 2337POPC   C2B33572  28.724  12.552   8.331
 2337POPC   C3B33573  28.610  12.505   7.882
 2337POPC   C4B33574  28.433  12.288   7.492
 2338POPC   NC333575  38.515  22.853   9.575
 2338POPC   PO433576  38.956  23.345   9.412
 2338POPC   GL133577  38.688  23.064   9.150
 2338POPC   GL233578  38.321  22.985   9.126
 2338POPC   C1A33579  38.792  22.859   8.784
 2338POPC   D2A33580  38.588  22.861   8.415
 2338POPC   C3A33581  38.716  23.035   8.017
 2338POPC   C4A33582  38.493  23.240   7.700
 2338POPC   C1B33583  38.323  22.645   8.821
 2338POPC   C2B33584  38.237  22.489   8.397
 2338POPC   C3B33585  38.374  22.660   8.010
 2338POPC   C4B33586  38.240  22.805   7.600
 2339POPC   NC333587   6.552  17.206   9.665
 2339POPC   PO433588   6.791  17.776   9.518
 2339POPC   GL133589   6.575  17.511   9.198
 2339POPC   GL233590   6.488  17.154   9.184
 2339POPC   C1A33591   6.680  17.524   8.756
 2339POPC   D2A33592   6.665  17.685   8.325
 2339POPC   C3A33593   6.823  17.467   7.989
 2339POPC   C4A33594   6.448  17.512   7.760
 2339POPC   C1B33595   6.460  17.077   8.791
 2339POPC   C2B33596   6.637  17.153   8.385
 2339POPC   C3B33597   6.598  17.010   7.965
 2339POPC   C4B33598   6.651  16.861   7.529
 2340POPC   NC333599  33.924  41.948   9.577
 2340POPC   PO433600  33.522  41.405   9.625
 2340POPC   GL133601  33.633  41.645   9.291
 2340POPC   GL233602  33.982  41.541   9.258
 2340POPC   C1A33603  33.492  41.617   8.888
 2340POPC   D2A33604  33.301  41.383   8.554
 2340POPC   C3A33605  33.464  41.515   8.185
 2340POPC   C4A33606  33.467  41.512   7.749
 2340POPC   C1B33607  33.873  41.269   8.910
 2340POPC   C2B33608  33.815  41.281   8.460
 2340POPC   C3B33609  33.864  41.291   7.971
 2340POPC   C4B33610  33.925  41.407   7.523
 2341POPC   NC333611  12.909  21.292   9.479
 2341POPC   PO433612  12.547  21.733   9.128
 2341POPC   GL133613  12.584  21.249   9.040
 2341POPC   GL233614  12.915  21.039   9.057
 2341POPC   C1A33615  12.693  21.112   8.619
 2341POPC   D2A33616  12.937  21.326   8.304
 2341POPC   C3A33617  12.743  21.302   7.910
 2341POPC   C4A33618  12.642  21.633   7.646
 2341POPC   C1B33619  13.120  21.362   8.827
 2341POPC   C2B33620  13.184  21.760   8.613
 2341POPC   C3B33621  13.324  21.741   8.205
 2341POPC   C4B33622  13.235  21.448   7.832
 2342POPC   NC333623  14.206  11.976   9.557
 2342POPC   PO433624  14.755  12.304   9.483
 2342POPC   GL133625  14.574  12.362   9.112
 2342POPC   GL233626  14.276  12.178   9.111
 2342POPC   C1A33627  14.642  12.140   8.725
 2342POPC   D2A33628  14.804  11.930   8.399
 2342POPC   C3A33629  14.596  11.903   8.020
 2342POPC   C4A33630  14.676  12.321   7.851
 2342POPC   C1B33631  14.179  12.342   8.738
 2342POPC   C2B33632  14.242  12.055   8.379
 2342POPC   C3B33633  14.178  12.162   7.952
 2342POPC   C4B33634  14.076  12.177   7.494
 2343POPC   NC333635  28.287   3.186   9.567
 2343POPC   PO433636  28.707   2.713   9.588
 2343POPC   GL133637  28.456   2.762   9.202
 2343POPC   GL233638  28.447   2.428   9.015
 2343POPC   C1A33639  28.317   2.892   8.810
 2343POPC   D2A33640  28.426   3.015   8.412
 2343POPC   C3A33641  28.152   2.797   8.076
 2343POPC   C4A33642  28.164   2.895   7.632
 2343POPC   C1B33643  28.752   2.633   8.713
 2343POPC   C2B33644  28.896   2.820   8.318
 2343POPC   C3B33645  28.637   2.865   7.952
 2343POPC   C4B33646  28.474   2.492   7.776
 2344POPC   NC333647  27.439   4.847   9.560
 2344POPC   PO433648  28.043   4.691   9.315
 2344POPC   GL133649  27.650   4.881   9.104
 2344POPC   GL233650  27.347   5.126   9.093
 2344POPC   C1A33651  27.729   5.069   8.732
 2344POPC   D2A33652  27.991   5.255   8.420
 2344POPC   C3A33653  27.831   5.215   8.038
 2344POPC   C4A33654  27.617   5.018   7.696
 2344POPC   C1B33655  27.369   5.409   8.739
 2344POPC   C2B33656  27.453   5.421   8.309
 2344POPC   C3B33657  27.379   5.439   7.862
 2344POPC   C4B33658  27.234   5.251   7.448
 2345POPC   NC333659  24.075  42.511   9.309
 2345POPC   PO433660  24.674  42.356   9.543
 2345POPC   GL133661  24.544  42.276   9.119
 2345POPC   GL233662  24.244  42.081   9.076
 2345POPC   C1A33663  24.611  42.381   8.681
 2345POPC   D2A33664  24.663  42.688   8.320
 2345POPC   C3A33665  24.841  42.569   7.929
 2345POPC   C4A33666  24.835  42.158   7.749
 2345POPC   C1B33667  24.102  42.334   8.713
 2345POPC   C2B33668  24.217  42.469   8.329
 2345POPC   C3B33669  24.360  42.335   7.960
 2345POPC   C4B33670  24.031  42.326   7.676
 2346POPC   NC333671  19.807  12.268   9.571
 2346POPC   PO433672  20.354  12.323   9.322
 2346POPC   GL133673  19.998  12.251   9.062
 2346POPC   GL233674  19.629  12.232   9.082
 2346POPC   C1A33675  19.910  12.065   8.661
 2346POPC   D2A33676  19.706  12.195   8.289
 2346POPC   C3A33677  19.928  12.248   7.942
 2346POPC   C4A33678  19.879  12.474   7.583
 2346POPC   C1B33679  19.404  12.108   8.688
 2346POPC   C2B33680  19.448  11.775   8.377
 2346POPC   C3B33681  19.558  11.855   7.925
 2346POPC   C4B33682  19.528  12.103   7.540
 2347POPC   NC333683   5.434  27.911   9.584
 2347POPC   PO433684   5.241  28.458   9.579
 2347POPC   GL133685   5.132  28.566   9.131
 2347POPC   GL233686   4.769  28.571   9.115
 2347POPC   C1A33687   5.054  28.492   8.656
 2347POPC   D2A33688   4.743  28.355   8.321
 2347POPC   C3A33689   4.871  28.233   7.876
 2347POPC   C4A33690   4.888  28.187   7.403
 2347POPC   C1B33691   4.652  28.799   8.740
 2347POPC   C2B33692   4.718  28.858   8.317
 2347POPC   C3B33693   5.024  28.694   8.041
 2347POPC   C4B33694   5.136  28.586   7.606
 2348POPC   NC333695  17.224  19.542   9.522
 2348POPC   PO433696  17.837  19.718   9.265
 2348POPC   GL133697  17.473  19.962   9.144
 2348POPC   GL233698  17.216  19.707   9.038
 2348POPC   C1A33699  17.371  20.082   8.704
 2348POPC   D2A33700  17.447  20.197   8.249
 2348POPC   C3A33701  17.546  19.852   7.934
 2348POPC   C4A33702  17.530  19.863   7.472
 2348POPC   C1B33703  17.198  19.373   8.702
 2348POPC   C2B33704  17.407  19.278   8.322
 2348POPC   C3B33705  17.414  19.354   7.905
 2348POPC   C4B33706  17.127  19.606   7.711
 2349POPC   NC333707  37.440  27.364   9.562
 2349POPC   PO433708  38.047  27.143   9.421
 2349POPC   GL133709  37.788  27.468   9.212
 2349POPC   GL233710  37.524  27.236   9.066
 2349POPC   C1A33711  37.584  27.736   8.870
 2349POPC   D2A33712  37.393  27.793   8.439
 2349POPC   C3A33713  37.593  27.692   8.038
 2349POPC   C4A33714  37.820  27.792   7.667
 2349POPC   C1B33715  37.873  27.322   8.748
 2349POPC   C2B33716  37.945  27.461   8.343
 2349POPC   C3B33717  38.003  27.388   7.909
 2349POPC   C4B33718  37.638  27.310   7.625
 2350POPC   NC333719  33.557   8.642   9.584
 2350POPC   PO433720  33.947   8.054   9.501
 2350POPC   GL133721  33.816   8.357   9.241
 2350POPC   GL233722  34.054   8.254   9.031
 2350POPC   C1A33723  33.630   8.514   8.886
 2350POPC   D2A33724  33.625   8.542   8.425
 2350POPC   C3A33725  33.753   8.232   8.118
 2350POPC   C4A33726  34.066   8.227   7.780
 2350POPC   C1B33727  33.884   8.111   8.657
 2350POPC   C2B33728  33.982   7.753   8.405
 2350POPC   C3B33729  34.138   7.738   7.994
 2350POPC   C4B33730  33.780   7.793   7.786
 2351POPC   NC333731  23.823  27.016   9.567
 2351POPC   PO433732  23.347  26.473   9.504
 2351POPC   GL133733  23.526  26.781   9.174
 2351POPC   GL233734  23.908  26.877   9.078
 2351POPC   C1A33735  23.550  26.827   8.714
 2351POPC   D2A33736  23.719  26.971   8.319
 2351POPC   C3A33737  23.592  26.800   7.941
 2351POPC   C4A33738  23.720  26.569   7.623
 2351POPC   C1B33739  24.067  27.136   8.699
 2351POPC   C2B33740  24.063  27.331   8.270
 2351POPC   C3B33741  23.912  27.218   7.877
 2351POPC   C4B33742  24.090  26.903   7.662
 2352POPC   NC333743  18.441  32.091   9.567
 2352POPC   PO433744  17.919  32.476   9.311
 2352POPC   GL133745  18.182  32.148   9.149
 2352POPC   GL233746  17.920  31.980   9.133
 2352POPC   C1A33747  18.355  31.953   8.785
 2352POPC   D2A33748  18.387  32.233   8.421
 2352POPC   C3A33749  18.303  32.402   8.015
 2352POPC   C4A33750  18.468  32.286   7.635
 2352POPC   C1B33751  17.934  32.178   8.702
 2352POPC   C2B33752  18.002  31.925   8.317
 2352POPC   C3B33753  18.113  31.933   7.873
 2352POPC   C4B33754  17.925  32.268   7.622
 2353POPC   NC333755   1.420   5.649   9.584
 2353POPC   PO433756   0.784   5.635   9.399
 2353POPC   GL133757   0.910   5.831   9.057
 2353POPC   GL233758   1.198   5.592   9.016
 2353POPC   C1A33759   1.022   5.952   8.629
 2353POPC   D2A33760   1.436   5.914   8.415
 2353POPC   C3A33761   1.456   6.186   8.021
 2353POPC   C4A33762   1.248   6.100   7.653
 2353POPC   C1B33763   0.866   5.469   8.700
 2353POPC   C2B33764   0.827   5.553   8.301
 2353POPC   C3B33765   1.059   5.869   8.090
 2353POPC   C4B33766   1.466   5.687   7.885
 2354POPC   NC333767  15.505  21.606   9.420
 2354POPC   PO433768  14.854  21.519   9.393
 2354POPC   GL133769  14.985  21.249   9.081
 2354POPC   GL233770  15.358  21.217   9.082
 2354POPC   C1A33771  15.066  21.247   8.645
 2354POPC   D2A33772  15.227  21.021   8.317
 2354POPC   C3A33773  15.181  21.324   8.018
 2354POPC   C4A33774  14.889  21.394   7.671
 2354POPC   C1B33775  15.467  21.554   8.767
 2354POPC   C2B33776  15.373  21.665   8.345
 2354POPC   C3B33777  15.598  21.598   7.936
 2354POPC   C4B33778  15.384  21.453   7.551
 2355POPC   NC333779  42.567  28.796   9.472
 2355POPC   PO433780  43.127  29.300   9.429
 2355POPC   GL133781  43.131  29.289   9.020
 2355POPC   GL233782  43.055  28.937   8.983
 2355POPC   C1A33783  43.188  29.460   8.625
 2355POPC   D2A33784  43.412  29.173   8.402
 2355POPC   C3A33785  43.397  29.334   8.013
 2355POPC   C4A33786  43.460  29.199   7.622
 2355POPC   C1B33787  42.889  29.052   8.602
 2355POPC   C2B33788  42.942  29.163   8.176
 2355POPC   C3B33789  43.064  28.944   7.808
 2355POPC   C4B33790  42.969  29.010   7.361
 2356POPC   NC333791  30.010  22.134   9.632
 2356POPC   PO433792  29.577  21.707   9.548
 2356POPC   GL133793  29.815  21.926   9.185
 2356POPC   GL233794  29.820  22.300   9.180
 2356POPC   C1A33795  30.067  22.081   8.790
 2356POPC   D2A33796  29.961  21.907   8.350
 2356POPC   C3A33797  30.152  21.960   7.933
 2356POPC   C4A33798  29.954  21.866   7.551
 2356POPC   C1B33799  29.562  22.170   8.801
 2356POPC   C2B33800  29.484  22.083   8.348
 2356POPC   C3B33801  29.608  22.026   7.898
 2356POPC   C4B33802  29.553  22.206   7.467
 2357POPC   NC333803  11.680   8.903   9.520
 2357POPC   PO433804  12.329   8.715   9.567
 2357POPC   GL133805  12.222   8.851   9.153
 2357POPC   GL233806  12.560   8.884   8.983
 2357POPC   C1A33807  11.936   8.817   8.803
 2357POPC   D2A33808  11.949   8.997   8.398
 2357POPC   C3A33809  12.124   8.758   8.085
 2357POPC   C4A33810  11.980   8.895   7.699
 2357POPC   C1B33811  12.316   9.195   8.729
 2357POPC   C2B33812  12.211   9.457   8.359
 2357POPC   C3B33813  12.258   9.271   7.954
 2357POPC   C4B33814  12.383   9.189   7.545
 2358POPC   NC333815  32.422  29.753   9.396
 2358POPC   PO433816  32.143  30.397   9.442
 2358POPC   GL133817  32.327  30.167   9.106
 2358POPC   GL233818  32.040  29.966   9.054
 2358POPC   C1A33819  32.578  30.060   8.720
 2358POPC   D2A33820  32.606  30.273   8.286
 2358POPC   C3A33821  32.532  30.067   7.847
 2358POPC   C4A33822  32.356  30.040   7.393
 2358POPC   C1B33823  32.078  29.970   8.618
 2358POPC   C2B33824  32.344  29.810   8.309
 2358POPC   C3B33825  32.202  29.667   7.925
 2358POPC   C4B33826  31.989  29.988   7.731
 2359POPC   NC333827   9.707  37.305   9.508
 2359POPC   PO433828   9.929  37.944   9.456
 2359POPC   GL133829   9.793  37.692   9.130
 2359POPC   GL233830  10.074  37.438   9.163
 2359POPC   C1A33831   9.670  37.745   8.691
 2359POPC   D2A33832   9.856  37.576   8.326
 2359POPC   C3A33833   9.685  37.732   7.968
 2359POPC   C4A33834   9.456  37.838   7.602
 2359POPC   C1B33835  10.154  37.604   8.756
 2359POPC   C2B33836  10.358  37.706   8.356
 2359POPC   C3B33837  10.211  37.632   7.924
 2359POPC   C4B33838   9.925  37.411   7.658
 2360POPC   NC333839  10.452  10.454   9.710
 2360POPC   PO433840  11.032  10.256   9.471
 2360POPC   GL133841  10.821  10.551   9.217
 2360POPC   GL233842  10.432  10.534   9.197
 2360POPC   C1A33843  10.881  10.634   8.792
 2360POPC   D2A33844  10.725  10.473   8.423
 2360POPC   C3A33845  10.796  10.737   8.078
 2360POPC   C4A33846  10.829  10.477   7.723
 2360POPC   C1B33847  10.333  10.753   8.816
 2360POPC   C2B33848  10.340  10.779   8.365
 2360POPC   C3B33849  10.346  10.506   8.006
 2360POPC   C4B33850  10.165  10.442   7.612
 2361POPC   NC333851  16.365  18.085   9.344
 2361POPC   PO433852  16.918  18.419   9.626
 2361POPC   GL133853  16.800  18.441   9.232
 2361POPC   GL233854  16.819  18.108   9.095
 2361POPC   C1A33855  16.785  18.547   8.822
 2361POPC   D2A33856  16.560  18.494   8.458
 2361POPC   C3A33857  16.694  18.411   8.043
 2361POPC   C4A33858  16.836  18.732   7.808
 2361POPC   C1B33859  16.617  18.032   8.688
 2361POPC   C2B33860  16.511  17.999   8.250
 2361POPC   C3B33861  16.475  17.799   7.848
 2361POPC   C4B33862  16.658  17.712   7.441
 2362POPC   NC333863   3.454  16.167   9.724
 2362POPC   PO433864   4.023  15.722   9.410
 2362POPC   GL133865   3.704  15.993   9.111
 2362POPC   GL233866   3.374  15.996   9.236
 2362POPC   C1A33867   3.481  15.871   8.665
 2362POPC   D2A33868   3.260  15.703   8.241
 2362POPC   C3A33869   3.573  15.611   7.909
 2362POPC   C4A33870   4.005  15.798   7.930
 2362POPC   C1B33871   3.378  16.332   8.898
 2362POPC   C2B33872   3.382  16.345   8.444
 2362POPC   C3B33873   3.609  16.072   8.164
 2362POPC   C4B33874   3.629  16.080   7.720
 2363POPC   NC333875  31.161  31.694   9.600
 2363POPC   PO433876  31.626  31.253   9.467
 2363POPC   GL133877  31.444  31.436   9.137
 2363POPC   GL233878  31.673  31.724   9.090
 2363POPC   C1A33879  31.464  31.288   8.712
 2363POPC   D2A33880  31.232  31.432   8.366
 2363POPC   C3A33881  31.481  31.486   8.026
 2363POPC   C4A33882  31.351  31.348   7.673
 2363POPC   C1B33883  31.390  31.781   8.730
 2363POPC   C2B33884  31.410  31.928   8.310
 2363POPC   C3B33885  31.171  31.904   7.920
 2363POPC   C4B33886  31.331  31.819   7.490
 2364POPC   NC333887  12.311  40.661   9.524
 2364POPC   PO433888  11.720  40.765   9.511
 2364POPC   GL133889  12.012  41.036   9.229
 2364POPC   GL233890  12.380  40.991   9.120
 2364POPC   C1A33891  12.001  41.000   8.775
 2364POPC   D2A33892  12.050  40.715   8.450
 2364POPC   C3A33893  11.999  40.942   8.113
 2364POPC   C4A33894  11.860  41.034   7.747
 2364POPC   C1B33895  12.339  40.595   8.846
 2364POPC   C2B33896  12.475  40.390   8.447
 2364POPC   C3B33897  12.349  40.576   8.019
 2364POPC   C4B33898  12.382  40.962   7.756
 2365POPC   NC333899  27.260   8.092   9.471
 2365POPC   PO433900  26.721   8.494   9.444
 2365POPC   GL133901  26.952   8.282   9.099
 2365POPC   GL233902  26.847   7.928   9.112
 2365POPC   C1A33903  27.116   8.078   8.706
 2365POPC   D2A33904  26.907   7.994   8.331
 2365POPC   C3A33905  27.074   8.052   7.943
 2365POPC   C4A33906  27.052   8.151   7.497
 2365POPC   C1B33907  26.605   8.111   8.741
 2365POPC   C2B33908  26.464   8.257   8.352
 2365POPC   C3B33909  26.540   8.101   7.981
 2365POPC   C4B33910  26.572   8.296   7.616
 2366POPC   NC333911   7.415  12.913   9.525
 2366POPC   PO433912   7.568  12.443   9.195
 2366POPC   GL133913   7.286  12.689   9.062
 2366POPC   GL233914   7.391  13.012   9.008
 2366POPC   C1A33915   7.174  12.652   8.662
 2366POPC   D2A33916   7.575  12.519   8.447
 2366POPC   C3A33917   7.580  12.726   8.044
 2366POPC   C4A33918   7.234  12.838   7.760
 2366POPC   C1B33919   7.517  13.028   8.561
 2366POPC   C2B33920   7.899  13.102   8.299
 2366POPC   C3B33921   7.979  13.021   7.867
 2366POPC   C4B33922   7.671  12.990   7.552
 2367POPC   NC333923   6.135  29.721   9.798
 2367POPC   PO433924   5.656  30.053   9.515
 2367POPC   GL133925   5.924  29.891   9.196
 2367POPC   GL233926   5.627  29.873   8.998
 2367POPC   C1A33927   6.089  30.046   8.803
 2367POPC   D2A33928   5.791  29.944   8.483
 2367POPC   C3A33929   5.981  29.960   8.095
 2367POPC   C4A33930   5.815  30.228   7.798
 2367POPC   C1B33931   5.450  29.584   8.697
 2367POPC   C2B33932   5.397  29.628   8.272
 2367POPC   C3B33933   5.562  29.711   7.875
 2367POPC   C4B33934   5.923  29.747   7.633
 2368POPC   NC333935  24.010   2.549   9.785
 2368POPC   PO433936  23.697   3.147   9.570
 2368POPC   GL133937  23.632   2.923   9.170
 2368POPC   GL233938  23.334   2.652   9.195
 2368POPC   C1A33939  23.852   2.948   8.767
 2368POPC   D2A33940  23.971   2.681   8.413
 2368POPC   C3A33941  23.944   2.873   8.009
 2368POPC   C4A33942  23.727   3.196   7.838
 2368POPC   C1B33943  23.460   2.626   8.765
 2368POPC   C2B33944  23.497   2.879   8.388
 2368POPC   C3B33945  23.457   2.772   7.974
 2368POPC   C4B33946  23.683   2.383   8.046
 2369POPC   NC333947   9.305  39.904   9.545
 2369POPC   PO433948   8.914  40.472   9.612
 2369POPC   GL133949   9.041  40.105   9.193
 2369POPC   GL233950   8.786  39.901   9.105
 2369POPC   C1A33951   9.194  39.714   8.888
 2369POPC   D2A33952   9.217  39.778   8.422
 2369POPC   C3A33953   9.172  39.598   7.994
 2369POPC   C4A33954   9.218  39.801   7.593
 2369POPC   C1B33955   8.768  39.889   8.657
 2369POPC   C2B33956   8.671  39.714   8.232
 2369POPC   C3B33957   8.733  39.681   7.765
 2369POPC   C4B33958   8.777  39.984   7.402
 2370POPC   NC333959  10.765  36.887   9.455
 2370POPC   PO433960  10.032  36.976   9.440
 2370POPC   GL133961  10.321  36.717   9.163
 2370POPC   GL233962  10.625  36.920   8.983
 2370POPC   C1A33963  10.414  36.525   8.753
 2370POPC   D2A33964  10.580  36.844   8.462
 2370POPC   C3A33965  10.664  36.759   8.039
 2370POPC   C4A33966  10.875  37.006   7.762
 2370POPC   C1B33967  10.244  37.082   8.807
 2370POPC   C2B33968  10.210  37.221   8.417
 2370POPC   C3B33969  10.162  37.087   8.035
 2370POPC   C4B33970  10.351  37.135   7.654
 2371POPC   NC333971  27.399  23.992   9.541
 2371POPC   PO433972  27.612  23.368   9.525
 2371POPC   GL133973  27.700  23.559   9.141
 2371POPC   GL233974  27.711  23.925   9.139
 2371POPC   C1A33975  27.466  23.577   8.741
 2371POPC   D2A33976  27.608  23.664   8.323
 2371POPC   C3A33977  27.450  23.496   7.935
 2371POPC   C4A33978  27.398  23.694   7.522
 2371POPC   C1B33979  27.905  23.827   8.743
 2371POPC   C2B33980  27.930  24.053   8.334
 2371POPC   C3B33981  27.878  23.888   7.936
 2371POPC   C4B33982  27.885  23.557   7.673
 2372POPC   NC333983  18.295   9.773   9.549
 2372POPC   PO433984  18.736   9.956   9.248
 2372POPC   GL133985  18.302   9.925   9.055
 2372POPC   GL233986  18.225   9.580   9.073
 2372POPC   C1A33987  18.135   9.891   8.626
 2372POPC   D2A33988  18.288   9.689   8.252
 2372POPC   C3A33989  18.305   9.852   7.837
 2372POPC   C4A33990  18.543   9.669   7.495
 2372POPC   C1B33991  17.886   9.464   8.810
 2372POPC   C2B33992  17.807   9.547   8.380
 2372POPC   C3B33993  17.951   9.408   7.974
 2372POPC   C4B33994  18.054   9.521   7.570
 2373POPC   NC333995  10.275  34.834   9.830
 2373POPC   PO433996  10.786  34.475   9.537
 2373POPC   GL133997  10.635  34.232   9.221
 2373POPC   GL233998  10.309  34.396   9.230
 2373POPC   C1A33999  10.397  34.176   8.803
 2373POPC   D2A34000  10.250  34.423   8.429
 2373POPC   C3A34001  10.411  34.271   8.012
 2373POPC   C4A34002  10.384  34.347   7.563
 2373POPC   C1B34003  10.634  34.631   8.904
 2373POPC   C2B34004  10.766  34.877   8.539
 2373POPC   C3B34005  10.504  34.803   8.185
 2373POPC   C4B34006  10.621  34.746   7.760
 2374POPC   NC334007  32.585  32.148   9.469
 2374POPC   PO434008  31.910  32.243   9.470
 2374POPC   GL134009  31.972  32.384   9.130
 2374POPC   GL234010  32.298  32.511   9.227
 2374POPC   C1A34011  32.066  32.195   8.786
 2374POPC   D2A34012  32.137  32.297   8.437
 2374POPC   C3A34013  31.971  32.048   8.137
 2374POPC   C4A34014  32.027  32.196   7.740
 2374POPC   C1B34015  32.530  32.442   8.857
 2374POPC   C2B34016  32.624  32.424   8.423
 2374POPC   C3B34017  32.477  32.226   8.056
 2374POPC   C4B34018  32.437  32.455   7.691
 2375POPC   NC334019  31.428  41.831   9.415
 2375POPC   PO434020  31.540  41.163   9.551
 2375POPC   GL134021  31.609  41.401   9.200
 2375POPC   GL234022  31.872  41.253   9.094
 2375POPC   C1A34023  31.427  41.304   8.790
 2375POPC   D2A34024  31.526  41.455   8.375
 2375POPC   C3A34025  31.413  41.226   8.018
 2375POPC   C4A34026  31.537  41.279   7.583
 2375POPC   C1B34027  31.897  41.518   8.767
 2375POPC   C2B34028  31.842  41.843   8.515
 2375POPC   C3B34029  31.926  41.871   8.109
 2375POPC   C4B34030  31.827  41.673   7.735
 2376POPC   NC334031  16.958  42.688   9.758
 2376POPC   PO434032  16.391  42.369   9.572
 2376POPC   GL134033  16.689  42.553   9.208
 2376POPC   GL234034  16.884  42.278   9.021
 2376POPC   C1A34035  16.631  42.619   8.762
 2376POPC   D2A34036  16.360  42.435   8.431
 2376POPC   C3A34037  16.553  42.413   8.033
 2376POPC   C4A34038  16.493  42.657   7.671
 2376POPC   C1B34039  16.536  42.129   8.814
 2376POPC   C2B34040  16.802  42.163   8.433
 2376POPC   C3B34041  16.857  41.944   8.044
 2376POPC   C4B34042  16.868  41.864   7.566
 2377POPC   NC334043   4.463   6.347   9.468
 2377POPC   PO434044   4.002   6.867   9.391
 2377POPC   GL134045   4.170   6.715   9.034
 2377POPC   GL234046   4.199   6.355   9.007
 2377POPC   C1A34047   4.206   6.676   8.588
 2377POPC   D2A34048   4.529   6.765   8.289
 2377POPC   C3A34049   4.322   6.919   7.938
 2377POPC   C4A34050   4.018   6.576   7.906
 2377POPC   C1B34051   4.618   6.535   8.860
 2377POPC   C2B34052   4.912   6.478   8.505
 2377POPC   C3B34053   4.834   6.372   8.068
 2377POPC   C4B34054   4.517   6.492   7.771
 2378POPC   NC334055  18.721  13.516   9.407
 2378POPC   PO434056  18.186  13.290   9.785
 2378POPC   GL134057  18.268  13.422   9.275
 2378POPC   GL234058  18.147  13.719   9.108
 2378POPC   C1A34059  18.456  13.456   8.815
 2378POPC   D2A34060  18.363  13.875   8.598
 2378POPC   C3A34061  18.418  13.875   8.132
 2378POPC   C4A34062  18.252  14.052   7.739
 2378POPC   C1B34063  17.962  13.538   8.734
 2378POPC   C2B34064  17.948  13.456   8.305
 2378POPC   C3B34065  18.035  13.603   7.910
 2378POPC   C4B34066  18.289  13.308   7.672
 2379POPC   NC334067   7.393  21.875   9.561
 2379POPC   PO434068   7.527  21.197   9.581
 2379POPC   GL134069   7.586  21.335   9.176
 2379POPC   GL234070   7.899  21.513   9.161
 2379POPC   C1A34071   7.388  21.416   8.769
 2379POPC   D2A34072   7.462  21.248   8.361
 2379POPC   C3A34073   7.185  21.311   7.936
 2379POPC   C4A34074   6.969  21.513   7.527
 2379POPC   C1B34075   7.882  21.277   8.745
 2379POPC   C2B34076   7.986  21.190   8.293
 2379POPC   C3B34077   7.716  21.091   7.964
 2379POPC   C4B34078   7.539  21.239   7.573
 2380POPC   NC334079  12.938   3.259   9.491
 2380POPC   PO434080  13.026   3.934   9.488
 2380POPC   GL134081  12.871   3.655   9.162
 2380POPC   GL234082  13.156   3.492   9.108
 2380POPC   C1A34083  12.699   3.580   8.714
 2380POPC   D2A34084  12.547   3.722   8.298
 2380POPC   C3A34085  12.638   3.502   7.900
 2380POPC   C4A34086  12.721   3.597   7.453
 2380POPC   C1B34087  13.135   3.832   8.784
 2380POPC   C2B34088  13.135   4.034   8.366
 2380POPC   C3B34089  13.002   3.860   7.961
 2380POPC   C4B34090  13.132   3.478   7.744
 2381POPC   NC334091   8.049  41.278   9.795
 2381POPC   PO434092   8.263  41.946   9.524
 2381POPC   GL134093   8.132  41.672   9.167
 2381POPC   GL234094   8.081  41.286   9.166
 2381POPC   C1A34095   8.251  41.534   8.750
 2381POPC   D2A34096   7.997  41.554   8.381
 2381POPC   C3A34097   8.265  41.535   8.029
 2381POPC   C4A34098   8.317  41.699   7.622
 2381POPC   C1B34099   7.887  41.165   8.745
 2381POPC   C2B34100   8.018  41.036   8.309
 2381POPC   C3B34101   7.987  41.154   7.850
 2381POPC   C4B34102   8.188  41.273   7.405
 2382POPC   NC334103  35.801  37.771   9.442
 2382POPC   PO434104  36.187  37.228   9.470
 2382POPC   GL134105  35.860  37.372   9.155
 2382POPC   GL234106  36.142  37.644   9.074
 2382POPC   C1A34107  35.752  37.623   8.751
 2382POPC   D2A34108  36.053  37.733   8.404
 2382POPC   C3A34109  35.988  37.914   8.004
 2382POPC   C4A34110  35.864  37.608   7.686
 2382POPC   C1B34111  36.347  37.935   8.765
 2382POPC   C2B34112  36.594  37.792   8.412
 2382POPC   C3B34113  36.447  37.672   8.026
 2382POPC   C4B34114  36.326  37.807   7.614
 2383POPC   NC334115  42.500  12.487   9.627
 2383POPC   PO434116  42.308  13.104   9.443
 2383POPC   GL134117  42.209  12.802   9.140
 2383POPC   GL234118  42.508  12.586   9.141
 2383POPC   C1A34119  42.086  12.905   8.710
 2383POPC   D2A34120  42.314  13.090   8.358
 2383POPC   C3A34121  42.330  12.874   7.951
 2383POPC   C4A34122  42.095  12.590   7.691
 2383POPC   C1B34123  42.580  12.766   8.756
 2383POPC   C2B34124  42.441  12.577   8.386
 2383POPC   C3B34125  42.637  12.402   8.009
 2383POPC   C4B34126  42.822  12.715   7.831
 2384POPC   NC334127  39.187  34.906   9.441
 2384POPC   PO434128  39.283  34.204   9.509
 2384POPC   GL134129  39.439  34.529   9.214
 2384POPC   GL234130  39.107  34.478   9.092
 2384POPC   C1A34131  39.337  34.813   8.803
 2384POPC   D2A34132  39.215  34.922   8.418
 2384POPC   C3A34133  39.481  34.958   8.073
 2384POPC   C4A34134  39.303  34.752   7.731
 2384POPC   C1B34135  39.404  34.298   8.782
 2384POPC   C2B34136  39.262  34.377   8.399
 2384POPC   C3B34137  39.293  34.316   7.990
 2384POPC   C4B34138  39.585  34.335   7.675
 2385POPC   NC334139  43.128  39.799   9.485
 2385POPC   PO434140  43.259  40.411   9.487
 2385POPC   GL134141  43.181  40.141   9.078
 2385POPC   GL234142  43.104  39.774   8.993
 2385POPC   C1A34143  43.386  40.016   8.672
 2385POPC   D2A34144  43.162  39.743   8.365
 2385POPC   C3A34145  43.289  39.769   7.933
 2385POPC   C4A34146  43.402  40.147   7.621
 2385POPC   C1B34147  42.779  39.630   8.750
 2385POPC   C2B34148  42.649  39.569   8.345
 2385POPC   C3B34149  42.779  39.774   7.974
 2385POPC   C4B34150  42.964  39.906   7.582
 2386POPC   NC334151   5.145   7.073   9.482
 2386POPC   PO434152   4.697   7.582   9.463
 2386POPC   GL134153   4.856   7.385   9.091
 2386POPC   GL234154   4.673   7.087   9.166
 2386POPC   C1A34155   5.254   7.248   8.831
 2386POPC   D2A34156   5.464   7.033   8.473
 2386POPC   C3A34157   5.297   7.221   8.095
 2386POPC   C4A34158   5.282   7.478   7.738
 2386POPC   C1B34159   4.834   6.972   8.773
 2386POPC   C2B34160   4.972   6.980   8.391
 2386POPC   C3B34161   4.826   7.064   7.983
 2386POPC   C4B34162   4.733   7.248   7.600
 2387POPC   NC334163   0.659  27.983   9.581
 2387POPC   PO434164   0.318  27.355   9.541
 2387POPC   GL134165   0.275  27.636   9.218
 2387POPC   GL234166  44.947  27.851   9.241
 2387POPC   C1A34167   0.497  27.571   8.829
 2387POPC   D2A34168   0.580  27.325   8.467
 2387POPC   C3A34169   0.563  27.460   8.045
 2387POPC   C4A34170   0.447  27.294   7.653
 2387POPC   C1B34171  44.939  27.598   8.841
 2387POPC   C2B34172   0.136  27.585   8.437
 2387POPC   C3B34173   0.007  27.686   8.042
 2387POPC   C4B34174   0.219  27.723   7.693
 2388POPC   NC334175  34.589  37.545  10.262
 2388POPC   PO434176  34.497  37.881   9.657
 2388POPC   GL134177  34.464  37.790   9.211
 2388POPC   GL234178  34.476  38.130   9.170
 2388POPC   C1A34179  34.584  37.669   8.754
 2388POPC   D2A34180  34.930  37.692   8.422
 2388POPC   C3A34181  34.736  37.745   8.007
 2388POPC   C4A34182  34.281  37.696   8.037
 2388POPC   C1B34183  34.678  38.165   8.800
 2388POPC   C2B34184  34.620  38.090   8.393
 2388POPC   C3B34185  34.368  38.199   8.058
 2388POPC   C4B34186  34.028  38.199   7.797
 2389POPC   NC334187  40.760  41.551   9.644
 2389POPC   PO434188  40.142  41.769   9.469
 2389POPC   GL134189  40.450  41.499   9.187
 2389POPC   GL234190  40.808  41.638   9.140
 2389POPC   C1A34191  40.669  41.296   8.800
 2389POPC   D2A34192  40.858  41.440   8.381
 2389POPC   C3A34193  40.639  41.491   7.959
 2389POPC   C4A34194  40.651  41.242   7.588
 2389POPC   C1B34195  40.646  41.803   8.740
 2389POPC   C2B34196  40.565  41.867   8.319
 2389POPC   C3B34197  40.961  41.869   8.109
 2389POPC   C4B34198  41.080  41.835   7.684
 2390POPC   NC334199  22.665   5.088   9.678
 2390POPC   PO434200  23.207   5.465   9.631
 2390POPC   GL134201  23.152   5.102   9.342
 2390POPC   GL234202  22.832   4.983   9.205
 2390POPC   C1A34203  23.239   5.040   8.883
 2390POPC   D2A34204  23.067   5.051   8.453
 2390POPC   C3A34205  23.224   4.990   8.040
 2390POPC   C4A34206  22.959   4.975   7.673
 2390POPC   C1B34207  22.631   5.156   8.838
 2390POPC   C2B34208  22.570   5.118   8.384
 2390POPC   C3B34209  22.582   5.202   7.933
 2390POPC   C4B34210  22.502   5.278   7.492
 2391POPC   NC334211  36.070  31.858   9.451
 2391POPC   PO434212  36.250  31.246   9.453
 2391POPC   GL134213  36.041  31.474   9.104
 2391POPC   GL234214  36.289  31.687   9.029
 2391POPC   C1A34215  35.965  31.675   8.656
 2391POPC   D2A34216  36.199  31.797   8.241
 2391POPC   C3A34217  36.003  31.717   7.858
 2391POPC   C4A34218  35.839  31.310   7.686
 2391POPC   C1B34219  36.430  31.919   8.680
 2391POPC   C2B34220  36.706  31.753   8.405
 2391POPC   C3B34221  36.645  31.461   8.093
 2391POPC   C4B34222  36.427  31.451   7.687
 2392POPC   NC334223  18.859  25.054   9.597
 2392POPC   PO434224  19.097  24.395   9.506
 2392POPC   GL134225  19.288  24.409   9.134
 2392POPC   GL234226  18.963  24.439   9.020
 2392POPC   C1A34227  19.315  24.275   8.704
 2392POPC   D2A34228  19.027  24.354   8.372
 2392POPC   C3A34229  19.156  24.277   7.994
 2392POPC   C4A34230  19.355  24.190   7.647
 2392POPC   C1B34231  18.975  24.700   8.723
 2392POPC   C2B34232  19.088  24.887   8.370
 2392POPC   C3B34233  19.062  24.795   7.960
 2392POPC   C4B34234  19.194  25.167   7.752
 2393POPC   NC334235   3.025   2.593   9.321
 2393POPC   PO434236   3.796   2.606   9.422
 2393POPC   GL134237   3.479   2.780   9.138
 2393POPC   GL234238   3.445   2.438   9.101
 2393POPC   C1A34239   3.276   2.858   8.716
 2393POPC   D2A34240   3.607   2.811   8.363
 2393POPC   C3A34241   3.583   3.027   7.980
 2393POPC   C4A34242   3.273   3.033   7.677
 2393POPC   C1B34243   3.564   2.460   8.744
 2393POPC   C2B34244   3.291   2.410   8.411
 2393POPC   C3B34245   3.449   2.430   8.005
 2393POPC   C4B34246   3.804   2.570   7.820
 2394POPC   NC334247  31.716  13.385   9.530
 2394POPC   PO434248  31.137  13.656   9.500
 2394POPC   GL134249  31.404  13.652   9.150
 2394POPC   GL234250  31.174  13.411   9.034
 2394POPC   C1A34251  31.427  13.721   8.695
 2394POPC   D2A34252  31.270  13.452   8.395
 2394POPC   C3A34253  31.308  13.582   7.947
 2394POPC   C4A34254  31.646  13.829   7.739
 2394POPC   C1B34255  31.551  13.246   8.830
 2394POPC   C2B34256  31.685  13.161   8.410
 2394POPC   C3B34257  31.738  13.292   7.975
 2394POPC   C4B34258  31.702  13.348   7.526
 2395POPC   NC334259  44.664  35.101   9.443
 2395POPC   PO434260  44.257  35.608   9.405
 2395POPC   GL134261  44.393  35.446   9.024
 2395POPC   GL234262  44.676  35.219   8.951
 2395POPC   C1A34263  44.537  35.659   8.665
 2395POPC   D2A34264  44.610  35.478   8.298
 2395POPC   C3A34265  44.319  35.486   7.998
 2395POPC   C4A34266  44.234  35.268   7.663
 2395POPC   C1B34267  44.995  35.530   8.820
 2395POPC   C2B34268   0.041  35.748   8.419
 2395POPC   C3B34269  44.945  35.674   7.968
 2395POPC   C4B34270  44.756  35.294   7.804
 2396POPC   NC334271  37.884  28.224   9.308
 2396POPC   PO434272  37.393  28.521   9.539
 2396POPC   GL134273  37.443  28.514   9.116
 2396POPC   GL234274  37.670  28.774   9.135
 2396POPC   C1A34275  37.514  28.293   8.705
 2396POPC   D2A34276  37.380  28.280   8.261
 2396POPC   C3A34277  37.689  28.201   7.933
 2396POPC   C4A34278  37.636  28.181   7.424
 2396POPC   C1B34279  37.587  28.832   8.712
 2396POPC   C2B34280  37.770  28.622   8.354
 2396POPC   C3B34281  38.029  28.571   7.995
 2396POPC   C4B34282  37.789  28.598   7.648
 2397POPC   NC334283   6.007  37.658   9.490
 2397POPC   PO434284   5.917  38.228   9.674
 2397POPC   GL134285   5.862  38.052   9.190
 2397POPC   GL234286   5.765  37.640   9.061
 2397POPC   C1A34287   6.059  37.928   8.781
 2397POPC   D2A34288   5.976  37.606   8.471
 2397POPC   C3A34289   5.917  37.779   8.063
 2397POPC   C4A34290   5.867  37.693   7.640
 2397POPC   C1B34291   5.558  37.412   8.699
 2397POPC   C2B34292   5.479  37.541   8.272
 2397POPC   C3B34293   5.482  37.348   7.867
 2397POPC   C4B34294   5.588  37.227   7.427
 2398POPC   NC334295   9.892  36.517   9.425
 2398POPC   PO434296   9.166  36.321   9.230
 2398POPC   GL134297   9.488  36.610   9.065
 2398POPC   GL234298   9.583  36.926   9.200
 2398POPC   C1A34299   9.847  36.753   8.803
 2398POPC   D2A34300  10.065  36.721   8.427
 2398POPC   C3A34301   9.793  36.708   8.071
 2398POPC   C4A34302   9.845  36.903   7.671
 2398POPC   C1B34303   9.695  37.240   8.851
 2398POPC   C2B34304   9.698  37.098   8.433
 2398POPC   C3B34305   9.657  37.206   8.035
 2398POPC   C4B34306   9.394  37.364   7.738
 2399POPC   NC334307  17.792  16.854   9.412
 2399POPC   PO434308  17.331  16.296   9.403
 2399POPC   GL134309  17.532  16.544   9.112
 2399POPC   GL234310  17.846  16.458   9.009
 2399POPC   C1A34311  17.612  16.877   8.789
 2399POPC   D2A34312  17.347  16.936   8.467
 2399POPC   C3A34313  17.442  17.045   8.060
 2399POPC   C4A34314  17.270  16.900   7.688
 2399POPC   C1B34315  17.573  16.389   8.639
 2399POPC   C2B34316  17.515  16.514   8.218
 2399POPC   C3B34317  17.673  16.600   7.820
 2399POPC   C4B34318  17.519  16.502   7.418
 2400POPC   NC334319  40.240  38.356   9.511
 2400POPC   PO434320  39.766  38.827   9.634
 2400POPC   GL134321  39.921  38.878   9.180
 2400POPC   GL234322  40.096  38.563   9.084
 2400POPC   C1A34323  39.802  38.756   8.726
 2400POPC   D2A34324  39.906  38.709   8.283
 2400POPC   C3A34325  39.902  38.264   8.090
 2400POPC   C4A34326  39.860  38.364   7.636
 2400POPC   C1B34327  40.315  38.674   8.716
 2400POPC   C2B34328  40.366  38.489   8.320
 2400POPC   C3B34329  40.261  38.537   7.902
 2400POPC   C4B34330  40.310  38.758   7.564
 2401POPC   NC334331   2.509   0.877   9.355
 2401POPC   PO434332   2.951   1.319   9.630
 2401POPC   GL134333   2.972   1.274   9.186
 2401POPC   GL234334   2.620   1.352   9.166
 2401POPC   C1A34335   2.847   1.152   8.737
 2401POPC   D2A34336   2.692   1.280   8.345
 2401POPC   C3A34337   2.726   1.099   7.930
 2401POPC   C4A34338   2.832   1.407   7.595
 2401POPC   C1B34339   2.417   1.468   8.778
 2401POPC   C2B34340   2.232   1.494   8.364
 2401POPC   C3B34341   2.443   1.542   7.980
 2401POPC   C4B34342   2.313   1.285   7.660
 2402POPC   NC334343   2.640  24.997   9.522
 2402POPC   PO434344   3.052  25.395   9.682
 2402POPC   GL134345   2.906  25.437   9.215
 2402POPC   GL234346   3.024  25.776   9.111
 2402POPC   C1A34347   2.775  25.303   8.751
 2402POPC   D2A34348   2.773  25.081   8.319
 2402POPC   C3A34349   2.673  25.260   7.910
 2402POPC   C4A34350   2.787  25.343   7.470
 2402POPC   C1B34351   3.035  25.741   8.649
 2402POPC   C2B34352   2.883  25.590   8.251
 2402POPC   C3B34353   3.047  25.628   7.812
 2402POPC   C4B34354   3.212  25.571   7.357
 2403POPC   NC334355  15.502  22.337   9.802
 2403POPC   PO434356  14.858  22.318   9.667
 2403POPC   GL134357  14.970  22.236   9.224
 2403POPC   GL234358  15.144  21.908   9.194
 2403POPC   C1A34359  14.902  22.250   8.766
 2403POPC   D2A34360  14.952  22.500   8.374
 2403POPC   C3A34361  15.152  22.482   7.967
 2403POPC   C4A34362  15.082  22.283   7.561
 2403POPC   C1B34363  15.373  22.065   8.846
 2403POPC   C2B34364  15.457  22.202   8.431
 2403POPC   C3B34365  15.427  22.072   8.018
 2403POPC   C4B34366  15.114  21.806   7.845
 2404POPC   NC334367   2.915  40.195   9.509
 2404POPC   PO434368   2.442  39.602   9.537
 2404POPC   GL134369   2.743  39.770   9.246
 2404POPC   GL234370   2.545  40.068   9.174
 2404POPC   C1A34371   2.945  39.889   8.843
 2404POPC   D2A34372   2.685  39.965   8.445
 2404POPC   C3A34373   2.827  39.797   8.030
 2404POPC   C4A34374   3.013  39.808   7.608
 2404POPC   C1B34375   2.663  40.323   8.821
 2404POPC   C2B34376   2.726  40.476   8.401
 2404POPC   C3B34377   2.928  40.333   8.064
 2404POPC   C4B34378   2.790  40.241   7.689
 2405POPC   NC334379   0.056   6.567   9.558
 2405POPC   PO434380  44.436   6.360   9.474
 2405POPC   GL134381  44.536   6.501   9.094
 2405POPC   GL234382  44.794   6.728   9.106
 2405POPC   C1A34383  44.692   6.496   8.672
 2405POPC   D2A34384  44.796   6.732   8.314
 2405POPC   C3A34385  44.673   6.532   7.991
 2405POPC   C4A34386  44.849   6.262   7.710
 2405POPC   C1B34387  44.764   7.002   8.740
 2405POPC   C2B34388   0.057   7.142   8.409
 2405POPC   C3B34389  44.915   7.164   7.980
 2405POPC   C4B34390  44.782   6.965   7.594
 2406POPC   NC334391  42.134  26.230   9.640
 2406POPC   PO434392  42.738  25.946   9.336
 2406POPC   GL134393  42.551  26.227   9.083
 2406POPC   GL234394  42.178  26.243   9.147
 2406POPC   C1A34395  42.407  26.127   8.687
 2406POPC   D2A34396  42.162  25.882   8.395
 2406POPC   C3A34397  42.331  25.909   7.998
 2406POPC   C4A34398  42.532  25.995   7.618
 2406POPC   C1B34399  42.020  26.534   8.882
 2406POPC   C2B34400  42.087  26.444   8.467
 2406POPC   C3B34401  41.931  26.267   8.102
 2406POPC   C4B34402  42.108  26.280   7.719
 2407POPC   NC334403   5.639   9.420   9.518
 2407POPC   PO434404   6.169   9.780   9.422
 2407POPC   GL134405   5.903   9.632   9.116
 2407POPC   GL234406   5.687   9.909   9.028
 2407POPC   C1A34407   5.986   9.653   8.674
 2407POPC   D2A34408   5.789   9.844   8.321
 2407POPC   C3A34409   5.912   9.628   7.970
 2407POPC   C4A34410   5.846   9.443   7.568
 2407POPC   C1B34411   5.709  10.200   8.705
 2407POPC   C2B34412   6.044  10.306   8.404
 2407POPC   C3B34413   6.098  10.186   7.988
 2407POPC   C4B34414   5.696  10.065   7.841
 2408POPC   NC334415  27.237  16.679   9.522
 2408POPC   PO434416  26.782  16.279   9.446
 2408POPC   GL134417  27.034  16.402   9.070
 2408POPC   GL234418  27.039  16.751   9.037
 2408POPC   C1A34419  26.981  16.395   8.603
 2408POPC   D2A34420  26.631  16.602   8.361
 2408POPC   C3A34421  26.582  16.462   7.931
 2408POPC   C4A34422  26.939  16.423   7.690
 2408POPC   C1B34423  27.022  16.901   8.603
 2408POPC   C2B34424  27.103  16.721   8.192
 2408POPC   C3B34425  26.861  16.904   7.853
 2408POPC   C4B34426  26.837  17.178   7.480
 2409POPC   NC334427  35.445  41.291   9.481
 2409POPC   PO434428  35.174  41.951   9.544
 2409POPC   GL134429  35.177  41.662   9.224
 2409POPC   GL234430  35.535  41.673   9.137
 2409POPC   C1A34431  35.152  41.441   8.834
 2409POPC   D2A34432  35.131  41.655   8.445
 2409POPC   C3A34433  35.099  41.415   8.106
 2409POPC   C4A34434  35.252  41.570   7.735
 2409POPC   C1B34435  35.584  41.691   8.693
 2409POPC   C2B34436  35.531  41.343   8.387
 2409POPC   C3B34437  35.495  41.172   7.933
 2409POPC   C4B34438  35.513  41.275   7.440
 2410POPC   NC334439  35.745  43.265   9.416
 2410POPC   PO434440  36.429  42.944   9.475
 2410POPC   GL134441  36.168  42.972   9.138
 2410POPC   GL234442  36.211  43.287   9.078
 2410POPC   C1A34443  36.295  42.993   8.674
 2410POPC   D2A34444  36.213  42.765   8.285
 2410POPC   C3A34445  36.322  42.979   7.917
 2410POPC   C4A34446  36.196  43.337   7.617
 2410POPC   C1B34447  35.881  43.324   8.760
 2410POPC   C2B34448  35.827  43.065   8.384
 2410POPC   C3B34449  35.852  43.145   7.963
 2410POPC   C4B34450  35.734  43.552   7.818
 2411POPC   NC334451   8.706   2.501   9.329
 2411POPC   PO434452   9.188   2.922   9.583
 2411POPC   GL134453   9.112   2.773   9.164
 2411POPC   GL234454   8.796   2.933   9.024
 2411POPC   C1A34455   9.149   2.662   8.728
 2411POPC   D2A34456   8.974   2.811   8.349
 2411POPC   C3A34457   9.184   2.806   7.957
 2411POPC   C4A34458   9.055   2.574   7.631
 2411POPC   C1B34459   8.640   2.612   8.725
 2411POPC   C2B34460   8.715   2.348   8.408
 2411POPC   C3B34461   8.671   2.520   8.016
 2411POPC   C4B34462   8.556   2.370   7.639
 2412POPC   NC334463   6.080  31.121   9.315
 2412POPC   PO434464   5.721  31.722   9.259
 2412POPC   GL134465   5.847  31.439   8.995
 2412POPC   GL234466   6.155  31.564   8.975
 2412POPC   C1A34467   5.647  31.206   8.682
 2412POPC   D2A34468   5.486  31.374   8.300
 2412POPC   C3A34469   5.790  31.297   8.011
 2412POPC   C4A34470   5.990  31.403   7.643
 2412POPC   C1B34471   6.028  31.594   8.538
 2412POPC   C2B34472   6.043  31.827   8.171
 2412POPC   C3B34473   6.185  31.882   7.743
 2412POPC   C4B34474   6.206  31.674   7.279
 2413POPC   NC334475  13.462  22.562   9.925
 2413POPC   PO434476  13.919  22.983   9.576
 2413POPC   GL134477  13.769  23.076   9.156
 2413POPC   GL234478  13.436  22.951   9.163
 2413POPC   C1A34479  13.715  23.024   8.732
 2413POPC   D2A34480  13.708  23.286   8.415
 2413POPC   C3A34481  13.863  23.152   8.067
 2413POPC   C4A34482  13.708  23.052   7.680
 2413POPC   C1B34483  13.260  22.776   8.783
 2413POPC   C2B34484  13.356  22.919   8.355
 2413POPC   C3B34485  13.336  22.802   7.927
 2413POPC   C4B34486  13.358  22.728   7.490
 2414POPC   NC334487  10.281  35.750   9.560
 2414POPC   PO434488  10.659  36.394   9.394
 2414POPC   GL134489  10.337  36.160   9.185
 2414POPC   GL234490  10.549  35.872   9.118
 2414POPC   C1A34491  10.225  36.030   8.749
 2414POPC   D2A34492  10.471  36.030   8.366
 2414POPC   C3A34493  10.325  36.045   7.958
 2414POPC   C4A34494  10.471  36.256   7.577
 2414POPC   C1B34495  10.825  35.924   8.710
 2414POPC   C2B34496  10.978  35.899   8.241
 2414POPC   C3B34497  10.827  35.960   7.786
 2414POPC   C4B34498  10.833  35.847   7.320
 2415POPC   NC334499  29.469   8.302   9.232
 2415POPC   PO434500  30.146   8.343   9.453
 2415POPC   GL134501  29.953   8.124   9.119
 2415POPC   GL234502  29.870   8.452   8.992
 2415POPC   C1A34503  29.717   8.023   8.718
 2415POPC   D2A34504  29.878   7.954   8.324
 2415POPC   C3A34505  29.816   8.145   7.938
 2415POPC   C4A34506  30.030   7.940   7.629
 2415POPC   C1B34507  29.718   8.526   8.554
 2415POPC   C2B34508  29.677   8.615   8.115
 2415POPC   C3B34509  29.681   8.586   7.668
 2415POPC   C4B34510  30.062   8.448   7.492
 2416POPC   NC334511  11.803   9.839   9.585
 2416POPC   PO434512  12.090   9.226   9.653
 2416POPC   GL134513  12.107   9.494   9.252
 2416POPC   GL234514  12.244   9.854   9.209
 2416POPC   C1A34515  11.975   9.580   8.806
 2416POPC   D2A34516  11.705   9.454   8.428
 2416POPC   C3A34517  11.846   9.567   7.997
 2416POPC   C4A34518  11.907   9.417   7.585
 2416POPC   C1B34519  12.149  10.063   8.791
 2416POPC   C2B34520  11.924   9.928   8.397
 2416POPC   C3B34521  11.924  10.090   7.951
 2416POPC   C4B34522  12.239  10.111   7.603
 2417POPC   NC334523  40.861   3.130   9.188
 2417POPC   PO434524  40.455   2.594   9.327
 2417POPC   GL134525  40.794   2.646   9.032
 2417POPC   GL234526  41.155   2.638   9.160
 2417POPC   C1A34527  40.880   2.763   8.615
 2417POPC   D2A34528  40.657   2.975   8.285
 2417POPC   C3A34529  40.593   2.789   7.895
 2417POPC   C4A34530  40.533   3.198   7.724
 2417POPC   C1B34531  41.363   2.535   8.770
 2417POPC   C2B34532  41.416   2.523   8.323
 2417POPC   C3B34533  41.043   2.669   8.101
 2417POPC   C4B34534  41.024   2.999   7.731
 2418POPC   NC334535  31.492   6.550   9.863
 2418POPC   PO434536  31.808   6.165   9.312
 2418POPC   GL134537  31.410   6.047   9.099
 2418POPC   GL234538  31.304   5.704   9.051
 2418POPC   C1A34539  31.359   6.118   8.659
 2418POPC   D2A34540  31.655   6.168   8.305
 2418POPC   C3A34541  31.507   6.067   7.893
 2418POPC   C4A34542  31.626   5.788   7.548
 2418POPC   C1B34543  31.394   5.590   8.684
 2418POPC   C2B34544  31.349   5.732   8.291
 2418POPC   C3B34545  31.412   5.527   7.925
 2418POPC   C4B34546  31.194   5.504   7.515
 2419POPC   NC334547  44.682  16.134   9.510
 2419POPC   PO434548   0.110  15.556   9.533
 2419POPC   GL134549  44.912  15.759   9.202
 2419POPC   GL234550  44.581  15.691   9.171
 2419POPC   C1A34551  44.963  15.939   8.795
 2419POPC   D2A34552  44.874  16.143   8.398
 2419POPC   C3A34553  44.994  15.933   8.000
 2419POPC   C4A34554  44.748  16.180   7.673
 2419POPC   C1B34555  44.337  15.616   8.807
 2419POPC   C2B34556  44.558  15.661   8.411
 2419POPC   C3B34557  44.484  15.879   8.015
 2419POPC   C4B34558  44.121  15.904   7.765
 2420POPC   NC334559  12.951  41.313   9.557
 2420POPC   PO434560  12.664  41.947   9.522
 2420POPC   GL134561  12.780  41.626   9.176
 2420POPC   GL234562  13.071  41.379   9.079
 2420POPC   C1A34563  12.614  41.381   8.832
 2420POPC   D2A34564  12.805  41.322   8.442
 2420POPC   C3A34565  12.654  41.342   8.022
 2420POPC   C4A34566  12.894  41.515   7.713
 2420POPC   C1B34567  13.071  41.674   8.731
 2420POPC   C2B34568  13.041  41.784   8.288
 2420POPC   C3B34569  13.298  41.737   7.932
 2420POPC   C4B34570  13.268  41.774   7.500
 2421POPC   NC334571  39.818  13.941   9.576
 2421POPC   PO434572  40.180  13.432   9.537
 2421POPC   GL134573  40.009  13.535   9.138
 2421POPC   GL234574  40.017  13.888   9.111
 2421POPC   C1A34575  40.193  13.510   8.731
 2421POPC   D2A34576  40.342  13.706   8.365
 2421POPC   C3A34577  40.179  13.461   8.064
 2421POPC   C4A34578  40.255  13.531   7.670
 2421POPC   C1B34579  39.804  13.829   8.735
 2421POPC   C2B34580  39.848  13.768   8.311
 2421POPC   C3B34581  39.914  13.872   7.906
 2421POPC   C4B34582  39.920  13.847   7.461
 2422POPC   NC334583  31.861  31.788   9.562
 2422POPC   PO434584  32.504  31.714   9.600
 2422POPC   GL134585  32.247  31.592   9.234
 2422POPC   GL234586  32.231  31.931   9.175
 2422POPC   C1A34587  32.070  31.640   8.786
 2422POPC   D2A34588  31.864  31.567   8.362
 2422POPC   C3A34589  32.073  31.323   7.983
 2422POPC   C4A34590  32.411  31.072   7.701
 2422POPC   C1B34591  32.498  31.940   8.776
 2422POPC   C2B34592  32.342  31.794   8.361
 2422POPC   C3B34593  32.322  31.754   7.893
 2422POPC   C4B34594  32.355  31.930   7.482
 2423POPC   NC334595  21.525   2.107   9.456
 2423POPC   PO434596  20.860   2.229   9.342
 2423POPC   GL134597  21.151   2.013   9.051
 2423POPC   GL234598  21.448   1.819   9.040
 2423POPC   C1A34599  21.107   1.781   8.681
 2423POPC   D2A34600  20.988   1.976   8.328
 2423POPC   C3A34601  21.116   1.736   8.003
 2423POPC   C4A34602  21.056   1.971   7.660
 2423POPC   C1B34603  21.601   2.060   8.731
 2423POPC   C2B34604  21.716   2.117   8.280
 2423POPC   C3B34605  21.612   1.867   7.921
 2423POPC   C4B34606  21.542   1.934   7.465
 2424POPC   NC334607  14.815  14.269   9.475
 2424POPC   PO434608  15.389  14.678   9.589
 2424POPC   GL134609  15.401  14.402   9.234
 2424POPC   GL234610  15.364  14.053   9.271
 2424POPC   C1A34611  15.482  14.451   8.815
 2424POPC   D2A34612  15.206  14.501   8.471
 2424POPC   C3A34613  15.369  14.469   8.062
 2424POPC   C4A34614  15.390  14.261   7.698
 2424POPC   C1B34615  15.118  14.090   8.846
 2424POPC   C2B34616  15.034  14.021   8.373
 2424POPC   C3B34617  14.977  14.029   7.909
 2424POPC   C4B34618  14.949  14.092   7.456
 2425POPC   NC334619  43.896  21.140   9.481
 2425POPC   PO434620  43.329  21.205   9.833
 2425POPC   GL134621  43.463  21.323   9.317
 2425POPC   GL234622  43.594  21.079   9.058
 2425POPC   C1A34623  43.564  21.536   8.896
 2425POPC   D2A34624  43.604  21.250   8.526
 2425POPC   C3A34625  43.683  21.433   8.127
 2425POPC   C4A34626  43.789  21.206   7.776
 2425POPC   C1B34627  43.990  21.192   8.845
 2425POPC   C2B34628  44.096  21.347   8.443
 2425POPC   C3B34629  44.222  21.323   8.026
 2425POPC   C4B34630  44.214  21.704   7.809
 2426POPC   NC334631   9.642  10.368   9.648
 2426POPC   PO434632  10.159  10.825   9.540
 2426POPC   GL134633   9.903  10.649   9.186
 2426POPC   GL234634   9.535  10.559   9.105
 2426POPC   C1A34635   9.888  10.515   8.745
 2426POPC   D2A34636   9.945  10.437   8.317
 2426POPC   C3A34637   9.673  10.493   7.963
 2426POPC   C4A34638   9.678  10.517   7.520
 2426POPC   C1B34639   9.428  10.300   8.727
 2426POPC   C2B34640   9.354  10.284   8.315
 2426POPC   C3B34641   9.351  10.087   7.927
 2426POPC   C4B34642   9.216  10.348   7.615
 2427POPC   NC334643   5.983   0.524   9.467
 2427POPC   PO434644   5.341   0.579   9.678
 2427POPC   GL134645   5.528   0.485   9.228
 2427POPC   GL234646   5.697   0.755   9.048
 2427POPC   C1A34647   5.765   0.295   8.853
 2427POPC   D2A34648   5.994   0.300   8.496
 2427POPC   C3A34649   5.814   0.318   8.113
 2427POPC   C4A34650   6.009   0.068   7.836
 2427POPC   C1B34651   6.039   0.751   8.746
 2427POPC   C2B34652   6.096   0.747   8.287
 2427POPC   C3B34653   6.100   0.640   7.852
 2427POPC   C4B34654   5.668   0.628   7.709
 2428POPC   NC334655  31.702  42.373   9.383
 2428POPC   PO434656  31.209  41.952   9.033
 2428POPC   GL134657  31.474  42.206   8.973
 2428POPC   GL234658  31.763  42.008   9.005
 2428POPC   C1A34659  31.443  42.597   8.797
 2428POPC   D2A34660  31.314  42.685   8.387
 2428POPC   C3A34661  31.312  42.402   8.030
 2428POPC   C4A34662  31.355  42.433   7.530
 2428POPC   C1B34663  31.875  42.318   8.685
 2428POPC   C2B34664  31.778  42.351   8.246
 2428POPC   C3B34665  31.719  42.196   7.797
 2428POPC   C4B34666  31.819  42.143   7.367
 2429POPC   NC334667  31.473  38.477   9.515
 2429POPC   PO434668  31.435  39.177   9.478
 2429POPC   GL134669  31.431  38.865   9.167
 2429POPC   GL234670  31.714  38.753   9.097
 2429POPC   C1A34671  31.285  38.540   8.879
 2429POPC   D2A34672  31.208  38.285   8.540
 2429POPC   C3A34673  31.195  38.548   8.195
 2429POPC   C4A34674  31.331  38.402   7.818
 2429POPC   C1B34675  31.845  38.556   8.734
 2429POPC   C2B34676  31.670  38.448   8.349
 2429POPC   C3B34677  31.803  38.283   7.954
 2429POPC   C4B34678  32.034  38.117   7.623
 2430POPC   NC334679  32.239  13.050   9.519
 2430POPC   PO434680  32.422  12.520   9.477
 2430POPC   GL134681  32.108  12.719   9.128
 2430POPC   GL234682  31.952  13.066   9.097
 2430POPC   C1A34683  32.168  12.599   8.685
 2430POPC   D2A34684  32.376  12.391   8.332
 2430POPC   C3A34685  32.199  12.534   7.965
 2430POPC   C4A34686  32.394  12.774   7.649
 2430POPC   C1B34687  32.103  13.097   8.694
 2430POPC   C2B34688  32.125  12.949   8.255
 2430POPC   C3B34689  32.232  13.192   7.876
 2430POPC   C4B34690  32.195  13.187   7.415
 2431POPC   NC334691  14.150   4.691   9.536
 2431POPC   PO434692  14.664   5.131   9.551
 2431POPC   GL134693  14.444   4.949   9.204
 2431POPC   GL234694  14.124   5.078   9.202
 2431POPC   C1A34695  14.286   4.807   8.799
 2431POPC   D2A34696  14.468   4.886   8.392
 2431POPC   C3A34697  14.259   4.755   8.026
 2431POPC   C4A34698  14.354   4.688   7.628
 2431POPC   C1B34699  14.311   5.362   8.896
 2431POPC   C2B34700  14.490   5.395   8.486
 2431POPC   C3B34701  14.255   5.261   8.127
 2431POPC   C4B34702  14.347   5.181   7.735
 2432POPC   NC334703  13.429   3.999   9.789
 2432POPC   PO434704  13.972   4.255   9.444
 2432POPC   GL134705  13.837   4.405   9.071
 2432POPC   GL234706  13.618   4.599   9.258
 2432POPC   C1A34707  13.699   4.172   8.680
 2432POPC   D2A34708  13.870   3.987   8.292
 2432POPC   C3A34709  13.675   4.140   7.918
 2432POPC   C4A34710  13.834   4.535   7.777
 2432POPC   C1B34711  13.364   4.612   8.869
 2432POPC   C2B34712  13.203   4.573   8.453
 2432POPC   C3B34713  13.402   4.632   8.075
 2432POPC   C4B34714  13.308   4.521   7.681
 2433POPC   NC334715  28.369  38.736   9.658
 2433POPC   PO434716  28.198  38.196   9.660
 2433POPC   GL134717  28.327  38.385   9.221
 2433POPC   GL234718  28.557  38.697   9.175
 2433POPC   C1A34719  28.250  38.369   8.741
 2433POPC   D2A34720  28.241  38.108   8.342
 2433POPC   C3A34721  28.188  38.347   7.962
 2433POPC   C4A34722  28.340  38.307   7.540
 2433POPC   C1B34723  28.540  38.801   8.724
 2433POPC   C2B34724  28.501  38.613   8.296
 2433POPC   C3B34725  28.674  38.638   7.875
 2433POPC   C4B34726  28.874  38.339   7.581
 2434POPC   NC334727  42.793  20.082   9.581
 2434POPC   PO434728  43.380  19.852   9.275
 2434POPC   GL134729  42.968  19.791   9.063
 2434POPC   GL234730  42.751  20.094   9.085
 2434POPC   C1A34731  42.930  19.744   8.601
 2434POPC   D2A34732  43.179  19.966   8.271
 2434POPC   C3A34733  43.140  19.833   7.833
 2434POPC   C4A34734  43.450  19.674   7.535
 2434POPC   C1B34735  42.751  20.267   8.695
 2434POPC   C2B34736  42.671  20.116   8.287
 2434POPC   C3B34737  42.771  20.256   7.888
 2434POPC   C4B34738  42.694  20.314   7.427
 2435POPC   NC334739   1.018  11.448   9.842
 2435POPC   PO434740   0.845  10.880   9.547
 2435POPC   GL134741   1.186  11.136   9.323
 2435POPC   GL234742   1.110  11.467   9.171
 2435POPC   C1A34743   1.309  11.116   8.867
 2435POPC   D2A34744   1.151  11.086   8.457
 2435POPC   C3A34745   1.373  11.238   8.131
 2435POPC   C4A34746   1.289  11.316   7.723
 2435POPC   C1B34747   1.301  11.641   8.809
 2435POPC   C2B34748   1.125  11.609   8.398
 2435POPC   C3B34749   1.062  11.744   7.985
 2435POPC   C4B34750   1.248  11.816   7.617
 2436POPC   NC334751  39.121  22.916   9.374
 2436POPC   PO434752  39.682  23.186   9.572
 2436POPC   GL134753  39.498  23.109   9.110
 2436POPC   GL234754  39.146  23.205   8.960
 2436POPC   C1A34755  39.324  22.767   8.768
 2436POPC   D2A34756  39.094  22.871   8.361
 2436POPC   C3A34757  39.078  22.600   7.977
 2436POPC   C4A34758  39.481  22.470   7.762
 2436POPC   C1B34759  39.408  23.255   8.620
 2436POPC   C2B34760  39.608  22.945   8.387
 2436POPC   C3B34761  39.491  22.893   8.013
 2436POPC   C4B34762  39.162  23.025   7.733
 2437POPC   NC334763  39.762  44.299   9.312
 2437POPC   PO434764  39.163  44.036   9.537
 2437POPC   GL134765  39.095  43.931   9.126
 2437POPC   GL234766  39.481  43.914   9.103
 2437POPC   C1A34767  38.906  43.966   8.697
 2437POPC   D2A34768  38.775  44.202   8.309
 2437POPC   C3A34769  38.941  43.962   7.989
 2437POPC   C4A34770  39.344  43.965   7.780
 2437POPC   C1B34771  39.336  43.615   8.808
 2437POPC   C2B34772  39.202  43.621   8.401
 2437POPC   C3B34773  39.387  43.510   8.017
 2437POPC   C4B34774  39.234  43.518   7.586
 2438POPC   NC334775  17.178  27.742   9.408
 2438POPC   PO434776  17.726  27.523   9.745
 2438POPC   GL134777  17.602  27.461   9.313
 2438POPC   GL234778  17.681  27.744   9.166
 2438POPC   C1A34779  17.546  27.397   8.830
 2438POPC   D2A34780  17.685  27.479   8.392
 2438POPC   C3A34781  17.457  27.393   8.010
 2438POPC   C4A34782  17.196  27.431   7.638
 2438POPC   C1B34783  17.863  27.926   8.791
 2438POPC   C2B34784  18.013  27.868   8.380
 2438POPC   C3B34785  17.804  27.812   7.990
 2438POPC   C4B34786  17.656  27.660   7.614
 2439POPC   NC334787  40.629  32.623   9.673
 2439POPC   PO434788  40.662  33.274   9.495
 2439POPC   GL134789  40.987  33.292   9.169
 2439POPC   GL234790  41.173  32.956   9.166
 2439POPC   C1A34791  40.828  33.417   8.749
 2439POPC   D2A34792  40.581  33.219   8.382
 2439POPC   C3A34793  40.802  33.178   8.003
 2439POPC   C4A34794  41.122  32.876   7.868
 2439POPC   C1B34795  41.067  32.931   8.767
 2439POPC   C2B34796  41.025  32.853   8.379
 2439POPC   C3B34797  40.724  32.705   8.170
 2439POPC   C4B34798  40.629  32.700   7.786
 2440POPC   NC334799  37.076   1.656   9.343
 2440POPC   PO434800  36.845   2.345   9.528
 2440POPC   GL134801  36.838   2.106   9.157
 2440POPC   GL234802  37.191   2.188   9.132
 2440POPC   C1A34803  36.661   2.010   8.739
 2440POPC   D2A34804  36.824   1.871   8.354
 2440POPC   C3A34805  36.779   2.021   7.934
 2440POPC   C4A34806  37.085   2.332   7.816
 2440POPC   C1B34807  37.169   1.921   8.762
 2440POPC   C2B34808  37.302   1.644   8.444
 2440POPC   C3B34809  37.245   1.834   8.044
 2440POPC   C4B34810  37.167   1.660   7.684
 2441POPC   NC334811   9.014  28.172   9.494
 2441POPC   PO434812   9.249  27.645   9.482
 2441POPC   GL134813   9.045  27.540   9.093
 2441POPC   GL234814   9.233  27.267   8.935
 2441POPC   C1A34815   8.866  27.529   8.667
 2441POPC   D2A34816   9.020  27.432   8.239
 2441POPC   C3A34817   8.936  27.762   7.933
 2441POPC   C4A34818   9.064  27.931   7.547
 2441POPC   C1B34819   9.371  27.605   8.643
 2441POPC   C2B34820   9.379  27.806   8.217
 2441POPC   C3B34821   9.410  27.608   7.801
 2441POPC   C4B34822   9.105  27.383   7.552
 2442POPC   NC334823  19.677  27.354   9.538
 2442POPC   PO434824  20.098  26.800   9.633
 2442POPC   GL134825  19.839  26.898   9.293
 2442POPC   GL234826  19.999  27.189   9.149
 2442POPC   C1A34827  19.834  26.743   8.881
 2442POPC   D2A34828  20.099  26.913   8.583
 2442POPC   C3A34829  20.005  26.783   8.184
 2442POPC   C4A34830  19.877  26.657   7.789
 2442POPC   C1B34831  19.663  27.221   8.840
 2442POPC   C2B34832  19.631  27.059   8.427
 2442POPC   C3B34833  19.612  27.063   7.975
 2442POPC   C4B34834  19.711  27.054   7.511
 2443POPC   NC334835  17.299   9.716   9.616
 2443POPC   PO434836  17.875   9.697   9.685
 2443POPC   GL134837  17.762   9.726   9.245
 2443POPC   GL234838  17.470   9.545   9.132
 2443POPC   C1A34839  17.657   9.920   8.810
 2443POPC   D2A34840  17.483   9.947   8.359
 2443POPC   C3A34841  17.722   9.861   7.953
 2443POPC   C4A34842  17.628   9.809   7.484
 2443POPC   C1B34843  17.363   9.523   8.666
 2443POPC   C2B34844  17.328   9.466   8.203
 2443POPC   C3B34845  17.313   9.550   7.778
 2443POPC   C4B34846  17.256   9.420   7.329
 2444POPC   NC334847  38.428  38.180   9.680
 2444POPC   PO434848  38.668  38.785   9.624
 2444POPC   GL134849  38.332  38.642   9.323
 2444POPC   GL234850  38.494  38.807   9.044
 2444POPC   C1A34851  38.141  38.521   8.890
 2444POPC   D2A34852  38.373  38.625   8.474
 2444POPC   C3A34853  38.212  38.643   8.041
 2444POPC   C4A34854  38.146  38.393   7.676
 2444POPC   C1B34855  38.569  38.278   8.846
 2444POPC   C2B34856  38.702  38.226   8.435
 2444POPC   C3B34857  38.629  38.342   8.067
 2444POPC   C4B34858  38.577  38.104   7.699
 2445POPC   NC334859  42.681  39.011   9.477
 2445POPC   PO434860  42.029  38.827   9.396
 2445POPC   GL134861  42.311  39.071   9.115
 2445POPC   GL234862  42.668  39.236   9.042
 2445POPC   C1A34863  42.249  39.318   8.754
 2445POPC   D2A34864  42.156  39.402   8.344
 2445POPC   C3A34865  41.929  39.106   8.120
 2445POPC   C4A34866  42.066  39.045   7.696
 2445POPC   C1B34867  42.650  39.005   8.650
 2445POPC   C2B34868  42.560  39.072   8.211
 2445POPC   C3B34869  42.460  39.347   7.876
 2445POPC   C4B34870  42.604  39.574   7.514
 2446POPC   NC334871  43.417  27.291   9.330
 2446POPC   PO434872  42.952  27.695   9.635
 2446POPC   GL134873  43.065  27.716   9.198
 2446POPC   GL234874  43.299  27.957   9.030
 2446POPC   C1A34875  43.051  27.560   8.787
 2446POPC   D2A34876  43.220  27.543   8.381
 2446POPC   C3A34877  42.951  27.797   8.118
 2446POPC   C4A34878  42.709  27.654   7.778
 2446POPC   C1B34879  43.552  27.749   8.757
 2446POPC   C2B34880  43.672  27.834   8.367
 2446POPC   C3B34881  43.454  27.772   7.966
 2446POPC   C4B34882  43.658  27.864   7.566
 2447POPC   NC334883   9.876   4.192   9.945
 2447POPC   PO434884   9.969   4.090   9.300
 2447POPC   GL134885  10.010   4.334   8.965
 2447POPC   GL234886   9.716   4.500   8.995
 2447POPC   C1A34887   9.909   4.348   8.529
 2447POPC   D2A34888   9.527   4.332   8.232
 2447POPC   C3A34889   9.669   4.107   7.886
 2447POPC   C4A34890  10.052   3.912   7.777
 2447POPC   C1B34891   9.423   4.722   8.789
 2447POPC   C2B34892   9.202   4.701   8.407
 2447POPC   C3B34893   9.374   4.842   8.011
 2447POPC   C4B34894   9.534   4.561   7.718
 2448POPC   NC334895  12.276   1.395   9.644
 2448POPC   PO434896  12.006   0.811   9.425
 2448POPC   GL134897  12.052   1.080   9.077
 2448POPC   GL234898  12.163   1.411   9.145
 2448POPC   C1A34899  12.297   1.181   8.688
 2448POPC   D2A34900  12.609   1.288   8.359
 2448POPC   C3A34901  12.497   1.185   7.936
 2448POPC   C4A34902  12.380   1.033   7.501
 2448POPC   C1B34903  11.915   1.476   8.775
 2448POPC   C2B34904  11.755   1.212   8.432
 2448POPC   C3B34905  11.913   1.229   7.988
 2448POPC   C4B34906  12.158   1.483   7.710
 2449POPC   NC334907  33.007  39.653   9.546
 2449POPC   PO434908  33.375  39.090   9.408
 2449POPC   GL134909  33.242  39.400   9.119
 2449POPC   GL234910  32.884  39.472   9.087
 2449POPC   C1A34911  33.224  39.581   8.713
 2449POPC   D2A34912  33.044  39.434   8.379
 2449POPC   C3A34913  32.995  39.630   8.026
 2449POPC   C4A34914  32.916  39.416   7.666
 2449POPC   C1B34915  32.932  39.139   8.779
 2449POPC   C2B34916  32.847  38.962   8.388
 2449POPC   C3B34917  33.105  39.026   7.992
 2449POPC   C4B34918  33.339  38.749   7.712
 2450POPC   NC334919   0.701  38.093   9.511
 2450POPC   PO434920   0.315  38.669   9.624
 2450POPC   GL134921   0.428  38.462   9.235
 2450POPC   GL234922   0.785  38.440   9.145
 2450POPC   C1A34923   0.369  38.474   8.788
 2450POPC   D2A34924   0.189  38.253   8.433
 2450POPC   C3A34925   0.230  38.527   8.096
 2450POPC   C4A34926   0.302  38.718   7.717
 2450POPC   C1B34927   0.950  38.332   8.759
 2450POPC   C2B34928   0.712  38.367   8.375
 2450POPC   C3B34929   0.702  38.352   7.926
 2450POPC   C4B34930   0.668  38.428   7.490
 2451POPC   NC334931  37.665   4.842   9.899
 2451POPC   PO434932  37.720   4.708   9.261
 2451POPC   GL134933  37.885   5.003   8.976
 2451POPC   GL234934  37.553   5.104   8.856
 2451POPC   C1A34935  37.955   5.073   8.505
 2451POPC   D2A34936  37.557   5.231   8.342
 2451POPC   C3A34937  37.450   5.210   7.918
 2451POPC   C4A34938  37.315   4.894   7.703
 2451POPC   C1B34939  37.582   4.740   8.560
 2451POPC   C2B34940  37.623   4.756   8.125
 2451POPC   C3B34941  37.936   4.974   7.971
 2451POPC   C4B34942  38.142   4.596   7.989
 2452POPC   NC334943   9.230  40.567   9.273
 2452POPC   PO434944   9.590  41.163   9.354
 2452POPC   GL134945   9.809  41.060   9.032
 2452POPC   GL234946   9.711  40.701   9.101
 2452POPC   C1A34947   9.812  40.946   8.644
 2452POPC   D2A34948   9.958  40.777   8.332
 2452POPC   C3A34949   9.735  40.847   7.985
 2452POPC   C4A34950   9.688  41.206   7.705
 2452POPC   C1B34951   9.875  40.458   8.767
 2452POPC   C2B34952  10.095  40.287   8.384
 2452POPC   C3B34953   9.879  40.349   8.001
 2452POPC   C4B34954   9.969  40.575   7.608
 2453POPC   NC334955  28.215  31.126   9.395
 2453POPC   PO434956  28.442  31.720   9.596
 2453POPC   GL134957  28.340  31.580   9.218
 2453POPC   GL234958  28.644  31.529   9.113
 2453POPC   C1A34959  28.230  31.514   8.790
 2453POPC   D2A34960  28.385  31.285   8.439
 2453POPC   C3A34961  28.390  31.424   8.011
 2453POPC   C4A34962  28.241  31.211   7.650
 2453POPC   C1B34963  28.777  31.499   8.692
 2453POPC   C2B34964  28.877  31.293   8.269
 2453POPC   C3B34965  28.876  31.429   7.875
 2453POPC   C4B34966  28.786  31.841   7.896
 2454POPC   NC334967   9.786  11.151   9.475
 2454POPC   PO434968   9.647  11.782   9.496
 2454POPC   GL134969   9.641  11.569   9.119
 2454POPC   GL234970   9.426  11.297   9.132
 2454POPC   C1A34971   9.794  11.452   8.712
 2454POPC   D2A34972   9.626  11.352   8.333
 2454POPC   C3A34973   9.748  11.413   7.917
 2454POPC   C4A34974   9.436  11.620   7.652
 2454POPC   C1B34975   9.659  10.992   8.862
 2454POPC   C2B34976   9.889  10.946   8.491
 2454POPC   C3B34977   9.952  10.941   8.037
 2454POPC   C4B34978   9.564  10.962   7.779
 2455POPC   NC334979  23.196  37.513   9.375
 2455POPC   PO434980  22.717  37.138   9.460
 2455POPC   GL134981  22.793  37.487   9.056
 2455POPC   GL234982  22.826  37.847   9.176
 2455POPC   C1A34983  22.616  37.817   8.701
 2455POPC   D2A34984  22.512  37.890   8.222
 2455POPC   C3A34985  22.794  37.653   7.905
 2455POPC   C4A34986  22.866  37.610   7.440
 2455POPC   C1B34987  23.113  38.016   8.832
 2455POPC   C2B34988  23.234  38.196   8.426
 2455POPC   C3B34989  23.185  38.113   7.985
 2455POPC   C4B34990  22.871  38.103   7.680
 2456POPC   NC334991  44.705  23.494   9.303
 2456POPC   PO434992  44.576  24.135   9.525
 2456POPC   GL134993  44.542  23.957   9.135
 2456POPC   GL234994  44.881  23.867   8.996
 2456POPC   C1A34995  44.408  23.800   8.744
 2456POPC   D2A34996  44.433  23.935   8.314
 2456POPC   C3A34997  44.481  23.593   7.997
 2456POPC   C4A34998  44.556  23.478   7.559
 2456POPC   C1B34999  44.857  23.515   8.646
 2456POPC   C2B35000  44.971  23.448   8.186
 2456POPC   C3B35001   0.014  23.643   7.767
 2456POPC   C4B35002   0.013  23.500   7.306
 2457POPC   NC335003  19.460   2.555   9.527
 2457POPC   PO435004  18.813   2.891   9.557
 2457POPC   GL135005  19.045   2.800   9.233
 2457POPC   GL235006  18.768   2.567   9.157
 2457POPC   C1A35007  19.017   3.023   8.855
 2457POPC   D2A35008  18.855   2.966   8.448
 2457POPC   C3A35009  19.163   2.908   8.176
 2457POPC   C4A35010  19.230   2.811   7.769
 2457POPC   C1B35011  19.023   2.519   8.805
 2457POPC   C2B35012  18.994   2.459   8.406
 2457POPC   C3B35013  18.857   2.549   8.026
 2457POPC   C4B35014  18.940   2.372   7.674
 2458POPC   NC335015  38.024  23.694   9.802
 2458POPC   PO435016  37.459  23.819   9.489
 2458POPC   GL135017  37.577  23.647   9.063
 2458POPC   GL235018  37.541  23.987   8.953
 2458POPC   C1A35019  37.908  23.578   8.718
 2458POPC   D2A35020  38.023  23.699   8.284
 2458POPC   C3A35021  37.840  23.545   7.899
 2458POPC   C4A35022  38.041  23.405   7.534
 2458POPC   C1B35023  37.653  23.991   8.547
 2458POPC   C2B35024  37.503  23.753   8.220
 2458POPC   C3B35025  37.383  23.868   7.822
 2458POPC   C4B35026  37.247  23.716   7.450
 2459POPC   NC335027  41.096   0.671   9.440
 2459POPC   PO435028  40.387   0.432   9.436
 2459POPC   GL135029  40.679   0.464   9.112
 2459POPC   GL235030  40.944   0.261   9.170
 2459POPC   C1A35031  40.651   0.310   8.690
 2459POPC   D2A35032  40.851   0.436   8.310
 2459POPC   C3A35033  40.544   0.447   7.973
 2459POPC   C4A35034  40.588   0.816   7.736
 2459POPC   C1B35035  41.130   0.148   8.786
 2459POPC   C2B35036  41.270   0.097   8.413
 2459POPC   C3B35037  41.129   0.100   8.059
 2459POPC   C4B35038  40.954   0.230   7.750
 2460POPC   NC335039  11.147  37.980   9.408
 2460POPC   PO435040  11.683  38.384   9.346
 2460POPC   GL135041  11.404  38.217   9.042
 2460POPC   GL235042  11.191  38.525   9.038
 2460POPC   C1A35043  11.228  38.148   8.623
 2460POPC   D2A35044  10.971  38.342   8.294
 2460POPC   C3A35045  11.092  38.403   7.891
 2460POPC   C4A35046  11.474  38.258   7.737
 2460POPC   C1B35047  11.494  38.586   8.689
 2460POPC   C2B35048  11.486  38.501   8.236
 2460POPC   C3B35049  11.509  38.754   7.864
 2460POPC   C4B35050  11.555  38.795   7.405
 2461POPC   NC335051  43.089  13.136   9.604
 2461POPC   PO435052  43.027  12.430   9.612
 2461POPC   GL135053  43.020  12.760   9.255
 2461POPC   GL235054  42.767  13.027   9.204
 2461POPC   C1A35055  43.086  12.705   8.805
 2461POPC   D2A35056  42.960  12.402   8.464
 2461POPC   C3A35057  43.191  12.480   8.092
 2461POPC   C4A35058  43.348  12.801   7.802
 2461POPC   C1B35059  42.887  13.207   8.802
 2461POPC   C2B35060  43.262  13.164   8.535
 2461POPC   C3B35061  43.106  13.086   8.126
 2461POPC   C4B35062  42.916  13.187   7.715
 2462POPC   NC335063  26.607   1.759   9.915
 2462POPC   PO435064  27.040   1.655   9.402
 2462POPC   GL135065  26.822   1.970   9.135
 2462POPC   GL235066  26.871   2.314   9.205
 2462POPC   C1A35067  26.628   1.886   8.724
 2462POPC   D2A35068  26.770   1.742   8.320
 2462POPC   C3A35069  26.607   1.903   7.932
 2462POPC   C4A35070  26.900   1.772   7.630
 2462POPC   C1B35071  26.968   2.261   8.762
 2462POPC   C2B35072  26.811   2.237   8.368
 2462POPC   C3B35073  26.972   2.230   7.949
 2462POPC   C4B35074  26.756   2.270   7.554
 2463POPC   NC335075  34.173   6.857   9.476
 2463POPC   PO435076  33.654   6.298   9.472
 2463POPC   GL135077  33.784   6.442   9.104
 2463POPC   GL235078  33.549   6.646   9.001
 2463POPC   C1A35079  33.724   6.350   8.652
 2463POPC   D2A35080  33.609   6.609   8.333
 2463POPC   C3A35081  33.730   6.396   7.989
 2463POPC   C4A35082  33.629   6.505   7.578
 2463POPC   C1B35083  33.848   6.835   8.721
 2463POPC   C2B35084  34.021   6.917   8.302
 2463POPC   C3B35085  33.920   6.852   7.855
 2463POPC   C4B35086  33.950   6.835   7.370
 2464POPC   NC335087  36.708  34.330   9.394
 2464POPC   PO435088  37.411  34.337   9.527
 2464POPC   GL135089  37.256  34.241   9.125
 2464POPC   GL235090  37.020  34.508   9.042
 2464POPC   C1A35091  37.389  34.409   8.712
 2464POPC   D2A35092  37.249  34.647   8.383
 2464POPC   C3A35093  36.913  34.457   8.186
 2464POPC   C4A35094  37.027  34.453   7.782
 2464POPC   C1B35095  36.852  34.757   8.698
 2464POPC   C2B35096  36.620  34.875   8.313
 2464POPC   C3B35097  36.558  34.706   7.891
 2464POPC   C4B35098  36.556  34.343   7.639
 2465POPC   NC335099  25.753  11.941   9.449
 2465POPC   PO435100  26.477  11.635   9.423
 2465POPC   GL135101  26.256  11.928   9.092
 2465POPC   GL235102  25.927  12.081   8.994
 2465POPC   C1A35103  26.426  12.193   8.778
 2465POPC   D2A35104  26.407  12.418   8.408
 2465POPC   C3A35105  26.402  12.203   8.018
 2465POPC   C4A35106  26.160  12.076   7.679
 2465POPC   C1B35107  25.968  12.064   8.561
 2465POPC   C2B35108  25.856  12.074   8.149
 2465POPC   C3B35109  25.821  11.711   7.869
 2465POPC   C4B35110  25.641  11.619   7.474
 2466POPC   NC335111  40.265  43.464   9.538
 2466POPC   PO435112  40.019  44.077   9.622
 2466POPC   GL135113  40.016  43.849   9.221
 2466POPC   GL235114  40.171  44.128   9.079
 2466POPC   C1A35115  39.896  43.692   8.776
 2466POPC   D2A35116  39.700  43.850   8.327
 2466POPC   C3A35117  39.820  43.742   7.863
 2466POPC   C4A35118  40.248  43.604   7.716
 2466POPC   C1B35119  39.907  44.189   8.695
 2466POPC   C2B35120  40.077  44.251   8.335
 2466POPC   C3B35121  40.206  43.996   8.050
 2466POPC   C4B35122  40.178  44.097   7.613
 2467POPC   NC335123  37.247  41.732   9.495
 2467POPC   PO435124  36.625  41.456   9.548
 2467POPC   GL135125  36.898  41.488   9.160
 2467POPC   GL235126  37.077  41.156   9.150
 2467POPC   C1A35127  36.959  41.648   8.714
 2467POPC   D2A35128  36.777  41.524   8.298
 2467POPC   C3A35129  36.936  41.558   7.874
 2467POPC   C4A35130  36.961  41.662   7.432
 2467POPC   C1B35131  37.318  41.284   8.763
 2467POPC   C2B35132  37.294  41.478   8.353
 2467POPC   C3B35133  37.300  41.235   7.985
 2467POPC   C4B35134  37.301  41.311   7.538
 2468POPC   NC335135  44.452   8.529   9.845
 2468POPC   PO435136  44.618   8.103   9.477
 2468POPC   GL135137  44.671   8.304   9.136
 2468POPC   GL235138  44.818   8.008   8.983
 2468POPC   C1A35139  44.648   8.446   8.746
 2468POPC   D2A35140  44.702   8.137   8.465
 2468POPC   C3A35141  44.613   8.325   8.119
 2468POPC   C4A35142  44.569   8.271   7.721
 2468POPC   C1B35143  44.478   7.763   8.814
 2468POPC   C2B35144  44.305   7.806   8.414
 2468POPC   C3B35145  44.442   7.859   8.025
 2468POPC   C4B35146  44.254   7.893   7.648
 2469POPC   NC335147   0.772  17.572   9.792
 2469POPC   PO435148   1.369  17.496   9.541
 2469POPC   GL135149   1.329  17.419   9.127
 2469POPC   GL235150   1.464  17.096   9.158
 2469POPC   C1A35151   1.138  17.529   8.717
 2469POPC   D2A35152   0.955  17.382   8.291
 2469POPC   C3A35153   1.068  17.555   7.875
 2469POPC   C4A35154   1.253  17.835   7.496
 2469POPC   C1B35155   1.554  17.166   8.725
 2469POPC   C2B35156   1.550  17.037   8.296
 2469POPC   C3B35157   1.524  17.252   7.892
 2469POPC   C4B35158   1.303  17.317   7.512
 2470POPC   NC335159  43.870  20.650   9.960
 2470POPC   PO435160  43.514  20.851   9.492
 2470POPC   GL135161  43.673  20.586   9.187
 2470POPC   GL235162  44.023  20.668   9.189
 2470POPC   C1A35163  43.718  20.692   8.772
 2470POPC   D2A35164  43.892  20.691   8.410
 2470POPC   C3A35165  43.613  20.870   8.149
 2470POPC   C4A35166  43.569  20.723   7.762
 2470POPC   C1B35167  44.256  20.754   8.771
 2470POPC   C2B35168  44.345  20.903   8.351
 2470POPC   C3B35169  44.108  20.820   7.968
 2470POPC   C4B35170  44.192  20.926   7.584
 2471POPC   NC335171   5.215  42.345   9.596
 2471POPC   PO435172   4.778  41.873   9.443
 2471POPC   GL135173   4.953  42.148   9.089
 2471POPC   GL235174   5.010  42.510   9.106
 2471POPC   C1A35175   5.037  42.246   8.660
 2471POPC   D2A35176   5.374  42.337   8.413
 2471POPC   C3A35177   5.253  42.200   8.077
 2471POPC   C4A35178   4.922  42.207   7.789
 2471POPC   C1B35179   5.280  42.702   8.766
 2471POPC   C2B35180   5.236  42.828   8.323
 2471POPC   C3B35181   5.183  42.689   7.881
 2471POPC   C4B35182   5.035  42.581   7.458
 2472POPC   NC335183  38.717  28.991   9.440
 2472POPC   PO435184  39.272  29.350   9.585
 2472POPC   GL135185  39.359  29.258   9.162
 2472POPC   GL235186  39.163  28.981   9.156
 2472POPC   C1A35187  39.302  29.391   8.716
 2472POPC   D2A35188  39.558  29.438   8.333
 2472POPC   C3A35189  39.415  29.184   7.978
 2472POPC   C4A35190  39.296  29.126   7.564
 2472POPC   C1B35191  38.932  29.024   8.798
 2472POPC   C2B35192  38.788  28.797   8.460
 2472POPC   C3B35193  38.845  28.688   8.013
 2472POPC   C4B35194  39.244  28.694   7.838
 2473POPC   NC335195   7.300   0.660   9.500
 2473POPC   PO435196   7.859   0.506   9.132
 2473POPC   GL135197   7.454   0.514   9.019
 2473POPC   GL235198   7.329   0.866   9.030
 2473POPC   C1A35199   7.295   0.325   8.653
 2473POPC   D2A35200   7.135   0.256   8.236
 2473POPC   C3A35201   7.469   0.184   7.913
 2473POPC   C4A35202   7.711   0.177   7.486
 2473POPC   C1B35203   7.570   0.844   8.635
 2473POPC   C2B35204   7.561   0.585   8.256
 2473POPC   C3B35205   7.272   0.667   7.922
 2473POPC   C4B35206   7.121   1.062   7.816
 2474POPC   NC335207  27.930  12.721   9.541
 2474POPC   PO435208  27.445  12.901   9.950
 2474POPC   GL135209  27.503  12.969   9.409
 2474POPC   GL235210  27.325  12.797   9.136
 2474POPC   C1A35211  27.739  13.004   8.960
 2474POPC   D2A35212  27.774  12.731   8.586
 2474POPC   C3A35213  27.775  12.833   8.132
 2474POPC   C4A35214  27.587  12.778   7.717
 2474POPC   C1B35215  27.221  13.108   8.857
 2474POPC   C2B35216  27.123  13.086   8.444
 2474POPC   C3B35217  27.321  13.056   8.088
 2474POPC   C4B35218  27.284  13.230   7.708
 2475POPC   NC335219  10.169  40.022   9.594
 2475POPC   PO435220   9.553  40.298   9.469
 2475POPC   GL135221   9.861  40.153   9.194
 2475POPC   GL235222   9.613  39.919   9.122
 2475POPC   C1A35223  10.004  39.975   8.793
 2475POPC   D2A35224  10.132  39.733   8.442
 2475POPC   C3A35225  10.002  39.821   8.025
 2475POPC   C4A35226  10.027  39.759   7.584
 2475POPC   C1B35227   9.488  40.124   8.762
 2475POPC   C2B35228   9.665  40.021   8.375
 2475POPC   C3B35229   9.524  39.974   7.961
 2475POPC   C4B35230   9.586  40.207   7.578
 2476POPC   NC335231  16.726  16.359   9.477
 2476POPC   PO435232  16.638  16.993   9.584
 2476POPC   GL135233  16.748  16.834   9.214
 2476POPC   GL235234  16.448  16.746   9.138
 2476POPC   C1A35235  16.987  16.831   8.839
 2476POPC   D2A35236  16.839  16.973   8.431
 2476POPC   C3A35237  16.984  16.728   8.104
 2476POPC   C4A35238  16.731  16.834   7.763
 2476POPC   C1B35239  16.495  16.745   8.743
 2476POPC   C2B35240  16.651  16.459   8.445
 2476POPC   C3B35241  16.521  16.441   8.036
 2476POPC   C4B35242  16.402  16.429   7.624
 2477POPC   NC335243  10.784  33.807   9.566
 2477POPC   PO435244  10.160  33.658   9.592
 2477POPC   GL135245  10.370  33.787   9.191
 2477POPC   GL235246  10.744  33.762   9.053
 2477POPC   C1A35247  10.332  33.662   8.753
 2477POPC   D2A35248  10.264  33.908   8.386
 2477POPC   C3A35249  10.335  33.715   8.001
 2477POPC   C4A35250  10.554  33.890   7.671
 2477POPC   C1B35251  10.767  33.881   8.601
 2477POPC   C2B35252  10.773  33.945   8.158
 2477POPC   C3B35253  10.926  33.623   7.859
 2477POPC   C4B35254  10.683  33.236   7.740
 2478POPC   NC335255  29.876   5.239   9.587
 2478POPC   PO435256  30.418   4.845   9.744
 2478POPC   GL135257  29.999   4.858   9.318
 2478POPC   GL235258  29.624   4.978   9.230
 2478POPC   C1A35259  29.991   5.156   8.922
 2478POPC   D2A35260  29.886   5.222   8.476
 2478POPC   C3A35261  30.074   4.952   8.158
 2478POPC   C4A35262  30.210   5.073   7.748
 2478POPC   C1B35263  29.635   4.789   8.806
 2478POPC   C2B35264  29.505   4.817   8.362
 2478POPC   C3B35265  29.604   4.954   7.932
 2478POPC   C4B35266  29.854   4.629   7.787
 2479POPC   NC335267  15.208   5.782   9.504
 2479POPC   PO435268  14.870   6.294   9.209
 2479POPC   GL135269  15.049   6.148   8.931
 2479POPC   GL235270  15.359   6.118   9.081
 2479POPC   C1A35271  14.990   6.054   8.513
 2479POPC   D2A35272  14.982   5.666   8.314
 2479POPC   C3A35273  15.094   5.676   7.889
 2479POPC   C4A35274  15.068   5.360   7.573
 2479POPC   C1B35275  15.380   5.785   8.790
 2479POPC   C2B35276  15.472   5.849   8.372
 2479POPC   C3B35277  15.620   5.691   7.996
 2479POPC   C4B35278  15.492   5.920   7.654
 2480POPC   NC335279  38.023  20.773   9.601
 2480POPC   PO435280  37.464  20.425   9.410
 2480POPC   GL135281  37.844  20.524   9.166
 2480POPC   GL235282  37.899  20.867   9.118
 2480POPC   C1A35283  37.988  20.486   8.730
 2480POPC   D2A35284  37.871  20.227   8.355
 2480POPC   C3A35285  37.879  20.451   7.959
 2480POPC   C4A35286  37.659  20.547   7.587
 2480POPC   C1B35287  37.793  20.967   8.699
 2480POPC   C2B35288  37.655  20.739   8.330
 2480POPC   C3B35289  37.483  20.886   7.943
 2480POPC   C4B35290  37.254  20.845   7.571
 2481POPC   NC335291  43.594  36.152   9.414
 2481POPC   PO435292  44.174  36.471   9.690
 2481POPC   GL135293  44.036  36.401   9.248
 2481POPC   GL235294  43.992  36.054   9.131
 2481POPC   C1A35295  43.874  36.443   8.817
 2481POPC   D2A35296  43.616  36.417   8.460
 2481POPC   C3A35297  43.795  36.356   8.079
 2481POPC   C4A35298  44.064  36.264   7.731
 2481POPC   C1B35299  43.649  35.935   8.806
 2481POPC   C2B35300  43.597  35.724   8.410
 2481POPC   C3B35301  43.495  35.920   8.054
 2481POPC   C4B35302  43.635  35.976   7.668
 2482POPC   NC335303  17.089  40.000   9.529
 2482POPC   PO435304  16.541  39.749   9.574
 2482POPC   GL135305  16.640  39.990   9.176
 2482POPC   GL235306  16.944  40.169   9.064
 2482POPC   C1A35307  16.566  40.058   8.747
 2482POPC   D2A35308  16.792  40.011   8.338
 2482POPC   C3A35309  16.657  40.075   7.904
 2482POPC   C4A35310  16.469  39.937   7.514
 2482POPC   C1B35311  16.954  40.389   8.678
 2482POPC   C2B35312  17.131  40.382   8.274
 2482POPC   C3B35313  17.169  40.084   7.953
 2482POPC   C4B35314  17.035  40.128   7.535
 2483POPC   NC335315  19.816   5.399   9.635
 2483POPC   PO435316  20.355   5.071   9.489
 2483POPC   GL135317  19.957   4.993   9.280
 2483POPC   GL235318  19.932   5.307   9.119
 2483POPC   C1A35319  19.843   4.872   8.850
 2483POPC   D2A35320  19.952   5.112   8.477
 2483POPC   C3A35321  19.792   5.016   8.060
 2483POPC   C4A35322  19.951   4.782   7.725
 2483POPC   C1B35323  19.582   5.320   8.813
 2483POPC   C2B35324  19.499   5.345   8.359
 2483POPC   C3B35325  19.522   5.418   7.906
 2483POPC   C4B35326  19.879   5.312   7.632
 2484POPC   NC335327  13.847   3.178   9.401
 2484POPC   PO435328  13.166   2.863   9.379
 2484POPC   GL135329  13.502   2.990   9.075
 2484POPC   GL235330  13.628   2.629   9.101
 2484POPC   C1A35331  13.874   3.070   8.751
 2484POPC   D2A35332  14.213   2.994   8.446
 2484POPC   C3A35333  14.030   3.050   8.038
 2484POPC   C4A35334  13.940   3.021   7.604
 2484POPC   C1B35335  13.275   2.680   8.768
 2484POPC   C2B35336  13.429   2.962   8.488
 2484POPC   C3B35337  13.418   2.888   8.097
 2484POPC   C4B35338  13.476   2.848   7.690
 2485POPC   NC335339   7.980   3.998   9.472
 2485POPC   PO435340   8.547   4.392   9.608
 2485POPC   GL135341   8.227   4.370   9.237
 2485POPC   GL235342   8.247   4.096   9.051
 2485POPC   C1A35343   7.940   4.434   8.848
 2485POPC   D2A35344   7.831   4.267   8.453
 2485POPC   C3A35345   8.041   4.395   8.089
 2485POPC   C4A35346   7.971   4.242   7.694
 2485POPC   C1B35347   8.436   4.437   8.794
 2485POPC   C2B35348   8.323   4.626   8.446
 2485POPC   C3B35349   8.472   4.695   8.041
 2485POPC   C4B35350   8.271   4.640   7.663
 2486POPC   NC335351  37.404  39.114   9.345
 2486POPC   PO435352  37.956  39.334   9.583
 2486POPC   GL135353  37.836  39.290   9.163
 2486POPC   GL235354  37.983  38.976   9.098
 2486POPC   C1A35355  37.628  39.290   8.764
 2486POPC   D2A35356  37.776  39.328   8.360
 2486POPC   C3A35357  37.480  39.269   8.048
 2486POPC   C4A35358  37.680  39.450   7.686
 2486POPC   C1B35359  37.956  38.911   8.640
 2486POPC   C2B35360  37.766  38.818   8.254
 2486POPC   C3B35361  37.869  38.996   7.857
 2486POPC   C4B35362  37.784  39.061   7.398
 2487POPC   NC335363  27.498  40.024   9.615
 2487POPC   PO435364  28.195  40.130   9.627
 2487POPC   GL135365  27.826  40.218   9.268
 2487POPC   GL235366  27.419  40.149   9.132
 2487POPC   C1A35367  27.810  40.299   8.851
 2487POPC   D2A35368  27.549  40.257   8.515
 2487POPC   C3A35369  27.758  40.243   8.137
 2487POPC   C4A35370  27.426  40.293   7.870
 2487POPC   C1B35371  27.595  39.841   8.816
 2487POPC   C2B35372  27.776  39.786   8.372
 2487POPC   C3B35373  27.605  39.788   7.920
 2487POPC   C4B35374  27.598  39.569   7.487
 2488POPC   NC335375   4.671  31.818   9.529
 2488POPC   PO435376   5.280  32.231   9.552
 2488POPC   GL135377   5.156  32.302   9.154
 2488POPC   GL235378   4.867  32.172   9.183
 2488POPC   C1A35379   5.243  32.179   8.762
 2488POPC   D2A35380   5.106  32.299   8.366
 2488POPC   C3A35381   5.364  32.311   8.019
 2488POPC   C4A35382   5.316  32.023   7.668
 2488POPC   C1B35383   4.708  32.312   8.823
 2488POPC   C2B35384   4.586  32.126   8.459
 2488POPC   C3B35385   4.654  32.323   8.094
 2488POPC   C4B35386   4.876  32.282   7.726
 2489POPC   NC335387  19.112  43.147   9.493
 2489POPC   PO435388  18.795  42.581   9.450
 2489POPC   GL135389  18.938  42.903   9.100
 2489POPC   GL235390  19.045  43.236   8.985
 2489POPC   C1A35391  19.130  42.830   8.713
 2489POPC   D2A35392  18.993  42.725   8.303
 2489POPC   C3A35393  19.015  42.976   7.917
 2489POPC   C4A35394  18.974  42.988   7.442
 2489POPC   C1B35395  19.359  43.303   8.642
 2489POPC   C2B35396  19.376  43.389   8.218
 2489POPC   C3B35397  19.512  43.465   7.815
 2489POPC   C4B35398  19.411  43.316   7.379
 2490POPC   NC335399  29.597   5.796   9.463
 2490POPC   PO435400  28.980   5.961   9.564
 2490POPC   GL135401  29.190   6.056   9.203
 2490POPC   GL235402  29.213   5.703   9.145
 2490POPC   C1A35403  29.076   6.058   8.757
 2490POPC   D2A35404  28.755   5.957   8.413
 2490POPC   C3A35405  28.958   6.044   8.015
 2490POPC   C4A35406  29.411   6.088   7.864
 2490POPC   C1B35407  29.406   5.664   8.749
 2490POPC   C2B35408  29.263   5.811   8.345
 2490POPC   C3B35409  29.216   5.602   7.956
 2490POPC   C4B35410  29.307   5.327   7.635
 2491POPC   NC335411  21.901  29.737   9.405
 2491POPC   PO435412  21.226  29.933   9.545
 2491POPC   GL135413  21.504  29.926   9.146
 2491POPC   GL235414  21.754  30.190   9.220
 2491POPC   C1A35415  21.516  29.932   8.685
 2491POPC   D2A35416  21.537  29.667   8.331
 2491POPC   C3A35417  21.375  29.740   7.938
 2491POPC   C4A35418  21.243  30.187   7.840
 2491POPC   C1B35419  21.929  30.196   8.829
 2491POPC   C2B35420  21.903  30.136   8.416
 2491POPC   C3B35421  21.748  30.079   8.045
 2491POPC   C4B35422  21.695  30.005   7.627
 2492POPC   NC335423  24.851   4.829   9.550
 2492POPC   PO435424  25.474   4.811   9.710
 2492POPC   GL135425  25.387   5.128   9.317
 2492POPC   GL235426  25.073   5.186   9.208
 2492POPC   C1A35427  25.404   5.320   8.852
 2492POPC   D2A35428  25.195   5.390   8.451
 2492POPC   C3A35429  25.391   5.211   8.074
 2492POPC   C4A35430  25.270   5.098   7.651
 2492POPC   C1B35431  25.039   4.911   8.862
 2492POPC   C2B35432  25.190   4.888   8.436
 2492POPC   C3B35433  24.987   4.872   8.028
 2492POPC   C4B35434  25.024   4.631   7.675
 2493POPC   NC335435   0.666  21.198   9.745
 2493POPC   PO435436   0.419  21.727   9.314
 2493POPC   GL135437   0.426  21.414   9.015
 2493POPC   GL235438   0.554  21.069   9.141
 2493POPC   C1A35439   0.555  21.483   8.618
 2493POPC   D2A35440   0.789  21.639   8.310
 2493POPC   C3A35441   0.573  21.477   8.014
 2493POPC   C4A35442   0.277  21.644   7.747
 2493POPC   C1B35443   0.350  20.985   8.747
 2493POPC   C2B35444   0.416  21.069   8.316
 2493POPC   C3B35445   0.585  20.982   7.884
 2493POPC   C4B35446   0.256  20.847   7.630
 2494POPC   NC335447  14.557  21.170   9.442
 2494POPC   PO435448  14.168  21.595   9.636
 2494POPC   GL135449  14.331  21.544   9.212
 2494POPC   GL235450  14.169  21.219   9.101
 2494POPC   C1A35451  14.565  21.414   8.812
 2494POPC   D2A35452  14.599  21.240   8.417
 2494POPC   C3A35453  14.721  21.555   8.141
 2494POPC   C4A35454  14.501  21.715   7.802
 2494POPC   C1B35455  14.394  20.933   8.797
 2494POPC   C2B35456  14.260  20.812   8.409
 2494POPC   C3B35457  14.204  21.071   8.053
 2494POPC   C4B35458  14.390  21.234   7.684
 2495POPC   NC335459   8.572  29.808   9.602
 2495POPC   PO435460   8.011  30.230   9.509
 2495POPC   GL135461   8.335  30.127   9.255
 2495POPC   GL235462   8.237  29.784   9.167
 2495POPC   C1A35463   8.476  30.094   8.839
 2495POPC   D2A35464   8.437  30.041   8.404
 2495POPC   C3A35465   8.500  29.776   8.101
 2495POPC   C4A35466   8.609  30.016   7.742
 2495POPC   C1B35467   8.116  29.778   8.713
 2495POPC   C2B35468   8.015  29.782   8.274
 2495POPC   C3B35469   8.071  30.088   7.969
 2495POPC   C4B35470   7.674  30.315   7.824
 2496POPC   NC335471  32.964  43.961   9.568
 2496POPC   PO435472  32.791  43.352   9.338
 2496POPC   GL135473  32.887  43.728   9.120
 2496POPC   GL235474  32.614  44.008   9.147
 2496POPC   C1A35475  33.064  43.777   8.715
 2496POPC   D2A35476  32.908  43.768   8.288
 2496POPC   C3A35477  33.197  43.783   7.956
 2496POPC   C4A35478  33.400  43.453   7.730
 2496POPC   C1B35479  32.907  44.273   8.878
 2496POPC   C2B35480  33.097  44.219   8.469
 2496POPC   C3B35481  32.965  44.243   8.055
 2496POPC   C4B35482  33.072  44.142   7.617
 2497POPC   NC335483   4.975  32.587   9.538
 2497POPC   PO435484   5.224  33.227   9.473
 2497POPC   GL135485   4.906  33.084   9.199
 2497POPC   GL235486   4.780  33.387   9.056
 2497POPC   C1A35487   4.956  32.773   8.862
 2497POPC   D2A35488   4.798  32.683   8.442
 2497POPC   C3A35489   5.014  32.719   8.009
 2497POPC   C4A35490   5.285  33.002   7.734
 2497POPC   C1B35491   4.957  33.321   8.693
 2497POPC   C2B35492   5.013  33.501   8.281
 2497POPC   C3B35493   4.867  33.247   7.940
 2497POPC   C4B35494   4.876  33.238   7.528
 2498POPC   NC335495  35.092  37.072   9.539
 2498POPC   PO435496  35.555  36.510   9.525
 2498POPC   GL135497  35.506  36.814   9.148
 2498POPC   GL235498  35.281  37.086   9.091
 2498POPC   C1A35499  35.678  37.039   8.796
 2498POPC   D2A35500  35.784  37.234   8.422
 2498POPC   C3A35501  35.616  37.085   8.041
 2498POPC   C4A35502  35.602  36.818   7.690
 2498POPC   C1B35503  35.147  36.845   8.741
 2498POPC   C2B35504  35.181  36.993   8.312
 2498POPC   C3B35505  35.097  36.935   7.868
 2498POPC   C4B35506  34.929  37.255   7.607
 2499POPC   NC335507  29.899  21.357   9.539
 2499POPC   PO435508  30.374  21.861   9.589
 2499POPC   GL135509  30.205  21.605   9.188
 2499POPC   GL235510  29.989  21.271   9.060
 2499POPC   C1A35511  30.087  21.593   8.726
 2499POPC   D2A35512  29.901  21.358   8.409
 2499POPC   C3A35513  29.832  21.560   7.972
 2499POPC   C4A35514  29.783  21.316   7.549
 2499POPC   C1B35515  30.194  21.026   8.729
 2499POPC   C2B35516  30.192  20.905   8.316
 2499POPC   C3B35517  30.034  21.102   7.975
 2499POPC   C4B35518  30.251  21.405   7.711
 2500POPC   NC335519  44.479  11.009   9.757
 2500POPC   PO435520  44.979  11.364   9.425
 2500POPC   GL135521  44.810  11.177   9.082
 2500POPC   GL235522  44.493  11.092   9.253
 2500POPC   C1A35523  44.796  11.381   8.661
 2500POPC   D2A35524  44.670  11.574   8.294
 2500POPC   C3A35525  44.698  11.231   8.041
 2500POPC   C4A35526  44.923  11.059   7.700
 2500POPC   C1B35527  44.358  11.199   8.844
 2500POPC   C2B35528  44.291  11.268   8.424
 2500POPC   C3B35529  44.178  11.233   7.987
 2500POPC   C4B35530  44.430  11.276   7.601
 2501POPC   NC335531   4.408   4.658   9.960
 2501POPC   PO435532   4.787   5.111   9.577
 2501POPC   GL135533   4.456   5.189   9.246
 2501POPC   GL235534   4.700   5.330   9.063
 2501POPC   C1A35535   4.190   5.141   8.878
 2501POPC   D2A35536   4.300   5.154   8.432
 2501POPC   C3A35537   4.107   5.094   8.034
 2501POPC   C4A35538   4.270   5.132   7.636
 2501POPC   C1B35539   4.659   4.935   8.836
 2501POPC   C2B35540   4.671   4.794   8.417
 2501POPC   C3B35541   4.605   4.968   8.039
 2501POPC   C4B35542   4.787   4.920   7.655
 2502POPC   NC335543  25.851   4.962   9.494
 2502POPC   PO435544  26.368   5.267   9.639
 2502POPC   GL135545  26.311   5.007   9.264
 2502POPC   GL235546  26.199   5.314   9.132
 2502POPC   C1A35547  26.114   4.897   8.850
 2502POPC   D2A35548  26.258   5.058   8.447
 2502POPC   C3A35549  25.993   4.979   8.070
 2502POPC   C4A35550  26.027   4.836   7.634
 2502POPC   C1B35551  26.417   5.590   8.827
 2502POPC   C2B35552  26.538   5.511   8.413
 2502POPC   C3B35553  26.262   5.469   8.068
 2502POPC   C4B35554  26.329   5.229   7.725
 2503POPC   NC335555  12.032  25.345   9.939
 2503POPC   PO435556  12.390  25.087   9.470
 2503POPC   GL135557  12.329  25.198   9.074
 2503POPC   GL235558  11.985  25.315   9.039
 2503POPC   C1A35559  12.289  25.284   8.630
 2503POPC   D2A35560  11.977  25.211   8.301
 2503POPC   C3A35561  12.017  25.503   7.955
 2503POPC   C4A35562  12.374  25.656   7.714
 2503POPC   C1B35563  11.689  25.034   8.791
 2503POPC   C2B35564  11.741  24.763   8.422
 2503POPC   C3B35565  11.673  24.905   8.011
 2503POPC   C4B35566  12.039  25.027   7.794
 2504POPC   NC335567  24.391  41.835   9.660
 2504POPC   PO435568  24.893  41.605   9.539
 2504POPC   GL135569  24.669  41.783   9.215
 2504POPC   GL235570  24.352  41.583   9.109
 2504POPC   C1A35571  24.671  41.859   8.792
 2504POPC   D2A35572  24.550  41.597   8.457
 2504POPC   C3A35573  24.689  41.797   8.091
 2504POPC   C4A35574  24.816  41.647   7.698
 2504POPC   C1B35575  24.120  41.721   8.711
 2504POPC   C2B35576  24.084  41.641   8.251
 2504POPC   C3B35577  24.293  41.525   7.886
 2504POPC   C4B35578  24.375  41.903   7.685
 2505POPC   NC335579  17.220  18.775   9.468
 2505POPC   PO435580  17.632  19.301   9.615
 2505POPC   GL135581  17.630  19.046   9.226
 2505POPC   GL235582  17.299  19.159   9.139
 2505POPC   C1A35583  17.694  19.132   8.767
 2505POPC   D2A35584  17.930  19.278   8.387
 2505POPC   C3A35585  17.802  19.029   8.023
 2505POPC   C4A35586  17.627  18.977   7.616
 2505POPC   C1B35587  17.252  18.846   8.793
 2505POPC   C2B35588  17.454  18.791   8.398
 2505POPC   C3B35589  17.320  18.840   7.970
 2505POPC   C4B35590  17.236  18.629   7.524
 2506POPC   NC335591  15.988   6.400   9.606
 2506POPC   PO435592  15.636   6.911   9.387
 2506POPC   GL135593  15.708   6.535   9.164
 2506POPC   GL235594  16.029   6.488   9.109
 2506POPC   C1A35595  15.767   6.693   8.738
 2506POPC   D2A35596  16.002   6.787   8.394
 2506POPC   C3A35597  15.896   6.730   7.968
 2506POPC   C4A35598  15.818   6.934   7.574
 2506POPC   C1B35599  16.204   6.372   8.686
 2506POPC   C2B35600  16.241   6.361   8.243
 2506POPC   C3B35601  16.336   6.483   7.845
 2506POPC   C4B35602  16.152   6.589   7.430
 2507POPC   NC335603  41.177  23.883   9.437
 2507POPC   PO435604  40.489  23.744   9.515
 2507POPC   GL135605  40.735  23.805   9.153
 2507POPC   GL235606  41.002  24.019   8.990
 2507POPC   C1A35607  40.619  23.837   8.735
 2507POPC   D2A35608  40.802  23.579   8.428
 2507POPC   C3A35609  40.697  23.758   8.056
 2507POPC   C4A35610  40.668  23.853   7.644
 2507POPC   C1B35611  41.123  23.615   8.815
 2507POPC   C2B35612  41.340  23.588   8.430
 2507POPC   C3B35613  41.201  23.815   8.089
 2507POPC   C4B35614  41.158  23.754   7.666
 2508POPC   NC335615  34.128  29.054   9.772
 2508POPC   PO435616  33.597  29.335   9.457
 2508POPC   GL135617  33.677  29.098   9.127
 2508POPC   GL235618  33.379  29.118   8.992
 2508POPC   C1A35619  33.785  29.192   8.687
 2508POPC   D2A35620  33.756  29.498   8.379
 2508POPC   C3A35621  33.958  29.347   8.043
 2508POPC   C4A35622  33.771  28.968   7.967
 2508POPC   C1B35623  33.375  29.508   8.768
 2508POPC   C2B35624  33.237  29.515   8.347
 2508POPC   C3B35625  33.452  29.437   7.938
 2508POPC   C4B35626  33.436  29.521   7.472
 2509POPC   NC335627  37.894  40.531   9.589
 2509POPC   PO435628  37.558  41.152   9.355
 2509POPC   GL135629  37.648  40.761   9.162
 2509POPC   GL235630  37.975  40.671   9.121
 2509POPC   C1A35631  37.720  40.862   8.728
 2509POPC   D2A35632  37.607  41.075   8.375
 2509POPC   C3A35633  37.603  40.827   8.018
 2509POPC   C4A35634  37.969  40.732   7.783
 2509POPC   C1B35635  37.991  40.440   8.751
 2509POPC   C2B35636  37.897  40.566   8.349
 2509POPC   C3B35637  38.014  40.274   8.069
 2509POPC   C4B35638  37.949  40.235   7.644
 2510POPC   NC335639  32.734   9.978   9.421
 2510POPC   PO435640  32.645   9.375   9.284
 2510POPC   GL135641  32.838   9.681   9.003
 2510POPC   GL235642  33.147   9.885   9.114
 2510POPC   C1A35643  32.827  10.073   8.767
 2510POPC   D2A35644  32.940  10.056   8.364
 2510POPC   C3A35645  33.070   9.732   8.152
 2510POPC   C4A35646  32.962   9.799   7.747
 2510POPC   C1B35647  33.290   9.844   8.665
 2510POPC   C2B35648  33.466  10.029   8.247
 2510POPC   C3B35649  33.462   9.809   7.814
 2510POPC   C4B35650  33.375   9.950   7.372
 2511POPC   NC335651  44.357  43.536   9.561
 2511POPC   PO435652  44.981  43.957   9.632
 2511POPC   GL135653  44.820  43.938   9.198
 2511POPC   GL235654  44.456  43.883   9.179
 2511POPC   C1A35655  44.714  43.990   8.748
 2511POPC   D2A35656  44.836  43.789   8.369
 2511POPC   C3A35657  44.696  43.834   7.933
 2511POPC   C4A35658  44.623  44.059   7.541
 2511POPC   C1B35659  44.387  43.612   8.816
 2511POPC   C2B35660  44.324  43.619   8.348
 2511POPC   C3B35661  44.367  43.435   7.906
 2511POPC   C4B35662  44.556  43.545   7.494
 2512POPC   NC335663  26.399  16.149   9.650
 2512POPC   PO435664  26.114  15.541   9.544
 2512POPC   GL135665  26.216  15.842   9.290
 2512POPC   GL235666  25.891  15.868   9.152
 2512POPC   C1A35667  26.316  15.880   8.868
 2512POPC   D2A35668  26.122  16.011   8.495
 2512POPC   C3A35669  26.151  15.741   8.162
 2512POPC   C4A35670  26.198  16.031   7.814
 2512POPC   C1B35671  25.825  15.687   8.738
 2512POPC   C2B35672  25.656  15.814   8.356
 2512POPC   C3B35673  25.714  15.931   7.964
 2512POPC   C4B35674  25.843  15.639   7.702
 2513POPC   NC335675  13.881   7.228   9.479
 2513POPC   PO435676  13.433   7.769   9.605
 2513POPC   GL135677  13.505   7.487   9.253
 2513POPC   GL235678  13.340   7.269   9.010
 2513POPC   C1A35679  13.799   7.535   8.901
 2513POPC   D2A35680  13.556   7.440   8.520
 2513POPC   C3A35681  13.662   7.460   8.092
 2513POPC   C4A35682  13.583   7.282   7.697
 2513POPC   C1B35683  13.737   7.053   8.803
 2513POPC   C2B35684  13.751   6.839   8.419
 2513POPC   C3B35685  13.754   6.942   8.015
 2513POPC   C4B35686  13.952   6.883   7.612
 2514POPC   NC335687  33.231  42.493   9.706
 2514POPC   PO435688  32.819  42.006   9.588
 2514POPC   GL135689  33.014  42.251   9.285
 2514POPC   GL235690  32.840  42.566   9.353
 2514POPC   C1A35691  33.206  42.271   8.888
 2514POPC   D2A35692  33.126  42.444   8.490
 2514POPC   C3A35693  33.251  42.341   8.091
 2514POPC   C4A35694  33.098  42.462   7.696
 2514POPC   C1B35695  32.828  42.674   8.897
 2514POPC   C2B35696  32.698  42.724   8.459
 2514POPC   C3B35697  32.729  42.507   8.103
 2514POPC   C4B35698  32.593  42.505   7.714
 2515POPC   NC335699  22.021  12.101   9.539
 2515POPC   PO435700  21.776  11.615   9.420
 2515POPC   GL135701  21.992  11.885   9.076
 2515POPC   GL235702  22.278  12.139   9.093
 2515POPC   C1A35703  21.948  12.173   8.723
 2515POPC   D2A35704  22.104  12.064   8.322
 2515POPC   C3A35705  22.081  12.237   7.896
 2515POPC   C4A35706  22.198  12.181   7.462
 2515POPC   C1B35707  22.476  12.217   8.670
 2515POPC   C2B35708  22.473  12.412   8.223
 2515POPC   C3B35709  22.603  12.307   7.774
 2515POPC   C4B35710  22.570  12.506   7.340
 2516POPC   NC335711  14.702   2.662   9.460
 2516POPC   PO435712  15.178   3.104   9.433
 2516POPC   GL135713  15.288   2.977   9.050
 2516POPC   GL235714  15.523   2.672   8.963
 2516POPC   C1A35715  15.161   2.896   8.659
 2516POPC   D2A35716  15.226   3.130   8.315
 2516POPC   C3A35717  15.063   3.005   7.936
 2516POPC   C4A35718  15.333   2.747   7.736
 2516POPC   C1B35719  15.371   2.404   8.672
 2516POPC   C2B35720  15.222   2.540   8.293
 2516POPC   C3B35721  15.078   2.372   7.960
 2516POPC   C4B35722  15.316   2.263   7.601
 2517POPC   NC335723  23.899  28.659   9.580
 2517POPC   PO435724  24.564  28.439   9.513
 2517POPC   GL135725  24.626  28.253   9.115
 2517POPC   GL235726  24.308  28.407   9.022
 2517POPC   C1A35727  24.513  28.089   8.690
 2517POPC   D2A35728  24.191  28.276   8.401
 2517POPC   C3A35729  24.339  28.195   7.986
 2517POPC   C4A35730  24.646  27.951   7.756
 2517POPC   C1B35731  24.645  28.604   8.762
 2517POPC   C2B35732  24.821  28.429   8.403
 2517POPC   C3B35733  24.803  28.584   8.000
 2517POPC   C4B35734  24.605  28.471   7.649
 2518POPC   NC335735  25.713   8.872   9.512
 2518POPC   PO435736  26.341   9.212   9.622
 2518POPC   GL135737  26.077   9.154   9.227
 2518POPC   GL235738  26.109   8.777   9.159
 2518POPC   C1A35739  26.214   9.074   8.768
 2518POPC   D2A35740  26.365   8.885   8.395
 2518POPC   C3A35741  26.249   9.177   8.081
 2518POPC   C4A35742  26.116   9.096   7.674
 2518POPC   C1B35743  25.811   8.765   8.790
 2518POPC   C2B35744  25.799   9.007   8.427
 2518POPC   C3B35745  25.731   9.040   8.003
 2518POPC   C4B35746  25.748   8.701   7.722
 2519POPC   NC335747  20.790   5.284   9.461
 2519POPC   PO435748  20.956   4.802   9.821
 2519POPC   GL135749  20.779   4.783   9.329
 2519POPC   GL235750  20.576   5.076   9.051
 2519POPC   C1A35751  20.781   4.684   8.880
 2519POPC   D2A35752  20.509   4.841   8.560
 2519POPC   C3A35753  20.674   4.871   8.140
 2519POPC   C4A35754  20.415   4.981   7.778
 2519POPC   C1B35755  20.898   5.162   8.694
 2519POPC   C2B35756  20.942   5.311   8.243
 2519POPC   C3B35757  20.850   5.302   7.793
 2519POPC   C4B35758  20.888   5.549   7.398
 2520POPC   NC335759  42.599  36.245   9.376
 2520POPC   PO435760  42.190  35.764   9.638
 2520POPC   GL135761  42.117  35.928   9.199
 2520POPC   GL235762  42.175  36.229   9.105
 2520POPC   C1A35763  42.328  35.945   8.738
 2520POPC   D2A35764  42.267  36.183   8.362
 2520POPC   C3A35765  42.191  35.906   8.030
 2520POPC   C4A35766  42.426  35.725   7.700
 2520POPC   C1B35767  41.956  36.336   8.752
 2520POPC   C2B35768  41.861  36.524   8.354
 2520POPC   C3B35769  42.020  36.411   7.980
 2520POPC   C4B35770  42.287  36.260   7.680
 2521POPC   NC335771  39.571  32.510   9.501
 2521POPC   PO435772  40.161  32.106   9.428
 2521POPC   GL135773  40.124  32.057   9.026
 2521POPC   GL235774  39.787  32.009   9.068
 2521POPC   C1A35775  40.090  32.157   8.596
 2521POPC   D2A35776  39.950  31.895   8.263
 2521POPC   C3A35777  40.067  32.052   7.868
 2521POPC   C4A35778  40.166  32.504   7.773
 2521POPC   C1B35779  39.659  32.365   8.808
 2521POPC   C2B35780  39.786  32.541   8.390
 2521POPC   C3B35781  39.684  32.565   7.938
 2521POPC   C4B35782  39.764  32.780   7.514
 2522POPC   NC335783   1.395  10.669   9.340
 2522POPC   PO435784   1.191  10.043   9.612
 2522POPC   GL135785   0.929  10.249   9.164
 2522POPC   GL235786   0.978  10.608   9.061
 2522POPC   C1A35787   0.947  10.184   8.689
 2522POPC   D2A35788   1.118  10.108   8.227
 2522POPC   C3A35789   1.286  10.302   7.816
 2522POPC   C4A35790   1.082  10.525   7.453
 2522POPC   C1B35791   1.246  10.615   8.666
 2522POPC   C2B35792   1.269  10.633   8.217
 2522POPC   C3B35793   1.276  10.822   7.819
 2522POPC   C4B35794   1.412  10.938   7.385
 2523POPC   NC335795  11.994  13.605   9.673
 2523POPC   PO435796  12.491  13.447   9.512
 2523POPC   GL135797  12.302  13.723   9.191
 2523POPC   GL235798  11.943  13.757   9.161
 2523POPC   C1A35799  12.242  13.727   8.720
 2523POPC   D2A35800  12.093  13.409   8.386
 2523POPC   C3A35801  12.051  13.431   7.902
 2523POPC   C4A35802  12.214  13.253   7.470
 2523POPC   C1B35803  11.730  13.632   8.742
 2523POPC   C2B35804  11.728  13.755   8.293
 2523POPC   C3B35805  11.607  13.696   7.857
 2523POPC   C4B35806  11.755  13.804   7.423
 2524POPC   NC335807  31.832  35.118   9.526
 2524POPC   PO435808  31.429  35.649   9.500
 2524POPC   GL135809  31.424  35.447   9.088
 2524POPC   GL235810  31.726  35.407   9.116
 2524POPC   C1A35811  31.292  35.273   8.708
 2524POPC   D2A35812  31.408  35.050   8.334
 2524POPC   C3A35813  31.369  35.289   7.955
 2524POPC   C4A35814  31.066  35.522   7.711
 2524POPC   C1B35815  31.788  35.197   8.741
 2524POPC   C2B35816  31.893  35.263   8.324
 2524POPC   C3B35817  31.798  34.991   7.977
 2524POPC   C4B35818  31.476  34.849   7.696
 2525POPC   NC335819  36.116  34.469   9.324
 2525POPC   PO435820  36.769  34.819   9.379
 2525POPC   GL135821  36.493  34.696   9.067
 2525POPC   GL235822  36.192  34.887   8.992
 2525POPC   C1A35823  36.379  34.564   8.654
 2525POPC   D2A35824  36.221  34.535   8.263
 2525POPC   C3A35825  36.294  34.168   8.041
 2525POPC   C4A35826  36.054  34.197   7.687
 2525POPC   C1B35827  35.871  34.697   8.736
 2525POPC   C2B35828  35.750  34.732   8.329
 2525POPC   C3B35829  35.909  34.703   7.887
 2525POPC   C4B35830  35.708  34.864   7.504
 2526POPC   NC335831  42.038  14.832   9.641
 2526POPC   PO435832  41.446  15.235   9.350
 2526POPC   GL135833  41.650  15.117   9.007
 2526POPC   GL235834  41.970  14.984   9.139
 2526POPC   C1A35835  41.632  15.232   8.610
 2526POPC   D2A35836  41.871  15.290   8.265
 2526POPC   C3A35837  41.540  15.251   8.064
 2526POPC   C4A35838  41.404  15.348   7.729
 2526POPC   C1B35839  42.088  15.099   8.753
 2526POPC   C2B35840  41.998  14.832   8.435
 2526POPC   C3B35841  41.810  14.740   8.085
 2526POPC   C4B35842  41.550  14.815   7.785
 2527POPC   NC335843  15.225  42.605   9.270
 2527POPC   PO435844  14.945  41.973   9.360
 2527POPC   GL135845  15.104  42.171   9.028
 2527POPC   GL235846  15.435  42.061   9.069
 2527POPC   C1A35847  14.917  42.242   8.634
 2527POPC   D2A35848  14.804  41.985   8.281
 2527POPC   C3A35849  15.024  42.132   7.915
 2527POPC   C4A35850  15.085  42.566   7.837
 2527POPC   C1B35851  15.515  42.358   8.706
 2527POPC   C2B35852  15.430  42.770   8.462
 2527POPC   C3B35853  15.512  42.788   8.031
 2527POPC   C4B35854  15.600  42.364   7.824
 2528POPC   NC335855  43.621  20.178   9.487
 2528POPC   PO435856  43.985  19.585   9.495
 2528POPC   GL135857  43.916  19.830   9.156
 2528POPC   GL235858  44.058  20.140   9.208
 2528POPC   C1A35859  43.747  19.802   8.744
 2528POPC   D2A35860  43.544  19.560   8.419
 2528POPC   C3A35861  43.651  19.769   8.023
 2528POPC   C4A35862  43.939  19.857   7.663
 2528POPC   C1B35863  44.016  20.286   8.808
 2528POPC   C2B35864  43.915  20.172   8.398
 2528POPC   C3B35865  43.812  20.326   7.999
 2528POPC   C4B35866  43.530  20.177   7.690
 2529POPC   NC335867  13.869  19.990   9.484
 2529POPC   PO435868  13.479  19.364   9.412
 2529POPC   GL135869  13.437  19.837   9.184
 2529POPC   GL235870  13.743  20.008   9.008
 2529POPC   C1A35871  13.318  20.105   8.793
 2529POPC   D2A35872  13.635  20.069   8.441
 2529POPC   C3A35873  13.674  19.951   7.971
 2529POPC   C4A35874  13.980  19.871   7.562
 2529POPC   C1B35875  13.660  19.660   8.748
 2529POPC   C2B35876  13.712  19.562   8.305
 2529POPC   C3B35877  13.836  19.465   7.858
 2529POPC   C4B35878  13.543  19.186   7.592
 2530POPC   NC335879  14.096  11.069   9.475
 2530POPC   PO435880  14.532  11.578   9.674
 2530POPC   GL135881  14.484  11.424   9.257
 2530POPC   GL235882  14.125  11.538   9.200
 2530POPC   C1A35883  14.519  11.197   8.855
 2530POPC   D2A35884  14.654  11.039   8.433
 2530POPC   C3A35885  14.567  11.290   8.025
 2530POPC   C4A35886  14.667  11.539   7.649
 2530POPC   C1B35887  14.355  11.720   8.854
 2530POPC   C2B35888  14.426  11.570   8.438
 2530POPC   C3B35889  14.159  11.586   8.075
 2530POPC   C4B35890  14.164  11.736   7.684
 2531POPC   NC335891   5.896  41.805   9.609
 2531POPC   PO435892   5.811  41.213   9.832
 2531POPC   GL135893   6.046  41.444   9.319
 2531POPC   GL235894   6.296  41.236   9.140
 2531POPC   C1A35895   5.852  41.572   8.900
 2531POPC   D2A35896   5.755  41.368   8.516
 2531POPC   C3A35897   5.856  41.525   8.111
 2531POPC   C4A35898   5.635  41.483   7.714
 2531POPC   C1B35899   6.264  41.336   8.712
 2531POPC   C2B35900   6.442  41.435   8.319
 2531POPC   C3B35901   6.345  41.267   7.927
 2531POPC   C4B35902   6.143  41.541   7.650
 2532POPC   NC335903  42.149   1.327   9.380
 2532POPC   PO435904  42.741   1.601   9.484
 2532POPC   GL135905  42.570   1.422   9.103
 2532POPC   GL235906  42.601   1.073   9.124
 2532POPC   C1A35907  42.296   1.307   8.746
 2532POPC   D2A35908  42.184   1.136   8.363
 2532POPC   C3A35909  42.279   1.366   8.005
 2532POPC   C4A35910  42.278   1.261   7.578
 2532POPC   C1B35911  42.627   0.926   8.675
 2532POPC   C2B35912  42.600   0.817   8.253
 2532POPC   C3B35913  42.641   0.974   7.820
 2532POPC   C4B35914  42.695   0.990   7.341
 2533POPC   NC335915  10.237   3.423   9.448
 2533POPC   PO435916  10.761   3.838   9.310
 2533POPC   GL135917  10.568   3.559   9.092
 2533POPC   GL235918  10.260   3.730   9.014
 2533POPC   C1A35919  10.673   3.591   8.690
 2533POPC   D2A35920  10.523   3.773   8.353
 2533POPC   C3A35921  10.697   3.584   8.004
 2533POPC   C4A35922  10.449   3.595   7.677
 2533POPC   C1B35923  10.222   3.356   8.728
 2533POPC   C2B35924  10.368   3.291   8.283
 2533POPC   C3B35925  10.247   3.167   7.864
 2533POPC   C4B35926  10.421   3.132   7.446
 2534POPC   NC335927  12.594  10.439   9.464
 2534POPC   PO435928  13.298  10.340   9.449
 2534POPC   GL135929  12.960  10.370   9.130
 2534POPC   GL235930  12.641  10.169   9.023
 2534POPC   C1A35931  12.844  10.662   8.788
 2534POPC   D2A35932  13.062  10.799   8.392
 2534POPC   C3A35933  12.899  10.664   7.968
 2534POPC   C4A35934  12.997  10.529   7.568
 2534POPC   C1B35935  12.846  10.162   8.657
 2534POPC   C2B35936  12.706  10.385   8.339
 2534POPC   C3B35937  12.597  10.239   7.947
 2534POPC   C4B35938  12.746  10.051   7.589
 2535POPC   NC335939  14.824  11.191   9.609
 2535POPC   PO435940  15.312  11.640   9.484
 2535POPC   GL135941  15.141  11.478   9.139
 2535POPC   GL235942  14.953  11.152   9.132
 2535POPC   C1A35943  15.341  11.575   8.738
 2535POPC   D2A35944  15.477  11.316   8.427
 2535POPC   C3A35945  15.359  11.335   8.042
 2535POPC   C4A35946  15.489  11.603   7.734
 2535POPC   C1B35947  15.103  11.111   8.741
 2535POPC   C2B35948  15.150  10.898   8.373
 2535POPC   C3B35949  14.971  10.996   8.003
 2535POPC   C4B35950  15.060  11.226   7.635
 2536POPC   NC335951  35.887  21.532   9.725
 2536POPC   PO435952  36.368  21.136   9.740
 2536POPC   GL135953  36.220  21.344   9.354
 2536POPC   GL235954  36.491  21.529   9.182
 2536POPC   C1A35955  36.130  21.243   8.896
 2536POPC   D2A35956  36.275  21.167   8.476
 2536POPC   C3A35957  36.099  21.381   8.138
 2536POPC   C4A35958  36.039  21.220   7.759
 2536POPC   C1B35959  36.598  21.435   8.770
 2536POPC   C2B35960  36.574  21.600   8.365
 2536POPC   C3B35961  36.572  21.440   7.947
 2536POPC   C4B35962  36.419  21.544   7.559
 2537POPC   NC335963   2.601  14.131   9.465
 2537POPC   PO435964   3.029  14.583   9.602
 2537POPC   GL135965   2.936  14.382   9.167
 2537POPC   GL235966   2.560  14.338   9.012
 2537POPC   C1A35967   2.947  14.445   8.717
 2537POPC   D2A35968   2.825  14.612   8.338
 2537POPC   C3A35969   2.899  14.320   8.031
 2537POPC   C4A35970   2.679  14.522   7.727
 2537POPC   C1B35971   2.570  14.025   8.665
 2537POPC   C2B35972   2.577  13.923   8.219
 2537POPC   C3B35973   2.324  14.142   7.904
 2537POPC   C4B35974   2.377  14.241   7.446
 2538POPC   NC335975   8.891  16.864   9.658
 2538POPC   PO435976   9.461  16.882   9.677
 2538POPC   GL135977   9.246  16.785   9.248
 2538POPC   GL235978   8.901  16.622   9.192
 2538POPC   C1A35979   9.194  16.782   8.767
 2538POPC   D2A35980   9.127  16.543   8.352
 2538POPC   C3A35981   8.966  16.735   7.974
 2538POPC   C4A35982   8.928  17.169   7.876
 2538POPC   C1B35983   8.728  16.580   8.729
 2538POPC   C2B35984   8.552  16.569   8.271
 2538POPC   C3B35985   8.612  16.391   7.836
 2538POPC   C4B35986   8.949  16.428   7.530
 2539POPC   NC335987  42.967   8.362   9.490
 2539POPC   PO435988  43.361   7.799   9.421
 2539POPC   GL135989  43.200   8.079   9.102
 2539POPC   GL235990  43.385   8.383   9.097
 2539POPC   C1A35991  43.181   8.164   8.656
 2539POPC   D2A35992  42.944   8.013   8.306
 2539POPC   C3A35993  43.049   8.027   7.854
 2539POPC   C4A35994  42.913   8.354   7.601
 2539POPC   C1B35995  43.362   8.632   8.682
 2539POPC   C2B35996  43.206   8.513   8.253
 2539POPC   C3B35997  43.309   8.552   7.824
 2539POPC   C4B35998  43.282   8.519   7.330
 2540POPC   NC335999   3.767   6.066   9.464
 2540POPC   PO436000   3.096   6.032   9.420
 2540POPC   GL136001   3.373   5.734   9.138
 2540POPC   GL236002   3.756   5.805   9.041
 2540POPC   C1A36003   3.469   5.605   8.672
 2540POPC   D2A36004   3.351   5.808   8.267
 2540POPC   C3A36005   3.401   5.666   7.809
 2540POPC   C4A36006   3.329   5.629   7.337
 2540POPC   C1B36007   4.045   5.957   8.712
 2540POPC   C2B36008   4.066   5.792   8.310
 2540POPC   C3B36009   3.854   5.852   7.937
 2540POPC   C4B36010   3.772   5.829   7.482
 2541POPC   NC336011  20.448   2.417   9.460
 2541POPC   PO436012  20.336   1.732   9.460
 2541POPC   GL136013  20.445   2.038   9.098
 2541POPC   GL236014  20.598   2.409   8.976
 2541POPC   C1A36015  20.624   1.959   8.715
 2541POPC   D2A36016  20.529   1.696   8.388
 2541POPC   C3A36017  20.619   1.869   7.988
 2541POPC   C4A36018  20.387   1.906   7.652
 2541POPC   C1B36019  20.288   2.371   8.722
 2541POPC   C2B36020  20.375   2.206   8.327
 2541POPC   C3B36021  20.421   2.327   7.938
 2541POPC   C4B36022  20.865   2.362   7.969
 2542POPC   NC336023  17.935  13.723   9.566
 2542POPC   PO436024  17.309  13.419   9.839
 2542POPC   GL136025  17.366  13.533   9.276
 2542POPC   GL236026  17.644  13.679   9.101
 2542POPC   C1A36027  17.234  13.735   8.835
 2542POPC   D2A36028  17.545  13.710   8.470
 2542POPC   C3A36029  17.514  13.899   8.038
 2542POPC   C4A36030  17.452  13.726   7.596
 2542POPC   C1B36031  17.493  13.309   8.817
 2542POPC   C2B36032  17.414  13.201   8.384
 2542POPC   C3B36033  17.541  13.391   7.981
 2542POPC   C4B36034  17.761  13.345   7.575
 2543POPC   NC336035  11.929  24.976   9.414
 2543POPC   PO436036  12.303  24.315   9.480
 2543POPC   GL136037  11.918  24.468   9.289
 2543POPC   GL236038  12.179  24.655   9.125
 2543POPC   C1A36039  11.782  24.413   8.850
 2543POPC   D2A36040  11.769  24.177   8.448
 2543POPC   C3A36041  12.035  24.389   8.127
 2543POPC   C4A36042  11.959  24.512   7.703
 2543POPC   C1B36043  12.142  24.814   8.774
 2543POPC   C2B36044  12.256  24.778   8.400
 2543POPC   C3B36045  12.433  24.811   8.039
 2543POPC   C4B36046  12.447  24.657   7.679
 2544POPC   NC336047  42.830  31.294   9.504
 2544POPC   PO436048  43.286  31.757   9.505
 2544POPC   GL136049  42.959  31.675   9.182
 2544POPC   GL236050  43.129  31.367   9.095
 2544POPC   C1A36051  42.809  31.527   8.760
 2544POPC   D2A36052  42.823  31.674   8.379
 2544POPC   C3A36053  43.149  31.569   8.112
 2544POPC   C4A36054  42.966  31.465   7.773
 2544POPC   C1B36055  43.296  31.173   8.737
 2544POPC   C2B36056  43.453  31.209   8.302
 2544POPC   C3B36057  43.422  31.209   7.828
 2544POPC   C4B36058  43.512  31.071   7.399
 2545POPC   NC336059  25.967   0.777   9.455
 2545POPC   PO436060  26.418   0.289   9.641
 2545POPC   GL136061  26.344   0.365   9.185
 2545POPC   GL236062  26.031   0.528   9.031
 2545POPC   C1A36063  26.235   0.184   8.746
 2545POPC   D2A36064  26.014   0.443   8.422
 2545POPC   C3A36065  26.078   0.367   7.988
 2545POPC   C4A36066  26.313   0.614   7.697
 2545POPC   C1B36067  25.692   0.667   8.766
 2545POPC   C2B36068  25.581   0.803   8.371
 2545POPC   C3B36069  25.591   0.601   7.987
 2545POPC   C4B36070  25.817   0.745   7.634
 2546POPC   NC336071   7.669  30.566   9.489
 2546POPC   PO436072   7.155  31.018   9.504
 2546POPC   GL136073   7.371  30.967   9.086
 2546POPC   GL236074   7.456  30.608   9.027
 2546POPC   C1A36075   7.376  30.875   8.612
 2546POPC   D2A36076   7.416  30.495   8.358
 2546POPC   C3A36077   7.240  30.532   7.964
 2546POPC   C4A36078   7.131  30.811   7.662
 2546POPC   C1B36079   7.794  30.620   8.682
 2546POPC   C2B36080   7.860  30.994   8.396
 2546POPC   C3B36081   7.912  31.007   7.955
 2546POPC   C4B36082   7.651  30.831   7.663
 2547POPC   NC336083  24.371   9.561   9.541
 2547POPC   PO436084  24.960   9.740   9.486
 2547POPC   GL136085  24.735   9.547   9.136
 2547POPC   GL236086  24.368   9.650   9.053
 2547POPC   C1A36087  24.736   9.742   8.723
 2547POPC   D2A36088  24.809   9.985   8.353
 2547POPC   C3A36089  24.646   9.793   7.958
 2547POPC   C4A36090  24.502   9.401   7.772
 2547POPC   C1B36091  24.229   9.696   8.614
 2547POPC   C2B36092  24.194   9.648   8.174
 2547POPC   C3B36093  24.119   9.731   7.743
 2547POPC   C4B36094  24.159   9.545   7.365
 2548POPC   NC336095   3.328   7.797   9.365
 2548POPC   PO436096   3.743   7.383   9.689
 2548POPC   GL136097   3.795   7.334   9.193
 2548POPC   GL236098   3.471   7.399   9.067
 2548POPC   C1A36099   3.847   7.321   8.729
 2548POPC   D2A36100   3.603   7.067   8.414
 2548POPC   C3A36101   3.458   7.289   8.039
 2548POPC   C4A36102   3.733   7.502   7.712
 2548POPC   C1B36103   3.242   7.369   8.667
 2548POPC   C2B36104   3.200   7.679   8.339
 2548POPC   C3B36105   3.155   7.856   7.957
 2548POPC   C4B36106   3.244   7.539   7.645
 2549POPC   NC336107  12.891  39.014   9.384
 2549POPC   PO436108  12.718  39.498   9.754
 2549POPC   GL136109  12.664  39.473   9.255
 2549POPC   GL236110  12.996  39.373   9.047
 2549POPC   C1A36111  12.549  39.483   8.819
 2549POPC   D2A36112  12.852  39.328   8.535
 2549POPC   C3A36113  12.798  39.236   8.068
 2549POPC   C4A36114  13.035  39.325   7.763
 2549POPC   C1B36115  13.092  38.952   8.777
 2549POPC   C2B36116  12.948  38.861   8.355
 2549POPC   C3B36117  13.200  38.884   7.953
 2549POPC   C4B36118  13.210  38.840   7.480
 2550POPC   NC336119  28.945  28.063   9.644
 2550POPC   PO436120  29.392  28.554   9.489
 2550POPC   GL136121  29.200  28.496   9.137
 2550POPC   GL236122  28.979  28.313   9.204
 2550POPC   C1A36123  29.319  28.510   8.741
 2550POPC   D2A36124  29.147  28.332   8.391
 2550POPC   C3A36125  29.293  28.551   8.067
 2550POPC   C4A36126  29.151  28.447   7.696
 2550POPC   C1B36127  28.820  28.350   8.787
 2550POPC   C2B36128  28.646  28.403   8.362
 2550POPC   C3B36129  28.702  28.259   7.931
 2550POPC   C4B36130  28.743  28.294   7.469
 2551POPC   NC336131   4.892   2.111   9.424
 2551POPC   PO436132   5.562   2.055   9.366
 2551POPC   GL136133   5.292   1.800   9.098
 2551POPC   GL236134   5.134   2.118   8.977
 2551POPC   C1A36135   5.236   1.719   8.634
 2551POPC   D2A36136   5.434   1.905   8.232
 2551POPC   C3A36137   5.214   1.762   7.858
 2551POPC   C4A36138   4.817   1.846   7.738
 2551POPC   C1B36139   4.806   1.992   8.689
 2551POPC   C2B36140   4.902   1.962   8.250
 2551POPC   C3B36141   5.031   2.266   7.969
 2551POPC   C4B36142   4.773   2.348   7.634
 2552POPC   NC336143  16.811  31.426   9.751
 2552POPC   PO436144  16.535  32.007   9.643
 2552POPC   GL136145  16.840  31.715   9.321
 2552POPC   GL236146  16.904  31.320   9.263
 2552POPC   C1A36147  17.074  31.620   8.893
 2552POPC   D2A36148  17.059  31.337   8.498
 2552POPC   C3A36149  16.909  31.523   8.128
 2552POPC   C4A36150  16.920  31.426   7.718
 2552POPC   C1B36151  16.691  31.260   8.846
 2552POPC   C2B36152  16.550  31.250   8.381
 2552POPC   C3B36153  16.455  31.313   7.912
 2552POPC   C4B36154  16.438  31.152   7.482
 2553POPC   NC336155   3.807  40.918   9.446
 2553POPC   PO436156   3.146  41.095   9.547
 2553POPC   GL136157   3.305  40.842   9.185
 2553POPC   GL236158   3.109  40.517   9.137
 2553POPC   C1A36159   3.485  40.950   8.770
 2553POPC   D2A36160   3.400  41.197   8.378
 2553POPC   C3A36161   3.584  40.965   8.047
 2553POPC   C4A36162   3.722  40.772   7.641
 2553POPC   C1B36163   3.346  40.427   8.756
 2553POPC   C2B36164   3.660  40.566   8.421
 2553POPC   C3B36165   3.596  40.434   7.993
 2553POPC   C4B36166   3.287  40.382   7.635
 2554POPC   NC336167   4.988   0.879   9.790
 2554POPC   PO436168   5.290   1.410   9.481
 2554POPC   GL136169   5.045   1.270   9.175
 2554POPC   GL236170   4.866   0.997   9.327
 2554POPC   C1A36171   5.101   1.236   8.745
 2554POPC   D2A36172   5.182   1.018   8.403
 2554POPC   C3A36173   5.137   1.306   8.103
 2554POPC   C4A36174   4.907   1.316   7.764
 2554POPC   C1B36175   4.713   0.942   8.932
 2554POPC   C2B36176   4.640   1.038   8.506
 2554POPC   C3B36177   4.665   0.950   8.072
 2554POPC   C4B36178   4.814   0.603   7.857
 2555POPC   NC336179   3.635  19.483   9.215
 2555POPC   PO436180   3.699  18.945   9.628
 2555POPC   GL136181   3.636  18.919   9.213
 2555POPC   GL236182   3.934  19.057   9.113
 2555POPC   C1A36183   3.563  18.912   8.766
 2555POPC   D2A36184   3.688  19.130   8.377
 2555POPC   C3A36185   3.332  19.120   8.098
 2555POPC   C4A36186   3.140  19.148   7.692
 2555POPC   C1B36187   4.064  18.980   8.709
 2555POPC   C2B36188   4.014  18.695   8.356
 2555POPC   C3B36189   3.689  18.727   8.054
 2555POPC   C4B36190   3.655  19.041   7.723
 2556POPC   NC336191  12.443   8.260   9.455
 2556POPC   PO436192  11.960   7.786   9.602
 2556POPC   GL136193  12.035   7.847   9.184
 2556POPC   GL236194  12.381   7.764   9.121
 2556POPC   C1A36195  11.810   7.974   8.821
 2556POPC   D2A36196  11.872   8.337   8.533
 2556POPC   C3A36197  11.901   8.249   8.089
 2556POPC   C4A36198  12.114   8.373   7.745
 2556POPC   C1B36199  12.302   8.101   8.775
 2556POPC   C2B36200  12.339   8.300   8.344
 2556POPC   C3B36201  12.433   8.042   7.978
 2556POPC   C4B36202  12.327   7.906   7.560
 2557POPC   NC336203   7.645  39.839   9.551
 2557POPC   PO436204   7.529  40.572   9.563
 2557POPC   GL136205   7.369  40.197   9.301
 2557POPC   GL236206   7.646  40.119   9.153
 2557POPC   C1A36207   7.269  39.887   8.927
 2557POPC   D2A36208   7.332  39.973   8.490
 2557POPC   C3A36209   7.259  39.862   8.042
 2557POPC   C4A36210   7.255  40.086   7.685
 2557POPC   C1B36211   7.608  40.435   8.877
 2557POPC   C2B36212   7.576  40.424   8.453
 2557POPC   C3B36213   7.579  40.275   8.044
 2557POPC   C4B36214   7.763  40.016   7.725
 2558POPC   NC336215  16.041  33.939   9.753
 2558POPC   PO436216  15.446  34.092   9.544
 2558POPC   GL136217  15.817  33.921   9.199
 2558POPC   GL236218  16.172  33.805   9.231
 2558POPC   C1A36219  15.854  33.686   8.764
 2558POPC   D2A36220  16.047  33.382   8.430
 2558POPC   C3A36221  16.114  33.530   7.962
 2558POPC   C4A36222  15.921  33.752   7.586
 2558POPC   C1B36223  16.329  33.835   8.775
 2558POPC   C2B36224  16.159  33.887   8.332
 2558POPC   C3B36225  16.205  34.060   7.877
 2558POPC   C4B36226  16.422  34.188   7.460
 2559POPC   NC336227  25.119   0.963   9.451
 2559POPC   PO436228  25.580   1.561   9.457
 2559POPC   GL136229  25.378   1.287   9.140
 2559POPC   GL236230  25.546   0.991   9.121
 2559POPC   C1A36231  25.139   1.352   8.734
 2559POPC   D2A36232  24.955   1.478   8.323
 2559POPC   C3A36233  25.144   1.443   7.934
 2559POPC   C4A36234  25.154   1.071   7.732
 2559POPC   C1B36235  25.641   1.193   8.719
 2559POPC   C2B36236  25.457   1.303   8.329
 2559POPC   C3B36237  25.595   1.141   7.951
 2559POPC   C4B36238  25.621   1.199   7.529
 2560POPC   NC336239  29.662  15.840   9.524
 2560POPC   PO436240  30.009  15.206   9.496
 2560POPC   GL136241  29.839  14.943   9.140
 2560POPC   GL236242  29.466  14.841   9.095
 2560POPC   C1A36243  29.983  15.080   8.723
 2560POPC   D2A36244  30.054  15.262   8.286
 2560POPC   C3A36245  30.057  14.954   7.955
 2560POPC   C4A36246  30.163  14.542   7.914
 2560POPC   C1B36247  29.491  14.967   8.638
 2560POPC   C2B36248  29.583  15.110   8.198
 2560POPC   C3B36249  29.619  15.451   7.875
 2560POPC   C4B36250  29.616  15.607   7.430
 2561POPC   NC336251  41.224  32.166   9.435
 2561POPC   PO436252  41.817  31.971   9.351
 2561POPC   GL136253  41.582  32.224   9.053
 2561POPC   GL236254  41.251  32.451   9.026
 2561POPC   C1A36255  41.635  31.966   8.688
 2561POPC   D2A36256  41.662  32.115   8.286
 2561POPC   C3A36257  41.448  31.959   7.943
 2561POPC   C4A36258  41.725  32.126   7.671
 2561POPC   C1B36259  41.333  32.373   8.612
 2561POPC   C2B36260  41.396  32.546   8.231
 2561POPC   C3B36261  41.484  32.518   7.823
 2561POPC   C4B36262  41.565  32.530   7.386
 2562POPC   NC336263  40.434  26.046   9.498
 2562POPC   PO436264  41.081  25.888   9.518
 2562POPC   GL136265  40.984  25.976   9.128
 2562POPC   GL236266  40.982  25.624   9.070
 2562POPC   C1A36267  40.730  26.152   8.803
 2562POPC   D2A36268  40.536  26.160   8.355
 2562POPC   C3A36269  40.548  26.252   7.882
 2562POPC   C4A36270  40.859  26.265   7.536
 2562POPC   C1B36271  40.595  25.675   8.876
 2562POPC   C2B36272  40.623  25.635   8.450
 2562POPC   C3B36273  40.501  25.728   8.057
 2562POPC   C4B36274  40.706  25.786   7.693
 2563POPC   NC336275  28.235   2.414   9.474
 2563POPC   PO436276  28.011   1.736   9.413
 2563POPC   GL136277  28.203   1.873   9.016
 2563POPC   GL236278  28.582   1.889   8.989
 2563POPC   C1A36279  28.294   1.760   8.567
 2563POPC   D2A36280  28.360   1.651   8.128
 2563POPC   C3A36281  28.308   1.977   7.787
 2563POPC   C4A36282  28.260   1.997   7.311
 2563POPC   C1B36283  28.654   2.128   8.664
 2563POPC   C2B36284  28.497   2.185   8.274
 2563POPC   C3B36285  28.836   2.251   8.034
 2563POPC   C4B36286  28.880   2.143   7.623
 2564POPC   NC336287   9.589  44.430   9.596
 2564POPC   PO436288  10.270  44.544   9.605
 2564POPC   GL136289  10.067  44.598   9.207
 2564POPC   GL236290   9.861  44.355   9.180
 2564POPC   C1A36291   9.934  44.652   8.778
 2564POPC   D2A36292   9.959  44.435   8.414
 2564POPC   C3A36293   9.849  44.715   8.064
 2564POPC   C4A36294  10.125  44.935   7.753
 2564POPC   C1B36295   9.458  44.520   8.957
 2564POPC   C2B36296   9.465  44.599   8.502
 2564POPC   C3B36297   9.395  44.482   8.054
 2564POPC   C4B36298   9.496  44.585   7.606
 2565POPC   NC336299   4.106  30.149   9.473
 2565POPC   PO436300   3.407  30.131   9.420
 2565POPC   GL136301   3.556  30.137   9.041
 2565POPC   GL236302   3.846  30.331   9.040
 2565POPC   C1A36303   3.479  29.901   8.649
 2565POPC   D2A36304   3.644  29.725   8.252
 2565POPC   C3A36305   3.319  29.686   7.947
 2565POPC   C4A36306   3.123  29.314   7.748
 2565POPC   C1B36307   3.958  30.091   8.689
 2565POPC   C2B36308   4.149  30.229   8.320
 2565POPC   C3B36309   4.062  30.132   7.906
 2565POPC   C4B36310   3.777  29.830   7.753
 2566POPC   NC336311   9.245   1.716   9.637
 2566POPC   PO436312   8.645   2.085   9.511
 2566POPC   GL136313   9.059   2.079   9.288
 2566POPC   GL236314   9.228   1.757   9.134
 2566POPC   C1A36315   9.116   2.187   8.871
 2566POPC   D2A36316   9.164   2.026   8.471
 2566POPC   C3A36317   9.167   2.311   8.131
 2566POPC   C4A36318   9.134   2.098   7.737
 2566POPC   C1B36319   8.852   1.758   8.856
 2566POPC   C2B36320   8.682   1.843   8.473
 2566POPC   C3B36321   8.846   1.891   8.091
 2566POPC   C4B36322   8.679   1.887   7.674
 2567POPC   NC336323   1.399   3.726   9.374
 2567POPC   PO436324   0.942   3.227   9.563
 2567POPC   GL136325   1.018   3.418   9.157
 2567POPC   GL236326   0.865   3.779   9.147
 2567POPC   C1A36327   1.377   3.377   8.815
 2567POPC   D2A36328   1.492   3.598   8.420
 2567POPC   C3A36329   1.452   3.357   8.013
 2567POPC   C4A36330   1.485   3.140   7.597
 2567POPC   C1B36331   1.013   3.727   8.725
 2567POPC   C2B36332   1.039   3.702   8.275
 2567POPC   C3B36333   1.128   3.733   7.851
 2567POPC   C4B36334   0.824   3.872   7.576
 2568POPC   NC336335  44.876   3.915   9.311
 2568POPC   PO436336  44.524   3.484   9.624
 2568POPC   GL136337  44.671   3.442   9.201
 2568POPC   GL236338  44.988   3.308   9.193
 2568POPC   C1A36339  44.638   3.616   8.768
 2568POPC   D2A36340  44.672   3.424   8.365
 2568POPC   C3A36341  44.656   3.643   7.976
 2568POPC   C4A36342  44.667   3.589   7.536
 2568POPC   C1B36343   0.086   3.379   8.741
 2568POPC   C2B36344   0.191   3.426   8.277
 2568POPC   C3B36345  44.981   3.259   7.864
 2568POPC   C4B36346   0.052   3.320   7.365
 2569POPC   NC336347  32.303  26.868   9.496
 2569POPC   PO436348  32.546  26.378   9.398
 2569POPC   GL136349  32.425  26.668   9.034
 2569POPC   GL236350  32.162  26.947   9.017
 2569POPC   C1A36351  32.494  26.905   8.644
 2569POPC   D2A36352  32.237  26.798   8.288
 2569POPC   C3A36353  32.251  26.909   7.839
 2569POPC   C4A36354  32.147  26.719   7.414
 2569POPC   C1B36355  32.084  27.235   8.664
 2569POPC   C2B36356  32.030  27.264   8.213
 2569POPC   C3B36357  31.867  27.270   7.824
 2569POPC   C4B36358  32.017  27.223   7.424
 2570POPC   NC336359   4.390  22.405   9.423
 2570POPC   PO436360   4.829  21.970   9.650
 2570POPC   GL136361   4.516  21.957   9.224
 2570POPC   GL236362   4.278  21.688   9.161
 2570POPC   C1A36363   4.179  22.093   8.844
 2570POPC   D2A36364   4.032  22.120   8.393
 2570POPC   C3A36365   4.271  22.262   8.009
 2570POPC   C4A36366   4.188  22.148   7.567
 2570POPC   C1B36367   4.564  21.792   8.748
 2570POPC   C2B36368   4.518  21.944   8.317
 2570POPC   C3B36369   4.642  21.928   7.857
 2570POPC   C4B36370   4.702  21.982   7.386
 2571POPC   NC336371   4.223  33.619   9.445
 2571POPC   PO436372   4.611  34.101   9.413
 2571POPC   GL136373   4.498  33.825   9.078
 2571POPC   GL236374   4.120  33.873   9.012
 2571POPC   C1A36375   4.381  33.508   8.767
 2571POPC   D2A36376   4.186  33.542   8.381
 2571POPC   C3A36377   4.517  33.586   8.115
 2571POPC   C4A36378   4.454  33.503   7.698
 2571POPC   C1B36379   4.339  34.110   8.692
 2571POPC   C2B36380   4.276  34.069   8.282
 2571POPC   C3B36381   4.234  33.935   7.904
 2571POPC   C4B36382   4.413  33.976   7.524
 2572POPC   NC336383  43.389  33.729   9.316
 2572POPC   PO436384  42.953  34.320   9.564
 2572POPC   GL136385  42.894  34.186   9.082
 2572POPC   GL236386  43.039  33.855   8.992
 2572POPC   C1A36387  43.070  34.201   8.634
 2572POPC   D2A36388  43.047  33.918   8.302
 2572POPC   C3A36389  43.248  33.975   7.925
 2572POPC   C4A36390  43.016  33.934   7.584
 2572POPC   C1B36391  43.154  33.543   8.682
 2572POPC   C2B36392  42.913  33.434   8.330
 2572POPC   C3B36393  42.991  33.500   7.902
 2572POPC   C4B36394  43.036  33.430   7.449
 2573POPC   NC336395  32.678  30.511   9.332
 2573POPC   PO436396  33.114  31.000   9.522
 2573POPC   GL136397  33.099  30.829   9.120
 2573POPC   GL236398  33.175  30.446   9.135
 2573POPC   C1A36399  33.350  30.928   8.739
 2573POPC   D2A36400  33.410  30.800   8.312
 2573POPC   C3A36401  33.093  30.877   7.994
 2573POPC   C4A36402  32.868  30.765   7.636
 2573POPC   C1B36403  33.045  30.490   8.703
 2573POPC   C2B36404  33.174  30.350   8.300
 2573POPC   C3B36405  32.975  30.348   7.918
 2573POPC   C4B36406  33.123  30.332   7.525
 2574POPC   NC336407   1.004  19.770   9.653
 2574POPC   PO436408   1.338  20.299   9.447
 2574POPC   GL136409   1.141  20.022   9.123
 2574POPC   GL236410   1.157  19.657   9.168
 2574POPC   C1A36411   1.157  19.867   8.658
 2574POPC   D2A36412   1.053  19.788   8.201
 2574POPC   C3A36413   1.392  19.862   7.915
 2574POPC   C4A36414   1.353  20.077   7.519
 2574POPC   C1B36415   1.020  19.415   8.829
 2574POPC   C2B36416   1.047  19.317   8.394
 2574POPC   C3B36417   1.170  19.362   7.925
 2574POPC   C4B36418   1.192  19.603   7.509
 2575POPC   NC336419  35.824  29.914   9.343
 2575POPC   PO436420  35.248  29.900   9.522
 2575POPC   GL136421  35.351  29.920   9.094
 2575POPC   GL236422  34.973  29.904   9.093
 2575POPC   C1A36423  35.523  29.818   8.686
 2575POPC   D2A36424  35.344  29.678   8.295
 2575POPC   C3A36425  35.459  29.906   7.893
 2575POPC   C4A36426  35.585  30.134   7.480
 2575POPC   C1B36427  35.025  29.973   8.683
 2575POPC   C2B36428  35.208  30.171   8.336
 2575POPC   C3B36429  35.053  30.251   7.942
 2575POPC   C4B36430  35.057  30.073   7.576
 2576POPC   NC336431  39.405  15.457   9.457
 2576POPC   PO436432  38.979  14.915   9.727
 2576POPC   GL136433  39.193  14.989   9.271
 2576POPC   GL236434  39.083  15.304   9.088
 2576POPC   C1A36435  39.288  14.962   8.769
 2576POPC   D2A36436  39.174  15.142   8.314
 2576POPC   C3A36437  39.427  14.979   7.927
 2576POPC   C4A36438  39.374  15.067   7.456
 2576POPC   C1B36439  39.272  15.511   8.703
 2576POPC   C2B36440  39.505  15.547   8.267
 2576POPC   C3B36441  39.353  15.472   7.836
 2576POPC   C4B36442  39.090  15.489   7.475
 2577POPC   NC336443  10.787  40.408   9.341
 2577POPC   PO436444  10.580  39.778   9.465
 2577POPC   GL136445  10.490  40.033   9.133
 2577POPC   GL236446  10.865  39.984   9.038
 2577POPC   C1A36447  10.496  40.127   8.706
 2577POPC   D2A36448  10.674  39.802   8.457
 2577POPC   C3A36449  10.500  39.904   8.065
 2577POPC   C4A36450  10.281  40.191   7.755
 2577POPC   C1B36451  11.023  40.147   8.637
 2577POPC   C2B36452  10.947  40.138   8.185
 2577POPC   C3B36453  10.973  40.023   7.751
 2577POPC   C4B36454  10.854  40.239   7.362
 2578POPC   NC336455  30.507  20.165   9.726
 2578POPC   PO436456  30.574  19.552   9.612
 2578POPC   GL136457  30.569  19.905   9.291
 2578POPC   GL236458  30.471  19.694   9.060
 2578POPC   C1A36459  30.672  20.141   8.889
 2578POPC   D2A36460  30.600  19.963   8.452
 2578POPC   C3A36461  30.796  20.152   8.074
 2578POPC   C4A36462  30.881  19.981   7.656
 2578POPC   C1B36463  30.253  19.600   8.701
 2578POPC   C2B36464  30.346  19.519   8.270
 2578POPC   C3B36465  30.514  19.716   7.924
 2578POPC   C4B36466  30.531  19.646   7.496
 2579POPC   NC336467  24.186   8.856   9.614
 2579POPC   PO436468  24.598   9.314   9.862
 2579POPC   GL136469  24.646   9.094   9.379
 2579POPC   GL236470  24.370   9.145   9.155
 2579POPC   C1A36471  24.747   8.871   8.886
 2579POPC   D2A36472  24.796   8.879   8.360
 2579POPC   C3A36473  24.516   8.874   7.907
 2579POPC   C4A36474  24.645   8.868   7.412
 2579POPC   C1B36475  24.516   9.281   8.724
 2579POPC   C2B36476  24.423   9.222   8.290
 2579POPC   C3B36477  24.093   9.196   7.954
 2579POPC   C4B36478  24.169   9.059   7.511
 2580POPC   NC336479   3.188  36.896   9.351
 2580POPC   PO436480   3.804  36.734   9.511
 2580POPC   GL136481   3.838  36.872   9.087
 2580POPC   GL236482   3.851  37.205   9.097
 2580POPC   C1A36483   3.572  36.845   8.717
 2580POPC   D2A36484   3.301  37.006   8.373
 2580POPC   C3A36485   3.287  36.678   8.078
 2580POPC   C4A36486   3.560  36.744   7.735
 2580POPC   C1B36487   3.614  37.374   8.737
 2580POPC   C2B36488   3.660  37.378   8.303
 2580POPC   C3B36489   3.566  37.265   7.915
 2580POPC   C4B36490   3.242  37.194   7.654
 2581POPC   NC336491  28.943  10.974   9.378
 2581POPC   PO436492  29.289  11.612   9.462
 2581POPC   GL136493  29.256  11.482   9.031
 2581POPC   GL236494  28.918  11.416   9.110
 2581POPC   C1A36495  29.253  11.378   8.551
 2581POPC   D2A36496  28.920  11.166   8.261
 2581POPC   C3A36497  29.020  11.047   7.826
 2581POPC   C4A36498  29.282  11.335   7.654
 2581POPC   C1B36499  28.762  11.411   8.700
 2581POPC   C2B36500  28.817  11.677   8.349
 2581POPC   C3B36501  28.935  11.591   7.932
 2581POPC   C4B36502  28.846  11.495   7.493
 2582POPC   NC336503  36.542   3.230   9.439
 2582POPC   PO436504  36.098   3.865   9.438
 2582POPC   GL136505  36.093   3.428   9.176
 2582POPC   GL236506  35.768   3.242   9.133
 2582POPC   C1A36507  36.279   3.366   8.743
 2582POPC   D2A36508  36.221   3.633   8.361
 2582POPC   C3A36509  36.170   3.485   7.943
 2582POPC   C4A36510  36.365   3.376   7.556
 2582POPC   C1B36511  35.768   3.386   8.712
 2582POPC   C2B36512  35.920   3.187   8.329
 2582POPC   C3B36513  35.736   3.188   7.943
 2582POPC   C4B36514  35.737   3.477   7.640
 2583POPC   NC336515   0.108  43.523   9.532
 2583POPC   PO436516  44.574  43.059   9.566
 2583POPC   GL136517  44.732  43.059   9.168
 2583POPC   GL236518  44.704  43.413   9.195
 2583POPC   C1A36519  44.571  43.142   8.739
 2583POPC   D2A36520  44.350  43.121   8.354
 2583POPC   C3A36521  44.539  42.919   8.019
 2583POPC   C4A36522  44.601  43.055   7.619
 2583POPC   C1B36523  44.916  43.516   8.860
 2583POPC   C2B36524  44.973  43.333   8.488
 2583POPC   C3B36525  44.798  43.333   8.150
 2583POPC   C4B36526  44.966  43.345   7.794
 2584POPC   NC336527   9.098   4.815  10.023
 2584POPC   PO436528   8.887   5.332   9.571
 2584POPC   GL136529   8.858   5.011   9.220
 2584POPC   GL236530   8.571   4.759   9.227
 2584POPC   C1A36531   9.056   5.085   8.787
 2584POPC   D2A36532   9.360   5.169   8.430
 2584POPC   C3A36533   9.377   5.481   8.119
 2584POPC   C4A36534   9.185   5.369   7.747
 2584POPC   C1B36535   8.531   4.943   8.817
 2584POPC   C2B36536   8.741   4.940   8.411
 2584POPC   C3B36537   8.884   5.034   7.992
 2584POPC   C4B36538   8.761   4.824   7.623
 2585POPC   NC336539   1.593   9.602   9.431
 2585POPC   PO436540   1.430  10.235   9.192
 2585POPC   GL136541   1.230   9.810   9.094
 2585POPC   GL236542   1.287   9.409   9.073
 2585POPC   C1A36543   1.020   9.656   8.718
 2585POPC   D2A36544   0.753   9.772   8.392
 2585POPC   C3A36545   0.943   9.651   8.028
 2585POPC   C4A36546   0.884   9.972   7.734
 2585POPC   C1B36547   1.547   9.584   8.737
 2585POPC   C2B36548   1.522   9.764   8.318
 2585POPC   C3B36549   1.406   9.813   7.885
 2585POPC   C4B36550   1.405   9.608   7.483
 2586POPC   NC336551  20.575  32.473   9.478
 2586POPC   PO436552  20.361  31.884   9.500
 2586POPC   GL136553  20.600  32.018   9.155
 2586POPC   GL236554  20.548  32.331   8.985
 2586POPC   C1A36555  20.801  31.912   8.782
 2586POPC   D2A36556  20.763  32.222   8.473
 2586POPC   C3A36557  20.600  32.134   8.094
 2586POPC   C4A36558  20.432  32.375   7.768
 2586POPC   C1B36559  20.931  32.549   8.855
 2586POPC   C2B36560  21.044  32.631   8.396
 2586POPC   C3B36561  21.000  32.466   7.935
 2586POPC   C4B36562  20.867  32.118   7.647
 2587POPC   NC336563   8.946   4.075   9.597
 2587POPC   PO436564   9.384   4.489   9.794
 2587POPC   GL136565   9.033   4.516   9.338
 2587POPC   GL236566   8.754   4.243   9.157
 2587POPC   C1A36567   8.922   4.584   8.835
 2587POPC   D2A36568   8.782   4.381   8.396
 2587POPC   C3A36569   8.991   4.518   7.979
 2587POPC   C4A36570   9.076   4.474   7.490
 2587POPC   C1B36571   8.629   3.976   8.760
 2587POPC   C2B36572   8.307   4.052   8.418
 2587POPC   C3B36573   8.357   4.015   7.967
 2587POPC   C4B36574   8.633   4.273   7.744
 2588POPC   NC336575  11.128  35.267   9.515
 2588POPC   PO436576  11.377  35.833   9.196
 2588POPC   GL136577  11.483  35.381   9.135
 2588POPC   GL236578  11.803  35.263   9.196
 2588POPC   C1A36579  11.385  35.161   8.747
 2588POPC   D2A36580  11.292  35.416   8.386
 2588POPC   C3A36581  11.052  35.287   8.035
 2588POPC   C4A36582  11.193  35.602   7.780
 2588POPC   C1B36583  11.880  35.057   8.804
 2588POPC   C2B36584  11.794  35.233   8.395
 2588POPC   C3B36585  11.517  35.072   8.063
 2588POPC   C4B36586  11.464  35.184   7.637
 2589POPC   NC336587  42.635  35.603   9.751
 2589POPC   PO436588  42.597  35.190   9.223
 2589POPC   GL136589  42.382  35.520   9.012
 2589POPC   GL236590  42.595  35.748   9.127
 2589POPC   C1A36591  42.162  35.454   8.641
 2589POPC   D2A36592  42.349  35.184   8.358
 2589POPC   C3A36593  42.242  35.310   7.960
 2589POPC   C4A36594  42.221  35.180   7.543
 2589POPC   C1B36595  42.689  35.575   8.641
 2589POPC   C2B36596  42.594  35.606   8.190
 2589POPC   C3B36597  42.794  35.397   7.814
 2589POPC   C4B36598  42.721  35.165   7.411
 2590POPC   NC336599  11.141  25.165   9.522
 2590POPC   PO436600  11.810  25.473   9.556
 2590POPC   GL136601  11.496  25.302   9.192
 2590POPC   GL236602  11.186  25.521   9.148
 2590POPC   C1A36603  11.168  25.075   8.865
 2590POPC   D2A36604  10.932  25.001   8.448
 2590POPC   C3A36605  11.118  25.036   8.029
 2590POPC   C4A36606  11.241  25.126   7.592
 2590POPC   C1B36607  11.396  25.513   8.730
 2590POPC   C2B36608  11.449  25.244   8.372
 2590POPC   C3B36609  11.481  25.388   7.944
 2590POPC   C4B36610  11.706  25.350   7.553
 2591POPC   NC336611  30.261  18.214   9.464
 2591POPC   PO436612  30.524  17.754   9.320
 2591POPC   GL136613  30.582  18.139   9.038
 2591POPC   GL236614  30.344  18.449   9.025
 2591POPC   C1A36615  30.897  18.205   8.689
 2591POPC   D2A36616  30.882  18.422   8.270
 2591POPC   C3A36617  30.697  18.265   7.868
 2591POPC   C4A36618  30.333  18.446   7.676
 2591POPC   C1B36619  30.451  18.406   8.591
 2591POPC   C2B36620  30.326  18.396   8.194
 2591POPC   C3B36621  30.216  18.043   7.944
 2591POPC   C4B36622  30.110  18.039   7.489
 2592POPC   NC336623  13.152  34.535   9.490
 2592POPC   PO436624  12.451  34.601   9.494
 2592POPC   GL136625  12.682  34.731   9.141
 2592POPC   GL236626  12.853  34.434   9.073
 2592POPC   C1A36627  12.808  34.873   8.731
 2592POPC   D2A36628  12.787  35.067   8.321
 2592POPC   C3A36629  12.797  34.732   8.002
 2592POPC   C4A36630  12.908  34.681   7.575
 2592POPC   C1B36631  12.543  34.356   8.758
 2592POPC   C2B36632  12.403  34.338   8.340
 2592POPC   C3B36633  12.504  34.187   7.920
 2592POPC   C4B36634  12.847  34.135   7.635
 2593POPC   NC336635  19.426  15.967   9.457
 2593POPC   PO436636  18.922  16.441   9.589
 2593POPC   GL136637  18.921  16.058   9.265
 2593POPC   GL236638  18.938  15.718   9.208
 2593POPC   C1A36639  19.177  15.961   8.839
 2593POPC   D2A36640  19.450  16.013   8.471
 2593POPC   C3A36641  19.300  16.001   8.081
 2593POPC   C4A36642  19.180  16.315   7.814
 2593POPC   C1B36643  18.834  15.592   8.765
 2593POPC   C2B36644  18.886  15.868   8.391
 2593POPC   C3B36645  18.821  15.889   7.932
 2593POPC   C4B36646  18.610  15.589   7.603
 2594POPC   NC336647   2.275  43.674   9.452
 2594POPC   PO436648   1.772  44.115   9.724
 2594POPC   GL136649   1.832  43.871   9.275
 2594POPC   GL236650   2.084  43.828   9.001
 2594POPC   C1A36651   1.642  43.718   8.831
 2594POPC   D2A36652   1.538  43.529   8.410
 2594POPC   C3A36653   1.747  43.727   8.049
 2594POPC   C4A36654   2.033  43.938   7.789
 2594POPC   C1B36655   2.206  44.089   8.676
 2594POPC   C2B36656   2.180  44.084   8.261
 2594POPC   C3B36657   2.351  44.282   7.939
 2594POPC   C4B36658   2.383  44.212   7.486
 2595POPC   NC336659   1.700  30.227   9.405
 2595POPC   PO436660   1.178  30.690   9.348
 2595POPC   GL136661   1.258  30.803   8.973
 2595POPC   GL236662   1.000  30.927   8.889
 2595POPC   C1A36663   1.454  30.611   8.591
 2595POPC   D2A36664   1.172  30.494   8.212
 2595POPC   C3A36665   1.283  30.467   7.768
 2595POPC   C4A36666   1.392  30.643   7.358
 2595POPC   C1B36667   1.074  30.951   8.478
 2595POPC   C2B36668   1.414  30.934   8.195
 2595POPC   C3B36669   1.410  30.956   7.770
 2595POPC   C4B36670   1.005  30.978   7.504
 2596POPC   NC336671  14.121  25.203   9.395
 2596POPC   PO436672  14.598  25.609   9.221
 2596POPC   GL136673  14.442  25.301   8.986
 2596POPC   GL236674  14.419  24.917   9.061
 2596POPC   C1A36675  14.635  25.390   8.586
 2596POPC   D2A36676  14.628  25.610   8.229
 2596POPC   C3A36677  14.436  25.424   7.847
 2596POPC   C4A36678  14.093  25.471   7.527
 2596POPC   C1B36679  14.230  25.055   8.621
 2596POPC   C2B36680  14.047  24.910   8.263
 2596POPC   C3B36681  14.014  25.083   7.883
 2596POPC   C4B36682  14.325  24.981   7.628
 2597POPC   NC336683   4.075  36.442   9.269
 2597POPC   PO436684   4.104  35.936   9.743
 2597POPC   GL136685   4.365  35.958   9.248
 2597POPC   GL236686   4.161  36.024   8.908
 2597POPC   C1A36687   4.635  35.929   8.819
 2597POPC   D2A36688   4.407  35.855   8.387
 2597POPC   C3A36689   4.491  35.936   7.927
 2597POPC   C4A36690   4.169  35.964   7.582
 2597POPC   C1B36691   4.341  36.318   8.631
 2597POPC   C2B36692   4.306  36.340   8.200
 2597POPC   C3B36693   4.270  36.424   7.773
 2597POPC   C4B36694   4.386  36.780   7.541
 2598POPC   NC336695  12.417   3.823   9.293
 2598POPC   PO436696  12.289   4.510   9.555
 2598POPC   GL136697  12.044   4.352   9.172
 2598POPC   GL236698  11.760   4.587   9.182
 2598POPC   C1A36699  11.887   4.145   8.761
 2598POPC   D2A36700  11.952   3.969   8.319
 2598POPC   C3A36701  12.304   4.115   8.061
 2598POPC   C4A36702  12.488   3.981   7.695
 2598POPC   C1B36703  11.846   4.661   8.755
 2598POPC   C2B36704  11.697   4.459   8.380
 2598POPC   C3B36705  11.805   4.327   8.004
 2598POPC   C4B36706  12.031   4.244   7.638
 2599POPC   NC336707  37.874  29.024   9.528
 2599POPC   PO436708  38.429  29.416   9.475
 2599POPC   GL136709  38.546  29.311   9.080
 2599POPC   GL236710  38.874  29.464   9.109
 2599POPC   C1A36711  38.401  29.044   8.734
 2599POPC   D2A36712  38.172  28.949   8.360
 2599POPC   C3A36713  38.369  29.102   8.008
 2599POPC   C4A36714  38.222  29.475   7.813
 2599POPC   C1B36715  38.744  29.475   8.655
 2599POPC   C2B36716  38.976  29.295   8.299
 2599POPC   C3B36717  38.877  29.211   7.865
 2599POPC   C4B36718  38.865  28.890   7.528
 2600POPC   NC336719   5.964  42.748   9.281
 2600POPC   PO436720   5.679  42.239   9.677
 2600POPC   GL136721   5.764  42.267   9.249
 2600POPC   GL236722   6.129  42.235   9.315
 2600POPC   C1A36723   5.716  42.400   8.785
 2600POPC   D2A36724   5.891  42.245   8.383
 2600POPC   C3A36725   5.800  42.403   7.955
 2600POPC   C4A36726   5.462  42.317   7.645
 2600POPC   C1B36727   6.048  42.034   8.897
 2600POPC   C2B36728   6.121  41.806   8.496
 2600POPC   C3B36729   6.137  41.945   8.044
 2600POPC   C4B36730   5.825  41.946   7.731
 2601POPC   NC336731  27.463  28.793   9.471
 2601POPC   PO436732  27.918  28.325   9.533
 2601POPC   GL136733  27.796  28.509   9.189
 2601POPC   GL236734  27.473  28.354   9.150
 2601POPC   C1A36735  27.873  28.381   8.779
 2601POPC   D2A36736  27.787  28.205   8.386
 2601POPC   C3A36737  27.812  28.490   8.047
 2601POPC   C4A36738  27.756  28.302   7.680
 2601POPC   C1B36739  27.228  28.368   8.758
 2601POPC   C2B36740  27.364  28.494   8.332
 2601POPC   C3B36741  27.323  28.519   7.886
 2601POPC   C4B36742  27.168  28.202   7.642
 2602POPC   NC336743  33.703  40.974   9.520
 2602POPC   PO436744  33.696  40.271   9.502
 2602POPC   GL136745  33.663  40.585   9.152
 2602POPC   GL236746  33.964  40.801   9.113
 2602POPC   C1A36747  33.631  40.739   8.731
 2602POPC   D2A36748  33.867  40.549   8.411
 2602POPC   C3A36749  33.751  40.675   8.022
 2602POPC   C4A36750  33.432  40.571   7.753
 2602POPC   C1B36751  34.171  40.880   8.691
 2602POPC   C2B36752  34.146  40.968   8.235
 2602POPC   C3B36753  34.128  40.897   7.776
 2602POPC   C4B36754  33.877  40.596   7.509
 2603POPC   NC336755   4.052  20.115   9.403
 2603POPC   PO436756   4.124  19.506   9.269
 2603POPC   GL136757   4.122  19.819   8.977
 2603POPC   GL236758   4.427  19.959   9.091
 2603POPC   C1A36759   4.089  19.726   8.545
 2603POPC   D2A36760   4.131  19.598   8.118
 2603POPC   C3A36761   4.418  19.818   7.878
 2603POPC   C4A36762   4.175  19.868   7.518
 2603POPC   C1B36763   4.667  19.884   8.736
 2603POPC   C2B36764   4.757  20.046   8.323
 2603POPC   C3B36765   4.698  20.282   7.930
 2603POPC   C4B36766   4.586  20.152   7.509
 2604POPC   NC336767  43.044  20.881   9.612
 2604POPC   PO436768  43.236  20.213   9.758
 2604POPC   GL136769  43.164  20.369   9.297
 2604POPC   GL236770  42.956  20.658   9.167
 2604POPC   C1A36771  43.242  20.411   8.830
 2604POPC   D2A36772  43.451  20.425   8.418
 2604POPC   C3A36773  43.246  20.424   8.036
 2604POPC   C4A36774  43.112  20.513   7.624
 2604POPC   C1B36775  42.783  20.781   8.773
 2604POPC   C2B36776  42.930  20.637   8.381
 2604POPC   C3B36777  42.869  20.786   7.976
 2604POPC   C4B36778  42.533  20.726   7.720
 2605POPC   NC336779  28.941   3.919   9.600
 2605POPC   PO436780  29.469   3.581   9.500
 2605POPC   GL136781  29.196   3.571   9.203
 2605POPC   GL236782  28.848   3.565   9.233
 2605POPC   C1A36783  29.314   3.603   8.811
 2605POPC   D2A36784  29.266   3.825   8.460
 2605POPC   C3A36785  29.218   3.625   8.100
 2605POPC   C4A36786  29.433   3.636   7.741
 2605POPC   C1B36787  28.780   3.670   8.803
 2605POPC   C2B36788  28.620   3.534   8.415
 2605POPC   C3B36789  28.785   3.335   8.068
 2605POPC   C4B36790  28.922   3.521   7.703
 2606POPC   NC336791  39.867  21.727   9.774
 2606POPC   PO436792  39.974  22.334   9.537
 2606POPC   GL136793  40.077  22.210   9.155
 2606POPC   GL236794  40.227  21.934   9.246
 2606POPC   C1A36795  39.870  22.083   8.768
 2606POPC   D2A36796  39.702  22.006   8.341
 2606POPC   C3A36797  39.890  22.297   8.017
 2606POPC   C4A36798  39.901  22.305   7.541
 2606POPC   C1B36799  40.330  21.825   8.810
 2606POPC   C2B36800  40.219  22.028   8.394
 2606POPC   C3B36801  40.210  21.899   7.940
 2606POPC   C4B36802  40.240  21.618   7.570
 2607POPC   NC336803  20.260  12.735   9.180
 2607POPC   PO436804  19.669  12.699   9.507
 2607POPC   GL136805  19.748  12.720   9.112
 2607POPC   GL236806  19.822  13.034   9.049
 2607POPC   C1A36807  19.799  12.570   8.722
 2607POPC   D2A36808  19.674  12.680   8.359
 2607POPC   C3A36809  19.904  12.759   8.036
 2607POPC   C4A36810  19.707  12.967   7.731
 2607POPC   C1B36811  19.619  13.087   8.643
 2607POPC   C2B36812  19.786  13.229   8.230
 2607POPC   C3B36813  19.913  13.412   7.814
 2607POPC   C4B36814  19.752  13.381   7.364
 2608POPC   NC336815  25.919  14.723   9.404
 2608POPC   PO436816  26.332  14.171   9.521
 2608POPC   GL136817  26.233  14.418   9.146
 2608POPC   GL236818  26.432  14.725   9.176
 2608POPC   C1A36819  26.035  14.403   8.719
 2608POPC   D2A36820  25.765  14.216   8.393
 2608POPC   C3A36821  25.952  14.200   7.978
 2608POPC   C4A36822  25.983  14.253   7.520
 2608POPC   C1B36823  26.236  14.873   8.791
 2608POPC   C2B36824  25.952  14.804   8.381
 2608POPC   C3B36825  25.976  14.706   7.921
 2608POPC   C4B36826  26.137  14.808   7.493
 2609POPC   NC336827  19.939  30.086   9.472
 2609POPC   PO436828  19.303  30.262   9.521
 2609POPC   GL136829  19.503  29.964   9.203
 2609POPC   GL236830  19.776  29.718   9.182
 2609POPC   C1A36831  19.493  29.807   8.765
 2609POPC   D2A36832  19.673  29.741   8.403
 2609POPC   C3A36833  19.585  30.000   8.026
 2609POPC   C4A36834  19.590  29.875   7.556
 2609POPC   C1B36835  20.043  29.872   8.839
 2609POPC   C2B36836  20.205  29.791   8.426
 2609POPC   C3B36837  20.058  29.831   8.027
 2609POPC   C4B36838  20.068  29.596   7.657
 2610POPC   NC336839  21.027   0.698   9.406
 2610POPC   PO436840  20.699   0.132   9.484
 2610POPC   GL136841  20.696   0.377   9.118
 2610POPC   GL236842  20.470   0.646   9.142
 2610POPC   C1A36843  20.819   0.334   8.705
 2610POPC   D2A36844  20.763   0.290   8.259
 2610POPC   C3A36845  20.432   0.379   8.011
 2610POPC   C4A36846  20.425   0.266   7.599
 2610POPC   C1B36847  20.750   0.848   8.841
 2610POPC   C2B36848  20.808   0.816   8.433
 2610POPC   C3B36849  20.952   0.719   8.029
 2610POPC   C4B36850  20.767   0.666   7.652
 2611POPC   NC336851  37.330  31.590   9.753
 2611POPC   PO436852  37.734  31.133   9.798
 2611POPC   GL136853  37.627  31.273   9.264
 2611POPC   GL236854  37.766  31.596   9.170
 2611POPC   C1A36855  37.550  31.484   8.736
 2611POPC   D2A36856  37.514  31.467   8.250
 2611POPC   C3A36857  37.470  31.434   7.798
 2611POPC   C4A36858  37.291  31.706   7.445
 2611POPC   C1B36859  37.985  31.277   8.851
 2611POPC   C2B36860  37.933  31.177   8.389
 2611POPC   C3B36861  37.949  31.222   7.929
 2611POPC   C4B36862  37.953  31.646   7.803
 2612POPC   NC336863  21.924   5.333   9.495
 2612POPC   PO436864  21.934   4.713   9.738
 2612POPC   GL136865  22.004   4.845   9.302
 2612POPC   GL236866  22.320   5.020   9.310
 2612POPC   C1A36867  22.029   5.094   8.892
 2612POPC   D2A36868  22.067   5.235   8.475
 2612POPC   C3A36869  21.804   5.191   8.152
 2612POPC   C4A36870  22.076   5.349   7.835
 2612POPC   C1B36871  22.381   4.714   8.963
 2612POPC   C2B36872  22.230   4.769   8.532
 2612POPC   C3B36873  22.203   4.874   8.089
 2612POPC   C4B36874  22.212   4.893   7.631
 2613POPC   NC336875  15.596  10.556   9.593
 2613POPC   PO436876  15.211  10.021   9.537
 2613POPC   GL136877  15.210   9.799   9.143
 2613POPC   GL236878  15.517   9.901   9.002
 2613POPC   C1A36879  15.034   9.482   8.848
 2613POPC   D2A36880  15.128   9.325   8.428
 2613POPC   C3A36881  15.324   9.640   8.188
 2613POPC   C4A36882  15.268   9.704   7.766
 2613POPC   C1B36883  15.252   9.961   8.616
 2613POPC   C2B36884  15.000  10.042   8.227
 2613POPC   C3B36885  15.196  10.185   7.800
 2613POPC   C4B36886  15.344   9.990   7.353
 2614POPC   NC336887  16.606  28.710   9.323
 2614POPC   PO436888  16.245  28.435   9.738
 2614POPC   GL136889  16.224  28.367   9.242
 2614POPC   GL236890  15.893  28.259   9.113
 2614POPC   C1A36891  16.245  28.343   8.739
 2614POPC   D2A36892  16.081  28.127   8.332
 2614POPC   C3A36893  16.105  28.328   7.905
 2614POPC   C4A36894  16.215  28.663   7.621
 2614POPC   C1B36895  15.729  28.321   8.671
 2614POPC   C2B36896  15.691  28.451   8.221
 2614POPC   C3B36897  15.602  28.312   7.794
 2614POPC   C4B36898  15.800  28.447   7.415
 2615POPC   NC336899  43.141   7.379   9.420
 2615POPC   PO436900  42.531   7.371   9.586
 2615POPC   GL136901  42.734   7.340   9.135
 2615POPC   GL236902  42.849   7.035   8.915
 2615POPC   C1A36903  42.968   7.660   8.834
 2615POPC   D2A36904  43.321   7.703   8.515
 2615POPC   C3A36905  43.148   7.582   8.109
 2615POPC   C4A36906  42.860   7.310   7.894
 2615POPC   C1B36907  43.241   7.223   8.751
 2615POPC   C2B36908  43.472   7.244   8.363
 2615POPC   C3B36909  43.335   7.124   7.965
 2615POPC   C4B36910  43.203   7.072   7.566
 2616POPC   NC336911   6.538  22.955   9.936
 2616POPC   PO436912   6.328  23.041   9.512
 2616POPC   GL136913   6.613  23.004   9.145
 2616POPC   GL236914   6.429  22.748   8.950
 2616POPC   C1A36915   6.844  22.952   8.738
 2616POPC   D2A36916   6.709  22.794   8.326
 2616POPC   C3A36917   6.914  22.970   7.957
 2616POPC   C4A36918   6.892  22.983   7.487
 2616POPC   C1B36919   6.361  23.073   8.613
 2616POPC   C2B36920   6.401  23.184   8.165
 2616POPC   C3B36921   6.447  22.967   7.769
 2616POPC   C4B36922   6.214  22.887   7.398
 2617POPC   NC336923  17.807  42.124   9.501
 2617POPC   PO436924  17.181  42.284   9.664
 2617POPC   GL136925  17.331  42.390   9.232
 2617POPC   GL236926  17.668  42.458   9.101
 2617POPC   C1A36927  17.351  42.224   8.799
 2617POPC   D2A36928  17.533  42.414   8.438
 2617POPC   C3A36929  17.212  42.371   8.111
 2617POPC   C4A36930  16.969  42.327   7.728
 2617POPC   C1B36931  17.898  42.232   8.786
 2617POPC   C2B36932  17.955  42.088   8.362
 2617POPC   C3B36933  17.715  42.216   8.001
 2617POPC   C4B36934  17.787  42.105   7.618
 2618POPC   NC336935  18.872  26.725   9.413
 2618POPC   PO436936  19.220  27.248   9.463
 2618POPC   GL136937  19.240  26.969   9.117
 2618POPC   GL236938  18.902  27.036   9.002
 2618POPC   C1A36939  19.257  26.820   8.688
 2618POPC   D2A36940  19.173  26.906   8.242
 2618POPC   C3A36941  19.388  26.603   7.967
 2618POPC   C4A36942  19.421  26.617   7.543
 2618POPC   C1B36943  18.755  26.698   8.725
 2618POPC   C2B36944  18.694  26.632   8.282
 2618POPC   C3B36945  18.888  26.617   7.871
 2618POPC   C4B36946  18.673  26.852   7.508
 2619POPC   NC336947  19.897   3.244   9.568
 2619POPC   PO436948  19.920   2.595   9.433
 2619POPC   GL136949  19.889   2.930   9.154
 2619POPC   GL236950  19.540   3.012   9.260
 2619POPC   C1A36951  20.078   2.889   8.735
 2619POPC   D2A36952  20.093   2.628   8.330
 2619POPC   C3A36953  20.101   2.727   7.887
 2619POPC   C4A36954  19.745   2.536   7.688
 2619POPC   C1B36955  19.522   2.981   8.809
 2619POPC   C2B36956  19.551   3.129   8.392
 2619POPC   C3B36957  19.657   2.913   8.020
 2619POPC   C4B36958  19.664   3.021   7.555
 2620POPC   NC336959  19.307  28.992   9.484
 2620POPC   PO436960  18.773  29.418   9.602
 2620POPC   GL136961  19.009  29.368   9.153
 2620POPC   GL236962  19.289  29.509   9.101
 2620POPC   C1A36963  18.876  29.183   8.689
 2620POPC   D2A36964  18.963  28.959   8.351
 2620POPC   C3A36965  18.784  29.101   7.977
 2620POPC   C4A36966  18.681  29.225   7.572
 2620POPC   C1B36967  19.349  29.310   8.748
 2620POPC   C2B36968  19.249  29.409   8.344
 2620POPC   C3B36969  19.324  29.122   8.028
 2620POPC   C4B36970  19.186  29.064   7.655
 2621POPC   NC336971  18.768  22.305   9.397
 2621POPC   PO436972  18.096  22.216   9.520
 2621POPC   GL136973  18.140  22.200   9.103
 2621POPC   GL236974  18.372  22.453   9.038
 2621POPC   C1A36975  18.245  22.096   8.667
 2621POPC   D2A36976  18.409  21.968   8.281
 2621POPC   C3A36977  18.356  22.189   7.912
 2621POPC   C4A36978  18.470  22.641   7.819
 2621POPC   C1B36979  18.084  22.569   8.687
 2621POPC   C2B36980  18.155  22.581   8.236
 2621POPC   C3B36981  17.930  22.455   7.848
 2621POPC   C4B36982  18.056  22.435   7.392
 2622POPC   NC336983  29.443  39.846   9.538
 2622POPC   PO436984  29.005  40.310   9.517
 2622POPC   GL136985  29.162  40.182   9.123
 2622POPC   GL236986  29.196  39.830   9.088
 2622POPC   C1A36987  29.095  40.186   8.669
 2622POPC   D2A36988  29.086  40.359   8.226
 2622POPC   C3A36989  29.012  40.083   7.876
 2622POPC   C4A36990  29.468  40.030   7.808
 2622POPC   C1B36991  29.376  39.737   8.689
 2622POPC   C2B36992  29.173  39.825   8.303
 2622POPC   C3B36993  29.157  39.606   7.941
 2622POPC   C4B36994  29.394  39.566   7.617
 2623POPC   NC336995  38.399  42.992   9.573
 2623POPC   PO436996  38.270  43.695   9.444
 2623POPC   GL136997  38.292  43.341   9.155
 2623POPC   GL236998  38.633  43.234   9.194
 2623POPC   C1A36999  38.191  43.115   8.760
 2623POPC   D2A37000  38.277  43.215   8.333
 2623POPC   C3A37001  38.095  43.025   7.948
 2623POPC   C4A37002  38.208  43.326   7.624
 2623POPC   C1B37003  38.898  43.320   8.861
 2623POPC   C2B37004  38.816  43.276   8.442
 2623POPC   C3B37005  38.883  43.439   8.043
 2623POPC   C4B37006  38.585  43.203   7.924
 2624POPC   NC337007  18.516  29.528   9.228
 2624POPC   PO437008  18.056  29.896   9.554
 2624POPC   GL137009  18.189  29.898   9.114
 2624POPC   GL237010  18.346  30.201   8.955
 2624POPC   C1A37011  18.046  29.827   8.733
 2624POPC   D2A37012  18.268  29.714   8.414
 2624POPC   C3A37013  18.143  29.813   8.039
 2624POPC   C4A37014  18.402  29.550   7.847
 2624POPC   C1B37015  18.620  30.037   8.639
 2624POPC   C2B37016  18.645  30.001   8.175
 2624POPC   C3B37017  18.644  30.128   7.746
 2624POPC   C4B37018  18.637  30.185   7.282
 2625POPC   NC337019   1.147  21.879   9.646
 2625POPC   PO437020   1.125  22.496   9.515
 2625POPC   GL137021   1.317  22.336   9.168
 2625POPC   GL237022   1.541  22.098   9.337
 2625POPC   C1A37023   1.228  22.318   8.710
 2625POPC   D2A37024   1.075  22.070   8.353
 2625POPC   C3A37025   0.974  22.228   7.983
 2625POPC   C4A37026   0.614  21.994   7.893
 2625POPC   C1B37027   1.524  21.947   8.917
 2625POPC   C2B37028   1.534  21.948   8.476
 2625POPC   C3B37029   1.500  22.096   8.042
 2625POPC   C4B37030   1.507  22.042   7.589
 2626POPC   NC337031   3.608  28.837   9.390
 2626POPC   PO437032   3.697  28.254   9.507
 2626POPC   GL137033   3.432  28.415   9.157
 2626POPC   GL237034   3.725  28.530   9.009
 2626POPC   C1A37035   3.308  28.468   8.725
 2626POPC   D2A37036   3.229  28.280   8.340
 2626POPC   C3A37037   3.219  28.508   7.960
 2626POPC   C4A37038   3.321  28.383   7.528
 2626POPC   C1B37039   3.822  28.393   8.600
 2626POPC   C2B37040   3.721  28.238   8.184
 2626POPC   C3B37041   3.776  28.369   7.769
 2626POPC   C4B37042   3.926  28.138   7.388
 2627POPC   NC337043   1.187  37.120   9.752
 2627POPC   PO437044   1.514  36.645   9.459
 2627POPC   GL137045   1.309  36.976   9.225
 2627POPC   GL237046   1.004  37.154   9.286
 2627POPC   C1A37047   1.452  37.139   8.835
 2627POPC   D2A37048   1.609  36.903   8.485
 2627POPC   C3A37049   1.475  37.035   8.073
 2627POPC   C4A37050   1.519  36.732   7.750
 2627POPC   C1B37051   0.947  37.064   8.865
 2627POPC   C2B37052   1.108  37.062   8.456
 2627POPC   C3B37053   0.976  36.917   8.036
 2627POPC   C4B37054   0.730  37.137   7.754
 2628POPC   NC337055  39.647  25.874   9.505
 2628POPC   PO437056  40.144  26.363   9.704
 2628POPC   GL137057  40.123  26.356   9.251
 2628POPC   GL237058  39.797  26.261   9.219
 2628POPC   C1A37059  40.225  26.171   8.814
 2628POPC   D2A37060  40.137  25.860   8.483
 2628POPC   C3A37061  40.089  26.026   8.048
 2628POPC   C4A37062  40.175  25.812   7.648
 2628POPC   C1B37063  39.707  26.133   8.815
 2628POPC   C2B37064  39.858  26.310   8.432
 2628POPC   C3B37065  39.675  26.351   8.039
 2628POPC   C4B37066  39.681  26.096   7.672
 2629POPC   NC337067  13.250  35.715   9.383
 2629POPC   PO437068  13.185  34.994   9.597
 2629POPC   GL137069  13.377  35.234   9.228
 2629POPC   GL237070  13.673  35.446   9.228
 2629POPC   C1A37071  13.596  35.101   8.831
 2629POPC   D2A37072  13.772  34.934   8.426
 2629POPC   C3A37073  13.636  35.121   8.043
 2629POPC   C4A37074  13.548  35.263   7.640
 2629POPC   C1B37075  13.726  35.595   8.780
 2629POPC   C2B37076  13.786  35.517   8.312
 2629POPC   C3B37077  13.912  35.566   7.836
 2629POPC   C4B37078  13.889  35.541   7.348
 2630POPC   NC337079  30.817   9.784   9.729
 2630POPC   PO437080  30.347  10.054   9.288
 2630POPC   GL137081  30.618   9.751   9.087
 2630POPC   GL237082  30.991   9.644   9.109
 2630POPC   C1A37083  30.448   9.579   8.705
 2630POPC   D2A37084  30.389   9.866   8.358
 2630POPC   C3A37085  30.587   9.866   7.947
 2630POPC   C4A37086  30.863  10.008   7.611
 2630POPC   C1B37087  30.918   9.786   8.681
 2630POPC   C2B37088  30.855   9.565   8.268
 2630POPC   C3B37089  31.080   9.579   7.851
 2630POPC   C4B37090  31.130   9.583   7.377
 2631POPC   NC337091  10.704   1.088   9.563
 2631POPC   PO437092  10.548   1.657   9.711
 2631POPC   GL137093  10.619   1.473   9.258
 2631POPC   GL237094  10.874   1.238   9.102
 2631POPC   C1A37095  10.442   1.357   8.829
 2631POPC   D2A37096  10.314   1.116   8.479
 2631POPC   C3A37097  10.530   1.241   8.107
 2631POPC   C4A37098  10.368   1.298   7.717
 2631POPC   C1B37099  10.717   0.943   8.782
 2631POPC   C2B37100  10.768   0.852   8.375
 2631POPC   C3B37101  10.696   0.762   7.944
 2631POPC   C4B37102  10.714   0.914   7.535
 2632POPC   NC337103  18.381  12.972   9.511
 2632POPC   PO437104  17.803  13.316   9.396
 2632POPC   GL137105  17.930  13.129   9.035
 2632POPC   GL237106  18.284  12.999   8.987
 2632POPC   C1A37107  17.884  13.039   8.615
 2632POPC   D2A37108  18.119  12.762   8.399
 2632POPC   C3A37109  18.258  12.930   8.044
 2632POPC   C4A37110  18.282  12.690   7.695
 2632POPC   C1B37111  18.575  12.947   8.621
 2632POPC   C2B37112  18.753  12.747   8.236
 2632POPC   C3B37113  18.720  12.492   7.842
 2632POPC   C4B37114  18.598  12.458   7.366
 2633POPC   NC337115  34.315  28.115   9.481
 2633POPC   PO437116  34.791  28.473   9.563
 2633POPC   GL137117  34.641  28.426   9.130
 2633POPC   GL237118  34.312  28.494   9.090
 2633POPC   C1A37119  34.573  28.182   8.703
 2633POPC   D2A37120  34.528  27.992   8.236
 2633POPC   C3A37121  34.699  28.270   7.882
 2633POPC   C4A37122  34.972  28.637   7.977
 2633POPC   C1B37123  34.530  28.681   8.700
 2633POPC   C2B37124  34.532  28.523   8.294
 2633POPC   C3B37125  34.197  28.402   8.008
 2633POPC   C4B37126  33.785  28.496   7.772
 2634POPC   NC337127  22.872  14.112   9.486
 2634POPC   PO437128  23.031  14.791   9.335
 2634POPC   GL137129  23.009  14.397   9.087
 2634POPC   GL237130  22.646  14.293   9.070
 2634POPC   C1A37131  23.121  14.242   8.678
 2634POPC   D2A37132  23.160  14.524   8.325
 2634POPC   C3A37133  23.255  14.349   7.929
 2634POPC   C4A37134  23.225  14.580   7.588
 2634POPC   C1B37135  22.672  14.498   8.707
 2634POPC   C2B37136  22.690  14.298   8.355
 2634POPC   C3B37137  22.769  14.466   7.995
 2634POPC   C4B37138  22.680  14.214   7.697
 2635POPC   NC337139  41.031  19.665   9.521
 2635POPC   PO437140  40.676  20.212   9.340
 2635POPC   GL137141  40.879  19.930   9.119
 2635POPC   GL237142  40.682  19.681   9.163
 2635POPC   C1A37143  41.049  19.689   8.794
 2635POPC   D2A37144  41.212  19.658   8.444
 2635POPC   C3A37145  40.931  19.901   8.190
 2635POPC   C4A37146  40.934  19.876   7.747
 2635POPC   C1B37147  40.557  19.627   8.751
 2635POPC   C2B37148  40.390  19.795   8.402
 2635POPC   C3B37149  40.499  19.613   8.039
 2635POPC   C4B37150  40.448  19.745   7.648
 2636POPC   NC337151  29.116   1.941   9.485
 2636POPC   PO437152  29.643   2.432   9.377
 2636POPC   GL137153  29.349   2.184   9.065
 2636POPC   GL237154  29.164   1.845   9.006
 2636POPC   C1A37155  29.186   2.172   8.619
 2636POPC   D2A37156  29.382   1.938   8.293
 2636POPC   C3A37157  29.269   1.995   7.925
 2636POPC   C4A37158  29.416   2.230   7.594
 2636POPC   C1B37159  28.933   1.699   8.691
 2636POPC   C2B37160  28.868   1.808   8.291
 2636POPC   C3B37161  28.873   1.674   7.887
 2636POPC   C4B37162  29.158   1.708   7.523
 2637POPC   NC337163  20.737  44.049   9.441
 2637POPC   PO437164  20.370  43.558   9.417
 2637POPC   GL137165  20.670  43.657   9.126
 2637POPC   GL237166  20.430  43.918   9.009
 2637POPC   C1A37167  20.874  43.834   8.777
 2637POPC   D2A37168  20.603  43.959   8.438
 2637POPC   C3A37169  20.840  43.932   8.099
 2637POPC   C4A37170  20.727  43.762   7.725
 2637POPC   C1B37171  20.381  43.572   8.675
 2637POPC   C2B37172  20.423  43.508   8.203
 2637POPC   C3B37173  20.410  43.377   7.756
 2637POPC   C4B37174  20.396  43.616   7.356
 2638POPC   NC337175   7.588  10.684   9.543
 2638POPC   PO437176   7.252  10.125   9.347
 2638POPC   GL137177   7.208  10.430   9.109
 2638POPC   GL237178   7.499  10.587   9.072
 2638POPC   C1A37179   7.279  10.265   8.715
 2638POPC   D2A37180   7.460  10.300   8.337
 2638POPC   C3A37181   7.160  10.306   7.984
 2638POPC   C4A37182   7.490  10.270   7.672
 2638POPC   C1B37183   7.392  10.767   8.729
 2638POPC   C2B37184   7.590  10.914   8.374
 2638POPC   C3B37185   7.482  10.705   8.021
 2638POPC   C4B37186   7.465  10.814   7.623
 2639POPC   NC337187   2.805   0.010   9.612
 2639POPC   PO437188   2.678  44.365   9.773
 2639POPC   GL137189   2.547  44.599   9.333
 2639POPC   GL237190   2.619  44.941   9.150
 2639POPC   C1A37191   2.401  44.578   8.865
 2639POPC   D2A37192   2.508  44.465   8.423
 2639POPC   C3A37193   2.668  44.671   8.066
 2639POPC   C4A37194   2.436  44.709   7.703
 2639POPC   C1B37195   2.904  44.667   8.877
 2639POPC   C2B37196   3.022  44.714   8.443
 2639POPC   C3B37197   3.171  44.761   8.001
 2639POPC   C4B37198   2.917  44.862   7.607
 2640POPC   NC337199  21.513  32.725   9.463
 2640POPC   PO437200  20.982  33.121   9.599
 2640POPC   GL137201  21.232  33.050   9.192
 2640POPC   GL237202  21.335  33.327   9.071
 2640POPC   C1A37203  21.586  32.969   8.847
 2640POPC   D2A37204  21.688  33.100   8.449
 2640POPC   C3A37205  21.763  32.827   8.102
 2640POPC   C4A37206  21.452  32.802   7.768
 2640POPC   C1B37207  21.157  33.140   8.667
 2640POPC   C2B37208  21.256  33.046   8.215
 2640POPC   C3B37209  21.127  33.231   7.860
 2640POPC   C4B37210  21.164  33.437   7.445
 2641POPC   NC337211   1.753  36.301   9.664
 2641POPC   PO437212   2.264  35.900   9.547
 2641POPC   GL137213   1.914  36.015   9.263
 2641POPC   GL237214   1.691  35.747   9.132
 2641POPC   C1A37215   1.790  36.225   8.860
 2641POPC   D2A37216   1.583  36.352   8.444
 2641POPC   C3A37217   1.794  36.258   8.044
 2641POPC   C4A37218   2.242  36.383   7.923
 2641POPC   C1B37219   2.089  35.776   8.850
 2641POPC   C2B37220   2.278  35.891   8.443
 2641POPC   C3B37221   2.200  35.723   8.024
 2641POPC   C4B37222   1.838  35.833   7.757
 2642POPC   NC337223   8.685  43.241   9.548
 2642POPC   PO437224   9.334  43.107   9.675
 2642POPC   GL137225   9.109  43.134   9.300
 2642POPC   GL237226   9.039  43.467   9.226
 2642POPC   C1A37227   8.954  43.070   8.878
 2642POPC   D2A37228   8.950  43.265   8.477
 2642POPC   C3A37229   9.020  42.968   8.149
 2642POPC   C4A37230   9.333  42.907   7.812
 2642POPC   C1B37231   8.810  43.597   8.850
 2642POPC   C2B37232   8.694  43.768   8.451
 2642POPC   C3B37233   8.710  43.493   8.088
 2642POPC   C4B37234   8.878  43.237   7.749
 2643POPC   NC337235  42.361  14.192   9.698
 2643POPC   PO437236  42.495  14.837   9.706
 2643POPC   GL137237  42.365  14.567   9.325
 2643POPC   GL237238  42.639  14.273   9.292
 2643POPC   C1A37239  42.202  14.600   8.902
 2643POPC   D2A37240  42.089  14.329   8.576
 2643POPC   C3A37241  42.321  14.490   8.243
 2643POPC   C4A37242  42.228  14.584   7.851
 2643POPC   C1B37243  42.436  14.108   8.927
 2643POPC   C2B37244  42.522  14.068   8.475
 2643POPC   C3B37245  42.386  14.037   8.035
 2643POPC   C4B37246  42.656  14.336   7.781
 2644POPC   NC337247  23.221  13.175   9.481
 2644POPC   PO437248  23.227  13.832   9.487
 2644POPC   GL137249  22.875  13.709   9.203
 2644POPC   GL237250  22.999  13.437   9.115
 2644POPC   C1A37251  22.786  13.873   8.802
 2644POPC   D2A37252  22.755  13.726   8.408
 2644POPC   C3A37253  23.040  13.940   8.180
 2644POPC   C4A37254  23.077  13.875   7.750
 2644POPC   C1B37255  22.754  13.367   8.805
 2644POPC   C2B37256  22.774  13.165   8.465
 2644POPC   C3B37257  22.831  13.275   8.091
 2644POPC   C4B37258  23.112  13.113   7.817
 2645POPC   NC337259   3.748   3.067   9.475
 2645POPC   PO437260   3.780   3.755   9.417
 2645POPC   GL137261   3.897   3.468   9.127
 2645POPC   GL237262   4.061   3.767   8.953
 2645POPC   C1A37263   3.652   3.204   8.800
 2645POPC   D2A37264   3.375   3.261   8.410
 2645POPC   C3A37265   3.490   3.563   8.111
 2645POPC   C4A37266   3.647   3.810   7.767
 2645POPC   C1B37267   3.659   3.744   8.719
 2645POPC   C2B37268   3.347   3.959   8.444
 2645POPC   C3B37269   3.169   3.969   8.015
 2645POPC   C4B37270   3.214   3.929   7.558
 2646POPC   NC337271  31.955  27.744   9.829
 2646POPC   PO437272  32.043  27.241   9.429
 2646POPC   GL137273  32.201  27.554   9.131
 2646POPC   GL237274  32.528  27.730   9.159
 2646POPC   C1A37275  32.092  27.770   8.732
 2646POPC   D2A37276  31.878  27.784   8.318
 2646POPC   C3A37277  32.092  27.736   7.934
 2646POPC   C4A37278  32.372  27.404   7.793
 2646POPC   C1B37279  32.533  27.475   8.757
 2646POPC   C2B37280  32.377  27.597   8.337
 2646POPC   C3B37281  32.588  27.831   7.999
 2646POPC   C4B37282  32.799  27.966   7.624
 2647POPC   NC337283  42.831  43.000   9.325
 2647POPC   PO437284  42.226  42.837   9.513
 2647POPC   GL137285  42.306  43.063   9.149
 2647POPC   GL237286  42.522  43.348   9.126
 2647POPC   C1A37287  42.057  43.196   8.793
 2647POPC   D2A37288  42.200  43.099   8.387
 2647POPC   C3A37289  41.956  43.008   8.059
 2647POPC   C4A37290  42.069  43.041   7.681
 2647POPC   C1B37291  42.579  43.156   8.736
 2647POPC   C2B37292  42.723  43.111   8.364
 2647POPC   C3B37293  42.652  42.948   8.012
 2647POPC   C4B37294  42.712  43.114   7.654
 2648POPC   NC337295  18.856  40.653  10.138
 2648POPC   PO437296  19.142  40.881   9.533
 2648POPC   GL137297  19.114  40.907   9.108
 2648POPC   GL237298  19.350  41.132   9.055
 2648POPC   C1A37299  18.943  40.698   8.749
 2648POPC   D2A37300  19.065  40.510   8.354
 2648POPC   C3A37301  18.856  40.704   7.991
 2648POPC   C4A37302  18.908  40.592   7.557
 2648POPC   C1B37303  19.335  40.989   8.632
 2648POPC   C2B37304  19.323  40.911   8.197
 2648POPC   C3B37305  19.333  40.638   7.860
 2648POPC   C4B37306  19.289  40.972   7.590
 2649POPC   NC337307  39.841  22.750   9.697
 2649POPC   PO437308  40.424  23.029   9.570
 2649POPC   GL137309  40.146  22.820   9.303
 2649POPC   GL237310  40.016  23.097   9.177
 2649POPC   C1A37311  40.023  22.648   8.896
 2649POPC   D2A37312  39.898  22.510   8.487
 2649POPC   C3A37313  40.040  22.764   8.140
 2649POPC   C4A37314  39.928  22.802   7.738
 2649POPC   C1B37315  39.887  23.132   8.790
 2649POPC   C2B37316  40.039  23.199   8.404
 2649POPC   C3B37317  39.824  23.270   8.022
 2649POPC   C4B37318  39.621  23.186   7.611
 2650POPC   NC337319  18.897   3.358   9.536
 2650POPC   PO437320  18.911   3.946   9.172
 2650POPC   GL137321  18.898   3.523   9.052
 2650POPC   GL237322  19.224   3.399   9.134
 2650POPC   C1A37323  18.619   3.323   8.776
 2650POPC   D2A37324  18.590   3.386   8.340
 2650POPC   C3A37325  18.798   3.220   7.970
 2650POPC   C4A37326  18.983   3.596   7.801
 2650POPC   C1B37327  19.300   3.455   8.709
 2650POPC   C2B37328  19.146   3.434   8.287
 2650POPC   C3B37329  19.370   3.316   7.912
 2650POPC   C4B37330  19.540   3.516   7.529
 2651POPC   NC337331  38.851  16.922   9.534
 2651POPC   PO437332  39.510  16.664   9.563
 2651POPC   GL137333  39.250  16.804   9.200
 2651POPC   GL237334  38.985  16.575   9.138
 2651POPC   C1A37335  39.082  17.011   8.807
 2651POPC   D2A37336  39.239  17.163   8.390
 2651POPC   C3A37337  39.387  16.810   8.135
 2651POPC   C4A37338  39.384  16.821   7.700
 2651POPC   C1B37339  38.864  16.533   8.729
 2651POPC   C2B37340  38.876  16.802   8.362
 2651POPC   C3B37341  38.920  16.931   7.968
 2651POPC   C4B37342  38.898  16.804   7.543
 2652POPC   NC337343  31.167  20.853   9.683
 2652POPC   PO437344  31.812  20.585   9.698
 2652POPC   GL137345  31.546  20.771   9.323
 2652POPC   GL237346  31.207  20.638   9.220
 2652POPC   C1A37347  31.528  20.736   8.853
 2652POPC   D2A37348  31.482  20.546   8.459
 2652POPC   C3A37349  31.499  20.756   8.058
 2652POPC   C4A37350  31.531  20.607   7.622
 2652POPC   C1B37351  31.045  20.514   8.783
 2652POPC   C2B37352  30.995  20.568   8.318
 2652POPC   C3B37353  31.060  20.582   7.858
 2652POPC   C4B37354  31.063  20.394   7.422
 2653POPC   NC337355  39.461  36.395   9.525
 2653POPC   PO437356  38.900  36.057   9.577
 2653POPC   GL137357  39.141  36.111   9.235
 2653POPC   GL237358  38.996  36.441   9.154
 2653POPC   C1A37359  39.366  35.891   8.919
 2653POPC   D2A37360  39.336  35.845   8.462
 2653POPC   C3A37361  39.366  35.977   8.037
 2653POPC   C4A37362  39.467  35.868   7.605
 2653POPC   C1B37363  39.096  36.289   8.749
 2653POPC   C2B37364  39.120  36.453   8.341
 2653POPC   C3B37365  38.945  36.300   7.981
 2653POPC   C4B37366  39.126  36.216   7.621
 2654POPC   NC337367  31.085  35.285   9.422
 2654POPC   PO437368  30.519  34.969   9.611
 2654POPC   GL137369  30.654  35.182   9.171
 2654POPC   GL237370  30.973  35.006   9.021
 2654POPC   C1A37371  30.802  35.413   8.747
 2654POPC   D2A37372  30.965  35.363   8.273
 2654POPC   C3A37373  30.627  35.331   7.895
 2654POPC   C4A37374  30.640  35.460   7.431
 2654POPC   C1B37375  30.940  34.919   8.573
 2654POPC   C2B37376  30.817  34.903   8.127
 2654POPC   C3B37377  31.002  35.013   7.738
 2654POPC   C4B37378  30.990  35.078   7.307
 2655POPC   NC337379   8.668  20.111   9.658
 2655POPC   PO437380   8.044  20.091   9.793
 2655POPC   GL137381   8.256  20.176   9.347
 2655POPC   GL237382   8.252  19.884   9.144
 2655POPC   C1A37383   8.230  20.285   8.844
 2655POPC   D2A37384   8.346  20.101   8.423
 2655POPC   C3A37385   8.141  20.185   8.021
 2655POPC   C4A37386   8.205  20.019   7.611
 2655POPC   C1B37387   7.946  19.866   8.783
 2655POPC   C2B37388   7.911  19.792   8.332
 2655POPC   C3B37389   8.221  19.684   8.023
 2655POPC   C4B37390   8.189  19.407   7.692
 2656POPC   NC337391  10.214  39.592   9.266
 2656POPC   PO437392  10.311  39.008   9.611
 2656POPC   GL137393  10.392  39.102   9.192
 2656POPC   GL237394  10.679  39.295   9.274
 2656POPC   C1A37395  10.355  39.172   8.720
 2656POPC   D2A37396  10.462  39.372   8.293
 2656POPC   C3A37397  10.282  39.376   7.863
 2656POPC   C4A37398  10.346  39.363   7.398
 2656POPC   C1B37399  10.809  39.369   8.847
 2656POPC   C2B37400  10.951  39.317   8.414
 2656POPC   C3B37401  10.887  39.557   8.026
 2656POPC   C4B37402  10.806  39.377   7.630
 2657POPC   NC337403  14.983  25.706   9.455
 2657POPC   PO437404  15.524  25.301   9.439
 2657POPC   GL137405  15.246  25.416   9.098
 2657POPC   GL237406  14.928  25.191   9.068
 2657POPC   C1A37407  15.205  25.271   8.668
 2657POPC   D2A37408  15.030  25.193   8.292
 2657POPC   C3A37409  15.316  25.131   7.965
 2657POPC   C4A37410  15.608  25.340   7.677
 2657POPC   C1B37411  14.755  24.920   8.680
 2657POPC   C2B37412  14.559  25.016   8.240
 2657POPC   C3B37413  14.784  25.041   7.866
 2657POPC   C4B37414  14.768  25.179   7.462
 2658POPC   NC337415  12.311  22.069   9.376
 2658POPC   PO437416  11.683  22.118   9.454
 2658POPC   GL137417  11.876  22.090   9.100
 2658POPC   GL237418  12.044  22.400   9.066
 2658POPC   C1A37419  12.038  22.025   8.706
 2658POPC   D2A37420  11.886  22.152   8.316
 2658POPC   C3A37421  11.966  21.926   7.949
 2658POPC   C4A37422  12.374  22.005   7.820
 2658POPC   C1B37423  11.742  22.446   8.715
 2658POPC   C2B37424  11.838  22.654   8.306
 2658POPC   C3B37425  12.101  22.446   7.963
 2658POPC   C4B37426  12.012  22.245   7.553
 2659POPC   NC337427  19.360  21.805   9.628
 2659POPC   PO437428  19.194  22.499   9.458
 2659POPC   GL137429  19.160  22.078   9.189
 2659POPC   GL237430  19.306  21.738   9.146
 2659POPC   C1A37431  18.948  21.989   8.812
 2659POPC   D2A37432  18.829  22.218   8.457
 2659POPC   C3A37433  18.899  22.079   8.046
 2659POPC   C4A37434  18.799  22.270   7.666
 2659POPC   C1B37435  19.512  21.792   8.811
 2659POPC   C2B37436  19.288  21.890   8.441
 2659POPC   C3B37437  19.406  21.836   8.050
 2659POPC   C4B37438  19.251  21.940   7.676
 2660POPC   NC337439  41.376  14.086   9.564
 2660POPC   PO437440  41.758  13.543   9.407
 2660POPC   GL137441  41.701  13.871   9.143
 2660POPC   GL237442  41.351  13.808   9.151
 2660POPC   C1A37443  41.632  13.865   8.689
 2660POPC   D2A37444  41.422  13.537   8.412
 2660POPC   C3A37445  41.573  13.494   7.959
 2660POPC   C4A37446  41.856  13.798   7.749
 2660POPC   C1B37447  41.124  13.852   8.813
 2660POPC   C2B37448  41.201  14.016   8.453
 2660POPC   C3B37449  41.442  13.962   8.116
 2660POPC   C4B37450  41.380  14.006   7.714
 2661POPC   NC337451  16.593  25.737   9.512
 2661POPC   PO437452  17.210  26.131   9.482
 2661POPC   GL137453  17.001  25.999   9.077
 2661POPC   GL237454  16.641  26.013   9.093
 2661POPC   C1A37455  16.861  25.883   8.626
 2661POPC   D2A37456  16.691  25.693   8.219
 2661POPC   C3A37457  16.905  25.872   7.858
 2661POPC   C4A37458  17.051  26.138   7.517
 2661POPC   C1B37459  16.504  26.220   8.734
 2661POPC   C2B37460  16.382  26.088   8.319
 2661POPC   C3B37461  16.524  26.233   7.918
 2661POPC   C4B37462  16.252  26.323   7.606
 2662POPC   NC337463  41.511  27.358   9.568
 2662POPC   PO437464  41.490  27.989   9.388
 2662POPC   GL137465  41.608  27.690   9.114
 2662POPC   GL237466  41.417  27.434   9.086
 2662POPC   C1A37467  41.531  27.800   8.680
 2662POPC   D2A37468  41.701  28.021   8.312
 2662POPC   C3A37469  41.536  27.927   7.928
 2662POPC   C4A37470  41.716  27.783   7.576
 2662POPC   C1B37471  41.548  27.290   8.701
 2662POPC   C2B37472  41.524  27.467   8.284
 2662POPC   C3B37473  41.589  27.370   7.859
 2662POPC   C4B37474  41.392  27.395   7.478
 2663POPC   NC337475  18.850  27.487   9.349
 2663POPC   PO437476  19.413  27.922   9.442
 2663POPC   GL137477  19.179  27.808   9.101
 2663POPC   GL237478  19.225  27.470   9.015
 2663POPC   C1A37479  18.937  27.779   8.714
 2663POPC   D2A37480  18.892  27.614   8.308
 2663POPC   C3A37481  18.844  27.869   7.950
 2663POPC   C4A37482  19.086  27.784   7.580
 2663POPC   C1B37483  19.210  27.331   8.621
 2663POPC   C2B37484  19.395  27.479   8.259
 2663POPC   C3B37485  19.172  27.402   7.911
 2663POPC   C4B37486  19.155  27.021   7.737
 2664POPC   NC337487   0.729  27.162   9.433
 2664POPC   PO437488   0.357  26.630   9.363
 2664POPC   GL137489   0.402  26.922   9.119
 2664POPC   GL237490   0.107  27.084   9.154
 2664POPC   C1A37491   0.526  26.811   8.730
 2664POPC   D2A37492   0.761  26.856   8.396
 2664POPC   C3A37493   0.578  26.927   8.025
 2664POPC   C4A37494   0.792  26.938   7.668
 2664POPC   C1B37495   0.174  27.167   8.747
 2664POPC   C2B37496   0.197  26.979   8.381
 2664POPC   C3B37497   0.120  27.192   8.051
 2664POPC   C4B37498   0.093  26.939   7.750
 2665POPC   NC337499   1.351   2.843   9.610
 2665POPC   PO437500   1.737   2.388   9.311
 2665POPC   GL137501   1.311   2.551   9.179
 2665POPC   GL237502   1.003   2.805   9.254
 2665POPC   C1A37503   1.277   2.847   8.817
 2665POPC   D2A37504   1.311   3.064   8.406
 2665POPC   C3A37505   1.416   2.825   8.007
 2665POPC   C4A37506   1.307   2.662   7.564
 2665POPC   C1B37507   0.798   2.963   8.918
 2665POPC   C2B37508   0.842   2.850   8.515
 2665POPC   C3B37509   0.908   2.909   8.090
 2665POPC   C4B37510   0.934   3.253   7.796
 2666POPC   NC337511   9.701  24.780   9.713
 2666POPC   PO437512   9.796  25.430   9.853
 2666POPC   GL137513   9.741  25.275   9.330
 2666POPC   GL237514  10.065  25.141   9.129
 2666POPC   C1A37515   9.737  25.384   8.826
 2666POPC   D2A37516   9.843  25.706   8.455
 2666POPC   C3A37517   9.821  25.655   7.986
 2666POPC   C4A37518   9.715  25.230   7.807
 2666POPC   C1B37519  10.090  25.033   8.689
 2666POPC   C2B37520  10.042  25.141   8.251
 2666POPC   C3B37521  10.105  24.883   7.893
 2666POPC   C4B37522   9.819  24.760   7.562
 2667POPC   NC337523  28.997   6.416   9.643
 2667POPC   PO437524  29.635   6.333   9.416
 2667POPC   GL137525  29.298   6.576   9.226
 2667POPC   GL237526  29.183   6.925   9.316
 2667POPC   C1A37527  29.005   6.565   8.880
 2667POPC   D2A37528  28.956   6.434   8.431
 2667POPC   C3A37529  29.145   6.551   8.046
 2667POPC   C4A37530  29.021   6.417   7.629
 2667POPC   C1B37531  28.873   7.049   8.984
 2667POPC   C2B37532  28.735   6.910   8.563
 2667POPC   C3B37533  28.683   6.933   8.109
 2667POPC   C4B37534  28.914   6.927   7.710
 2668POPC   NC337535  13.954   1.152   9.735
 2668POPC   PO437536  13.405   1.311   9.483
 2668POPC   GL137537  13.642   1.043   9.221
 2668POPC   GL237538  13.813   1.303   9.087
 2668POPC   C1A37539  13.652   0.840   8.808
 2668POPC   D2A37540  13.463   0.949   8.390
 2668POPC   C3A37541  13.693   0.887   8.017
 2668POPC   C4A37542  13.627   0.929   7.554
 2668POPC   C1B37543  13.599   1.350   8.702
 2668POPC   C2B37544  13.531   1.472   8.254
 2668POPC   C3B37545  13.470   1.381   7.797
 2668POPC   C4B37546  13.689   1.394   7.357
 2669POPC   NC337547  42.032  43.272   9.514
 2669POPC   PO437548  41.423  43.607   9.447
 2669POPC   GL137549  41.651  43.322   9.170
 2669POPC   GL237550  41.788  42.949   9.155
 2669POPC   C1A37551  41.510  43.282   8.783
 2669POPC   D2A37552  41.647  43.157   8.417
 2669POPC   C3A37553  41.666  43.407   8.042
 2669POPC   C4A37554  41.572  43.125   7.709
 2669POPC   C1B37555  41.546  42.751   8.788
 2669POPC   C2B37556  41.292  42.781   8.405
 2669POPC   C3B37557  41.401  42.680   7.966
 2669POPC   C4B37558  41.386  42.692   7.501
 2670POPC   NC337559  37.981  44.051   9.478
 2670POPC   PO437560  37.335  43.796   9.600
 2670POPC   GL137561  37.400  43.833   9.162
 2670POPC   GL237562  37.737  43.724   9.142
 2670POPC   C1A37563  37.380  43.931   8.710
 2670POPC   D2A37564  37.636  43.935   8.309
 2670POPC   C3A37565  37.465  43.836   7.894
 2670POPC   C4A37566  37.568  44.032   7.485
 2670POPC   C1B37567  37.994  43.833   8.780
 2670POPC   C2B37568  38.087  43.697   8.339
 2670POPC   C3B37569  37.957  43.715   7.877
 2670POPC   C4B37570  37.854  43.615   7.401
 2671POPC   NC337571  18.593  24.258   9.435
 2671POPC   PO437572  18.365  24.920   9.535
 2671POPC   GL137573  18.216  24.571   9.220
 2671POPC   GL237574  18.471  24.528   9.016
 2671POPC   C1A37575  18.085  24.330   8.770
 2671POPC   D2A37576  18.189  24.165   8.338
 2671POPC   C3A37577  18.205  24.477   8.072
 2671POPC   C4A37578  18.088  24.564   7.672
 2671POPC   C1B37579  18.554  24.444   8.591
 2671POPC   C2B37580  18.637  24.700   8.245
 2671POPC   C3B37581  18.589  24.684   7.806
 2671POPC   C4B37582  18.528  24.420   7.468
 2672POPC   NC337583   8.890   3.012   9.927
 2672POPC   PO437584   9.062   3.575   9.547
 2672POPC   GL137585   9.174   3.285   9.185
 2672POPC   GL237586   9.392   3.487   9.049
 2672POPC   C1A37587   9.165   3.157   8.743
 2672POPC   D2A37588   8.973   3.333   8.398
 2672POPC   C3A37589   9.039   3.303   7.975
 2672POPC   C4A37590   8.693   3.169   7.722
 2672POPC   C1B37591   9.035   3.651   8.829
 2672POPC   C2B37592   8.993   3.847   8.427
 2672POPC   C3B37593   8.857   3.823   8.015
 2672POPC   C4B37594   9.133   4.058   7.789
 2673POPC   NC337595  23.245  29.196   9.768
 2673POPC   PO437596  23.950  29.112   9.644
 2673POPC   GL137597  23.817  29.003   9.218
 2673POPC   GL237598  24.124  28.858   9.159
 2673POPC   C1A37599  23.723  29.200   8.829
 2673POPC   D2A37600  23.555  29.362   8.446
 2673POPC   C3A37601  23.531  29.095   8.104
 2673POPC   C4A37602  23.464  29.161   7.695
 2673POPC   C1B37603  24.021  28.779   8.737
 2673POPC   C2B37604  24.008  29.112   8.395
 2673POPC   C3B37605  24.010  29.119   7.943
 2673POPC   C4B37606  24.028  28.956   7.513
 2674POPC   NC337607  38.036  17.339   5.520
 2674POPC   PO437608  37.912  16.670   5.526
 2674POPC   GL137609  37.740  16.597   5.922
 2674POPC   GL237610  37.391  16.650   5.842
 2674POPC   C1A37611  37.870  16.573   6.381
 2674POPC   D2A37612  37.915  16.839   6.758
 2674POPC   C3A37613  37.652  16.813   7.152
 2674POPC   C4A37614  37.595  16.478   7.441
 2674POPC   C1B37615  37.394  16.736   6.305
 2674POPC   C2B37616  37.432  16.598   6.735
 2674POPC   C3B37617  37.205  16.527   7.114
 2674POPC   C4B37618  37.111  16.665   7.516
 2675POPC   NC337619  35.436  20.796   5.308
 2675POPC   PO437620  35.101  20.267   5.431
 2675POPC   GL137621  35.424  20.429   5.704
 2675POPC   GL237622  35.591  20.121   5.801
 2675POPC   C1A37623  35.405  20.629   6.134
 2675POPC   D2A37624  35.093  20.699   6.455
 2675POPC   C3A37625  35.218  20.674   6.899
 2675POPC   C4A37626  35.520  20.822   7.206
 2675POPC   C1B37627  35.336  20.128   6.140
 2675POPC   C2B37628  35.419  20.281   6.535
 2675POPC   C3B37629  35.320  20.170   6.912
 2675POPC   C4B37630  35.306  20.360   7.307
 2676POPC   NC337631  40.546  13.295   5.480
 2676POPC   PO437632  41.199  13.564   5.393
 2676POPC   GL137633  40.922  13.599   5.747
 2676POPC   GL237634  41.020  13.917   5.910
 2676POPC   C1A37635  40.712  13.488   6.127
 2676POPC   D2A37636  40.556  13.296   6.500
 2676POPC   C3A37637  40.691  13.403   6.927
 2676POPC   C4A37638  40.715  13.537   7.395
 2676POPC   C1B37639  40.671  14.003   6.204
 2676POPC   C2B37640  40.575  13.871   6.640
 2676POPC   C3B37641  40.708  13.896   7.043
 2676POPC   C4B37642  41.094  13.935   7.304
 2677POPC   NC337643  21.728  13.920   5.450
 2677POPC   PO437644  22.094  13.350   5.400
 2677POPC   GL137645  22.363  13.332   5.799
 2677POPC   GL237646  22.420  13.700   5.904
 2677POPC   C1A37647  22.221  13.372   6.250
 2677POPC   D2A37648  22.039  13.610   6.584
 2677POPC   C3A37649  22.078  13.499   7.016
 2677POPC   C4A37650  21.863  13.668   7.366
 2677POPC   C1B37651  22.406  13.863   6.309
 2677POPC   C2B37652  22.355  13.988   6.714
 2677POPC   C3B37653  22.485  13.778   7.054
 2677POPC   C4B37654  22.710  13.840   7.363
 2678POPC   NC337655  11.358  43.437   5.140
 2678POPC   PO437656  11.111  42.882   5.484
 2678POPC   GL137657  11.114  43.073   5.851
 2678POPC   GL237658  11.453  43.004   5.937
 2678POPC   C1A37659  11.090  42.883   6.261
 2678POPC   D2A37660  11.388  42.917   6.582
 2678POPC   C3A37661  11.237  43.013   6.968
 2678POPC   C4A37662  11.494  43.001   7.338
 2678POPC   C1B37663  11.459  43.306   6.237
 2678POPC   C2B37664  11.280  43.428   6.630
 2678POPC   C3B37665  11.552  43.410   7.003
 2678POPC   C4B37666  11.679  43.485   7.435
 2679POPC   NC337667  34.801  10.786   4.822
 2679POPC   PO437668  34.460  10.717   5.349
 2679POPC   GL137669  34.399  10.616   5.799
 2679POPC   GL237670  34.331  10.277   5.695
 2679POPC   C1A37671  34.566  10.653   6.257
 2679POPC   D2A37672  34.437  10.781   6.695
 2679POPC   C3A37673  34.619  10.624   7.067
 2679POPC   C4A37674  34.643  10.692   7.496
 2679POPC   C1B37675  34.358  10.193   6.156
 2679POPC   C2B37676  34.497  10.001   6.569
 2679POPC   C3B37677  34.586  10.106   7.006
 2679POPC   C4B37678  34.412  10.249   7.388
 2680POPC   NC337679  26.953   3.490   5.583
 2680POPC   PO437680  26.417   3.804   5.475
 2680POPC   GL137681  26.583   3.710   5.901
 2680POPC   GL237682  26.683   3.360   6.010
 2680POPC   C1A37683  26.550   3.755   6.355
 2680POPC   D2A37684  26.798   3.509   6.661
 2680POPC   C3A37685  26.904   3.681   7.065
 2680POPC   C4A37686  26.815   3.570   7.482
 2680POPC   C1B37687  27.068   3.155   6.166
 2680POPC   C2B37688  27.147   3.026   6.578
 2680POPC   C3B37689  27.122   3.228   6.979
 2680POPC   C4B37690  26.682   3.206   7.103
 2681POPC   NC337691   3.758  13.030   5.397
 2681POPC   PO437692   3.286  12.572   5.448
 2681POPC   GL137693   3.420  12.812   5.747
 2681POPC   GL237694   3.746  12.716   5.845
 2681POPC   C1A37695   3.318  12.676   6.135
 2681POPC   D2A37696   3.532  12.656   6.499
 2681POPC   C3A37697   3.260  12.621   6.820
 2681POPC   C4A37698   3.331  12.803   7.195
 2681POPC   C1B37699   3.670  13.047   6.163
 2681POPC   C2B37700   3.842  13.104   6.583
 2681POPC   C3B37701   3.830  12.840   6.923
 2681POPC   C4B37702   3.795  12.971   7.321
 2682POPC   NC337703  23.158  28.515   5.538
 2682POPC   PO437704  22.506  28.540   5.330
 2682POPC   GL137705  22.680  28.571   5.787
 2682POPC   GL237706  23.028  28.693   5.977
 2682POPC   C1A37707  22.611  28.592   6.224
 2682POPC   D2A37708  22.683  28.287   6.542
 2682POPC   C3A37709  22.896  28.468   6.866
 2682POPC   C4A37710  22.878  28.286   7.271
 2682POPC   C1B37711  23.131  28.358   6.287
 2682POPC   C2B37712  23.222  28.124   6.703
 2682POPC   C3B37713  23.360  28.332   7.113
 2682POPC   C4B37714  23.374  28.360   7.613
 2683POPC   NC337715  19.060  41.281   5.416
 2683POPC   PO437716  19.518  41.798   5.505
 2683POPC   GL137717  19.322  41.523   5.790
 2683POPC   GL237718  18.946  41.605   5.788
 2683POPC   C1A37719  19.233  41.535   6.210
 2683POPC   D2A37720  19.434  41.606   6.574
 2683POPC   C3A37721  19.248  41.620   6.962
 2683POPC   C4A37722  19.334  41.344   7.252
 2683POPC   C1B37723  18.728  41.424   6.144
 2683POPC   C2B37724  18.729  41.198   6.541
 2683POPC   C3B37725  18.666  41.182   6.971
 2683POPC   C4B37726  18.837  41.456   7.229
 2684POPC   NC337727   2.386  19.647   5.383
 2684POPC   PO437728   3.011  19.996   5.149
 2684POPC   GL137729   2.957  19.872   5.621
 2684POPC   GL237730   3.096  19.536   5.759
 2684POPC   C1A37731   2.709  19.783   6.029
 2684POPC   D2A37732   2.655  19.723   6.516
 2684POPC   C3A37733   2.567  20.012   6.894
 2684POPC   C4A37734   2.783  19.997   7.320
 2684POPC   C1B37735   3.084  19.491   6.242
 2684POPC   C2B37736   3.055  19.449   6.729
 2684POPC   C3B37737   2.746  19.545   7.070
 2684POPC   C4B37738   2.797  19.521   7.545
 2685POPC   NC337739   1.407  33.312   5.353
 2685POPC   PO437740   0.895  32.836   5.309
 2685POPC   GL137741   0.995  33.023   5.757
 2685POPC   GL237742   1.331  33.217   5.848
 2685POPC   C1A37743   1.080  33.053   6.236
 2685POPC   D2A37744   1.010  33.386   6.560
 2685POPC   C3A37745   1.012  33.180   6.958
 2685POPC   C4A37746   1.391  33.005   7.117
 2685POPC   C1B37747   1.468  33.433   6.272
 2685POPC   C2B37748   1.499  33.388   6.768
 2685POPC   C3B37749   1.594  33.452   7.247
 2685POPC   C4B37750   1.458  33.315   7.721
 2686POPC   NC337751   0.882   0.876   5.317
 2686POPC   PO437752   0.572   1.501   5.366
 2686POPC   GL137753   0.531   1.185   5.689
 2686POPC   GL237754   0.715   1.374   5.917
 2686POPC   C1A37755   0.284   1.107   6.081
 2686POPC   D2A37756   0.360   1.454   6.398
 2686POPC   C3A37757   0.237   1.422   6.854
 2686POPC   C4A37758   0.167   1.136   7.192
 2686POPC   C1B37759   0.761   0.946   6.126
 2686POPC   C2B37760   0.588   0.898   6.535
 2686POPC   C3B37761   0.787   1.006   6.901
 2686POPC   C4B37762   0.682   1.233   7.233
 2687POPC   NC337763  17.267  10.997   5.265
 2687POPC   PO437764  17.850  11.077   5.471
 2687POPC   GL137765  17.452  11.265   5.655
 2687POPC   GL237766  17.522  11.596   5.641
 2687POPC   C1A37767  17.208  11.452   6.026
 2687POPC   D2A37768  17.401  11.433   6.428
 2687POPC   C3A37769  17.336  11.501   6.858
 2687POPC   C4A37770  17.306  11.124   7.098
 2687POPC   C1B37771  17.710  11.636   6.073
 2687POPC   C2B37772  17.819  11.693   6.540
 2687POPC   C3B37773  17.855  11.544   6.983
 2687POPC   C4B37774  17.621  11.446   7.349
 2688POPC   NC337775  37.536   4.247   5.707
 2688POPC   PO437776  37.975   3.994   5.251
 2688POPC   GL137777  38.013   4.368   5.768
 2688POPC   GL237778  38.007   4.179   6.149
 2688POPC   C1A37779  37.833   4.627   6.192
 2688POPC   D2A37780  37.605   4.435   6.523
 2688POPC   C3A37781  37.633   4.590   6.922
 2688POPC   C4A37782  37.834   4.424   7.266
 2688POPC   C1B37783  37.647   3.950   6.306
 2688POPC   C2B37784  37.363   3.968   6.600
 2688POPC   C3B37785  37.456   4.121   6.979
 2688POPC   C4B37786  37.558   3.999   7.354
 2689POPC   NC337787  10.511  33.434   5.538
 2689POPC   PO437788  10.653  34.180   5.508
 2689POPC   GL137789  10.542  33.971   5.882
 2689POPC   GL237790  10.249  33.750   5.859
 2689POPC   C1A37791  10.461  33.955   6.333
 2689POPC   D2A37792  10.729  34.011   6.702
 2689POPC   C3A37793  10.859  33.655   6.951
 2689POPC   C4A37794  10.790  33.550   7.362
 2689POPC   C1B37795  10.215  33.497   6.271
 2689POPC   C2B37796  10.413  33.559   6.697
 2689POPC   C3B37797  10.350  33.722   7.128
 2689POPC   C4B37798  10.245  33.527   7.525
 2690POPC   NC337799  33.827  36.397   5.094
 2690POPC   PO437800  33.726  37.086   5.303
 2690POPC   GL137801  33.708  37.176   5.747
 2690POPC   GL237802  33.751  36.853   5.874
 2690POPC   C1A37803  33.946  37.198   6.184
 2690POPC   D2A37804  34.099  37.041   6.585
 2690POPC   C3A37805  34.035  37.153   7.002
 2690POPC   C4A37806  33.728  37.011   7.244
 2690POPC   C1B37807  33.588  36.649   6.225
 2690POPC   C2B37808  33.505  36.422   6.602
 2690POPC   C3B37809  33.580  36.617   6.950
 2690POPC   C4B37810  33.379  36.654   7.285
 2691POPC   NC337811  35.438  40.539   5.392
 2691POPC   PO437812  35.196  41.205   5.447
 2691POPC   GL137813  35.448  41.161   5.808
 2691POPC   GL237814  35.586  40.803   5.806
 2691POPC   C1A37815  35.528  41.055   6.240
 2691POPC   D2A37816  35.359  40.799   6.570
 2691POPC   C3A37817  35.228  40.941   7.008
 2691POPC   C4A37818  35.402  40.791   7.420
 2691POPC   C1B37819  35.774  40.580   6.170
 2691POPC   C2B37820  35.655  40.383   6.569
 2691POPC   C3B37821  35.591  40.556   6.969
 2691POPC   C4B37822  35.870  40.606   7.310
 2692POPC   NC337823  36.164  30.425   5.356
 2692POPC   PO437824  35.770  29.862   5.254
 2692POPC   GL137825  35.925  29.854   5.724
 2692POPC   GL237826  36.181  30.120   5.788
 2692POPC   C1A37827  35.987  29.836   6.197
 2692POPC   D2A37828  36.142  30.037   6.577
 2692POPC   C3A37829  36.163  29.867   6.950
 2692POPC   C4A37830  36.089  29.996   7.344
 2692POPC   C1B37831  36.127  30.344   6.180
 2692POPC   C2B37832  36.339  30.507   6.579
 2692POPC   C3B37833  36.408  30.315   7.022
 2692POPC   C4B37834  36.471  30.267   7.506
 2693POPC   NC337835  25.883  12.646   4.990
 2693POPC   PO437836  26.104  13.141   5.444
 2693POPC   GL137837  26.158  12.995   5.833
 2693POPC   GL237838  25.844  12.813   5.892
 2693POPC   C1A37839  26.268  12.772   6.203
 2693POPC   D2A37840  26.111  12.567   6.558
 2693POPC   C3A37841  26.299  12.731   6.916
 2693POPC   C4A37842  26.325  13.087   7.139
 2693POPC   C1B37843  25.848  13.086   6.250
 2693POPC   C2B37844  26.005  13.066   6.653
 2693POPC   C3B37845  25.826  12.955   7.067
 2693POPC   C4B37846  25.733  13.049   7.506
 2694POPC   NC337847   1.067  14.876   5.478
 2694POPC   PO437848   1.514  14.382   5.418
 2694POPC   GL137849   1.141  14.378   5.705
 2694POPC   GL237850   1.027  14.647   5.949
 2694POPC   C1A37851   1.087  14.130   6.065
 2694POPC   D2A37852   1.251  14.115   6.462
 2694POPC   C3A37853   1.156  14.357   6.798
 2694POPC   C4A37854   1.109  14.276   7.223
 2694POPC   C1B37855   1.435  14.514   6.145
 2694POPC   C2B37856   1.631  14.448   6.586
 2694POPC   C3B37857   1.521  14.541   7.075
 2694POPC   C4B37858   1.341  14.886   7.350
 2695POPC   NC337859   9.163  33.345   5.509
 2695POPC   PO437860   8.563  33.055   5.340
 2695POPC   GL137861   8.847  32.993   5.702
 2695POPC   GL237862   8.719  33.244   5.865
 2695POPC   C1A37863   9.149  33.102   6.103
 2695POPC   D2A37864   9.070  33.036   6.558
 2695POPC   C3A37865   9.269  33.218   6.898
 2695POPC   C4A37866   9.263  33.054   7.298
 2695POPC   C1B37867   8.698  32.916   6.215
 2695POPC   C2B37868   8.558  32.949   6.655
 2695POPC   C3B37869   8.829  32.905   7.026
 2695POPC   C4B37870   8.816  32.810   7.467
 2696POPC   NC337871  44.086  22.116   5.489
 2696POPC   PO437872  43.576  22.533   5.442
 2696POPC   GL137873  43.708  22.259   5.799
 2696POPC   GL237874  43.741  21.878   5.818
 2696POPC   C1A37875  43.671  22.207   6.223
 2696POPC   D2A37876  43.842  22.444   6.518
 2696POPC   C3A37877  43.662  22.308   6.883
 2696POPC   C4A37878  43.929  22.424   7.158
 2696POPC   C1B37879  43.884  21.754   6.287
 2696POPC   C2B37880  43.642  21.794   6.703
 2696POPC   C3B37881  43.814  21.853   7.153
 2696POPC   C4B37882  43.697  21.764   7.638
 2697POPC   NC337883   3.485  34.511   5.242
 2697POPC   PO437884   3.595  35.066   5.505
 2697POPC   GL137885   3.375  34.860   5.861
 2697POPC   GL237886   3.443  34.500   5.926
 2697POPC   C1A37887   3.435  34.867   6.323
 2697POPC   D2A37888   3.693  34.930   6.718
 2697POPC   C3A37889   3.500  34.788   7.099
 2697POPC   C4A37890   3.242  34.438   7.229
 2697POPC   C1B37891   3.621  34.373   6.342
 2697POPC   C2B37892   3.542  34.368   6.780
 2697POPC   C3B37893   3.739  34.324   7.147
 2697POPC   C4B37894   3.716  33.981   7.326
 2698POPC   NC337895   2.947  32.331   5.319
 2698POPC   PO437896   2.510  31.954   5.558
 2698POPC   GL137897   2.824  32.192   5.805
 2698POPC   GL237898   2.668  32.517   5.821
 2698POPC   C1A37899   3.109  32.153   6.178
 2698POPC   D2A37900   3.048  31.981   6.592
 2698POPC   C3A37901   2.863  32.317   6.765
 2698POPC   C4A37902   2.810  32.496   7.144
 2698POPC   C1B37903   2.604  32.360   6.243
 2698POPC   C2B37904   2.307  32.329   6.571
 2698POPC   C3B37905   2.431  32.153   6.949
 2698POPC   C4B37906   2.513  31.955   7.346
 2699POPC   NC337907  10.745  23.734   5.445
 2699POPC   PO437908  10.152  23.884   5.260
 2699POPC   GL137909  10.355  23.666   5.766
 2699POPC   GL237910  10.708  23.515   5.888
 2699POPC   C1A37911  10.448  23.657   6.271
 2699POPC   D2A37912  10.545  23.536   6.693
 2699POPC   C3A37913  10.498  23.882   6.969
 2699POPC   C4A37914  10.200  24.002   7.283
 2699POPC   C1B37915  10.948  23.481   6.252
 2699POPC   C2B37916  11.056  23.474   6.678
 2699POPC   C3B37917  10.836  23.292   7.043
 2699POPC   C4B37918  10.496  23.443   7.220
 2700POPC   NC337919  14.769   5.151   5.523
 2700POPC   PO437920  14.102   5.150   5.531
 2700POPC   GL137921  14.375   5.339   5.862
 2700POPC   GL237922  14.609   5.611   5.750
 2700POPC   C1A37923  14.510   5.092   6.245
 2700POPC   D2A37924  14.505   4.846   6.623
 2700POPC   C3A37925  14.328   5.122   6.945
 2700POPC   C4A37926  14.088   4.972   7.300
 2700POPC   C1B37927  14.696   5.558   6.208
 2700POPC   C2B37928  14.683   5.390   6.652
 2700POPC   C3B37929  14.686   5.547   7.104
 2700POPC   C4B37930  14.619   5.600   7.587
 2701POPC   NC337931  35.192  31.791   5.474
 2701POPC   PO437932  35.497  31.275   5.242
 2701POPC   GL137933  35.540  31.403   5.688
 2701POPC   GL237934  35.621  31.760   5.781
 2701POPC   C1A37935  35.543  31.299   6.145
 2701POPC   D2A37936  35.226  31.344   6.490
 2701POPC   C3A37937  35.303  31.391   6.950
 2701POPC   C4A37938  35.057  31.410   7.362
 2701POPC   C1B37939  35.362  31.771   6.192
 2701POPC   C2B37940  35.244  31.846   6.657
 2701POPC   C3B37941  35.144  31.857   7.132
 2701POPC   C4B37942  35.219  31.948   7.580
 2702POPC   NC337943  34.525  43.224   5.505
 2702POPC   PO437944  34.898  42.687   5.722
 2702POPC   GL137945  34.764  43.030   5.908
 2702POPC   GL237946  34.417  42.934   5.919
 2702POPC   C1A37947  34.695  43.254   6.266
 2702POPC   D2A37948  34.659  43.027   6.643
 2702POPC   C3A37949  34.790  43.276   6.955
 2702POPC   C4A37950  34.647  43.259   7.338
 2702POPC   C1B37951  34.188  43.248   6.161
 2702POPC   C2B37952  34.271  43.357   6.586
 2702POPC   C3B37953  34.066  43.388   6.970
 2702POPC   C4B37954  34.197  43.484   7.391
 2703POPC   NC337955  39.531   5.546   5.373
 2703POPC   PO437956  39.126   6.187   5.362
 2703POPC   GL137957  39.216   5.875   5.727
 2703POPC   GL237958  38.927   5.669   5.847
 2703POPC   C1A37959  39.192   5.902   6.207
 2703POPC   D2A37960  39.379   6.223   6.458
 2703POPC   C3A37961  39.343   6.079   6.863
 2703POPC   C4A37962  39.279   5.917   7.260
 2703POPC   C1B37963  38.703   5.885   6.170
 2703POPC   C2B37964  38.842   5.844   6.599
 2703POPC   C3B37965  38.857   5.750   7.003
 2703POPC   C4B37966  38.726   5.904   7.369
 2704POPC   NC337967   4.828   4.581   5.537
 2704POPC   PO437968   5.327   4.146   5.557
 2704POPC   GL137969   5.209   4.034   5.929
 2704POPC   GL237970   4.862   4.119   5.888
 2704POPC   C1A37971   5.220   4.052   6.338
 2704POPC   D2A37972   4.920   4.106   6.589
 2704POPC   C3A37973   5.119   4.070   6.930
 2704POPC   C4A37974   5.169   4.300   7.274
 2704POPC   C1B37975   4.943   4.460   6.196
 2704POPC   C2B37976   4.766   4.581   6.599
 2704POPC   C3B37977   4.883   4.653   7.024
 2704POPC   C4B37978   4.734   4.471   7.443
 2705POPC   NC337979   2.807   7.061   5.437
 2705POPC   PO437980   2.230   7.418   5.549
 2705POPC   GL137981   2.611   7.486   5.875
 2705POPC   GL237982   2.930   7.244   5.895
 2705POPC   C1A37983   2.764   7.453   6.341
 2705POPC   D2A37984   2.963   7.188   6.691
 2705POPC   C3A37985   2.641   7.137   6.996
 2705POPC   C4A37986   2.532   7.504   7.164
 2705POPC   C1B37987   3.120   7.648   6.019
 2705POPC   C2B37988   3.207   7.828   6.433
 2705POPC   C3B37989   3.259   7.653   6.845
 2705POPC   C4B37990   3.053   7.404   7.191
 2706POPC   NC337991  33.835  11.671   5.570
 2706POPC   PO437992  33.888  11.100   5.276
 2706POPC   GL137993  33.789  11.077   5.724
 2706POPC   GL237994  33.508  11.305   5.761
 2706POPC   C1A37995  33.803  11.097   6.196
 2706POPC   D2A37996  33.924  10.996   6.652
 2706POPC   C3A37997  33.904  11.327   6.982
 2706POPC   C4A37998  34.211  11.496   7.323
 2706POPC   C1B37999  33.289  11.083   6.104
 2706POPC   C2B38000  33.361  10.926   6.549
 2706POPC   C3B38001  33.513  10.942   6.959
 2706POPC   C4B38002  33.446  11.280   7.217
 2707POPC   NC338003   2.661  13.982   5.486
 2707POPC   PO438004   2.659  13.342   5.569
 2707POPC   GL138005   2.738  13.687   5.900
 2707POPC   GL238006   2.504  13.987   5.957
 2707POPC   C1A38007   2.974  13.651   6.284
 2707POPC   D2A38008   2.696  13.415   6.578
 2707POPC   C3A38009   2.757  13.486   7.009
 2707POPC   C4A38010   2.974  13.806   7.250
 2707POPC   C1B38011   2.522  13.875   6.382
 2707POPC   C2B38012   2.823  13.932   6.711
 2707POPC   C3B38013   2.567  14.026   7.033
 2707POPC   C4B38014   2.455  13.727   7.335
 2708POPC   NC338015  30.065  13.138   5.348
 2708POPC   PO438016  30.042  12.542   5.152
 2708POPC   GL138017  30.047  12.727   5.639
 2708POPC   GL238018  29.885  13.049   5.797
 2708POPC   C1A38019  29.989  12.683   6.123
 2708POPC   D2A38020  29.738  12.667   6.502
 2708POPC   C3A38021  29.956  12.666   6.887
 2708POPC   C4A38022  29.898  12.818   7.329
 2708POPC   C1B38023  29.934  13.210   6.191
 2708POPC   C2B38024  29.864  13.138   6.606
 2708POPC   C3B38025  29.654  13.106   6.970
 2708POPC   C4B38026  29.934  13.318   7.207
 2709POPC   NC338027  11.154  33.089   5.061
 2709POPC   PO438028  11.600  32.961   5.464
 2709POPC   GL138029  11.384  33.106   5.881
 2709POPC   GL238030  11.205  32.924   6.129
 2709POPC   C1A38031  11.512  33.293   6.294
 2709POPC   D2A38032  11.212  33.129   6.618
 2709POPC   C3A38033  11.357  33.108   7.029
 2709POPC   C4A38034  11.700  33.224   7.233
 2709POPC   C1B38035  11.282  32.604   6.441
 2709POPC   C2B38036  11.261  32.625   6.884
 2709POPC   C3B38037  10.977  32.798   7.234
 2709POPC   C4B38038  10.983  32.809   7.702
 2710POPC   NC338039  34.427  26.915   5.409
 2710POPC   PO438040  34.270  26.412   5.612
 2710POPC   GL138041  34.479  26.786   5.891
 2710POPC   GL238042  34.297  27.094   5.889
 2710POPC   C1A38043  34.640  27.035   6.268
 2710POPC   D2A38044  34.548  26.977   6.708
 2710POPC   C3A38045  34.777  26.847   7.103
 2710POPC   C4A38046  34.582  26.903   7.525
 2710POPC   C1B38047  34.159  26.858   6.289
 2710POPC   C2B38048  34.192  26.613   6.682
 2710POPC   C3B38049  34.252  26.786   7.114
 2710POPC   C4B38050  34.082  27.096   7.416
 2711POPC   NC338051   6.602  40.983   5.072
 2711POPC   PO438052   6.632  40.418   5.502
 2711POPC   GL138053   6.816  40.573   5.953
 2711POPC   GL238054   6.904  40.948   5.961
 2711POPC   C1A38055   6.612  40.796   6.340
 2711POPC   D2A38056   6.451  41.115   6.610
 2711POPC   C3A38057   6.632  40.959   6.986
 2711POPC   C4A38058   6.659  40.600   7.262
 2711POPC   C1B38059   6.841  41.269   6.289
 2711POPC   C2B38060   6.929  41.346   6.722
 2711POPC   C3B38061   6.982  41.298   7.172
 2711POPC   C4B38062   7.052  40.930   7.462
 2712POPC   NC338063  26.112  43.781   5.304
 2712POPC   PO438064  25.659  44.170   5.372
 2712POPC   GL138065  25.924  44.022   5.779
 2712POPC   GL238066  26.120  43.684   5.811
 2712POPC   C1A38067  26.074  43.975   6.244
 2712POPC   D2A38068  26.128  43.919   6.718
 2712POPC   C3A38069  26.002  44.236   7.075
 2712POPC   C4A38070  26.265  44.367   7.441
 2712POPC   C1B38071  26.167  43.457   6.240
 2712POPC   C2B38072  26.443  43.373   6.605
 2712POPC   C3B38073  26.481  43.630   6.963
 2712POPC   C4B38074  26.158  43.774   7.245
 2713POPC   NC338075   6.436  44.496   5.324
 2713POPC   PO438076   6.904  44.934   5.320
 2713POPC   GL138077   6.703  44.848   5.722
 2713POPC   GL238078   6.671  44.490   5.798
 2713POPC   C1A38079   6.790  44.849   6.188
 2713POPC   D2A38080   6.629  44.770   6.605
 2713POPC   C3A38081   6.838  44.852   7.016
 2713POPC   C4A38082   6.902  44.828   7.481
 2713POPC   C1B38083   6.376  44.507   6.154
 2713POPC   C2B38084   6.198  44.489   6.580
 2713POPC   C3B38085   6.331  44.672   6.997
 2713POPC   C4B38086   6.564  44.469   7.353
 2714POPC   NC338087   4.874  40.888   5.441
 2714POPC   PO438088   5.443  41.282   5.507
 2714POPC   GL138089   5.086  41.166   5.793
 2714POPC   GL238090   5.103  40.809   5.889
 2714POPC   C1A38091   4.942  41.218   6.218
 2714POPC   D2A38092   5.157  40.926   6.488
 2714POPC   C3A38093   5.263  41.049   6.895
 2714POPC   C4A38094   5.060  41.093   7.301
 2714POPC   C1B38095   5.052  40.503   6.203
 2714POPC   C2B38096   5.125  40.350   6.652
 2714POPC   C3B38097   5.056  40.593   7.060
 2714POPC   C4B38098   5.041  40.634   7.532
 2715POPC   NC338099  30.963  19.620   5.564
 2715POPC   PO438100  30.316  19.581   5.483
 2715POPC   GL138101  30.464  19.878   5.770
 2715POPC   GL238102  30.566  19.623   5.941
 2715POPC   C1A38103  30.807  20.111   6.041
 2715POPC   D2A38104  30.725  20.286   6.466
 2715POPC   C3A38105  30.530  20.058   6.818
 2715POPC   C4A38106  30.596  20.128   7.250
 2715POPC   C1B38107  30.559  19.787   6.339
 2715POPC   C2B38108  30.742  19.609   6.716
 2715POPC   C3B38109  30.888  19.714   7.132
 2715POPC   C4B38110  31.027  19.457   7.489
 2716POPC   NC338111  23.337   6.004   5.260
 2716POPC   PO438112  24.002   5.753   5.394
 2716POPC   GL138113  23.655   5.771   5.681
 2716POPC   GL238114  23.585   5.458   5.868
 2716POPC   C1A38115  23.778   6.007   6.059
 2716POPC   D2A38116  23.984   5.945   6.480
 2716POPC   C3A38117  23.764   6.157   6.826
 2716POPC   C4A38118  23.455   6.005   7.148
 2716POPC   C1B38119  23.544   5.637   6.302
 2716POPC   C2B38120  23.587   5.695   6.739
 2716POPC   C3B38121  23.858   5.709   7.113
 2716POPC   C4B38122  23.899   5.477   7.509
 2717POPC   NC338123  25.918   9.742   5.501
 2717POPC   PO438124  26.576  10.023   5.401
 2717POPC   GL138125  26.280  10.007   5.747
 2717POPC   GL238126  26.236   9.639   5.876
 2717POPC   C1A38127  26.066  10.087   6.144
 2717POPC   D2A38128  26.081   9.886   6.534
 2717POPC   C3A38129  26.109  10.046   6.926
 2717POPC   C4A38130  25.915   9.952   7.309
 2717POPC   C1B38131  26.294   9.370   6.219
 2717POPC   C2B38132  26.046   9.382   6.567
 2717POPC   C3B38133  25.888   9.556   6.934
 2717POPC   C4B38134  26.081   9.472   7.329
 2718POPC   NC338135   4.070  44.822   5.291
 2718POPC   PO438136   4.448  44.350   5.069
 2718POPC   GL138137   4.422  44.462   5.545
 2718POPC   GL238138   4.696  44.635   5.747
 2718POPC   C1A38139   4.278  44.422   6.005
 2718POPC   D2A38140   4.351  44.304   6.469
 2718POPC   C3A38141   4.133  44.515   6.822
 2718POPC   C4A38142   4.285  44.554   7.233
 2718POPC   C1B38143   4.714  44.884   6.162
 2718POPC   C2B38144   4.428  44.995   6.518
 2718POPC   C3B38145   4.513  44.932   6.966
 2718POPC   C4B38146   4.792   0.068   7.331
 2719POPC   NC338147   3.066  30.710   5.526
 2719POPC   PO438148   3.648  30.818   5.343
 2719POPC   GL138149   3.564  30.751   5.773
 2719POPC   GL238150   3.396  31.063   5.764
 2719POPC   C1A38151   3.689  30.589   6.209
 2719POPC   D2A38152   3.637  30.712   6.647
 2719POPC   C3A38153   3.813  30.455   6.988
 2719POPC   C4A38154   3.904  30.600   7.396
 2719POPC   C1B38155   3.303  30.968   6.185
 2719POPC   C2B38156   3.175  31.080   6.574
 2719POPC   C3B38157   3.342  31.013   6.962
 2719POPC   C4B38158   3.430  30.684   7.217
 2720POPC   NC338159  21.021   2.873   5.429
 2720POPC   PO438160  20.585   2.305   5.337
 2720POPC   GL138161  20.591   2.617   5.666
 2720POPC   GL238162  20.906   2.561   5.829
 2720POPC   C1A38163  20.454   2.708   6.103
 2720POPC   D2A38164  20.476   2.884   6.521
 2720POPC   C3A38165  20.216   2.800   6.861
 2720POPC   C4A38166  20.452   2.644   7.190
 2720POPC   C1B38167  20.933   2.700   6.265
 2720POPC   C2B38168  20.964   2.673   6.719
 2720POPC   C3B38169  20.987   2.672   7.171
 2720POPC   C4B38170  21.090   2.596   7.582
 2721POPC   NC338171  17.263  44.967   5.236
 2721POPC   PO438172  17.423  44.372   5.255
 2721POPC   GL138173  17.481  44.546   5.669
 2721POPC   GL238174  17.648  44.294   5.904
 2721POPC   C1A38175  17.589  44.806   6.046
 2721POPC   D2A38176  17.717  44.571   6.421
 2721POPC   C3A38177  17.680  44.774   6.794
 2721POPC   C4A38178  17.440  44.960   7.133
 2721POPC   C1B38179  17.270  44.419   6.132
 2721POPC   C2B38180  17.184  44.637   6.473
 2721POPC   C3B38181  17.237  44.546   6.882
 2721POPC   C4B38182  17.580  44.366   7.108
 2722POPC   NC338183  28.543   9.516   5.306
 2722POPC   PO438184  28.164   9.967   5.457
 2722POPC   GL138185  28.414   9.760   5.747
 2722POPC   GL238186  28.739   9.862   5.656
 2722POPC   C1A38187  28.387   9.604   6.167
 2722POPC   D2A38188  28.256   9.818   6.540
 2722POPC   C3A38189  28.305   9.534   6.859
 2722POPC   C4A38190  28.433   9.549   7.246
 2722POPC   C1B38191  28.750   9.970   6.095
 2722POPC   C2B38192  28.764   9.970   6.523
 2722POPC   C3B38193  28.609   9.989   6.912
 2722POPC   C4B38194  28.341  10.044   7.226
 2723POPC   NC338195  40.133   2.775   5.488
 2723POPC   PO438196  39.616   2.285   5.554
 2723POPC   GL138197  39.805   2.577   5.904
 2723POPC   GL238198  40.164   2.676   5.978
 2723POPC   C1A38199  39.845   2.628   6.368
 2723POPC   D2A38200  40.174   2.712   6.677
 2723POPC   C3A38201  40.057   2.913   7.056
 2723POPC   C4A38202  39.698   2.969   7.378
 2723POPC   C1B38203  40.354   2.408   6.289
 2723POPC   C2B38204  40.392   2.247   6.721
 2723POPC   C3B38205  40.365   2.463   7.128
 2723POPC   C4B38206  40.403   2.410   7.589
 2724POPC   NC338207  41.358  32.186   5.395
 2724POPC   PO438208  41.898  31.977   5.717
 2724POPC   GL138209  41.628  32.336   5.920
 2724POPC   GL238210  41.308  32.453   5.851
 2724POPC   C1A38211  41.502  32.461   6.337
 2724POPC   D2A38212  41.538  32.091   6.553
 2724POPC   C3A38213  41.885  32.105   6.774
 2724POPC   C4A38214  41.772  32.116   7.179
 2724POPC   C1B38215  41.161  32.136   6.171
 2724POPC   C2B38216  41.054  32.241   6.599
 2724POPC   C3B38217  41.246  32.324   7.008
 2724POPC   C4B38218  41.285  32.106   7.411
 2725POPC   NC338219  13.858   4.762   5.662
 2725POPC   PO438220  13.429   5.183   5.269
 2725POPC   GL138221  13.511   5.150   5.729
 2725POPC   GL238222  13.410   4.844   5.884
 2725POPC   C1A38223  13.750   5.201   6.148
 2725POPC   D2A38224  13.669   5.410   6.556
 2725POPC   C3A38225  13.821   5.302   6.986
 2725POPC   C4A38226  13.641   5.364   7.417
 2725POPC   C1B38227  13.575   4.683   6.257
 2725POPC   C2B38228  13.703   4.791   6.657
 2725POPC   C3B38229  13.597   4.580   7.016
 2725POPC   C4B38230  13.633   4.776   7.385
 2726POPC   NC338231  44.050  34.049   5.326
 2726POPC   PO438232  43.537  33.568   5.348
 2726POPC   GL138233  43.869  33.695   5.701
 2726POPC   GL238234  43.742  33.427   5.854
 2726POPC   C1A38235  44.126  33.880   6.127
 2726POPC   D2A38236  44.213  33.736   6.624
 2726POPC   C3A38237  44.141  34.013   7.052
 2726POPC   C4A38238  44.075  34.048   7.580
 2726POPC   C1B38239  43.580  33.465   6.227
 2726POPC   C2B38240  43.546  33.658   6.608
 2726POPC   C3B38241  43.790  33.636   6.946
 2726POPC   C4B38242  43.786  33.728   7.357
 2727POPC   NC338243  17.680  14.908   5.398
 2727POPC   PO438244  17.139  15.228   5.404
 2727POPC   GL138245  17.407  15.099   5.769
 2727POPC   GL238246  17.633  15.358   5.910
 2727POPC   C1A38247  17.581  14.920   6.160
 2727POPC   D2A38248  17.413  14.922   6.561
 2727POPC   C3A38249  17.362  15.183   6.911
 2727POPC   C4A38250  17.428  15.003   7.316
 2727POPC   C1B38251  17.984  15.536   6.153
 2727POPC   C2B38252  18.003  15.682   6.583
 2727POPC   C3B38253  17.940  15.517   7.001
 2727POPC   C4B38254  17.637  15.458   7.307
 2728POPC   NC338255  36.791  37.335   5.466
 2728POPC   PO438256  36.702  37.999   5.335
 2728POPC   GL138257  36.749  37.881   5.763
 2728POPC   GL238258  36.516  37.635   5.767
 2728POPC   C1A38259  36.898  37.729   6.185
 2728POPC   D2A38260  36.874  37.846   6.639
 2728POPC   C3A38261  37.045  37.614   7.016
 2728POPC   C4A38262  37.197  37.565   7.475
 2728POPC   C1B38263  36.493  37.321   6.082
 2728POPC   C2B38264  36.352  37.364   6.488
 2728POPC   C3B38265  36.617  37.373   6.822
 2728POPC   C4B38266  36.531  37.347   7.243
 2729POPC   NC338267  26.236  31.461   5.303
 2729POPC   PO438268  25.685  31.245   5.370
 2729POPC   GL138269  25.947  31.393   5.743
 2729POPC   GL238270  26.275  31.246   5.845
 2729POPC   C1A38271  25.859  31.401   6.216
 2729POPC   D2A38272  25.697  31.587   6.627
 2729POPC   C3A38273  25.919  31.531   7.025
 2729POPC   C4A38274  26.146  31.479   7.452
 2729POPC   C1B38275  26.211  31.025   6.248
 2729POPC   C2B38276  26.177  31.241   6.631
 2729POPC   C3B38277  26.361  31.249   7.031
 2729POPC   C4B38278  26.567  30.967   7.288
 2730POPC   NC338279  13.880   4.086   5.524
 2730POPC   PO438280  13.787   3.367   5.451
 2730POPC   GL138281  13.644   3.629   5.816
 2730POPC   GL238282  13.308   3.479   5.836
 2730POPC   C1A38283  13.534   3.789   6.252
 2730POPC   D2A38284  13.431   3.618   6.687
 2730POPC   C3A38285  13.548   3.716   7.138
 2730POPC   C4A38286  13.558   3.729   7.586
 2730POPC   C1B38287  13.512   3.203   6.142
 2730POPC   C2B38288  13.491   3.070   6.583
 2730POPC   C3B38289  13.661   3.243   6.974
 2730POPC   C4B38290  13.446   3.260   7.380
 2731POPC   NC338291   1.665   6.103   5.535
 2731POPC   PO438292   2.309   5.748   5.448
 2731POPC   GL138293   2.029   5.796   5.792
 2731POPC   GL238294   1.985   6.123   5.917
 2731POPC   C1A38295   2.042   5.735   6.245
 2731POPC   D2A38296   2.076   5.957   6.632
 2731POPC   C3A38297   2.149   5.725   7.017
 2731POPC   C4A38298   2.131   5.898   7.430
 2731POPC   C1B38299   1.687   6.151   6.268
 2731POPC   C2B38300   1.730   6.357   6.694
 2731POPC   C3B38301   1.867   6.160   7.077
 2731POPC   C4B38302   1.737   6.182   7.550
 2732POPC   NC338303  39.040  42.687   5.542
 2732POPC   PO438304  39.232  42.085   5.278
 2732POPC   GL138305  39.312  42.191   5.694
 2732POPC   GL238306  38.958  42.227   5.804
 2732POPC   C1A38307  39.361  42.219   6.151
 2732POPC   D2A38308  39.231  42.035   6.539
 2732POPC   C3A38309  39.248  42.208   6.931
 2732POPC   C4A38310  39.011  42.264   7.292
 2732POPC   C1B38311  38.895  42.443   6.216
 2732POPC   C2B38312  39.153  42.573   6.566
 2732POPC   C3B38313  39.073  42.714   6.981
 2732POPC   C4B38314  38.917  42.752   7.438
 2733POPC   NC338315   8.791   7.632   5.496
 2733POPC   PO438316   9.305   7.154   5.446
 2733POPC   GL138317   9.020   7.251   5.787
 2733POPC   GL238318   9.169   7.569   5.846
 2733POPC   C1A38319   8.824   7.366   6.198
 2733POPC   D2A38320   8.790   7.232   6.652
 2733POPC   C3A38321   8.964   7.067   7.032
 2733POPC   C4A38322   8.732   7.289   7.327
 2733POPC   C1B38323   9.229   7.690   6.255
 2733POPC   C2B38324   9.038   7.679   6.644
 2733POPC   C3B38325   8.978   7.693   7.076
 2733POPC   C4B38326   9.301   7.820   7.354
 2734POPC   NC338327  31.109   2.804   5.542
 2734POPC   PO438328  30.425   2.758   5.302
 2734POPC   GL138329  30.640   2.694   5.716
 2734POPC   GL238330  30.876   2.395   5.747
 2734POPC   C1A38331  30.714   2.955   6.093
 2734POPC   D2A38332  30.950   2.948   6.524
 2734POPC   C3A38333  30.600   2.906   6.851
 2734POPC   C4A38334  30.343   2.916   7.226
 2734POPC   C1B38335  31.024   2.554   6.171
 2734POPC   C2B38336  30.844   2.454   6.587
 2734POPC   C3B38337  30.943   2.580   7.018
 2734POPC   C4B38338  30.720   2.507   7.378
 2735POPC   NC338339  16.148   1.174   5.104
 2735POPC   PO438340  15.735   1.412   5.691
 2735POPC   GL138341  16.029   1.377   6.003
 2735POPC   GL238342  16.105   1.049   6.006
 2735POPC   C1A38343  16.063   1.370   6.454
 2735POPC   D2A38344  15.910   1.258   6.852
 2735POPC   C3A38345  16.122   1.370   7.250
 2735POPC   C4A38346  16.176   1.122   7.652
 2735POPC   C1B38347  15.700   1.063   6.266
 2735POPC   C2B38348  15.548   0.902   6.655
 2735POPC   C3B38349  15.490   1.049   7.063
 2735POPC   C4B38350  15.798   0.973   7.356
 2736POPC   NC338351  21.577  22.045   4.966
 2736POPC   PO438352  21.086  22.279   5.380
 2736POPC   GL138353  21.182  22.091   5.802
 2736POPC   GL238354  21.534  22.097   5.852
 2736POPC   C1A38355  21.172  22.081   6.277
 2736POPC   D2A38356  21.533  22.273   6.558
 2736POPC   C3A38357  21.510  22.238   6.991
 2736POPC   C4A38358  21.176  22.064   7.224
 2736POPC   C1B38359  21.421  22.468   6.100
 2736POPC   C2B38360  21.263  22.706   6.447
 2736POPC   C3B38361  21.418  22.730   6.855
 2736POPC   C4B38362  21.341  22.617   7.285
 2737POPC   NC338363   3.212   8.264   4.949
 2737POPC   PO438364   3.693   7.930   5.378
 2737POPC   GL138365   3.612   8.141   5.777
 2737POPC   GL238366   3.272   8.314   5.822
 2737POPC   C1A38367   3.583   8.150   6.199
 2737POPC   D2A38368   3.622   8.336   6.584
 2737POPC   C3A38369   3.514   8.120   6.949
 2737POPC   C4A38370   3.753   8.113   7.302
 2737POPC   C1B38371   3.087   8.294   6.243
 2737POPC   C2B38372   3.005   8.233   6.705
 2737POPC   C3B38373   3.112   8.365   7.131
 2737POPC   C4B38374   3.420   8.485   7.398
 2738POPC   NC338375  40.399  30.091   5.505
 2738POPC   PO438376  41.078  29.684   5.698
 2738POPC   GL138377  40.912  29.952   5.994
 2738POPC   GL238378  40.553  29.903   5.958
 2738POPC   C1A38379  40.720  30.220   6.316
 2738POPC   D2A38380  40.444  30.139   6.658
 2738POPC   C3A38381  40.707  29.927   6.979
 2738POPC   C4A38382  40.911  29.996   7.385
 2738POPC   C1B38383  40.605  29.710   6.385
 2738POPC   C2B38384  40.417  29.536   6.775
 2738POPC   C3B38385  40.474  29.512   7.224
 2738POPC   C4B38386  40.693  29.603   7.617
 2739POPC   NC338387  21.537  41.840   5.145
 2739POPC   PO438388  21.326  42.444   5.426
 2739POPC   GL138389  21.304  42.691   5.804
 2739POPC   GL238390  21.642  42.551   5.852
 2739POPC   C1A38391  21.461  42.792   6.246
 2739POPC   D2A38392  21.660  42.575   6.599
 2739POPC   C3A38393  21.414  42.566   6.948
 2739POPC   C4A38394  21.270  42.248   7.260
 2739POPC   C1B38395  21.615  42.234   6.214
 2739POPC   C2B38396  21.406  42.103   6.610
 2739POPC   C3B38397  21.685  42.127   6.956
 2739POPC   C4B38398  21.917  42.050   7.299
 2740POPC   NC338399  34.446  13.933   5.491
 2740POPC   PO438400  34.275  13.396   5.457
 2740POPC   GL138401  34.236  13.540   5.894
 2740POPC   GL238402  34.055  13.854   5.891
 2740POPC   C1A38403  34.397  13.463   6.341
 2740POPC   D2A38404  34.497  13.315   6.789
 2740POPC   C3A38405  34.710  13.562   7.094
 2740POPC   C4A38406  34.963  13.490   7.480
 2740POPC   C1B38407  34.050  13.846   6.368
 2740POPC   C2B38408  34.302  13.792   6.763
 2740POPC   C3B38409  34.179  13.548   7.138
 2740POPC   C4B38410  34.030  13.545   7.590
 2741POPC   NC338411   3.730   9.848   5.475
 2741POPC   PO438412   3.247   9.413   5.491
 2741POPC   GL138413   3.377   9.681   5.809
 2741POPC   GL238414   3.407  10.045   5.825
 2741POPC   C1A38415   3.570   9.652   6.203
 2741POPC   D2A38416   3.786   9.462   6.528
 2741POPC   C3A38417   3.584   9.597   6.881
 2741POPC   C4A38418   3.423   9.387   7.230
 2741POPC   C1B38419   3.772  10.112   6.120
 2741POPC   C2B38420   3.649  10.033   6.565
 2741POPC   C3B38421   3.406  10.054   6.988
 2741POPC   C4B38422   3.473  10.001   7.458
 2742POPC   NC338423  24.623  43.382   5.406
 2742POPC   PO438424  24.743  42.702   5.546
 2742POPC   GL138425  24.559  42.987   5.845
 2742POPC   GL238426  24.491  43.355   5.895
 2742POPC   C1A38427  24.609  42.799   6.233
 2742POPC   D2A38428  24.432  42.761   6.638
 2742POPC   C3A38429  24.540  42.904   7.063
 2742POPC   C4A38430  24.767  42.751   7.450
 2742POPC   C1B38431  24.284  43.187   6.283
 2742POPC   C2B38432  24.277  43.290   6.728
 2742POPC   C3B38433  24.567  43.398   7.057
 2742POPC   C4B38434  24.526  43.212   7.490
 2743POPC   NC338435   0.154  24.077   5.476
 2743POPC   PO438436   0.625  23.568   5.314
 2743POPC   GL138437   0.595  23.687   5.778
 2743POPC   GL238438   0.399  23.978   5.909
 2743POPC   C1A38439   0.453  23.514   6.206
 2743POPC   D2A38440   0.265  23.654   6.586
 2743POPC   C3A38441   0.385  23.491   6.964
 2743POPC   C4A38442   0.649  23.195   7.142
 2743POPC   C1B38443   0.692  23.980   6.224
 2743POPC   C2B38444   0.870  23.922   6.626
 2743POPC   C3B38445   0.786  23.795   7.031
 2743POPC   C4B38446   0.495  23.830   7.372
 2744POPC   NC338447  30.923   9.173   5.518
 2744POPC   PO438448  31.520   8.841   5.525
 2744POPC   GL138449  31.415   9.171   5.767
 2744POPC   GL238450  31.772   9.223   5.773
 2744POPC   C1A38451  31.233   9.268   6.174
 2744POPC   D2A38452  31.354   9.054   6.562
 2744POPC   C3A38453  31.232   9.200   6.976
 2744POPC   C4A38454  31.269   8.818   7.197
 2744POPC   C1B38455  31.729   9.048   6.171
 2744POPC   C2B38456  31.831   9.177   6.575
 2744POPC   C3B38457  31.730   8.937   6.930
 2744POPC   C4B38458  31.656   9.149   7.278
 2745POPC   NC338459  24.884   2.778   5.333
 2745POPC   PO438460  25.544   3.025   5.321
 2745POPC   GL138461  25.386   2.795   5.723
 2745POPC   GL238462  25.056   2.726   5.800
 2745POPC   C1A38463  25.381   2.607   6.161
 2745POPC   D2A38464  25.447   2.810   6.540
 2745POPC   C3A38465  25.353   2.643   6.934
 2745POPC   C4A38466  25.174   2.889   7.233
 2745POPC   C1B38467  24.843   2.649   6.168
 2745POPC   C2B38468  24.962   2.642   6.556
 2745POPC   C3B38469  24.809   2.766   6.922
 2745POPC   C4B38470  24.704   2.501   7.263
 2746POPC   NC338471  33.996  39.829   5.596
 2746POPC   PO438472  33.536  40.256   5.405
 2746POPC   GL138473  33.550  40.100   5.812
 2746POPC   GL238474  33.867  40.244   5.858
 2746POPC   C1A38475  33.562  40.188   6.274
 2746POPC   D2A38476  33.485  40.318   6.718
 2746POPC   C3A38477  33.693  40.052   7.053
 2746POPC   C4A38478  33.884  39.673   7.315
 2746POPC   C1B38479  34.070  40.014   6.202
 2746POPC   C2B38480  34.174  39.807   6.562
 2746POPC   C3B38481  34.199  39.880   6.971
 2746POPC   C4B38482  34.151  40.220   7.246
 2747POPC   NC338483  23.986  28.997   5.484
 2747POPC   PO438484  23.719  29.517   5.273
 2747POPC   GL138485  23.621  29.257   5.691
 2747POPC   GL238486  23.330  29.081   5.739
 2747POPC   C1A38487  23.758  29.151   6.112
 2747POPC   D2A38488  23.597  29.133   6.545
 2747POPC   C3A38489  23.902  29.163   6.878
 2747POPC   C4A38490  23.629  29.112   7.213
 2747POPC   C1B38491  23.231  29.112   6.160
 2747POPC   C2B38492  23.091  28.851   6.511
 2747POPC   C3B38493  23.237  28.845   6.951
 2747POPC   C4B38494  23.264  28.807   7.406
 2748POPC   NC338495  41.338   8.190   5.278
 2748POPC   PO438496  41.866   7.777   5.397
 2748POPC   GL138497  41.713   8.005   5.764
 2748POPC   GL238498  41.413   8.190   5.782
 2748POPC   C1A38499  41.787   8.227   6.139
 2748POPC   D2A38500  41.759   8.040   6.522
 2748POPC   C3A38501  41.624   8.075   6.923
 2748POPC   C4A38502  41.591   8.217   7.295
 2748POPC   C1B38503  41.300   8.052   6.216
 2748POPC   C2B38504  41.263   8.245   6.628
 2748POPC   C3B38505  41.311   8.516   7.007
 2748POPC   C4B38506  41.199   8.508   7.469
 2749POPC   NC338507   4.824  44.166   5.286
 2749POPC   PO438508   5.374  43.778   5.313
 2749POPC   GL138509   5.075  43.858   5.690
 2749POPC   GL238510   4.989  44.204   5.767
 2749POPC   C1A38511   5.156  43.926   6.176
 2749POPC   D2A38512   5.360  44.020   6.601
 2749POPC   C3A38513   5.170  43.941   7.057
 2749POPC   C4A38514   5.328  43.919   7.512
 2749POPC   C1B38515   4.741  44.227   6.128
 2749POPC   C2B38516   4.861  44.150   6.561
 2749POPC   C3B38517   4.644  44.248   6.938
 2749POPC   C4B38518   4.630  44.179   7.362
 2750POPC   NC338519  16.751  23.942   5.217
 2750POPC   PO438520  16.978  23.423   5.500
 2750POPC   GL138521  16.819  23.686   5.814
 2750POPC   GL238522  16.458  23.659   5.825
 2750POPC   C1A38523  16.746  23.770   6.255
 2750POPC   D2A38524  16.506  23.920   6.579
 2750POPC   C3A38525  16.653  23.770   6.950
 2750POPC   C4A38526  16.942  23.693   7.229
 2750POPC   C1B38527  16.349  23.420   6.220
 2750POPC   C2B38528  16.509  23.363   6.638
 2750POPC   C3B38529  16.537  23.309   7.087
 2750POPC   C4B38530  16.499  23.574   7.422
 2751POPC   NC338531  10.514  21.081   5.508
 2751POPC   PO438532  10.887  21.635   5.545
 2751POPC   GL138533  10.665  21.501   5.902
 2751POPC   GL238534  10.662  21.142   5.993
 2751POPC   C1A38535  10.656  21.532   6.353
 2751POPC   D2A38536  10.449  21.495   6.744
 2751POPC   C3A38537  10.688  21.404   7.080
 2751POPC   C4A38538  10.389  21.542   7.351
 2751POPC   C1B38539  10.383  21.080   6.354
 2751POPC   C2B38540  10.457  20.996   6.784
 2751POPC   C3B38541  10.308  21.044   7.171
 2751POPC   C4B38542  10.467  21.107   7.588
 2752POPC   NC338543  43.362  44.295   5.364
 2752POPC   PO438544  42.866  43.882   5.534
 2752POPC   GL138545  43.081  43.809   5.928
 2752POPC   GL238546  43.333  44.057   5.827
 2752POPC   C1A38547  43.157  43.728   6.398
 2752POPC   D2A38548  42.869  43.816   6.736
 2752POPC   C3A38549  42.912  43.950   7.158
 2752POPC   C4A38550  43.212  43.750   7.399
 2752POPC   C1B38551  43.505  44.184   6.199
 2752POPC   C2B38552  43.423  44.115   6.610
 2752POPC   C3B38553  43.367  43.911   6.942
 2752POPC   C4B38554  43.333  44.232   7.272
 2753POPC   NC338555  38.606  44.894   5.173
 2753POPC   PO438556  38.528   0.539   5.251
 2753POPC   GL138557  38.384   0.452   5.696
 2753POPC   GL238558  38.474   0.101   5.671
 2753POPC   C1A38559  38.310   0.550   6.153
 2753POPC   D2A38560  38.512   0.394   6.527
 2753POPC   C3A38561  38.455   0.514   6.957
 2753POPC   C4A38562  38.082   0.714   7.125
 2753POPC   C1B38563  38.632   0.081   6.094
 2753POPC   C2B38564  38.689  44.908   6.520
 2753POPC   C3B38565  38.553   0.006   6.928
 2753POPC   C4B38566  38.458   0.170   7.338
 2754POPC   NC338567  38.562  24.505   5.374
 2754POPC   PO438568  38.066  24.866   5.777
 2754POPC   GL138569  38.342  24.459   5.851
 2754POPC   GL238570  38.703  24.332   5.840
 2754POPC   C1A38571  38.343  24.296   6.220
 2754POPC   D2A38572  38.404  24.534   6.558
 2754POPC   C3A38573  38.321  24.362   6.912
 2754POPC   C4A38574  38.168  24.567   7.236
 2754POPC   C1B38575  38.737  24.682   6.147
 2754POPC   C2B38576  38.780  24.883   6.601
 2754POPC   C3B38577  38.642  24.752   7.053
 2754POPC   C4B38578  38.547  24.746   7.527
 2755POPC   NC338579  35.020  44.743   5.429
 2755POPC   PO438580  35.755  44.853   5.465
 2755POPC   GL138581  35.536  44.651   5.798
 2755POPC   GL238582  35.309  44.400   5.734
 2755POPC   C1A38583  35.360  44.730   6.212
 2755POPC   D2A38584  35.141  44.755   6.569
 2755POPC   C3A38585  35.331  44.892   6.926
 2755POPC   C4A38586  35.465  44.748   7.311
 2755POPC   C1B38587  35.443  44.222   6.157
 2755POPC   C2B38588  35.479  44.335   6.599
 2755POPC   C3B38589  35.255  44.354   6.993
 2755POPC   C4B38590  35.330  44.265   7.445
 2756POPC   NC338591   2.596  41.557   5.287
 2756POPC   PO438592   3.148  41.662   5.196
 2756POPC   GL138593   2.948  41.706   5.658
 2756POPC   GL238594   2.557  41.641   5.771
 2756POPC   C1A38595   2.864  41.821   6.135
 2756POPC   D2A38596   2.868  41.581   6.557
 2756POPC   C3A38597   2.741  41.696   7.004
 2756POPC   C4A38598   2.963  41.616   7.409
 2756POPC   C1B38599   2.580  41.341   6.113
 2756POPC   C2B38600   2.417  41.264   6.518
 2756POPC   C3B38601   2.450  41.241   6.970
 2756POPC   C4B38602   2.485  41.431   7.379
 2757POPC   NC338603  14.035  12.315   5.375
 2757POPC   PO438604  14.525  12.828   5.458
 2757POPC   GL138605  14.382  12.872   5.877
 2757POPC   GL238606  14.143  12.633   5.803
 2757POPC   C1A38607  14.496  12.743   6.310
 2757POPC   D2A38608  14.846  12.898   6.580
 2757POPC   C3A38609  14.773  13.185   6.927
 2757POPC   C4A38610  14.819  13.192   7.370
 2757POPC   C1B38611  13.975  12.827   6.183
 2757POPC   C2B38612  14.033  12.700   6.599
 2757POPC   C3B38613  14.382  12.762   6.863
 2757POPC   C4B38614  14.357  12.938   7.290
 2758POPC   NC338615  28.129  38.672   5.587
 2758POPC   PO438616  28.687  38.421   5.425
 2758POPC   GL138617  28.583  38.581   5.843
 2758POPC   GL238618  28.284  38.405   6.010
 2758POPC   C1A38619  28.701  38.483   6.284
 2758POPC   D2A38620  28.396  38.277   6.551
 2758POPC   C3A38621  28.385  38.273   7.003
 2758POPC   C4A38622  28.597  38.623   7.247
 2758POPC   C1B38623  28.265  38.752   6.348
 2758POPC   C2B38624  28.374  38.765   6.802
 2758POPC   C3B38625  28.082  38.646   7.186
 2758POPC   C4B38626  27.860  38.513   7.591
 2759POPC   NC338627   4.235  10.400   5.409
 2759POPC   PO438628   4.358  11.026   5.649
 2759POPC   GL138629   4.394  10.818   5.977
 2759POPC   GL238630   4.385  10.485   5.904
 2759POPC   C1A38631   4.452  10.839   6.379
 2759POPC   D2A38632   4.701  10.694   6.664
 2759POPC   C3A38633   4.354  10.528   6.850
 2759POPC   C4A38634   4.081  10.631   7.178
 2759POPC   C1B38635   4.509  10.325   6.317
 2759POPC   C2B38636   4.346  10.048   6.644
 2759POPC   C3B38637   4.409  10.079   7.065
 2759POPC   C4B38638   4.517  10.368   7.357
 2760POPC   NC338639  17.255  19.868   5.152
 2760POPC   PO438640  17.785  19.746   5.551
 2760POPC   GL138641  17.650  20.038   5.854
 2760POPC   GL238642  17.326  20.076   5.725
 2760POPC   C1A38643  17.570  19.918   6.298
 2760POPC   D2A38644  17.573  19.495   6.513
 2760POPC   C3A38645  17.442  19.562   6.950
 2760POPC   C4A38646  17.480  19.377   7.344
 2760POPC   C1B38647  17.148  20.142   6.133
 2760POPC   C2B38648  17.189  20.265   6.562
 2760POPC   C3B38649  17.151  20.031   6.980
 2760POPC   C4B38650  17.048  20.017   7.418
 2761POPC   NC338651   5.980  13.069   4.864
 2761POPC   PO438652   5.593  12.790   5.403
 2761POPC   GL138653   5.764  12.978   5.754
 2761POPC   GL238654   5.720  12.702   5.938
 2761POPC   C1A38655   5.867  13.111   6.206
 2761POPC   D2A38656   6.031  12.991   6.625
 2761POPC   C3A38657   5.759  12.950   7.002
 2761POPC   C4A38658   5.857  13.021   7.427
 2761POPC   C1B38659   6.087  12.655   6.179
 2761POPC   C2B38660   6.147  12.483   6.584
 2761POPC   C3B38661   5.886  12.449   6.947
 2761POPC   C4B38662   6.035  12.507   7.371
 2762POPC   NC338663  15.048  20.844   5.392
 2762POPC   PO438664  14.961  21.534   5.261
 2762POPC   GL138665  15.039  21.462   5.739
 2762POPC   GL238666  14.779  21.563   5.980
 2762POPC   C1A38667  15.175  21.327   6.195
 2762POPC   D2A38668  15.497  21.276   6.530
 2762POPC   C3A38669  15.412  21.357   6.965
 2762POPC   C4A38670  15.091  21.231   7.226
 2762POPC   C1B38671  14.737  21.908   6.218
 2762POPC   C2B38672  14.928  21.921   6.601
 2762POPC   C3B38673  14.967  21.652   6.931
 2762POPC   C4B38674  15.034  21.771   7.337
 2763POPC   NC338675  24.976  42.289   5.464
 2763POPC   PO438676  25.665  42.568   5.475
 2763POPC   GL138677  25.418  42.267   5.786
 2763POPC   GL238678  25.107  42.015   5.881
 2763POPC   C1A38679  25.435  42.201   6.231
 2763POPC   D2A38680  25.188  42.176   6.580
 2763POPC   C3A38681  25.388  42.214   6.956
 2763POPC   C4A38682  25.394  42.554   7.209
 2763POPC   C1B38683  24.935  42.357   6.159
 2763POPC   C2B38684  24.969  42.636   6.541
 2763POPC   C3B38685  24.972  42.662   6.960
 2763POPC   C4B38686  24.959  42.319   7.269
 2764POPC   NC338687  37.840  25.068   5.432
 2764POPC   PO438688  37.657  25.697   5.401
 2764POPC   GL138689  37.837  25.498   5.797
 2764POPC   GL238690  37.656  25.185   5.916
 2764POPC   C1A38691  37.823  25.526   6.272
 2764POPC   D2A38692  37.651  25.752   6.647
 2764POPC   C3A38693  37.544  25.469   7.005
 2764POPC   C4A38694  37.764  25.129   7.247
 2764POPC   C1B38695  37.488  25.097   6.361
 2764POPC   C2B38696  37.354  24.952   6.815
 2764POPC   C3B38697  37.251  25.069   7.261
 2764POPC   C4B38698  37.037  25.272   7.631
 2765POPC   NC338699  34.779   0.519   5.365
 2765POPC   PO438700  34.103   0.372   5.600
 2765POPC   GL138701  34.501   0.351   5.848
 2765POPC   GL238702  34.833   0.246   5.802
 2765POPC   C1A38703  34.551   0.242   6.297
 2765POPC   D2A38704  34.270   0.344   6.661
 2765POPC   C3A38705  34.465   0.413   7.066
 2765POPC   C4A38706  34.339   0.626   7.435
 2765POPC   C1B38707  34.838   0.630   6.111
 2765POPC   C2B38708  34.709   0.712   6.568
 2765POPC   C3B38709  34.939   0.651   6.966
 2765POPC   C4B38710  34.848   0.568   7.426
 2766POPC   NC338711  13.188  12.851   5.403
 2766POPC   PO438712  13.852  12.762   5.401
 2766POPC   GL138713  13.645  12.852   5.793
 2766POPC   GL238714  13.382  12.629   5.836
 2766POPC   C1A38715  13.474  13.041   6.200
 2766POPC   D2A38716  13.182  13.134   6.578
 2766POPC   C3A38717  13.380  13.116   7.015
 2766POPC   C4A38718  13.377  12.868   7.418
 2766POPC   C1B38719  13.550  12.545   6.261
 2766POPC   C2B38720  13.490  12.745   6.669
 2766POPC   C3B38721  13.758  12.766   7.053
 2766POPC   C4B38722  13.814  12.612   7.478
 2767POPC   NC338723  20.830  44.360   5.411
 2767POPC   PO438724  20.365  43.847   5.522
 2767POPC   GL138725  20.503  43.640   5.888
 2767POPC   GL238726  20.753  43.373   5.889
 2767POPC   C1A38727  20.468  43.807   6.271
 2767POPC   D2A38728  20.608  44.124   6.528
 2767POPC   C3A38729  20.534  43.994   6.938
 2767POPC   C4A38730  20.611  44.079   7.353
 2767POPC   C1B38731  20.926  43.542   6.231
 2767POPC   C2B38732  20.799  43.642   6.641
 2767POPC   C3B38733  20.789  43.514   7.040
 2767POPC   C4B38734  21.042  43.572   7.368
 2768POPC   NC338735  15.710  34.044   5.249
 2768POPC   PO438736  16.264  33.739   5.252
 2768POPC   GL138737  15.997  33.765   5.711
 2768POPC   GL238738  15.765  33.474   5.883
 2768POPC   C1A38739  15.803  33.897   6.152
 2768POPC   D2A38740  15.747  33.798   6.626
 2768POPC   C3A38741  15.756  33.924   7.100
 2768POPC   C4A38742  15.905  34.233   7.437
 2768POPC   C1B38743  15.975  33.417   6.319
 2768POPC   C2B38744  16.187  33.562   6.737
 2768POPC   C3B38745  16.235  33.731   7.176
 2768POPC   C4B38746  16.448  33.701   7.583
 2769POPC   NC338747   5.836  32.913   5.380
 2769POPC   PO438748   5.522  33.322   5.721
 2769POPC   GL138749   5.603  32.884   5.854
 2769POPC   GL238750   5.971  32.791   5.860
 2769POPC   C1A38751   5.628  32.763   6.280
 2769POPC   D2A38752   5.873  32.674   6.660
 2769POPC   C3A38753   5.814  32.969   6.999
 2769POPC   C4A38754   5.608  32.848   7.343
 2769POPC   C1B38755   6.174  32.830   6.264
 2769POPC   C2B38756   6.383  32.826   6.671
 2769POPC   C3B38757   6.277  32.780   7.096
 2769POPC   C4B38758   6.048  32.624   7.439
 2770POPC   NC338759  44.080  39.517   5.652
 2770POPC   PO438760  44.296  40.090   5.318
 2770POPC   GL138761  44.011  40.081   5.691
 2770POPC   GL238762  43.700  39.857   5.743
 2770POPC   C1A38763  43.934  40.121   6.151
 2770POPC   D2A38764  44.081  40.341   6.530
 2770POPC   C3A38765  44.040  40.072   6.912
 2770POPC   C4A38766  43.816  40.056   7.300
 2770POPC   C1B38767  43.583  39.710   6.175
 2770POPC   C2B38768  43.453  39.878   6.585
 2770POPC   C3B38769  43.548  39.697   6.999
 2770POPC   C4B38770  43.485  39.697   7.452
 2771POPC   NC338771  30.286  43.404   5.502
 2771POPC   PO438772  30.724  44.023   5.386
 2771POPC   GL138773  30.543  43.821   5.758
 2771POPC   GL238774  30.863  43.712   5.809
 2771POPC   C1A38775  30.418  43.756   6.206
 2771POPC   D2A38776  30.575  43.890   6.621
 2771POPC   C3A38777  30.362  43.782   7.016
 2771POPC   C4A38778  30.549  43.923   7.382
 2771POPC   C1B38779  30.930  43.880   6.197
 2771POPC   C2B38780  31.087  43.822   6.591
 2771POPC   C3B38781  31.199  43.766   7.010
 2771POPC   C4B38782  31.015  43.715   7.445
 2772POPC   NC338783  13.483   8.439   5.089
 2772POPC   PO438784  13.947   8.054   5.299
 2772POPC   GL138785  13.721   8.185   5.703
 2772POPC   GL238786  13.649   8.512   5.696
 2772POPC   C1A38787  13.513   8.138   6.084
 2772POPC   D2A38788  13.646   8.018   6.483
 2772POPC   C3A38789  13.405   8.163   6.841
 2772POPC   C4A38790  13.543   8.057   7.268
 2772POPC   C1B38791  13.813   8.546   6.130
 2772POPC   C2B38792  13.787   8.523   6.584
 2772POPC   C3B38793  13.649   8.603   7.012
 2772POPC   C4B38794  13.544   8.563   7.451
 2773POPC   NC338795  32.564  26.845   5.509
 2773POPC   PO438796  32.673  26.286   5.578
 2773POPC   GL138797  32.429  26.591   5.928
 2773POPC   GL238798  32.137  26.830   5.829
 2773POPC   C1A38799  32.437  26.996   6.217
 2773POPC   D2A38800  32.212  27.203   6.576
 2773POPC   C3A38801  32.288  27.097   7.003
 2773POPC   C4A38802  32.516  27.066   7.410
 2773POPC   C1B38803  31.937  26.925   6.246
 2773POPC   C2B38804  31.970  26.767   6.692
 2773POPC   C3B38805  31.778  26.893   7.099
 2773POPC   C4B38806  31.659  26.858   7.555
 2774POPC   NC338807  44.232   8.481   5.415
 2774POPC   PO438808  44.840   8.167   5.403
 2774POPC   GL138809  44.561   8.204   5.746
 2774POPC   GL238810  44.871   8.226   5.929
 2774POPC   C1A38811  44.464   8.222   6.216
 2774POPC   D2A38812  44.794   8.251   6.530
 2774POPC   C3A38813  44.674   8.460   6.882
 2774POPC   C4A38814  44.484   8.308   7.224
 2774POPC   C1B38815  44.998   7.897   6.214
 2774POPC   C2B38816   0.046   7.840   6.659
 2774POPC   C3B38817  44.949   8.044   7.056
 2774POPC   C4B38818  44.693   7.868   7.403
 2775POPC   NC338819  10.548   0.114   5.505
 2775POPC   PO438820  10.865   0.649   5.286
 2775POPC   GL138821  10.618   0.615   5.717
 2775POPC   GL238822  10.255   0.642   5.741
 2775POPC   C1A38823  10.612   0.330   6.127
 2775POPC   D2A38824  10.573   0.102   6.561
 2775POPC   C3A38825  10.695   0.264   6.982
 2775POPC   C4A38826  10.574   0.691   7.111
 2775POPC   C1B38827  10.226   0.652   6.195
 2775POPC   C2B38828  10.408   0.611   6.607
 2775POPC   C3B38829  10.196   0.386   6.943
 2775POPC   C4B38830  10.270  44.947   7.012
 2776POPC   NC338831   4.414   7.426   5.259
 2776POPC   PO438832   3.881   7.051   5.344
 2776POPC   GL138833   3.979   7.335   5.716
 2776POPC   GL238834   4.326   7.435   5.785
 2776POPC   C1A38835   3.993   7.323   6.168
 2776POPC   D2A38836   4.103   7.490   6.550
 2776POPC   C3A38837   4.084   7.234   6.882
 2776POPC   C4A38838   3.937   7.296   7.277
 2776POPC   C1B38839   4.494   7.515   6.228
 2776POPC   C2B38840   4.579   7.345   6.686
 2776POPC   C3B38841   4.498   7.420   7.166
 2776POPC   C4B38842   4.553   7.740   7.538
 2777POPC   NC338843   7.650   3.568   5.275
 2777POPC   PO438844   7.059   3.196   5.332
 2777POPC   GL138845   7.279   3.472   5.629
 2777POPC   GL238846   7.613   3.343   5.739
 2777POPC   C1A38847   7.263   3.666   6.036
 2777POPC   D2A38848   7.426   3.621   6.456
 2777POPC   C3A38849   7.278   3.715   6.870
 2777POPC   C4A38850   7.447   3.563   7.258
 2777POPC   C1B38851   7.863   3.237   6.113
 2777POPC   C2B38852   7.800   3.249   6.553
 2777POPC   C3B38853   7.443   3.221   6.816
 2777POPC   C4B38854   7.449   3.054   7.244
 2778POPC   NC338855  20.403  36.946   4.993
 2778POPC   PO438856  20.839  36.893   5.343
 2778POPC   GL138857  20.744  36.765   5.760
 2778POPC   GL238858  21.031  36.882   5.946
 2778POPC   C1A38859  20.568  36.834   6.208
 2778POPC   D2A38860  20.504  37.086   6.622
 2778POPC   C3A38861  20.519  36.880   7.049
 2778POPC   C4A38862  20.206  36.752   7.395
 2778POPC   C1B38863  20.983  37.090   6.361
 2778POPC   C2B38864  20.975  37.051   6.811
 2778POPC   C3B38865  20.968  37.101   7.238
 2778POPC   C4B38866  20.934  37.261   7.636
 2779POPC   NC338867  23.157  25.106   5.494
 2779POPC   PO438868  22.542  25.344   5.411
 2779POPC   GL138869  22.851  25.438   5.733
 2779POPC   GL238870  22.770  25.142   5.895
 2779POPC   C1A38871  22.817  25.562   6.191
 2779POPC   D2A38872  22.819  25.267   6.571
 2779POPC   C3A38873  22.705  25.451   6.983
 2779POPC   C4A38874  22.978  25.534   7.330
 2779POPC   C1B38875  23.173  25.204   6.155
 2779POPC   C2B38876  23.355  25.257   6.553
 2779POPC   C3B38877  23.193  25.238   6.957
 2779POPC   C4B38878  23.198  24.942   7.280
 2780POPC   NC338879  41.717  33.338   5.465
 2780POPC   PO438880  41.199  33.841   5.445
 2780POPC   GL138881  41.507  33.949   5.791
 2780POPC   GL238882  41.777  33.688   5.861
 2780POPC   C1A38883  41.775  34.122   6.147
 2780POPC   D2A38884  41.673  34.079   6.586
 2780POPC   C3A38885  41.892  33.952   6.962
 2780POPC   C4A38886  41.603  34.166   7.293
 2780POPC   C1B38887  41.495  33.691   6.246
 2780POPC   C2B38888  41.599  33.575   6.675
 2780POPC   C3B38889  41.471  33.705   7.091
 2780POPC   C4B38890  41.814  33.743   7.451
 2781POPC   NC338891  12.387  11.132   5.569
 2781POPC   PO438892  11.858  11.514   5.381
 2781POPC   GL138893  12.032  11.457   5.768
 2781POPC   GL238894  11.892  11.122   5.764
 2781POPC   C1A38895  12.231  11.386   6.185
 2781POPC   D2A38896  12.058  11.476   6.609
 2781POPC   C3A38897  12.274  11.409   6.982
 2781POPC   C4A38898  12.471  11.304   7.330
 2781POPC   C1B38899  11.737  11.279   6.163
 2781POPC   C2B38900  11.665  11.144   6.577
 2781POPC   C3B38901  11.895  11.069   6.939
 2781POPC   C4B38902  11.864  11.295   7.327
 2782POPC   NC338903  10.707  11.134   5.190
 2782POPC   PO438904  10.601  11.575   5.638
 2782POPC   GL138905  10.557  11.130   5.784
 2782POPC   GL238906  10.196  11.148   5.784
 2782POPC   C1A38907  10.624  10.987   6.222
 2782POPC   D2A38908  10.654  11.355   6.511
 2782POPC   C3A38909  10.503  11.382   6.939
 2782POPC   C4A38910  10.491  11.164   7.299
 2782POPC   C1B38911  10.221  11.331   6.232
 2782POPC   C2B38912  10.051  11.459   6.656
 2782POPC   C3B38913  10.016  11.267   7.074
 2782POPC   C4B38914  10.093  11.398   7.534
 2783POPC   NC338915  39.201  39.002   5.508
 2783POPC   PO438916  39.565  39.537   5.230
 2783POPC   GL138917  39.452  39.636   5.725
 2783POPC   GL238918  39.210  39.385   5.834
 2783POPC   C1A38919  39.313  39.649   6.227
 2783POPC   D2A38920  38.985  39.421   6.476
 2783POPC   C3A38921  39.108  39.436   6.887
 2783POPC   C4A38922  39.143  39.293   7.297
 2783POPC   C1B38923  39.190  39.075   6.167
 2783POPC   C2B38924  39.101  38.900   6.568
 2783POPC   C3B38925  38.932  38.964   6.960
 2783POPC   C4B38926  38.964  38.818   7.348
 2784POPC   NC338927  36.255  26.070   5.351
 2784POPC   PO438928  36.070  25.458   5.431
 2784POPC   GL138929  36.104  25.827   5.781
 2784POPC   GL238930  36.437  25.891   5.871
 2784POPC   C1A38931  36.141  26.175   6.152
 2784POPC   D2A38932  36.358  26.239   6.589
 2784POPC   C3A38933  36.276  26.090   7.025
 2784POPC   C4A38934  36.448  25.934   7.411
 2784POPC   C1B38935  36.464  25.810   6.335
 2784POPC   C2B38936  36.504  25.693   6.797
 2784POPC   C3B38937  36.199  25.581   7.148
 2784POPC   C4B38938  36.216  25.456   7.591
 2785POPC   NC338939  33.169  11.187   5.229
 2785POPC   PO438940  33.355  11.821   5.436
 2785POPC   GL138941  33.048  11.507   5.686
 2785POPC   GL238942  32.964  11.148   5.696
 2785POPC   C1A38943  32.974  11.488   6.128
 2785POPC   D2A38944  33.207  11.401   6.495
 2785POPC   C3A38945  33.056  11.282   6.874
 2785POPC   C4A38946  32.978  11.476   7.266
 2785POPC   C1B38947  32.721  11.073   6.050
 2785POPC   C2B38948  32.863  10.988   6.463
 2785POPC   C3B38949  32.695  10.926   6.857
 2785POPC   C4B38950  32.587  11.012   7.277
 2786POPC   NC338951  41.013   0.655   5.256
 2786POPC   PO438952  40.795   0.025   5.343
 2786POPC   GL138953  40.716   0.385   5.615
 2786POPC   GL238954  41.045   0.407   5.767
 2786POPC   C1A38955  40.620   0.503   6.080
 2786POPC   D2A38956  40.766   0.600   6.525
 2786POPC   C3A38957  40.645   0.423   6.904
 2786POPC   C4A38958  40.606   0.561   7.305
 2786POPC   C1B38959  41.142   0.501   6.203
 2786POPC   C2B38960  41.286   0.625   6.622
 2786POPC   C3B38961  41.103   0.610   7.019
 2786POPC   C4B38962  40.998   0.231   7.243
 2787POPC   NC338963   8.659  38.842   5.496
 2787POPC   PO438964   8.900  39.495   5.444
 2787POPC   GL138965   8.937  39.394   5.860
 2787POPC   GL238966   8.766  39.071   5.974
 2787POPC   C1A38967   8.989  39.546   6.268
 2787POPC   D2A38968   8.806  39.485   6.673
 2787POPC   C3A38969   9.047  39.213   6.880
 2787POPC   C4A38970   9.087  39.018   7.230
 2787POPC   C1B38971   8.490  38.903   6.315
 2787POPC   C2B38972   8.437  38.595   6.634
 2787POPC   C3B38973   8.700  38.780   6.941
 2787POPC   C4B38974   8.580  39.197   7.112
 2788POPC   NC338975  38.886  37.608   5.530
 2788POPC   PO438976  38.281  37.988   5.490
 2788POPC   GL138977  38.529  37.854   5.818
 2788POPC   GL238978  38.815  38.047   5.835
 2788POPC   C1A38979  38.466  37.596   6.160
 2788POPC   D2A38980  38.271  37.356   6.463
 2788POPC   C3A38981  38.294  37.594   6.832
 2788POPC   C4A38982  38.199  37.527   7.250
 2788POPC   C1B38983  38.821  37.961   6.271
 2788POPC   C2B38984  38.844  37.785   6.674
 2788POPC   C3B38985  38.844  37.999   7.029
 2788POPC   C4B38986  38.468  37.946   7.252
 2789POPC   NC338987  34.790  39.091   5.560
 2789POPC   PO438988  34.327  39.548   5.416
 2789POPC   GL138989  34.433  39.452   5.846
 2789POPC   GL238990  34.773  39.560   5.862
 2789POPC   C1A38991  34.550  39.254   6.270
 2789POPC   D2A38992  34.363  39.309   6.687
 2789POPC   C3A38993  34.408  39.074   7.029
 2789POPC   C4A38994  34.239  38.850   7.341
 2789POPC   C1B38995  35.055  39.367   6.168
 2789POPC   C2B38996  34.980  39.303   6.610
 2789POPC   C3B38997  34.862  39.326   7.060
 2789POPC   C4B38998  34.849  39.548   7.468
 2790POPC   NC338999   9.430  11.519   5.359
 2790POPC   PO439000   9.053  10.975   5.536
 2790POPC   GL139001   8.978  11.331   5.715
 2790POPC   GL239002   8.616  11.315   5.692
 2790POPC   C1A39003   8.934  11.437   6.127
 2790POPC   D2A39004   9.150  11.432   6.512
 2790POPC   C3A39005   8.982  11.355   6.879
 2790POPC   C4A39006   9.132  11.447   7.256
 2790POPC   C1B39007   8.618  11.047   6.045
 2790POPC   C2B39008   8.716  11.054   6.467
 2790POPC   C3B39009   8.534  11.133   6.865
 2790POPC   C4B39010   8.708  10.970   7.271
 2791POPC   NC339011  42.012  24.581   5.215
 2791POPC   PO439012  41.454  24.414   5.376
 2791POPC   GL139013  41.497  24.349   5.759
 2791POPC   GL239014  41.783  24.535   5.745
 2791POPC   C1A39015  41.330  24.514   6.125
 2791POPC   D2A39016  41.431  24.656   6.531
 2791POPC   C3A39017  41.364  24.432   6.914
 2791POPC   C4A39018  41.345  24.640   7.285
 2791POPC   C1B39019  41.837  24.514   6.182
 2791POPC   C2B39020  41.978  24.673   6.554
 2791POPC   C3B39021  42.058  24.590   6.971
 2791POPC   C4B39022  41.832  24.478   7.309
 2792POPC   NC339023  16.882  16.344   5.480
 2792POPC   PO439024  16.445  15.780   5.397
 2792POPC   GL139025  16.657  15.742   5.819
 2792POPC   GL239026  16.891  16.030   5.889
 2792POPC   C1A39027  16.585  15.930   6.260
 2792POPC   D2A39028  16.793  15.824   6.613
 2792POPC   C3A39029  16.754  15.936   7.028
 2792POPC   C4A39030  16.720  15.609   7.340
 2792POPC   C1B39031  17.058  16.188   6.321
 2792POPC   C2B39032  17.192  16.118   6.784
 2792POPC   C3B39033  17.118  16.247   7.228
 2792POPC   C4B39034  17.044  16.438   7.660
 2793POPC   NC339035  38.379  42.036   5.320
 2793POPC   PO439036  38.580  42.634   5.469
 2793POPC   GL139037  38.495  42.467   5.867
 2793POPC   GL239038  38.454  42.078   5.844
 2793POPC   C1A39039  38.392  42.676   6.270
 2793POPC   D2A39040  38.656  42.724   6.636
 2793POPC   C3A39041  38.605  42.564   7.050
 2793POPC   C4A39042  38.559  42.401   7.462
 2793POPC   C1B39043  38.468  42.173   6.303
 2793POPC   C2B39044  38.659  42.194   6.696
 2793POPC   C3B39045  38.435  42.072   7.103
 2793POPC   C4B39046  38.196  42.083   7.543
 2794POPC   NC339047  15.919  21.913   5.595
 2794POPC   PO439048  15.924  21.290   5.378
 2794POPC   GL139049  16.072  21.457   5.780
 2794POPC   GL239050  16.369  21.709   5.815
 2794POPC   C1A39051  15.850  21.301   6.135
 2794POPC   D2A39052  15.904  20.995   6.440
 2794POPC   C3A39053  15.979  21.226   6.788
 2794POPC   C4A39054  15.862  21.230   7.177
 2794POPC   C1B39055  16.152  21.727   6.229
 2794POPC   C2B39056  16.266  21.823   6.669
 2794POPC   C3B39057  16.076  21.679   7.059
 2794POPC   C4B39058  15.829  21.645   7.444
 2795POPC   NC339059  18.788  12.760   5.369
 2795POPC   PO439060  18.843  13.380   5.291
 2795POPC   GL139061  19.024  13.087   5.692
 2795POPC   GL239062  19.166  12.719   5.742
 2795POPC   C1A39063  19.017  12.974   6.164
 2795POPC   D2A39064  19.130  12.909   6.597
 2795POPC   C3A39065  18.832  12.807   6.923
 2795POPC   C4A39066  18.948  12.822   7.357
 2795POPC   C1B39067  18.990  12.448   6.124
 2795POPC   C2B39068  18.960  12.406   6.599
 2795POPC   C3B39069  19.116  12.397   7.074
 2795POPC   C4B39070  19.061  12.304   7.530
 2796POPC   NC339071  25.232  31.204   5.404
 2796POPC   PO439072  24.877  31.766   5.646
 2796POPC   GL139073  25.184  31.476   5.841
 2796POPC   GL239074  25.470  31.233   5.839
 2796POPC   C1A39075  25.367  31.569   6.211
 2796POPC   D2A39076  25.194  31.702   6.585
 2796POPC   C3A39077  25.305  31.582   6.986
 2796POPC   C4A39078  25.164  31.351   7.300
 2796POPC   C1B39079  25.211  31.042   6.135
 2796POPC   C2B39080  25.377  31.175   6.525
 2796POPC   C3B39081  25.424  31.110   6.922
 2796POPC   C4B39082  25.646  31.252   7.345
 2797POPC   NC339083  19.349  42.238   5.416
 2797POPC   PO439084  18.697  42.366   5.457
 2797POPC   GL139085  19.005  42.340   5.813
 2797POPC   GL239086  19.211  42.040   5.855
 2797POPC   C1A39087  19.232  42.542   6.174
 2797POPC   D2A39088  19.232  42.624   6.618
 2797POPC   C3A39089  18.874  42.379   6.811
 2797POPC   C4A39090  18.776  42.312   7.231
 2797POPC   C1B39091  19.358  42.036   6.268
 2797POPC   C2B39092  19.263  42.075   6.715
 2797POPC   C3B39093  19.220  42.096   7.187
 2797POPC   C4B39094  19.211  42.076   7.693
 2798POPC   NC339095  10.848  34.594   5.441
 2798POPC   PO439096  11.488  34.682   5.449
 2798POPC   GL139097  11.453  34.346   5.815
 2798POPC   GL239098  11.088  34.216   5.896
 2798POPC   C1A39099  11.637  34.448   6.229
 2798POPC   D2A39100  11.466  34.677   6.612
 2798POPC   C3A39101  11.528  34.497   7.021
 2798POPC   C4A39102  11.273  34.417   7.401
 2798POPC   C1B39103  11.153  34.260   6.323
 2798POPC   C2B39104  10.938  34.478   6.597
 2798POPC   C3B39105  10.989  34.567   6.978
 2798POPC   C4B39106  10.771  34.545   7.308
 2799POPC   NC339107  22.991  27.531   5.464
 2799POPC   PO439108  23.330  28.100   5.688
 2799POPC   GL139109  23.093  27.766   5.909
 2799POPC   GL239110  22.733  27.757   5.883
 2799POPC   C1A39111  22.958  27.374   6.149
 2799POPC   D2A39112  22.818  27.307   6.599
 2799POPC   C3A39113  23.125  27.547   6.877
 2799POPC   C4A39114  23.286  27.427   7.275
 2799POPC   C1B39115  22.452  27.987   6.175
 2799POPC   C2B39116  22.247  27.994   6.623
 2799POPC   C3B39117  22.433  27.834   7.023
 2799POPC   C4B39118  22.809  27.771   7.280
 2800POPC   NC339119  23.025  14.372   5.331
 2800POPC   PO439120  22.514  14.207   5.700
 2800POPC   GL139121  22.932  14.318   5.862
 2800POPC   GL239122  23.065  14.613   5.774
 2800POPC   C1A39123  23.239  14.321   6.223
 2800POPC   D2A39124  23.450  14.232   6.613
 2800POPC   C3A39125  23.136  14.092   6.916
 2800POPC   C4A39126  23.057  14.196   7.342
 2800POPC   C1B39127  23.014  14.762   6.167
 2800POPC   C2B39128  22.871  14.758   6.559
 2800POPC   C3B39129  23.000  14.619   6.939
 2800POPC   C4B39130  23.039  14.899   7.248
 2801POPC   NC339131  25.434   1.019   5.593
 2801POPC   PO439132  25.213   1.645   5.404
 2801POPC   GL139133  25.360   1.484   5.794
 2801POPC   GL239134  25.062   1.301   5.830
 2801POPC   C1A39135  25.438   1.332   6.239
 2801POPC   D2A39136  25.552   1.533   6.634
 2801POPC   C3A39137  25.662   1.382   7.027
 2801POPC   C4A39138  25.730   0.962   7.106
 2801POPC   C1B39139  25.030   1.643   6.172
 2801POPC   C2B39140  25.036   1.545   6.612
 2801POPC   C3B39141  25.156   1.315   6.965
 2801POPC   C4B39142  25.202   1.471   7.408
 2802POPC   NC339143  35.477  28.516   5.255
 2802POPC   PO439144  35.156  28.595   5.893
 2802POPC   GL139145  35.551  28.603   6.056
 2802POPC   GL239146  35.668  28.415   5.764
 2802POPC   C1A39147  35.560  28.516   6.485
 2802POPC   D2A39148  35.282  28.331   6.805
 2802POPC   C3A39149  35.293  28.451   7.223
 2802POPC   C4A39150  35.063  28.729   7.477
 2802POPC   C1B39151  35.681  28.115   6.142
 2802POPC   C2B39152  35.614  28.006   6.574
 2802POPC   C3B39153  35.593  27.903   7.007
 2802POPC   C4B39154  35.591  28.079   7.423
 2803POPC   NC339155   8.608  34.206   5.532
 2803POPC   PO439156   9.166  33.838   5.360
 2803POPC   GL139157   8.982  33.855   5.746
 2803POPC   GL239158   9.074  34.194   5.809
 2803POPC   C1A39159   8.930  33.624   6.133
 2803POPC   D2A39160   9.117  33.561   6.520
 2803POPC   C3A39161   8.800  33.393   6.803
 2803POPC   C4A39162   8.821  33.387   7.234
 2803POPC   C1B39163   9.194  34.374   6.209
 2803POPC   C2B39164   8.981  34.105   6.503
 2803POPC   C3B39165   8.983  33.887   6.902
 2803POPC   C4B39166   9.227  34.025   7.245
 2804POPC   NC339167  44.373  35.415   5.414
 2804POPC   PO439168  44.894  35.024   5.241
 2804POPC   GL139169  44.846  35.249   5.700
 2804POPC   GL239170  44.597  35.531   5.844
 2804POPC   C1A39171  44.750  35.166   6.168
 2804POPC   D2A39172  44.690  34.921   6.545
 2804POPC   C3A39173  44.837  35.076   6.925
 2804POPC   C4A39174  44.623  35.168   7.328
 2804POPC   C1B39175  44.387  35.487   6.249
 2804POPC   C2B39176  44.567  35.433   6.636
 2804POPC   C3B39177  44.703  35.581   7.037
 2804POPC   C4B39178  44.557  35.647   7.480
 2805POPC   NC339179  20.929  34.884   5.529
 2805POPC   PO439180  21.546  34.453   5.469
 2805POPC   GL139181  21.260  34.567   5.792
 2805POPC   GL239182  21.505  34.788   5.904
 2805POPC   C1A39183  21.177  34.653   6.251
 2805POPC   D2A39184  21.429  34.571   6.614
 2805POPC   C3A39185  21.313  34.805   6.975
 2805POPC   C4A39186  21.115  34.736   7.397
 2805POPC   C1B39187  21.599  34.388   6.146
 2805POPC   C2B39188  21.867  34.270   6.493
 2805POPC   C3B39189  21.794  34.406   6.913
 2805POPC   C4B39190  21.499  34.421   7.250
 2806POPC   NC339191  30.159   8.853   5.530
 2806POPC   PO439192  29.956   9.395   5.164
 2806POPC   GL139193  29.865   9.262   5.650
 2806POPC   GL239194  29.770   8.974   5.879
 2806POPC   C1A39195  29.847   9.358   6.159
 2806POPC   D2A39196  29.729   9.178   6.572
 2806POPC   C3A39197  29.827   9.178   7.005
 2806POPC   C4A39198  29.945   8.945   7.406
 2806POPC   C1B39199  29.973   8.857   6.268
 2806POPC   C2B39200  30.247   9.071   6.590
 2806POPC   C3B39201  30.244   8.876   6.999
 2806POPC   C4B39202  30.428   8.812   7.443
 2807POPC   NC339203  36.767  13.918   5.442
 2807POPC   PO439204  37.077  13.416   5.466
 2807POPC   GL139205  36.962  13.592   5.892
 2807POPC   GL239206  36.982  13.935   6.011
 2807POPC   C1A39207  36.997  13.503   6.354
 2807POPC   D2A39208  37.169  13.629   6.787
 2807POPC   C3A39209  36.879  13.573   7.136
 2807POPC   C4A39210  36.530  13.798   7.404
 2807POPC   C1B39211  37.002  14.016   6.486
 2807POPC   C2B39212  37.211  14.124   6.908
 2807POPC   C3B39213  36.963  14.056   7.286
 2807POPC   C4B39214  36.845  14.146   7.704
 2808POPC   NC339215  18.441   2.061   5.378
 2808POPC   PO439216  17.786   1.740   5.421
 2808POPC   GL139217  18.107   1.781   5.769
 2808POPC   GL239218  18.464   1.906   5.846
 2808POPC   C1A39219  18.241   1.645   6.200
 2808POPC   D2A39220  18.278   1.488   6.606
 2808POPC   C3A39221  18.123   1.652   6.975
 2808POPC   C4A39222  17.823   1.921   7.017
 2808POPC   C1B39223  18.330   2.156   6.217
 2808POPC   C2B39224  18.410   2.344   6.641
 2808POPC   C3B39225  18.382   2.100   7.027
 2808POPC   C4B39226  18.596   1.680   7.159
 2809POPC   NC339227   8.136  38.401   5.074
 2809POPC   PO439228   8.700  38.380   5.521
 2809POPC   GL139229   9.006  38.648   5.818
 2809POPC   GL239230   9.168  38.971   5.660
 2809POPC   C1A39231   8.992  38.701   6.292
 2809POPC   D2A39232   8.882  38.339   6.557
 2809POPC   C3A39233   8.878  38.280   6.985
 2809POPC   C4A39234   9.149  38.031   7.239
 2809POPC   C1B39235   9.283  39.094   6.099
 2809POPC   C2B39236   9.391  39.056   6.547
 2809POPC   C3B39237   9.220  38.718   6.827
 2809POPC   C4B39238   9.229  38.537   7.245
 2810POPC   NC339239  37.944  23.719   5.333
 2810POPC   PO439240  37.634  24.278   5.419
 2810POPC   GL139241  37.812  24.011   5.739
 2810POPC   GL239242  37.572  23.727   5.764
 2810POPC   C1A39243  38.029  23.886   6.133
 2810POPC   D2A39244  38.228  23.614   6.465
 2810POPC   C3A39245  38.125  23.713   6.906
 2810POPC   C4A39246  37.784  23.477   7.095
 2810POPC   C1B39247  37.605  23.590   6.204
 2810POPC   C2B39248  37.660  23.729   6.638
 2810POPC   C3B39249  37.472  23.870   7.014
 2810POPC   C4B39250  37.408  24.171   7.305
 2811POPC   NC339251   5.642  34.847   5.421
 2811POPC   PO439252   5.794  34.245   5.644
 2811POPC   GL139253   5.751  34.451   5.979
 2811POPC   GL239254   5.861  34.771   5.882
 2811POPC   C1A39255   5.661  34.408   6.397
 2811POPC   D2A39256   5.424  34.281   6.684
 2811POPC   C3A39257   5.632  34.453   6.989
 2811POPC   C4A39258   6.027  34.550   7.194
 2811POPC   C1B39259   6.059  34.698   6.292
 2811POPC   C2B39260   5.865  34.827   6.697
 2811POPC   C3B39261   5.988  35.059   7.057
 2811POPC   C4B39262   6.104  34.995   7.455
 2812POPC   NC339263  32.873  11.864   5.377
 2812POPC   PO439264  32.206  12.076   5.394
 2812POPC   GL139265  32.081  12.000   5.804
 2812POPC   GL239266  32.367  12.091   5.890
 2812POPC   C1A39267  32.020  11.901   6.271
 2812POPC   D2A39268  32.193  11.618   6.618
 2812POPC   C3A39269  32.277  11.816   7.035
 2812POPC   C4A39270  32.058  11.927   7.396
 2812POPC   C1B39271  32.482  12.207   6.257
 2812POPC   C2B39272  32.495  12.080   6.666
 2812POPC   C3B39273  32.504  12.287   7.095
 2812POPC   C4B39274  32.397  12.273   7.558
 2813POPC   NC339275  10.859  43.246   5.367
 2813POPC   PO439276  10.377  42.727   5.429
 2813POPC   GL139277  10.622  42.810   5.799
 2813POPC   GL239278  10.609  43.171   5.810
 2813POPC   C1A39279  10.433  42.894   6.230
 2813POPC   D2A39280  10.317  43.222   6.544
 2813POPC   C3A39281  10.356  43.049   6.958
 2813POPC   C4A39282  10.250  43.210   7.403
 2813POPC   C1B39283  10.764  43.284   6.218
 2813POPC   C2B39284  10.817  43.111   6.637
 2813POPC   C3B39285  10.799  43.272   7.045
 2813POPC   C4B39286  11.064  43.274   7.390
 2814POPC   NC339287   7.824  43.118   4.864
 2814POPC   PO439288   7.381  42.971   5.414
 2814POPC   GL139289   7.364  42.847   5.873
 2814POPC   GL239290   7.573  42.560   5.927
 2814POPC   C1A39291   7.614  42.936   6.286
 2814POPC   D2A39292   7.710  43.230   6.634
 2814POPC   C3A39293   7.379  43.252   6.959
 2814POPC   C4A39294   7.376  43.139   7.402
 2814POPC   C1B39295   7.328  42.502   6.310
 2814POPC   C2B39296   7.320  42.619   6.749
 2814POPC   C3B39297   7.540  42.708   7.149
 2814POPC   C4B39298   7.734  42.809   7.574
 2815POPC   NC339299  26.414  28.480   5.400
 2815POPC   PO439300  25.957  28.150   5.384
 2815POPC   GL139301  26.073  28.329   5.779
 2815POPC   GL239302  25.911  28.681   5.784
 2815POPC   C1A39303  26.258  28.230   6.177
 2815POPC   D2A39304  26.021  28.279   6.567
 2815POPC   C3A39305  26.176  28.459   6.918
 2815POPC   C4A39306  26.295  28.154   7.177
 2815POPC   C1B39307  25.823  28.565   6.215
 2815POPC   C2B39308  25.808  28.727   6.651
 2815POPC   C3B39309  25.713  28.617   7.076
 2815POPC   C4B39310  26.066  28.719   7.363
 2816POPC   NC339311  20.155   0.666   5.131
 2816POPC   PO439312  19.692   0.234   5.220
 2816POPC   GL139313  19.926   0.269   5.648
 2816POPC   GL239314  20.028   0.600   5.733
 2816POPC   C1A39315  20.219   0.187   6.029
 2816POPC   D2A39316  20.140   0.061   6.479
 2816POPC   C3A39317  20.088   0.396   6.800
 2816POPC   C4A39318  20.050   0.395   7.253
 2816POPC   C1B39319  19.816   0.516   6.156
 2816POPC   C2B39320  19.608   0.322   6.532
 2816POPC   C3B39321  19.594   0.399   6.980
 2816POPC   C4B39322  19.596   0.530   7.409
 2817POPC   NC339323  35.712   0.406   5.297
 2817POPC   PO439324  35.067   0.175   5.273
 2817POPC   GL139325  35.301   0.376   5.614
 2817POPC   GL239326  35.336   0.113   5.847
 2817POPC   C1A39327  35.363   0.591   6.030
 2817POPC   D2A39328  35.215   0.657   6.480
 2817POPC   C3A39329  35.376   0.402   6.826
 2817POPC   C4A39330  35.385   0.412   7.278
 2817POPC   C1B39331  35.093   0.181   6.248
 2817POPC   C2B39332  34.905   0.213   6.672
 2817POPC   C3B39333  34.923   0.166   7.117
 2817POPC   C4B39334  35.056   0.103   7.552
 2818POPC   NC339335  33.029   0.701   5.325
 2818POPC   PO439336  32.855   0.081   5.093
 2818POPC   GL139337  33.186   0.278   5.522
 2818POPC   GL239338  33.177   0.098   5.849
 2818POPC   C1A39339  33.103   0.603   5.963
 2818POPC   D2A39340  32.952   0.501   6.441
 2818POPC   C3A39341  32.929   0.693   6.914
 2818POPC   C4A39342  32.500   0.654   7.197
 2818POPC   C1B39343  33.351   0.256   6.224
 2818POPC   C2B39344  33.394   0.092   6.611
 2818POPC   C3B39345  33.291   0.328   6.974
 2818POPC   C4B39346  32.893   0.287   7.200
 2819POPC   NC339347  11.836  38.567   4.989
 2819POPC   PO439348  12.086  38.163   5.500
 2819POPC   GL139349  12.201  38.430   5.846
 2819POPC   GL239350  11.964  38.243   5.992
 2819POPC   C1A39351  12.058  38.668   6.218
 2819POPC   D2A39352  11.766  38.505   6.542
 2819POPC   C3A39353  11.821  38.707   6.945
 2819POPC   C4A39354  12.081  38.676   7.301
 2819POPC   C1B39355  12.370  38.177   6.239
 2819POPC   C2B39356  12.444  38.360   6.651
 2819POPC   C3B39357  12.263  38.264   7.047
 2819POPC   C4B39358  12.505  37.920   7.197
 2820POPC   NC339359   8.581  39.834   5.402
 2820POPC   PO439360   7.926  39.702   5.349
 2820POPC   GL139361   8.178  39.988   5.693
 2820POPC   GL239362   8.445  39.835   5.890
 2820POPC   C1A39363   8.252  40.306   6.051
 2820POPC   D2A39364   8.271  40.268   6.500
 2820POPC   C3A39365   8.420  40.482   6.857
 2820POPC   C4A39366   8.117  40.499   7.146
 2820POPC   C1B39367   8.155  39.813   6.203
 2820POPC   C2B39368   8.222  39.776   6.622
 2820POPC   C3B39369   8.352  39.989   6.995
 2820POPC   C4B39370   8.092  40.026   7.332
 2821POPC   NC339371  16.469  20.061   5.592
 2821POPC   PO439372  15.927  19.675   5.439
 2821POPC   GL139373  16.004  19.844   5.821
 2821POPC   GL239374  16.280  19.661   5.916
 2821POPC   C1A39375  15.854  19.757   6.248
 2821POPC   D2A39376  15.827  19.994   6.615
 2821POPC   C3A39377  15.814  19.837   7.026
 2821POPC   C4A39378  15.761  19.676   7.437
 2821POPC   C1B39379  16.299  19.981   6.266
 2821POPC   C2B39380  16.268  20.268   6.605
 2821POPC   C3B39381  16.140  20.278   7.032
 2821POPC   C4B39382  16.180  19.963   7.371
 2822POPC   NC339383  30.899  44.413   5.596
 2822POPC   PO439384  30.485  44.920   5.515
 2822POPC   GL139385  30.534  44.659   5.857
 2822POPC   GL239386  30.409  44.322   5.770
 2822POPC   C1A39387  30.723  44.749   6.266
 2822POPC   D2A39388  30.553  44.921   6.654
 2822POPC   C3A39389  30.769  44.708   6.976
 2822POPC   C4A39390  30.978  44.683   7.376
 2822POPC   C1B39391  30.581  44.256   6.190
 2822POPC   C2B39392  30.497  44.411   6.590
 2822POPC   C3B39393  30.437  44.296   6.995
 2822POPC   C4B39394  30.514  44.480   7.376
 2823POPC   NC339395   7.817  30.408   5.445
 2823POPC   PO439396   7.922  31.082   5.585
 2823POPC   GL139397   8.107  30.688   5.758
 2823POPC   GL239398   8.397  30.424   5.784
 2823POPC   C1A39399   8.051  30.665   6.172
 2823POPC   D2A39400   7.926  30.575   6.569
 2823POPC   C3A39401   8.088  30.881   6.865
 2823POPC   C4A39402   8.025  30.854   7.288
 2823POPC   C1B39403   8.404  30.312   6.255
 2823POPC   C2B39404   8.520  30.276   6.722
 2823POPC   C3B39405   8.354  30.483   7.091
 2823POPC   C4B39406   8.548  30.469   7.521
 2824POPC   NC339407  32.376  39.813   5.380
 2824POPC   PO439408  31.773  40.050   5.274
 2824POPC   GL139409  32.061  40.188   5.653
 2824POPC   GL239410  32.440  40.114   5.779
 2824POPC   C1A39411  32.076  40.041   6.100
 2824POPC   D2A39412  31.907  40.082   6.487
 2824POPC   C3A39413  32.069  40.136   6.883
 2824POPC   C4A39414  32.109  39.902   7.226
 2824POPC   C1B39415  32.613  40.107   6.187
 2824POPC   C2B39416  32.404  39.887   6.503
 2824POPC   C3B39417  32.479  39.747   6.908
 2824POPC   C4B39418  32.654  40.063   7.178
 2825POPC   NC339419  31.354  39.868   5.332
 2825POPC   PO439420  31.171  40.439   5.533
 2825POPC   GL139421  31.499  40.245   5.789
 2825POPC   GL239422  31.638  39.902   5.763
 2825POPC   C1A39423  31.464  40.159   6.224
 2825POPC   D2A39424  31.495  40.306   6.650
 2825POPC   C3A39425  31.216  40.176   6.953
 2825POPC   C4A39426  31.225  39.855   7.274
 2825POPC   C1B39427  31.686  39.697   6.152
 2825POPC   C2B39428  31.514  39.743   6.530
 2825POPC   C3B39429  31.617  39.823   6.907
 2825POPC   C4B39430  31.682  39.648   7.313
 2826POPC   NC339431  28.571  44.437   5.351
 2826POPC   PO439432  28.324   0.122   5.321
 2826POPC   GL139433  28.274  44.797   5.719
 2826POPC   GL239434  28.256  44.423   5.750
 2826POPC   C1A39435  28.136  44.653   6.177
 2826POPC   D2A39436  28.311  44.687   6.603
 2826POPC   C3A39437  28.253  44.527   7.044
 2826POPC   C4A39438  28.303  44.644   7.471
 2826POPC   C1B39439  28.576  44.363   6.084
 2826POPC   C2B39440  28.779  44.478   6.485
 2826POPC   C3B39441  28.716  44.353   6.912
 2826POPC   C4B39442  28.771  44.487   7.352
 2827POPC   NC339443   4.005  16.365   5.165
 2827POPC   PO439444   4.299  16.793   5.721
 2827POPC   GL139445   4.191  16.586   6.105
 2827POPC   GL239446   3.875  16.426   6.163
 2827POPC   C1A39447   4.223  16.714   6.512
 2827POPC   D2A39448   4.423  17.086   6.577
 2827POPC   C3A39449   4.695  17.004   6.892
 2827POPC   C4A39450   4.619  16.732   7.214
 2827POPC   C1B39451   3.779  16.889   6.322
 2827POPC   C2B39452   3.876  17.065   6.734
 2827POPC   C3B39453   4.156  16.875   7.018
 2827POPC   C4B39454   4.209  16.442   7.172
 2828POPC   NC339455  11.597  37.160   5.427
 2828POPC   PO439456  12.337  37.224   5.301
 2828POPC   GL139457  12.174  37.137   5.740
 2828POPC   GL239458  11.846  37.258   5.846
 2828POPC   C1A39459  12.084  36.968   6.189
 2828POPC   D2A39460  12.269  36.879   6.580
 2828POPC   C3A39461  11.960  36.750   6.879
 2828POPC   C4A39462  12.120  36.841   7.253
 2828POPC   C1B39463  11.758  37.344   6.259
 2828POPC   C2B39464  11.753  37.173   6.668
 2828POPC   C3B39465  11.670  37.248   7.123
 2828POPC   C4B39466  11.846  37.157   7.541
 2829POPC   NC339467  19.987  22.642   5.487
 2829POPC   PO439468  19.438  22.897   5.333
 2829POPC   GL139469  19.686  22.943   5.748
 2829POPC   GL239470  19.496  22.645   5.801
 2829POPC   C1A39471  19.992  22.948   6.131
 2829POPC   D2A39472  19.829  23.039   6.561
 2829POPC   C3A39473  20.052  22.942   6.954
 2829POPC   C4A39474  19.820  23.075   7.302
 2829POPC   C1B39475  19.494  22.820   6.198
 2829POPC   C2B39476  19.451  22.581   6.557
 2829POPC   C3B39477  19.591  22.727   6.927
 2829POPC   C4B39478  19.453  22.738   7.337
 2830POPC   NC339479  41.029  38.657   5.540
 2830POPC   PO439480  40.441  38.283   5.576
 2830POPC   GL139481  40.772  38.229   5.848
 2830POPC   GL239482  40.757  38.559   5.960
 2830POPC   C1A39483  40.857  38.190   6.298
 2830POPC   D2A39484  40.842  38.024   6.718
 2830POPC   C3A39485  40.793  38.306   7.076
 2830POPC   C4A39486  41.083  38.294   7.434
 2830POPC   C1B39487  40.636  38.716   6.360
 2830POPC   C2B39488  40.459  39.000   6.661
 2830POPC   C3B39489  40.470  38.854   7.090
 2830POPC   C4B39490  40.821  38.740   7.365
 2831POPC   NC339491  40.565  35.605   5.490
 2831POPC   PO439492  39.865  35.525   5.340
 2831POPC   GL139493  39.930  35.444   5.799
 2831POPC   GL239494  40.256  35.580   5.878
 2831POPC   C1A39495  40.093  35.235   6.209
 2831POPC   D2A39496  40.064  35.007   6.617
 2831POPC   C3A39497  39.982  35.235   7.005
 2831POPC   C4A39498  39.652  35.095   7.285
 2831POPC   C1B39499  40.270  35.728   6.278
 2831POPC   C2B39500  40.249  35.534   6.668
 2831POPC   C3B39501  40.335  35.628   7.084
 2831POPC   C4B39502  40.275  35.633   7.520
 2832POPC   NC339503  37.207  39.041   5.433
 2832POPC   PO439504  36.815  39.522   5.192
 2832POPC   GL139505  36.826  39.362   5.647
 2832POPC   GL239506  37.136  39.361   5.829
 2832POPC   C1A39507  36.710  39.224   6.087
 2832POPC   D2A39508  36.694  39.257   6.548
 2832POPC   C3A39509  36.909  39.166   6.957
 2832POPC   C4A39510  36.896  39.399   7.347
 2832POPC   C1B39511  37.187  39.041   6.179
 2832POPC   C2B39512  37.213  38.885   6.632
 2832POPC   C3B39513  37.412  38.950   7.067
 2832POPC   C4B39514  37.297  39.118   7.509
 2833POPC   NC339515  14.561  40.399   5.384
 2833POPC   PO439516  14.147  39.767   5.359
 2833POPC   GL139517  14.344  39.782   5.756
 2833POPC   GL239518  14.221  40.145   5.807
 2833POPC   C1A39519  14.547  39.679   6.166
 2833POPC   D2A39520  14.451  39.907   6.555
 2833POPC   C3A39521  14.558  39.758   6.957
 2833POPC   C4A39522  14.522  39.734   7.408
 2833POPC   C1B39523  14.040  40.338   6.217
 2833POPC   C2B39524  14.227  40.398   6.653
 2833POPC   C3B39525  14.455  40.257   7.024
 2833POPC   C4B39526  14.842  40.112   7.246
 2834POPC   NC339527  26.657  12.069   5.103
 2834POPC   PO439528  26.930  12.307   5.710
 2834POPC   GL139529  26.883  11.986   6.009
 2834POPC   GL239530  26.995  11.664   6.012
 2834POPC   C1A39531  26.765  12.124   6.386
 2834POPC   D2A39532  26.594  12.414   6.620
 2834POPC   C3A39533  26.705  12.235   6.980
 2834POPC   C4A39534  26.494  11.974   7.267
 2834POPC   C1B39535  26.920  11.638   6.427
 2834POPC   C2B39536  27.009  11.859   6.784
 2834POPC   C3B39537  26.964  11.767   7.211
 2834POPC   C4B39538  27.131  11.767   7.599
 2835POPC   NC339539  35.685  36.222   5.617
 2835POPC   PO439540  36.367  36.113   5.464
 2835POPC   GL139541  36.416  36.185   5.884
 2835POPC   GL239542  36.166  35.934   5.932
 2835POPC   C1A39543  36.234  36.298   6.284
 2835POPC   D2A39544  35.990  36.356   6.663
 2835POPC   C3A39545  36.205  36.375   7.042
 2835POPC   C4A39546  36.423  36.026   7.231
 2835POPC   C1B39547  35.901  35.877   6.310
 2835POPC   C2B39548  35.846  35.889   6.762
 2835POPC   C3B39549  35.747  36.129   7.114
 2835POPC   C4B39550  35.524  35.964   7.465
 2836POPC   NC339551  14.424   8.104   5.315
 2836POPC   PO439552  14.647   8.692   5.516
 2836POPC   GL139553  14.520   8.349   5.779
 2836POPC   GL239554  14.205   8.267   5.750
 2836POPC   C1A39555  14.558   8.052   6.159
 2836POPC   D2A39556  14.672   8.119   6.603
 2836POPC   C3A39557  14.428   8.135   6.999
 2836POPC   C4A39558  14.261   7.809   7.264
 2836POPC   C1B39559  14.042   8.073   6.123
 2836POPC   C2B39560  14.148   8.147   6.546
 2836POPC   C3B39561  13.926   8.162   6.919
 2836POPC   C4B39562  13.980   8.307   7.297
 2837POPC   NC339563  28.767  28.737   5.489
 2837POPC   PO439564  29.099  29.409   5.497
 2837POPC   GL139565  29.329  29.334   5.875
 2837POPC   GL239566  29.188  29.021   5.901
 2837POPC   C1A39567  29.279  29.233   6.334
 2837POPC   D2A39568  29.051  28.945   6.528
 2837POPC   C3A39569  29.014  29.076   6.914
 2837POPC   C4A39570  29.125  29.190   7.313
 2837POPC   C1B39571  29.428  28.765   6.192
 2837POPC   C2B39572  29.505  28.748   6.650
 2837POPC   C3B39573  29.376  28.767   7.109
 2837POPC   C4B39574  29.466  28.810   7.569
 2838POPC   NC339575  33.267  37.147   5.351
 2838POPC   PO439576  32.802  36.727   5.173
 2838POPC   GL139577  32.903  36.919   5.624
 2838POPC   GL239578  33.257  36.874   5.771
 2838POPC   C1A39579  32.914  36.930   6.123
 2838POPC   D2A39580  33.099  36.632   6.379
 2838POPC   C3A39581  33.075  36.614   6.825
 2838POPC   C4A39582  32.903  36.801   7.170
 2838POPC   C1B39583  33.390  37.130   6.156
 2838POPC   C2B39584  33.431  36.993   6.603
 2838POPC   C3B39585  33.287  37.094   7.026
 2838POPC   C4B39586  33.321  37.224   7.497
 2839POPC   NC339587  38.764   5.934   5.468
 2839POPC   PO439588  38.191   5.672   5.329
 2839POPC   GL139589  38.165   5.683   5.798
 2839POPC   GL239590  38.361   5.442   5.953
 2839POPC   C1A39591  38.213   5.811   6.264
 2839POPC   D2A39592  38.408   6.130   6.536
 2839POPC   C3A39593  38.406   6.070   6.982
 2839POPC   C4A39594  38.294   6.152   7.409
 2839POPC   C1B39595  38.556   5.437   6.377
 2839POPC   C2B39596  38.396   5.594   6.763
 2839POPC   C3B39597  38.221   5.622   7.182
 2839POPC   C4B39598  38.360   5.650   7.626
 2840POPC   NC339599  36.703  33.226   5.590
 2840POPC   PO439600  36.887  32.615   5.404
 2840POPC   GL139601  36.715  32.756   5.809
 2840POPC   GL239602  37.036  32.883   5.832
 2840POPC   C1A39603  36.761  33.005   6.217
 2840POPC   D2A39604  36.571  32.935   6.574
 2840POPC   C3A39605  36.824  32.947   6.894
 2840POPC   C4A39606  36.927  32.657   7.286
 2840POPC   C1B39607  37.252  32.798   6.209
 2840POPC   C2B39608  37.335  33.012   6.607
 2840POPC   C3B39609  37.280  32.965   7.045
 2840POPC   C4B39610  37.448  32.686   7.348
 2841POPC   NC339611  15.154  14.635   5.483
 2841POPC   PO439612  15.623  14.233   5.186
 2841POPC   GL139613  15.480  14.135   5.647
 2841POPC   GL239614  15.129  14.218   5.750
 2841POPC   C1A39615  15.465  14.259   6.135
 2841POPC   D2A39616  15.321  14.531   6.459
 2841POPC   C3A39617  15.353  14.487   6.898
 2841POPC   C4A39618  15.328  14.546   7.309
 2841POPC   C1B39619  14.940  14.195   6.180
 2841POPC   C2B39620  14.882  14.312   6.622
 2841POPC   C3B39621  14.885  14.424   7.067
 2841POPC   C4B39622  14.849  14.602   7.497
 2842POPC   NC339623  30.997  32.797   5.489
 2842POPC   PO439624  30.532  33.298   5.376
 2842POPC   GL139625  30.771  33.173   5.741
 2842POPC   GL239626  30.627  32.882   5.896
 2842POPC   C1A39627  31.013  33.197   6.134
 2842POPC   D2A39628  30.979  33.353   6.571
 2842POPC   C3A39629  30.743  33.202   6.945
 2842POPC   C4A39630  30.770  33.347   7.413
 2842POPC   C1B39631  30.517  32.582   6.238
 2842POPC   C2B39632  30.408  32.400   6.647
 2842POPC   C3B39633  30.359  32.568   7.077
 2842POPC   C4B39634  30.573  32.904   7.318
 2843POPC   NC339635  39.163  39.778   5.096
 2843POPC   PO439636  39.429  40.205   5.533
 2843POPC   GL139637  39.406  40.116   5.949
 2843POPC   GL239638  39.108  40.079   6.109
 2843POPC   C1A39639  39.564  40.192   6.344
 2843POPC   D2A39640  39.429  40.400   6.709
 2843POPC   C3A39641  39.420  40.177   7.102
 2843POPC   C4A39642  39.335  39.755   7.237
 2843POPC   C1B39643  38.778  39.793   6.176
 2843POPC   C2B39644  38.672  39.814   6.571
 2843POPC   C3B39645  38.991  39.937   6.842
 2843POPC   C4B39646  38.838  39.752   7.190
 2844POPC   NC339647  41.152  44.311   5.628
 2844POPC   PO439648  41.645  44.846   5.577
 2844POPC   GL139649  41.476  44.769   5.922
 2844POPC   GL239650  41.553  44.425   5.915
 2844POPC   C1A39651  41.664  44.715   6.338
 2844POPC   D2A39652  41.637  44.350   6.632
 2844POPC   C3A39653  41.666  44.550   7.022
 2844POPC   C4A39654  41.369  44.870   7.121
 2844POPC   C1B39655  41.246  44.430   6.250
 2844POPC   C2B39656  41.205  44.625   6.616
 2844POPC   C3B39657  41.124  44.426   7.001
 2844POPC   C4B39658  41.317  44.369   7.362
 2845POPC   NC339659  16.178  18.545   5.361
 2845POPC   PO439660  15.723  18.097   5.378
 2845POPC   GL139661  15.896  18.234   5.794
 2845POPC   GL239662  16.148  18.496   5.853
 2845POPC   C1A39663  16.027  18.181   6.236
 2845POPC   D2A39664  16.212  18.269   6.626
 2845POPC   C3A39665  15.938  18.048   6.884
 2845POPC   C4A39666  15.806  17.939   7.261
 2845POPC   C1B39667  15.982  18.727   6.189
 2845POPC   C2B39668  16.188  18.765   6.560
 2845POPC   C3B39669  16.020  18.655   6.943
 2845POPC   C4B39670  16.093  18.376   7.266
 2846POPC   NC339671  13.202   5.529   5.038
 2846POPC   PO439672  12.735   5.757   5.462
 2846POPC   GL139673  12.873   5.842   5.824
 2846POPC   GL239674  12.621   5.629   5.977
 2846POPC   C1A39675  13.087   5.738   6.176
 2846POPC   D2A39676  12.824   5.802   6.521
 2846POPC   C3A39677  12.931   5.601   6.893
 2846POPC   C4A39678  12.798   5.786   7.261
 2846POPC   C1B39679  12.369   5.603   6.379
 2846POPC   C2B39680  12.399   5.670   6.828
 2846POPC   C3B39681  12.354   5.468   7.222
 2846POPC   C4B39682  12.643   5.448   7.603
 2847POPC   NC339683   1.789   2.395   5.256
 2847POPC   PO439684   2.308   2.823   5.304
 2847POPC   GL139685   1.999   2.907   5.627
 2847POPC   GL239686   1.968   2.565   5.757
 2847POPC   C1A39687   1.882   3.073   6.053
 2847POPC   D2A39688   1.813   2.891   6.456
 2847POPC   C3A39689   2.009   2.912   6.856
 2847POPC   C4A39690   1.855   3.125   7.238
 2847POPC   C1B39691   2.163   2.658   6.166
 2847POPC   C2B39692   2.233   2.480   6.594
 2847POPC   C3B39693   2.437   2.584   6.981
 2847POPC   C4B39694   2.139   2.671   7.299
 2848POPC   NC339695   7.006  21.698   5.220
 2848POPC   PO439696   7.525  22.001   5.450
 2848POPC   GL139697   7.558  21.856   5.877
 2848POPC   GL239698   7.489  22.201   5.946
 2848POPC   C1A39699   7.414  21.815   6.313
 2848POPC   D2A39700   7.522  21.968   6.753
 2848POPC   C3A39701   7.207  22.215   7.017
 2848POPC   C4A39702   6.994  22.101   7.428
 2848POPC   C1B39703   7.638  22.273   6.347
 2848POPC   C2B39704   7.935  22.272   6.661
 2848POPC   C3B39705   7.741  22.360   7.050
 2848POPC   C4B39706   7.540  22.152   7.394
 2849POPC   NC339707  28.635   1.383   5.608
 2849POPC   PO439708  28.231   0.995   5.135
 2849POPC   GL139709  28.089   1.267   5.657
 2849POPC   GL239710  28.157   1.576   5.818
 2849POPC   C1A39711  28.268   1.191   6.145
 2849POPC   D2A39712  28.590   1.233   6.441
 2849POPC   C3A39713  28.473   1.188   6.846
 2849POPC   C4A39714  28.445   1.228   7.269
 2849POPC   C1B39715  27.969   1.574   6.229
 2849POPC   C2B39716  28.172   1.564   6.639
 2849POPC   C3B39717  28.055   1.563   7.086
 2849POPC   C4B39718  28.145   1.544   7.542
 2850POPC   NC339719  31.267  34.368   5.449
 2850POPC   PO439720  31.877  34.751   5.306
 2850POPC   GL139721  31.657  34.634   5.723
 2850POPC   GL239722  31.652  34.259   5.785
 2850POPC   C1A39723  31.554  34.590   6.188
 2850POPC   D2A39724  31.731  34.395   6.560
 2850POPC   C3A39725  31.763  34.590   6.947
 2850POPC   C4A39726  31.496  34.863   7.186
 2850POPC   C1B39727  31.333  34.144   6.084
 2850POPC   C2B39728  31.249  34.265   6.509
 2850POPC   C3B39729  31.425  34.195   6.932
 2850POPC   C4B39730  31.197  34.088   7.274
 2851POPC   NC339731   4.053   2.211   5.239
 2851POPC   PO439732   4.475   1.759   5.204
 2851POPC   GL139733   4.168   1.795   5.597
 2851POPC   GL239734   4.144   2.147   5.765
 2851POPC   C1A39735   4.004   1.752   6.044
 2851POPC   D2A39736   4.252   1.876   6.402
 2851POPC   C3A39737   4.180   1.677   6.785
 2851POPC   C4A39738   4.193   1.768   7.211
 2851POPC   C1B39739   4.147   2.381   6.182
 2851POPC   C2B39740   4.061   2.356   6.611
 2851POPC   C3B39741   4.297   2.199   6.943
 2851POPC   C4B39742   4.477   2.447   7.236
 2852POPC   NC339743  11.736  43.821   5.465
 2852POPC   PO439744  11.164  44.056   5.324
 2852POPC   GL139745  11.356  44.060   5.779
 2852POPC   GL239746  11.398  43.694   5.865
 2852POPC   C1A39747  11.246  44.200   6.240
 2852POPC   D2A39748  11.049  44.074   6.648
 2852POPC   C3A39749  11.092  44.313   7.041
 2852POPC   C4A39750  11.197  44.241   7.497
 2852POPC   C1B39751  11.568  43.808   6.277
 2852POPC   C2B39752  11.510  43.880   6.708
 2852POPC   C3B39753  11.348  43.879   7.136
 2852POPC   C4B39754  11.192  43.731   7.540
 2853POPC   NC339755   2.540  17.310   5.445
 2853POPC   PO439756   3.139  17.304   5.645
 2853POPC   GL139757   2.943  17.563   5.918
 2853POPC   GL239758   2.606  17.642   5.827
 2853POPC   C1A39759   2.959  17.482   6.339
 2853POPC   D2A39760   3.064  17.424   6.744
 2853POPC   C3A39761   2.935  17.823   6.861
 2853POPC   C4A39762   2.826  17.905   7.250
 2853POPC   C1B39763   2.435  17.515   6.213
 2853POPC   C2B39764   2.543  17.510   6.640
 2853POPC   C3B39765   2.597  17.492   7.055
 2853POPC   C4B39766   2.381  17.636   7.384
 2854POPC   NC339767   2.369   8.657   5.266
 2854POPC   PO439768   2.981   8.704   5.190
 2854POPC   GL139769   2.962   8.801   5.697
 2854POPC   GL239770   2.723   9.082   5.791
 2854POPC   C1A39771   3.038   8.950   6.160
 2854POPC   D2A39772   3.110   9.273   6.515
 2854POPC   C3A39773   2.810   9.178   6.852
 2854POPC   C4A39774   2.667   8.882   7.175
 2854POPC   C1B39775   2.678   9.332   6.204
 2854POPC   C2B39776   2.685   9.628   6.566
 2854POPC   C3B39777   2.524   9.604   6.980
 2854POPC   C4B39778   2.700   9.371   7.324
 2855POPC   NC339779  20.965   3.680   5.490
 2855POPC   PO439780  20.597   3.121   5.486
 2855POPC   GL139781  20.757   3.076   5.884
 2855POPC   GL239782  20.905   3.383   5.890
 2855POPC   C1A39783  20.516   3.286   6.222
 2855POPC   D2A39784  20.341   3.598   6.527
 2855POPC   C3A39785  20.344   3.457   6.968
 2855POPC   C4A39786  20.605   3.113   7.110
 2855POPC   C1B39787  20.741   3.738   6.170
 2855POPC   C2B39788  20.853   3.692   6.607
 2855POPC   C3B39789  20.740   3.809   7.039
 2855POPC   C4B39790  20.865   3.788   7.478
 2856POPC   NC339791  20.155  30.240   5.481
 2856POPC   PO439792  19.836  30.797   5.355
 2856POPC   GL139793  19.850  30.672   5.768
 2856POPC   GL239794  19.949  31.009   5.824
 2856POPC   C1A39795  19.961  30.463   6.158
 2856POPC   D2A39796  20.005  30.258   6.560
 2856POPC   C3A39797  20.163  30.462   6.928
 2856POPC   C4A39798  19.861  30.486   7.257
 2856POPC   C1B39799  20.123  30.970   6.197
 2856POPC   C2B39800  19.950  30.803   6.573
 2856POPC   C3B39801  19.870  30.939   6.970
 2856POPC   C4B39802  20.122  30.937   7.332
 2857POPC   NC339803  29.606   3.655   5.507
 2857POPC   PO439804  28.924   3.555   5.482
 2857POPC   GL139805  29.165   3.502   5.822
 2857POPC   GL239806  29.290   3.822   5.914
 2857POPC   C1A39807  29.058   3.461   6.257
 2857POPC   D2A39808  29.066   3.406   6.684
 2857POPC   C3A39809  28.990   3.756   6.936
 2857POPC   C4A39810  29.178   3.678   7.313
 2857POPC   C1B39811  29.548   3.554   6.187
 2857POPC   C2B39812  29.583   3.504   6.614
 2857POPC   C3B39813  29.478   3.401   7.033
 2857POPC   C4B39814  29.604   3.266   7.454
 2858POPC   NC339815  34.782   5.746   5.515
 2858POPC   PO439816  34.299   6.133   5.282
 2858POPC   GL139817  34.324   5.973   5.733
 2858POPC   GL239818  34.659   5.926   5.953
 2858POPC   C1A39819  34.244   6.023   6.189
 2858POPC   D2A39820  34.625   5.959   6.470
 2858POPC   C3A39821  34.499   6.049   6.861
 2858POPC   C4A39822  34.500   5.835   7.236
 2858POPC   C1B39823  35.025   5.678   6.109
 2858POPC   C2B39824  35.062   5.597   6.516
 2858POPC   C3B39825  34.732   5.572   6.829
 2858POPC   C4B39826  34.895   5.540   7.253
 2859POPC   NC339827  29.952  30.263   5.446
 2859POPC   PO439828  29.552  29.763   5.318
 2859POPC   GL139829  29.699  29.896   5.744
 2859POPC   GL239830  30.075  29.843   5.807
 2859POPC   C1A39831  29.603  29.811   6.188
 2859POPC   D2A39832  29.793  29.871   6.609
 2859POPC   C3A39833  29.600  29.896   7.031
 2859POPC   C4A39834  29.980  30.003   7.308
 2859POPC   C1B39835  30.133  29.672   6.236
 2859POPC   C2B39836  30.133  29.469   6.647
 2859POPC   C3B39837  29.947  29.545   7.076
 2859POPC   C4B39838  29.809  29.583   7.560
 2860POPC   NC339839   3.416  19.775   5.366
 2860POPC   PO439840   3.939  19.457   5.592
 2860POPC   GL139841   3.599  19.686   5.837
 2860POPC   GL239842   3.491  20.076   5.766
 2860POPC   C1A39843   3.605  19.717   6.275
 2860POPC   D2A39844   3.808  19.958   6.585
 2860POPC   C3A39845   3.615  19.825   6.986
 2860POPC   C4A39846   3.678  19.881   7.416
 2860POPC   C1B39847   3.198  19.961   6.064
 2860POPC   C2B39848   3.183  19.925   6.503
 2860POPC   C3B39849   3.079  19.928   6.905
 2860POPC   C4B39850   3.200  19.691   7.267
 2861POPC   NC339851   9.462   8.303   5.492
 2861POPC   PO439852  10.115   8.040   5.461
 2861POPC   GL139853   9.885   8.115   5.801
 2861POPC   GL239854   9.651   7.802   5.784
 2861POPC   C1A39855   9.939   8.403   6.169
 2861POPC   D2A39856   9.941   8.450   6.637
 2861POPC   C3A39857   9.552   8.378   6.845
 2861POPC   C4A39858   9.461   8.313   7.293
 2861POPC   C1B39859   9.659   7.957   6.231
 2861POPC   C2B39860   9.529   7.873   6.653
 2861POPC   C3B39861   9.687   7.916   7.044
 2861POPC   C4B39862   9.786   7.956   7.479
 2862POPC   NC339863  32.000   1.535   5.377
 2862POPC   PO439864  31.381   1.428   5.266
 2862POPC   GL139865  31.489   1.216   5.682
 2862POPC   GL239866  31.133   1.181   5.717
 2862POPC   C1A39867  31.784   1.362   6.043
 2862POPC   D2A39868  32.013   1.437   6.466
 2862POPC   C3A39869  31.711   1.429   6.823
 2862POPC   C4A39870  31.625   1.279   7.233
 2862POPC   C1B39871  31.188   1.171   6.181
 2862POPC   C2B39872  31.255   1.194   6.621
 2862POPC   C3B39873  31.085   1.184   7.052
 2862POPC   C4B39874  31.043   1.021   7.478
 2863POPC   NC339875  35.541  41.532   5.421
 2863POPC   PO439876  35.041  41.876   5.485
 2863POPC   GL139877  35.230  41.679   5.823
 2863POPC   GL239878  35.504  41.907   5.796
 2863POPC   C1A39879  35.211  41.464   6.228
 2863POPC   D2A39880  35.300  41.299   6.638
 2863POPC   C3A39881  35.254  41.465   7.023
 2863POPC   C4A39882  34.992  41.347   7.321
 2863POPC   C1B39883  35.417  41.945   6.240
 2863POPC   C2B39884  35.315  41.838   6.656
 2863POPC   C3B39885  35.406  41.954   7.075
 2863POPC   C4B39886  35.613  41.810   7.458
 2864POPC   NC339887   1.184  43.914   5.556
 2864POPC   PO439888   0.810  43.452   5.487
 2864POPC   GL139889   1.052  43.615   5.923
 2864POPC   GL239890   1.443  43.793   5.973
 2864POPC   C1A39891   1.025  43.920   6.236
 2864POPC   D2A39892   1.109  44.130   6.612
 2864POPC   C3A39893   1.054  43.942   6.991
 2864POPC   C4A39894   1.394  43.865   7.238
 2864POPC   C1B39895   1.433  43.489   6.299
 2864POPC   C2B39896   1.248  43.542   6.712
 2864POPC   C3B39897   1.233  43.377   7.134
 2864POPC   C4B39898   1.297  43.455   7.569
 2865POPC   NC339899  41.670   7.320   5.467
 2865POPC   PO439900  41.070   7.704   5.331
 2865POPC   GL139901  41.345   7.645   5.736
 2865POPC   GL239902  41.401   7.299   5.879
 2865POPC   C1A39903  41.625   7.666   6.154
 2865POPC   D2A39904  41.432   7.658   6.593
 2865POPC   C3A39905  41.669   7.578   6.969
 2865POPC   C4A39906  41.841   7.772   7.328
 2865POPC   C1B39907  41.433   7.159   6.315
 2865POPC   C2B39908  41.490   7.145   6.791
 2865POPC   C3B39909  41.501   7.120   7.250
 2865POPC   C4B39910  41.423   7.015   7.713
 2866POPC   NC339911  23.554  33.388   5.537
 2866POPC   PO439912  23.488  34.025   5.291
 2866POPC   GL139913  23.541  33.949   5.780
 2866POPC   GL239914  23.526  33.609   5.981
 2866POPC   C1A39915  23.685  34.013   6.240
 2866POPC   D2A39916  23.542  33.903   6.660
 2866POPC   C3A39917  23.733  34.003   7.045
 2866POPC   C4A39918  24.062  33.747   7.264
 2866POPC   C1B39919  23.668  33.491   6.377
 2866POPC   C2B39920  23.794  33.493   6.808
 2866POPC   C3B39921  23.621  33.505   7.193
 2866POPC   C4B39922  23.805  33.466   7.628
 2867POPC   NC339923  23.904  44.843   5.662
 2867POPC   PO439924  23.236  44.870   5.450
 2867POPC   GL139925  23.445  44.734   5.893
 2867POPC   GL239926  23.711  44.487   5.960
 2867POPC   C1A39927  23.568  44.880   6.325
 2867POPC   D2A39928  23.803  44.906   6.720
 2867POPC   C3A39929  23.551  44.695   6.996
 2867POPC   C4A39930  23.327  44.841   7.345
 2867POPC   C1B39931  23.412  44.334   6.272
 2867POPC   C2B39932  23.406  44.206   6.710
 2867POPC   C3B39933  23.456  44.227   7.151
 2867POPC   C4B39934  23.684  44.473   7.462
 2868POPC   NC339935  42.658  24.782   5.609
 2868POPC   PO439936  42.236  24.182   5.401
 2868POPC   GL139937  42.296  24.423   5.771
 2868POPC   GL239938  42.113  24.180   5.927
 2868POPC   C1A39939  42.384  24.540   6.235
 2868POPC   D2A39940  42.477  24.743   6.671
 2868POPC   C3A39941  42.598  24.541   7.092
 2868POPC   C4A39942  42.730  24.579   7.601
 2868POPC   C1B39943  42.101  24.110   6.341
 2868POPC   C2B39944  42.309  24.238   6.688
 2868POPC   C3B39945  42.237  24.146   7.099
 2868POPC   C4B39946  42.316  24.354   7.455
 2869POPC   NC339947   6.982  40.137   5.327
 2869POPC   PO439948   6.490  39.688   5.319
 2869POPC   GL139949   6.750  39.755   5.678
 2869POPC   GL239950   6.849  40.059   5.816
 2869POPC   C1A39951   6.710  39.654   6.133
 2869POPC   D2A39952   6.799  39.848   6.530
 2869POPC   C3A39953   6.569  39.674   6.891
 2869POPC   C4A39954   6.621  39.704   7.325
 2869POPC   C1B39955   6.560  40.165   6.135
 2869POPC   C2B39956   6.609  40.323   6.560
 2869POPC   C3B39957   6.740  40.169   6.964
 2869POPC   C4B39958   6.389  40.132   7.201
 2870POPC   NC339959  21.770   3.810   5.505
 2870POPC   PO439960  21.323   3.279   5.445
 2870POPC   GL139961  21.384   3.563   5.767
 2870POPC   GL239962  21.684   3.450   5.838
 2870POPC   C1A39963  21.245   3.653   6.187
 2870POPC   D2A39964  21.300   3.456   6.596
 2870POPC   C3A39965  21.225   3.668   6.966
 2870POPC   C4A39966  21.233   3.474   7.321
 2870POPC   C1B39967  21.682   3.392   6.240
 2870POPC   C2B39968  21.757   3.632   6.599
 2870POPC   C3B39969  21.668   3.410   6.954
 2870POPC   C4B39970  21.753   3.635   7.282
 2871POPC   NC339971  13.175  12.075   5.555
 2871POPC   PO439972  13.767  11.939   5.441
 2871POPC   GL139973  13.574  11.803   5.824
 2871POPC   GL239974  13.508  12.143   5.938
 2871POPC   C1A39975  13.351  11.772   6.231
 2871POPC   D2A39976  13.415  11.880   6.662
 2871POPC   C3A39977  13.799  11.841   6.889
 2871POPC   C4A39978  13.567  11.782   7.252
 2871POPC   C1B39979  13.756  12.068   6.323
 2871POPC   C2B39980  13.696  12.301   6.702
 2871POPC   C3B39981  13.572  12.285   7.126
 2871POPC   C4B39982  13.594  12.153   7.573
 2872POPC   NC339983  31.206  38.924   5.625
 2872POPC   PO439984  31.534  39.473   5.469
 2872POPC   GL139985  31.520  39.312   5.865
 2872POPC   GL239986  31.765  39.075   5.934
 2872POPC   C1A39987  31.267  39.393   6.238
 2872POPC   D2A39988  31.285  39.299   6.664
 2872POPC   C3A39989  31.355  39.382   7.051
 2872POPC   C4A39990  31.180  39.133   7.324
 2872POPC   C1B39991  31.750  39.205   6.379
 2872POPC   C2B39992  31.637  38.949   6.747
 2872POPC   C3B39993  31.657  38.857   7.165
 2872POPC   C4B39994  31.691  39.156   7.451
 2873POPC   NC339995   5.806  37.814   5.246
 2873POPC   PO439996   6.103  37.413   5.740
 2873POPC   GL139997   5.981  37.809   5.781
 2873POPC   GL239998   5.636  37.757   5.716
 2873POPC   C1A39999   6.055  37.916   6.194
 2873POPC   D2A40000   5.909  37.666   6.558
 2873POPC   C3A40001   6.199  37.634   6.892
 2873POPC   C4A40002   6.158  37.910   7.257
 2873POPC   C1B40003   5.560  37.807   6.131
 2873POPC   C2B40004   5.361  37.761   6.505
 2873POPC   C3B40005   5.466  37.569   6.864
 2873POPC   C4B40006   5.769  37.610   7.153
 2874POPC   NC340007  19.086  43.518   5.399
 2874POPC   PO440008  18.695  44.053   5.495
 2874POPC   GL140009  18.901  43.933   5.879
 2874POPC   GL240010  19.243  43.954   5.859
 2874POPC   C1A40011  18.944  44.157   6.280
 2874POPC   D2A40012  18.688  44.315   6.610
 2874POPC   C3A40013  18.830  44.226   7.013
 2874POPC   C4A40014  18.875  43.818   7.243
 2874POPC   C1B40015  19.428  44.016   6.243
 2874POPC   C2B40016  19.250  44.027   6.702
 2874POPC   C3B40017  19.302  44.109   7.159
 2874POPC   C4B40018  19.317  43.816   7.502
 2875POPC   NC340019  40.263  14.709   5.434
 2875POPC   PO440020  39.710  14.259   5.418
 2875POPC   GL140021  39.840  14.531   5.712
 2875POPC   GL240022  40.120  14.320   5.738
 2875POPC   C1A40023  39.837  14.647   6.147
 2875POPC   D2A40024  39.856  14.865   6.558
 2875POPC   C3A40025  39.945  14.624   6.939
 2875POPC   C4A40026  39.812  14.256   7.169
 2875POPC   C1B40027  40.097  14.170   6.140
 2875POPC   C2B40028  40.125  14.396   6.523
 2875POPC   C3B40029  40.291  14.230   6.933
 2875POPC   C4B40030  40.310  14.479   7.298
 2876POPC   NC340031  20.989   2.076   5.231
 2876POPC   PO440032  20.342   1.847   5.607
 2876POPC   GL140033  20.391   1.878   6.006
 2876POPC   GL240034  20.311   2.252   5.915
 2876POPC   C1A40035  20.744   1.890   6.320
 2876POPC   D2A40036  20.842   1.847   6.727
 2876POPC   C3A40037  20.435   1.853   6.932
 2876POPC   C4A40038  20.704   1.851   7.279
 2876POPC   C1B40039  20.333   2.238   6.354
 2876POPC   C2B40040  20.516   2.396   6.683
 2876POPC   C3B40041  20.721   2.273   7.007
 2876POPC   C4B40042  20.696   2.301   7.479
 2877POPC   NC340043  16.857  17.098   5.132
 2877POPC   PO440044  16.576  17.581   5.450
 2877POPC   GL140045  16.676  17.494   5.851
 2877POPC   GL240046  17.022  17.598   5.831
 2877POPC   C1A40047  16.493  17.263   6.217
 2877POPC   D2A40048  16.487  17.276   6.659
 2877POPC   C3A40049  16.691  17.603   6.908
 2877POPC   C4A40050  16.584  17.288   7.196
 2877POPC   C1B40051  16.917  17.581   6.296
 2877POPC   C2B40052  17.020  17.295   6.650
 2877POPC   C3B40053  17.081  17.317   7.104
 2877POPC   C4B40054  16.956  17.283   7.560
 2878POPC   NC340055  16.721   2.297   5.465
 2878POPC   PO440056  16.209   1.918   5.292
 2878POPC   GL140057  16.465   1.843   5.709
 2878POPC   GL240058  16.664   2.076   5.919
 2878POPC   C1A40059  16.370   1.734   6.155
 2878POPC   D2A40060  16.454   1.665   6.581
 2878POPC   C3A40061  16.398   1.970   6.887
 2878POPC   C4A40062  16.457   1.872   7.303
 2878POPC   C1B40063  16.980   1.941   6.225
 2878POPC   C2B40064  16.912   1.870   6.668
 2878POPC   C3B40065  16.906   2.015   7.102
 2878POPC   C4B40066  16.683   2.303   7.381
 2879POPC   NC340067  16.203   5.427   5.275
 2879POPC   PO440068  15.803   4.923   5.351
 2879POPC   GL140069  15.905   5.002   5.762
 2879POPC   GL240070  15.601   4.850   5.862
 2879POPC   C1A40071  16.195   5.009   6.168
 2879POPC   D2A40072  16.038   5.247   6.509
 2879POPC   C3A40073  16.191   5.111   6.905
 2879POPC   C4A40074  15.992   5.191   7.312
 2879POPC   C1B40075  15.741   4.850   6.272
 2879POPC   C2B40076  15.967   4.748   6.635
 2879POPC   C3B40077  15.827   4.762   7.076
 2879POPC   C4B40078  15.571   4.692   7.452
 2880POPC   NC340079   2.988  11.353   5.278
 2880POPC   PO440080   2.331  11.382   5.199
 2880POPC   GL140081   2.575  11.308   5.611
 2880POPC   GL240082   2.868  11.090   5.753
 2880POPC   C1A40083   2.770  11.532   5.978
 2880POPC   D2A40084   2.592  11.592   6.400
 2880POPC   C3A40085   2.705  11.431   6.795
 2880POPC   C4A40086   2.588  11.503   7.215
 2880POPC   C1B40087   2.573  11.090   6.165
 2880POPC   C2B40088   2.357  11.106   6.603
 2880POPC   C3B40089   2.524  10.980   7.008
 2880POPC   C4B40090   2.925  11.126   7.160
 2881POPC   NC340091  32.259   6.273   5.463
 2881POPC   PO440092  32.151   6.902   5.311
 2881POPC   GL140093  32.362   6.749   5.710
 2881POPC   GL240094  32.116   6.549   5.875
 2881POPC   C1A40095  32.474   6.808   6.153
 2881POPC   D2A40096  32.163   6.794   6.460
 2881POPC   C3A40097  32.192   6.858   6.885
 2881POPC   C4A40098  32.234   6.875   7.329
 2881POPC   C1B40099  32.197   6.334   6.244
 2881POPC   C2B40100  32.198   6.319   6.666
 2881POPC   C3B40101  31.978   6.407   7.024
 2881POPC   C4B40102  32.172   6.381   7.415
 2882POPC   NC340103  31.848  34.291   5.310
 2882POPC   PO440104  32.561  34.335   5.382
 2882POPC   GL140105  32.462  34.598   5.762
 2882POPC   GL240106  32.136  34.483   5.728
 2882POPC   C1A40107  32.445  34.597   6.197
 2882POPC   D2A40108  32.213  34.590   6.591
 2882POPC   C3A40109  32.378  34.405   6.976
 2882POPC   C4A40110  32.596  34.724   7.213
 2882POPC   C1B40111  32.016  34.310   6.146
 2882POPC   C2B40112  32.129  34.094   6.541
 2882POPC   C3B40113  31.951  34.092   6.963
 2882POPC   C4B40114  32.063  34.110   7.390
 2883POPC   NC340115  35.130   9.950   5.341
 2883POPC   PO440116  35.499   9.657   5.388
 2883POPC   GL140117  35.365   9.700   5.838
 2883POPC   GL240118  35.004   9.726   5.815
 2883POPC   C1A40119  35.385   9.716   6.333
 2883POPC   D2A40120  35.512   9.805   6.805
 2883POPC   C3A40121  35.869   9.686   7.106
 2883POPC   C4A40122  35.931   9.360   7.436
 2883POPC   C1B40123  34.890   9.863   6.254
 2883POPC   C2B40124  34.975   9.849   6.724
 2883POPC   C3B40125  35.124   9.700   7.135
 2883POPC   C4B40126  35.467   9.618   7.396
 2884POPC   NC340127  23.512  44.478   5.449
 2884POPC   PO440128  23.583  43.822   5.281
 2884POPC   GL140129  23.666  44.026   5.698
 2884POPC   GL240130  23.365  44.143   5.802
 2884POPC   C1A40131  23.882  44.021   6.123
 2884POPC   D2A40132  23.768  43.747   6.514
 2884POPC   C3A40133  23.802  43.933   6.932
 2884POPC   C4A40134  23.871  44.007   7.396
 2884POPC   C1B40135  23.418  43.825   6.120
 2884POPC   C2B40136  23.214  43.784   6.472
 2884POPC   C3B40137  23.349  43.705   6.867
 2884POPC   C4B40138  23.418  43.738   7.277
 2885POPC   NC340139  40.785  33.631   5.385
 2885POPC   PO440140  40.629  34.251   5.506
 2885POPC   GL140141  40.757  33.970   5.835
 2885POPC   GL240142  40.777  33.592   5.887
 2885POPC   C1A40143  40.991  33.964   6.213
 2885POPC   D2A40144  41.140  33.804   6.622
 2885POPC   C3A40145  40.916  33.907   6.987
 2885POPC   C4A40146  41.086  34.175   7.288
 2885POPC   C1B40147  40.880  33.486   6.318
 2885POPC   C2B40148  40.725  33.483   6.764
 2885POPC   C3B40149  40.991  33.380   7.142
 2885POPC   C4B40150  41.047  33.353   7.599
 2886POPC   NC340151  22.446  35.575   5.327
 2886POPC   PO440152  22.546  36.250   5.346
 2886POPC   GL140153  22.372  36.104   5.774
 2886POPC   GL240154  22.370  35.717   5.834
 2886POPC   C1A40155  22.265  36.269   6.220
 2886POPC   D2A40156  22.249  36.523   6.632
 2886POPC   C3A40157  22.125  36.279   7.010
 2886POPC   C4A40158  21.825  35.938   7.158
 2886POPC   C1B40159  22.215  35.735   6.296
 2886POPC   C2B40160  22.133  35.778   6.762
 2886POPC   C3B40161  22.330  35.821   7.163
 2886POPC   C4B40162  22.159  36.101   7.511
 2887POPC   NC340163  19.685  11.883   5.098
 2887POPC   PO440164  19.502  12.358   5.418
 2887POPC   GL140165  19.455  12.313   5.891
 2887POPC   GL240166  19.784  12.341   6.012
 2887POPC   C1A40167  19.467  12.109   6.324
 2887POPC   D2A40168  19.688  11.822   6.606
 2887POPC   C3A40169  19.645  11.951   7.040
 2887POPC   C4A40170  19.661  12.381   7.133
 2887POPC   C1B40171  19.985  12.199   6.379
 2887POPC   C2B40172  20.069  12.144   6.812
 2887POPC   C3B40173  20.089  12.126   7.262
 2887POPC   C4B40174  19.973  11.859   7.606
 2888POPC   NC340175   2.370  22.002   5.256
 2888POPC   PO440176   3.008  22.304   5.360
 2888POPC   GL140177   2.835  22.220   5.760
 2888POPC   GL240178   2.521  22.047   5.766
 2888POPC   C1A40179   2.836  22.080   6.204
 2888POPC   D2A40180   2.768  22.243   6.609
 2888POPC   C3A40181   2.948  22.202   7.007
 2888POPC   C4A40182   2.703  22.269   7.360
 2888POPC   C1B40183   2.350  22.157   6.173
 2888POPC   C2B40184   2.403  21.903   6.531
 2888POPC   C3B40185   2.500  21.961   6.954
 2888POPC   C4B40186   2.362  21.881   7.332
 2889POPC   NC340187  25.433  44.561   5.501
 2889POPC   PO440188  24.963   0.123   5.459
 2889POPC   GL140189  25.152  44.857   5.830
 2889POPC   GL240190  25.485   0.009   5.935
 2889POPC   C1A40191  25.150  44.432   6.145
 2889POPC   D2A40192  25.010  44.185   6.528
 2889POPC   C3A40193  25.355  44.242   6.831
 2889POPC   C4A40194  25.536  44.541   7.123
 2889POPC   C1B40195  25.258  44.887   6.332
 2889POPC   C2B40196  25.214  44.757   6.770
 2889POPC   C3B40197  25.081  44.777   7.212
 2889POPC   C4B40198  24.966  44.930   7.650
 2890POPC   NC340199  13.697  22.808   5.309
 2890POPC   PO440200  13.513  23.416   5.209
 2890POPC   GL140201  13.463  23.164   5.662
 2890POPC   GL240202  13.788  23.035   5.822
 2890POPC   C1A40203  13.415  22.960   6.127
 2890POPC   D2A40204  13.479  22.637   6.483
 2890POPC   C3A40205  13.685  22.835   6.836
 2890POPC   C4A40206  13.493  23.080   7.156
 2890POPC   C1B40207  13.976  23.126   6.240
 2890POPC   C2B40208  14.074  23.160   6.701
 2890POPC   C3B40209  13.991  23.166   7.139
 2890POPC   C4B40210  13.892  22.779   7.317
 2891POPC   NC340211  41.672  42.464   5.351
 2891POPC   PO440212  41.660  41.847   5.616
 2891POPC   GL140213  41.676  42.216   5.832
 2891POPC   GL240214  41.365  42.386   5.822
 2891POPC   C1A40215  41.639  42.238   6.268
 2891POPC   D2A40216  41.854  42.343   6.646
 2891POPC   C3A40217  41.786  42.064   6.977
 2891POPC   C4A40218  41.631  42.360   7.229
 2891POPC   C1B40219  41.150  42.114   6.111
 2891POPC   C2B40220  41.220  42.022   6.523
 2891POPC   C3B40221  41.156  42.233   6.888
 2891POPC   C4B40222  41.205  42.112   7.280
 2892POPC   NC340223  31.776  10.687   5.597
 2892POPC   PO440224  31.146  10.322   5.465
 2892POPC   GL140225  31.433  10.381   5.828
 2892POPC   GL240226  31.408  10.776   5.913
 2892POPC   C1A40227  31.597  10.194   6.215
 2892POPC   D2A40228  31.397  10.158   6.636
 2892POPC   C3A40229  31.638  10.306   6.992
 2892POPC   C4A40230  31.622  10.321   7.433
 2892POPC   C1B40231  31.503  10.684   6.324
 2892POPC   C2B40232  31.340  10.780   6.704
 2892POPC   C3B40233  31.249  10.634   7.077
 2892POPC   C4B40234  31.231  10.899   7.406
 2893POPC   NC340235  18.432  17.829   5.526
 2893POPC   PO440236  18.134  18.456   5.370
 2893POPC   GL140237  18.197  18.218   5.754
 2893POPC   GL240238  17.957  17.968   5.802
 2893POPC   C1A40239  18.394  18.293   6.161
 2893POPC   D2A40240  18.490  18.537   6.529
 2893POPC   C3A40241  18.228  18.530   6.884
 2893POPC   C4A40242  18.395  18.359   7.260
 2893POPC   C1B40243  18.179  17.821   6.171
 2893POPC   C2B40244  18.340  17.982   6.560
 2893POPC   C3B40245  18.197  18.018   6.948
 2893POPC   C4B40246  18.214  17.906   7.368
 2894POPC   NC340247  16.859  14.763   5.419
 2894POPC   PO440248  16.559  14.144   5.527
 2894POPC   GL140249  16.749  14.371   5.851
 2894POPC   GL240250  16.575  14.666   5.837
 2894POPC   C1A40251  16.694  14.362   6.294
 2894POPC   D2A40252  16.420  14.330   6.681
 2894POPC   C3A40253  16.617  14.309   7.097
 2894POPC   C4A40254  16.601  14.076   7.488
 2894POPC   C1B40255  16.648  14.897   6.202
 2894POPC   C2B40256  16.762  14.803   6.557
 2894POPC   C3B40257  16.716  14.811   6.940
 2894POPC   C4B40258  16.737  14.740   7.359
 2895POPC   NC340259  25.757  30.713   5.418
 2895POPC   PO440260  25.015  30.813   5.374
 2895POPC   GL140261  25.157  30.528   5.662
 2895POPC   GL240262  25.406  30.718   5.785
 2895POPC   C1A40263  25.105  30.493   6.125
 2895POPC   D2A40264  25.345  30.665   6.481
 2895POPC   C3A40265  25.419  30.595   6.918
 2895POPC   C4A40266  25.367  30.831   7.324
 2895POPC   C1B40267  25.611  30.437   6.078
 2895POPC   C2B40268  25.754  30.331   6.504
 2895POPC   C3B40269  25.909  30.493   6.909
 2895POPC   C4B40270  25.783  30.560   7.312
 2896POPC   NC340271  21.395   6.819   5.120
 2896POPC   PO440272  21.092   6.850   5.498
 2896POPC   GL140273  21.348   6.600   5.789
 2896POPC   GL240274  21.268   6.275   5.925
 2896POPC   C1A40275  21.561   6.668   6.190
 2896POPC   D2A40276  21.582   6.950   6.554
 2896POPC   C3A40277  21.537   6.760   6.982
 2896POPC   C4A40278  21.679   6.504   7.341
 2896POPC   C1B40279  21.053   6.591   6.220
 2896POPC   C2B40280  21.118   6.730   6.663
 2896POPC   C3B40281  21.087   6.536   7.094
 2896POPC   C4B40282  21.252   6.210   7.394
 2897POPC   NC340283  38.595  38.335   5.464
 2897POPC   PO440284  38.237  38.843   5.424
 2897POPC   GL140285  38.354  38.655   5.804
 2897POPC   GL240286  38.329  38.319   5.905
 2897POPC   C1A40287  38.261  38.698   6.240
 2897POPC   D2A40288  38.384  38.387   6.555
 2897POPC   C3A40289  38.083  38.480   6.816
 2897POPC   C4A40290  37.903  38.614   7.182
 2897POPC   C1B40291  38.715  38.472   6.148
 2897POPC   C2B40292  38.894  38.406   6.581
 2897POPC   C3B40293  38.716  38.499   6.989
 2897POPC   C4B40294  38.369  38.423   7.227
 2898POPC   NC340295  23.694  28.050   5.403
 2898POPC   PO440296  23.570  28.744   5.403
 2898POPC   GL140297  23.585  28.637   5.813
 2898POPC   GL240298  23.768  28.359   5.788
 2898POPC   C1A40299  23.534  28.707   6.227
 2898POPC   D2A40300  23.490  28.543   6.611
 2898POPC   C3A40301  23.722  28.687   6.906
 2898POPC   C4A40302  23.730  28.611   7.311
 2898POPC   C1B40303  23.739  28.240   6.217
 2898POPC   C2B40304  23.962  28.335   6.592
 2898POPC   C3B40305  24.004  28.255   7.039
 2898POPC   C4B40306  23.746  28.099   7.385
 2899POPC   NC340307  13.243  38.001   5.463
 2899POPC   PO440308  13.296  37.266   5.409
 2899POPC   GL140309  13.390  37.421   5.852
 2899POPC   GL240310  13.521  37.779   5.867
 2899POPC   C1A40311  13.403  37.503   6.339
 2899POPC   D2A40312  13.449  37.377   6.752
 2899POPC   C3A40313  13.472  37.598   7.124
 2899POPC   C4A40314  13.240  37.470   7.460
 2899POPC   C1B40315  13.545  37.994   6.287
 2899POPC   C2B40316  13.713  37.809   6.698
 2899POPC   C3B40317  13.889  37.880   7.112
 2899POPC   C4B40318  13.867  38.250   7.335
 2900POPC   NC340319   3.592  14.984   5.256
 2900POPC   PO440320   3.159  15.384   5.549
 2900POPC   GL140321   3.434  15.143   5.794
 2900POPC   GL240322   3.787  15.217   5.672
 2900POPC   C1A40323   3.381  15.111   6.262
 2900POPC   D2A40324   3.609  15.098   6.664
 2900POPC   C3A40325   3.301  15.115   6.987
 2900POPC   C4A40326   3.088  15.388   7.270
 2900POPC   C1B40327   3.859  15.113   6.113
 2900POPC   C2B40328   4.118  15.198   6.476
 2900POPC   C3B40329   4.045  15.318   6.886
 2900POPC   C4B40330   3.717  15.353   7.168
 2901POPC   NC340331   0.904  12.542   5.629
 2901POPC   PO440332   0.326  12.716   5.410
 2901POPC   GL140333   0.432  12.647   5.830
 2901POPC   GL240334   0.603  12.961   5.834
 2901POPC   C1A40335   0.564  12.649   6.274
 2901POPC   D2A40336   0.371  12.770   6.684
 2901POPC   C3A40337   0.664  12.685   7.008
 2901POPC   C4A40338   0.983  12.618   7.308
 2901POPC   C1B40339   0.831  13.211   6.136
 2901POPC   C2B40340   0.821  13.072   6.558
 2901POPC   C3B40341   0.629  13.221   6.911
 2901POPC   C4B40342   0.799  13.112   7.288
 2902POPC   NC340343  15.648  42.118   5.394
 2902POPC   PO440344  15.749  42.726   5.421
 2902POPC   GL140345  16.012  42.512   5.709
 2902POPC   GL240346  15.725  42.337   5.842
 2902POPC   C1A40347  16.110  42.408   6.156
 2902POPC   D2A40348  15.934  42.219   6.532
 2902POPC   C3A40349  15.949  42.485   6.866
 2902POPC   C4A40350  16.261  42.577   7.173
 2902POPC   C1B40351  15.522  42.188   6.200
 2902POPC   C2B40352  15.463  42.340   6.602
 2902POPC   C3B40353  15.526  42.172   6.963
 2902POPC   C4B40354  15.719  42.328   7.292
 2903POPC   NC340355  18.143  26.910   5.362
 2903POPC   PO440356  18.649  26.405   5.481
 2903POPC   GL140357  18.300  26.611   5.793
 2903POPC   GL240358  18.306  26.985   5.846
 2903POPC   C1A40359  18.221  26.743   6.270
 2903POPC   D2A40360  18.393  26.629   6.681
 2903POPC   C3A40361  18.119  26.660   7.052
 2903POPC   C4A40362  18.111  26.814   7.520
 2903POPC   C1B40363  18.596  27.112   6.193
 2903POPC   C2B40364  18.844  27.010   6.576
 2903POPC   C3B40365  18.731  27.132   6.999
 2903POPC   C4B40366  18.321  27.132   7.194
 2904POPC   NC340367  20.248  31.143   5.426
 2904POPC   PO440368  20.797  30.614   5.290
 2904POPC   GL140369  20.599  30.456   5.646
 2904POPC   GL240370  20.355  30.711   5.689
 2904POPC   C1A40371  20.481  30.413   6.073
 2904POPC   D2A40372  20.391  30.593   6.437
 2904POPC   C3A40373  20.730  30.568   6.713
 2904POPC   C4A40374  20.638  30.569   7.157
 2904POPC   C1B40375  20.623  30.930   6.015
 2904POPC   C2B40376  20.614  31.033   6.463
 2904POPC   C3B40377  20.412  30.936   6.865
 2904POPC   C4B40378  20.595  31.072   7.255
 2905POPC   NC340379  38.097  39.277   5.475
 2905POPC   PO440380  37.502  39.517   5.482
 2905POPC   GL140381  37.652  39.172   5.741
 2905POPC   GL240382  37.915  39.383   5.941
 2905POPC   C1A40383  37.704  38.980   6.159
 2905POPC   D2A40384  37.649  39.152   6.563
 2905POPC   C3A40385  37.909  39.065   6.900
 2905POPC   C4A40386  38.138  39.361   7.165
 2905POPC   C1B40387  37.492  39.465   6.161
 2905POPC   C2B40388  37.200  39.402   6.539
 2905POPC   C3B40389  37.382  39.436   6.915
 2905POPC   C4B40390  37.436  39.617   7.282
 2906POPC   NC340391  24.145   2.104   5.358
 2906POPC   PO440392  23.555   1.710   5.430
 2906POPC   GL140393  23.581   1.969   5.798
 2906POPC   GL240394  23.863   2.170   5.805
 2906POPC   C1A40395  23.442   2.048   6.201
 2906POPC   D2A40396  23.682   1.996   6.571
 2906POPC   C3A40397  23.480   2.033   6.934
 2906POPC   C4A40398  23.625   2.066   7.320
 2906POPC   C1B40399  23.863   2.355   6.239
 2906POPC   C2B40400  23.946   2.426   6.694
 2906POPC   C3B40401  24.030   2.275   7.131
 2906POPC   C4B40402  23.919   2.341   7.600
 2907POPC   NC340403  33.938  30.742   5.351
 2907POPC   PO440404  33.316  30.452   5.699
 2907POPC   GL140405  33.761  30.544   5.789
 2907POPC   GL240406  33.764  30.871   5.977
 2907POPC   C1A40407  34.085  30.517   6.105
 2907POPC   D2A40408  34.031  30.408   6.531
 2907POPC   C3A40409  33.978  30.714   6.818
 2907POPC   C4A40410  34.007  30.619   7.223
 2907POPC   C1B40411  33.756  30.920   6.399
 2907POPC   C2B40412  33.458  31.071   6.701
 2907POPC   C3B40413  33.267  31.107   7.129
 2907POPC   C4B40414  33.353  30.835   7.499
 2908POPC   NC340415   1.150   6.979   5.330
 2908POPC   PO440416   1.271   6.324   5.412
 2908POPC   GL140417   1.117   6.539   5.789
 2908POPC   GL240418   0.927   6.846   5.797
 2908POPC   C1A40419   1.253   6.458   6.224
 2908POPC   D2A40420   1.370   6.709   6.601
 2908POPC   C3A40421   1.308   6.617   6.971
 2908POPC   C4A40422   1.388   6.240   7.167
 2908POPC   C1B40423   1.022   6.900   6.262
 2908POPC   C2B40424   0.871   6.786   6.694
 2908POPC   C3B40425   0.909   6.942   7.119
 2908POPC   C4B40426   1.275   6.974   7.349
 2909POPC   NC340427   0.421   1.890   5.155
 2909POPC   PO440428   0.715   2.487   5.364
 2909POPC   GL140429   0.492   2.170   5.647
 2909POPC   GL240430   0.189   2.266   5.875
 2909POPC   C1A40431   0.493   1.869   6.012
 2909POPC   D2A40432   0.642   1.998   6.428
 2909POPC   C3A40433   0.633   1.725   6.750
 2909POPC   C4A40434   0.639   1.727   7.167
 2909POPC   C1B40435   0.136   2.160   6.286
 2909POPC   C2B40436   0.167   1.932   6.652
 2909POPC   C3B40437   0.348   2.105   7.012
 2909POPC   C4B40438   0.189   1.985   7.388
 2910POPC   NC340439  37.064  29.049   5.103
 2910POPC   PO440440  36.513  29.325   5.424
 2910POPC   GL140441  36.681  29.246   5.857
 2910POPC   GL240442  36.673  28.912   5.849
 2910POPC   C1A40443  36.835  29.461   6.299
 2910POPC   D2A40444  36.871  29.564   6.754
 2910POPC   C3A40445  37.077  29.289   7.038
 2910POPC   C4A40446  37.158  29.249   7.479
 2910POPC   C1B40447  36.756  28.963   6.268
 2910POPC   C2B40448  36.877  29.012   6.666
 2910POPC   C3B40449  36.698  28.942   7.070
 2910POPC   C4B40450  36.844  28.842   7.539
 2911POPC   NC340451  22.402  28.970   5.493
 2911POPC   PO440452  21.813  29.249   5.197
 2911POPC   GL140453  22.065  29.332   5.674
 2911POPC   GL240454  22.434  29.457   5.705
 2911POPC   C1A40455  22.124  29.084   6.142
 2911POPC   D2A40456  21.876  28.779   6.439
 2911POPC   C3A40457  21.925  28.861   6.886
 2911POPC   C4A40458  22.318  28.955   7.083
 2911POPC   C1B40459  22.382  29.515   6.178
 2911POPC   C2B40460  22.156  29.326   6.585
 2911POPC   C3B40461  22.019  29.391   7.018
 2911POPC   C4B40462  22.139  29.314   7.438
 2912POPC   NC340463  43.326  37.161   5.463
 2912POPC   PO440464  42.820  36.780   5.372
 2912POPC   GL140465  42.999  36.880   5.775
 2912POPC   GL240466  43.288  36.670   5.820
 2912POPC   C1A40467  42.996  37.012   6.224
 2912POPC   D2A40468  43.330  36.974   6.557
 2912POPC   C3A40469  43.251  36.771   7.015
 2912POPC   C4A40470  42.850  36.806   7.301
 2912POPC   C1B40471  43.142  36.519   6.230
 2912POPC   C2B40472  42.941  36.647   6.615
 2912POPC   C3B40473  42.852  36.427   6.983
 2912POPC   C4B40474  43.066  36.330   7.338
 2913POPC   NC340475  11.767  36.186   5.434
 2913POPC   PO440476  11.153  36.402   5.343
 2913POPC   GL140477  11.306  36.285   5.690
 2913POPC   GL240478  11.162  35.963   5.755
 2913POPC   C1A40479  11.405  36.462   6.084
 2913POPC   D2A40480  11.227  36.369   6.477
 2913POPC   C3A40481  11.502  36.365   6.846
 2913POPC   C4A40482  11.287  36.393   7.211
 2913POPC   C1B40483  11.409  35.967   6.151
 2913POPC   C2B40484  11.392  35.917   6.628
 2913POPC   C3B40485  11.474  35.931   7.088
 2913POPC   C4B40486  11.531  35.631   7.363
 2914POPC   NC340487   3.237   1.813   5.375
 2914POPC   PO440488   3.627   2.281   5.106
 2914POPC   GL140489   3.606   2.102   5.593
 2914POPC   GL240490   3.359   2.319   5.771
 2914POPC   C1A40491   3.450   1.783   5.989
 2914POPC   D2A40492   3.225   1.936   6.404
 2914POPC   C3A40493   3.345   1.843   6.851
 2914POPC   C4A40494   3.405   2.107   7.238
 2914POPC   C1B40495   3.683   2.200   6.103
 2914POPC   C2B40496   3.745   1.972   6.486
 2914POPC   C3B40497   3.818   2.019   6.926
 2914POPC   C4B40498   3.939   2.201   7.332
 2915POPC   NC340499   4.872  34.939   5.499
 2915POPC   PO440500   5.315  34.519   5.289
 2915POPC   GL140501   5.316  34.578   5.749
 2915POPC   GL240502   5.071  34.778   5.936
 2915POPC   C1A40503   5.216  34.349   6.164
 2915POPC   D2A40504   4.940  34.214   6.529
 2915POPC   C3A40505   5.004  34.495   6.898
 2915POPC   C4A40506   5.212  34.509   7.291
 2915POPC   C1B40507   5.444  34.835   6.194
 2915POPC   C2B40508   5.346  34.794   6.603
 2915POPC   C3B40509   5.360  34.898   6.995
 2915POPC   C4B40510   5.620  34.813   7.351
 2916POPC   NC340511  11.590   6.494   5.334
 2916POPC   PO440512  11.225   6.931   5.513
 2916POPC   GL140513  11.372   6.664   5.791
 2916POPC   GL240514  11.119   6.459   5.957
 2916POPC   C1A40515  11.550   6.796   6.136
 2916POPC   D2A40516  11.474   7.019   6.534
 2916POPC   C3A40517  11.328   6.730   6.841
 2916POPC   C4A40518  11.574   6.705   7.204
 2916POPC   C1B40519  11.069   6.800   6.279
 2916POPC   C2B40520  10.950   7.031   6.635
 2916POPC   C3B40521  10.822   6.861   6.998
 2916POPC   C4B40522  10.913   6.660   7.377
 2917POPC   NC340523   2.096  10.045   5.402
 2917POPC   PO440524   2.314   9.358   5.548
 2917POPC   GL140525   2.124   9.701   5.802
 2917POPC   GL240526   2.212  10.054   5.904
 2917POPC   C1A40527   1.842   9.757   6.139
 2917POPC   D2A40528   1.768   9.439   6.414
 2917POPC   C3A40529   1.798   9.430   6.861
 2917POPC   C4A40530   1.931   9.667   7.201
 2917POPC   C1B40531   2.306   9.836   6.296
 2917POPC   C2B40532   2.133   9.818   6.695
 2917POPC   C3B40533   2.249  10.039   7.058
 2917POPC   C4B40534   2.205   9.990   7.527
 2918POPC   NC340535   3.643  33.553   5.481
 2918POPC   PO440536   3.386  34.146   5.495
 2918POPC   GL140537   3.454  33.881   5.802
 2918POPC   GL240538   3.160  33.762   5.817
 2918POPC   C1A40539   3.601  33.644   6.144
 2918POPC   D2A40540   3.763  33.878   6.483
 2918POPC   C3A40541   3.597  33.764   6.853
 2918POPC   C4A40542   3.625  33.490   7.189
 2918POPC   C1B40543   3.231  34.035   6.223
 2918POPC   C2B40544   3.152  34.010   6.690
 2918POPC   C3B40545   3.240  33.951   7.146
 2918POPC   C4B40546   3.354  33.717   7.550
 2919POPC   NC340547  12.268  23.748   5.592
 2919POPC   PO440548  11.856  23.206   5.536
 2919POPC   GL140549  11.915  23.516   5.863
 2919POPC   GL240550  11.741  23.840   5.772
 2919POPC   C1A40551  12.118  23.741   6.215
 2919POPC   D2A40552  12.193  23.620   6.618
 2919POPC   C3A40553  11.866  23.593   6.881
 2919POPC   C4A40554  12.104  23.613   7.258
 2919POPC   C1B40555  11.738  24.074   6.156
 2919POPC   C2B40556  11.910  24.047   6.573
 2919POPC   C3B40557  12.172  24.043   6.935
 2919POPC   C4B40558  11.995  24.085   7.374
 2920POPC   NC340559  44.425  32.495   5.302
 2920POPC   PO440560  44.857  32.022   5.561
 2920POPC   GL140561  44.690  32.457   5.728
 2920POPC   GL240562  44.311  32.557   5.807
 2920POPC   C1A40563  44.732  32.589   6.129
 2920POPC   D2A40564  44.879  32.378   6.483
 2920POPC   C3A40565  44.610  32.324   6.830
 2920POPC   C4A40566  44.759  32.248   7.241
 2920POPC   C1B40567  44.374  32.134   6.017
 2920POPC   C2B40568  44.402  31.959   6.461
 2920POPC   C3B40569  44.256  31.912   6.899
 2920POPC   C4B40570  44.455  31.858   7.300
 2921POPC   NC340571  33.187  10.199   5.436
 2921POPC   PO440572  32.937  10.797   5.227
 2921POPC   GL140573  32.843  10.645   5.676
 2921POPC   GL240574  32.639  10.339   5.767
 2921POPC   C1A40575  33.026  10.639   6.104
 2921POPC   D2A40576  33.188  10.430   6.489
 2921POPC   C3A40577  33.094  10.613   6.888
 2921POPC   C4A40578  33.072  10.896   7.223
 2921POPC   C1B40579  32.762  10.201   6.214
 2921POPC   C2B40580  32.763  10.236   6.691
 2921POPC   C3B40581  32.958  10.159   7.103
 2921POPC   C4B40582  32.793  10.215   7.516
 2922POPC   NC340583   0.688  13.311   5.453
 2922POPC   PO440584   0.308  13.976   5.399
 2922POPC   GL140585   0.504  13.735   5.731
 2922POPC   GL240586   0.309  13.438   5.862
 2922POPC   C1A40587   0.718  13.766   6.127
 2922POPC   D2A40588   0.797  13.589   6.534
 2922POPC   C3A40589   0.742  13.797   6.932
 2922POPC   C4A40590   0.592  13.579   7.292
 2922POPC   C1B40591   0.198  13.813   6.156
 2922POPC   C2B40592   0.344  13.912   6.604
 2922POPC   C3B40593   0.207  13.746   7.030
 2922POPC   C4B40594  44.923  13.859   7.416
 2923POPC   NC340595  24.615  31.064   5.293
 2923POPC   PO440596  24.076  30.785   5.501
 2923POPC   GL140597  24.413  30.907   5.785
 2923POPC   GL240598  24.777  30.830   5.850
 2923POPC   C1A40599  24.429  31.088   6.197
 2923POPC   D2A40600  24.249  30.902   6.569
 2923POPC   C3A40601  24.429  30.629   6.874
 2923POPC   C4A40602  24.443  30.693   7.306
 2923POPC   C1B40603  24.600  30.617   6.230
 2923POPC   C2B40604  24.848  30.502   6.599
 2923POPC   C3B40605  24.930  30.683   7.005
 2923POPC   C4B40606  24.941  30.642   7.456
 2924POPC   NC340607  12.756  36.040   5.453
 2924POPC   PO440608  12.993  36.571   5.678
 2924POPC   GL140609  12.966  36.150   5.923
 2924POPC   GL240610  12.697  35.873   5.934
 2924POPC   C1A40611  12.956  36.025   6.371
 2924POPC   D2A40612  12.737  36.268   6.693
 2924POPC   C3A40613  12.871  36.301   7.121
 2924POPC   C4A40614  13.128  35.984   7.327
 2924POPC   C1B40615  12.440  35.979   6.324
 2924POPC   C2B40616  12.416  35.901   6.799
 2924POPC   C3B40617  12.435  35.990   7.245
 2924POPC   C4B40618  12.344  35.795   7.654
 2925POPC   NC340619  24.952  12.835   5.303
 2925POPC   PO440620  24.354  12.874   5.467
 2925POPC   GL140621  24.591  12.846   5.778
 2925POPC   GL240622  24.775  13.131   5.681
 2925POPC   C1A40623  24.349  12.900   6.156
 2925POPC   D2A40624  24.246  12.728   6.553
 2925POPC   C3A40625  24.506  12.650   6.884
 2925POPC   C4A40626  24.560  12.802   7.290
 2925POPC   C1B40627  24.724  13.217   6.116
 2925POPC   C2B40628  24.674  13.045   6.527
 2925POPC   C3B40629  24.897  13.229   6.850
 2925POPC   C4B40630  24.794  13.242   7.242
 2926POPC   NC340631   3.945  19.047   5.380
 2926POPC   PO440632   3.349  19.350   5.159
 2926POPC   GL140633   3.487  19.215   5.615
 2926POPC   GL240634   3.249  19.016   5.835
 2926POPC   C1A40635   3.628  19.212   6.094
 2926POPC   D2A40636   3.415  19.186   6.474
 2926POPC   C3A40637   3.473  19.112   6.905
 2926POPC   C4A40638   3.542  19.322   7.297
 2926POPC   C1B40639   3.265  18.750   6.203
 2926POPC   C2B40640   3.107  18.812   6.628
 2926POPC   C3B40641   3.155  18.695   7.045
 2926POPC   C4B40642   3.383  18.766   7.397
 2927POPC   NC340643  40.040  34.291   5.399
 2927POPC   PO440644  39.876  33.642   5.255
 2927POPC   GL140645  39.972  33.796   5.634
 2927POPC   GL240646  40.324  33.816   5.576
 2927POPC   C1A40647  39.789  33.806   6.051
 2927POPC   D2A40648  39.990  33.908   6.439
 2927POPC   C3A40649  39.839  33.909   6.862
 2927POPC   C4A40650  39.847  33.649   7.209
 2927POPC   C1B40651  40.303  33.701   6.024
 2927POPC   C2B40652  40.512  33.857   6.394
 2927POPC   C3B40653  40.356  34.033   6.772
 2927POPC   C4B40654  40.331  33.819   7.128
 2928POPC   NC340655   0.445  40.254   5.306
 2928POPC   PO440656   0.184  39.587   5.299
 2928POPC   GL140657   0.348  39.880   5.657
 2928POPC   GL240658   0.240  40.238   5.763
 2928POPC   C1A40659   0.362  39.893   6.127
 2928POPC   D2A40660   0.619  39.983   6.484
 2928POPC   C3A40661   0.453  39.813   6.856
 2928POPC   C4A40662   0.275  39.805   7.258
 2928POPC   C1B40663   0.085  40.353   6.143
 2928POPC   C2B40664   0.247  40.511   6.504
 2928POPC   C3B40665   0.450  40.315   6.856
 2928POPC   C4B40666   0.291  40.326   7.268
 2929POPC   NC340667  43.222  18.712   5.559
 2929POPC   PO440668  43.289  19.323   5.331
 2929POPC   GL140669  43.117  19.254   5.745
 2929POPC   GL240670  42.750  19.303   5.731
 2929POPC   C1A40671  43.006  18.991   6.108
 2929POPC   D2A40672  42.909  18.999   6.515
 2929POPC   C3A40673  43.041  18.877   6.885
 2929POPC   C4A40674  43.269  18.854   7.203
 2929POPC   C1B40675  42.662  19.398   6.161
 2929POPC   C2B40676  42.526  19.302   6.555
 2929POPC   C3B40677  42.769  19.315   6.917
 2929POPC   C4B40678  42.837  19.112   7.304
 2930POPC   NC340679  29.446  44.159   5.539
 2930POPC   PO440680  29.076  43.597   5.406
 2930POPC   GL140681  29.218  43.783   5.826
 2930POPC   GL240682  29.186  44.151   5.982
 2930POPC   C1A40683  29.191  43.728   6.285
 2930POPC   D2A40684  28.998  43.959   6.626
 2930POPC   C3A40685  28.950  43.667   6.942
 2930POPC   C4A40686  29.053  43.608   7.356
 2930POPC   C1B40687  29.567  44.087   6.241
 2930POPC   C2B40688  29.642  43.865   6.637
 2930POPC   C3B40689  29.410  43.847   7.015
 2930POPC   C4B40690  29.053  44.097   7.186
 2931POPC   NC340691  21.551  29.376   5.550
 2931POPC   PO440692  21.016  29.060   5.383
 2931POPC   GL140693  21.111  29.272   5.798
 2931POPC   GL240694  21.176  28.939   5.914
 2931POPC   C1A40695  21.455  29.261   6.168
 2931POPC   D2A40696  21.440  29.015   6.497
 2931POPC   C3A40697  21.554  29.217   6.845
 2931POPC   C4A40698  21.646  29.091   7.246
 2931POPC   C1B40699  20.974  29.136   6.298
 2931POPC   C2B40700  21.042  29.219   6.755
 2931POPC   C3B40701  21.115  29.061   7.165
 2931POPC   C4B40702  20.901  28.976   7.546
 2932POPC   NC340703   3.249   3.438   5.381
 2932POPC   PO440704   3.683   3.984   5.583
 2932POPC   GL140705   3.818   3.617   5.811
 2932POPC   GL240706   3.461   3.606   5.887
 2932POPC   C1A40707   3.838   3.430   6.230
 2932POPC   D2A40708   3.533   3.523   6.573
 2932POPC   C3A40709   3.625   3.409   6.973
 2932POPC   C4A40710   3.823   3.632   7.282
 2932POPC   C1B40711   3.155   3.646   6.230
 2932POPC   C2B40712   3.109   3.830   6.660
 2932POPC   C3B40713   3.226   3.723   7.093
 2932POPC   C4B40714   3.383   3.462   7.450
 2933POPC   NC340715   0.773  14.040   5.404
 2933POPC   PO440716   0.655  14.714   5.319
 2933POPC   GL140717   0.474  14.419   5.629
 2933POPC   GL240718   0.147  14.518   5.768
 2933POPC   C1A40719   0.607  14.290   6.048
 2933POPC   D2A40720   0.821  14.443   6.433
 2933POPC   C3A40721   0.663  14.326   6.889
 2933POPC   C4A40722   0.594  14.568   7.280
 2933POPC   C1B40723   0.122  14.342   6.137
 2933POPC   C2B40724   0.309  14.431   6.527
 2933POPC   C3B40725   0.194  14.528   6.948
 2933POPC   C4B40726   0.244  14.206   7.264
 2934POPC   NC340727   7.581  29.667   5.507
 2934POPC   PO440728   7.379  30.242   5.590
 2934POPC   GL140729   7.501  29.952   5.924
 2934POPC   GL240730   7.774  29.675   5.992
 2934POPC   C1A40731   7.418  30.051   6.306
 2934POPC   D2A40732   7.611  30.138   6.680
 2934POPC   C3A40733   7.408  30.109   7.045
 2934POPC   C4A40734   7.663  30.042   7.403
 2934POPC   C1B40735   7.769  29.698   6.424
 2934POPC   C2B40736   7.415  29.672   6.682
 2934POPC   C3B40737   7.555  29.645   7.076
 2934POPC   C4B40738   7.421  29.595   7.481
 2935POPC   NC340739  41.886  10.678   5.390
 2935POPC   PO440740  41.419  10.137   5.452
 2935POPC   GL140741  41.758  10.305   5.787
 2935POPC   GL240742  41.782  10.685   5.892
 2935POPC   C1A40743  41.859  10.350   6.279
 2935POPC   D2A40744  41.714  10.597   6.661
 2935POPC   C3A40745  41.566  10.408   7.086
 2935POPC   C4A40746  41.504  10.274   7.552
 2935POPC   C1B40747  41.850  10.965   6.279
 2935POPC   C2B40748  41.806  11.119   6.730
 2935POPC   C3B40749  41.603  10.912   7.101
 2935POPC   C4B40750  41.579  11.050   7.554
 2936POPC   NC340751  21.580   1.401   5.334
 2936POPC   PO440752  21.206   0.818   5.433
 2936POPC   GL140753  21.359   1.129   5.733
 2936POPC   GL240754  21.203   1.453   5.671
 2936POPC   C1A40755  21.446   1.125   6.203
 2936POPC   D2A40756  21.132   0.978   6.540
 2936POPC   C3A40757  21.253   0.866   6.972
 2936POPC   C4A40758  21.279   1.122   7.346
 2936POPC   C1B40759  21.111   1.520   6.081
 2936POPC   C2B40760  21.216   1.526   6.512
 2936POPC   C3B40761  21.195   1.380   6.906
 2936POPC   C4B40762  21.150   1.626   7.272
 2937POPC   NC340763  43.488   5.178   5.463
 2937POPC   PO440764  42.951   4.838   5.335
 2937POPC   GL140765  43.016   5.147   5.721
 2937POPC   GL240766  43.277   4.945   5.880
 2937POPC   C1A40767  43.127   5.303   6.182
 2937POPC   D2A40768  43.240   5.068   6.565
 2937POPC   C3A40769  43.175   5.259   6.971
 2937POPC   C4A40770  43.044   5.128   7.366
 2937POPC   C1B40771  42.983   4.796   6.190
 2937POPC   C2B40772  42.792   4.698   6.585
 2937POPC   C3B40773  42.822   4.866   6.959
 2937POPC   C4B40774  42.520   4.940   7.237
 2938POPC   NC340775  18.185  34.661   5.158
 2938POPC   PO440776  18.523  34.308   5.452
 2938POPC   GL140777  18.415  34.591   5.815
 2938POPC   GL240778  18.155  34.852   5.810
 2938POPC   C1A40779  18.296  34.577   6.266
 2938POPC   D2A40780  18.375  34.731   6.696
 2938POPC   C3A40781  18.235  34.494   7.065
 2938POPC   C4A40782  18.003  34.579   7.461
 2938POPC   C1B40783  18.066  35.035   6.240
 2938POPC   C2B40784  17.910  34.961   6.669
 2938POPC   C3B40785  18.099  34.992   7.079
 2938POPC   C4B40786  17.947  35.095   7.500
 2939POPC   NC340787  42.499  39.206   5.270
 2939POPC   PO440788  42.070  39.675   5.430
 2939POPC   GL140789  42.293  39.503   5.766
 2939POPC   GL240790  42.374  39.138   5.763
 2939POPC   C1A40791  42.287  39.392   6.213
 2939POPC   D2A40792  42.407  39.171   6.568
 2939POPC   C3A40793  42.429  39.380   6.931
 2939POPC   C4A40794  42.250  39.295   7.296
 2939POPC   C1B40795  42.722  39.053   6.076
 2939POPC   C2B40796  42.793  38.849   6.485
 2939POPC   C3B40797  42.742  38.899   6.924
 2939POPC   C4B40798  42.718  39.114   7.296
 2940POPC   NC340799   6.975  14.283   5.322
 2940POPC   PO440800   6.279  14.387   5.350
 2940POPC   GL140801   6.535  14.460   5.736
 2940POPC   GL240802   6.894  14.605   5.728
 2940POPC   C1A40803   6.521  14.403   6.197
 2940POPC   D2A40804   6.666  14.153   6.575
 2940POPC   C3A40805   6.398  14.265   6.915
 2940POPC   C4A40806   6.445  14.628   7.175
 2940POPC   C1B40807   6.987  14.632   6.185
 2940POPC   C2B40808   6.752  14.666   6.604
 2940POPC   C3B40809   6.878  14.456   6.998
 2940POPC   C4B40810   6.976  14.274   7.400
 2941POPC   NC340811   1.840  27.650   5.005
 2941POPC   PO440812   1.862  27.284   5.599
 2941POPC   GL140813   2.131  27.503   5.826
 2941POPC   GL240814   1.906  27.757   5.874
 2941POPC   C1A40815   2.097  27.530   6.292
 2941POPC   D2A40816   1.850  27.659   6.656
 2941POPC   C3A40817   1.852  27.338   6.997
 2941POPC   C4A40818   2.216  27.150   7.163
 2941POPC   C1B40819   2.118  28.033   6.179
 2941POPC   C2B40820   2.316  28.235   6.552
 2941POPC   C3B40821   2.364  28.117   6.969
 2941POPC   C4B40822   2.179  27.711   7.084
 2942POPC   NC340823  26.079  42.770   5.342
 2942POPC   PO440824  26.238  42.157   5.307
 2942POPC   GL140825  26.240  42.406   5.724
 2942POPC   GL240826  25.928  42.366   5.861
 2942POPC   C1A40827  26.322  42.288   6.208
 2942POPC   D2A40828  26.390  42.133   6.657
 2942POPC   C3A40829  26.351  42.440   7.005
 2942POPC   C4A40830  26.122  42.416   7.415
 2942POPC   C1B40831  25.730  42.608   6.191
 2942POPC   C2B40832  25.538  42.572   6.589
 2942POPC   C3B40833  25.816  42.548   6.957
 2942POPC   C4B40834  25.798  42.824   7.327
 2943POPC   NC340835   2.716  35.001   5.651
 2943POPC   PO440836   2.553  34.411   5.261
 2943POPC   GL140837   2.666  34.463   5.696
 2943POPC   GL240838   2.464  34.164   5.760
 2943POPC   C1A40839   2.971  34.578   6.075
 2943POPC   D2A40840   3.139  34.478   6.481
 2943POPC   C3A40841   3.090  34.772   6.805
 2943POPC   C4A40842   2.997  34.865   7.234
 2943POPC   C1B40843   2.662  34.192   6.137
 2943POPC   C2B40844   2.636  34.431   6.490
 2943POPC   C3B40845   2.793  34.357   6.884
 2943POPC   C4B40846   2.784  34.218   7.276
 2944POPC   NC340847  27.866  43.789   5.309
 2944POPC   PO440848  27.242  43.794   5.607
 2944POPC   GL140849  27.667  43.860   5.784
 2944POPC   GL240850  27.820  44.161   5.671
 2944POPC   C1A40851  27.878  43.596   6.081
 2944POPC   D2A40852  27.745  43.428   6.492
 2944POPC   C3A40853  27.661  43.728   6.850
 2944POPC   C4A40854  27.489  43.665   7.270
 2944POPC   C1B40855  27.749  44.307   6.097
 2944POPC   C2B40856  27.854  44.401   6.543
 2944POPC   C3B40857  27.847  44.222   6.958
 2944POPC   C4B40858  27.530  44.159   7.258
 2945POPC   NC340859  26.389  10.447   5.364
 2945POPC   PO440860  25.806  10.194   5.524
 2945POPC   GL140861  26.051  10.490   5.778
 2945POPC   GL240862  26.004  10.845   5.859
 2945POPC   C1A40863  26.311  10.545   6.140
 2945POPC   D2A40864  26.320  10.356   6.541
 2945POPC   C3A40865  26.130  10.576   6.900
 2945POPC   C4A40866  26.059  10.432   7.316
 2945POPC   C1B40867  25.816  10.819   6.279
 2945POPC   C2B40868  25.684  10.860   6.743
 2945POPC   C3B40869  25.709  10.804   7.221
 2945POPC   C4B40870  25.808  10.741   7.702
 2946POPC   NC340871  32.977  19.586   5.457
 2946POPC   PO440872  33.346  20.111   5.565
 2946POPC   GL140873  33.087  19.844   5.887
 2946POPC   GL240874  33.313  19.690   6.118
 2946POPC   C1A40875  32.802  19.696   6.232
 2946POPC   D2A40876  32.687  19.877   6.650
 2946POPC   C3A40877  32.776  19.722   7.050
 2946POPC   C4A40878  33.202  19.809   7.196
 2946POPC   C1B40879  33.147  19.996   6.423
 2946POPC   C2B40880  33.213  20.267   6.787
 2946POPC   C3B40881  33.172  20.315   7.239
 2946POPC   C4B40882  33.238  20.102   7.658
 2947POPC   NC340883  42.793  40.906   5.389
 2947POPC   PO440884  43.499  40.616   5.328
 2947POPC   GL140885  43.235  40.814   5.662
 2947POPC   GL240886  42.965  40.615   5.850
 2947POPC   C1A40887  43.322  40.854   6.125
 2947POPC   D2A40888  43.153  40.632   6.493
 2947POPC   C3A40889  43.267  40.752   6.915
 2947POPC   C4A40890  43.232  40.475   7.281
 2947POPC   C1B40891  42.781  40.870   6.247
 2947POPC   C2B40892  42.769  40.896   6.749
 2947POPC   C3B40893  42.847  40.780   7.212
 2947POPC   C4B40894  42.840  40.985   7.644
 2948POPC   NC340895  36.770  42.815   5.633
 2948POPC   PO440896  37.332  42.969   5.306
 2948POPC   GL140897  37.220  43.147   5.721
 2948POPC   GL240898  36.866  43.290   5.784
 2948POPC   C1A40899  37.242  43.090   6.169
 2948POPC   D2A40900  37.037  43.217   6.547
 2948POPC   C3A40901  37.201  42.981   6.917
 2948POPC   C4A40902  36.976  42.991   7.317
 2948POPC   C1B40903  36.657  43.162   6.198
 2948POPC   C2B40904  36.529  43.165   6.652
 2948POPC   C3B40905  36.489  43.194   7.098
 2948POPC   C4B40906  36.506  42.920   7.452
 2949POPC   NC340907  32.592  33.843   5.558
 2949POPC   PO440908  31.937  33.900   5.528
 2949POPC   GL140909  32.163  33.875   5.915
 2949POPC   GL240910  32.440  34.125   5.940
 2949POPC   C1A40911  32.121  33.610   6.311
 2949POPC   D2A40912  32.288  33.668   6.753
 2949POPC   C3A40913  32.061  33.608   7.152
 2949POPC   C4A40914  32.012  33.624   7.625
 2949POPC   C1B40915  32.540  33.904   6.290
 2949POPC   C2B40916  32.638  34.086   6.639
 2949POPC   C3B40917  32.725  33.867   6.940
 2949POPC   C4B40918  32.491  33.836   7.275
 2950POPC   NC340919   8.642  43.360   5.384
 2950POPC   PO440920   7.959  43.462   5.191
 2950POPC   GL140921   8.172  43.387   5.629
 2950POPC   GL240922   8.373  43.073   5.702
 2950POPC   C1A40923   8.241  43.336   6.119
 2950POPC   D2A40924   8.388  43.208   6.556
 2950POPC   C3A40925   8.107  42.963   6.830
 2950POPC   C4A40926   7.847  43.103   7.164
 2950POPC   C1B40927   8.548  42.912   6.103
 2950POPC   C2B40928   8.430  42.693   6.504
 2950POPC   C3B40929   8.594  42.826   6.915
 2950POPC   C4B40930   8.479  43.177   7.196
 2951POPC   NC340931  29.084  29.852   5.311
 2951POPC   PO440932  29.097  30.522   5.437
 2951POPC   GL140933  29.251  30.211   5.774
 2951POPC   GL240934  29.180  29.843   5.798
 2951POPC   C1A40935  29.122  30.160   6.226
 2951POPC   D2A40936  28.805  29.951   6.516
 2951POPC   C3A40937  28.965  29.989   6.924
 2951POPC   C4A40938  29.275  30.299   7.104
 2951POPC   C1B40939  29.096  29.671   6.177
 2951POPC   C2B40940  29.272  29.740   6.578
 2951POPC   C3B40941  29.245  29.534   6.958
 2951POPC   C4B40942  29.317  29.647   7.393
 2952POPC   NC340943  10.883  42.483   5.452
 2952POPC   PO440944  10.268  42.197   5.343
 2952POPC   GL140945  10.498  42.271   5.730
 2952POPC   GL240946  10.844  42.096   5.800
 2952POPC   C1A40947  10.569  42.391   6.152
 2952POPC   D2A40948  10.756  42.571   6.525
 2952POPC   C3A40949  10.481  42.459   6.867
 2952POPC   C4A40950  10.479  42.630   7.263
 2952POPC   C1B40951  11.043  42.175   6.223
 2952POPC   C2B40952  10.911  42.093   6.662
 2952POPC   C3B40953  10.936  42.289   7.058
 2952POPC   C4B40954  11.061  42.233   7.500
 2953POPC   NC340955  42.885  17.771   5.527
 2953POPC   PO440956  42.822  18.483   5.606
 2953POPC   GL140957  43.119  18.177   5.767
 2953POPC   GL240958  43.459  18.267   5.799
 2953POPC   C1A40959  43.128  18.011   6.180
 2953POPC   D2A40960  42.829  18.049   6.524
 2953POPC   C3A40961  43.011  18.068   6.937
 2953POPC   C4A40962  42.988  18.441   7.189
 2953POPC   C1B40963  43.334  18.499   6.193
 2953POPC   C2B40964  43.246  18.451   6.655
 2953POPC   C3B40965  43.471  18.369   7.067
 2953POPC   C4B40966  43.324  18.123   7.435
 2954POPC   NC340967  12.338  11.944   5.412
 2954POPC   PO440968  12.905  12.447   5.454
 2954POPC   GL140969  12.716  12.219   5.776
 2954POPC   GL240970  12.992  12.325   5.960
 2954POPC   C1A40971  12.787  11.881   6.111
 2954POPC   D2A40972  12.925  11.824   6.543
 2954POPC   C3A40973  12.700  11.704   6.898
 2954POPC   C4A40974  12.609  11.810   7.310
 2954POPC   C1B40975  13.154  12.232   6.332
 2954POPC   C2B40976  13.174  12.318   6.734
 2954POPC   C3B40977  13.041  12.126   7.076
 2954POPC   C4B40978  13.159  12.373   7.410
 2955POPC   NC340979  39.871  28.277   5.471
 2955POPC   PO440980  39.558  28.859   5.427
 2955POPC   GL140981  39.958  28.641   5.777
 2955POPC   GL240982  39.894  28.353   5.967
 2955POPC   C1A40983  40.278  28.589   6.160
 2955POPC   D2A40984  40.120  28.352   6.514
 2955POPC   C3A40985  40.117  28.574   6.916
 2955POPC   C4A40986  39.980  28.476   7.325
 2955POPC   C1B40987  39.783  28.038   6.176
 2955POPC   C2B40988  39.751  27.979   6.564
 2955POPC   C3B40989  39.862  28.100   6.936
 2955POPC   C4B40990  39.714  27.977   7.312
 2956POPC   NC340991   6.453  17.135   5.226
 2956POPC   PO440992   6.307  17.812   5.152
 2956POPC   GL140993   6.431  17.619   5.598
 2956POPC   GL240994   6.492  17.883   5.831
 2956POPC   C1A40995   6.564  17.444   6.078
 2956POPC   D2A40996   6.571  17.309   6.558
 2956POPC   C3A40997   6.712  17.559   6.951
 2956POPC   C4A40998   6.842  17.433   7.420
 2956POPC   C1B40999   6.327  18.028   6.212
 2956POPC   C2B41000   6.368  17.804   6.575
 2956POPC   C3B41001   6.369  17.969   6.989
 2956POPC   C4B41002   6.579  17.909   7.379
 2957POPC   NC341003  23.908   0.620   5.354
 2957POPC   PO441004  23.616   0.187   5.754
 2957POPC   GL141005  23.512   0.577   5.939
 2957POPC   GL241006  23.802   0.742   5.838
 2957POPC   C1A41007  23.410   0.742   6.341
 2957POPC   D2A41008  23.355   0.717   6.780
 2957POPC   C3A41009  23.374   0.295   6.924
 2957POPC   C4A41010  23.686   0.151   7.186
 2957POPC   C1B41011  23.947   0.619   6.243
 2957POPC   C2B41012  23.805   0.438   6.632
 2957POPC   C3B41013  23.853   0.613   7.026
 2957POPC   C4B41014  23.994   0.877   7.344
 2958POPC   NC341015  36.007   3.106   5.243
 2958POPC   PO441016  36.372   3.690   5.440
 2958POPC   GL141017  36.122   3.570   5.771
 2958POPC   GL241018  36.370   3.420   5.996
 2958POPC   C1A41019  35.933   3.568   6.192
 2958POPC   D2A41020  36.110   3.557   6.558
 2958POPC   C3A41021  35.825   3.536   6.848
 2958POPC   C4A41022  35.988   3.433   7.211
 2958POPC   C1B41023  36.405   3.825   6.223
 2958POPC   C2B41024  36.395   3.999   6.638
 2958POPC   C3B41025  36.144   3.905   6.997
 2958POPC   C4B41026  36.190   3.831   7.448
 2959POPC   NC341027  14.107  36.853   5.213
 2959POPC   PO441028  14.661  37.160   5.338
 2959POPC   GL141029  14.307  37.140   5.662
 2959POPC   GL241030  14.224  36.796   5.748
 2959POPC   C1A41031  14.241  37.211   6.150
 2959POPC   D2A41032  14.434  37.228   6.608
 2959POPC   C3A41033  14.335  37.062   7.062
 2959POPC   C4A41034  14.532  36.758   7.385
 2959POPC   C1B41035  14.056  36.746   6.176
 2959POPC   C2B41036  14.114  36.818   6.620
 2959POPC   C3B41037  14.055  36.632   7.029
 2959POPC   C4B41038  13.869  36.864   7.341
 2960POPC   NC341039  17.427  13.412   5.289
 2960POPC   PO441040  17.500  14.105   5.433
 2960POPC   GL141041  17.508  13.829   5.827
 2960POPC   GL241042  17.325  13.480   5.803
 2960POPC   C1A41043  17.602  13.880   6.299
 2960POPC   D2A41044  17.390  13.830   6.714
 2960POPC   C3A41045  17.631  13.958   7.114
 2960POPC   C4A41046  17.931  13.796   7.426
 2960POPC   C1B41047  17.668  13.408   6.116
 2960POPC   C2B41048  17.790  13.441   6.593
 2960POPC   C3B41049  17.637  13.462   7.032
 2960POPC   C4B41050  17.337  13.233   7.278
 2961POPC   NC341051  36.721  27.466   5.331
 2961POPC   PO441052  37.220  27.845   5.111
 2961POPC   GL141053  37.105  27.702   5.582
 2961POPC   GL241054  36.747  27.791   5.719
 2961POPC   C1A41055  37.097  27.652   6.068
 2961POPC   D2A41056  37.146  27.866   6.508
 2961POPC   C3A41057  37.125  27.716   6.963
 2961POPC   C4A41058  36.934  27.717   7.449
 2961POPC   C1B41059  36.595  27.636   6.148
 2961POPC   C2B41060  36.715  27.588   6.606
 2961POPC   C3B41061  36.687  27.500   7.057
 2961POPC   C4B41062  36.605  27.315   7.458
 2962POPC   NC341063   2.179  34.114   5.334
 2962POPC   PO441064   1.717  33.653   5.274
 2962POPC   GL141065   1.819  33.865   5.670
 2962POPC   GL241066   2.151  33.753   5.723
 2962POPC   C1A41067   1.788  33.904   6.122
 2962POPC   D2A41068   1.950  33.702   6.503
 2962POPC   C3A41069   1.876  34.004   6.837
 2962POPC   C4A41070   1.868  33.917   7.260
 2962POPC   C1B41071   2.316  33.812   6.143
 2962POPC   C2B41072   2.396  33.954   6.571
 2962POPC   C3B41073   2.273  33.710   6.942
 2962POPC   C4B41074   2.368  33.799   7.368
 2963POPC   NC341075   8.852   3.737   5.603
 2963POPC   PO441076   8.793   3.163   5.498
 2963POPC   GL141077   8.709   3.315   5.871
 2963POPC   GL241078   9.082   3.392   5.900
 2963POPC   C1A41079   8.722   3.565   6.254
 2963POPC   D2A41080   8.750   3.417   6.707
 2963POPC   C3A41081   8.691   3.596   7.156
 2963POPC   C4A41082   8.551   3.666   7.620
 2963POPC   C1B41083   9.264   3.531   6.283
 2963POPC   C2B41084   9.350   3.643   6.727
 2963POPC   C3B41085   9.301   3.716   7.188
 2963POPC   C4B41086   9.044   3.604   7.550
 2964POPC   NC341087   6.317  34.819   5.625
 2964POPC   PO441088   7.013  34.990   5.589
 2964POPC   GL141089   6.650  35.237   5.818
 2964POPC   GL241090   6.543  35.590   5.745
 2964POPC   C1A41091   6.363  35.326   6.167
 2964POPC   D2A41092   6.321  35.066   6.540
 2964POPC   C3A41093   6.463  35.290   6.880
 2964POPC   C4A41094   6.363  35.429   7.255
 2964POPC   C1B41095   6.756  35.786   6.097
 2964POPC   C2B41096   6.620  35.652   6.506
 2964POPC   C3B41097   6.631  35.795   6.907
 2964POPC   C4B41098   6.725  35.946   7.305
 2965POPC   NC341099  23.819  36.136   5.345
 2965POPC   PO441100  23.369  36.491   5.575
 2965POPC   GL141101  23.658  36.200   5.867
 2965POPC   GL241102  23.761  35.845   5.800
 2965POPC   C1A41103  23.848  36.167   6.325
 2965POPC   D2A41104  23.932  36.145   6.816
 2965POPC   C3A41105  23.582  36.251   7.073
 2965POPC   C4A41106  23.470  36.426   7.489
 2965POPC   C1B41107  23.549  35.746   6.201
 2965POPC   C2B41108  23.520  35.904   6.620
 2965POPC   C3B41109  23.414  35.774   7.005
 2965POPC   C4B41110  23.794  35.637   7.206
 2966POPC   NC341111  28.746  38.874   5.353
 2966POPC   PO441112  29.213  39.350   5.329
 2966POPC   GL141113  29.379  39.357   5.763
 2966POPC   GL241114  29.584  39.017   5.812
 2966POPC   C1A41115  29.136  39.312   6.207
 2966POPC   D2A41116  29.125  39.163   6.673
 2966POPC   C3A41117  28.903  39.334   7.056
 2966POPC   C4A41118  28.924  39.521   7.480
 2966POPC   C1B41119  29.644  39.266   6.192
 2966POPC   C2B41120  29.616  39.334   6.636
 2966POPC   C3B41121  29.536  39.173   7.047
 2966POPC   C4B41122  29.252  39.123   7.405
 2967POPC   NC341123   1.574   8.471   5.591
 2967POPC   PO441124   1.324   9.095   5.570
 2967POPC   GL141125   1.114   8.967   5.946
 2967POPC   GL241126   1.120   8.625   5.891
 2967POPC   C1A41127   1.111   9.190   6.339
 2967POPC   D2A41128   1.303   9.444   6.681
 2967POPC   C3A41129   1.344   9.299   7.092
 2967POPC   C4A41130   1.212   9.110   7.498
 2967POPC   C1B41131   1.217   8.661   6.340
 2967POPC   C2B41132   1.109   8.856   6.723
 2967POPC   C3B41133   1.239   8.808   7.108
 2967POPC   C4B41134   1.200   8.588   7.479
 2968POPC   NC341135  32.958  31.676   5.554
 2968POPC   PO441136  33.443  31.227   5.298
 2968POPC   GL141137  33.407  31.451   5.716
 2968POPC   GL241138  33.158  31.295   5.896
 2968POPC   C1A41139  33.306  31.697   6.145
 2968POPC   D2A41140  33.230  31.502   6.547
 2968POPC   C3A41141  33.245  31.767   6.909
 2968POPC   C4A41142  33.257  31.658   7.353
 2968POPC   C1B41143  32.834  31.484   6.219
 2968POPC   C2B41144  32.745  31.538   6.674
 2968POPC   C3B41145  32.864  31.406   7.066
 2968POPC   C4B41146  32.735  31.051   7.259
 2969POPC   NC341147  19.653  19.830   5.441
 2969POPC   PO441148  20.344  19.972   5.419
 2969POPC   GL141149  20.013  19.949   5.796
 2969POPC   GL241150  19.669  20.120   5.848
 2969POPC   C1A41151  19.859  19.760   6.201
 2969POPC   D2A41152  19.623  19.505   6.503
 2969POPC   C3A41153  19.799  19.579   6.900
 2969POPC   C4A41154  19.840  19.716   7.334
 2969POPC   C1B41155  19.760  20.278   6.240
 2969POPC   C2B41156  19.927  20.101   6.617
 2969POPC   C3B41157  19.759  20.081   7.004
 2969POPC   C4B41158  19.951  20.201   7.373
 2970POPC   NC341159  21.621   0.668   5.598
 2970POPC   PO441160  21.453   0.019   5.272
 2970POPC   GL141161  21.262   0.215   5.672
 2970POPC   GL241162  21.219   0.552   5.870
 2970POPC   C1A41163  21.160   0.132   6.120
 2970POPC   D2A41164  21.089   0.426   6.486
 2970POPC   C3A41165  21.282   0.360   6.903
 2970POPC   C4A41166  21.099   0.483   7.305
 2970POPC   C1B41167  21.525   0.486   6.223
 2970POPC   C2B41168  21.583   0.701   6.577
 2970POPC   C3B41169  21.749   0.636   6.959
 2970POPC   C4B41170  21.615   0.503   7.321
 2971POPC   NC341171   4.399  38.777   5.592
 2971POPC   PO441172   4.007  38.301   5.311
 2971POPC   GL141173   4.160  38.340   5.749
 2971POPC   GL241174   3.913  38.583   5.739
 2971POPC   C1A41175   4.431  38.384   6.157
 2971POPC   D2A41176   4.610  38.352   6.595
 2971POPC   C3A41177   4.355  38.373   6.961
 2971POPC   C4A41178   4.476  38.668   7.219
 2971POPC   C1B41179   3.961  38.626   6.166
 2971POPC   C2B41180   4.118  38.579   6.558
 2971POPC   C3B41181   4.017  38.751   6.962
 2971POPC   C4B41182   4.013  38.586   7.387
 2972POPC   NC341183  36.330  24.175   5.346
 2972POPC   PO441184  35.854  24.469   5.390
 2972POPC   GL141185  36.021  24.311   5.786
 2972POPC   GL241186  36.400  24.319   5.832
 2972POPC   C1A41187  36.092  24.447   6.247
 2972POPC   D2A41188  36.331  24.455   6.669
 2972POPC   C3A41189  36.157  24.544   7.116
 2972POPC   C4A41190  35.868  24.598   7.501
 2972POPC   C1B41191  36.482  24.105   6.234
 2972POPC   C2B41192  36.636  24.049   6.675
 2972POPC   C3B41193  36.530  24.176   7.113
 2972POPC   C4B41194  36.615  24.476   7.463
 2973POPC   NC341195   3.823  42.517   5.385
 2973POPC   PO441196   3.285  42.150   5.571
 2973POPC   GL141197   3.509  42.296   5.903
 2973POPC   GL241198   3.777  42.539   5.884
 2973POPC   C1A41199   3.662  42.150   6.290
 2973POPC   D2A41200   3.902  42.034   6.652
 2973POPC   C3A41201   3.636  42.112   6.990
 2973POPC   C4A41202   3.470  42.140   7.385
 2973POPC   C1B41203   3.824  42.682   6.279
 2973POPC   C2B41204   3.698  42.529   6.655
 2973POPC   C3B41205   3.852  42.597   7.047
 2973POPC   C4B41206   3.702  42.590   7.471
 2974POPC   NC341207  38.245   4.425   5.328
 2974POPC   PO441208  38.823   4.288   5.385
 2974POPC   GL141209  38.522   4.187   5.733
 2974POPC   GL241210  38.510   4.520   5.834
 2974POPC   C1A41211  38.655   4.117   6.194
 2974POPC   D2A41212  38.506   4.175   6.625
 2974POPC   C3A41213  38.528   3.908   6.976
 2974POPC   C4A41214  38.448   3.939   7.387
 2974POPC   C1B41215  38.334   4.518   6.259
 2974POPC   C2B41216  38.144   4.542   6.673
 2974POPC   C3B41217  38.311   4.425   7.082
 2974POPC   C4B41218  38.245   4.654   7.484
 2975POPC   NC341219   4.063  30.756   5.583
 2975POPC   PO441220   4.577  30.449   5.316
 2975POPC   GL141221   4.548  30.567   5.750
 2975POPC   GL241222   4.523  30.909   5.822
 2975POPC   C1A41223   4.409  30.574   6.193
 2975POPC   D2A41224   4.120  30.848   6.430
 2975POPC   C3A41225   4.126  30.858   6.877
 2975POPC   C4A41226   4.371  30.561   7.119
 2975POPC   C1B41227   4.697  31.018   6.203
 2975POPC   C2B41228   4.700  31.203   6.615
 2975POPC   C3B41229   4.607  31.037   7.030
 2975POPC   C4B41230   4.691  30.839   7.453
 2976POPC   NC341231  14.220   0.287   5.188
 2976POPC   PO441232  13.813   0.524   5.705
 2976POPC   GL141233  14.237   0.538   5.878
 2976POPC   GL241234  14.508   0.279   5.862
 2976POPC   C1A41235  14.224   0.483   6.314
 2976POPC   D2A41236  14.517   0.456   6.639
 2976POPC   C3A41237  14.417   0.530   7.038
 2976POPC   C4A41238  14.540   0.551   7.451
 2976POPC   C1B41239  14.453   0.030   6.208
 2976POPC   C2B41240  14.201   0.027   6.554
 2976POPC   C3B41241  14.441   0.008   6.898
 2976POPC   C4B41242  14.387   0.050   7.308
 2977POPC   NC341243   3.006  24.632   5.482
 2977POPC   PO441244   2.695  25.189   5.393
 2977POPC   GL141245   2.508  25.350   5.792
 2977POPC   GL241246   2.509  24.998   5.884
 2977POPC   C1A41247   2.417  25.370   6.240
 2977POPC   D2A41248   2.496  25.184   6.636
 2977POPC   C3A41249   2.450  25.310   7.033
 2977POPC   C4A41250   2.700  25.659   7.084
 2977POPC   C1B41251   2.673  24.843   6.300
 2977POPC   C2B41252   2.702  24.743   6.777
 2977POPC   C3B41253   2.672  24.881   7.221
 2977POPC   C4B41254   2.404  25.047   7.534
 2978POPC   NC341255   3.324  35.486   5.393
 2978POPC   PO441256   4.017  35.651   5.446
 2978POPC   GL141257   3.780  35.493   5.823
 2978POPC   GL241258   3.423  35.374   5.874
 2978POPC   C1A41259   3.786  35.227   6.181
 2978POPC   D2A41260   3.504  35.368   6.483
 2978POPC   C3A41261   3.732  35.435   6.856
 2978POPC   C4A41262   3.795  35.187   7.252
 2978POPC   C1B41263   3.360  35.735   6.094
 2978POPC   C2B41264   3.185  35.780   6.497
 2978POPC   C3B41265   3.214  35.579   6.877
 2978POPC   C4B41266   3.473  35.623   7.239
 2979POPC   NC341267   0.919  41.410   5.488
 2979POPC   PO441268   1.309  41.927   5.307
 2979POPC   GL141269   1.139  41.802   5.733
 2979POPC   GL241270   1.303  41.497   5.813
 2979POPC   C1A41271   0.891  41.723   6.144
 2979POPC   D2A41272   0.746  41.791   6.584
 2979POPC   C3A41273   0.980  41.574   6.908
 2979POPC   C4A41274   1.108  41.297   7.207
 2979POPC   C1B41275   1.281  41.411   6.240
 2979POPC   C2B41276   1.367  41.659   6.591
 2979POPC   C3B41277   1.506  41.559   7.011
 2979POPC   C4B41278   1.688  41.679   7.402
 2980POPC   NC341279  28.935  31.724   5.127
 2980POPC   PO441280  29.384  31.926   5.644
 2980POPC   GL141281  29.154  31.913   5.974
 2980POPC   GL241282  29.052  32.241   5.893
 2980POPC   C1A41283  29.175  31.886   6.429
 2980POPC   D2A41284  28.920  31.702   6.732
 2980POPC   C3A41285  28.826  32.025   7.004
 2980POPC   C4A41286  29.241  32.074   7.165
 2980POPC   C1B41287  29.213  32.371   6.289
 2980POPC   C2B41288  29.139  32.357   6.743
 2980POPC   C3B41289  28.977  32.542   7.144
 2980POPC   C4B41290  29.110  32.651   7.582
 2981POPC   NC341291  10.709  24.707   5.549
 2981POPC   PO441292  10.277  24.171   5.784
 2981POPC   GL141293  10.616  24.389   5.936
 2981POPC   GL241294  10.810  24.169   5.720
 2981POPC   C1A41295  10.670  24.695   6.284
 2981POPC   D2A41296  10.788  24.647   6.760
 2981POPC   C3A41297  10.432  24.435   7.019
 2981POPC   C4A41298  10.011  24.473   7.187
 2981POPC   C1B41299  10.838  23.973   6.137
 2981POPC   C2B41300  10.899  23.975   6.614
 2981POPC   C3B41301  10.893  24.212   7.028
 2981POPC   C4B41302  10.737  24.469   7.426
 2982POPC   NC341303  30.922   4.370   5.239
 2982POPC   PO441304  31.555   4.455   5.311
 2982POPC   GL141305  31.530   4.409   5.751
 2982POPC   GL241306  31.782   4.638   5.811
 2982POPC   C1A41307  31.400   4.315   6.196
 2982POPC   D2A41308  31.465   4.452   6.617
 2982POPC   C3A41309  31.232   4.327   6.971
 2982POPC   C4A41310  31.290   4.591   7.306
 2982POPC   C1B41311  31.911   4.526   6.251
 2982POPC   C2B41312  31.896   4.700   6.675
 2982POPC   C3B41313  31.787   4.567   7.108
 2982POPC   C4B41314  31.711   4.812   7.485
 2983POPC   NC341315  10.479  10.172   5.313
 2983POPC   PO441316  10.264   9.608   5.562
 2983POPC   GL141317  10.457   9.946   5.788
 2983POPC   GL241318  10.811   9.988   5.937
 2983POPC   C1A41319  10.409   9.862   6.214
 2983POPC   D2A41320  10.602  10.025   6.571
 2983POPC   C3A41321  10.449   9.858   6.961
 2983POPC   C4A41322  10.553   9.676   7.336
 2983POPC   C1B41323  10.871   9.649   6.309
 2983POPC   C2B41324  10.884   9.521   6.777
 2983POPC   C3B41325  11.028   9.591   7.232
 2983POPC   C4B41326  10.877   9.492   7.695
 2984POPC   NC341327  14.746  37.592   5.423
 2984POPC   PO441328  14.534  38.130   5.543
 2984POPC   GL141329  14.396  37.744   5.833
 2984POPC   GL241330  14.039  37.578   5.819
 2984POPC   C1A41331  14.422  37.665   6.312
 2984POPC   D2A41332  14.223  37.668   6.754
 2984POPC   C3A41333  14.411  37.894   7.097
 2984POPC   C4A41334  14.385  38.254   7.366
 2984POPC   C1B41335  13.918  37.615   6.262
 2984POPC   C2B41336  13.919  37.302   6.600
 2984POPC   C3B41337  13.906  37.340   7.040
 2984POPC   C4B41338  14.182  37.510   7.335
 2985POPC   NC341339  24.639   0.583   5.442
 2985POPC   PO441340  24.231   0.055   5.421
 2985POPC   GL141341  24.505   0.223   5.781
 2985POPC   GL241342  24.310   0.552   5.838
 2985POPC   C1A41343  24.827   0.144   6.134
 2985POPC   D2A41344  24.992   0.245   6.579
 2985POPC   C3A41345  24.776   0.073   6.931
 2985POPC   C4A41346  24.693   0.229   7.346
 2985POPC   C1B41347  24.468   0.549   6.274
 2985POPC   C2B41348  24.314   0.768   6.673
 2985POPC   C3B41349  24.381   0.625   7.100
 2985POPC   C4B41350  24.190   0.246   7.228
 2986POPC   NC341351   1.517  16.124   5.465
 2986POPC   PO441352   1.165  15.574   5.321
 2986POPC   GL141353   1.223  15.766   5.709
 2986POPC   GL241354   1.540  15.775   5.875
 2986POPC   C1A41355   1.166  15.586   6.118
 2986POPC   D2A41356   1.350  15.740   6.451
 2986POPC   C3A41357   1.130  15.770   6.822
 2986POPC   C4A41358   1.203  15.804   7.242
 2986POPC   C1B41359   1.246  16.107   6.098
 2986POPC   C2B41360   1.185  16.237   6.554
 2986POPC   C3B41361   1.348  16.241   6.996
 2986POPC   C4B41362   1.367  16.281   7.463
 2987POPC   NC341363  36.027  22.141   5.490
 2987POPC   PO441364  36.643  22.302   5.132
 2987POPC   GL141365  36.534  22.166   5.584
 2987POPC   GL241366  36.371  22.411   5.766
 2987POPC   C1A41367  36.483  22.029   6.070
 2987POPC   D2A41368  36.493  22.118   6.543
 2987POPC   C3A41369  36.347  22.213   7.000
 2987POPC   C4A41370  36.198  22.074   7.425
 2987POPC   C1B41371  36.171  22.401   6.208
 2987POPC   C2B41372  36.000  22.377   6.662
 2987POPC   C3B41373  35.851  22.343   7.121
 2987POPC   C4B41374  35.664  22.046   7.428
 2988POPC   NC341375   7.186  36.070   5.326
 2988POPC   PO441376   7.784  36.272   5.390
 2988POPC   GL141377   7.590  36.040   5.702
 2988POPC   GL241378   7.295  36.170   5.821
 2988POPC   C1A41379   7.703  36.149   6.141
 2988POPC   D2A41380   7.592  36.273   6.549
 2988POPC   C3A41381   7.552  35.898   6.776
 2988POPC   C4A41382   7.585  35.831   7.181
 2988POPC   C1B41383   7.219  36.015   6.259
 2988POPC   C2B41384   7.100  36.100   6.707
 2988POPC   C3B41385   7.157  36.185   7.166
 2988POPC   C4B41386   6.994  36.261   7.601
 2989POPC   NC341387  44.700  36.304   5.413
 2989POPC   PO441388  44.766  35.648   5.362
 2989POPC   GL141389  44.878  35.960   5.748
 2989POPC   GL241390  44.536  36.073   5.838
 2989POPC   C1A41391  44.897  36.332   6.086
 2989POPC   D2A41392  44.604  36.412   6.466
 2989POPC   C3A41393  44.658  36.298   6.906
 2989POPC   C4A41394  44.900  36.404   7.274
 2989POPC   C1B41395  44.658  35.911   6.245
 2989POPC   C2B41396  44.386  35.925   6.606
 2989POPC   C3B41397  44.307  35.893   7.029
 2989POPC   C4B41398  44.432  36.131   7.374
 2990POPC   NC341399  41.214   0.011   5.491
 2990POPC   PO441400  41.539   0.534   5.199
 2990POPC   GL141401  41.615   0.351   5.645
 2990POPC   GL241402  41.521   0.593   5.815
 2990POPC   C1A41403  41.575   0.222   6.151
 2990POPC   D2A41404  41.442   0.112   6.606
 2990POPC   C3A41405  41.528   0.334   7.003
 2990POPC   C4A41406  41.440   0.309   7.480
 2990POPC   C1B41407  41.591   0.739   6.187
 2990POPC   C2B41408  41.816   0.642   6.533
 2990POPC   C3B41409  41.730   0.809   6.929
 2990POPC   C4B41410  41.483   0.785   7.309
 2991POPC   NC341411  33.923  34.919   5.443
 2991POPC   PO441412  33.547  34.325   5.267
 2991POPC   GL141413  33.557  34.604   5.669
 2991POPC   GL241414  33.907  34.579   5.842
 2991POPC   C1A41415  33.420  34.567   6.133
 2991POPC   D2A41416  33.264  34.370   6.557
 2991POPC   C3A41417  33.452  34.462   7.000
 2991POPC   C4A41418  33.882  34.443   7.243
 2991POPC   C1B41419  34.116  34.717   6.245
 2991POPC   C2B41420  34.229  34.734   6.716
 2991POPC   C3B41421  34.049  34.910   7.119
 2991POPC   C4B41422  33.847  34.857   7.570
 2992POPC   NC341423  44.272  30.851   5.472
 2992POPC   PO441424  44.828  30.416   5.322
 2992POPC   GL141425  44.771  30.649   5.711
 2992POPC   GL241426  44.455  30.720   5.939
 2992POPC   C1A41427  44.945  30.658   6.127
 2992POPC   D2A41428  44.658  30.686   6.475
 2992POPC   C3A41429  44.749  30.961   6.808
 2992POPC   C4A41430  44.670  30.991   7.230
 2992POPC   C1B41431  44.172  30.551   6.296
 2992POPC   C2B41432  44.037  30.496   6.747
 2992POPC   C3B41433  44.195  30.516   7.183
 2992POPC   C4B41434  44.092  30.475   7.662
 2993POPC   NC341435  44.484  40.562   5.334
 2993POPC   PO441436  44.846  41.210   5.420
 2993POPC   GL141437  44.636  41.006   5.820
 2993POPC   GL241438  44.631  40.654   5.815
 2993POPC   C1A41439  44.837  40.852   6.239
 2993POPC   D2A41440  44.944  40.892   6.650
 2993POPC   C3A41441  44.603  40.976   6.839
 2993POPC   C4A41442  44.588  40.870   7.222
 2993POPC   C1B41443  44.586  40.391   6.174
 2993POPC   C2B41444  44.590  40.500   6.581
 2993POPC   C3B41445  44.372  40.486   6.953
 2993POPC   C4B41446  44.372  40.260   7.316
 2994POPC   NC341447   1.599  34.761   5.572
 2994POPC   PO441448   1.057  34.390   5.419
 2994POPC   GL141449   1.288  34.434   5.802
 2994POPC   GL241450   1.105  34.760   5.784
 2994POPC   C1A41451   1.395  34.298   6.249
 2994POPC   D2A41452   1.195  34.254   6.691
 2994POPC   C3A41453   1.246  34.509   7.048
 2994POPC   C4A41454   0.980  34.829   7.196
 2994POPC   C1B41455   1.314  34.796   6.168
 2994POPC   C2B41456   1.390  34.728   6.594
 2994POPC   C3B41457   1.466  34.967   6.961
 2994POPC   C4B41458   1.505  34.804   7.384
 2995POPC   NC341459  41.550  39.412   5.031
 2995POPC   PO441460  41.264  39.087   5.500
 2995POPC   GL141461  41.449  39.265   5.864
 2995POPC   GL241462  41.733  39.433   5.736
 2995POPC   C1A41463  41.422  39.111   6.290
 2995POPC   D2A41464  41.456  38.938   6.709
 2995POPC   C3A41465  41.397  39.251   7.031
 2995POPC   C4A41466  41.398  39.273   7.479
 2995POPC   C1B41467  41.899  39.117   6.013
 2995POPC   C2B41468  41.904  39.128   6.466
 2995POPC   C3B41469  41.893  39.249   6.894
 2995POPC   C4B41470  41.802  39.022   7.257
 2996POPC   NC341471   8.470  12.887   5.256
 2996POPC   PO441472   7.843  12.819   5.162
 2996POPC   GL141473   8.044  12.701   5.609
 2996POPC   GL241474   8.376  12.538   5.640
 2996POPC   C1A41475   8.074  12.852   6.071
 2996POPC   D2A41476   8.330  12.849   6.473
 2996POPC   C3A41477   8.207  12.984   6.924
 2996POPC   C4A41478   8.097  12.823   7.339
 2996POPC   C1B41479   8.395  12.454   6.099
 2996POPC   C2B41480   8.597  12.428   6.522
 2996POPC   C3B41481   8.590  12.650   6.932
 2996POPC   C4B41482   8.549  12.540   7.397
 2997POPC   NC341483  12.495  12.664   5.494
 2997POPC   PO441484  12.866  13.191   5.476
 2997POPC   GL141485  12.904  12.842   5.824
 2997POPC   GL241486  12.614  12.682   5.997
 2997POPC   C1A41487  13.056  12.737   6.257
 2997POPC   D2A41488  12.830  12.675   6.650
 2997POPC   C3A41489  13.020  12.746   7.055
 2997POPC   C4A41490  12.957  13.152   7.307
 2997POPC   C1B41491  12.611  12.326   6.307
 2997POPC   C2B41492  12.640  12.203   6.745
 2997POPC   C3B41493  12.601  12.434   7.130
 2997POPC   C4B41494  12.517  12.887   7.200
 2998POPC   NC341495  19.548  18.881   5.407
 2998POPC   PO441496  19.904  19.462   5.600
 2998POPC   GL141497  19.672  19.167   5.830
 2998POPC   GL241498  19.836  18.840   5.829
 2998POPC   C1A41499  19.571  19.045   6.233
 2998POPC   D2A41500  19.460  18.853   6.603
 2998POPC   C3A41501  19.458  19.181   6.900
 2998POPC   C4A41502  19.651  19.265   7.272
 2998POPC   C1B41503  20.073  19.061   6.183
 2998POPC   C2B41504  19.922  19.071   6.624
 2998POPC   C3B41505  20.081  19.141   7.017
 2998POPC   C4B41506  20.252  19.510   7.142
 2999POPC   NC341507   9.821  28.175   5.444
 2999POPC   PO441508   9.517  28.717   5.450
 2999POPC   GL141509   9.501  28.391   5.818
 2999POPC   GL241510   9.854  28.299   5.936
 2999POPC   C1A41511   9.483  28.320   6.298
 2999POPC   D2A41512   9.634  28.585   6.650
 2999POPC   C3A41513   9.574  28.469   7.080
 2999POPC   C4A41514   9.628  28.125   7.333
 2999POPC   C1B41515   9.983  28.273   6.358
 2999POPC   C2B41516   9.848  28.115   6.758
 2999POPC   C3B41517  10.090  28.146   7.128
 2999POPC   C4B41518  10.087  28.271   7.561
 3000POPC   NC341519  16.865  28.183   5.356
 3000POPC   PO441520  16.796  28.811   5.482
 3000POPC   GL141521  16.905  28.429   5.803
 3000POPC   GL241522  16.745  28.075   5.859
 3000POPC   C1A41523  16.972  28.313   6.256
 3000POPC   D2A41524  17.020  28.489   6.698
 3000POPC   C3A41525  16.858  28.271   7.075
 3000POPC   C4A41526  16.650  27.912   7.242
 3000POPC   C1B41527  16.594  27.978   6.334
 3000POPC   C2B41528  16.436  28.102   6.799
 3000POPC   C3B41529  16.351  28.329   7.224
 3000POPC   C4B41530  16.678  28.624   7.419
 3001POPC   NC341531  27.178   8.919   5.434
 3001POPC   PO441532  27.822   9.249   5.334
 3001POPC   GL141533  27.802   8.999   5.772
 3001POPC   GL241534  27.499   8.894   5.838
 3001POPC   C1A41535  27.815   8.738   6.192
 3001POPC   D2A41536  27.757   8.961   6.573
 3001POPC   C3A41537  27.554   8.883   6.959
 3001POPC   C4A41538  27.770   8.779   7.341
 3001POPC   C1B41539  27.526   9.223   6.187
 3001POPC   C2B41540  27.365   9.311   6.609
 3001POPC   C3B41541  27.360   9.440   7.046
 3001POPC   C4B41542  27.593   9.252   7.313
 3002POPC   NC341543   1.938  41.138   5.471
 3002POPC   PO441544   2.269  40.580   5.414
 3002POPC   GL141545   2.014  40.739   5.782
 3002POPC   GL241546   2.270  40.998   5.861
 3002POPC   C1A41547   1.668  40.912   6.123
 3002POPC   D2A41548   1.567  40.792   6.589
 3002POPC   C3A41549   1.667  41.030   6.990
 3002POPC   C4A41550   1.834  40.846   7.394
 3002POPC   C1B41551   2.138  40.803   6.264
 3002POPC   C2B41552   2.047  40.942   6.643
 3002POPC   C3B41553   2.071  40.707   6.966
 3002POPC   C4B41554   2.119  40.425   7.276
 3003POPC   NC341555  12.412   4.397   5.258
 3003POPC   PO441556  11.828   4.406   5.431
 3003POPC   GL141557  11.896   4.416   5.883
 3003POPC   GL241558  12.232   4.363   5.792
 3003POPC   C1A41559  11.813   4.202   6.319
 3003POPC   D2A41560  11.765   4.045   6.773
 3003POPC   C3A41561  11.671   4.414   7.047
 3003POPC   C4A41562  11.854   4.800   6.885
 3003POPC   C1B41563  12.314   4.348   6.238
 3003POPC   C2B41564  12.278   4.212   6.685
 3003POPC   C3B41565  12.157   4.246   7.124
 3003POPC   C4B41566  11.803   3.965   7.291
 3004POPC   NC341567  36.389   5.642   5.284
 3004POPC   PO441568  35.794   5.998   5.352
 3004POPC   GL141569  36.044   6.039   5.711
 3004POPC   GL241570  36.280   5.760   5.776
 3004POPC   C1A41571  35.979   6.052   6.158
 3004POPC   D2A41572  35.717   6.228   6.481
 3004POPC   C3A41573  35.798   6.050   6.874
 3004POPC   C4A41574  36.128   5.963   7.187
 3004POPC   C1B41575  35.984   5.513   6.015
 3004POPC   C2B41576  35.973   5.349   6.444
 3004POPC   C3B41577  36.059   5.589   6.816
 3004POPC   C4B41578  36.339   5.515   7.152
 3005POPC   NC341579  19.436  27.445   5.342
 3005POPC   PO441580  19.909  27.903   5.421
 3005POPC   GL141581  19.735  27.710   5.783
 3005POPC   GL241582  19.407  27.626   5.823
 3005POPC   C1A41583  19.821  27.509   6.189
 3005POPC   D2A41584  20.146  27.531   6.501
 3005POPC   C3A41585  19.917  27.432   6.858
 3005POPC   C4A41586  19.861  27.516   7.306
 3005POPC   C1B41587  19.377  27.765   6.250
 3005POPC   C2B41588  19.286  27.937   6.690
 3005POPC   C3B41589  19.498  27.753   7.052
 3005POPC   C4B41590  19.559  27.915   7.485
 3006POPC   NC341591  40.820  12.316   5.606
 3006POPC   PO441592  40.904  12.933   5.453
 3006POPC   GL141593  40.906  13.071   5.858
 3006POPC   GL241594  40.790  12.741   5.972
 3006POPC   C1A41595  40.982  13.068   6.309
 3006POPC   D2A41596  41.008  13.007   6.747
 3006POPC   C3A41597  40.826  12.986   7.169
 3006POPC   C4A41598  40.955  13.130   7.579
 3006POPC   C1B41599  40.572  12.784   6.402
 3006POPC   C2B41600  40.449  12.908   6.833
 3006POPC   C3B41601  40.426  12.653   7.232
 3006POPC   C4B41602  40.399  12.657   7.695
 3007POPC   NC341603  14.308  20.766   5.608
 3007POPC   PO441604  14.817  20.415   5.327
 3007POPC   GL141605  14.596  20.342   5.783
 3007POPC   GL241606  14.190  20.347   5.884
 3007POPC   C1A41607  14.529  20.488   6.238
 3007POPC   D2A41608  14.367  20.663   6.642
 3007POPC   C3A41609  14.586  20.621   7.026
 3007POPC   C4A41610  14.695  20.428   7.417
 3007POPC   C1B41611  14.035  20.643   6.239
 3007POPC   C2B41612  13.952  20.966   6.560
 3007POPC   C3B41613  14.164  21.047   6.975
 3007POPC   C4B41614  14.236  20.836   7.388
 3008POPC   NC341615  36.381  22.810   5.412
 3008POPC   PO441616  35.883  22.564   5.583
 3008POPC   GL141617  36.151  22.856   5.873
 3008POPC   GL241618  36.557  22.856   5.924
 3008POPC   C1A41619  36.176  22.897   6.312
 3008POPC   D2A41620  36.405  22.682   6.616
 3008POPC   C3A41621  36.232  22.773   7.018
 3008POPC   C4A41622  36.195  22.588   7.405
 3008POPC   C1B41623  36.618  23.140   6.288
 3008POPC   C2B41624  36.398  23.198   6.709
 3008POPC   C3B41625  36.564  23.201   7.128
 3008POPC   C4B41626  36.540  23.479   7.508
 3009POPC   NC341627  40.369   6.165   5.632
 3009POPC   PO441628  39.963   5.706   5.271
 3009POPC   GL141629  40.003   5.811   5.705
 3009POPC   GL241630  39.781   5.619   5.801
 3009POPC   C1A41631  40.055   5.708   6.204
 3009POPC   D2A41632  40.099   5.918   6.599
 3009POPC   C3A41633  40.307   5.754   6.938
 3009POPC   C4A41634  40.190   5.972   7.284
 3009POPC   C1B41635  39.647   5.938   6.057
 3009POPC   C2B41636  39.627   5.798   6.521
 3009POPC   C3B41637  39.767   5.806   6.975
 3009POPC   C4B41638  39.672   5.541   7.309
 3010POPC   NC341639   6.241  18.129   5.486
 3010POPC   PO441640   6.697  18.535   5.203
 3010POPC   GL141641   6.702  18.372   5.668
 3010POPC   GL241642   6.410  18.404   5.869
 3010POPC   C1A41643   6.807  18.178   6.106
 3010POPC   D2A41644   6.689  18.194   6.592
 3010POPC   C3A41645   6.873  18.121   7.011
 3010POPC   C4A41646   6.916  18.437   7.364
 3010POPC   C1B41647   6.484  18.542   6.285
 3010POPC   C2B41648   6.295  18.516   6.681
 3010POPC   C3B41649   6.465  18.484   7.095
 3010POPC   C4B41650   6.544  18.831   7.397
 3011POPC   NC341651  14.869  25.270   5.473
 3011POPC   PO441652  15.570  25.430   5.453
 3011POPC   GL141653  15.274  25.373   5.768
 3011POPC   GL241654  15.286  25.008   5.690
 3011POPC   C1A41655  15.091  25.469   6.195
 3011POPC   D2A41656  14.911  25.589   6.622
 3011POPC   C3A41657  15.032  25.335   6.987
 3011POPC   C4A41658  15.469  25.372   7.121
 3011POPC   C1B41659  15.405  24.987   6.142
 3011POPC   C2B41660  15.276  24.916   6.599
 3011POPC   C3B41661  15.393  24.888   7.034
 3011POPC   C4B41662  15.250  25.053   7.450
 3012POPC   NC341663  41.934  15.146   5.074
 3012POPC   PO441664  41.393  15.189   5.499
 3012POPC   GL141665  41.568  14.912   5.837
 3012POPC   GL241666  41.872  14.770   5.702
 3012POPC   C1A41667  41.568  14.998   6.284
 3012POPC   D2A41668  41.434  15.304   6.605
 3012POPC   C3A41669  41.619  15.254   6.996
 3012POPC   C4A41670  41.588  15.052   7.351
 3012POPC   C1B41671  42.041  14.777   6.142
 3012POPC   C2B41672  41.930  14.737   6.564
 3012POPC   C3B41673  41.973  14.842   7.007
 3012POPC   C4B41674  41.985  14.766   7.459
 3013POPC   NC341675  16.367  19.478   5.393
 3013POPC   PO441676  15.946  18.953   5.418
 3013POPC   GL141677  16.073  19.228   5.740
 3013POPC   GL241678  15.809  19.374   5.914
 3013POPC   C1A41679  16.220  19.210   6.172
 3013POPC   D2A41680  15.918  19.197   6.515
 3013POPC   C3A41681  16.169  19.148   6.890
 3013POPC   C4A41682  16.321  18.875   7.272
 3013POPC   C1B41683  15.507  19.388   6.230
 3013POPC   C2B41684  15.529  19.541   6.636
 3013POPC   C3B41685  15.683  19.338   6.992
 3013POPC   C4B41686  15.960  19.235   7.323
 3014POPC   NC341687  28.105  24.300   5.371
 3014POPC   PO441688  28.522  24.793   5.520
 3014POPC   GL141689  28.347  24.546   5.791
 3014POPC   GL241690  28.486  24.202   5.688
 3014POPC   C1A41691  28.341  24.655   6.241
 3014POPC   D2A41692  28.097  24.578   6.626
 3014POPC   C3A41693  28.349  24.632   7.013
 3014POPC   C4A41694  28.368  24.379   7.410
 3014POPC   C1B41695  28.354  24.153   6.113
 3014POPC   C2B41696  28.579  24.254   6.498
 3014POPC   C3B41697  28.588  24.199   6.945
 3014POPC   C4B41698  28.821  24.493   7.200
 3015POPC   NC341699  11.558  24.216   5.451
 3015POPC   PO441700  11.196  24.828   5.503
 3015POPC   GL141701  11.112  24.548   5.865
 3015POPC   GL241702  11.305  24.222   5.894
 3015POPC   C1A41703  11.071  24.402   6.299
 3015POPC   D2A41704  11.256  24.684   6.567
 3015POPC   C3A41705  11.281  24.544   6.967
 3015POPC   C4A41706  11.065  24.800   7.234
 3015POPC   C1B41707  11.542  24.541   6.158
 3015POPC   C2B41708  11.750  24.539   6.575
 3015POPC   C3B41709  11.765  24.356   6.977
 3015POPC   C4B41710  11.579  24.374   7.374
 3016POPC   NC341711  42.102  19.393   5.417
 3016POPC   PO441712  42.020  18.766   5.562
 3016POPC   GL141713  42.325  18.970   5.834
 3016POPC   GL241714  42.245  19.314   5.890
 3016POPC   C1A41715  42.477  18.879   6.261
 3016POPC   D2A41716  42.290  18.831   6.693
 3016POPC   C3A41717  42.510  18.779   7.112
 3016POPC   C4A41718  42.458  18.903   7.587
 3016POPC   C1B41719  42.049  19.168   6.273
 3016POPC   C2B41720  42.052  19.301   6.696
 3016POPC   C3B41721  42.271  19.214   7.057
 3016POPC   C4B41722  42.487  19.486   7.292
 3017POPC   NC341723  24.282  42.634   5.572
 3017POPC   PO441724  24.566  42.011   5.417
 3017POPC   GL141725  24.482  42.210   5.809
 3017POPC   GL241726  24.104  42.213   5.844
 3017POPC   C1A41727  24.433  42.307   6.249
 3017POPC   D2A41728  24.661  42.222   6.628
 3017POPC   C3A41729  24.515  42.397   7.013
 3017POPC   C4A41730  24.470  42.338   7.440
 3017POPC   C1B41731  24.204  41.848   6.120
 3017POPC   C2B41732  24.341  41.713   6.530
 3017POPC   C3B41733  24.312  41.938   6.909
 3017POPC   C4B41734  24.028  42.220   7.150
 3018POPC   NC341735  12.859  19.840   5.343
 3018POPC   PO441736  13.376  20.222   5.300
 3018POPC   GL141737  13.284  19.949   5.704
 3018POPC   GL241738  12.958  19.877   5.849
 3018POPC   C1A41739  13.307  19.922   6.210
 3018POPC   D2A41740  12.994  19.910   6.576
 3018POPC   C3A41741  13.087  19.852   7.017
 3018POPC   C4A41742  13.174  20.076   7.387
 3018POPC   C1B41743  12.671  20.008   6.188
 3018POPC   C2B41744  12.608  20.253   6.597
 3018POPC   C3B41745  12.624  20.112   7.001
 3018POPC   C4B41746  12.625  19.810   7.316
 3019POPC   NC341747  42.706  33.211   5.395
 3019POPC   PO441748  42.189  32.846   5.530
 3019POPC   GL141749  42.309  33.114   5.808
 3019POPC   GL241750  41.987  33.205   5.855
 3019POPC   C1A41751  42.278  33.057   6.242
 3019POPC   D2A41752  42.511  32.914   6.560
 3019POPC   C3A41753  42.322  32.967   6.936
 3019POPC   C4A41754  42.415  32.819   7.309
 3019POPC   C1B41755  41.820  33.302   6.239
 3019POPC   C2B41756  41.998  33.245   6.651
 3019POPC   C3B41757  41.953  33.373   7.082
 3019POPC   C4B41758  42.149  33.292   7.496
 3020POPC   NC341759  10.051   9.223   5.403
 3020POPC   PO441760   9.788   8.646   5.484
 3020POPC   GL141761   9.744   9.030   5.763
 3020POPC   GL241762   9.411   9.134   5.866
 3020POPC   C1A41763   9.967   9.116   6.162
 3020POPC   D2A41764  10.181   8.958   6.545
 3020POPC   C3A41765  10.088   8.939   6.979
 3020POPC   C4A41766   9.883   8.596   7.154
 3020POPC   C1B41767   9.505   9.319   6.301
 3020POPC   C2B41768   9.733   9.256   6.731
 3020POPC   C3B41769   9.610   9.045   7.153
 3020POPC   C4B41770   9.495   9.206   7.579
 3021POPC   NC341771  17.341  19.577   5.570
 3021POPC   PO441772  16.854  20.032   5.324
 3021POPC   GL141773  16.909  19.824   5.776
 3021POPC   GL241774  16.722  19.885   6.002
 3021POPC   C1A41775  17.114  19.619   6.166
 3021POPC   D2A41776  17.121  19.740   6.557
 3021POPC   C3A41777  16.809  19.597   6.826
 3021POPC   C4A41778  16.961  19.494   7.237
 3021POPC   C1B41779  16.619  19.598   6.322
 3021POPC   C2B41780  16.274  19.558   6.568
 3021POPC   C3B41781  16.299  19.827   6.864
 3021POPC   C4B41782  16.627  19.962   7.130
 3022POPC   NC341783  16.450   6.284   5.546
 3022POPC   PO441784  16.509   5.768   5.136
 3022POPC   GL141785  16.673   5.794   5.617
 3022POPC   GL241786  16.402   5.882   5.862
 3022POPC   C1A41787  16.821   5.743   6.092
 3022POPC   D2A41788  16.897   5.676   6.549
 3022POPC   C3A41789  16.753   5.875   6.917
 3022POPC   C4A41790  16.796   5.726   7.307
 3022POPC   C1B41791  16.395   5.998   6.316
 3022POPC   C2B41792  16.394   6.198   6.734
 3022POPC   C3B41793  16.429   6.249   7.169
 3022POPC   C4B41794  16.492   6.090   7.579
 3023POPC   NC341795  44.381  30.243   5.294
 3023POPC   PO441796  44.670  29.678   5.278
 3023POPC   GL141797  44.505  29.899   5.651
 3023POPC   GL241798  44.778  30.117   5.744
 3023POPC   C1A41799  44.462  29.776   6.090
 3023POPC   D2A41800  44.789  29.826   6.402
 3023POPC   C3A41801  44.633  29.744   6.781
 3023POPC   C4A41802  44.697  29.811   7.191
 3023POPC   C1B41803  44.597  30.269   6.140
 3023POPC   C2B41804  44.460  30.207   6.574
 3023POPC   C3B41805  44.629  30.287   6.993
 3023POPC   C4B41806  44.903  30.234   7.366
 3024POPC   NC341807  17.735  12.480   5.486
 3024POPC   PO441808  17.381  12.966   5.243
 3024POPC   GL141809  17.419  12.913   5.757
 3024POPC   GL241810  17.558  12.605   5.956
 3024POPC   C1A41811  17.446  12.975   6.272
 3024POPC   D2A41812  17.396  13.085   6.742
 3024POPC   C3A41813  17.748  12.957   7.025
 3024POPC   C4A41814  17.925  12.900   7.432
 3024POPC   C1B41815  17.350  12.441   6.319
 3024POPC   C2B41816  17.504  12.580   6.712
 3024POPC   C3B41817  17.693  12.444   7.089
 3024POPC   C4B41818  17.608  12.510   7.499
 3025POPC   NC341819  12.522  38.307   5.478
 3025POPC   PO441820  13.104  38.546   5.453
 3025POPC   GL141821  12.878  38.509   5.821
 3025POPC   GL241822  12.592  38.749   5.772
 3025POPC   C1A41823  12.897  38.222   6.197
 3025POPC   D2A41824  13.151  38.136   6.604
 3025POPC   C3A41825  12.879  38.225   6.980
 3025POPC   C4A41826  12.949  38.411   7.401
 3025POPC   C1B41827  12.591  38.636   6.225
 3025POPC   C2B41828  12.917  38.590   6.558
 3025POPC   C3B41829  12.971  38.720   6.967
 3025POPC   C4B41830  12.590  38.685   7.183
 3026POPC   NC341831  44.989   8.615   5.591
 3026POPC   PO441832  44.351   8.942   5.464
 3026POPC   GL141833  44.569   8.799   5.838
 3026POPC   GL241834  44.630   9.111   6.019
 3026POPC   C1A41835  44.783   8.660   6.234
 3026POPC   D2A41836   0.090   8.685   6.608
 3026POPC   C3A41837  44.954   8.863   7.010
 3026POPC   C4A41838  44.563   9.055   7.134
 3026POPC   C1B41839  44.868   9.138   6.406
 3026POPC   C2B41840  44.883   9.335   6.796
 3026POPC   C3B41841  44.980   9.339   7.229
 3026POPC   C4B41842  44.994   9.011   7.522
 3027POPC   NC341843  42.572  23.052   5.323
 3027POPC   PO441844  43.177  22.988   5.299
 3027POPC   GL141845  42.957  22.937   5.685
 3027POPC   GL241846  43.297  22.834   5.792
 3027POPC   C1A41847  42.974  23.051   6.121
 3027POPC   D2A41848  43.185  23.036   6.518
 3027POPC   C3A41849  42.988  22.946   6.951
 3027POPC   C4A41850  43.209  23.128   7.326
 3027POPC   C1B41851  43.489  22.681   6.154
 3027POPC   C2B41852  43.366  22.577   6.564
 3027POPC   C3B41853  43.469  22.801   6.912
 3027POPC   C4B41854  43.585  22.766   7.286
 3028POPC   NC341855  37.479  34.418   5.387
 3028POPC   PO441856  38.070  34.824   5.392
 3028POPC   GL141857  37.817  34.643   5.695
 3028POPC   GL241858  37.794  34.950   5.872
 3028POPC   C1A41859  37.882  34.362   6.050
 3028POPC   D2A41860  37.779  34.289   6.491
 3028POPC   C3A41861  37.865  34.540   6.828
 3028POPC   C4A41862  37.722  34.399   7.220
 3028POPC   C1B41863  37.603  34.765   6.252
 3028POPC   C2B41864  37.374  34.704   6.637
 3028POPC   C3B41865  37.438  34.789   7.088
 3028POPC   C4B41866  37.337  34.812   7.548
 3029POPC   NC341867   7.946  35.435   5.200
 3029POPC   PO441868   8.478  35.604   5.660
 3029POPC   GL141869   8.277  35.356   5.893
 3029POPC   GL241870   7.900  35.339   5.826
 3029POPC   C1A41871   8.438  35.440   6.310
 3029POPC   D2A41872   8.394  35.665   6.668
 3029POPC   C3A41873   8.510  35.439   7.026
 3029POPC   C4A41874   8.375  35.793   7.223
 3029POPC   C1B41875   7.992  35.207   6.262
 3029POPC   C2B41876   8.070  35.261   6.686
 3029POPC   C3B41877   7.956  35.491   7.042
 3029POPC   C4B41878   8.151  35.354   7.407
 3030POPC   NC341879  41.074  24.158   5.296
 3030POPC   PO441880  40.879  24.784   5.284
 3030POPC   GL141881  40.865  24.468   5.695
 3030POPC   GL241882  40.520  24.324   5.821
 3030POPC   C1A41883  40.844  24.420   6.184
 3030POPC   D2A41884  41.025  24.224   6.553
 3030POPC   C3A41885  40.835  24.417   6.914
 3030POPC   C4A41886  40.438  24.415   7.118
 3030POPC   C1B41887  40.540  24.789   5.977
 3030POPC   C2B41888  40.660  24.944   6.409
 3030POPC   C3B41889  40.507  24.842   6.838
 3030POPC   C4B41890  40.391  24.928   7.273
 3031POPC   NC341891  15.455  27.104   5.402
 3031POPC   PO441892  15.543  26.429   5.484
 3031POPC   GL141893  15.364  26.707   5.809
 3031POPC   GL241894  15.048  26.612   6.046
 3031POPC   C1A41895  15.312  27.036   6.103
 3031POPC   D2A41896  14.928  27.046   6.356
 3031POPC   C3A41897  14.980  26.971   6.808
 3031POPC   C4A41898  14.992  26.967   7.259
 3031POPC   C1B41899  15.266  26.667   6.463
 3031POPC   C2B41900  15.165  26.478   6.858
 3031POPC   C3B41901  14.976  26.456   7.252
 3031POPC   C4B41902  14.985  26.588   7.700
 3032POPC   NC341903  22.198  12.911   5.324
 3032POPC   PO441904  22.664  12.421   5.429
 3032POPC   GL141905  22.523  12.808   5.715
 3032POPC   GL241906  22.156  12.838   5.825
 3032POPC   C1A41907  22.491  12.944   6.173
 3032POPC   D2A41908  22.356  12.719   6.553
 3032POPC   C3A41909  22.464  12.859   6.953
 3032POPC   C4A41910  22.297  12.980   7.324
 3032POPC   C1B41911  21.981  12.918   6.259
 3032POPC   C2B41912  22.077  13.103   6.684
 3032POPC   C3B41913  21.861  13.047   7.083
 3032POPC   C4B41914  21.886  13.179   7.550
 3033POPC   NC341915   3.229   7.967   5.421
 3033POPC   PO441916   2.531   7.921   5.294
 3033POPC   GL141917   2.785   7.997   5.685
 3033POPC   GL241918   2.848   8.325   5.533
 3033POPC   C1A41919   2.730   7.947   6.148
 3033POPC   D2A41920   2.497   8.120   6.475
 3033POPC   C3A41921   2.577   7.986   6.889
 3033POPC   C4A41922   2.907   7.895   7.174
 3033POPC   C1B41923   2.664   8.450   5.955
 3033POPC   C2B41924   2.706   8.603   6.398
 3033POPC   C3B41925   2.554   8.517   6.816
 3033POPC   C4B41926   2.639   8.379   7.220
 3034POPC   NC341927  40.341   5.962   5.174
 3034POPC   PO441928  40.863   6.118   5.600
 3034POPC   GL141929  40.762   5.846   5.894
 3034POPC   GL241930  40.469   5.745   5.897
 3034POPC   C1A41931  40.890   5.873   6.290
 3034POPC   D2A41932  41.052   5.903   6.680
 3034POPC   C3A41933  40.797   5.902   7.053
 3034POPC   C4A41934  41.001   5.816   7.420
 3034POPC   C1B41935  40.417   6.062   6.239
 3034POPC   C2B41936  40.564   6.091   6.633
 3034POPC   C3B41937  40.454   6.296   7.009
 3034POPC   C4B41938  40.627   6.213   7.423
 3035POPC   NC341939   4.692  36.593   5.413
 3035POPC   PO441940   5.341  36.867   5.393
 3035POPC   GL141941   5.089  36.735   5.726
 3035POPC   GL241942   4.937  37.031   5.858
 3035POPC   C1A41943   5.138  36.699   6.181
 3035POPC   D2A41944   5.148  37.092   6.447
 3035POPC   C3A41945   4.936  36.962   6.801
 3035POPC   C4A41946   5.057  36.678   7.111
 3035POPC   C1B41947   4.704  36.962   6.245
 3035POPC   C2B41948   4.491  36.705   6.585
 3035POPC   C3B41949   4.540  36.714   7.037
 3035POPC   C4B41950   4.689  37.081   7.256
 3036POPC   NC341951  32.338  44.992   5.464
 3036POPC   PO441952  32.319  44.343   5.503
 3036POPC   GL141953  32.121  44.657   5.808
 3036POPC   GL241954  32.123   0.038   5.921
 3036POPC   C1A41955  32.236  44.623   6.221
 3036POPC   D2A41956  32.324  44.256   6.450
 3036POPC   C3A41957  32.262  44.287   6.873
 3036POPC   C4A41958  32.453  44.274   7.261
 3036POPC   C1B41959  32.213   0.103   6.400
 3036POPC   C2B41960  32.153  44.795   6.753
 3036POPC   C3B41961  32.155  44.775   7.195
 3036POPC   C4B41962  31.943   0.081   7.585
 3037POPC   NC341963   3.245   4.081   5.472
 3037POPC   PO441964   3.583   4.644   5.285
 3037POPC   GL141965   3.541   4.472   5.726
 3037POPC   GL241966   3.371   4.757   5.780
 3037POPC   C1A41967   3.667   4.262   6.171
 3037POPC   D2A41968   3.844   4.174   6.585
 3037POPC   C3A41969   3.607   4.007   6.908
 3037POPC   C4A41970   3.631   4.102   7.333
 3037POPC   C1B41971   3.291   4.589   6.227
 3037POPC   C2B41972   3.400   4.467   6.663
 3037POPC   C3B41973   3.645   4.558   7.056
 3037POPC   C4B41974   3.511   4.769   7.473
 3038POPC   NC341975   0.861   7.881   5.688
 3038POPC   PO441976   1.489   8.065   5.368
 3038POPC   GL141977   1.295   8.136   5.827
 3038POPC   GL241978   1.506   8.332   6.065
 3038POPC   C1A41979   1.142   8.056   6.265
 3038POPC   D2A41980   0.947   8.283   6.593
 3038POPC   C3A41981   0.907   8.018   6.926
 3038POPC   C4A41982   0.893   8.195   7.334
 3038POPC   C1B41983   1.696   8.475   6.397
 3038POPC   C2B41984   1.520   8.524   6.761
 3038POPC   C3B41985   1.289   8.313   7.026
 3038POPC   C4B41986   1.404   8.142   7.406
 3039POPC   NC341987  33.311  34.959   5.350
 3039POPC   PO441988  33.850  35.270   5.142
 3039POPC   GL141989  34.005  35.390   5.677
 3039POPC   GL241990  33.916  35.087   5.917
 3039POPC   C1A41991  33.804  35.494   6.164
 3039POPC   D2A41992  33.927  35.413   6.595
 3039POPC   C3A41993  33.740  35.558   6.981
 3039POPC   C4A41994  33.785  35.295   7.336
 3039POPC   C1B41995  33.678  35.006   6.319
 3039POPC   C2B41996  33.642  35.010   6.795
 3039POPC   C3B41997  33.482  34.922   7.215
 3039POPC   C4B41998  33.349  34.993   7.652
 3040POPC   NC341999  44.524  42.883   5.140
 3040POPC   PO442000  44.941  43.193   5.473
 3040POPC   GL142001  44.578  43.097   5.691
 3040POPC   GL242002  44.677  43.370   5.929
 3040POPC   C1A42003  44.331  42.988   6.060
 3040POPC   D2A42004  44.441  43.140   6.454
 3040POPC   C3A42005  44.502  42.887   6.819
 3040POPC   C4A42006  44.529  43.203   7.137
 3040POPC   C1B42007  44.883  43.033   6.139
 3040POPC   C2B42008  44.941  43.000   6.550
 3040POPC   C3B42009  44.952  43.263   6.875
 3040POPC   C4B42010   0.011  43.201   7.310
 3041POPC   NC342011  33.992  34.261   5.126
 3041POPC   PO442012  33.958  33.594   5.353
 3041POPC   GL142013  33.794  33.788   5.764
 3041POPC   GL242014  33.690  34.117   5.776
 3041POPC   C1A42015  33.872  33.714   6.185
 3041POPC   D2A42016  33.727  33.467   6.501
 3041POPC   C3A42017  33.829  33.530   6.897
 3041POPC   C4A42018  33.760  33.559   7.304
 3041POPC   C1B42019  33.469  34.034   6.187
 3041POPC   C2B42020  33.596  33.939   6.627
 3041POPC   C3B42021  33.701  34.001   7.067
 3041POPC   C4B42022  33.727  34.026   7.526
 3042POPC   NC342023   2.546   2.423   5.403
 3042POPC   PO442024   3.030   3.003   5.435
 3042POPC   GL142025   2.855   2.824   5.807
 3042POPC   GL242026   2.490   2.773   5.790
 3042POPC   C1A42027   3.085   2.684   6.191
 3042POPC   D2A42028   2.927   2.775   6.598
 3042POPC   C3A42029   3.102   2.691   6.983
 3042POPC   C4A42030   2.937   2.854   7.344
 3042POPC   C1B42031   2.414   3.093   6.118
 3042POPC   C2B42032   2.445   2.949   6.546
 3042POPC   C3B42033   2.628   3.065   6.944
 3042POPC   C4B42034   2.443   3.071   7.364
 3043POPC   NC342035  17.165  26.900   5.568
 3043POPC   PO442036  16.463  26.819   5.446
 3043POPC   GL142037  16.690  26.867   5.831
 3043POPC   GL242038  16.910  26.613   5.909
 3043POPC   C1A42039  16.786  26.937   6.291
 3043POPC   D2A42040  16.821  26.710   6.699
 3043POPC   C3A42041  16.759  26.873   7.126
 3043POPC   C4A42042  16.835  26.986   7.588
 3043POPC   C1B42043  16.799  26.407   6.266
 3043POPC   C2B42044  16.503  26.311   6.571
 3043POPC   C3B42045  16.490  26.430   7.003
 3043POPC   C4B42046  16.680  26.458   7.412
 3044POPC   NC342047  43.680  41.055   5.572
 3044POPC   PO442048  43.978  41.704   5.361
 3044POPC   GL142049  44.153  41.676   5.757
 3044POPC   GL242050  44.115  41.344   5.805
 3044POPC   C1A42051  44.148  41.701   6.214
 3044POPC   D2A42052  43.883  41.838   6.566
 3044POPC   C3A42053  43.927  41.590   6.960
 3044POPC   C4A42054  44.016  41.647   7.415
 3044POPC   C1B42055  43.948  41.175   6.201
 3044POPC   C2B42056  43.737  41.289   6.566
 3044POPC   C3B42057  43.563  41.191   6.950
 3044POPC   C4B42058  43.782  41.209   7.300
 3045POPC   NC342059  30.788  40.996   5.180
 3045POPC   PO442060  30.291  40.590   5.332
 3045POPC   GL142061  30.408  40.833   5.745
 3045POPC   GL242062  30.788  40.960   5.729
 3045POPC   C1A42063  30.592  40.791   6.177
 3045POPC   D2A42064  30.821  40.718   6.571
 3045POPC   C3A42065  30.499  40.826   6.870
 3045POPC   C4A42066  30.452  40.820   7.317
 3045POPC   C1B42067  31.021  41.095   6.107
 3045POPC   C2B42068  31.137  41.174   6.527
 3045POPC   C3B42069  30.950  41.102   6.933
 3045POPC   C4B42070  30.921  41.031   7.372
 3046POPC   NC342071   1.212  30.960   5.208
 3046POPC   PO442072   1.576  30.462   5.231
 3046POPC   GL142073   1.467  30.531   5.660
 3046POPC   GL242074   1.427  30.891   5.723
 3046POPC   C1A42075   1.438  30.526   6.126
 3046POPC   D2A42076   1.513  30.689   6.547
 3046POPC   C3A42077   1.186  30.734   6.863
 3046POPC   C4A42078   0.924  30.547   7.161
 3046POPC   C1B42079   1.542  31.067   6.134
 3046POPC   C2B42080   1.527  31.208   6.541
 3046POPC   C3B42081   1.603  31.026   6.936
 3046POPC   C4B42082   1.441  31.162   7.300
 3047POPC   NC342083   1.581   3.897   5.509
 3047POPC   PO442084   1.147   3.411   5.454
 3047POPC   GL142085   1.321   3.525   5.836
 3047POPC   GL242086   1.207   3.838   5.852
 3047POPC   C1A42087   1.147   3.540   6.251
 3047POPC   D2A42088   1.149   3.326   6.610
 3047POPC   C3A42089   1.173   3.587   6.949
 3047POPC   C4A42090   1.185   3.482   7.394
 3047POPC   C1B42091   0.873   3.971   6.153
 3047POPC   C2B42092   0.743   4.069   6.597
 3047POPC   C3B42093   0.813   3.959   7.059
 3047POPC   C4B42094   1.248   3.957   7.293
 3048POPC   NC342095   7.737   0.336   5.400
 3048POPC   PO442096   8.366   0.471   5.440
 3048POPC   GL142097   8.083   0.351   5.774
 3048POPC   GL242098   7.974   0.643   5.840
 3048POPC   C1A42099   8.010   0.296   6.254
 3048POPC   D2A42100   8.012   0.386   6.719
 3048POPC   C3A42101   8.072   0.124   7.088
 3048POPC   C4A42102   8.218   0.185   7.528
 3048POPC   C1B42103   8.407   0.561   6.090
 3048POPC   C2B42104   8.474   0.509   6.534
 3048POPC   C3B42105   8.470   0.702   6.958
 3048POPC   C4B42106   8.748   1.019   7.164
 3049POPC   NC342107  26.957  42.526   5.485
 3049POPC   PO442108  27.222  41.981   5.346
 3049POPC   GL142109  27.040  42.103   5.804
 3049POPC   GL242110  26.654  42.102   5.851
 3049POPC   C1A42111  26.972  42.422   6.173
 3049POPC   D2A42112  26.687  42.544   6.557
 3049POPC   C3A42113  26.873  42.547   6.994
 3049POPC   C4A42114  26.756  42.472   7.422
 3049POPC   C1B42115  26.754  41.987   6.312
 3049POPC   C2B42116  26.931  42.101   6.717
 3049POPC   C3B42117  26.761  42.048   7.144
 3049POPC   C4B42118  26.564  41.991   7.569
 3050POPC   NC342119  42.860  36.305   5.332
 3050POPC   PO442120  43.500  36.047   5.356
 3050POPC   GL142121  43.282  36.137   5.765
 3050POPC   GL242122  42.937  36.265   5.817
 3050POPC   C1A42123  43.368  36.060   6.203
 3050POPC   D2A42124  43.391  35.854   6.585
 3050POPC   C3A42125  43.324  36.129   6.922
 3050POPC   C4A42126  43.329  35.914   7.278
 3050POPC   C1B42127  42.845  36.071   6.183
 3050POPC   C2B42128  42.952  36.134   6.579
 3050POPC   C3B42129  42.799  35.936   6.966
 3050POPC   C4B42130  42.639  36.057   7.367
 3051POPC   NC342131  41.220  31.305   5.617
 3051POPC   PO442132  41.678  31.673   5.167
 3051POPC   GL142133  41.671  31.536   5.662
 3051POPC   GL242134  41.761  31.175   5.776
 3051POPC   C1A42135  41.457  31.638   6.112
 3051POPC   D2A42136  41.252  31.283   6.345
 3051POPC   C3A42137  41.200  31.299   6.804
 3051POPC   C4A42138  41.471  31.340   7.125
 3051POPC   C1B42139  41.833  31.310   6.231
 3051POPC   C2B42140  41.660  31.557   6.607
 3051POPC   C3B42141  41.854  31.645   7.010
 3051POPC   C4B42142  41.933  31.388   7.356
 3052POPC   NC342143  13.376  36.848   4.974
 3052POPC   PO442144  13.789  36.694   5.494
 3052POPC   GL142145  13.772  37.029   5.773
 3052POPC   GL242146  13.592  36.724   5.990
 3052POPC   C1A42147  13.726  37.164   6.159
 3052POPC   D2A42148  13.617  36.883   6.469
 3052POPC   C3A42149  13.655  36.919   6.871
 3052POPC   C4A42150  13.462  37.103   7.191
 3052POPC   C1B42151  13.267  36.551   6.283
 3052POPC   C2B42152  13.183  36.528   6.727
 3052POPC   C3B42153  13.319  36.617   7.140
 3052POPC   C4B42154  13.630  36.399   7.410
 3053POPC   NC342155  37.673  21.782   5.594
 3053POPC   PO442156  37.836  22.451   5.366
 3053POPC   GL142157  37.665  22.282   5.752
 3053POPC   GL242158  37.962  22.191   5.926
 3053POPC   C1A42159  37.428  22.190   6.157
 3053POPC   D2A42160  37.602  22.214   6.589
 3053POPC   C3A42161  37.376  22.439   6.930
 3053POPC   C4A42162  37.417  22.296   7.339
 3053POPC   C1B42163  37.846  21.891   6.260
 3053POPC   C2B42164  37.814  21.771   6.687
 3053POPC   C3B42165  37.732  21.987   7.080
 3053POPC   C4B42166  37.788  22.032   7.545
 3054POPC   NC342167   7.493  13.045   5.405
 3054POPC   PO442168   7.518  12.412   5.580
 3054POPC   GL142169   7.584  12.749   5.838
 3054POPC   GL242170   7.269  12.770   5.932
 3054POPC   C1A42171   7.599  12.854   6.277
 3054POPC   D2A42172   7.845  12.876   6.598
 3054POPC   C3A42173   7.691  12.924   7.016
 3054POPC   C4A42174   7.292  12.939   7.187
 3054POPC   C1B42175   7.080  12.782   6.306
 3054POPC   C2B42176   7.058  12.629   6.670
 3054POPC   C3B42177   6.911  12.636   7.045
 3054POPC   C4B42178   7.116  12.506   7.392
 3055POPC   NC342179   0.162  32.371   5.532
 3055POPC   PO442180   0.749  32.046   5.445
 3055POPC   GL142181   0.610  32.267   5.799
 3055POPC   GL242182   0.827  32.532   5.822
 3055POPC   C1A42183   0.375  32.148   6.171
 3055POPC   D2A42184   0.438  32.124   6.599
 3055POPC   C3A42185   0.134  32.163   6.909
 3055POPC   C4A42186   0.231  32.076   7.352
 3055POPC   C1B42187   0.776  32.507   6.287
 3055POPC   C2B42188   0.781  32.457   6.753
 3055POPC   C3B42189   0.490  32.478   7.113
 3055POPC   C4B42190   0.433  32.466   7.606
 3056POPC   NC342191  40.001  41.346   5.408
 3056POPC   PO442192  40.046  42.008   5.235
 3056POPC   GL142193  39.983  41.774   5.676
 3056POPC   GL242194  40.311  41.680   5.804
 3056POPC   C1A42195  39.936  41.515   6.113
 3056POPC   D2A42196  40.044  41.665   6.541
 3056POPC   C3A42197  40.041  41.459   6.940
 3056POPC   C4A42198  39.751  41.509   7.259
 3056POPC   C1B42199  40.372  41.866   6.214
 3056POPC   C2B42200  40.512  41.781   6.660
 3056POPC   C3B42201  40.351  41.914   7.041
 3056POPC   C4B42202  40.097  41.857   7.385
 3057POPC   NC342203  38.864  19.698   5.496
 3057POPC   PO442204  39.496  19.546   5.351
 3057POPC   GL142205  39.391  19.741   5.769
 3057POPC   GL242206  39.068  19.783   5.974
 3057POPC   C1A42207  39.544  19.910   6.171
 3057POPC   D2A42208  39.661  20.038   6.614
 3057POPC   C3A42209  39.355  19.917   6.958
 3057POPC   C4A42210  39.427  19.991   7.407
 3057POPC   C1B42211  38.962  19.457   6.330
 3057POPC   C2B42212  38.908  19.564   6.783
 3057POPC   C3B42213  38.989  19.597   7.253
 3057POPC   C4B42214  38.987  19.358   7.660
 3058POPC   NC342215  38.662  20.295   5.507
 3058POPC   PO442216  38.462  20.874   5.342
 3058POPC   GL142217  38.458  20.684   5.796
 3058POPC   GL242218  38.282  20.364   5.845
 3058POPC   C1A42219  38.300  20.677   6.268
 3058POPC   D2A42220  38.521  20.765   6.676
 3058POPC   C3A42221  38.433  20.792   7.145
 3058POPC   C4A42222  38.117  20.705   7.444
 3058POPC   C1B42223  38.646  20.318   6.182
 3058POPC   C2B42224  38.815  20.209   6.620
 3058POPC   C3B42225  38.715  20.405   6.998
 3058POPC   C4B42226  38.504  20.353   7.438
 3059POPC   NC342227  21.630   4.469   5.159
 3059POPC   PO442228  21.230   4.063   5.556
 3059POPC   GL142229  21.559   4.163   5.792
 3059POPC   GL242230  21.497   4.516   5.730
 3059POPC   C1A42231  21.634   3.984   6.214
 3059POPC   D2A42232  21.359   3.979   6.571
 3059POPC   C3A42233  21.576   4.037   6.958
 3059POPC   C4A42234  21.414   4.280   7.293
 3059POPC   C1B42235  21.268   4.346   6.149
 3059POPC   C2B42236  20.978   4.353   6.469
 3059POPC   C3B42237  21.027   4.249   6.900
 3059POPC   C4B42238  20.962   4.529   7.233
 3060POPC   NC342239   9.235  25.104   5.229
 3060POPC   PO442240   8.634  25.239   5.276
 3060POPC   GL142241   8.968  25.282   5.660
 3060POPC   GL242242   9.332  25.360   5.653
 3060POPC   C1A42243   9.140  25.209   6.131
 3060POPC   D2A42244   9.237  25.059   6.595
 3060POPC   C3A42245   9.125  25.176   7.080
 3060POPC   C4A42246   9.236  25.094   7.565
 3060POPC   C1B42247   9.501  25.555   6.034
 3060POPC   C2B42248   9.404  25.543   6.486
 3060POPC   C3B42249   9.559  25.351   6.857
 3060POPC   C4B42250   9.543  25.387   7.293
 3061POPC   NC342251  44.304  21.140   5.480
 3061POPC   PO442252  44.927  21.442   5.478
 3061POPC   GL142253  44.840  21.473   5.902
 3061POPC   GL242254  44.505  21.465   5.826
 3061POPC   C1A42255  44.765  21.199   6.278
 3061POPC   D2A42256  44.572  21.236   6.707
 3061POPC   C3A42257  44.651  21.128   7.142
 3061POPC   C4A42258  44.477  21.320   7.549
 3061POPC   C1B42259  44.351  21.521   6.212
 3061POPC   C2B42260  44.398  21.695   6.573
 3061POPC   C3B42261  44.296  21.619   6.985
 3061POPC   C4B42262  44.424  21.780   7.359
 3062POPC   NC342263  23.702  38.907   5.294
 3062POPC   PO442264  23.558  38.346   5.172
 3062POPC   GL142265  23.530  38.455   5.644
 3062POPC   GL242266  23.257  38.262   5.808
 3062POPC   C1A42267  23.524  38.612   6.112
 3062POPC   D2A42268  23.741  38.403   6.490
 3062POPC   C3A42269  23.820  38.523   6.946
 3062POPC   C4A42270  24.017  38.787   7.314
 3062POPC   C1B42271  23.307  38.175   6.249
 3062POPC   C2B42272  23.235  38.420   6.630
 3062POPC   C3B42273  23.326  38.441   7.061
 3062POPC   C4B42274  23.341  38.317   7.531
 3063POPC   NC342275  23.462   3.764   5.403
 3063POPC   PO442276  23.870   3.245   5.196
 3063POPC   GL142277  24.017   3.480   5.643
 3063POPC   GL242278  23.644   3.545   5.836
 3063POPC   C1A42279  24.084   3.602   6.115
 3063POPC   D2A42280  23.934   3.795   6.510
 3063POPC   C3A42281  23.971   3.540   6.899
 3063POPC   C4A42282  23.744   3.727   7.204
 3063POPC   C1B42283  23.478   3.568   6.227
 3063POPC   C2B42284  23.663   3.333   6.540
 3063POPC   C3B42285  23.522   3.269   6.951
 3063POPC   C4B42286  23.593   3.275   7.362
 3064POPC   NC342287   5.512   7.951   5.499
 3064POPC   PO442288   5.862   8.505   5.363
 3064POPC   GL142289   5.933   8.248   5.717
 3064POPC   GL242290   5.616   8.317   5.822
 3064POPC   C1A42291   6.115   8.114   6.136
 3064POPC   D2A42292   5.871   8.051   6.530
 3064POPC   C3A42293   6.068   7.938   6.895
 3064POPC   C4A42294   6.086   8.177   7.252
 3064POPC   C1B42295   5.508   8.256   6.224
 3064POPC   C2B42296   5.478   8.418   6.625
 3064POPC   C3B42297   5.619   8.226   7.002
 3064POPC   C4B42298   5.381   8.355   7.347
 3065POPC   NC342299   3.689  37.938   5.377
 3065POPC   PO442300   3.485  37.305   5.273
 3065POPC   GL142301   3.463  37.531   5.683
 3065POPC   GL242302   3.195  37.810   5.666
 3065POPC   C1A42303   3.549  37.524   6.165
 3065POPC   D2A42304   3.362  37.462   6.622
 3065POPC   C3A42305   3.629  37.645   6.980
 3065POPC   C4A42306   3.963  37.745   7.313
 3065POPC   C1B42307   3.116  37.782   6.124
 3065POPC   C2B42308   3.165  38.008   6.540
 3065POPC   C3B42309   3.130  37.834   6.973
 3065POPC   C4B42310   3.190  37.404   7.173
 3066POPC   NC342311  22.898  34.061   5.502
 3066POPC   PO442312  23.129  33.506   5.385
 3066POPC   GL142313  22.797  33.578   5.685
 3066POPC   GL242314  23.069  33.746   5.843
 3066POPC   C1A42315  22.675  33.700   6.120
 3066POPC   D2A42316  22.671  33.502   6.498
 3066POPC   C3A42317  22.753  33.663   6.885
 3066POPC   C4A42318  22.524  33.677   7.229
 3066POPC   C1B42319  23.172  33.917   6.252
 3066POPC   C2B42320  23.053  34.017   6.664
 3066POPC   C3B42321  23.210  33.863   7.059
 3066POPC   C4B42322  22.937  34.021   7.351
 3067POPC   NC342323  40.588  20.252   5.596
 3067POPC   PO442324  40.949  19.695   5.442
 3067POPC   GL142325  40.752  19.789   5.796
 3067POPC   GL242326  40.538  19.537   5.840
 3067POPC   C1A42327  40.868  19.796   6.212
 3067POPC   D2A42328  40.967  20.104   6.514
 3067POPC   C3A42329  40.755  19.914   6.862
 3067POPC   C4A42330  40.785  19.705   7.276
 3067POPC   C1B42331  40.369  19.698   6.176
 3067POPC   C2B42332  40.455  19.607   6.562
 3067POPC   C3B42333  40.401  19.549   6.974
 3067POPC   C4B42334  40.610  19.233   7.231
 3068POPC   NC342335   0.272   5.505   5.443
 3068POPC   PO442336   0.389   6.129   5.374
 3068POPC   GL142337   0.482   5.927   5.745
 3068POPC   GL242338   0.667   5.635   5.729
 3068POPC   C1A42339   0.530   5.976   6.190
 3068POPC   D2A42340   0.344   5.797   6.556
 3068POPC   C3A42341   0.531   5.934   6.891
 3068POPC   C4A42342   0.562   6.194   7.195
 3068POPC   C1B42343   0.492   5.476   6.142
 3068POPC   C2B42344   0.424   5.289   6.588
 3068POPC   C3B42345   0.406   5.446   7.011
 3068POPC   C4B42346   0.555   5.693   7.360
 3069POPC   NC342347  12.263  21.327   4.828
 3069POPC   PO442348  11.852  21.481   5.333
 3069POPC   GL142349  11.829  21.538   5.735
 3069POPC   GL242350  12.049  21.303   5.869
 3069POPC   C1A42351  11.701  21.742   6.107
 3069POPC   D2A42352  11.874  21.859   6.499
 3069POPC   C3A42353  11.901  21.502   6.738
 3069POPC   C4A42354  11.902  21.434   7.153
 3069POPC   C1B42355  12.154  21.493   6.265
 3069POPC   C2B42356  12.363  21.298   6.610
 3069POPC   C3B42357  12.325  21.112   7.003
 3069POPC   C4B42358  12.478  21.241   7.394
 3070POPC   NC342359  27.075  29.380   5.663
 3070POPC   PO442360  26.631  28.888   5.415
 3070POPC   GL142361  26.543  29.014   5.803
 3070POPC   GL242362  26.413  28.705   5.902
 3070POPC   C1A42363  26.717  28.989   6.234
 3070POPC   D2A42364  27.017  29.072   6.537
 3070POPC   C3A42365  26.751  29.258   6.822
 3070POPC   C4A42366  26.744  29.241   7.247
 3070POPC   C1B42367  26.296  28.706   6.335
 3070POPC   C2B42368  26.575  28.770   6.698
 3070POPC   C3B42369  26.501  28.818   7.135
 3070POPC   C4B42370  26.507  28.833   7.597
 3071POPC   NC342371  18.611  16.621   5.301
 3071POPC   PO442372  17.961  16.862   5.422
 3071POPC   GL142373  18.288  16.683   5.717
 3071POPC   GL242374  18.047  16.623   5.937
 3071POPC   C1A42375  18.474  16.804   6.133
 3071POPC   D2A42376  18.176  16.834   6.437
 3071POPC   C3A42377  18.277  16.815   6.868
 3071POPC   C4A42378  18.652  16.712   7.062
 3071POPC   C1B42379  17.917  16.383   6.265
 3071POPC   C2B42380  17.993  16.418   6.684
 3071POPC   C3B42381  17.933  16.525   7.120
 3071POPC   C4B42382  18.074  16.732   7.510
 3072POPC   NC342383  24.738  32.112   5.381
 3072POPC   PO442384  24.153  32.294   5.203
 3072POPC   GL142385  24.316  32.129   5.688
 3072POPC   GL242386  24.039  32.138   5.978
 3072POPC   C1A42387  24.478  32.001   6.143
 3072POPC   D2A42388  24.240  32.025   6.561
 3072POPC   C3A42389  24.478  32.073   6.956
 3072POPC   C4A42390  24.725  32.301   7.249
 3072POPC   C1B42391  24.298  32.470   6.125
 3072POPC   C2B42392  24.544  32.450   6.485
 3072POPC   C3B42393  24.454  32.583   6.916
 3072POPC   C4B42394  24.473  32.805   7.300
 3073POPC   NC342395  37.366  28.587   5.457
 3073POPC   PO442396  37.900  28.121   5.491
 3073POPC   GL142397  37.751  28.408   5.798
 3073POPC   GL242398  37.457  28.510   5.935
 3073POPC   C1A42399  37.847  28.475   6.255
 3073POPC   D2A42400  38.120  28.229   6.538
 3073POPC   C3A42401  38.028  28.255   7.006
 3073POPC   C4A42402  37.795  28.604   7.148
 3073POPC   C1B42403  37.429  28.127   6.149
 3073POPC   C2B42404  37.639  28.049   6.531
 3073POPC   C3B42405  37.494  28.098   6.945
 3073POPC   C4B42406  37.139  28.141   7.239
 3074POPC   NC342407  24.693  24.932   5.480
 3074POPC   PO442408  24.206  24.457   5.293
 3074POPC   GL142409  24.300  24.682   5.682
 3074POPC   GL242410  24.349  24.395   5.867
 3074POPC   C1A42411  24.373  24.806   6.158
 3074POPC   D2A42412  24.679  24.605   6.445
 3074POPC   C3A42413  24.875  24.707   6.846
 3074POPC   C4A42414  24.852  24.580   7.313
 3074POPC   C1B42415  24.177  24.339   6.266
 3074POPC   C2B42416  24.192  24.609   6.634
 3074POPC   C3B42417  24.435  24.544   7.007
 3074POPC   C4B42418  24.371  24.459   7.432
 3075POPC   NC342419  29.494   9.408   5.268
 3075POPC   PO442420  28.920   9.834   5.168
 3075POPC   GL142421  29.228   9.737   5.583
 3075POPC   GL242422  29.383   9.398   5.771
 3075POPC   C1A42423  29.229   9.794   6.052
 3075POPC   D2A42424  29.005   9.550   6.364
 3075POPC   C3A42425  29.081   9.648   6.807
 3075POPC   C4A42426  28.919   9.717   7.208
 3075POPC   C1B42427  29.352   9.179   6.198
 3075POPC   C2B42428  29.237   9.174   6.655
 3075POPC   C3B42429  29.286   9.241   7.089
 3075POPC   C4B42430  29.368   9.548   7.371
 3076POPC   NC342431  11.513   9.573   5.426
 3076POPC   PO442432  10.945   9.989   5.425
 3076POPC   GL142433  11.301  10.097   5.761
 3076POPC   GL242434  11.610   9.866   5.878
 3076POPC   C1A42435  11.267   9.996   6.219
 3076POPC   D2A42436  11.380   9.697   6.552
 3076POPC   C3A42437  11.582   9.948   6.886
 3076POPC   C4A42438  11.350  10.053   7.232
 3076POPC   C1B42439  11.657   9.473   6.151
 3076POPC   C2B42440  11.661   9.213   6.536
 3076POPC   C3B42441  11.458   9.310   6.909
 3076POPC   C4B42442  11.524   9.558   7.244
 3077POPC   NC342443  43.508  41.946   5.340
 3077POPC   PO442444  43.245  41.278   5.289
 3077POPC   GL142445  43.316  41.398   5.713
 3077POPC   GL242446  43.632  41.580   5.718
 3077POPC   C1A42447  43.193  41.351   6.156
 3077POPC   D2A42448  43.223  41.142   6.553
 3077POPC   C3A42449  43.078  41.373   6.897
 3077POPC   C4A42450  42.896  41.304   7.267
 3077POPC   C1B42451  43.639  41.617   6.162
 3077POPC   C2B42452  43.395  41.676   6.559
 3077POPC   C3B42453  43.441  41.743   7.008
 3077POPC   C4B42454  43.362  41.493   7.372
 3078POPC   NC342455   8.125  16.821   5.156
 3078POPC   PO442456   8.652  16.718   5.383
 3078POPC   GL142457   8.389  16.770   5.778
 3078POPC   GL242458   8.002  16.791   5.751
 3078POPC   C1A42459   8.228  16.569   6.176
 3078POPC   D2A42460   7.956  16.459   6.546
 3078POPC   C3A42461   8.069  16.596   7.006
 3078POPC   C4A42462   8.203  16.973   7.284
 3078POPC   C1B42463   7.737  16.765   6.167
 3078POPC   C2B42464   7.708  16.903   6.638
 3078POPC   C3B42465   7.698  16.947   7.108
 3078POPC   C4B42466   7.801  16.761   7.534
 3079POPC   NC342467  29.697  20.749   5.054
 3079POPC   PO442468  30.291  20.462   5.282
 3079POPC   GL142469  30.141  20.695   5.696
 3079POPC   GL242470  29.760  20.732   5.721
 3079POPC   C1A42471  30.087  20.707   6.165
 3079POPC   D2A42472  29.807  20.646   6.535
 3079POPC   C3A42473  29.652  20.815   6.962
 3079POPC   C4A42474  29.775  20.676   7.417
 3079POPC   C1B42475  29.484  20.661   6.137
 3079POPC   C2B42476  29.351  20.456   6.594
 3079POPC   C3B42477  29.495  20.320   7.029
 3079POPC   C4B42478  29.336  20.471   7.445
 3080POPC   NC342479  27.353   7.331   5.498
 3080POPC   PO442480  28.047   7.594   5.517
 3080POPC   GL142481  27.856   7.640   5.899
 3080POPC   GL242482  27.658   7.355   5.913
 3080POPC   C1A42483  27.818   7.736   6.344
 3080POPC   D2A42484  27.630   7.884   6.748
 3080POPC   C3A42485  27.799   7.611   7.077
 3080POPC   C4A42486  27.766   7.444   7.496
 3080POPC   C1B42487  27.494   7.264   6.301
 3080POPC   C2B42488  27.568   7.355   6.698
 3080POPC   C3B42489  27.392   7.291   7.076
 3080POPC   C4B42490  27.448   6.976   7.316
 3081POPC   NC342491   7.729  14.098   5.166
 3081POPC   PO442492   7.430  13.502   5.326
 3081POPC   GL142493   7.553  13.533   5.737
 3081POPC   GL242494   7.409  13.249   5.862
 3081POPC   C1A42495   7.431  13.726   6.123
 3081POPC   D2A42496   7.338  13.685   6.550
 3081POPC   C3A42497   7.563  13.825   6.924
 3081POPC   C4A42498   7.302  13.900   7.285
 3081POPC   C1B42499   7.262  13.253   6.256
 3081POPC   C2B42500   7.434  13.195   6.655
 3081POPC   C3B42501   7.261  13.423   7.000
 3081POPC   C4B42502   7.490  13.411   7.355
 3082POPC   NC342503  34.274  31.396   5.477
 3082POPC   PO442504  35.024  31.309   5.596
 3082POPC   GL142505  34.699  31.575   5.748
 3082POPC   GL242506  34.460  31.342   5.942
 3082POPC   C1A42507  34.673  31.754   6.168
 3082POPC   D2A42508  34.509  31.532   6.533
 3082POPC   C3A42509  34.739  31.577   6.932
 3082POPC   C4A42510  34.558  31.455   7.317
 3082POPC   C1B42511  34.165  31.231   6.268
 3082POPC   C2B42512  34.030  31.253   6.691
 3082POPC   C3B42513  34.277  31.124   7.017
 3082POPC   C4B42514  34.233  31.037   7.439
 3083POPC   NC342515   0.721  25.880   5.426
 3083POPC   PO442516   1.403  25.992   5.393
 3083POPC   GL142517   1.153  25.974   5.747
 3083POPC   GL242518   1.182  26.333   5.773
 3083POPC   C1A42519   1.038  26.072   6.178
 3083POPC   D2A42520   1.233  26.236   6.545
 3083POPC   C3A42521   1.164  26.008   6.947
 3083POPC   C4A42522   0.910  25.717   7.201
 3083POPC   C1B42523   1.469  26.448   6.129
 3083POPC   C2B42524   1.717  26.449   6.528
 3083POPC   C3B42525   1.528  26.381   6.945
 3083POPC   C4B42526   1.371  26.229   7.352
 3084POPC   NC342527  29.536   8.435   5.495
 3084POPC   PO442528  30.112   8.421   5.342
 3084POPC   GL142529  29.947   8.180   5.670
 3084POPC   GL242530  29.887   8.488   5.849
 3084POPC   C1A42531  29.713   8.043   6.059
 3084POPC   D2A42532  29.653   8.179   6.510
 3084POPC   C3A42533  29.857   7.980   6.861
 3084POPC   C4A42534  30.226   7.927   7.147
 3084POPC   C1B42535  29.566   8.566   6.181
 3084POPC   C2B42536  29.584   8.676   6.649
 3084POPC   C3B42537  29.844   8.470   6.998
 3084POPC   C4B42538  29.692   8.153   7.323
 3085POPC   NC342539  33.700   4.240   5.306
 3085POPC   PO442540  34.086   4.576   5.603
 3085POPC   GL142541  33.837   4.324   5.801
 3085POPC   GL242542  33.564   4.528   5.770
 3085POPC   C1A42543  33.733   4.217   6.187
 3085POPC   D2A42544  33.782   4.452   6.524
 3085POPC   C3A42545  34.025   4.301   6.882
 3085POPC   C4A42546  34.111   4.090   7.263
 3085POPC   C1B42547  33.374   4.580   6.189
 3085POPC   C2B42548  33.230   4.361   6.505
 3085POPC   C3B42549  33.442   4.411   6.881
 3085POPC   C4B42550  33.654   4.369   7.265
 3086POPC   NC342551  27.106  27.033   5.061
 3086POPC   PO442552  26.807  27.153   5.671
 3086POPC   GL142553  26.941  26.927   5.986
 3086POPC   GL242554  27.161  27.206   6.037
 3086POPC   C1A42555  26.953  26.860   6.377
 3086POPC   D2A42556  26.673  26.951   6.649
 3086POPC   C3A42557  26.811  26.730   6.938
 3086POPC   C4A42558  26.791  26.900   7.256
 3086POPC   C1B42559  27.423  27.071   6.333
 3086POPC   C2B42560  27.359  26.921   6.710
 3086POPC   C3B42561  27.249  26.971   7.082
 3086POPC   C4B42562  27.253  26.684   7.389
 3087POPC   NC342563  33.563  33.869   5.319
 3087POPC   PO442564  32.961  33.527   5.409
 3087POPC   GL142565  33.292  33.617   5.690
 3087POPC   GL242566  33.215  33.949   5.706
 3087POPC   C1A42567  33.402  33.506   6.103
 3087POPC   D2A42568  33.231  33.351   6.474
 3087POPC   C3A42569  33.324  33.530   6.873
 3087POPC   C4A42570  33.055  33.576   7.226
 3087POPC   C1B42571  33.007  33.830   6.093
 3087POPC   C2B42572  33.086  33.863   6.535
 3087POPC   C3B42573  33.200  34.016   6.948
 3087POPC   C4B42574  33.255  34.072   7.376
 3088POPC   NC342575  25.188  26.230   5.306
 3088POPC   PO442576  25.657  25.825   5.431
 3088POPC   GL142577  25.410  26.025   5.762
 3088POPC   GL242578  25.028  26.121   5.775
 3088POPC   C1A42579  25.281  25.876   6.178
 3088POPC   D2A42580  25.460  26.012   6.566
 3088POPC   C3A42581  25.242  26.010   6.942
 3088POPC   C4A42582  25.296  25.795   7.305
 3088POPC   C1B42583  24.929  26.246   6.195
 3088POPC   C2B42584  25.091  26.386   6.592
 3088POPC   C3B42585  24.856  26.381   7.005
 3088POPC   C4B42586  25.043  26.228   7.378
 3089POPC   NC342587   1.130   2.408   5.561
 3089POPC   PO442588   1.502   1.869   5.355
 3089POPC   GL142589   1.307   1.952   5.756
 3089POPC   GL242590   0.933   1.881   5.715
 3089POPC   C1A42591   1.459   2.001   6.189
 3089POPC   D2A42592   1.693   1.918   6.584
 3089POPC   C3A42593   1.497   1.993   6.950
 3089POPC   C4A42594   1.485   2.205   7.348
 3089POPC   C1B42595   0.997   1.758   6.144
 3089POPC   C2B42596   1.140   1.814   6.567
 3089POPC   C3B42597   0.998   2.024   6.932
 3089POPC   C4B42598   1.107   1.857   7.333
 3090POPC   NC342599  10.991  36.630   4.985
 3090POPC   PO442600  10.519  36.930   5.460
 3090POPC   GL142601  10.560  36.756   5.846
 3090POPC   GL242602  10.198  36.759   5.891
 3090POPC   C1A42603  10.495  36.571   6.253
 3090POPC   D2A42604  10.486  36.770   6.628
 3090POPC   C3A42605  10.361  36.582   7.010
 3090POPC   C4A42606  10.557  36.739   7.411
 3090POPC   C1B42607  10.147  37.011   6.276
 3090POPC   C2B42608  10.259  37.232   6.619
 3090POPC   C3B42609  10.357  37.102   7.016
 3090POPC   C4B42610  10.005  37.114   7.251
 3091POPC   NC342611   5.799   3.834   5.606
 3091POPC   PO442612   6.253   3.550   5.191
 3091POPC   GL142613   6.042   3.403   5.709
 3091POPC   GL242614   5.924   3.094   5.808
 3091POPC   C1A42615   5.978   3.500   6.183
 3091POPC   D2A42616   5.959   3.690   6.606
 3091POPC   C3A42617   5.568   3.723   6.828
 3091POPC   C4A42618   5.553   3.976   7.188
 3091POPC   C1B42619   5.596   3.157   6.167
 3091POPC   C2B42620   5.560   3.210   6.627
 3091POPC   C3B42621   5.865   3.298   6.945
 3091POPC   C4B42622   5.996   3.651   7.198
 3092POPC   NC342623  41.292  30.089   5.631
 3092POPC   PO442624  41.801  29.652   5.543
 3092POPC   GL142625  41.741  29.905   5.903
 3092POPC   GL242626  42.007  30.168   5.823
 3092POPC   C1A42627  41.437  29.875   6.277
 3092POPC   D2A42628  41.088  29.758   6.577
 3092POPC   C3A42629  41.242  29.819   6.986
 3092POPC   C4A42630  41.525  30.117   7.054
 3092POPC   C1B42631  42.084  30.099   6.254
 3092POPC   C2B42632  41.805  30.093   6.609
 3092POPC   C3B42633  41.997  30.307   6.958
 3092POPC   C4B42634  41.925  30.166   7.371
 3093POPC   NC342635  22.711  23.726   5.147
 3093POPC   PO442636  23.324  23.949   5.452
 3093POPC   GL142637  23.064  24.041   5.855
 3093POPC   GL242638  22.694  24.070   5.706
 3093POPC   C1A42639  23.168  23.988   6.328
 3093POPC   D2A42640  23.507  23.858   6.634
 3093POPC   C3A42641  23.380  23.734   7.043
 3093POPC   C4A42642  23.143  23.450   7.302
 3093POPC   C1B42643  22.650  23.827   6.092
 3093POPC   C2B42644  22.577  23.857   6.544
 3093POPC   C3B42645  22.559  23.834   6.995
 3093POPC   C4B42646  22.946  23.944   7.216
 3094POPC   NC342647  11.321  44.495   5.468
 3094POPC   PO442648  11.628   0.131   5.440
 3094POPC   GL142649  11.396  44.958   5.835
 3094POPC   GL242650  11.346  44.619   5.958
 3094POPC   C1A42651  11.061   0.003   6.201
 3094POPC   D2A42652  11.072   0.055   6.649
 3094POPC   C3A42653  11.276  44.775   6.906
 3094POPC   C4A42654  11.269  44.775   7.327
 3094POPC   C1B42655  11.407  44.674   6.408
 3094POPC   C2B42656  11.544  44.385   6.736
 3094POPC   C3B42657  11.585  44.383   7.187
 3094POPC   C4B42658  11.603  44.553   7.642
 3095POPC   NC342659   2.001  44.806   5.436
 3095POPC   PO442660   1.470  44.260   5.431
 3095POPC   GL142661   1.841  44.382   5.742
 3095POPC   GL242662   2.233  44.473   5.736
 3095POPC   C1A42663   1.887  44.601   6.152
 3095POPC   D2A42664   1.717  44.815   6.534
 3095POPC   C3A42665   1.921  44.603   6.892
 3095POPC   C4A42666   1.675  44.579   7.247
 3095POPC   C1B42667   2.355  44.781   6.073
 3095POPC   C2B42668   2.240  44.818   6.517
 3095POPC   C3B42669   2.266  44.993   6.938
 3095POPC   C4B42670   2.125  44.839   7.329
 3096POPC   NC342671  43.298   3.201   5.296
 3096POPC   PO442672  43.032   3.835   5.452
 3096POPC   GL142673  43.297   3.730   5.817
 3096POPC   GL242674  43.277   3.369   5.787
 3096POPC   C1A42675  43.260   3.621   6.281
 3096POPC   D2A42676  42.994   3.489   6.631
 3096POPC   C3A42677  43.112   3.656   7.021
 3096POPC   C4A42678  42.857   3.855   7.296
 3096POPC   C1B42679  43.093   3.155   6.151
 3096POPC   C2B42680  43.281   3.057   6.549
 3096POPC   C3B42681  43.218   3.143   6.992
 3096POPC   C4B42682  42.797   3.299   7.226
 3097POPC   NC342683  34.978  32.691   5.481
 3097POPC   PO442684  35.449  33.146   5.471
 3097POPC   GL142685  35.322  32.967   5.808
 3097POPC   GL242686  34.998  33.061   5.828
 3097POPC   C1A42687  35.259  32.778   6.205
 3097POPC   D2A42688  35.038  32.882   6.570
 3097POPC   C3A42689  35.301  32.789   6.925
 3097POPC   C4A42690  35.510  32.897   7.304
 3097POPC   C1B42691  35.121  33.273   6.197
 3097POPC   C2B42692  35.165  33.367   6.628
 3097POPC   C3B42693  35.185  33.276   7.057
 3097POPC   C4B42694  34.983  32.954   7.295
 3098POPC   NC342695  43.802  17.989   5.418
 3098POPC   PO442696  43.686  18.666   5.403
 3098POPC   GL142697  43.838  18.629   5.828
 3098POPC   GL242698  43.970  18.303   5.834
 3098POPC   C1A42699  43.844  18.527   6.284
 3098POPC   D2A42700  43.849  18.152   6.544
 3098POPC   C3A42701  43.987  18.279   6.960
 3098POPC   C4A42702  43.829  18.097   7.364
 3098POPC   C1B42703  44.208  18.085   6.137
 3098POPC   C2B42704  44.355  18.173   6.530
 3098POPC   C3B42705  44.445  17.995   6.893
 3098POPC   C4B42706  44.333  18.131   7.299
 3099POPC   NC342707  15.002   0.188   5.407
 3099POPC   PO442708  15.586   0.543   5.407
 3099POPC   GL142709  15.304   0.554   5.790
 3099POPC   GL242710  15.058   0.303   5.895
 3099POPC   C1A42711  15.382   0.609   6.256
 3099POPC   D2A42712  15.369   0.425   6.701
 3099POPC   C3A42713  15.597   0.535   7.107
 3099POPC   C4A42714  15.556   0.593   7.589
 3099POPC   C1B42715  14.913   0.346   6.317
 3099POPC   C2B42716  14.922   0.148   6.723
 3099POPC   C3B42717  14.850   0.281   7.152
 3099POPC   C4B42718  14.803   0.099   7.603
 3100POPC   NC342719  22.137  43.661   5.355
 3100POPC   PO442720  21.949  44.308   5.510
 3100POPC   GL142721  21.888  43.968   5.795
 3100POPC   GL242722  22.239  43.950   5.784
 3100POPC   C1A42723  21.921  43.712   6.186
 3100POPC   D2A42724  21.827  43.513   6.616
 3100POPC   C3A42725  21.867  43.835   6.952
 3100POPC   C4A42726  22.140  44.161   7.115
 3100POPC   C1B42727  22.412  43.967   6.194
 3100POPC   C2B42728  22.268  43.902   6.628
 3100POPC   C3B42729  22.483  43.796   7.041
 3100POPC   C4B42730  22.474  43.744   7.508
 3101POPC   NC342731   1.198   7.614   5.301
 3101POPC   PO442732   1.342   7.140   5.717
 3101POPC   GL142733   1.023   7.389   5.823
 3101POPC   GL242734   1.272   7.639   5.844
 3101POPC   C1A42735   1.021   7.424   6.269
 3101POPC   D2A42736   1.388   7.198   6.479
 3101POPC   C3A42737   1.310   7.230   6.904
 3101POPC   C4A42738   0.915   7.441   6.930
 3101POPC   C1B42739   1.498   7.661   6.222
 3101POPC   C2B42740   1.297   7.683   6.632
 3101POPC   C3B42741   1.356   7.744   7.058
 3101POPC   C4B42742   1.027   7.721   7.335
 3102POPC   NC342743  39.672  42.271   5.223
 3102POPC   PO442744  40.291  42.584   5.389
 3102POPC   GL142745  40.235  42.386   5.767
 3102POPC   GL242746  39.889  42.278   5.718
 3102POPC   C1A42747  40.166  42.389   6.221
 3102POPC   D2A42748  40.252  42.201   6.604
 3102POPC   C3A42749  40.109  42.388   6.961
 3102POPC   C4A42750  39.674  42.486   6.887
 3102POPC   C1B42751  39.839  42.017   6.105
 3102POPC   C2B42752  39.741  42.077   6.539
 3102POPC   C3B42753  39.803  41.959   6.960
 3102POPC   C4B42754  39.765  42.233   7.329
 3103POPC   NC342755  18.510   0.301   5.372
 3103POPC   PO442756  18.214   0.897   5.476
 3103POPC   GL142757  18.365   0.632   5.806
 3103POPC   GL242758  18.577   0.337   5.865
 3103POPC   C1A42759  18.343   0.577   6.258
 3103POPC   D2A42760  18.133   0.505   6.651
 3103POPC   C3A42761  18.248   0.725   7.025
 3103POPC   C4A42762  18.260   0.495   7.402
 3103POPC   C1B42763  18.784   0.303   6.257
 3103POPC   C2B42764  18.608   0.299   6.661
 3103POPC   C3B42765  18.666   0.429   7.065
 3103POPC   C4B42766  18.815   0.173   7.374
 3104POPC   NC342767  38.153  22.105   5.434
 3104POPC   PO442768  38.793  21.997   5.362
 3104POPC   GL142769  38.555  22.028   5.772
 3104POPC   GL242770  38.477  22.390   5.843
 3104POPC   C1A42771  38.367  22.047   6.194
 3104POPC   D2A42772  38.116  22.252   6.486
 3104POPC   C3A42773  38.183  22.085   6.859
 3104POPC   C4A42774  38.221  22.071   7.285
 3104POPC   C1B42775  38.625  22.481   6.294
 3104POPC   C2B42776  38.511  22.476   6.757
 3104POPC   C3B42777  38.451  22.539   7.211
 3104POPC   C4B42778  38.689  22.564   7.620
 3105POPC   NC342779  32.460  13.494   5.347
 3105POPC   PO442780  31.826  13.676   5.474
 3105POPC   GL142781  32.054  13.418   5.813
 3105POPC   GL242782  32.420  13.432   5.858
 3105POPC   C1A42783  32.057  13.307   6.239
 3105POPC   D2A42784  32.245  13.424   6.653
 3105POPC   C3A42785  31.983  13.483   7.036
 3105POPC   C4A42786  31.734  13.856   7.199
 3105POPC   C1B42787  32.577  13.226   6.257
 3105POPC   C2B42788  32.671  13.162   6.717
 3105POPC   C3B42789  32.541  13.408   7.104
 3105POPC   C4B42790  32.579  13.474   7.582
 3106POPC   NC342791  28.059  31.244   5.162
 3106POPC   PO442792  28.466  31.757   5.286
 3106POPC   GL142793  28.347  31.538   5.686
 3106POPC   GL242794  28.124  31.236   5.675
 3106POPC   C1A42795  28.410  31.572   6.141
 3106POPC   D2A42796  28.448  31.773   6.568
 3106POPC   C3A42797  28.444  31.625   7.016
 3106POPC   C4A42798  28.486  31.650   7.505
 3106POPC   C1B42799  28.053  31.161   6.118
 3106POPC   C2B42800  28.156  31.341   6.512
 3106POPC   C3B42801  28.083  31.261   6.922
 3106POPC   C4B42802  28.011  31.450   7.289
 3107POPC   NC342803  17.570   4.786   5.305
 3107POPC   PO442804  17.585   4.127   5.415
 3107POPC   GL142805  17.493   4.354   5.801
 3107POPC   GL242806  17.629   4.697   5.824
 3107POPC   C1A42807  17.330   4.206   6.193
 3107POPC   D2A42808  17.500   4.222   6.589
 3107POPC   C3A42809  17.301   4.291   6.938
 3107POPC   C4A42810  17.458   4.219   7.339
 3107POPC   C1B42811  17.654   4.598   6.270
 3107POPC   C2B42812  17.569   4.724   6.698
 3107POPC   C3B42813  17.665   4.640   7.112
 3107POPC   C4B42814  17.895   4.450   7.478
 3108POPC   NC342815  24.963   4.191   5.427
 3108POPC   PO442816  25.615   4.263   5.474
 3108POPC   GL142817  25.325   4.093   5.787
 3108POPC   GL242818  25.155   4.427   5.853
 3108POPC   C1A42819  25.302   4.108   6.240
 3108POPC   D2A42820  25.326   4.502   6.455
 3108POPC   C3A42821  25.403   4.465   6.889
 3108POPC   C4A42822  25.408   4.255   7.315
 3108POPC   C1B42823  24.861   4.377   6.206
 3108POPC   C2B42824  24.931   4.243   6.648
 3108POPC   C3B42825  24.944   4.342   7.096
 3108POPC   C4B42826  24.890   4.168   7.520
 3109POPC   NC342827  24.196   7.372   5.315
 3109POPC   PO442828  24.737   7.225   5.340
 3109POPC   GL142829  24.513   7.409   5.733
 3109POPC   GL242830  24.761   7.548   5.918
 3109POPC   C1A42831  24.408   7.262   6.197
 3109POPC   D2A42832  24.603   7.306   6.655
 3109POPC   C3A42833  24.394   7.379   7.071
 3109POPC   C4A42834  24.191   7.305   7.495
 3109POPC   C1B42835  24.641   7.709   6.311
 3109POPC   C2B42836  24.794   7.806   6.710
 3109POPC   C3B42837  24.833   7.634   7.097
 3109POPC   C4B42838  24.588   7.652   7.474
 3110POPC   NC342839  22.530   2.656   5.102
 3110POPC   PO442840  22.154   3.127   5.425
 3110POPC   GL142841  22.269   2.737   5.653
 3110POPC   GL242842  21.936   2.590   5.777
 3110POPC   C1A42843  22.376   2.609   6.094
 3110POPC   D2A42844  22.350   2.725   6.546
 3110POPC   C3A42845  22.018   3.002   6.793
 3110POPC   C4A42846  21.917   3.095   7.266
 3110POPC   C1B42847  21.923   2.346   6.184
 3110POPC   C2B42848  22.068   2.264   6.623
 3110POPC   C3B42849  22.174   2.522   6.997
 3110POPC   C4B42850  22.009   2.609   7.416
 3111POPC   NC342851  40.412  26.996   5.214
 3111POPC   PO442852  39.732  27.155   5.248
 3111POPC   GL142853  39.893  26.835   5.621
 3111POPC   GL242854  40.227  26.647   5.684
 3111POPC   C1A42855  39.953  26.719   6.096
 3111POPC   D2A42856  40.021  27.084   6.382
 3111POPC   C3A42857  39.953  27.004   6.829
 3111POPC   C4A42858  40.070  26.976   7.256
 3111POPC   C1B42859  40.461  26.595   6.116
 3111POPC   C2B42860  40.340  26.724   6.567
 3111POPC   C3B42861  40.252  26.555   6.994
 3111POPC   C4B42862  40.403  26.509   7.441
 3112POPC   NC342863  21.242  36.765   5.485
 3112POPC   PO442864  21.838  36.913   5.394
 3112POPC   GL142865  21.661  37.062   5.758
 3112POPC   GL242866  21.551  36.762   5.890
 3112POPC   C1A42867  21.717  37.142   6.213
 3112POPC   D2A42868  21.431  37.228   6.575
 3112POPC   C3A42869  21.457  37.086   6.983
 3112POPC   C4A42870  21.767  37.039   7.243
 3112POPC   C1B42871  21.386  36.770   6.304
 3112POPC   C2B42872  21.303  36.667   6.708
 3112POPC   C3B42873  21.198  36.657   7.138
 3112POPC   C4B42874  21.321  36.850   7.516
 3113POPC   NC342875  17.594  32.672   5.485
 3113POPC   PO442876  17.663  33.304   5.526
 3113POPC   GL142877  17.648  32.961   5.906
 3113POPC   GL242878  17.314  32.858   5.930
 3113POPC   C1A42879  17.587  32.752   6.358
 3113POPC   D2A42880  17.408  32.800   6.793
 3113POPC   C3A42881  17.721  32.907   7.111
 3113POPC   C4A42882  17.864  32.776   7.539
 3113POPC   C1B42883  17.312  33.176   6.277
 3113POPC   C2B42884  17.180  33.289   6.705
 3113POPC   C3B42885  17.351  33.286   7.128
 3113POPC   C4B42886  17.244  33.371   7.591
 3114POPC   NC342887   4.851   7.931   5.515
 3114POPC   PO442888   5.295   8.341   5.403
 3114POPC   GL142889   5.109   8.307   5.801
 3114POPC   GL242890   5.204   7.971   5.899
 3114POPC   C1A42891   5.048   8.492   6.228
 3114POPC   D2A42892   4.969   8.320   6.639
 3114POPC   C3A42893   4.984   8.510   7.051
 3114POPC   C4A42894   4.810   8.227   7.371
 3114POPC   C1B42895   5.244   7.759   6.275
 3114POPC   C2B42896   5.321   7.932   6.646
 3114POPC   C3B42897   5.169   8.004   7.055
 3114POPC   C4B42898   5.395   7.864   7.417
 3115POPC   NC342899  20.868  39.661   4.973
 3115POPC   PO442900  20.445  39.585   5.501
 3115POPC   GL142901  20.610  39.360   5.862
 3115POPC   GL242902  20.517  39.617   6.013
 3115POPC   C1A42903  20.732  39.302   6.328
 3115POPC   D2A42904  20.866  39.471   6.712
 3115POPC   C3A42905  20.761  39.206   7.076
 3115POPC   C4A42906  20.886  39.111   7.519
 3115POPC   C1B42907  20.230  39.434   6.313
 3115POPC   C2B42908  20.358  39.361   6.748
 3115POPC   C3B42909  20.311  39.413   7.193
 3115POPC   C4B42910  20.007  39.417   7.539
 3116POPC   NC342911  41.757  12.106   5.326
 3116POPC   PO442912  41.164  12.028   5.563
 3116POPC   GL142913  41.554  12.248   5.817
 3116POPC   GL242914  41.951  12.230   5.796
 3116POPC   C1A42915  41.695  12.388   6.262
 3116POPC   D2A42916  41.682  12.155   6.682
 3116POPC   C3A42917  41.395  12.194   7.048
 3116POPC   C4A42918  41.293  12.308   7.486
 3116POPC   C1B42919  41.851  11.915   6.138
 3116POPC   C2B42920  41.687  11.660   6.523
 3116POPC   C3B42921  41.738  11.699   6.972
 3116POPC   C4B42922  41.884  12.084   7.151
 3117POPC   NC342923  40.787  36.360   5.407
 3117POPC   PO442924  41.198  35.711   5.329
 3117POPC   GL142925  40.917  35.939   5.699
 3117POPC   GL242926  41.030  36.258   5.841
 3117POPC   C1A42927  40.653  36.092   6.133
 3117POPC   D2A42928  40.361  36.192   6.510
 3117POPC   C3A42929  40.506  36.339   6.932
 3117POPC   C4A42930  40.424  36.090   7.311
 3117POPC   C1B42931  41.138  35.920   6.162
 3117POPC   C2B42932  41.173  36.004   6.597
 3117POPC   C3B42933  41.234  36.025   7.028
 3117POPC   C4B42934  40.934  36.185   7.306
 3118POPC   NC342935  20.250  15.159   5.572
 3118POPC   PO442936  20.974  14.965   5.488
 3118POPC   GL142937  20.737  15.313   5.724
 3118POPC   GL242938  20.640  15.042   5.895
 3118POPC   C1A42939  20.444  15.424   6.148
 3118POPC   D2A42940  20.390  15.240   6.583
 3118POPC   C3A42941  20.528  15.445   6.984
 3118POPC   C4A42942  20.256  15.568   7.346
 3118POPC   C1B42943  20.918  15.279   6.202
 3118POPC   C2B42944  20.897  15.234   6.638
 3118POPC   C3B42945  20.869  14.953   6.948
 3118POPC   C4B42946  20.741  14.940   7.357
 3119POPC   NC342947   9.973   1.612   5.493
 3119POPC   PO442948   9.582   1.098   5.653
 3119POPC   GL142949   9.720   1.045   6.034
 3119POPC   GL242950  10.069   1.095   5.961
 3119POPC   C1A42951   9.671   1.414   6.263
 3119POPC   D2A42952   9.869   1.598   6.585
 3119POPC   C3A42953   9.950   1.331   6.903
 3119POPC   C4A42954   9.629   1.088   7.140
 3119POPC   C1B42955  10.083   1.098   6.432
 3119POPC   C2B42956   9.978   0.834   6.801
 3119POPC   C3B42957  10.048   0.801   7.271
 3119POPC   C4B42958  10.178   0.815   7.736
 3120POPC   NC342959  41.414  36.112   5.265
 3120POPC   PO442960  41.941  36.479   5.472
 3120POPC   GL142961  41.747  36.354   5.834
 3120POPC   GL242962  41.492  36.084   5.785
 3120POPC   C1A42963  41.822  36.055   6.191
 3120POPC   D2A42964  41.666  35.860   6.554
 3120POPC   C3A42965  41.761  36.047   6.940
 3120POPC   C4A42966  41.644  35.898   7.320
 3120POPC   C1B42967  41.402  36.331   6.188
 3120POPC   C2B42968  41.533  36.382   6.602
 3120POPC   C3B42969  41.444  36.483   7.025
 3120POPC   C4B42970  41.411  36.319   7.443
 3121POPC   NC342971  39.526  40.796   5.327
 3121POPC   PO442972  38.869  40.776   5.252
 3121POPC   GL142973  39.130  40.723   5.657
 3121POPC   GL242974  39.007  40.467   5.820
 3121POPC   C1A42975  39.454  40.664   6.037
 3121POPC   D2A42976  39.482  40.982   6.388
 3121POPC   C3A42977  39.599  40.918   6.822
 3121POPC   C4A42978  39.444  41.117   7.170
 3121POPC   C1B42979  38.979  40.718   6.237
 3121POPC   C2B42980  39.093  40.786   6.679
 3121POPC   C3B42981  39.236  40.660   7.102
 3121POPC   C4B42982  39.181  40.428   7.472
 3122POPC   NC342983  14.824   6.767   4.995
 3122POPC   PO442984  15.134   6.329   5.447
 3122POPC   GL142985  15.115   6.322   5.904
 3122POPC   GL242986  15.270   6.644   5.912
 3122POPC   C1A42987  15.068   6.304   6.393
 3122POPC   D2A42988  14.955   6.499   6.789
 3122POPC   C3A42989  15.290   6.771   6.919
 3122POPC   C4A42990  15.393   6.816   7.331
 3122POPC   C1B42991  14.977   6.776   6.231
 3122POPC   C2B42992  14.842   6.991   6.611
 3122POPC   C3B42993  14.830   6.963   7.060
 3122POPC   C4B42994  14.948   6.946   7.509
 3123POPC   NC342995   2.107   7.703   5.194
 3123POPC   PO442996   1.525   7.270   5.208
 3123POPC   GL142997   1.719   7.487   5.675
 3123POPC   GL242998   1.935   7.619   5.914
 3123POPC   C1A42999   1.828   7.245   6.167
 3123POPC   D2A43000   1.828   7.430   6.571
 3123POPC   C3A43001   2.099   7.290   6.901
 3123POPC   C4A43002   1.767   7.393   7.158
 3123POPC   C1B43003   2.228   7.624   6.286
 3123POPC   C2B43004   2.137   7.807   6.687
 3123POPC   C3B43005   2.140   7.801   7.109
 3123POPC   C4B43006   2.427   7.957   7.382
 3124POPC   NC343007  32.926  44.847   5.486
 3124POPC   PO443008  33.086  44.233   5.569
 3124POPC   GL143009  33.080  44.551   5.858
 3124POPC   GL243010  32.696  44.533   5.816
 3124POPC   C1A43011  33.162  44.745   6.256
 3124POPC   D2A43012  33.078  44.560   6.667
 3124POPC   C3A43013  33.088  44.858   6.959
 3124POPC   C4A43014  33.331  44.880   7.287
 3124POPC   C1B43015  32.744  44.445   6.234
 3124POPC   C2B43016  32.615  44.729   6.553
 3124POPC   C3B43017  32.628  44.644   6.968
 3124POPC   C4B43018  32.976  44.419   7.203
 3125POPC   NC343019  10.200  34.296   5.539
 3125POPC   PO443020  10.520  34.847   5.261
 3125POPC   GL143021  10.438  34.744   5.731
 3125POPC   GL243022  10.107  34.643   5.898
 3125POPC   C1A43023  10.389  34.997   6.147
 3125POPC   D2A43024  10.410  35.161   6.588
 3125POPC   C3A43025  10.523  34.821   6.902
 3125POPC   C4A43026  10.284  34.743   7.247
 3125POPC   C1B43027  10.438  34.451   6.164
 3125POPC   C2B43028  10.409  34.406   6.610
 3125POPC   C3B43029  10.378  34.266   7.031
 3125POPC   C4B43030  10.712  34.062   7.234
 3126POPC   NC343031   4.486   9.223   5.283
 3126POPC   PO443032   4.043   8.788   5.397
 3126POPC   GL143033   4.321   8.785   5.801
 3126POPC   GL243034   4.618   9.041   5.839
 3126POPC   C1A43035   4.516   8.703   6.231
 3126POPC   D2A43036   4.573   8.793   6.677
 3126POPC   C3A43037   4.183   8.960   6.860
 3126POPC   C4A43038   4.087   9.248   7.215
 3126POPC   C1B43039   4.563   9.241   6.272
 3126POPC   C2B43040   4.774   9.274   6.684
 3126POPC   C3B43041   4.575   9.139   7.106
 3126POPC   C4B43042   4.474   9.157   7.585
 3127POPC   NC343043  20.412  16.847   5.462
 3127POPC   PO443044  20.956  16.428   5.478
 3127POPC   GL143045  20.740  16.666   5.842
 3127POPC   GL243046  20.353  16.587   5.874
 3127POPC   C1A43047  20.624  16.663   6.299
 3127POPC   D2A43048  20.805  16.496   6.669
 3127POPC   C3A43049  20.738  16.808   6.961
 3127POPC   C4A43050  20.553  16.856   7.368
 3127POPC   C1B43051  20.187  16.278   6.126
 3127POPC   C2B43052  20.278  16.230   6.554
 3127POPC   C3B43053  20.312  16.507   6.876
 3127POPC   C4B43054  20.212  16.510   7.307
 3128POPC   NC343055  27.199   2.880   5.540
 3128POPC   PO443056  27.809   2.540   5.501
 3128POPC   GL143057  27.523   2.537   5.825
 3128POPC   GL243058  27.658   2.894   5.882
 3128POPC   C1A43059  27.340   2.702   6.207
 3128POPC   D2A43060  27.626   2.943   6.472
 3128POPC   C3A43061  27.497   2.742   6.851
 3128POPC   C4A43062  27.369   2.825   7.235
 3128POPC   C1B43063  28.028   3.070   6.118
 3128POPC   C2B43064  28.159   3.145   6.530
 3128POPC   C3B43065  27.971   2.956   6.853
 3128POPC   C4B43066  27.873   2.823   7.227
 3129POPC   NC343067  26.597  16.124   5.471
 3129POPC   PO443068  26.815  15.704   5.120
 3129POPC   GL143069  26.926  15.798   5.667
 3129POPC   GL243070  27.032  16.171   5.702
 3129POPC   C1A43071  26.789  15.999   6.126
 3129POPC   D2A43072  26.725  16.126   6.602
 3129POPC   C3A43073  26.708  15.898   6.991
 3129POPC   C4A43074  27.017  15.653   7.176
 3129POPC   C1B43075  27.211  16.338   6.082
 3129POPC   C2B43076  27.230  16.264   6.507
 3129POPC   C3B43077  27.177  16.067   6.859
 3129POPC   C4B43078  27.017  16.208   7.242
 3130POPC   NC343079   6.419   7.580   5.298
 3130POPC   PO443080   6.957   7.224   5.297
 3130POPC   GL143081   6.816   7.522   5.699
 3130POPC   GL243082   6.486   7.759   5.781
 3130POPC   C1A43083   6.706   7.520   6.164
 3130POPC   D2A43084   6.689   7.246   6.508
 3130POPC   C3A43085   6.625   7.448   6.903
 3130POPC   C4A43086   6.530   7.243   7.272
 3130POPC   C1B43087   6.203   7.593   6.144
 3130POPC   C2B43088   6.174   7.367   6.565
 3130POPC   C3B43089   6.112   7.427   7.006
 3130POPC   C4B43090   6.357   7.724   7.271
 3131POPC   NC343091  19.111   6.518   5.401
 3131POPC   PO443092  19.258   7.041   5.489
 3131POPC   GL143093  19.225   6.715   5.873
 3131POPC   GL243094  18.998   6.389   5.887
 3131POPC   C1A43095  19.262   6.719   6.355
 3131POPC   D2A43096  19.025   6.893   6.714
 3131POPC   C3A43097  19.039   6.732   7.146
 3131POPC   C4A43098  18.974   6.838   7.590
 3131POPC   C1B43099  19.107   6.241   6.307
 3131POPC   C2B43100  19.075   6.371   6.736
 3131POPC   C3B43101  19.260   6.282   7.127
 3131POPC   C4B43102  18.997   6.329   7.499
 3132POPC   NC343103  35.899   3.989   5.486
 3132POPC   PO443104  36.298   4.412   5.199
 3132POPC   GL143105  36.286   4.420   5.646
 3132POPC   GL243106  36.298   4.084   5.795
 3132POPC   C1A43107  36.165   4.557   6.060
 3132POPC   D2A43108  36.082   4.440   6.480
 3132POPC   C3A43109  36.298   4.466   6.856
 3132POPC   C4A43110  36.025   4.344   7.214
 3132POPC   C1B43111  35.952   4.077   6.127
 3132POPC   C2B43112  35.855   3.991   6.559
 3132POPC   C3B43113  35.633   3.998   6.940
 3132POPC   C4B43114  35.707   3.857   7.315
 3133POPC   NC343115   1.522  38.088   5.472
 3133POPC   PO443116   2.044  37.643   5.539
 3133POPC   GL143117   1.930  37.699   5.908
 3133POPC   GL243118   1.689  37.944   5.923
 3133POPC   C1A43119   1.930  37.515   6.290
 3133POPC   D2A43120   1.816  37.320   6.658
 3133POPC   C3A43121   2.071  37.439   6.973
 3133POPC   C4A43122   2.181  37.841   7.178
 3133POPC   C1B43123   1.935  38.052   6.279
 3133POPC   C2B43124   2.029  37.867   6.662
 3133POPC   C3B43125   1.706  37.809   6.956
 3133POPC   C4B43126   1.687  37.907   7.354
 3134POPC   NC343127  21.044  31.711   5.102
 3134POPC   PO443128  20.487  31.548   5.467
 3134POPC   GL143129  20.646  31.493   5.861
 3134POPC   GL243130  20.980  31.323   5.848
 3134POPC   C1A43131  20.414  31.442   6.250
 3134POPC   D2A43132  20.165  31.291   6.596
 3134POPC   C3A43133  20.295  31.412   7.006
 3134POPC   C4A43134  20.576  31.571   7.314
 3134POPC   C1B43135  20.926  31.428   6.308
 3134POPC   C2B43136  20.822  31.411   6.777
 3134POPC   C3B43137  21.043  31.506   7.175
 3134POPC   C4B43138  21.061  31.643   7.621
 3135POPC   NC343139   4.276  31.729   5.283
 3135POPC   PO443140   4.364  31.096   5.375
 3135POPC   GL143141   4.399  31.404   5.712
 3135POPC   GL243142   4.150  31.686   5.771
 3135POPC   C1A43143   4.291  31.299   6.141
 3135POPC   D2A43144   4.176  31.337   6.588
 3135POPC   C3A43145   4.435  31.554   6.904
 3135POPC   C4A43146   4.496  31.430   7.331
 3135POPC   C1B43147   4.003  31.705   6.199
 3135POPC   C2B43148   4.103  31.855   6.612
 3135POPC   C3B43149   4.010  31.813   7.072
 3135POPC   C4B43150   3.914  31.882   7.530
 3136POPC   NC343151  43.360   4.183   5.476
 3136POPC   PO443152  44.065   4.054   5.381
 3136POPC   GL143153  43.983   4.057   5.833
 3136POPC   GL243154  43.719   4.290   5.884
 3136POPC   C1A43155  44.048   4.296   6.262
 3136POPC   D2A43156  44.191   4.464   6.655
 3136POPC   C3A43157  43.920   4.344   6.986
 3136POPC   C4A43158  43.918   3.984   7.248
 3136POPC   C1B43159  43.557   4.579   6.242
 3136POPC   C2B43160  43.281   4.546   6.619
 3136POPC   C3B43161  43.272   4.649   7.069
 3136POPC   C4B43162  43.616   4.509   7.363
 3137POPC   NC343163   0.924   2.777   5.080
 3137POPC   PO443164   0.372   2.935   5.407
 3137POPC   GL143165   0.457   2.728   5.797
 3137POPC   GL243166   0.797   2.702   5.822
 3137POPC   C1A43167   0.415   2.616   6.241
 3137POPC   D2A43168   0.530   2.450   6.651
 3137POPC   C3A43169   0.391   2.622   7.034
 3137POPC   C4A43170   0.369   2.489   7.475
 3137POPC   C1B43171   0.823   2.989   6.162
 3137POPC   C2B43172   0.686   2.985   6.568
 3137POPC   C3B43173   0.870   2.777   6.924
 3137POPC   C4B43174   0.839   2.415   7.217
 3138POPC   NC343175  31.450  12.292   5.254
 3138POPC   PO443176  31.588  11.735   5.426
 3138POPC   GL143177  31.570  12.076   5.744
 3138POPC   GL243178  31.292  12.320   5.760
 3138POPC   C1A43179  31.567  12.193   6.194
 3138POPC   D2A43180  31.640  12.153   6.634
 3138POPC   C3A43181  31.353  11.980   6.933
 3138POPC   C4A43182  31.569  12.133   7.283
 3138POPC   C1B43183  31.068  12.351   6.159
 3138POPC   C2B43184  31.189  12.356   6.560
 3138POPC   C3B43185  31.236  12.451   6.974
 3138POPC   C4B43186  31.062  12.215   7.297
 3139POPC   NC343187  42.900   7.658   5.476
 3139POPC   PO443188  43.399   7.282   5.510
 3139POPC   GL143189  43.189   7.420   5.854
 3139POPC   GL243190  42.958   7.130   5.812
 3139POPC   C1A43191  43.276   7.623   6.264
 3139POPC   D2A43192  43.068   7.876   6.575
 3139POPC   C3A43193  43.133   7.706   7.003
 3139POPC   C4A43194  43.070   7.563   7.466
 3139POPC   C1B43195  42.889   7.286   6.254
 3139POPC   C2B43196  42.978   7.366   6.666
 3139POPC   C3B43197  43.042   7.175   7.075
 3139POPC   C4B43198  42.736   7.160   7.413
 3140POPC   NC343199  28.732  13.659   5.442
 3140POPC   PO443200  29.398  13.648   5.366
 3140POPC   GL143201  29.184  13.782   5.697
 3140POPC   GL243202  29.073  13.448   5.758
 3140POPC   C1A43203  29.186  13.809   6.144
 3140POPC   D2A43204  29.378  13.574   6.490
 3140POPC   C3A43205  29.221  13.735   6.885
 3140POPC   C4A43206  28.985  13.925   7.236
 3140POPC   C1B43207  29.032  13.318   6.146
 3140POPC   C2B43208  28.799  13.473   6.509
 3140POPC   C3B43209  28.815  13.424   6.960
 3140POPC   C4B43210  28.778  13.486   7.397
 3141POPC   NC343211  40.898  18.544   5.525
 3141POPC   PO443212  40.312  18.140   5.596
 3141POPC   GL143213  40.707  18.142   5.773
 3141POPC   GL243214  40.601  18.447   5.932
 3141POPC   C1A43215  40.990  18.173   6.127
 3141POPC   D2A43216  40.853  18.402   6.471
 3141POPC   C3A43217  40.976  18.215   6.842
 3141POPC   C4A43218  40.821  18.136   7.260
 3141POPC   C1B43219  40.354  18.699   6.204
 3141POPC   C2B43220  40.486  18.755   6.599
 3141POPC   C3B43221  40.594  18.530   6.950
 3141POPC   C4B43222  40.461  18.492   7.338
 3142POPC   NC343223  41.630  38.712   5.299
 3142POPC   PO443224  41.281  38.269   5.661
 3142POPC   GL143225  41.567  38.554   5.803
 3142POPC   GL243226  41.368  38.777   5.899
 3142POPC   C1A43227  41.747  38.662   6.231
 3142POPC   D2A43228  41.616  38.454   6.627
 3142POPC   C3A43229  41.809  38.558   7.027
 3142POPC   C4A43230  41.882  38.583   7.477
 3142POPC   C1B43231  41.205  38.608   6.264
 3142POPC   C2B43232  41.055  38.522   6.656
 3142POPC   C3B43233  41.264  38.537   7.018
 3142POPC   C4B43234  41.361  38.766   7.340
 3143POPC   NC343235  38.795  33.591   5.561
 3143POPC   PO443236  38.166  33.534   5.379
 3143POPC   GL143237  38.165  33.892   5.687
 3143POPC   GL243238  38.501  34.090   5.755
 3143POPC   C1A43239  38.177  33.898   6.119
 3143POPC   D2A43240  38.419  33.644   6.418
 3143POPC   C3A43241  38.366  33.715   6.862
 3143POPC   C4A43242  38.434  33.572   7.291
 3143POPC   C1B43243  38.593  34.148   6.232
 3143POPC   C2B43244  38.283  34.167   6.599
 3143POPC   C3B43245  38.226  34.185   7.072
 3143POPC   C4B43246  38.478  34.043   7.447
 3144POPC   NC343247  38.973   1.162   5.523
 3144POPC   PO443248  39.467   1.605   5.444
 3144POPC   GL143249  39.560   1.385   5.848
 3144POPC   GL243250  39.410   1.069   5.822
 3144POPC   C1A43251  39.508   1.320   6.324
 3144POPC   D2A43252  39.198   1.298   6.656
 3144POPC   C3A43253  39.323   1.216   7.068
 3144POPC   C4A43254  39.273   1.483   7.450
 3144POPC   C1B43255  39.243   0.885   6.221
 3144POPC   C2B43256  39.164   0.778   6.657
 3144POPC   C3B43257  38.852   0.918   6.965
 3144POPC   C4B43258  38.970   1.055   7.385
 3145POPC   NC343259  35.038  43.006   5.422
 3145POPC   PO443260  35.721  43.093   5.446
 3145POPC   GL143261  35.418  43.248   5.767
 3145POPC   GL243262  35.286  42.964   5.923
 3145POPC   C1A43263  35.299  43.439   6.176
 3145POPC   D2A43264  35.107  43.337   6.555
 3145POPC   C3A43265  35.310  43.140   6.899
 3145POPC   C4A43266  35.176  43.274   7.295
 3145POPC   C1B43267  35.293  42.878   6.378
 3145POPC   C2B43268  35.054  42.711   6.739
 3145POPC   C3B43269  34.963  42.824   7.164
 3145POPC   C4B43270  35.290  42.801   7.475
 3146POPC   NC343271  44.479   3.983   5.580
 3146POPC   PO443272  44.518   4.632   5.462
 3146POPC   GL143273  44.681   4.517   5.828
 3146POPC   GL243274  44.358   4.396   5.884
 3146POPC   C1A43275  44.899   4.622   6.210
 3146POPC   D2A43276  44.705   4.589   6.618
 3146POPC   C3A43277  44.795   4.366   6.969
 3146POPC   C4A43278  44.442   4.534   7.132
 3146POPC   C1B43279  44.579   4.220   6.234
 3146POPC   C2B43280  44.651   4.053   6.611
 3146POPC   C3B43281  44.362   4.070   6.950
 3146POPC   C4B43282  44.470   4.050   7.378
 3147POPC   NC343283  37.045  26.521   5.379
 3147POPC   PO443284  36.705  27.093   5.583
 3147POPC   GL143285  36.778  26.751   5.891
 3147POPC   GL243286  37.091  26.622   5.910
 3147POPC   C1A43287  36.814  26.735   6.352
 3147POPC   D2A43288  36.662  26.604   6.760
 3147POPC   C3A43289  36.636  26.928   7.012
 3147POPC   C4A43290  36.973  27.088   7.174
 3147POPC   C1B43291  37.291  26.555   6.307
 3147POPC   C2B43292  37.183  26.679   6.726
 3147POPC   C3B43293  37.091  26.472   7.097
 3147POPC   C4B43294  36.687  26.380   7.296
 3148POPC   NC343295  22.124  32.502   5.428
 3148POPC   PO443296  22.378  31.898   5.319
 3148POPC   GL143297  22.219  32.106   5.759
 3148POPC   GL243298  21.892  32.190   5.778
 3148POPC   C1A43299  22.365  32.282   6.199
 3148POPC   D2A43300  22.267  32.515   6.621
 3148POPC   C3A43301  22.275  32.247   7.034
 3148POPC   C4A43302  22.138  32.396   7.472
 3148POPC   C1B43303  21.862  32.250   6.216
 3148POPC   C2B43304  22.042  32.056   6.590
 3148POPC   C3B43305  21.905  31.885   6.993
 3148POPC   C4B43306  22.141  31.847   7.371
 3149POPC   NC343307   0.050  11.304   5.358
 3149POPC   PO443308   0.706  11.128   5.465
 3149POPC   GL143309   0.448  11.220   5.783
 3149POPC   GL243310   0.210  10.943   5.715
 3149POPC   C1A43311   0.488  11.475   6.172
 3149POPC   D2A43312   0.345  11.670   6.569
 3149POPC   C3A43313   0.255  11.442   6.928
 3149POPC   C4A43314   0.423  11.404   7.333
 3149POPC   C1B43315   0.232  11.002   6.179
 3149POPC   C2B43316   0.486  11.118   6.547
 3149POPC   C3B43317   0.547  11.020   6.979
 3149POPC   C4B43318   0.175  10.954   7.278
 3150POPC   NC343319  31.347  20.499   5.014
 3150POPC   PO443320  31.838  20.390   5.444
 3150POPC   GL143321  31.691  20.420   5.880
 3150POPC   GL243322  31.377  20.598   5.908
 3150POPC   C1A43323  31.700  20.647   6.294
 3150POPC   D2A43324  31.464  20.642   6.676
 3150POPC   C3A43325  31.643  20.660   7.110
 3150POPC   C4A43326  31.996  20.512   7.398
 3150POPC   C1B43327  31.103  20.560   6.229
 3150POPC   C2B43328  30.970  20.727   6.609
 3150POPC   C3B43329  31.118  20.730   7.026
 3150POPC   C4B43330  31.170  20.890   7.417
 3151POPC   NC343331  31.944  44.073   5.453
 3151POPC   PO443332  32.393  43.514   5.506
 3151POPC   GL143333  32.250  43.778   5.861
 3151POPC   GL243334  31.896  43.804   5.885
 3151POPC   C1A43335  32.152  43.770   6.330
 3151POPC   D2A43336  32.401  43.809   6.711
 3151POPC   C3A43337  32.267  43.805   7.124
 3151POPC   C4A43338  32.519  43.828   7.517
 3151POPC   C1B43339  31.924  44.208   6.122
 3151POPC   C2B43340  31.854  44.449   6.521
 3151POPC   C3B43341  31.788  44.454   6.976
 3151POPC   C4B43342  31.949  44.185   7.293
 3152POPC   NC343343  39.683   0.346   5.389
 3152POPC   PO443344  40.292   0.166   5.369
 3152POPC   GL143345  40.172   0.452   5.768
 3152POPC   GL243346  39.845   0.646   5.789
 3152POPC   C1A43347  40.070   0.483   6.249
 3152POPC   D2A43348  40.236   0.283   6.648
 3152POPC   C3A43349  40.122   0.411   7.094
 3152POPC   C4A43350  40.189   0.420   7.568
 3152POPC   C1B43351  39.764   0.911   6.148
 3152POPC   C2B43352  39.680   0.862   6.582
 3152POPC   C3B43353  39.755   0.815   7.035
 3152POPC   C4B43354  39.726   0.559   7.425
 3153POPC   NC343355  22.636  34.862   5.363
 3153POPC   PO443356  22.104  35.263   5.291
 3153POPC   GL143357  22.163  35.230   5.739
 3153POPC   GL243358  22.508  35.206   5.751
 3153POPC   C1A43359  22.111  35.218   6.207
 3153POPC   D2A43360  21.886  35.364   6.578
 3153POPC   C3A43361  22.000  35.338   7.048
 3153POPC   C4A43362  22.187  35.111   7.438
 3153POPC   C1B43363  22.593  35.387   6.172
 3153POPC   C2B43364  22.461  35.413   6.625
 3153POPC   C3B43365  22.497  35.328   7.078
 3153POPC   C4B43366  22.537  35.490   7.521
 3154POPC   NC343367  19.269  15.133   5.394
 3154POPC   PO443368  18.677  15.439   5.474
 3154POPC   GL143369  18.967  15.368   5.757
 3154POPC   GL243370  18.880  15.034   5.751
 3154POPC   C1A43371  19.007  15.413   6.194
 3154POPC   D2A43372  18.863  15.161   6.528
 3154POPC   C3A43373  18.745  15.294   6.928
 3154POPC   C4A43374  18.849  15.171   7.362
 3154POPC   C1B43375  19.061  14.883   6.116
 3154POPC   C2B43376  19.217  14.804   6.534
 3154POPC   C3B43377  19.121  14.917   6.934
 3154POPC   C4B43378  19.103  14.722   7.308
 3155POPC   NC343379   0.758  22.400   5.232
 3155POPC   PO443380   0.356  21.880   5.325
 3155POPC   GL143381   0.634  21.994   5.699
 3155POPC   GL243382   0.317  22.097   5.840
 3155POPC   C1A43383   0.687  22.157   6.161
 3155POPC   D2A43384   0.577  22.009   6.595
 3155POPC   C3A43385   0.661  22.163   7.019
 3155POPC   C4A43386   0.483  22.018   7.397
 3155POPC   C1B43387   0.021  22.339   6.109
 3155POPC   C2B43388   0.057  22.496   6.536
 3155POPC   C3B43389   0.155  22.283   6.929
 3155POPC   C4B43390   0.238  22.451   7.331
 3156POPC   NC343391  10.017   2.230   5.135
 3156POPC   PO443392   9.504   1.834   5.306
 3156POPC   GL143393   9.561   1.826   5.774
 3156POPC   GL243394   9.540   2.200   5.845
 3156POPC   C1A43395   9.846   1.904   6.166
 3156POPC   D2A43396   9.944   2.106   6.567
 3156POPC   C3A43397   9.711   1.928   6.931
 3156POPC   C4A43398   9.547   1.591   7.162
 3156POPC   C1B43399   9.619   2.397   6.241
 3156POPC   C2B43400   9.437   2.274   6.613
 3156POPC   C3B43401   9.554   2.394   6.998
 3156POPC   C4B43402   9.425   2.165   7.334
 3157POPC   NC343403  33.113   2.921   5.390
 3157POPC   PO443404  33.059   2.283   5.238
 3157POPC   GL143405  33.016   2.527   5.688
 3157POPC   GL243406  33.300   2.768   5.841
 3157POPC   C1A43407  32.848   2.768   6.050
 3157POPC   D2A43408  32.751   2.858   6.470
 3157POPC   C3A43409  33.005   2.768   6.826
 3157POPC   C4A43410  32.875   2.809   7.219
 3157POPC   C1B43411  33.297   2.866   6.310
 3157POPC   C2B43412  33.300   3.151   6.690
 3157POPC   C3B43413  33.351   3.002   7.143
 3157POPC   C4B43414  33.319   2.589   7.372
 3158POPC   NC343415  17.003  18.793   5.653
 3158POPC   PO443416  16.832  19.450   5.477
 3158POPC   GL143417  16.627  19.241   5.808
 3158POPC   GL243418  16.474  18.908   5.695
 3158POPC   C1A43419  16.786  19.146   6.213
 3158POPC   D2A43420  16.571  19.111   6.576
 3158POPC   C3A43421  16.672  19.134   7.003
 3158POPC   C4A43422  16.418  19.475   7.202
 3158POPC   C1B43423  16.495  18.753   6.127
 3158POPC   C2B43424  16.706  18.616   6.516
 3158POPC   C3B43425  16.565  18.535   6.936
 3158POPC   C4B43426  16.767  18.621   7.323
 3159POPC   NC343427  10.388  39.471   5.422
 3159POPC   PO443428  11.030  39.483   5.507
 3159POPC   GL143429  10.733  39.426   5.840
 3159POPC   GL243430  10.435  39.211   5.899
 3159POPC   C1A43431  10.567  39.516   6.263
 3159POPC   D2A43432  10.131  39.521   6.461
 3159POPC   C3A43433  10.223  39.384   6.884
 3159POPC   C4A43434  10.681  39.358   7.008
 3159POPC   C1B43435  10.827  39.072   6.199
 3159POPC   C2B43436  11.037  38.956   6.619
 3159POPC   C3B43437  10.880  38.870   7.058
 3159POPC   C4B43438  10.406  38.904   7.131
 3160POPC   NC343439  23.022  15.608   5.454
 3160POPC   PO443440  22.923  16.245   5.478
 3160POPC   GL143441  23.053  15.989   5.814
 3160POPC   GL243442  23.374  15.814   5.805
 3160POPC   C1A43443  23.020  15.924   6.238
 3160POPC   D2A43444  23.182  16.132   6.597
 3160POPC   C3A43445  22.970  16.169   6.956
 3160POPC   C4A43446  22.939  16.329   7.361
 3160POPC   C1B43447  23.395  15.545   6.164
 3160POPC   C2B43448  23.251  15.620   6.577
 3160POPC   C3B43449  23.248  15.724   6.988
 3160POPC   C4B43450  22.966  15.805   7.317
 3161POPC   NC343451  10.782   9.467   5.494
 3161POPC   PO443452  10.409   8.940   5.319
 3161POPC   GL143453  10.543   8.809   5.730
 3161POPC   GL243454  10.476   9.156   5.800
 3161POPC   C1A43455  10.538   8.824   6.195
 3161POPC   D2A43456  10.670   9.056   6.567
 3161POPC   C3A43457  10.610   8.799   6.960
 3161POPC   C4A43458  10.369   8.628   7.303
 3161POPC   C1B43459  10.432   9.349   6.188
 3161POPC   C2B43460  10.374   9.484   6.585
 3161POPC   C3B43461  10.429   9.324   6.975
 3161POPC   C4B43462  10.112   9.409   7.280
 3162POPC   NC343463  24.212  40.287   5.469
 3162POPC   PO443464  23.703  39.801   5.447
 3162POPC   GL143465  23.733  40.103   5.795
 3162POPC   GL243466  23.755  39.865   6.023
 3162POPC   C1A43467  23.621  40.309   6.202
 3162POPC   D2A43468  23.667  39.995   6.547
 3162POPC   C3A43469  23.633  40.148   6.962
 3162POPC   C4A43470  24.040  40.081   7.188
 3162POPC   C1B43471  23.896  39.559   6.289
 3162POPC   C2B43472  23.816  39.416   6.710
 3162POPC   C3B43473  23.653  39.656   7.050
 3162POPC   C4B43474  23.602  39.650   7.518
 3163POPC   NC343475  22.043  16.904   5.351
 3163POPC   PO443476  21.926  16.169   5.462
 3163POPC   GL143477  22.152  16.496   5.757
 3163POPC   GL243478  22.243  16.870   5.820
 3163POPC   C1A43479  22.108  16.560   6.204
 3163POPC   D2A43480  22.155  16.341   6.568
 3163POPC   C3A43481  22.136  16.549   6.963
 3163POPC   C4A43482  22.276  16.515   7.396
 3163POPC   C1B43483  22.250  17.059   6.264
 3163POPC   C2B43484  22.205  17.129   6.731
 3163POPC   C3B43485  22.269  17.003   7.183
 3163POPC   C4B43486  22.248  16.963   7.649
 3164POPC   NC343487   1.072  35.460   5.186
 3164POPC   PO443488   1.687  35.165   5.363
 3164POPC   GL143489   1.317  35.252   5.630
 3164POPC   GL243490   1.444  35.476   5.876
 3164POPC   C1A43491   1.034  35.204   6.019
 3164POPC   D2A43492   1.179  35.185   6.456
 3164POPC   C3A43493   1.031  35.222   6.856
 3164POPC   C4A43494   1.221  35.271   7.283
 3164POPC   C1B43495   1.183  35.642   6.200
 3164POPC   C2B43496   1.010  35.671   6.599
 3164POPC   C3B43497   1.145  35.725   7.054
 3164POPC   C4B43498   0.850  35.748   7.422
 3165POPC   NC343499  30.195  21.556   5.373
 3165POPC   PO443500  29.587  21.161   5.271
 3165POPC   GL143501  29.789  21.373   5.640
 3165POPC   GL243502  30.077  21.195   5.738
 3165POPC   C1A43503  29.971  21.559   6.066
 3165POPC   D2A43504  29.917  21.673   6.537
 3165POPC   C3A43505  29.865  21.440   6.925
 3165POPC   C4A43506  30.144  21.530   7.233
 3165POPC   C1B43507  29.771  21.098   6.076
 3165POPC   C2B43508  29.899  21.145   6.497
 3165POPC   C3B43509  30.208  21.079   6.831
 3165POPC   C4B43510  30.040  21.030   7.212
 3166POPC   NC343511  18.766  25.207   5.225
 3166POPC   PO443512  19.414  25.121   5.333
 3166POPC   GL143513  19.071  25.204   5.651
 3166POPC   GL243514  18.871  24.919   5.686
 3166POPC   C1A43515  19.023  25.331   6.109
 3166POPC   D2A43516  19.219  25.179   6.525
 3166POPC   C3A43517  19.178  25.444   6.913
 3166POPC   C4A43518  18.991  25.392   7.347
 3166POPC   C1B43519  18.793  24.875   6.137
 3166POPC   C2B43520  18.710  25.086   6.546
 3166POPC   C3B43521  18.863  25.051   6.993
 3166POPC   C4B43522  18.885  24.806   7.401
 3167POPC   NC343523  15.966  27.773   5.508
 3167POPC   PO443524  16.563  27.823   5.410
 3167POPC   GL143525  16.367  27.716   5.835
 3167POPC   GL243526  16.204  27.389   5.843
 3167POPC   C1A43527  16.182  27.678   6.280
 3167POPC   D2A43528  16.025  27.796   6.715
 3167POPC   C3A43529  16.183  27.668   7.135
 3167POPC   C4A43530  15.922  27.499   7.501
 3167POPC   C1B43531  16.202  27.166   6.237
 3167POPC   C2B43532  16.146  27.295   6.653
 3167POPC   C3B43533  15.876  27.266   7.009
 3167POPC   C4B43534  15.846  27.016   7.363
 3168POPC   NC343535  17.926  27.636   5.342
 3168POPC   PO443536  18.443  27.265   5.438
 3168POPC   GL143537  18.239  27.499   5.756
 3168POPC   GL243538  18.393  27.839   5.814
 3168POPC   C1A43539  18.044  27.393   6.152
 3168POPC   D2A43540  18.056  27.650   6.507
 3168POPC   C3A43541  18.003  27.478   6.907
 3168POPC   C4A43542  17.792  27.763   7.148
 3168POPC   C1B43543  18.496  27.622   6.215
 3168POPC   C2B43544  18.461  27.387   6.635
 3168POPC   C3B43545  18.498  27.589   7.060
 3168POPC   C4B43546  18.591  27.817   7.466
 3169POPC   NC343547   1.990  37.447   5.134
 3169POPC   PO443548   1.819  36.819   5.376
 3169POPC   GL143549   2.105  36.850   5.777
 3169POPC   GL243550   2.370  36.583   5.881
 3169POPC   C1A43551   2.127  37.045   6.199
 3169POPC   D2A43552   2.258  36.924   6.596
 3169POPC   C3A43553   1.985  36.884   6.913
 3169POPC   C4A43554   2.131  37.032   7.287
 3169POPC   C1B43555   2.164  36.531   6.284
 3169POPC   C2B43556   2.177  36.421   6.727
 3169POPC   C3B43557   2.285  36.542   7.150
 3169POPC   C4B43558   2.011  36.630   7.547
 3170POPC   NC343559  23.188  16.602   5.415
 3170POPC   PO443560  22.494  16.715   5.359
 3170POPC   GL143561  22.682  16.607   5.753
 3170POPC   GL243562  22.974  16.794   5.842
 3170POPC   C1A43563  22.614  16.694   6.199
 3170POPC   D2A43564  22.485  16.727   6.622
 3170POPC   C3A43565  22.667  16.607   7.019
 3170POPC   C4A43566  22.707  16.781   7.446
 3170POPC   C1B43567  23.057  16.458   6.159
 3170POPC   C2B43568  23.042  16.613   6.600
 3170POPC   C3B43569  23.207  16.612   7.025
 3170POPC   C4B43570  23.211  16.877   7.392
 3171POPC   NC343571  31.249   3.668   5.521
 3171POPC   PO443572  31.806   3.296   5.401
 3171POPC   GL143573  31.731   3.338   5.839
 3171POPC   GL243574  31.363   3.377   5.925
 3171POPC   C1A43575  31.719   3.411   6.279
 3171POPC   D2A43576  31.362   3.413   6.558
 3171POPC   C3A43577  31.652   3.465   6.870
 3171POPC   C4A43578  31.729   3.613   7.249
 3171POPC   C1B43579  31.381   3.781   6.181
 3171POPC   C2B43580  31.433   3.934   6.606
 3171POPC   C3B43581  31.311   3.826   7.026
 3171POPC   C4B43582  31.538   4.111   7.316
 3172POPC   NC343583  17.811  18.850   5.378
 3172POPC   PO443584  18.446  19.136   5.319
 3172POPC   GL143585  18.247  18.916   5.696
 3172POPC   GL243586  18.447  18.661   5.826
 3172POPC   C1A43587  18.194  18.976   6.178
 3172POPC   D2A43588  18.075  19.279   6.521
 3172POPC   C3A43589  18.211  19.278   6.943
 3172POPC   C4A43590  17.952  19.155   7.282
 3172POPC   C1B43591  18.676  18.852   6.169
 3172POPC   C2B43592  18.573  19.082   6.545
 3172POPC   C3B43593  18.608  18.896   6.946
 3172POPC   C4B43594  18.357  18.859   7.267
 3173POPC   NC343595  31.898  27.591   5.485
 3173POPC   PO443596  32.346  27.230   5.572
 3173POPC   GL143597  32.082  27.347   5.921
 3173POPC   GL243598  32.120  27.726   5.921
 3173POPC   C1A43599  31.901  27.501   6.303
 3173POPC   D2A43600  32.004  27.705   6.687
 3173POPC   C3A43601  32.148  27.597   7.103
 3173POPC   C4A43602  32.316  27.814   7.481
 3173POPC   C1B43603  32.405  27.566   6.271
 3173POPC   C2B43604  32.499  27.583   6.727
 3173POPC   C3B43605  32.648  27.780   7.083
 3173POPC   C4B43606  32.741  27.514   7.434
 3174POPC   NC343607   6.782  31.675   5.468
 3174POPC   PO443608   6.164  31.377   5.247
 3174POPC   GL143609   6.514  31.349   5.716
 3174POPC   GL243610   6.801  31.437   5.898
 3174POPC   C1A43611   6.430  31.190   6.173
 3174POPC   D2A43612   6.238  31.019   6.537
 3174POPC   C3A43613   6.265  31.290   6.880
 3174POPC   C4A43614   6.583  31.356   7.203
 3174POPC   C1B43615   6.722  31.584   6.301
 3174POPC   C2B43616   6.721  31.506   6.739
 3174POPC   C3B43617   6.969  31.678   7.092
 3174POPC   C4B43618   6.964  31.546   7.513
 3175POPC   NC343619   5.592  36.390   5.423
 3175POPC   PO443620   4.900  36.093   5.426
 3175POPC   GL143621   5.089  36.029   5.820
 3175POPC   GL243622   5.323  36.297   5.855
 3175POPC   C1A43623   4.920  36.205   6.241
 3175POPC   D2A43624   4.934  36.472   6.618
 3175POPC   C3A43625   4.777  36.264   6.966
 3175POPC   C4A43626   4.949  35.890   7.177
 3175POPC   C1B43627   5.402  36.051   6.217
 3175POPC   C2B43628   5.357  36.188   6.588
 3175POPC   C3B43629   5.287  36.231   7.002
 3175POPC   C4B43630   5.266  36.283   7.450
 3176POPC   NC343631  22.097  41.233   5.383
 3176POPC   PO443632  21.931  41.964   5.420
 3176POPC   GL143633  22.211  41.723   5.746
 3176POPC   GL243634  22.117  41.409   5.876
 3176POPC   C1A43635  22.436  41.631   6.190
 3176POPC   D2A43636  22.288  41.589   6.589
 3176POPC   C3A43637  22.506  41.569   6.959
 3176POPC   C4A43638  22.547  41.252   7.315
 3176POPC   C1B43639  21.957  41.783   6.183
 3176POPC   C2B43640  21.796  41.766   6.586
 3176POPC   C3B43641  21.968  41.650   6.977
 3176POPC   C4B43642  22.188  41.604   7.346
 3177POPC   NC343643  15.855   9.601   5.048
 3177POPC   PO443644  16.206  10.097   5.346
 3177POPC   GL143645  15.978   9.974   5.767
 3177POPC   GL243646  16.033   9.635   5.828
 3177POPC   C1A43647  15.685   9.752   6.140
 3177POPC   D2A43648  15.600   9.458   6.507
 3177POPC   C3A43649  15.829   9.505   6.891
 3177POPC   C4A43650  15.788   9.780   7.222
 3177POPC   C1B43651  16.189   9.820   6.215
 3177POPC   C2B43652  16.221   9.769   6.665
 3177POPC   C3B43653  16.189  10.042   7.026
 3177POPC   C4B43654  16.126  10.062   7.473
 3178POPC   NC343655  31.957   4.249   5.393
 3178POPC   PO443656  32.178   4.849   5.454
 3178POPC   GL143657  32.255   4.466   5.788
 3178POPC   GL243658  31.997   4.163   5.889
 3178POPC   C1A43659  32.379   4.257   6.202
 3178POPC   D2A43660  32.324   4.444   6.611
 3178POPC   C3A43661  32.494   4.311   7.012
 3178POPC   C4A43662  32.640   3.885   7.141
 3178POPC   C1B43663  31.874   4.025   6.332
 3178POPC   C2B43664  31.884   4.166   6.783
 3178POPC   C3B43665  32.035   4.044   7.213
 3178POPC   C4B43666  31.860   3.864   7.652
 3179POPC   NC343667  37.736  30.085   5.368
 3179POPC   PO443668  37.380  29.594   5.487
 3179POPC   GL143669  37.550  29.832   5.867
 3179POPC   GL243670  37.583  30.179   5.838
 3179POPC   C1A43671  37.816  29.943   6.253
 3179POPC   D2A43672  38.044  29.799   6.624
 3179POPC   C3A43673  37.963  30.004   7.017
 3179POPC   C4A43674  37.634  29.945   7.282
 3179POPC   C1B43675  37.430  30.276   6.247
 3179POPC   C2B43676  37.575  30.206   6.679
 3179POPC   C3B43677  37.329  30.291   7.067
 3179POPC   C4B43678  37.364  30.280   7.534
 3180POPC   NC343679  15.936  41.463   5.567
 3180POPC   PO443680  15.383  41.716   5.318
 3180POPC   GL143681  15.550  41.756   5.797
 3180POPC   GL243682  15.578  41.380   5.910
 3180POPC   C1A43683  15.937  41.906   6.118
 3180POPC   D2A43684  16.359  41.999   6.386
 3180POPC   C3A43685  16.270  42.010   6.864
 3180POPC   C4A43686  15.915  41.878   7.117
 3180POPC   C1B43687  15.832  41.440   6.274
 3180POPC   C2B43688  16.121  41.605   6.561
 3180POPC   C3B43689  16.207  41.483   6.961
 3180POPC   C4B43690  15.807  41.371   7.106
 3181POPC   NC343691  16.473  24.753   5.504
 3181POPC   PO443692  15.774  24.528   5.392
 3181POPC   GL143693  15.788  24.501   5.819
 3181POPC   GL243694  16.163  24.491   5.838
 3181POPC   C1A43695  15.859  24.303   6.224
 3181POPC   D2A43696  16.017  24.371   6.636
 3181POPC   C3A43697  15.884  24.183   7.016
 3181POPC   C4A43698  15.710  24.525   7.260
 3181POPC   C1B43699  16.403  24.588   6.221
 3181POPC   C2B43700  16.355  24.736   6.642
 3181POPC   C3B43701  16.285  24.529   7.054
 3181POPC   C4B43702  16.160  24.667   7.453
 3182POPC   NC343703  26.472   1.782   5.440
 3182POPC   PO443704  26.996   2.153   5.464
 3182POPC   GL143705  27.070   1.937   5.847
 3182POPC   GL243706  26.767   1.813   5.837
 3182POPC   C1A43707  26.958   1.851   6.304
 3182POPC   D2A43708  26.958   1.678   6.740
 3182POPC   C3A43709  26.902   1.986   7.106
 3182POPC   C4A43710  27.111   2.364   7.164
 3182POPC   C1B43711  26.426   1.711   6.103
 3182POPC   C2B43712  26.488   1.689   6.533
 3182POPC   C3B43713  26.431   1.875   6.951
 3182POPC   C4B43714  26.475   1.864   7.383
 3183POPC   NC343715  30.452  29.513   5.397
 3183POPC   PO443716  30.626  28.986   5.636
 3183POPC   GL143717  30.681  29.179   5.951
 3183POPC   GL243718  30.446  29.444   5.895
 3183POPC   C1A43719  30.853  29.048   6.340
 3183POPC   D2A43720  31.026  29.035   6.746
 3183POPC   C3A43721  30.726  29.013   7.076
 3183POPC   C4A43722  30.627  29.235   7.457
 3183POPC   C1B43723  30.632  29.532   6.300
 3183POPC   C2B43724  30.607  29.328   6.687
 3183POPC   C3B43725  30.452  29.485   7.057
 3183POPC   C4B43726  30.301  29.630   7.468
 3184POPC   NC343727  38.379  16.613   5.454
 3184POPC   PO443728  39.073  16.669   5.497
 3184POPC   GL143729  38.757  16.825   5.749
 3184POPC   GL243730  38.670  16.510   5.874
 3184POPC   C1A43731  38.695  16.934   6.176
 3184POPC   D2A43732  38.654  17.105   6.600
 3184POPC   C3A43733  38.429  16.884   6.904
 3184POPC   C4A43734  38.580  16.582   7.209
 3184POPC   C1B43735  38.423  16.466   6.298
 3184POPC   C2B43736  38.213  16.417   6.738
 3184POPC   C3B43737  38.095  16.570   7.157
 3184POPC   C4B43738  38.073  16.332   7.574
 3185POPC   NC343739  43.132  25.722   5.528
 3185POPC   PO443740  43.000  26.446   5.470
 3185POPC   GL143741  42.846  26.114   5.768
 3185POPC   GL243742  43.181  26.165   5.939
 3185POPC   C1A43743  42.856  25.902   6.199
 3185POPC   D2A43744  43.236  25.971   6.484
 3185POPC   C3A43745  43.153  25.871   6.943
 3185POPC   C4A43746  42.905  25.851   7.324
 3185POPC   C1B43747  43.464  26.409   6.233
 3185POPC   C2B43748  43.559  26.360   6.659
 3185POPC   C3B43749  43.396  26.298   7.067
 3185POPC   C4B43750  43.345  26.065   7.421
 3186POPC   NC343751  41.347  19.436   5.471
 3186POPC   PO443752  41.293  18.785   5.479
 3186POPC   GL143753  41.448  19.036   5.815
 3186POPC   GL243754  41.755  19.196   5.731
 3186POPC   C1A43755  41.551  19.007   6.250
 3186POPC   D2A43756  41.713  18.940   6.669
 3186POPC   C3A43757  41.472  18.952   7.049
 3186POPC   C4A43758  41.531  18.627   7.367
 3186POPC   C1B43759  41.717  19.504   6.047
 3186POPC   C2B43760  41.641  19.472   6.456
 3186POPC   C3B43761  41.604  19.438   6.887
 3186POPC   C4B43762  41.808  19.331   7.235
 3187POPC   NC343763   7.643   6.120   5.599
 3187POPC   PO443764   7.423   6.789   5.454
 3187POPC   GL143765   7.252   6.770   5.838
 3187POPC   GL243766   7.146   6.433   5.782
 3187POPC   C1A43767   7.288   6.824   6.266
 3187POPC   D2A43768   7.503   6.599   6.559
 3187POPC   C3A43769   7.420   6.812   6.904
 3187POPC   C4A43770   7.517   6.916   7.293
 3187POPC   C1B43771   7.226   6.302   6.203
 3187POPC   C2B43772   7.287   6.129   6.638
 3187POPC   C3B43773   7.290   6.309   7.068
 3187POPC   C4B43774   7.248   6.535   7.496
 3188POPC   NC343775  41.764   6.309   5.396
 3188POPC   PO443776  41.340   6.930   5.476
 3188POPC   GL143777  41.544   6.794   5.833
 3188POPC   GL243778  41.891   6.664   5.784
 3188POPC   C1A43779  41.457   6.630   6.230
 3188POPC   D2A43780  41.285   6.329   6.500
 3188POPC   C3A43781  41.442   6.428   6.917
 3188POPC   C4A43782  41.491   6.616   7.343
 3188POPC   C1B43783  41.920   6.372   6.145
 3188POPC   C2B43784  41.851   6.395   6.597
 3188POPC   C3B43785  41.926   6.565   7.024
 3188POPC   C4B43786  41.942   6.371   7.435
 3189POPC   NC343787  38.722  43.813   4.903
 3189POPC   PO443788  38.464  44.198   5.447
 3189POPC   GL143789  38.547  44.102   5.840
 3189POPC   GL243790  38.589  43.741   5.832
 3189POPC   C1A43791  38.529  44.076   6.273
 3189POPC   D2A43792  38.366  43.826   6.575
 3189POPC   C3A43793  38.449  43.859   6.990
 3189POPC   C4A43794  38.366  43.447   7.153
 3189POPC   C1B43795  38.671  43.565   6.251
 3189POPC   C2B43796  38.758  43.520   6.704
 3189POPC   C3B43797  38.883  43.624   7.109
 3189POPC   C4B43798  38.812  43.821   7.522
 3190POPC   NC343799   1.661   4.628   5.455
 3190POPC   PO443800   1.941   4.076   5.294
 3190POPC   GL143801   1.875   4.267   5.735
 3190POPC   GL243802   2.187   4.355   5.847
 3190POPC   C1A43803   1.846   4.298   6.224
 3190POPC   D2A43804   1.604   4.439   6.599
 3190POPC   C3A43805   1.839   4.612   6.931
 3190POPC   C4A43806   2.132   4.370   7.150
 3190POPC   C1B43807   2.225   4.682   6.196
 3190POPC   C2B43808   2.248   4.562   6.627
 3190POPC   C3B43809   2.046   4.166   6.693
 3190POPC   C4B43810   2.082   3.857   6.999
 3191POPC   NC343811  41.169  26.773   5.473
 3191POPC   PO443812  40.542  26.558   5.290
 3191POPC   GL143813  40.680  26.874   5.656
 3191POPC   GL243814  40.933  26.755   5.918
 3191POPC   C1A43815  40.549  27.083   6.081
 3191POPC   D2A43816  40.799  26.880   6.414
 3191POPC   C3A43817  40.762  26.888   6.837
 3191POPC   C4A43818  40.554  26.934   7.200
 3191POPC   C1B43819  40.957  26.431   6.241
 3191POPC   C2B43820  40.660  26.318   6.569
 3191POPC   C3B43821  40.739  26.368   7.004
 3191POPC   C4B43822  41.009  26.627   7.219
 3192POPC   NC343823   3.209  32.920   5.256
 3192POPC   PO443824   3.835  33.140   5.447
 3192POPC   GL143825   3.540  33.167   5.800
 3192POPC   GL243826   3.396  32.858   5.725
 3192POPC   C1A43827   3.443  32.980   6.219
 3192POPC   D2A43828   3.387  33.061   6.642
 3192POPC   C3A43829   3.693  32.886   6.877
 3192POPC   C4A43830   3.652  33.005   7.277
 3192POPC   C1B43831   3.152  32.617   5.988
 3192POPC   C2B43832   3.088  32.654   6.451
 3192POPC   C3B43833   3.256  32.622   6.908
 3192POPC   C4B43834   3.202  32.793   7.319
 3193POPC   NC343835   0.246  42.221   5.340
 3193POPC   PO443836   0.724  42.597   5.624
 3193POPC   GL143837   0.318  42.459   5.807
 3193POPC   GL243838   0.041  42.225   5.808
 3193POPC   C1A43839   0.127  42.537   6.203
 3193POPC   D2A43840   0.335  42.707   6.583
 3193POPC   C3A43841   0.687  42.656   6.734
 3193POPC   C4A43842   0.739  42.477   7.114
 3193POPC   C1B43843   0.260  42.014   6.119
 3193POPC   C2B43844   0.475  42.210   6.439
 3193POPC   C3B43845   0.383  42.228   6.844
 3193POPC   C4B43846   0.080  42.058   7.084
 3194POPC   NC343847  29.593  22.371   5.278
 3194POPC   PO443848  29.853  21.829   5.260
 3194POPC   GL143849  29.713  21.912   5.718
 3194POPC   GL243850  29.610  22.292   5.793
 3194POPC   C1A43851  29.789  22.015   6.186
 3194POPC   D2A43852  29.551  22.104   6.580
 3194POPC   C3A43853  29.646  22.047   6.987
 3194POPC   C4A43854  29.572  21.720   7.260
 3194POPC   C1B43855  29.505  22.447   6.228
 3194POPC   C2B43856  29.600  22.608   6.702
 3194POPC   C3B43857  29.779  22.552   7.150
 3194POPC   C4B43858  30.007  22.397   7.560
 3195POPC   NC343859  38.467  31.430   5.527
 3195POPC   PO443860  38.308  32.093   5.417
 3195POPC   GL143861  38.316  31.776   5.849
 3195POPC   GL243862  38.189  31.373   5.957
 3195POPC   C1A43863  38.431  31.686   6.299
 3195POPC   D2A43864  38.378  31.351   6.632
 3195POPC   C3A43865  38.366  31.500   7.072
 3195POPC   C4A43866  38.286  31.388   7.506
 3195POPC   C1B43867  38.587  31.203   6.146
 3195POPC   C2B43868  38.880  31.336   6.471
 3195POPC   C3B43869  38.819  31.230   6.907
 3195POPC   C4B43870  38.670  31.120   7.306
 3196POPC   NC343871   5.979  16.257   5.159
 3196POPC   PO443872   5.511  15.865   5.287
 3196POPC   GL143873   5.607  15.786   5.739
 3196POPC   GL243874   5.949  15.914   5.731
 3196POPC   C1A43875   5.779  15.777   6.189
 3196POPC   D2A43876   5.748  16.008   6.580
 3196POPC   C3A43877   5.904  15.831   6.950
 3196POPC   C4A43878   5.762  15.839   7.374
 3196POPC   C1B43879   6.150  16.177   6.011
 3196POPC   C2B43880   6.143  16.321   6.420
 3196POPC   C3B43881   6.190  16.266   6.834
 3196POPC   C4B43882   6.036  16.242   7.223
 3197POPC   NC343883  20.845  14.384   5.524
 3197POPC   PO443884  20.283  14.711   5.702
 3197POPC   GL143885  20.577  14.514   5.954
 3197POPC   GL243886  20.926  14.625   6.009
 3197POPC   C1A43887  20.518  14.377   6.347
 3197POPC   D2A43888  20.602  14.117   6.684
 3197POPC   C3A43889  20.279  14.111   6.937
 3197POPC   C4A43890  20.215  14.107   7.334
 3197POPC   C1B43891  20.680  14.853   6.353
 3197POPC   C2B43892  20.468  14.728   6.716
 3197POPC   C3B43893  20.608  14.501   7.063
 3197POPC   C4B43894  20.834  14.470   7.477
 3198POPC   NC343895  22.359  22.496   5.433
 3198POPC   PO443896  21.844  22.176   5.291
 3198POPC   GL143897  22.002  22.249   5.727
 3198POPC   GL243898  22.322  22.113   5.800
 3198POPC   C1A43899  21.918  22.302   6.165
 3198POPC   D2A43900  21.983  22.020   6.525
 3198POPC   C3A43901  22.004  22.128   6.978
 3198POPC   C4A43902  22.073  21.986   7.405
 3198POPC   C1B43903  22.411  22.214   6.249
 3198POPC   C2B43904  22.322  22.376   6.652
 3198POPC   C3B43905  22.464  22.323   7.076
 3198POPC   C4B43906  22.359  22.386   7.494
 3199POPC   NC343907   9.365  39.523   5.436
 3199POPC   PO443908   9.958  39.272   5.416
 3199POPC   GL143909   9.706  39.179   5.783
 3199POPC   GL243910   9.530  39.484   5.901
 3199POPC   C1A43911   9.795  39.159   6.235
 3199POPC   D2A43912  10.086  38.966   6.540
 3199POPC   C3A43913   9.922  38.975   6.965
 3199POPC   C4A43914   9.589  38.896   7.259
 3199POPC   C1B43915   9.497  39.574   6.310
 3199POPC   C2B43916   9.639  39.624   6.688
 3199POPC   C3B43917   9.557  39.348   6.994
 3199POPC   C4B43918   9.855  39.365   7.301
 3200POPC   NC343919  30.359  12.221   5.235
 3200POPC   PO443920  30.996  12.299   5.329
 3200POPC   GL143921  30.806  12.160   5.742
 3200POPC   GL243922  30.485  12.008   5.774
 3200POPC   C1A43923  30.944  11.859   6.098
 3200POPC   D2A43924  31.029  11.819   6.563
 3200POPC   C3A43925  30.829  12.123   6.841
 3200POPC   C4A43926  30.572  12.319   7.163
 3200POPC   C1B43927  30.429  11.814   6.221
 3200POPC   C2B43928  30.247  11.806   6.663
 3200POPC   C3B43929  30.448  11.804   7.088
 3200POPC   C4B43930  30.894  11.736   7.151
 3201POPC   NC343931  42.628  23.810   5.378
 3201POPC   PO443932  43.199  23.986   5.243
 3201POPC   GL143933  43.094  23.710   5.627
 3201POPC   GL243934  42.835  23.448   5.676
 3201POPC   C1A43935  43.188  23.527   6.068
 3201POPC   D2A43936  43.429  23.538   6.465
 3201POPC   C3A43937  43.307  23.380   6.881
 3201POPC   C4A43938  43.469  23.557   7.295
 3201POPC   C1B43939  42.676  23.470   6.115
 3201POPC   C2B43940  42.827  23.394   6.525
 3201POPC   C3B43941  42.730  23.398   6.947
 3201POPC   C4B43942  42.998  23.633   7.217
 3202POPC   NC343943   3.369   5.059   5.311
 3202POPC   PO443944   3.272   5.656   5.701
 3202POPC   GL143945   3.325   5.265   5.794
 3202POPC   GL243946   3.648   5.155   5.917
 3202POPC   C1A43947   3.212   5.076   6.155
 3202POPC   D2A43948   3.477   4.996   6.473
 3202POPC   C3A43949   3.356   4.958   6.878
 3202POPC   C4A43950   3.558   5.193   7.191
 3202POPC   C1B43951   3.774   4.772   6.095
 3202POPC   C2B43952   3.854   4.674   6.510
 3202POPC   C3B43953   3.877   4.993   6.848
 3202POPC   C4B43954   3.968   4.892   7.307
 3203POPC   NC343955  34.812  41.454   5.528
 3203POPC   PO443956  34.336  41.845   5.430
 3203POPC   GL143957  34.434  41.663   5.808
 3203POPC   GL243958  34.720  41.839   5.885
 3203POPC   C1A43959  34.521  41.507   6.244
 3203POPC   D2A43960  34.509  41.214   6.607
 3203POPC   C3A43961  34.593  41.386   7.017
 3203POPC   C4A43962  34.449  41.699   7.320
 3203POPC   C1B43963  34.911  41.867   6.268
 3203POPC   C2B43964  34.863  41.625   6.643
 3203POPC   C3B43965  34.881  41.809   7.044
 3203POPC   C4B43966  35.034  41.920   7.438
 3204POPC   NC343967  15.300  18.353   5.467
 3204POPC   PO443968  15.054  17.779   5.598
 3204POPC   GL143969  15.103  18.072   5.979
 3204POPC   GL243970  15.137  18.460   5.955
 3204POPC   C1A43971  15.197  18.155   6.442
 3204POPC   D2A43972  15.137  18.272   6.896
 3204POPC   C3A43973  15.294  17.973   7.207
 3204POPC   C4A43974  15.221  17.977   7.648
 3204POPC   C1B43975  15.549  18.424   6.167
 3204POPC   C2B43976  15.701  18.423   6.611
 3204POPC   C3B43977  15.603  18.402   7.090
 3204POPC   C4B43978  15.632  18.311   7.563
 3205POPC   NC343979  22.642  26.594   5.447
 3205POPC   PO443980  23.187  27.080   5.511
 3205POPC   GL143981  22.875  26.950   5.839
 3205POPC   GL243982  22.862  26.578   5.899
 3205POPC   C1A43983  22.877  26.885   6.304
 3205POPC   D2A43984  23.098  26.787   6.679
 3205POPC   C3A43985  23.181  26.975   7.070
 3205POPC   C4A43986  23.284  26.746   7.444
 3205POPC   C1B43987  22.627  26.412   6.246
 3205POPC   C2B43988  22.574  26.584   6.652
 3205POPC   C3B43989  22.689  26.806   7.002
 3205POPC   C4B43990  22.485  26.930   7.342
 3206POPC   NC343991   5.018   2.246   5.404
 3206POPC   PO443992   5.444   1.948   5.046
 3206POPC   GL143993   5.294   1.880   5.580
 3206POPC   GL243994   4.904   1.883   5.735
 3206POPC   C1A43995   5.265   1.889   6.091
 3206POPC   D2A43996   5.368   2.054   6.537
 3206POPC   C3A43997   5.211   1.922   6.977
 3206POPC   C4A43998   5.127   2.095   7.403
 3206POPC   C1B43999   4.695   1.636   6.100
 3206POPC   C2B44000   4.682   1.459   6.543
 3206POPC   C3B44001   4.612   1.506   7.017
 3206POPC   C4B44002   4.672   1.938   7.237
 3207POPC   NC344003   7.329  14.912   5.246
 3207POPC   PO444004   7.404  14.276   5.535
 3207POPC   GL144005   7.393  14.371   5.922
 3207POPC   GL244006   7.445  14.722   5.862
 3207POPC   C1A44007   7.240  14.194   6.324
 3207POPC   D2A44008   7.173  14.120   6.753
 3207POPC   C3A44009   7.405  14.344   7.068
 3207POPC   C4A44010   7.475  14.379   7.474
 3207POPC   C1B44011   7.513  14.657   6.310
 3207POPC   C2B44012   7.261  14.627   6.667
 3207POPC   C3B44013   7.233  14.819   7.077
 3207POPC   C4B44014   7.604  14.868   7.330
 3208POPC   NC344015  43.876  40.305   5.210
 3208POPC   PO444016  44.030  40.888   5.297
 3208POPC   GL144017  43.967  40.613   5.645
 3208POPC   GL244018  44.152  40.838   5.808
 3208POPC   C1A44019  43.819  40.630   6.121
 3208POPC   D2A44020  43.651  40.776   6.531
 3208POPC   C3A44021  43.726  40.505   6.889
 3208POPC   C4A44022  43.698  40.626   7.303
 3208POPC   C1B44023  44.310  40.809   6.219
 3208POPC   C2B44024  44.152  40.849   6.614
 3208POPC   C3B44025  44.082  40.906   7.034
 3208POPC   C4B44026  44.171  40.708   7.428
 3209POPC   NC344027   6.969   6.751   5.401
 3209POPC   PO444028   6.474   6.361   5.443
 3209POPC   GL144029   6.507   6.739   5.741
 3209POPC   GL244030   6.784   6.998   5.808
 3209POPC   C1A44031   6.382   6.917   6.170
 3209POPC   D2A44032   6.513   6.711   6.559
 3209POPC   C3A44033   6.426   6.836   6.963
 3209POPC   C4A44034   6.524   6.552   7.276
 3209POPC   C1B44035   6.831   6.662   6.144
 3209POPC   C2B44036   6.992   6.563   6.581
 3209POPC   C3B44037   6.932   6.664   6.982
 3209POPC   C4B44038   6.912   6.888   7.320
 3210POPC   NC344039  42.110  13.004   5.064
 3210POPC   PO444040  42.570  12.875   5.496
 3210POPC   GL144041  42.468  12.781   5.913
 3210POPC   GL244042  42.681  13.067   5.970
 3210POPC   C1A44043  42.291  12.916   6.329
 3210POPC   D2A44044  42.030  13.201   6.611
 3210POPC   C3A44045  42.143  13.119   7.058
 3210POPC   C4A44046  42.186  12.693   7.201
 3210POPC   C1B44047  42.811  12.786   6.303
 3210POPC   C2B44048  42.647  12.616   6.671
 3210POPC   C3B44049  42.687  12.676   7.076
 3210POPC   C4B44050  42.567  12.925   7.439
 3211POPC   NC344051  28.833  11.901   5.391
 3211POPC   PO444052  29.521  11.948   5.527
 3211POPC   GL144053  29.320  11.957   5.897
 3211POPC   GL244054  29.076  12.207   5.745
 3211POPC   C1A44055  29.359  11.935   6.367
 3211POPC   D2A44056  29.181  11.921   6.776
 3211POPC   C3A44057  29.366  12.017   7.173
 3211POPC   C4A44058  29.254  11.827   7.578
 3211POPC   C1B44059  28.981  12.236   6.173
 3211POPC   C2B44060  28.803  12.202   6.590
 3211POPC   C3B44061  28.987  12.345   6.994
 3211POPC   C4B44062  28.912  12.478   7.439
 3212POPC   NC344063  15.261  15.775   5.478
 3212POPC   PO444064  15.643  16.352   5.352
 3212POPC   GL144065  15.590  16.083   5.729
 3212POPC   GL244066  15.226  16.091   5.938
 3212POPC   C1A44067  15.685  16.016   6.159
 3212POPC   D2A44068  15.393  16.251   6.424
 3212POPC   C3A44069  15.398  16.115   6.833
 3212POPC   C4A44070  15.192  15.909   7.192
 3212POPC   C1B44071  14.884  16.020   6.331
 3212POPC   C2B44072  14.728  15.872   6.801
 3212POPC   C3B44073  14.801  15.581   7.193
 3212POPC   C4B44074  15.055  15.614   7.608
 3213POPC   NC344075   1.013  17.064   5.503
 3213POPC   PO444076   1.062  16.324   5.457
 3213POPC   GL144077   1.004  16.685   5.853
 3213POPC   GL244078   1.312  16.956   5.923
 3213POPC   C1A44079   0.934  16.974   6.215
 3213POPC   D2A44080   1.177  17.074   6.558
 3213POPC   C3A44081   1.137  16.704   6.789
 3213POPC   C4A44082   1.076  16.626   7.207
 3213POPC   C1B44083   1.362  16.639   6.267
 3213POPC   C2B44084   1.604  16.563   6.660
 3213POPC   C3B44085   1.606  16.688   7.094
 3213POPC   C4B44086   1.735  17.073   7.308
 3214POPC   NC344087  41.345  25.787   5.343
 3214POPC   PO444088  41.956  25.972   5.531
 3214POPC   GL144089  41.778  26.013   5.898
 3214POPC   GL244090  41.457  25.924   5.835
 3214POPC   C1A44091  41.804  25.926   6.310
 3214POPC   D2A44092  41.621  26.141   6.666
 3214POPC   C3A44093  41.708  25.900   6.982
 3214POPC   C4A44094  41.456  25.773   7.287
 3214POPC   C1B44095  41.272  26.016   6.233
 3214POPC   C2B44096  41.103  26.062   6.664
 3214POPC   C3B44097  41.255  26.199   7.078
 3214POPC   C4B44098  41.367  26.368   7.514
 3215POPC   NC344099   9.779  12.312   5.387
 3215POPC   PO444100   9.624  11.782   5.686
 3215POPC   GL144101   9.562  12.158   5.859
 3215POPC   GL244102   9.922  12.204   5.880
 3215POPC   C1A44103   9.539  12.184   6.294
 3215POPC   D2A44104   9.581  12.403   6.648
 3215POPC   C3A44105   9.447  12.217   7.005
 3215POPC   C4A44106   9.656  12.110   7.344
 3215POPC   C1B44107  10.003  11.938   6.262
 3215POPC   C2B44108   9.903  11.978   6.702
 3215POPC   C3B44109   9.989  12.296   7.004
 3215POPC   C4B44110  10.138  12.280   7.421
 3216POPC   NC344111  32.514  10.932   5.335
 3216POPC   PO444112  32.096  10.359   5.541
 3216POPC   GL144113  32.161  10.529   5.908
 3216POPC   GL244114  32.354  10.808   5.819
 3216POPC   C1A44115  32.016  10.705   6.297
 3216POPC   D2A44116  31.843  10.731   6.717
 3216POPC   C3A44117  32.080  10.572   7.045
 3216POPC   C4A44118  32.123  10.291   7.324
 3216POPC   C1B44119  32.523  10.647   6.235
 3216POPC   C2B44120  32.393  10.573   6.658
 3216POPC   C3B44121  32.574  10.501   7.114
 3216POPC   C4B44122  32.460  10.616   7.550
 3217POPC   NC344123  39.126  25.684   5.269
 3217POPC   PO444124  39.450  26.290   5.384
 3217POPC   GL144125  39.326  26.150   5.761
 3217POPC   GL244126  39.154  25.879   5.739
 3217POPC   C1A44127  39.230  26.233   6.177
 3217POPC   D2A44128  38.910  26.303   6.448
 3217POPC   C3A44129  39.065  26.156   6.821
 3217POPC   C4A44130  39.134  26.137   7.240
 3217POPC   C1B44131  39.397  25.755   6.093
 3217POPC   C2B44132  39.234  25.765   6.479
 3217POPC   C3B44133  39.316  25.718   6.887
 3217POPC   C4B44134  39.282  25.672   7.297
 3218POPC   NC344135  44.920  26.077   5.209
 3218POPC   PO444136   0.517  26.304   5.491
 3218POPC   GL144137   0.520  26.001   5.882
 3218POPC   GL244138   0.191  25.817   5.978
 3218POPC   C1A44139   0.569  25.883   6.309
 3218POPC   D2A44140   0.723  26.157   6.574
 3218POPC   C3A44141   0.661  26.086   6.947
 3218POPC   C4A44142   0.840  26.206   7.343
 3218POPC   C1B44143   0.036  26.062   6.316
 3218POPC   C2B44144   0.162  26.099   6.740
 3218POPC   C3B44145   0.023  26.096   7.165
 3218POPC   C4B44146   0.231  26.098   7.573
 3219POPC   NC344147   9.722   0.657   5.653
 3219POPC   PO444148  10.095   0.135   5.664
 3219POPC   GL144149   9.887   0.320   6.005
 3219POPC   GL244150   9.564   0.219   5.950
 3219POPC   C1A44151   9.739   0.608   6.335
 3219POPC   D2A44152   9.500   0.540   6.691
 3219POPC   C3A44153   9.623   0.582   7.081
 3219POPC   C4A44154   9.808   0.344   7.380
 3219POPC   C1B44155   9.326   0.275   6.295
 3219POPC   C2B44156   9.356   0.051   6.694
 3219POPC   C3B44157   9.324   0.183   7.100
 3219POPC   C4B44158   9.311   0.337   7.490
 3220POPC   NC344159  36.218   0.031   5.500
 3220POPC   PO444160  36.071   0.713   5.398
 3220POPC   GL144161  36.134   0.472   5.775
 3220POPC   GL244162  35.834   0.258   5.783
 3220POPC   C1A44163  36.253   0.302   6.212
 3220POPC   D2A44164  36.485   0.276   6.635
 3220POPC   C3A44165  36.230   0.515   6.962
 3220POPC   C4A44166  35.789   0.663   7.043
 3220POPC   C1B44167  35.732   0.133   6.206
 3220POPC   C2B44168  35.860   0.275   6.638
 3220POPC   C3B44169  35.789   0.128   7.058
 3220POPC   C4B44170  36.107   0.062   7.336
 3221POPC   NC344171  22.421   1.496   5.260
 3221POPC   PO444172  21.899   0.971   5.361
 3221POPC   GL144173  21.870   1.098   5.793
 3221POPC   GL244174  22.194   1.141   5.842
 3221POPC   C1A44175  21.929   1.329   6.225
 3221POPC   D2A44176  21.754   1.474   6.619
 3221POPC   C3A44177  21.687   1.127   6.870
 3221POPC   C4A44178  21.773   1.019   7.313
 3221POPC   C1B44179  22.408   1.103   6.246
 3221POPC   C2B44180  22.405   1.268   6.667
 3221POPC   C3B44181  22.246   1.103   7.067
 3221POPC   C4B44182  22.545   0.876   7.313
 3222POPC   NC344183  42.447  39.949   5.383
 3222POPC   PO444184  41.858  40.334   5.442
 3222POPC   GL144185  42.143  40.079   5.763
 3222POPC   GL244186  41.959  39.872   5.950
 3222POPC   C1A44187  42.444  39.868   6.110
 3222POPC   D2A44188  42.571  39.732   6.540
 3222POPC   C3A44189  42.522  39.885   6.989
 3222POPC   C4A44190  42.203  39.816   7.312
 3222POPC   C1B44191  42.081  40.186   6.260
 3222POPC   C2B44192  42.204  40.121   6.665
 3222POPC   C3B44193  41.979  40.197   7.027
 3222POPC   C4B44194  42.140  40.315   7.406
 3223POPC   NC344195  23.194   3.026   5.156
 3223POPC   PO444196  22.874   2.438   5.346
 3223POPC   GL144197  22.891   2.646   5.762
 3223POPC   GL244198  23.127   2.936   5.762
 3223POPC   C1A44199  22.882   2.787   6.205
 3223POPC   D2A44200  22.953   2.600   6.594
 3223POPC   C3A44201  22.680   2.670   6.933
 3223POPC   C4A44202  22.749   2.921   7.291
 3223POPC   C1B44203  23.321   3.074   6.162
 3223POPC   C2B44204  23.368   2.925   6.588
 3223POPC   C3B44205  23.166   2.899   6.997
 3223POPC   C4B44206  23.238   2.913   7.472
 3224POPC   NC344207  35.685  32.658   5.402
 3224POPC   PO444208  35.059  32.258   5.340
 3224POPC   GL144209  35.247  32.240   5.751
 3224POPC   GL244210  35.498  32.482   5.857
 3224POPC   C1A44211  35.200  32.258   6.202
 3224POPC   D2A44212  35.419  32.410   6.560
 3224POPC   C3A44213  35.188  32.294   6.894
 3224POPC   C4A44214  35.076  32.373   7.310
 3224POPC   C1B44215  35.706  32.150   6.149
 3224POPC   C2B44216  35.751  31.951   6.569
 3224POPC   C3B44217  35.636  31.999   7.012
 3224POPC   C4B44218  35.565  32.407   7.201
 3225POPC   NC344219  24.960  39.950   5.376
 3225POPC   PO444220  25.518  40.307   5.226
 3225POPC   GL144221  25.431  40.220   5.725
 3225POPC   GL244222  25.113  40.162   5.806
 3225POPC   C1A44223  25.496  39.973   6.129
 3225POPC   D2A44224  25.328  39.838   6.520
 3225POPC   C3A44225  25.587  39.741   6.887
 3225POPC   C4A44226  25.400  39.932   7.244
 3225POPC   C1B44227  24.959  39.865   6.077
 3225POPC   C2B44228  24.808  39.779   6.494
 3225POPC   C3B44229  24.978  39.844   6.900
 3225POPC   C4B44230  24.930  39.798   7.337
 3226POPC   NC344231   3.352  41.317   5.443
 3226POPC   PO444232   3.519  40.645   5.303
 3226POPC   GL144233   3.435  40.732   5.748
 3226POPC   GL244234   3.732  40.793   5.900
 3226POPC   C1A44235   3.426  40.528   6.191
 3226POPC   D2A44236   3.237  40.606   6.578
 3226POPC   C3A44237   3.443  40.890   6.837
 3226POPC   C4A44238   3.350  40.790   7.295
 3226POPC   C1B44239   3.728  40.891   6.362
 3226POPC   C2B44240   3.755  40.512   6.635
 3226POPC   C3B44241   3.767  40.579   7.063
 3226POPC   C4B44242   3.813  41.022   7.211
 3227POPC   NC344243  23.563  26.769   5.473
 3227POPC   PO444244  24.171  27.088   5.497
 3227POPC   GL144245  23.919  26.915   5.851
 3227POPC   GL244246  23.594  27.112   5.841
 3227POPC   C1A44247  23.743  26.608   6.187
 3227POPC   D2A44248  23.458  26.455   6.556
 3227POPC   C3A44249  23.536  26.616   6.984
 3227POPC   C4A44250  23.918  26.483   7.164
 3227POPC   C1B44251  23.400  27.006   6.241
 3227POPC   C2B44252  23.619  26.964   6.631
 3227POPC   C3B44253  23.921  26.977   6.994
 3227POPC   C4B44254  23.695  27.033   7.359
 3228POPC   NC344255   2.337  35.641   5.436
 3228POPC   PO444256   2.901  35.284   5.354
 3228POPC   GL144257   2.924  35.487   5.765
 3228POPC   GL244258   2.590  35.602   5.875
 3228POPC   C1A44259   2.996  35.387   6.213
 3228POPC   D2A44260   2.803  35.076   6.499
 3228POPC   C3A44261   2.735  35.171   6.942
 3228POPC   C4A44262   2.998  35.363   7.281
 3228POPC   C1B44263   2.494  35.478   6.302
 3228POPC   C2B44264   2.724  35.605   6.689
 3228POPC   C3B44265   2.585  35.644   7.125
 3228POPC   C4B44266   2.230  35.665   7.431
 3229POPC   NC344267  39.405  43.450   5.538
 3229POPC   PO444268  39.431  44.043   5.246
 3229POPC   GL144269  39.116  44.041   5.608
 3229POPC   GL244270  39.382  43.906   5.782
 3229POPC   C1A44271  38.994  43.998   6.077
 3229POPC   D2A44272  38.989  43.927   6.525
 3229POPC   C3A44273  39.024  44.116   6.938
 3229POPC   C4A44274  39.251  43.930   7.272
 3229POPC   C1B44275  39.490  43.876   6.226
 3229POPC   C2B44276  39.749  43.975   6.582
 3229POPC   C3B44277  39.712  43.882   7.007
 3229POPC   C4B44278  39.722  43.993   7.437
 3230POPC   NC344279  24.762  36.158   5.011
 3230POPC   PO444280  24.261  36.195   5.234
 3230POPC   GL144281  24.189  36.138   5.722
 3230POPC   GL244282  24.320  35.810   5.851
 3230POPC   C1A44283  24.341  36.186   6.189
 3230POPC   D2A44284  24.373  35.993   6.616
 3230POPC   C3A44285  24.437  36.264   7.023
 3230POPC   C4A44286  24.814  36.415   7.267
 3230POPC   C1B44287  24.069  35.721   6.241
 3230POPC   C2B44288  23.980  35.657   6.705
 3230POPC   C3B44289  24.254  35.801   7.080
 3230POPC   C4B44290  24.685  35.884   7.282
 3231POPC   NC344291  40.825  43.853   5.318
 3231POPC   PO444292  40.685  44.359   5.598
 3231POPC   GL144293  40.780  44.003   5.848
 3231POPC   GL244294  40.654  43.654   5.785
 3231POPC   C1A44295  40.732  44.058   6.269
 3231POPC   D2A44296  40.700  43.810   6.649
 3231POPC   C3A44297  40.797  44.020   7.023
 3231POPC   C4A44298  40.610  44.159   7.362
 3231POPC   C1B44299  40.843  43.570   6.213
 3231POPC   C2B44300  41.117  43.507   6.604
 3231POPC   C3B44301  40.970  43.542   7.059
 3231POPC   C4B44302  40.621  43.630   7.351
 3232POPC   NC344303   5.815   1.678   5.198
 3232POPC   PO444304   5.641   1.044   5.514
 3232POPC   GL144305   5.902   1.152   5.845
 3232POPC   GL244306   6.196   0.996   5.868
 3232POPC   C1A44307   5.853   1.322   6.264
 3232POPC   D2A44308   5.737   1.421   6.690
 3232POPC   C3A44309   6.064   1.437   6.989
 3232POPC   C4A44310   5.793   1.343   7.316
 3232POPC   C1B44311   6.052   0.847   6.250
 3232POPC   C2B44312   6.107   1.026   6.631
 3232POPC   C3B44313   5.882   0.969   6.974
 3232POPC   C4B44314   5.970   0.843   7.363
 3233POPC   NC344315   2.259  27.109   5.466
 3233POPC   PO444316   1.838  26.595   5.358
 3233POPC   GL144317   1.864  26.644   5.802
 3233POPC   GL244318   2.164  26.427   5.831
 3233POPC   C1A44319   1.716  26.909   6.170
 3233POPC   D2A44320   1.637  27.159   6.558
 3233POPC   C3A44321   1.744  26.854   6.898
 3233POPC   C4A44322   1.963  26.714   7.259
 3233POPC   C1B44323   2.144  26.612   6.275
 3233POPC   C2B44324   2.216  26.761   6.724
 3233POPC   C3B44325   2.456  26.681   7.117
 3233POPC   C4B44326   2.344  26.494   7.537
 3234POPC   NC344327  16.177   1.459   5.526
 3234POPC   PO444328  16.751   1.118   5.311
 3234POPC   GL144329  16.611   1.199   5.763
 3234POPC   GL244330  16.950   1.097   5.841
 3234POPC   C1A44331  16.517   1.212   6.256
 3234POPC   D2A44332  16.463   1.156   6.745
 3234POPC   C3A44333  16.603   1.460   7.065
 3234POPC   C4A44334  16.546   1.439   7.558
 3234POPC   C1B44335  16.975   1.427   6.171
 3234POPC   C2B44336  17.203   1.428   6.593
 3234POPC   C3B44337  17.108   1.519   6.986
 3234POPC   C4B44338  17.039   1.241   7.256
 3235POPC   NC344339  27.940  41.015   5.032
 3235POPC   PO444340  27.895  40.620   5.598
 3235POPC   GL144341  27.585  40.609   5.897
 3235POPC   GL244342  27.355  40.814   5.876
 3235POPC   C1A44343  27.706  40.651   6.296
 3235POPC   D2A44344  27.855  40.828   6.629
 3235POPC   C3A44345  27.699  40.677   7.007
 3235POPC   C4A44346  27.740  40.652   7.465
 3235POPC   C1B44347  27.198  40.705   6.248
 3235POPC   C2B44348  27.326  40.846   6.627
 3235POPC   C3B44349  27.180  40.740   6.994
 3235POPC   C4B44350  27.329  40.908   7.310
 3236POPC   NC344351  33.297  39.758   5.427
 3236POPC   PO444352  32.755  40.187   5.404
 3236POPC   GL144353  32.999  40.085   5.783
 3236POPC   GL244354  32.879  39.751   5.746
 3236POPC   C1A44355  33.099  39.901   6.216
 3236POPC   D2A44356  32.918  39.897   6.656
 3236POPC   C3A44357  33.153  40.054   7.021
 3236POPC   C4A44358  33.239  40.252   7.421
 3236POPC   C1B44359  32.651  39.603   6.097
 3236POPC   C2B44360  32.685  39.462   6.512
 3236POPC   C3B44361  32.998  39.405   6.804
 3236POPC   C4B44362  32.957  39.600   7.188
 3237POPC   NC344363   5.990  43.242   5.298
 3237POPC   PO444364   5.378  43.079   5.172
 3237POPC   GL144365   5.626  43.128   5.644
 3237POPC   GL244366   6.002  42.995   5.753
 3237POPC   C1A44367   5.639  43.084   6.113
 3237POPC   D2A44368   5.896  42.945   6.498
 3237POPC   C3A44369   5.665  43.019   6.876
 3237POPC   C4A44370   5.738  43.189   7.263
 3237POPC   C1B44371   6.141  43.242   6.107
 3237POPC   C2B44372   5.924  43.470   6.419
 3237POPC   C3B44373   5.896  43.468   6.835
 3237POPC   C4B44374   6.201  43.309   7.128
 3238POPC   NC344375  38.542  21.326   5.402
 3238POPC   PO444376  38.119  21.741   5.705
 3238POPC   GL144377  38.459  21.521   5.860
 3238POPC   GL244378  38.330  21.179   5.830
 3238POPC   C1A44379  38.635  21.602   6.244
 3238POPC   D2A44380  38.267  21.654   6.515
 3238POPC   C3A44381  38.220  21.569   6.962
 3238POPC   C4A44382  38.480  21.623   7.317
 3238POPC   C1B44383  38.339  21.182   6.261
 3238POPC   C2B44384  38.129  21.143   6.645
 3238POPC   C3B44385  38.030  21.074   7.072
 3238POPC   C4B44386  38.208  21.215   7.495
 3239POPC   NC344387  34.547   8.482   5.052
 3239POPC   PO444388  34.501   7.896   5.395
 3239POPC   GL144389  34.385   7.845   5.849
 3239POPC   GL244390  34.211   8.150   5.908
 3239POPC   C1A44391  34.431   7.851   6.319
 3239POPC   D2A44392  34.459   8.142   6.676
 3239POPC   C3A44393  34.548   8.053   7.091
 3239POPC   C4A44394  34.935   8.046   7.283
 3239POPC   C1B44395  34.412   8.424   6.185
 3239POPC   C2B44396  34.288   8.616   6.586
 3239POPC   C3B44397  34.386   8.542   7.032
 3239POPC   C4B44398  34.487   8.455   7.491
 3240POPC   NC344399   1.343  21.043   5.364
 3240POPC   PO444400   1.124  20.358   5.464
 3240POPC   GL144401   1.333  20.394   5.826
 3240POPC   GL244402   1.385  20.752   5.797
 3240POPC   C1A44403   1.087  20.383   6.198
 3240POPC   D2A44404   0.985  20.611   6.561
 3240POPC   C3A44405   1.095  20.498   6.948
 3240POPC   C4A44406   1.112  20.835   7.174
 3240POPC   C1B44407   1.402  20.781   6.234
 3240POPC   C2B44408   1.500  20.525   6.587
 3240POPC   C3B44409   1.559  20.725   6.964
 3240POPC   C4B44410   1.498  20.553   7.373
 3241POPC   NC344411  15.466  43.545   5.526
 3241POPC   PO444412  14.850  43.957   5.383
 3241POPC   GL144413  15.144  43.889   5.765
 3241POPC   GL244414  15.291  44.249   5.768
 3241POPC   C1A44415  15.327  43.666   6.186
 3241POPC   D2A44416  15.469  43.439   6.590
 3241POPC   C3A44417  15.295  43.577   6.977
 3241POPC   C4A44418  15.342  43.972   7.186
 3241POPC   C1B44419  15.150  44.157   6.213
 3241POPC   C2B44420  15.197  43.967   6.636
 3241POPC   C3B44421  14.900  43.915   6.969
 3241POPC   C4B44422  14.707  44.064   7.327
 3242POPC   NC344423  19.252   0.196   5.359
 3242POPC   PO444424  18.815   0.647   5.463
 3242POPC   GL144425  19.078   0.389   5.802
 3242POPC   GL244426  19.441   0.434   5.797
 3242POPC   C1A44427  19.245   0.115   6.164
 3242POPC   D2A44428  19.135   0.042   6.591
 3242POPC   C3A44429  19.114   0.432   6.787
 3242POPC   C4A44430  19.138   0.564   7.224
 3242POPC   C1B44431  19.299   0.641   6.212
 3242POPC   C2B44432  19.571   0.831   6.544
 3242POPC   C3B44433  19.686   0.903   6.996
 3242POPC   C4B44434  19.403   1.012   7.339
 3243POPC   NC344435   3.545   0.834   5.452
 3243POPC   PO444436   3.237   1.373   5.260
 3243POPC   GL144437   3.402   1.324   5.704
 3243POPC   GL244438   3.763   1.438   5.687
 3243POPC   C1A44439   3.296   1.119   6.140
 3243POPC   D2A44440   3.537   1.041   6.537
 3243POPC   C3A44441   3.388   1.000   6.962
 3243POPC   C4A44442   3.697   0.941   7.289
 3243POPC   C1B44443   3.773   1.288   6.116
 3243POPC   C2B44444   3.795   1.470   6.523
 3243POPC   C3B44445   3.652   1.442   6.945
 3243POPC   C4B44446   3.699   1.687   7.292
 3244POPC   NC344447  23.502  31.724   5.410
 3244POPC   PO444448  24.072  31.297   5.217
 3244POPC   GL144449  23.840  31.365   5.667
 3244POPC   GL244450  24.066  31.281   5.887
 3244POPC   C1A44451  23.790  31.648   6.137
 3244POPC   D2A44452  23.849  31.645   6.623
 3244POPC   C3A44453  23.531  31.498   6.938
 3244POPC   C4A44454  23.506  31.167   7.206
 3244POPC   C1B44455  23.914  31.184   6.311
 3244POPC   C2B44456  23.825  31.131   6.747
 3244POPC   C3B44457  23.988  31.327   7.114
 3244POPC   C4B44458  24.263  31.214   7.447
 3245POPC   NC344459  38.509  40.918   5.502
 3245POPC   PO444460  38.576  41.634   5.438
 3245POPC   GL144461  38.605  41.554   5.878
 3245POPC   GL244462  38.734  41.202   5.905
 3245POPC   C1A44463  38.457  41.521   6.315
 3245POPC   D2A44464  38.513  41.398   6.753
 3245POPC   C3A44465  38.186  41.470   7.027
 3245POPC   C4A44466  38.384  41.640   7.379
 3245POPC   C1B44467  38.907  41.238   6.329
 3245POPC   C2B44468  39.124  41.281   6.715
 3245POPC   C3B44469  38.939  41.281   7.120
 3245POPC   C4B44470  38.519  41.161   7.250
 3246POPC   NC344471  22.389  14.598   5.504
 3246POPC   PO444472  22.143  14.034   5.296
 3246POPC   GL144473  22.030  14.264   5.802
 3246POPC   GL244474  22.232  14.585   5.968
 3246POPC   C1A44475  22.115  14.287   6.332
 3246POPC   D2A44476  22.373  14.510   6.696
 3246POPC   C3A44477  22.190  14.501   7.065
 3246POPC   C4A44478  22.065  14.096   7.158
 3246POPC   C1B44479  22.593  14.481   6.244
 3246POPC   C2B44480  22.798  14.262   6.573
 3246POPC   C3B44481  22.660  14.252   7.028
 3246POPC   C4B44482  22.653  14.559   7.347
 3247POPC   NC344483  42.707  25.271   5.220
 3247POPC   PO444484  43.359  25.397   5.284
 3247POPC   GL144485  43.270  25.267   5.732
 3247POPC   GL244486  42.922  25.185   5.817
 3247POPC   C1A44487  43.209  25.519   6.142
 3247POPC   D2A44488  43.071  25.512   6.582
 3247POPC   C3A44489  43.234  25.350   6.964
 3247POPC   C4A44490  43.062  25.386   7.407
 3247POPC   C1B44491  43.011  25.061   6.239
 3247POPC   C2B44492  42.893  25.042   6.677
 3247POPC   C3B44493  42.746  25.057   7.099
 3247POPC   C4B44494  42.710  25.067   7.545
 3248POPC   NC344495  18.974  20.279   5.270
 3248POPC   PO444496  19.258  19.614   5.302
 3248POPC   GL144497  18.975  19.820   5.610
 3248POPC   GL244498  19.040  20.144   5.773
 3248POPC   C1A44499  18.958  19.738   6.087
 3248POPC   D2A44500  19.151  19.771   6.531
 3248POPC   C3A44501  18.885  19.782   6.894
 3248POPC   C4A44502  18.831  19.961   7.292
 3248POPC   C1B44503  19.265  20.146   6.181
 3248POPC   C2B44504  19.416  20.228   6.624
 3248POPC   C3B44505  19.244  20.125   6.994
 3248POPC   C4B44506  19.349  19.742   7.180
 3249POPC   NC344507  28.539  42.680   5.394
 3249POPC   PO444508  28.213  42.109   5.311
 3249POPC   GL144509  28.261  42.316   5.722
 3249POPC   GL244510  28.140  42.677   5.768
 3249POPC   C1A44511  28.401  42.245   6.153
 3249POPC   D2A44512  28.344  42.437   6.557
 3249POPC   C3A44513  28.334  42.157   6.906
 3249POPC   C4A44514  28.645  42.148   7.203
 3249POPC   C1B44515  27.971  42.521   6.168
 3249POPC   C2B44516  27.841  42.438   6.628
 3249POPC   C3B44517  28.123  42.623   6.996
 3249POPC   C4B44518  28.247  42.420   7.408
 3250POPC   NC344519   9.278  20.833   5.474
 3250POPC   PO444520   9.102  21.449   5.609
 3250POPC   GL144521   8.907  21.344   5.972
 3250POPC   GL244522   9.200  21.526   6.107
 3250POPC   C1A44523   8.846  21.241   6.388
 3250POPC   D2A44524   9.171  21.372   6.658
 3250POPC   C3A44525   9.094  21.184   7.008
 3250POPC   C4A44526   8.726  21.265   7.248
 3250POPC   C1B44527   8.965  21.735   6.367
 3250POPC   C2B44528   9.267  21.872   6.671
 3250POPC   C3B44529   9.549  21.780   6.989
 3250POPC   C4B44530   9.320  21.572   7.308
 3251POPC   NC344531   0.259   7.168   5.329
 3251POPC   PO444532   0.623   7.681   5.344
 3251POPC   GL144533   0.497   7.483   5.769
 3251POPC   GL244534   0.235   7.216   5.829
 3251POPC   C1A44535   0.343   7.522   6.232
 3251POPC   D2A44536   0.125   7.336   6.600
 3251POPC   C3A44537   0.202   7.512   7.011
 3251POPC   C4A44538   0.542   7.493   7.270
 3251POPC   C1B44539   0.590   7.101   6.105
 3251POPC   C2B44540   0.630   7.210   6.553
 3251POPC   C3B44541   0.441   7.065   6.948
 3251POPC   C4B44542   0.475   7.011   7.432
 3252POPC   NC344543   0.718  10.664   5.508
 3252POPC   PO444544   0.197  10.271   5.382
 3252POPC   GL144545   0.078  10.432   5.814
 3252POPC   GL244546   0.419  10.529   5.933
 3252POPC   C1A44547   0.065  10.530   6.294
 3252POPC   D2A44548   0.410  10.594   6.570
 3252POPC   C3A44549   0.273  10.582   6.958
 3252POPC   C4A44550   0.050  10.404   7.278
 3252POPC   C1B44551   0.735  10.735   6.202
 3252POPC   C2B44552   0.944  10.522   6.571
 3252POPC   C3B44553   0.789  10.404   6.998
 3252POPC   C4B44554   0.603  10.655   7.339
 3253POPC   NC344555  18.709  29.883   5.414
 3253POPC   PO444556  18.065  29.960   5.469
 3253POPC   GL144557  18.378  29.993   5.805
 3253POPC   GL244558  18.374  29.675   5.815
 3253POPC   C1A44559  18.483  29.934   6.280
 3253POPC   D2A44560  18.227  30.031   6.686
 3253POPC   C3A44561  18.320  29.827   7.079
 3253POPC   C4A44562  18.223  29.917   7.540
 3253POPC   C1B44563  18.073  29.679   6.131
 3253POPC   C2B44564  18.121  29.565   6.545
 3253POPC   C3B44565  17.876  29.614   6.929
 3253POPC   C4B44566  17.711  29.500   7.374
 3254POPC   NC344567  21.490  38.961   5.324
 3254POPC   PO444568  21.113  38.463   5.319
 3254POPC   GL144569  21.424  38.427   5.688
 3254POPC   GL244570  21.604  38.726   5.785
 3254POPC   C1A44571  21.467  38.415   6.165
 3254POPC   D2A44572  21.423  38.615   6.586
 3254POPC   C3A44573  21.377  38.385   7.000
 3254POPC   C4A44574  21.449  38.369   7.477
 3254POPC   C1B44575  21.658  38.932   6.193
 3254POPC   C2B44576  21.653  39.068   6.628
 3254POPC   C3B44577  21.589  38.864   7.028
 3254POPC   C4B44578  21.857  38.661   7.313
 3255POPC   NC344579   2.401  16.321   5.405
 3255POPC   PO444580   1.894  15.884   5.534
 3255POPC   GL144581   2.072  16.164   5.803
 3255POPC   GL244582   1.754  16.238   5.929
 3255POPC   C1A44583   2.176  16.071   6.237
 3255POPC   D2A44584   2.069  15.673   6.487
 3255POPC   C3A44585   2.114  15.647   6.946
 3255POPC   C4A44586   2.215  15.814   7.363
 3255POPC   C1B44587   1.679  16.124   6.369
 3255POPC   C2B44588   1.701  15.939   6.787
 3255POPC   C3B44589   1.714  15.859   7.238
 3255POPC   C4B44590   1.833  16.109   7.606
 3256POPC   NC344591  13.050   5.361   5.536
 3256POPC   PO444592  12.537   4.791   5.496
 3256POPC   GL144593  12.652   5.130   5.824
 3256POPC   GL244594  12.948   5.034   5.893
 3256POPC   C1A44595  12.758   5.273   6.304
 3256POPC   D2A44596  12.614   5.196   6.736
 3256POPC   C3A44597  12.766   5.170   7.149
 3256POPC   C4A44598  13.096   5.340   7.348
 3256POPC   C1B44599  13.243   5.190   6.207
 3256POPC   C2B44600  13.189   5.214   6.643
 3256POPC   C3B44601  13.359   5.047   7.002
 3256POPC   C4B44602  13.144   4.841   7.306
 3257POPC   NC344603  37.935  35.256   5.477
 3257POPC   PO444604  37.302  35.477   5.358
 3257POPC   GL144605  37.543  35.453   5.755
 3257POPC   GL244606  37.861  35.671   5.753
 3257POPC   C1A44607  37.564  35.300   6.187
 3257POPC   D2A44608  37.314  35.214   6.572
 3257POPC   C3A44609  37.492  35.279   7.003
 3257POPC   C4A44610  37.807  35.076   7.316
 3257POPC   C1B44611  37.961  35.646   6.188
 3257POPC   C2B44612  38.106  35.509   6.575
 3257POPC   C3B44613  37.951  35.479   6.961
 3257POPC   C4B44614  37.763  35.588   7.315
 3258POPC   NC344615  27.871  15.708   5.450
 3258POPC   PO444616  27.482  15.136   5.451
 3258POPC   GL144617  27.440  15.168   5.900
 3258POPC   GL244618  27.303  15.487   5.882
 3258POPC   C1A44619  27.680  15.049   6.287
 3258POPC   D2A44620  27.815  15.154   6.714
 3258POPC   C3A44621  27.596  14.949   7.063
 3258POPC   C4A44622  27.628  15.019   7.527
 3258POPC   C1B44623  27.012  15.557   6.205
 3258POPC   C2B44624  27.157  15.587   6.661
 3258POPC   C3B44625  27.470  15.473   7.004
 3258POPC   C4B44626  27.386  15.488   7.495
 3259POPC   NC344627   4.366  39.560   5.298
 3259POPC   PO444628   4.015  39.051   5.518
 3259POPC   GL144629   4.244  39.175   5.890
 3259POPC   GL244630   4.430  39.491   5.810
 3259POPC   C1A44631   4.280  39.016   6.333
 3259POPC   D2A44632   4.482  38.878   6.737
 3259POPC   C3A44633   4.334  39.122   7.111
 3259POPC   C4A44634   4.557  39.271   7.422
 3259POPC   C1B44635   4.320  39.536   6.263
 3259POPC   C2B44636   4.325  39.402   6.702
 3259POPC   C3B44637   4.268  39.631   7.118
 3259POPC   C4B44638   4.310  39.664   7.594
 3260POPC   NC344639   4.686  29.333   5.580
 3260POPC   PO444640   4.091  29.454   5.467
 3260POPC   GL144641   4.238  29.263   5.837
 3260POPC   GL244642   4.450  28.952   5.851
 3260POPC   C1A44643   4.397  29.290   6.241
 3260POPC   D2A44644   4.182  29.114   6.610
 3260POPC   C3A44645   4.333  29.188   7.031
 3260POPC   C4A44646   4.424  29.050   7.435
 3260POPC   C1B44647   4.508  28.807   6.307
 3260POPC   C2B44648   4.547  28.783   6.774
 3260POPC   C3B44649   4.193  28.707   7.092
 3260POPC   C4B44650   4.170  28.612   7.545
 3261POPC   NC344651  17.762  18.089   5.308
 3261POPC   PO444652  17.367  18.655   5.412
 3261POPC   GL144653  17.444  18.544   5.825
 3261POPC   GL244654  17.727  18.420   5.707
 3261POPC   C1A44655  17.482  18.503   6.285
 3261POPC   D2A44656  17.307  18.710   6.666
 3261POPC   C3A44657  17.186  18.471   7.012
 3261POPC   C4A44658  17.386  18.189   7.303
 3261POPC   C1B44659  17.945  18.546   6.060
 3261POPC   C2B44660  17.965  18.358   6.464
 3261POPC   C3B44661  17.711  18.335   6.834
 3261POPC   C4B44662  17.889  18.311   7.252
 3262POPC   NC344663  40.920   3.026   5.345
 3262POPC   PO444664  40.553   3.618   5.401
 3262POPC   GL144665  40.769   3.630   5.825
 3262POPC   GL244666  40.959   3.299   5.794
 3262POPC   C1A44667  40.766   3.813   6.291
 3262POPC   D2A44668  40.662   3.937   6.742
 3262POPC   C3A44669  40.492   3.651   7.052
 3262POPC   C4A44670  40.511   3.667   7.537
 3262POPC   C1B44671  40.867   3.310   6.232
 3262POPC   C2B44672  40.780   3.425   6.640
 3262POPC   C3B44673  40.988   3.550   6.986
 3262POPC   C4B44674  40.778   3.304   7.288
 3263POPC   NC344675   3.228  16.865   5.547
 3263POPC   PO444676   2.475  16.853   5.430
 3263POPC   GL144677   2.740  16.974   5.776
 3263POPC   GL244678   2.936  16.714   5.925
 3263POPC   C1A44679   2.702  17.073   6.194
 3263POPC   D2A44680   2.833  16.942   6.562
 3263POPC   C3A44681   2.545  17.021   6.872
 3263POPC   C4A44682   2.892  17.052   7.093
 3263POPC   C1B44683   2.541  16.576   6.102
 3263POPC   C2B44684   2.396  16.672   6.514
 3263POPC   C3B44685   2.461  16.525   6.947
 3263POPC   C4B44686   2.683  16.647   7.330
 3264POPC   NC344687  38.881   0.431   5.534
 3264POPC   PO444688  39.499   0.775   5.407
 3264POPC   GL144689  39.332   0.553   5.811
 3264POPC   GL244690  39.169   0.208   5.893
 3264POPC   C1A44691  39.522   0.455   6.238
 3264POPC   D2A44692  39.722   0.324   6.644
 3264POPC   C3A44693  39.460   0.325   7.006
 3264POPC   C4A44694  39.264   0.684   7.177
 3264POPC   C1B44695  39.006   0.375   6.304
 3264POPC   C2B44696  38.959   0.317   6.759
 3264POPC   C3B44697  38.948   0.245   7.169
 3264POPC   C4B44698  38.772   0.581   7.362
 3265POPC   NC344699  34.447  30.414   5.403
 3265POPC   PO444700  34.819  29.868   5.274
 3265POPC   GL144701  34.783  29.876   5.729
 3265POPC   GL244702  34.461  30.015   5.813
 3265POPC   C1A44703  34.752  29.784   6.187
 3265POPC   D2A44704  34.921  29.673   6.598
 3265POPC   C3A44705  34.675  29.656   6.971
 3265POPC   C4A44706  34.716  30.037   7.187
 3265POPC   C1B44707  34.318  30.081   6.260
 3265POPC   C2B44708  34.364  30.056   6.727
 3265POPC   C3B44709  34.230  30.175   7.182
 3265POPC   C4B44710  34.018  30.162   7.628
 3266POPC   NC344711  42.562  10.184   5.343
 3266POPC   PO444712  42.846   9.567   5.439
 3266POPC   GL144713  42.492   9.638   5.765
 3266POPC   GL244714  42.361   9.975   5.754
 3266POPC   C1A44715  42.423   9.545   6.247
 3266POPC   D2A44716  42.411   9.432   6.692
 3266POPC   C3A44717  42.340   9.765   7.010
 3266POPC   C4A44718  42.423  10.024   7.398
 3266POPC   C1B44719  42.131   9.941   6.115
 3266POPC   C2B44720  42.228   9.987   6.549
 3266POPC   C3B44721  42.020  10.165   6.909
 3266POPC   C4B44722  41.969  10.242   7.337
 3267POPC   NC344723   0.359  44.111   5.025
 3267POPC   PO444724   0.050  43.849   5.574
 3267POPC   GL144725   0.225  43.834   5.932
 3267POPC   GL244726   0.542  43.758   5.792
 3267POPC   C1A44727   0.327  44.008   6.330
 3267POPC   D2A44728   0.604  44.181   6.630
 3267POPC   C3A44729   0.553  44.033   7.030
 3267POPC   C4A44730   0.169  44.094   7.191
 3267POPC   C1B44731   0.597  43.592   6.188
 3267POPC   C2B44732   0.762  43.680   6.589
 3267POPC   C3B44733   0.775  43.451   6.932
 3267POPC   C4B44734   0.820  43.630   7.315
 3268POPC   NC344735  23.356  40.196   5.457
 3268POPC   PO444736  22.874  39.638   5.378
 3268POPC   GL144737  22.931  39.884   5.756
 3268POPC   GL244738  23.245  39.960   5.895
 3268POPC   C1A44739  22.738  39.980   6.156
 3268POPC   D2A44740  22.822  40.146   6.584
 3268POPC   C3A44741  22.720  39.978   6.967
 3268POPC   C4A44742  22.721  39.845   7.362
 3268POPC   C1B44743  23.215  39.905   6.327
 3268POPC   C2B44744  23.217  39.833   6.774
 3268POPC   C3B44745  23.218  39.848   7.225
 3268POPC   C4B44746  23.083  40.150   7.573
 3269POPC   NC344747   6.471  38.501   5.333
 3269POPC   PO444748   7.077  38.271   5.567
 3269POPC   GL144749   6.817  38.123   5.904
 3269POPC   GL244750   6.422  38.112   5.858
 3269POPC   C1A44751   6.812  38.221   6.352
 3269POPC   D2A44752   6.581  38.399   6.713
 3269POPC   C3A44753   6.860  38.541   7.015
 3269POPC   C4A44754   6.795  38.613   7.446
 3269POPC   C1B44755   6.301  38.361   6.271
 3269POPC   C2B44756   6.091  38.598   6.648
 3269POPC   C3B44757   6.306  38.736   7.057
 3269POPC   C4B44758   6.300  38.543   7.473
 3270POPC   NC344759  40.104  18.561   5.557
 3270POPC   PO444760  39.838  17.960   5.291
 3270POPC   GL144761  39.821  18.183   5.761
 3270POPC   GL244762  40.048  17.937   5.975
 3270POPC   C1A44763  39.815  18.433   6.188
 3270POPC   D2A44764  39.959  18.708   6.560
 3270POPC   C3A44765  40.088  18.562   6.958
 3270POPC   C4A44766  39.941  18.285   7.261
 3270POPC   C1B44767  40.291  18.195   6.278
 3270POPC   C2B44768  40.482  18.100   6.676
 3270POPC   C3B44769  40.355  18.059   7.099
 3270POPC   C4B44770  40.317  18.092   7.601
 3271POPC   NC344771  18.434  31.881   5.497
 3271POPC   PO444772  17.932  32.343   5.456
 3271POPC   GL144773  18.161  32.133   5.818
 3271POPC   GL244774  18.467  32.337   5.787
 3271POPC   C1A44775  18.460  32.007   6.174
 3271POPC   D2A44776  18.662  32.134   6.566
 3271POPC   C3A44777  18.350  32.172   6.904
 3271POPC   C4A44778  18.203  32.004   7.292
 3271POPC   C1B44779  18.630  32.514   6.198
 3271POPC   C2B44780  18.810  32.615   6.628
 3271POPC   C3B44781  18.610  32.605   7.071
 3271POPC   C4B44782  18.399  32.770   7.484
 3272POPC   NC344783  44.421   6.982   5.148
 3272POPC   PO444784  43.908   6.575   5.481
 3272POPC   GL144785  43.860   6.664   5.889
 3272POPC   GL244786  44.018   6.961   5.948
 3272POPC   C1A44787  43.938   6.535   6.287
 3272POPC   D2A44788  43.758   6.389   6.644
 3272POPC   C3A44789  43.854   6.620   7.017
 3272POPC   C4A44790  43.947   6.652   7.462
 3272POPC   C1B44791  44.283   6.898   6.312
 3272POPC   C2B44792  44.230   6.934   6.749
 3272POPC   C3B44793  44.213   6.978   7.182
 3272POPC   C4B44794  44.275   7.045   7.609
 3273POPC   NC344795  15.531   6.668   5.461
 3273POPC   PO444796  16.055   6.564   5.134
 3273POPC   GL144797  15.968   6.446   5.602
 3273POPC   GL244798  15.932   6.782   5.751
 3273POPC   C1A44799  16.072   6.406   6.083
 3273POPC   D2A44800  16.135   6.706   6.435
 3273POPC   C3A44801  16.140   6.624   6.895
 3273POPC   C4A44802  15.757   6.545   7.110
 3273POPC   C1B44803  15.858   7.033   6.082
 3273POPC   C2B44804  15.780   7.070   6.505
 3273POPC   C3B44805  15.782   7.032   6.935
 3273POPC   C4B44806  15.604   7.280   7.222
 3274POPC   NC344807  24.314  26.651   5.551
 3274POPC   PO444808  24.860  27.087   5.507
 3274POPC   GL144809  24.632  26.938   5.844
 3274POPC   GL244810  24.712  26.570   5.852
 3274POPC   C1A44811  24.336  26.793   6.182
 3274POPC   D2A44812  24.087  26.743   6.555
 3274POPC   C3A44813  24.353  26.699   6.908
 3274POPC   C4A44814  24.356  26.652   7.330
 3274POPC   C1B44815  24.854  26.748   6.259
 3274POPC   C2B44816  24.806  26.788   6.683
 3274POPC   C3B44817  24.799  26.913   7.093
 3274POPC   C4B44818  24.821  26.679   7.482
 3275POPC   NC344819  39.451  14.678   5.402
 3275POPC   PO444820  38.809  14.436   5.457
 3275POPC   GL144821  39.226  14.381   5.752
 3275POPC   GL244822  39.356  14.716   5.906
 3275POPC   C1A44823  39.459  14.283   6.189
 3275POPC   D2A44824  39.538  14.422   6.661
 3275POPC   C3A44825  39.298  14.205   7.037
 3275POPC   C4A44826  38.892  14.327   7.227
 3275POPC   C1B44827  39.414  14.916   6.332
 3275POPC   C2B44828  39.429  14.976   6.813
 3275POPC   C3B44829  39.482  14.669   7.152
 3275POPC   C4B44830  39.696  14.675   7.584
 3276POPC   NC344831  17.508   3.720   5.209
 3276POPC   PO444832  17.437   3.129   5.152
 3276POPC   GL144833  17.377   3.363   5.581
 3276POPC   GL244834  17.163   3.197   5.823
 3276POPC   C1A44835  17.375   3.659   5.982
 3276POPC   D2A44836  17.635   3.777   6.387
 3276POPC   C3A44837  17.445   3.765   6.844
 3276POPC   C4A44838  17.553   3.692   7.293
 3276POPC   C1B44839  17.529   3.178   6.089
 3276POPC   C2B44840  17.561   3.287   6.537
 3276POPC   C3B44841  17.826   3.415   6.897
 3276POPC   C4B44842  17.859   3.230   7.292
 3277POPC   NC344843  25.476  28.070   5.428
 3277POPC   PO444844  25.170  28.705   5.283
 3277POPC   GL144845  25.206  28.478   5.704
 3277POPC   GL244846  25.526  28.327   5.854
 3277POPC   C1A44847  24.983  28.546   6.111
 3277POPC   D2A44848  24.925  28.344   6.512
 3277POPC   C3A44849  25.056  28.526   6.881
 3277POPC   C4A44850  24.920  28.436   7.261
 3277POPC   C1B44851  25.391  28.265   6.280
 3277POPC   C2B44852  25.497  28.319   6.710
 3277POPC   C3B44853  25.362  28.174   7.117
 3277POPC   C4B44854  25.456  28.006   7.537
 3278POPC   NC344855  14.152  13.102   5.491
 3278POPC   PO444856  14.659  13.547   5.308
 3278POPC   GL144857  14.676  13.325   5.716
 3278POPC   GL244858  14.437  13.532   5.845
 3278POPC   C1A44859  14.660  13.202   6.178
 3278POPC   D2A44860  14.393  13.194   6.570
 3278POPC   C3A44861  14.380  13.514   6.945
 3278POPC   C4A44862  14.363  13.426   7.400
 3278POPC   C1B44863  14.792  13.682   6.113
 3278POPC   C2B44864  14.754  13.824   6.541
 3278POPC   C3B44865  14.680  13.958   6.958
 3278POPC   C4B44866  14.789  13.671   7.243
 3279POPC   NC344867  36.069   1.870   5.302
 3279POPC   PO444868  35.487   1.532   5.432
 3279POPC   GL144869  35.678   1.795   5.737
 3279POPC   GL244870  36.016   1.695   5.771
 3279POPC   C1A44871  35.815   2.013   6.108
 3279POPC   D2A44872  35.719   2.039   6.541
 3279POPC   C3A44873  36.036   2.179   6.825
 3279POPC   C4A44874  36.083   2.170   7.264
 3279POPC   C1B44875  36.305   1.741   6.097
 3279POPC   C2B44876  36.149   1.750   6.475
 3279POPC   C3B44877  36.249   1.556   6.819
 3279POPC   C4B44878  36.415   1.832   7.095
 3280POPC   NC344879  24.694   4.879   5.175
 3280POPC   PO444880  24.506   4.224   5.297
 3280POPC   GL144881  24.521   4.230   5.731
 3280POPC   GL244882  24.670   4.564   5.714
 3280POPC   C1A44883  24.393   4.057   6.159
 3280POPC   D2A44884  24.486   4.007   6.562
 3280POPC   C3A44885  24.217   4.043   6.882
 3280POPC   C4A44886  24.426   4.108   7.276
 3280POPC   C1B44887  24.390   4.559   6.093
 3280POPC   C2B44888  24.474   4.547   6.529
 3280POPC   C3B44889  24.456   4.507   6.957
 3280POPC   C4B44890  24.610   4.584   7.378
 3281POPC   NC344891   0.897  15.277   5.098
 3281POPC   PO444892   1.485  15.052   5.411
 3281POPC   GL144893   1.287  15.258   5.751
 3281POPC   GL244894   0.914  15.340   5.733
 3281POPC   C1A44895   1.245  15.078   6.162
 3281POPC   D2A44896   1.231  14.787   6.511
 3281POPC   C3A44897   1.444  14.984   6.842
 3281POPC   C4A44898   1.232  15.317   7.079
 3281POPC   C1B44899   0.754  15.302   6.185
 3281POPC   C2B44900   0.982  15.239   6.604
 3281POPC   C3B44901   0.954  14.875   6.935
 3281POPC   C4B44902   0.861  14.991   7.348
 3282POPC   NC344903  12.970  39.791   5.520
 3282POPC   PO444904  12.618  40.392   5.411
 3282POPC   GL144905  12.713  40.173   5.821
 3282POPC   GL244906  12.599  39.814   5.877
 3282POPC   C1A44907  12.957  40.118   6.223
 3282POPC   D2A44908  13.100  40.369   6.563
 3282POPC   C3A44909  13.084  40.216   6.972
 3282POPC   C4A44910  12.662  40.286   7.119
 3282POPC   C1B44911  12.468  39.970   6.283
 3282POPC   C2B44912  12.740  39.946   6.651
 3282POPC   C3B44913  12.820  39.771   7.028
 3282POPC   C4B44914  13.014  39.666   7.399
 3283POPC   NC344915  42.516   6.070   5.424
 3283POPC   PO444916  42.261   5.514   5.115
 3283POPC   GL144917  42.175   5.722   5.547
 3283POPC   GL244918  41.997   5.581   5.743
 3283POPC   C1A44919  42.223   5.973   5.987
 3283POPC   D2A44920  42.152   5.992   6.459
 3283POPC   C3A44921  42.539   5.949   6.725
 3283POPC   C4A44922  42.576   5.835   7.176
 3283POPC   C1B44923  42.189   5.485   6.133
 3283POPC   C2B44924  42.340   5.511   6.529
 3283POPC   C3B44925  42.147   5.652   6.888
 3283POPC   C4B44926  42.179   5.450   7.250
 3284POPC   NC344927  37.836  44.468   5.354
 3284POPC   PO444928  37.230  44.724   5.274
 3284POPC   GL144929  37.473  44.789   5.667
 3284POPC   GL244930  37.460  44.434   5.751
 3284POPC   C1A44931  37.602  44.872   6.120
 3284POPC   D2A44932  37.673   0.097   6.530
 3284POPC   C3A44933  37.625  44.906   6.957
 3284POPC   C4A44934  37.339  44.890   7.272
 3284POPC   C1B44935  37.600  44.345   6.181
 3284POPC   C2B44936  37.561  44.175   6.615
 3284POPC   C3B44937  37.599  44.359   7.043
 3284POPC   C4B44938  37.715  44.562   7.441
 3285POPC   NC344939  14.786  17.391   5.584
 3285POPC   PO444940  14.187  17.563   5.781
 3285POPC   GL144941  14.560  17.425   6.067
 3285POPC   GL244942  14.925  17.535   6.053
 3285POPC   C1A44943  14.634  17.362   6.525
 3285POPC   D2A44944  14.470  17.513   6.929
 3285POPC   C3A44945  14.412  17.255   7.297
 3285POPC   C4A44946  14.443  17.269   7.744
 3285POPC   C1B44947  14.806  17.824   6.374
 3285POPC   C2B44948  14.890  17.814   6.835
 3285POPC   C3B44949  14.885  17.569   7.223
 3285POPC   C4B44950  14.846  17.600   7.667
 3286POPC   NC344951   8.781  18.078   5.473
 3286POPC   PO444952   9.070  18.607   5.598
 3286POPC   GL144953   8.790  18.383   5.888
 3286POPC   GL244954   8.916  18.058   5.962
 3286POPC   C1A44955   8.639  18.326   6.313
 3286POPC   D2A44956   8.651  18.105   6.697
 3286POPC   C3A44957   8.811  18.220   7.110
 3286POPC   C4A44958   9.006  17.901   7.373
 3286POPC   C1B44959   9.148  18.267   6.290
 3286POPC   C2B44960   9.161  18.257   6.740
 3286POPC   C3B44961   9.314  18.310   7.174
 3286POPC   C4B44962   9.447  18.611   7.504
 3287POPC   NC344963  37.152  38.261   5.351
 3287POPC   PO444964  36.768  38.838   5.504
 3287POPC   GL144965  36.933  38.686   5.898
 3287POPC   GL244966  37.042  38.335   5.839
 3287POPC   C1A44967  36.780  38.732   6.345
 3287POPC   D2A44968  36.583  38.453   6.664
 3287POPC   C3A44969  36.626  38.642   7.032
 3287POPC   C4A44970  37.016  38.649   7.084
 3287POPC   C1B44971  36.922  38.252   6.253
 3287POPC   C2B44972  37.147  38.372   6.610
 3287POPC   C3B44973  37.136  38.149   6.943
 3287POPC   C4B44974  36.789  38.174   7.060
 3288POPC   NC344975   9.165   9.197   5.416
 3288POPC   PO444976   9.053   8.578   5.455
 3288POPC   GL144977   8.944   8.918   5.803
 3288POPC   GL244978   8.701   9.192   5.752
 3288POPC   C1A44979   9.013   9.211   6.181
 3288POPC   D2A44980   9.073   9.401   6.615
 3288POPC   C3A44981   9.130   9.066   6.921
 3288POPC   C4A44982   9.095   8.978   7.380
 3288POPC   C1B44983   8.557   8.994   6.175
 3288POPC   C2B44984   8.664   8.953   6.634
 3288POPC   C3B44985   8.660   8.922   7.096
 3288POPC   C4B44986   8.632   9.154   7.507
 3289POPC   NC344987  35.080  33.448   5.505
 3289POPC   PO444988  35.563  33.857   5.582
 3289POPC   GL144989  35.440  33.536   5.880
 3289POPC   GL244990  35.215  33.770   5.974
 3289POPC   C1A44991  35.545  33.543   6.320
 3289POPC   D2A44992  35.571  33.705   6.737
 3289POPC   C3A44993  35.185  33.778   6.892
 3289POPC   C4A44994  35.142  33.725   7.318
 3289POPC   C1B44995  35.366  34.016   6.348
 3289POPC   C2B44996  35.457  34.224   6.747
 3289POPC   C3B44997  35.522  34.043   7.172
 3289POPC   C4B44998  35.573  33.882   7.600
 3290POPC   NC344999  32.780  30.835   5.424
 3290POPC   PO445000  32.104  30.541   5.324
 3290POPC   GL145001  32.083  30.660   5.779
 3290POPC   GL245002  32.343  30.471   5.875
 3290POPC   C1A45003  31.974  30.577   6.238
 3290POPC   D2A45004  32.197  30.399   6.590
 3290POPC   C3A45005  32.124  30.395   7.047
 3290POPC   C4A45006  32.132  30.473   7.523
 3290POPC   C1B45007  32.550  30.693   6.223
 3290POPC   C2B45008  32.512  31.110   6.438
 3290POPC   C3B45009  32.423  31.155   6.877
 3290POPC   C4B45010  32.257  30.890   7.238
 3291POPC   NC345011  13.355  36.831   5.575
 3291POPC   PO445012  12.867  36.821   5.128
 3291POPC   GL145013  12.654  36.922   5.641
 3291POPC   GL245014  12.965  37.080   5.784
 3291POPC   C1A45015  12.569  36.892   6.082
 3291POPC   D2A45016  12.777  36.686   6.405
 3291POPC   C3A45017  12.735  36.764   6.846
 3291POPC   C4A45018  12.572  37.019   7.143
 3291POPC   C1B45019  13.198  37.054   6.171
 3291POPC   C2B45020  13.140  37.016   6.593
 3291POPC   C3B45021  13.024  37.185   6.974
 3291POPC   C4B45022  13.008  37.000   7.408
 3292POPC   NC345023  23.687   6.979   5.312
 3292POPC   PO445024  23.613   6.355   5.378
 3292POPC   GL145025  23.845   6.655   5.697
 3292POPC   GL245026  24.173   6.577   5.738
 3292POPC   C1A45027  23.965   6.801   6.152
 3292POPC   D2A45028  23.823   6.598   6.513
 3292POPC   C3A45029  23.626   6.751   6.871
 3292POPC   C4A45030  23.560   6.505   7.214
 3292POPC   C1B45031  24.165   6.352   6.102
 3292POPC   C2B45032  24.267   6.378   6.534
 3292POPC   C3B45033  24.087   6.525   6.951
 3292POPC   C4B45034  24.006   6.244   7.270
 3293POPC   NC345035   2.958  36.367   5.500
 3293POPC   PO445036   2.329  36.085   5.552
 3293POPC   GL145037   2.656  36.138   5.875
 3293POPC   GL245038   2.976  35.992   5.855
 3293POPC   C1A45039   2.716  35.929   6.272
 3293POPC   D2A45040   2.393  35.959   6.548
 3293POPC   C3A45041   2.579  36.105   6.869
 3293POPC   C4A45042   2.567  36.128   7.262
 3293POPC   C1B45043   3.147  36.207   6.213
 3293POPC   C2B45044   3.024  36.225   6.654
 3293POPC   C3B45045   3.051  36.037   7.077
 3293POPC   C4B45046   3.067  35.827   7.470
 3294POPC   NC345047  43.653  16.282   5.581
 3294POPC   PO445048  43.439  16.846   5.253
 3294POPC   GL145049  43.566  16.773   5.729
 3294POPC   GL245050  43.910  16.688   5.806
 3294POPC   C1A45051  43.654  16.811   6.209
 3294POPC   D2A45052  43.649  16.508   6.560
 3294POPC   C3A45053  43.826  16.721   6.907
 3294POPC   C4A45054  43.665  16.863   7.319
 3294POPC   C1B45055  43.956  16.376   6.145
 3294POPC   C2B45056  44.131  16.348   6.521
 3294POPC   C3B45057  44.062  16.268   6.942
 3294POPC   C4B45058  44.070  16.501   7.302
 3295POPC   NC345059  26.139  30.516   4.992
 3295POPC   PO445060  26.181  31.016   5.407
 3295POPC   GL145061  26.157  30.730   5.741
 3295POPC   GL245062  25.883  30.906   5.854
 3295POPC   C1A45063  26.095  30.552   6.140
 3295POPC   D2A45064  26.249  30.469   6.529
 3295POPC   C3A45065  26.336  30.764   6.842
 3295POPC   C4A45066  26.319  30.537   7.233
 3295POPC   C1B45067  25.699  30.918   6.202
 3295POPC   C2B45068  25.818  30.866   6.587
 3295POPC   C3B45069  25.902  30.995   6.988
 3295POPC   C4B45070  26.069  30.972   7.361
 3296POPC   NC345071   9.255   3.129   5.458
 3296POPC   PO445072   8.847   2.529   5.335
 3296POPC   GL145073   8.719   2.712   5.738
 3296POPC   GL245074   9.019   2.880   5.874
 3296POPC   C1A45075   8.703   2.635   6.197
 3296POPC   D2A45076   9.045   2.680   6.523
 3296POPC   C3A45077   8.821   2.875   6.874
 3296POPC   C4A45078   8.758   2.808   7.311
 3296POPC   C1B45079   8.938   3.101   6.281
 3296POPC   C2B45080   9.189   3.170   6.647
 3296POPC   C3B45081   9.082   3.277   7.077
 3296POPC   C4B45082   9.125   3.111   7.485
 3297POPC   NC345083  23.163  24.402   5.515
 3297POPC   PO445084  22.530  24.555   5.511
 3297POPC   GL145085  22.789  24.555   5.853
 3297POPC   GL245086  23.097  24.760   5.880
 3297POPC   C1A45087  22.785  24.312   6.215
 3297POPC   D2A45088  22.897  24.375   6.629
 3297POPC   C3A45089  23.214  24.230   6.856
 3297POPC   C4A45090  23.109  24.421   7.224
 3297POPC   C1B45091  22.873  24.814   6.285
 3297POPC   C2B45092  22.599  24.801   6.618
 3297POPC   C3B45093  22.837  24.807   6.966
 3297POPC   C4B45094  22.756  24.708   7.404
 3298POPC   NC345095  28.489  39.709   5.508
 3298POPC   PO445096  28.355  39.052   5.511
 3298POPC   GL145097  28.551  39.296   5.824
 3298POPC   GL245098  28.288  39.534   5.961
 3298POPC   C1A45099  28.582  39.198   6.254
 3298POPC   D2A45100  28.279  39.310   6.547
 3298POPC   C3A45101  28.416  39.400   6.938
 3298POPC   C4A45102  28.337  39.090   7.208
 3298POPC   C1B45103  28.293  39.799   6.343
 3298POPC   C2B45104  28.088  39.760   6.740
 3298POPC   C3B45105  27.944  39.425   7.102
 3298POPC   C4B45106  27.990  39.248   7.555
 3299POPC   NC345107  18.916  11.253   4.990
 3299POPC   PO445108  18.536  11.515   5.372
 3299POPC   GL145109  18.855  11.572   5.737
 3299POPC   GL245110  18.740  11.785   6.012
 3299POPC   C1A45111  19.010  11.383   6.163
 3299POPC   D2A45112  18.881  11.442   6.625
 3299POPC   C3A45113  19.089  11.405   7.056
 3299POPC   C4A45114  19.395  11.472   7.410
 3299POPC   C1B45115  19.031  11.867   6.356
 3299POPC   C2B45116  19.203  11.851   6.774
 3299POPC   C3B45117  19.164  11.897   7.227
 3299POPC   C4B45118  19.101  11.806   7.679
 3300POPC   NC345119   5.429   8.793   5.392
 3300POPC   PO445120   4.919   9.266   5.458
 3300POPC   GL145121   5.129   9.191   5.851
 3300POPC   GL245122   5.224   8.820   5.854
 3300POPC   C1A45123   5.012   9.019   6.271
 3300POPC   D2A45124   5.107   8.826   6.654
 3300POPC   C3A45125   5.072   9.049   7.057
 3300POPC   C4A45126   4.854   8.872   7.437
 3300POPC   C1B45127   5.476   8.794   6.241
 3300POPC   C2B45128   5.601   8.947   6.658
 3300POPC   C3B45129   5.476   8.743   7.032
 3300POPC   C4B45130   5.339   8.830   7.485
 3301POPC   NC345131   4.673   5.479   5.459
 3301POPC   PO445132   3.960   5.223   5.492
 3301POPC   GL145133   4.156   5.158   5.888
 3301POPC   GL245134   4.224   5.508   5.920
 3301POPC   C1A45135   3.984   5.208   6.329
 3301POPC   D2A45136   4.114   5.436   6.712
 3301POPC   C3A45137   4.385   5.141   6.953
 3301POPC   C4A45138   4.472   4.858   7.259
 3301POPC   C1B45139   4.427   5.587   6.318
 3301POPC   C2B45140   4.635   5.535   6.720
 3301POPC   C3B45141   4.572   5.555   7.183
 3301POPC   C4B45142   4.679   5.418   7.605
 3302POPC   NC345143   5.600  44.165   5.406
 3302POPC   PO445144   6.249  44.119   5.534
 3302POPC   GL145145   5.888  43.893   5.725
 3302POPC   GL245146   5.994  43.545   5.727
 3302POPC   C1A45147   5.695  43.869   6.173
 3302POPC   D2A45148   5.927  44.014   6.576
 3302POPC   C3A45149   5.699  44.035   6.982
 3302POPC   C4A45150   5.609  43.669   7.195
 3302POPC   C1B45151   6.196  43.770   6.091
 3302POPC   C2B45152   6.421  43.630   6.387
 3302POPC   C3B45153   6.350  43.672   6.801
 3302POPC   C4B45154   6.135  43.818   7.148
 3303POPC   NC345155  44.171  16.858   5.403
 3303POPC   PO445156  44.811  16.674   5.439
 3303POPC   GL145157  44.478  16.673   5.785
 3303POPC   GL245158  44.290  17.034   5.846
 3303POPC   C1A45159  44.644  16.526   6.200
 3303POPC   D2A45160  44.864  16.353   6.553
 3303POPC   C3A45161  44.604  16.344   6.919
 3303POPC   C4A45162  44.604  16.528   7.309
 3303POPC   C1B45163  44.221  16.810   6.228
 3303POPC   C2B45164  44.408  16.742   6.638
 3303POPC   C3B45165  44.333  16.886   7.038
 3303POPC   C4B45166  44.612  17.158   7.280
 3304POPC   NC345167  38.278  36.947   5.028
 3304POPC   PO445168  38.912  36.846   5.040
 3304POPC   GL145169  38.702  36.827   5.507
 3304POPC   GL245170  38.711  37.153   5.678
 3304POPC   C1A45171  38.415  36.848   5.942
 3304POPC   D2A45172  38.466  36.882   6.442
 3304POPC   C3A45173  38.264  36.865   6.888
 3304POPC   C4A45174  38.426  36.663   7.269
 3304POPC   C1B45175  38.763  37.189   6.143
 3304POPC   C2B45176  38.778  37.265   6.630
 3304POPC   C3B45177  38.736  37.035   7.053
 3304POPC   C4B45178  38.470  37.141   7.426
 3305POPC   NC345179  17.347  27.712   5.482
 3305POPC   PO445180  17.761  27.197   5.283
 3305POPC   GL145181  17.586  27.301   5.690
 3305POPC   GL245182  17.727  27.602   5.814
 3305POPC   C1A45183  17.395  27.268   6.112
 3305POPC   D2A45184  17.651  27.327   6.506
 3305POPC   C3A45185  17.484  27.412   6.921
 3305POPC   C4A45186  17.688  27.264   7.310
 3305POPC   C1B45187  17.566  27.730   6.202
 3305POPC   C2B45188  17.611  27.849   6.636
 3305POPC   C3B45189  17.347  27.948   6.948
 3305POPC   C4B45190  17.184  27.827   7.323
 3306POPC   NC345191  13.970   5.751   5.562
 3306POPC   PO445192  13.279   5.757   5.437
 3306POPC   GL145193  13.457   6.043   5.804
 3306POPC   GL245194  13.819   6.164   5.844
 3306POPC   C1A45195  13.463   6.186   6.249
 3306POPC   D2A45196  13.320   5.913   6.604
 3306POPC   C3A45197  13.167   6.058   7.000
 3306POPC   C4A45198  13.320   5.789   7.345
 3306POPC   C1B45199  13.776   5.812   6.173
 3306POPC   C2B45200  13.827   5.889   6.599
 3306POPC   C3B45201  13.714   5.813   7.012
 3306POPC   C4B45202  13.829   5.859   7.446
 3307POPC   NC345203   6.524  43.781   5.409
 3307POPC   PO445204   6.857  44.297   5.345
 3307POPC   GL145205   6.831  43.999   5.765
 3307POPC   GL245206   6.637  43.648   5.869
 3307POPC   C1A45207   6.635  44.064   6.181
 3307POPC   D2A45208   6.665  44.006   6.618
 3307POPC   C3A45209   6.473  44.160   6.949
 3307POPC   C4A45210   6.748  43.961   7.242
 3307POPC   C1B45211   6.906  43.613   6.189
 3307POPC   C2B45212   6.876  43.500   6.599
 3307POPC   C3B45213   6.746  43.444   7.006
 3307POPC   C4B45214   7.006  43.500   7.343
 3308POPC   NC345215  20.886  39.710   5.599
 3308POPC   PO445216  20.539  39.986   5.098
 3308POPC   GL145217  20.485  40.048   5.692
 3308POPC   GL245218  20.771  40.062   5.955
 3308POPC   C1A45219  20.300  40.024   6.146
 3308POPC   D2A45220  20.495  39.812   6.519
 3308POPC   C3A45221  20.462  39.885   6.965
 3308POPC   C4A45222  20.252  39.864   7.404
 3308POPC   C1B45223  20.944  39.789   6.269
 3308POPC   C2B45224  20.975  39.974   6.667
 3308POPC   C3B45225  20.913  40.190   7.041
 3308POPC   C4B45226  20.753  39.962   7.390
 3309POPC   NC345227  34.385  12.940   5.420
 3309POPC   PO445228  33.851  12.493   5.387
 3309POPC   GL145229  33.935  12.716   5.785
 3309POPC   GL245230  33.805  13.070   5.829
 3309POPC   C1A45231  33.833  12.776   6.251
 3309POPC   D2A45232  33.692  12.962   6.667
 3309POPC   C3A45233  33.791  12.753   7.064
 3309POPC   C4A45234  33.713  12.508   7.466
 3309POPC   C1B45235  33.641  13.266   6.242
 3309POPC   C2B45236  33.494  13.434   6.661
 3309POPC   C3B45237  33.719  13.309   7.075
 3309POPC   C4B45238  34.050  13.084   7.345
 3310POPC   NC345239   9.278   4.162   5.483
 3310POPC   PO445240   9.917   4.250   5.365
 3310POPC   GL145241   9.845   4.324   5.787
 3310POPC   GL245242   9.654   4.009   5.840
 3310POPC   C1A45243   9.776   4.423   6.218
 3310POPC   D2A45244   9.956   4.213   6.589
 3310POPC   C3A45245   9.873   4.384   6.992
 3310POPC   C4A45246   9.903   4.316   7.460
 3310POPC   C1B45247   9.572   3.954   6.284
 3310POPC   C2B45248   9.375   4.197   6.615
 3310POPC   C3B45249   9.361   4.344   7.046
 3310POPC   C4B45250   9.443   4.140   7.412
 3311POPC   NC345251  38.798  17.724   5.250
 3311POPC   PO445252  38.447  17.111   5.428
 3311POPC   GL145253  38.546  17.311   5.809
 3311POPC   GL245254  38.637  17.645   5.733
 3311POPC   C1A45255  38.379  17.339   6.234
 3311POPC   D2A45256  38.167  17.285   6.641
 3311POPC   C3A45257  38.306  17.399   7.065
 3311POPC   C4A45258  38.014  17.326   7.446
 3311POPC   C1B45259  38.555  17.834   6.139
 3311POPC   C2B45260  38.546  17.713   6.549
 3311POPC   C3B45261  38.728  17.843   6.885
 3311POPC   C4B45262  38.749  17.622   7.229
 3312POPC   NC345263  24.805   9.946   5.476
 3312POPC   PO445264  24.280   9.600   5.363
 3312POPC   GL145265  24.291   9.442   5.765
 3312POPC   GL245266  24.645   9.498   5.776
 3312POPC   C1A45267  24.334   9.504   6.236
 3312POPC   D2A45268  24.515   9.816   6.562
 3312POPC   C3A45269  24.493   9.722   7.004
 3312POPC   C4A45270  24.540   9.875   7.452
 3312POPC   C1B45271  24.831   9.632   6.166
 3312POPC   C2B45272  24.852   9.437   6.569
 3312POPC   C3B45273  24.952   9.491   6.965
 3312POPC   C4B45274  24.686   9.376   7.317
 3313POPC   NC345275   1.466  13.174   5.437
 3313POPC   PO445276   0.987  13.644   5.375
 3313POPC   GL145277   1.174  13.493   5.760
 3313POPC   GL245278   1.515  13.654   5.732
 3313POPC   C1A45279   1.231  13.628   6.205
 3313POPC   D2A45280   1.292  13.650   6.651
 3313POPC   C3A45281   1.117  13.402   6.950
 3313POPC   C4A45282   1.095  13.666   7.289
 3313POPC   C1B45283   1.736  13.531   6.100
 3313POPC   C2B45284   1.709  13.383   6.494
 3313POPC   C3B45285   1.719  13.535   6.900
 3313POPC   C4B45286   1.556  13.441   7.257
 3314POPC   NC345287  17.325  20.903   5.324
 3314POPC   PO445288  17.533  20.218   5.272
 3314POPC   GL145289  17.513  20.530   5.667
 3314POPC   GL245290  17.648  20.873   5.719
 3314POPC   C1A45291  17.542  20.472   6.159
 3314POPC   D2A45292  17.793  20.517   6.572
 3314POPC   C3A45293  17.554  20.375   6.911
 3314POPC   C4A45294  17.382  20.401   7.310
 3314POPC   C1B45295  17.410  20.960   6.110
 3314POPC   C2B45296  17.332  20.767   6.565
 3314POPC   C3B45297  17.425  20.865   6.999
 3314POPC   C4B45298  17.221  21.161   7.245
 3315POPC   NC345299  25.177   7.198   5.228
 3315POPC   PO445300  25.542   7.676   5.041
 3315POPC   GL145301  25.500   7.542   5.526
 3315POPC   GL245302  25.191   7.335   5.727
 3315POPC   C1A45303  25.608   7.459   5.990
 3315POPC   D2A45304  25.460   7.170   6.362
 3315POPC   C3A45305  25.485   7.229   6.843
 3315POPC   C4A45306  25.376   7.583   7.159
 3315POPC   C1B45307  24.978   7.124   6.143
 3315POPC   C2B45308  25.033   7.011   6.629
 3315POPC   C3B45309  25.021   7.167   7.092
 3315POPC   C4B45310  25.052   7.437   7.520
 3316POPC   NC345311  18.912  29.005   5.501
 3316POPC   PO445312  19.463  29.440   5.502
 3316POPC   GL145313  19.151  29.322   5.834
 3316POPC   GL245314  18.820  29.245   5.950
 3316POPC   C1A45315  19.169  28.930   6.130
 3316POPC   D2A45316  19.373  28.841   6.528
 3316POPC   C3A45317  19.168  29.120   6.818
 3316POPC   C4A45318  18.987  29.042   7.203
 3316POPC   C1B45319  18.525  29.407   6.225
 3316POPC   C2B45320  18.616  29.468   6.659
 3316POPC   C3B45321  18.705  29.456   7.087
 3316POPC   C4B45322  18.688  29.711   7.451
 3317POPC   NC345323  21.270  27.894   5.412
 3317POPC   PO445324  21.550  27.254   5.542
 3317POPC   GL145325  21.524  27.514   5.899
 3317POPC   GL245326  21.167  27.441   5.896
 3317POPC   C1A45327  21.321  27.766   6.255
 3317POPC   D2A45328  21.116  27.791   6.659
 3317POPC   C3A45329  21.390  27.730   7.022
 3317POPC   C4A45330  21.615  27.517   7.349
 3317POPC   C1B45331  21.297  27.199   6.226
 3317POPC   C2B45332  21.375  27.342   6.594
 3317POPC   C3B45333  21.362  27.238   6.989
 3317POPC   C4B45334  21.172  27.302   7.372
 3318POPC   NC345335  44.511  25.415   5.512
 3318POPC   PO445336  44.973  24.939   5.495
 3318POPC   GL145337  44.672  25.071   5.888
 3318POPC   GL245338  44.465  25.429   6.006
 3318POPC   C1A45339  44.593  25.080   6.343
 3318POPC   D2A45340  44.702  25.336   6.703
 3318POPC   C3A45341  44.906  25.200   7.097
 3318POPC   C4A45342  44.747  25.072   7.495
 3318POPC   C1B45343  44.833  25.547   6.203
 3318POPC   C2B45344   0.174  25.598   6.480
 3318POPC   C3B45345   0.077  25.619   6.889
 3318POPC   C4B45346  44.715  25.684   7.151
 3319POPC   NC345347  28.863  10.981   5.423
 3319POPC   PO445348  29.148  11.583   5.186
 3319POPC   GL145349  29.224  11.500   5.648
 3319POPC   GL245350  29.345  11.152   5.737
 3319POPC   C1A45351  29.094  11.435   6.102
 3319POPC   D2A45352  29.262  11.443   6.545
 3319POPC   C3A45353  29.059  11.439   6.981
 3319POPC   C4A45354  28.937  11.073   7.221
 3319POPC   C1B45355  29.490  11.056   6.163
 3319POPC   C2B45356  29.690  11.165   6.548
 3319POPC   C3B45357  29.517  11.090   6.926
 3319POPC   C4B45358  29.425  11.006   7.327
 3320POPC   NC345359  27.782   3.714   5.397
 3320POPC   PO445360  27.258   3.294   5.295
 3320POPC   GL145361  27.416   3.339   5.751
 3320POPC   GL245362  27.767   3.418   5.847
 3320POPC   C1A45363  27.384   3.589   6.160
 3320POPC   D2A45364  27.317   3.495   6.598
 3320POPC   C3A45365  27.417   3.722   6.997
 3320POPC   C4A45366  27.796   3.711   7.267
 3320POPC   C1B45367  27.884   3.546   6.298
 3320POPC   C2B45368  27.808   3.458   6.752
 3320POPC   C3B45369  27.619   3.255   7.112
 3320POPC   C4B45370  27.719   3.214   7.569
 3321POPC   NC345371  39.618  20.069   5.436
 3321POPC   PO445372  40.320  19.900   5.524
 3321POPC   GL145373  40.009  19.903   5.793
 3321POPC   GL245374  39.899  19.588   5.656
 3321POPC   C1A45375  40.026  20.061   6.212
 3321POPC   D2A45376  40.232  20.051   6.591
 3321POPC   C3A45377  40.046  19.966   6.969
 3321POPC   C4A45378  40.380  20.002   7.235
 3321POPC   C1B45379  39.895  19.513   6.093
 3321POPC   C2B45380  39.936  19.632   6.494
 3321POPC   C3B45381  39.900  19.469   6.876
 3321POPC   C4B45382  39.704  19.620   7.202
 3322POPC   NC345383  37.217  24.452   5.476
 3322POPC   PO445384  36.718  23.971   5.467
 3322POPC   GL145385  36.949  24.176   5.837
 3322POPC   GL245386  37.332  24.184   5.887
 3322POPC   C1A45387  36.943  24.313   6.286
 3322POPC   D2A45388  36.944  24.522   6.697
 3322POPC   C3A45389  36.646  24.691   6.993
 3322POPC   C4A45390  36.753  24.968   7.324
 3322POPC   C1B45391  37.395  24.049   6.315
 3322POPC   C2B45392  37.132  23.894   6.646
 3322POPC   C3B45393  37.016  24.136   7.013
 3322POPC   C4B45394  37.084  24.554   7.217
 3323POPC   NC345395  13.869  39.384   5.361
 3323POPC   PO445396  13.298  39.191   5.361
 3323POPC   GL145397  13.564  39.270   5.746
 3323POPC   GL245398  13.299  39.405   5.865
 3323POPC   C1A45399  13.701  39.444   6.164
 3323POPC   D2A45400  13.578  39.489   6.605
 3323POPC   C3A45401  13.759  39.452   7.039
 3323POPC   C4A45402  13.879  39.128   7.327
 3323POPC   C1B45403  13.153  39.616   6.211
 3323POPC   C2B45404  13.044  39.504   6.620
 3323POPC   C3B45405  13.252  39.484   7.005
 3323POPC   C4B45406  13.412  39.321   7.424
 3324POPC   NC345407  35.993  19.489   5.218
 3324POPC   PO445408  35.879  20.121   5.352
 3324POPC   GL145409  36.091  19.945   5.707
 3324POPC   GL245410  36.462  19.891   5.720
 3324POPC   C1A45411  36.145  19.956   6.150
 3324POPC   D2A45412  35.903  19.936   6.526
 3324POPC   C3A45413  35.991  19.748   6.901
 3324POPC   C4A45414  36.113  19.992   7.210
 3324POPC   C1B45415  36.571  19.682   6.117
 3324POPC   C2B45416  36.417  19.748   6.543
 3324POPC   C3B45417  36.448  19.530   6.948
 3324POPC   C4B45418  36.304  19.563   7.396
 3325POPC   NC345419   2.241  28.951   5.366
 3325POPC   PO445420   2.851  28.969   5.270
 3325POPC   GL145421   2.697  29.023   5.690
 3325POPC   GL245422   2.934  28.739   5.776
 3325POPC   C1A45423   2.703  29.107   6.160
 3325POPC   D2A45424   2.823  29.345   6.536
 3325POPC   C3A45425   2.730  29.157   6.939
 3325POPC   C4A45426   2.913  29.273   7.292
 3325POPC   C1B45427   2.984  28.679   6.205
 3325POPC   C2B45428   2.962  28.851   6.625
 3325POPC   C3B45429   3.073  28.796   7.089
 3325POPC   C4B45430   3.050  28.831   7.569
 3326POPC   NC345431   4.782  11.098   5.480
 3326POPC   PO445432   5.243  11.612   5.288
 3326POPC   GL145433   5.237  11.444   5.767
 3326POPC   GL245434   5.151  11.097   5.861
 3326POPC   C1A45435   5.136  11.516   6.197
 3326POPC   D2A45436   5.150  11.239   6.556
 3326POPC   C3A45437   5.094  11.440   6.949
 3326POPC   C4A45438   5.259  11.182   7.282
 3326POPC   C1B45439   4.778  11.167   6.155
 3326POPC   C2B45440   4.655  11.267   6.590
 3326POPC   C3B45441   4.732  11.114   6.964
 3326POPC   C4B45442   4.589  10.829   7.183
 3327POPC   NC345443  22.567   4.363   5.480
 3327POPC   PO445444  21.996   4.081   5.172
 3327POPC   GL145445  22.063   4.195   5.672
 3327POPC   GL245446  22.204   4.460   5.854
 3327POPC   C1A45447  22.132   4.043   6.151
 3327POPC   D2A45448  22.018   4.226   6.526
 3327POPC   C3A45449  22.084   4.151   6.954
 3327POPC   C4A45450  22.269   4.400   7.298
 3327POPC   C1B45451  21.791   4.474   6.128
 3327POPC   C2B45452  21.584   4.453   6.548
 3327POPC   C3B45453  21.730   4.539   6.976
 3327POPC   C4B45454  21.789   4.631   7.419
 3328POPC   NC345455  32.831  18.608   5.604
 3328POPC   PO445456  33.104  19.143   5.508
 3328POPC   GL145457  32.972  19.313   5.906
 3328POPC   GL245458  32.787  19.019   5.956
 3328POPC   C1A45459  33.083  19.307   6.357
 3328POPC   D2A45460  33.100  19.510   6.739
 3328POPC   C3A45461  32.926  19.246   7.094
 3328POPC   C4A45462  32.627  19.125   7.441
 3328POPC   C1B45463  33.079  18.822   6.249
 3328POPC   C2B45464  32.953  18.904   6.694
 3328POPC   C3B45465  32.768  18.750   7.106
 3328POPC   C4B45466  32.791  18.486   7.488
 3329POPC   NC345467  29.685   1.752   5.715
 3329POPC   PO445468  30.044   2.321   5.602
 3329POPC   GL145469  30.119   1.960   5.926
 3329POPC   GL245470  30.193   1.616   5.797
 3329POPC   C1A45471  29.903   1.802   6.326
 3329POPC   D2A45472  29.656   1.955   6.648
 3329POPC   C3A45473  29.885   2.140   6.943
 3329POPC   C4A45474  29.672   2.412   7.184
 3329POPC   C1B45475  30.356   1.582   6.235
 3329POPC   C2B45476  30.244   1.510   6.674
 3329POPC   C3B45477  30.232   1.758   7.071
 3329POPC   C4B45478  30.003   2.004   7.442
 3330POPC   NC345479  23.787  41.144   5.411
 3330POPC   PO445480  23.783  40.481   5.471
 3330POPC   GL145481  23.737  40.811   5.803
 3330POPC   GL245482  24.081  40.994   5.809
 3330POPC   C1A45483  23.476  40.839   6.206
 3330POPC   D2A45484  23.320  40.972   6.637
 3330POPC   C3A45485  23.448  40.689   6.977
 3330POPC   C4A45486  23.813  40.553   7.201
 3330POPC   C1B45487  24.006  40.843   6.231
 3330POPC   C2B45488  23.806  40.731   6.600
 3330POPC   C3B45489  23.786  41.052   6.907
 3330POPC   C4B45490  24.062  40.988   7.205
 3331POPC   NC345491  37.282  32.880   5.389
 3331POPC   PO445492  37.882  32.994   5.499
 3331POPC   GL145493  37.624  32.869   5.815
 3331POPC   GL245494  37.453  33.154   5.803
 3331POPC   C1A45495  37.743  32.955   6.238
 3331POPC   D2A45496  37.944  32.729   6.567
 3331POPC   C3A45497  37.718  32.767   6.909
 3331POPC   C4A45498  37.716  33.092   7.223
 3331POPC   C1B45499  37.245  33.288   6.140
 3331POPC   C2B45500  37.563  33.423   6.411
 3331POPC   C3B45501  37.631  33.421   6.847
 3331POPC   C4B45502  37.356  33.452   7.199
 3332POPC   NC345503  12.151  40.350   5.390
 3332POPC   PO445504  11.845  39.762   5.427
 3332POPC   GL145505  12.088  39.723   5.778
 3332POPC   GL245506  12.167  40.073   5.835
 3332POPC   C1A45507  12.164  39.578   6.174
 3332POPC   D2A45508  12.033  39.768   6.548
 3332POPC   C3A45509  12.284  39.888   6.898
 3332POPC   C4A45510  12.178  39.866   7.321
 3332POPC   C1B45511  11.991  40.180   6.222
 3332POPC   C2B45512  11.845  40.232   6.627
 3332POPC   C3B45513  11.776  40.015   6.990
 3332POPC   C4B45514  11.805  40.227   7.380
 3333POPC   NC345515  19.420  28.144   5.529
 3333POPC   PO445516  18.885  28.548   5.487
 3333POPC   GL145517  19.059  28.355   5.829
 3333POPC   GL245518  19.361  28.521   5.905
 3333POPC   C1A45519  18.929  28.453   6.233
 3333POPC   D2A45520  18.859  28.534   6.655
 3333POPC   C3A45521  19.205  28.513   6.941
 3333POPC   C4A45522  19.167  28.105   7.188
 3333POPC   C1B45523  19.422  28.269   6.244
 3333POPC   C2B45524  19.617  28.340   6.618
 3333POPC   C3B45525  19.618  28.249   7.052
 3333POPC   C4B45526  19.445  28.440   7.458
 3334POPC   NC345527  35.314  12.518   5.464
 3334POPC   PO445528  34.812  12.761   5.447
 3334POPC   GL145529  35.174  12.845   5.828
 3334POPC   GL245530  35.437  12.581   5.958
 3334POPC   C1A45531  35.413  13.020   6.219
 3334POPC   D2A45532  35.267  13.122   6.658
 3334POPC   C3A45533  35.294  12.927   7.095
 3334POPC   C4A45534  35.059  12.947   7.498
 3334POPC   C1B45535  35.132  12.615   6.327
 3334POPC   C2B45536  34.970  12.693   6.768
 3334POPC   C3B45537  34.979  12.512   7.208
 3334POPC   C4B45538  35.093  12.096   7.402
 3335POPC   NC345539  23.295  25.981   5.654
 3335POPC   PO445540  23.893  26.372   5.506
 3335POPC   GL145541  23.744  26.180   5.843
 3335POPC   GL245542  23.784  25.830   5.768
 3335POPC   C1A45543  23.606  26.073   6.250
 3335POPC   D2A45544  23.537  25.869   6.626
 3335POPC   C3A45545  23.598  26.113   6.954
 3335POPC   C4A45546  23.439  26.268   7.339
 3335POPC   C1B45547  24.064  25.888   6.110
 3335POPC   C2B45548  24.097  25.908   6.550
 3335POPC   C3B45549  24.034  25.790   6.975
 3335POPC   C4B45550  23.915  26.002   7.328
 3336POPC   NC345551  37.683  20.099   5.501
 3336POPC   PO445552  37.595  19.482   5.484
 3336POPC   GL145553  37.512  19.757   5.822
 3336POPC   GL245554  37.796  19.938   5.979
 3336POPC   C1A45555  37.435  19.669   6.220
 3336POPC   D2A45556  37.408  19.749   6.628
 3336POPC   C3A45557  37.693  19.646   6.970
 3336POPC   C4A45558  37.658  19.638   7.432
 3336POPC   C1B45559  37.886  19.757   6.422
 3336POPC   C2B45560  37.849  20.068   6.741
 3336POPC   C3B45561  37.694  20.106   7.183
 3336POPC   C4B45562  38.015  20.213   7.479
 3337POPC   NC345563  33.866   6.144   5.462
 3337POPC   PO445564  33.813   6.776   5.293
 3337POPC   GL145565  33.820   6.622   5.734
 3337POPC   GL245566  34.087   6.410   5.827
 3337POPC   C1A45567  33.617   6.694   6.156
 3337POPC   D2A45568  33.830   6.718   6.576
 3337POPC   C3A45569  33.632   6.679   6.984
 3337POPC   C4A45570  33.406   6.855   7.280
 3337POPC   C1B45571  34.146   6.591   6.177
 3337POPC   C2B45572  34.254   6.402   6.557
 3337POPC   C3B45573  34.123   6.497   6.949
 3337POPC   C4B45574  33.882   6.263   7.199
 3338POPC   NC345575  37.953  38.367   5.466
 3338POPC   PO445576  37.409  38.664   5.260
 3338POPC   GL145577  37.495  38.598   5.727
 3338POPC   GL245578  37.844  38.561   5.923
 3338POPC   C1A45579  37.382  38.559   6.171
 3338POPC   D2A45580  37.650  38.604   6.532
 3338POPC   C3A45581  37.617  38.285   6.838
 3338POPC   C4A45582  37.446  38.430   7.207
 3338POPC   C1B45583  37.963  38.272   6.287
 3338POPC   C2B45584  37.943  37.937   6.620
 3338POPC   C3B45585  37.985  37.980   7.076
 3338POPC   C4B45586  37.765  38.143   7.452
 3339POPC   NC345587  28.167  14.331   5.239
 3339POPC   PO445588  28.546  14.765   5.402
 3339POPC   GL145589  28.434  14.494   5.768
 3339POPC   GL245590  28.077  14.419   5.741
 3339POPC   C1A45591  28.373  14.350   6.218
 3339POPC   D2A45592  28.426  14.431   6.707
 3339POPC   C3A45593  28.545  14.164   7.079
 3339POPC   C4A45594  28.485  13.910   7.432
 3339POPC   C1B45595  28.024  14.699   6.097
 3339POPC   C2B45596  28.156  14.825   6.499
 3339POPC   C3B45597  28.067  14.737   6.916
 3339POPC   C4B45598  28.184  14.480   7.227
 3340POPC   NC345599  18.418   5.935   5.443
 3340POPC   PO445600  17.825   6.236   5.489
 3340POPC   GL145601  18.059   5.947   5.838
 3340POPC   GL245602  18.419   5.933   5.937
 3340POPC   C1A45603  18.126   5.618   6.193
 3340POPC   D2A45604  18.055   5.622   6.627
 3340POPC   C3A45605  18.263   5.895   6.908
 3340POPC   C4A45606  18.183   5.774   7.317
 3340POPC   C1B45607  18.647   6.007   6.301
 3340POPC   C2B45608  18.789   5.937   6.705
 3340POPC   C3B45609  18.747   6.145   7.081
 3340POPC   C4B45610  18.569   6.051   7.452
 3341POPC   NC345611  23.447  35.381   5.632
 3341POPC   PO445612  22.836  35.295   5.291
 3341POPC   GL145613  22.954  35.430   5.684
 3341POPC   GL245614  23.049  35.134   5.862
 3341POPC   C1A45615  23.046  35.605   6.113
 3341POPC   D2A45616  22.979  35.459   6.546
 3341POPC   C3A45617  22.890  35.679   6.946
 3341POPC   C4A45618  22.977  35.320   7.219
 3341POPC   C1B45619  23.336  35.211   6.239
 3341POPC   C2B45620  23.507  35.391   6.613
 3341POPC   C3B45621  23.454  35.278   7.032
 3341POPC   C4B45622  23.415  35.412   7.462
 3342POPC   NC345623  36.519   0.982   5.428
 3342POPC   PO445624  37.111   1.387   5.545
 3342POPC   GL145625  36.815   1.275   5.844
 3342POPC   GL245626  36.849   0.984   5.816
 3342POPC   C1A45627  36.632   1.331   6.248
 3342POPC   D2A45628  36.695   1.628   6.590
 3342POPC   C3A45629  36.732   1.440   7.015
 3342POPC   C4A45630  36.703   1.615   7.458
 3342POPC   C1B45631  36.963   0.922   6.231
 3342POPC   C2B45632  36.920   1.040   6.653
 3342POPC   C3B45633  37.117   1.023   7.029
 3342POPC   C4B45634  37.129   1.320   7.317
 3343POPC   NC345635   5.526  11.268   5.399
 3343POPC   PO445636   6.079  10.896   5.446
 3343POPC   GL145637   6.053  11.039   5.857
 3343POPC   GL245638   5.704  11.191   5.892
 3343POPC   C1A45639   6.074  11.205   6.264
 3343POPC   D2A45640   5.961  11.495   6.570
 3343POPC   C3A45641   6.118  11.367   6.948
 3343POPC   C4A45642   6.148  11.667   7.219
 3343POPC   C1B45643   5.642  11.580   6.157
 3343POPC   C2B45644   5.459  11.644   6.581
 3343POPC   C3B45645   5.582  11.349   6.890
 3343POPC   C4B45646   5.689  11.480   7.265
 3344POPC   NC345647   3.978  32.607   5.421
 3344POPC   PO445648   4.549  32.078   5.415
 3344POPC   GL145649   4.268  32.265   5.679
 3344POPC   GL245650   4.542  32.441   5.829
 3344POPC   C1A45651   4.056  32.254   6.083
 3344POPC   D2A45652   4.067  32.401   6.519
 3344POPC   C3A45653   4.311  32.227   6.882
 3344POPC   C4A45654   4.111  32.294   7.273
 3344POPC   C1B45655   4.536  32.336   6.258
 3344POPC   C2B45656   4.565  32.601   6.602
 3344POPC   C3B45657   4.736  32.537   6.971
 3344POPC   C4B45658   4.611  32.357   7.299
 3345POPC   NC345659  39.715   1.198   5.383
 3345POPC   PO445660  40.248   1.617   5.397
 3345POPC   GL145661  40.069   1.457   5.743
 3345POPC   GL245662  40.053   1.113   5.761
 3345POPC   C1A45663  39.974   1.445   6.156
 3345POPC   D2A45664  40.048   1.255   6.514
 3345POPC   C3A45665  39.751   1.320   6.815
 3345POPC   C4A45666  39.737   1.495   7.216
 3345POPC   C1B45667  40.266   0.942   6.123
 3345POPC   C2B45668  40.323   0.839   6.577
 3345POPC   C3B45669  40.228   1.063   6.969
 3345POPC   C4B45670  40.195   0.886   7.365
 3346POPC   NC345671  30.542  14.529   5.508
 3346POPC   PO445672  30.160  13.948   5.491
 3346POPC   GL145673  30.436  14.135   5.843
 3346POPC   GL245674  30.795  14.272   5.883
 3346POPC   C1A45675  30.533  14.228   6.297
 3346POPC   D2A45676  30.493  14.489   6.662
 3346POPC   C3A45677  30.663  14.309   7.050
 3346POPC   C4A45678  30.409  14.480   7.429
 3346POPC   C1B45679  31.047  14.188   6.278
 3346POPC   C2B45680  31.075  14.358   6.702
 3346POPC   C3B45681  31.133  14.531   7.126
 3346POPC   C4B45682  30.909  14.397   7.511
 3347POPC   NC345683  12.499  25.469   4.943
 3347POPC   PO445684  12.066  25.201   5.413
 3347POPC   GL145685  11.955  25.016   5.776
 3347POPC   GL245686  12.279  25.020   5.893
 3347POPC   C1A45687  11.881  25.216   6.193
 3347POPC   D2A45688  11.845  25.462   6.586
 3347POPC   C3A45689  11.968  25.279   6.989
 3347POPC   C4A45690  12.170  25.337   7.368
 3347POPC   C1B45691  12.430  25.236   6.243
 3347POPC   C2B45692  12.364  25.414   6.632
 3347POPC   C3B45693  12.411  25.613   7.008
 3347POPC   C4B45694  12.663  25.486   7.326
 3348POPC   NC345695  21.022  30.218   5.449
 3348POPC   PO445696  20.378  29.830   5.398
 3348POPC   GL145697  20.471  29.914   5.792
 3348POPC   GL245698  20.786  29.718   5.821
 3348POPC   C1A45699  20.309  29.955   6.202
 3348POPC   D2A45700  20.492  30.122   6.576
 3348POPC   C3A45701  20.410  29.977   6.969
 3348POPC   C4A45702  20.445  29.668   7.301
 3348POPC   C1B45703  20.825  30.046   6.156
 3348POPC   C2B45704  20.990  30.083   6.575
 3348POPC   C3B45705  20.910  30.165   6.999
 3348POPC   C4B45706  20.797  30.029   7.392
 3349POPC   NC345707  22.426  16.242   5.395
 3349POPC   PO445708  22.223  15.691   5.048
 3349POPC   GL145709  22.296  15.824   5.604
 3349POPC   GL245710  22.563  15.820   5.811
 3349POPC   C1A45711  22.129  16.018   6.058
 3349POPC   D2A45712  22.214  15.837   6.487
 3349POPC   C3A45713  21.988  15.942   6.867
 3349POPC   C4A45714  21.996  16.109   7.252
 3349POPC   C1B45715  22.607  16.194   6.075
 3349POPC   C2B45716  22.670  16.254   6.521
 3349POPC   C3B45717  22.461  16.138   6.921
 3349POPC   C4B45718  22.508  16.047   7.344
 3350POPC   NC345719  20.484  13.567   5.184
 3350POPC   PO445720  20.439  14.132   5.349
 3350POPC   GL145721  20.519  14.029   5.789
 3350POPC   GL245722  20.865  13.943   5.783
 3350POPC   C1A45723  20.401  13.900   6.243
 3350POPC   D2A45724  20.260  13.671   6.651
 3350POPC   C3A45725  20.417  13.641   7.097
 3350POPC   C4A45726  20.741  13.549   7.433
 3350POPC   C1B45727  20.918  14.118   6.196
 3350POPC   C2B45728  21.104  14.012   6.609
 3350POPC   C3B45729  20.925  13.829   6.983
 3350POPC   C4B45730  20.700  14.034   7.270
 3351POPC   NC345731  14.617   1.627   5.292
 3351POPC   PO445732  14.208   2.011   5.617
 3351POPC   GL145733  14.378   2.278   5.935
 3351POPC   GL245734  14.660   2.340   5.783
 3351POPC   C1A45735  14.524   2.270   6.328
 3351POPC   D2A45736  14.438   1.899   6.536
 3351POPC   C3A45737  14.265   1.933   6.948
 3351POPC   C4A45738  14.333   2.151   7.335
 3351POPC   C1B45739  14.724   1.887   6.055
 3351POPC   C2B45740  14.856   1.583   6.433
 3351POPC   C3B45741  14.729   1.654   6.878
 3351POPC   C4B45742  14.626   1.739   7.310
 3352POPC   NC345743  41.973   0.421   5.103
 3352POPC   PO445744  42.487   0.248   5.503
 3352POPC   GL145745  42.356   0.474   5.868
 3352POPC   GL245746  42.024   0.588   5.934
 3352POPC   C1A45747  42.501   0.514   6.266
 3352POPC   D2A45748  42.436   0.262   6.634
 3352POPC   C3A45749  42.527   0.436   7.080
 3352POPC   C4A45750  42.313   0.267   7.463
 3352POPC   C1B45751  42.069   0.239   6.243
 3352POPC   C2B45752  41.952   0.092   6.633
 3352POPC   C3B45753  42.040   0.403   6.937
 3352POPC   C4B45754  41.896   0.504   7.310
 3353POPC   NC345755  21.858  24.998   4.988
 3353POPC   PO445756  21.803  25.574   5.454
 3353POPC   GL145757  21.963  25.281   5.721
 3353POPC   GL245758  21.819  24.941   5.653
 3353POPC   C1A45759  22.041  25.423   6.142
 3353POPC   D2A45760  22.370  25.471   6.432
 3353POPC   C3A45761  22.289  25.224   6.771
 3353POPC   C4A45762  22.225  25.326   7.186
 3353POPC   C1B45763  21.727  25.002   6.102
 3353POPC   C2B45764  21.675  24.969   6.566
 3353POPC   C3B45765  21.846  25.029   6.997
 3353POPC   C4B45766  21.970  24.887   7.408
 3354POPC   NC345767   4.718  18.616   5.329
 3354POPC   PO445768   4.337  19.197   5.199
 3354POPC   GL145769   4.388  18.985   5.635
 3354POPC   GL245770   4.299  19.229   5.903
 3354POPC   C1A45771   4.203  18.744   6.025
 3354POPC   D2A45772   4.285  18.887   6.461
 3354POPC   C3A45773   3.968  18.991   6.773
 3354POPC   C4A45774   3.840  18.932   7.222
 3354POPC   C1B45775   4.093  19.358   6.321
 3354POPC   C2B45776   3.819  19.457   6.701
 3354POPC   C3B45777   3.990  19.524   7.162
 3354POPC   C4B45778   3.928  19.456   7.647
 3355POPC   NC345779  27.381  13.894   5.332
 3355POPC   PO445780  27.720  13.316   5.171
 3355POPC   GL145781  27.659  13.522   5.615
 3355POPC   GL245782  27.301  13.524   5.698
 3355POPC   C1A45783  27.798  13.599   6.089
 3355POPC   D2A45784  27.936  13.756   6.536
 3355POPC   C3A45785  27.747  13.693   6.977
 3355POPC   C4A45786  27.759  13.577   7.465
 3355POPC   C1B45787  27.312  13.439   6.121
 3355POPC   C2B45788  27.459  13.539   6.527
 3355POPC   C3B45789  27.381  13.349   6.910
 3355POPC   C4B45790  27.282  13.536   7.288
 3356POPC   NC345791  20.478  20.343   5.205
 3356POPC   PO445792  20.841  19.812   5.550
 3356POPC   GL145793  20.578  19.812   5.896
 3356POPC   GL245794  20.466  20.135   5.884
 3356POPC   C1A45795  20.339  19.529   6.204
 3356POPC   D2A45796  20.256  19.625   6.646
 3356POPC   C3A45797  20.675  19.523   6.886
 3356POPC   C4A45798  20.925  19.665   7.259
 3356POPC   C1B45799  20.306  20.021   6.275
 3356POPC   C2B45800  20.672  19.911   6.526
 3356POPC   C3B45801  20.703  20.032   6.938
 3356POPC   C4B45802  20.287  20.023   7.053
 3357POPC   NC345803  31.783  13.215   5.445
 3357POPC   PO445804  31.487  12.721   5.139
 3357POPC   GL145805  31.557  12.731   5.620
 3357POPC   GL245806  31.921  12.721   5.635
 3357POPC   C1A45807  31.325  12.790   6.067
 3357POPC   D2A45808  31.200  12.858   6.538
 3357POPC   C3A45809  31.326  12.941   6.958
 3357POPC   C4A45810  31.446  12.714   7.369
 3357POPC   C1B45811  31.820  12.883   6.051
 3357POPC   C2B45812  31.658  12.642   6.431
 3357POPC   C3B45813  31.712  12.634   6.886
 3357POPC   C4B45814  31.784  13.018   7.146
 3358POPC   NC345815  21.623  42.807   5.384
 3358POPC   PO445816  21.041  43.221   5.457
 3358POPC   GL145817  21.263  43.317   5.886
 3358POPC   GL245818  21.611  43.393   5.905
 3358POPC   C1A45819  21.372  43.329   6.347
 3358POPC   D2A45820  21.393  43.056   6.683
 3358POPC   C3A45821  21.207  43.168   7.055
 3358POPC   C4A45822  21.097  42.806   7.271
 3358POPC   C1B45823  21.861  43.151   6.243
 3358POPC   C2B45824  21.910  43.001   6.680
 3358POPC   C3B45825  21.731  42.976   7.066
 3358POPC   C4B45826  21.655  43.369   7.209
 3359POPC   NC345827  42.989  28.519   5.351
 3359POPC   PO445828  43.337  27.962   5.543
 3359POPC   GL145829  43.260  28.374   5.765
 3359POPC   GL245830  42.919  28.541   5.846
 3359POPC   C1A45831  43.407  28.577   6.134
 3359POPC   D2A45832  43.487  28.349   6.500
 3359POPC   C3A45833  43.402  28.461   6.926
 3359POPC   C4A45834  43.411  28.232   7.301
 3359POPC   C1B45835  42.928  28.451   6.281
 3359POPC   C2B45836  42.944  28.130   6.594
 3359POPC   C3B45837  43.013  28.139   7.014
 3359POPC   C4B45838  42.936  28.442   7.366
 3360POPC   NC345839   1.765   7.019   5.541
 3360POPC   PO445840   2.003   6.431   5.469
 3360POPC   GL145841   1.962   6.627   5.832
 3360POPC   GL245842   1.622   6.506   5.854
 3360POPC   C1A45843   2.025   6.532   6.256
 3360POPC   D2A45844   2.225   6.445   6.610
 3360POPC   C3A45845   2.132   6.617   6.974
 3360POPC   C4A45846   2.157   6.432   7.385
 3360POPC   C1B45847   1.616   6.802   6.183
 3360POPC   C2B45848   1.853   6.905   6.570
 3360POPC   C3B45849   1.722   6.925   6.977
 3360POPC   C4B45850   1.709   6.633   7.276
 3361POPC   NC345851   9.167  40.390   5.509
 3361POPC   PO445852   8.451  40.404   5.430
 3361POPC   GL145853   8.730  40.241   5.767
 3361POPC   GL245854   8.951  39.923   5.768
 3361POPC   C1A45855   8.742  40.098   6.207
 3361POPC   D2A45856   8.689  39.971   6.610
 3361POPC   C3A45857   8.885  40.165   6.950
 3361POPC   C4A45858   9.232  40.153   7.217
 3361POPC   C1B45859   9.247  39.996   6.135
 3361POPC   C2B45860   9.208  39.928   6.596
 3361POPC   C3B45861   9.185  39.709   6.981
 3361POPC   C4B45862   8.930  39.521   7.276
 3362POPC   NC345863  28.093   5.540   5.313
 3362POPC   PO445864  27.530   6.073   5.351
 3362POPC   GL145865  27.763   6.041   5.752
 3362POPC   GL245866  28.135   6.172   5.719
 3362POPC   C1A45867  27.474   5.908   6.102
 3362POPC   D2A45868  27.264   5.625   6.429
 3362POPC   C3A45869  27.214   5.859   6.823
 3362POPC   C4A45870  27.379   5.692   7.203
 3362POPC   C1B45871  27.978   6.347   6.113
 3362POPC   C2B45872  27.746   6.134   6.461
 3362POPC   C3B45873  27.591   6.230   6.861
 3362POPC   C4B45874  27.735   6.143   7.261
 3363POPC   NC345875  39.840   1.856   5.529
 3363POPC   PO445876  39.998   2.420   5.212
 3363POPC   GL145877  40.128   2.270   5.670
 3363POPC   GL245878  40.330   1.982   5.730
 3363POPC   C1A45879  39.990   2.104   6.104
 3363POPC   D2A45880  39.908   2.159   6.536
 3363POPC   C3A45881  39.759   1.871   6.828
 3363POPC   C4A45882  40.032   2.048   7.117
 3363POPC   C1B45883  40.391   1.729   6.079
 3363POPC   C2B45884  40.265   1.765   6.514
 3363POPC   C3B45885  40.182   1.594   6.913
 3363POPC   C4B45886  40.218   1.635   7.342
 3364POPC   NC345887  41.232  37.014   5.376
 3364POPC   PO445888  40.618  36.786   5.244
 3364POPC   GL145889  40.746  37.017   5.628
 3364POPC   GL245890  40.900  36.746   5.767
 3364POPC   C1A45891  40.627  37.012   6.110
 3364POPC   D2A45892  40.591  36.684   6.456
 3364POPC   C3A45893  40.547  36.851   6.863
 3364POPC   C4A45894  40.735  37.181   7.073
 3364POPC   C1B45895  41.053  36.690   6.221
 3364POPC   C2B45896  41.040  36.547   6.691
 3364POPC   C3B45897  40.972  36.683   7.147
 3364POPC   C4B45898  41.070  36.623   7.612
 3365POPC   NC345899   7.635  39.550   5.017
 3365POPC   PO445900   7.324  39.147   5.423
 3365POPC   GL145901   7.391  39.065   5.866
 3365POPC   GL245902   7.448  39.399   5.903
 3365POPC   C1A45903   7.535  39.039   6.299
 3365POPC   D2A45904   7.397  39.175   6.689
 3365POPC   C3A45905   7.643  39.040   7.022
 3365POPC   C4A45906   7.531  39.143   7.451
 3365POPC   C1B45907   7.721  39.530   6.216
 3365POPC   C2B45908   7.810  39.466   6.657
 3365POPC   C3B45909   7.603  39.548   7.078
 3365POPC   C4B45910   7.457  39.653   7.506
 3366POPC   NC345911  29.113   7.743   5.309
 3366POPC   PO445912  29.096   8.316   5.469
 3366POPC   GL145913  29.259   8.006   5.743
 3366POPC   GL245914  28.954   7.798   5.802
 3366POPC   C1A45915  29.217   8.098   6.187
 3366POPC   D2A45916  29.147   8.342   6.566
 3366POPC   C3A45917  29.365   8.268   6.951
 3366POPC   C4A45918  29.256   8.406   7.385
 3366POPC   C1B45919  28.816   7.587   6.185
 3366POPC   C2B45920  28.789   7.682   6.639
 3366POPC   C3B45921  28.929   8.002   6.936
 3366POPC   C4B45922  29.151   7.919   7.333
 3367POPC   NC345923   4.240  21.589   5.404
 3367POPC   PO445924   4.005  20.981   5.364
 3367POPC   GL145925   4.127  21.204   5.765
 3367POPC   GL245926   4.012  21.531   5.875
 3367POPC   C1A45927   4.267  21.067   6.190
 3367POPC   D2A45928   4.254  21.345   6.535
 3367POPC   C3A45929   4.221  21.160   6.952
 3367POPC   C4A45930   4.005  21.367   7.282
 3367POPC   C1B45931   4.448  21.528   6.054
 3367POPC   C2B45932   4.683  21.598   6.469
 3367POPC   C3B45933   4.539  21.552   6.923
 3367POPC   C4B45934   4.718  21.459   7.325
 3368POPC   NC345935  17.057   7.070   5.552
 3368POPC   PO445936  16.638   7.394   5.136
 3368POPC   GL145937  16.653   7.439   5.626
 3368POPC   GL245938  16.669   7.134   5.857
 3368POPC   C1A45939  16.598   7.589   6.086
 3368POPC   D2A45940  16.406   7.619   6.499
 3368POPC   C3A45941  16.561   7.512   6.918
 3368POPC   C4A45942  16.715   7.667   7.300
 3368POPC   C1B45943  16.917   7.212   6.226
 3368POPC   C2B45944  16.954   7.108   6.653
 3368POPC   C3B45945  16.981   7.254   7.072
 3368POPC   C4B45946  16.711   7.158   7.414
 3369POPC   NC345947  24.760  14.700   5.447
 3369POPC   PO445948  24.146  14.506   5.735
 3369POPC   GL145949  24.512  14.532   5.911
 3369POPC   GL245950  24.626  14.222   5.768
 3369POPC   C1A45951  24.522  14.520   6.362
 3369POPC   D2A45952  24.729  14.446   6.739
 3369POPC   C3A45953  24.408  14.489   7.074
 3369POPC   C4A45954  24.378  14.836   7.381
 3369POPC   C1B45955  24.414  14.063   6.156
 3369POPC   C2B45956  24.439  14.033   6.589
 3369POPC   C3B45957  24.639  14.017   6.993
 3369POPC   C4B45958  24.686  14.179   7.407
 3370POPC   NC345959  28.205   7.114   5.502
 3370POPC   PO445960  28.751   7.465   5.287
 3370POPC   GL145961  28.517   7.484   5.755
 3370POPC   GL245962  28.481   7.190   5.955
 3370POPC   C1A45963  28.312   7.621   6.171
 3370POPC   D2A45964  28.444   7.313   6.510
 3370POPC   C3A45965  28.369   7.399   6.951
 3370POPC   C4A45966  28.704   7.592   7.172
 3370POPC   C1B45967  28.066   7.188   6.190
 3370POPC   C2B45968  27.997   7.059   6.655
 3370POPC   C3B45969  27.900   7.123   7.111
 3370POPC   C4B45970  27.895   6.953   7.585
 3371POPC   NC345971  44.220  13.113   5.414
 3371POPC   PO445972  43.605  12.839   5.409
 3371POPC   GL145973  43.819  13.024   5.795
 3371POPC   GL245974  44.156  12.998   5.907
 3371POPC   C1A45975  43.812  13.135   6.272
 3371POPC   D2A45976  44.014  12.997   6.681
 3371POPC   C3A45977  43.781  12.704   6.954
 3371POPC   C4A45978  43.643  12.735   7.387
 3371POPC   C1B45979  44.130  12.688   6.255
 3371POPC   C2B45980  44.357  12.579   6.658
 3371POPC   C3B45981  44.255  12.600   7.102
 3371POPC   C4B45982  44.140  12.908   7.383
 3372POPC   NC345983  13.563  22.054   5.373
 3372POPC   PO445984  13.897  22.562   5.630
 3372POPC   GL145985  13.735  22.185   5.876
 3372POPC   GL245986  13.446  21.890   5.828
 3372POPC   C1A45987  13.785  22.245   6.333
 3372POPC   D2A45988  14.000  22.198   6.715
 3372POPC   C3A45989  13.804  22.369   7.040
 3372POPC   C4A45990  13.370  22.471   7.041
 3372POPC   C1B45991  13.377  21.976   6.222
 3372POPC   C2B45992  13.311  22.145   6.615
 3372POPC   C3B45993  13.470  21.966   6.961
 3372POPC   C4B45994  13.686  21.974   7.317
 3373POPC   NC345995   9.614   5.853   5.356
 3373POPC   PO445996   8.910   5.801   5.337
 3373POPC   GL145997   8.765   5.779   5.741
 3373POPC   GL245998   9.103   5.739   5.869
 3373POPC   C1A45999   8.722   6.043   6.117
 3373POPC   D2A46000   8.954   6.179   6.497
 3373POPC   C3A46001   8.986   5.962   6.922
 3373POPC   C4A46002   8.837   6.134   7.320
 3373POPC   C1B46003   8.918   5.570   6.248
 3373POPC   C2B46004   9.119   5.309   6.560
 3373POPC   C3B46005   9.163   5.441   6.974
 3373POPC   C4B46006   9.051   5.682   7.364
 3374POPC   NC346007  31.879  39.178   5.446
 3374POPC   PO446008  32.522  39.340   5.411
 3374POPC   GL146009  32.276  39.255   5.774
 3374POPC   GL246010  32.029  39.547   5.774
 3374POPC   C1A46011  32.213  39.006   6.153
 3374POPC   D2A46012  32.259  39.169   6.561
 3374POPC   C3A46013  32.162  38.965   6.908
 3374POPC   C4A46014  32.150  38.793   7.301
 3374POPC   C1B46015  32.160  39.529   6.206
 3374POPC   C2B46016  31.998  39.602   6.614
 3374POPC   C3B46017  31.859  39.369   6.929
 3374POPC   C4B46018  32.118  39.343   7.274
 3375POPC   NC346019  39.255  32.746   5.532
 3375POPC   PO446020  39.662  33.251   5.681
 3375POPC   GL146021  39.550  32.946   5.979
 3375POPC   GL246022  39.210  32.907   6.051
 3375POPC   C1A46023  39.538  33.021   6.423
 3375POPC   D2A46024  39.154  33.126   6.626
 3375POPC   C3A46025  39.255  33.196   7.032
 3375POPC   C4A46026  39.288  32.971   7.431
 3375POPC   C1B46027  38.879  32.789   6.335
 3375POPC   C2B46028  38.906  32.604   6.733
 3375POPC   C3B46029  38.865  32.891   7.064
 3375POPC   C4B46030  38.556  33.077   7.308
 3376POPC   NC346031  23.900  14.821   5.510
 3376POPC   PO446032  23.514  15.444   5.465
 3376POPC   GL146033  23.666  15.233   5.817
 3376POPC   GL246034  23.435  14.973   5.861
 3376POPC   C1A46035  23.856  15.267   6.234
 3376POPC   D2A46036  23.637  15.314   6.644
 3376POPC   C3A46037  23.848  15.375   7.009
 3376POPC   C4A46038  23.988  15.010   7.139
 3376POPC   C1B46039  23.422  15.014   6.286
 3376POPC   C2B46040  23.396  14.746   6.628
 3376POPC   C3B46041  23.504  14.921   6.995
 3376POPC   C4B46042  23.377  15.279   7.184
 3377POPC   NC346043  36.242  38.086   5.393
 3377POPC   PO446044  35.810  37.634   5.264
 3377POPC   GL146045  36.015  37.622   5.669
 3377POPC   GL246046  36.121  37.959   5.864
 3377POPC   C1A46047  36.011  37.522   6.100
 3377POPC   D2A46048  35.941  37.811   6.432
 3377POPC   C3A46049  36.042  37.623   6.810
 3377POPC   C4A46050  36.060  37.607   7.233
 3377POPC   C1B46051  36.403  37.845   6.217
 3377POPC   C2B46052  36.387  37.976   6.643
 3377POPC   C3B46053  36.477  37.798   7.024
 3377POPC   C4B46054  36.756  37.800   7.379
 3378POPC   NC346055  17.341  44.028   5.572
 3378POPC   PO446056  17.609  43.478   5.187
 3378POPC   GL146057  17.367  43.408   5.641
 3378POPC   GL246058  17.151  43.633   5.795
 3378POPC   C1A46059  17.463  43.462   6.151
 3378POPC   D2A46060  17.585  43.658   6.554
 3378POPC   C3A46061  17.456  43.512   6.970
 3378POPC   C4A46062  17.301  43.621   7.366
 3378POPC   C1B46063  17.244  43.910   6.210
 3378POPC   C2B46064  17.404  44.139   6.588
 3378POPC   C3B46065  17.225  44.000   6.989
 3378POPC   C4B46066  17.211  44.117   7.428
 3379POPC   NC346067  24.284  16.330   5.170
 3379POPC   PO446068  24.559  15.782   5.285
 3379POPC   GL146069  24.323  15.787   5.716
 3379POPC   GL246070  24.364  16.088   5.976
 3379POPC   C1A46071  24.358  15.621   6.154
 3379POPC   D2A46072  24.446  15.923   6.476
 3379POPC   C3A46073  24.528  15.765   6.838
 3379POPC   C4A46074  24.539  15.722   7.254
 3379POPC   C1B46075  24.040  16.207   6.341
 3379POPC   C2B46076  24.033  16.289   6.792
 3379POPC   C3B46077  24.414  16.220   7.048
 3379POPC   C4B46078  24.650  16.457   7.377
 3380POPC   NC346079  15.337  11.990   5.240
 3380POPC   PO446080  15.128  11.343   5.489
 3380POPC   GL146081  15.360  11.468   5.875
 3380POPC   GL246082  15.262  11.137   5.960
 3380POPC   C1A46083  15.455  11.393   6.346
 3380POPC   D2A46084  15.234  11.148   6.668
 3380POPC   C3A46085  15.497  11.212   7.012
 3380POPC   C4A46086  15.298  11.497   7.274
 3380POPC   C1B46087  14.969  11.330   6.243
 3380POPC   C2B46088  14.746  11.315   6.617
 3380POPC   C3B46089  14.878  11.348   7.003
 3380POPC   C4B46090  14.824  11.722   7.157
 3381POPC   NC346091  17.829   2.990   5.375
 3381POPC   PO446092  18.341   2.561   5.369
 3381POPC   GL146093  18.367   2.422   5.789
 3381POPC   GL246094  18.026   2.278   5.770
 3381POPC   C1A46095  18.546   2.613   6.208
 3381POPC   D2A46096  18.649   2.829   6.620
 3381POPC   C3A46097  18.564   2.636   7.036
 3381POPC   C4A46098  18.335   2.914   7.291
 3381POPC   C1B46099  17.825   2.463   6.129
 3381POPC   C2B46100  18.005   2.645   6.467
 3381POPC   C3B46101  18.116   2.747   6.850
 3381POPC   C4B46102  18.055   2.502   7.201
 3382POPC   NC346103   8.046   5.215   5.734
 3382POPC   PO446104   7.443   5.002   5.351
 3382POPC   GL146105   7.327   4.986   5.802
 3382POPC   GL246106   7.122   4.731   5.900
 3382POPC   C1A46107   7.151   5.102   6.238
 3382POPC   D2A46108   7.020   4.950   6.625
 3382POPC   C3A46109   7.241   5.141   6.974
 3382POPC   C4A46110   7.611   5.196   7.249
 3382POPC   C1B46111   7.450   4.674   6.222
 3382POPC   C2B46112   7.461   4.646   6.684
 3382POPC   C3B46113   7.710   4.739   7.052
 3382POPC   C4B46114   7.773   4.764   7.543
 3383POPC   NC346115  43.856  42.811   5.512
 3383POPC   PO446116  44.290  43.269   5.280
 3383POPC   GL146117  44.086  43.325   5.750
 3383POPC   GL246118  43.761  43.135   5.876
 3383POPC   C1A46119  44.004  43.365   6.227
 3383POPC   D2A46120  43.931  43.023   6.507
 3383POPC   C3A46121  44.104  43.197   6.870
 3383POPC   C4A46122  44.050  43.357   7.291
 3383POPC   C1B46123  43.494  43.111   6.228
 3383POPC   C2B46124  43.502  43.295   6.602
 3383POPC   C3B46125  43.626  43.123   6.985
 3383POPC   C4B46126  43.458  43.330   7.275
 3384POPC   NC346127  17.869  43.357   5.572
 3384POPC   PO446128  17.475  42.828   5.435
 3384POPC   GL146129  17.300  42.919   5.818
 3384POPC   GL246130  17.604  43.046   5.933
 3384POPC   C1A46131  17.207  43.040   6.261
 3384POPC   D2A46132  17.476  43.124   6.572
 3384POPC   C3A46133  17.235  43.048   6.908
 3384POPC   C4A46134  17.353  42.975   7.314
 3384POPC   C1B46135  17.895  43.208   6.253
 3384POPC   C2B46136  17.932  43.315   6.704
 3384POPC   C3B46137  17.787  43.142   7.079
 3384POPC   C4B46138  17.732  43.364   7.473
 3385POPC   NC346139  15.973  16.697   5.371
 3385POPC   PO446140  15.525  17.186   5.288
 3385POPC   GL146141  15.733  17.031   5.694
 3385POPC   GL246142  16.083  16.929   5.798
 3385POPC   C1A46143  15.728  17.023   6.167
 3385POPC   D2A46144  15.513  17.134   6.556
 3385POPC   C3A46145  15.707  17.011   6.933
 3385POPC   C4A46146  15.592  16.945   7.361
 3385POPC   C1B46147  16.217  16.775   6.167
 3385POPC   C2B46148  16.110  16.871   6.571
 3385POPC   C3B46149  16.142  16.722   6.964
 3385POPC   C4B46150  16.142  16.333   7.132
 3386POPC   NC346151   9.611  33.851   5.224
 3386POPC   PO446152  10.052  33.406   5.448
 3386POPC   GL146153   9.756  33.596   5.789
 3386POPC   GL246154   9.526  33.892   5.728
 3386POPC   C1A46155   9.858  33.855   6.179
 3386POPC   D2A46156  10.023  33.877   6.607
 3386POPC   C3A46157   9.930  33.549   6.905
 3386POPC   C4A46158   9.830  33.734   7.295
 3386POPC   C1B46159   9.357  33.900   6.138
 3386POPC   C2B46160   9.490  33.995   6.561
 3386POPC   C3B46161   9.462  33.716   6.912
 3386POPC   C4B46162   9.341  33.538   7.318
 3387POPC   NC346163  12.349  24.825   5.416
 3387POPC   PO446164  12.093  24.176   5.464
 3387POPC   GL146165  11.928  24.450   5.795
 3387POPC   GL246166  12.264  24.495   5.822
 3387POPC   C1A46167  12.017  24.720   6.193
 3387POPC   D2A46168  12.122  24.954   6.561
 3387POPC   C3A46169  12.050  24.772   6.934
 3387POPC   C4A46170  12.125  24.848   7.332
 3387POPC   C1B46171  12.220  24.254   6.193
 3387POPC   C2B46172  12.264  24.439   6.581
 3387POPC   C3B46173  12.512  24.535   6.903
 3387POPC   C4B46174  12.350  24.415   7.258
 3388POPC   NC346175  23.800  15.816   5.495
 3388POPC   PO446176  23.889  16.475   5.359
 3388POPC   GL146177  23.589  16.282   5.701
 3388POPC   GL246178  23.868  16.141   5.868
 3388POPC   C1A46179  23.493  16.165   6.185
 3388POPC   D2A46180  23.652  15.965   6.593
 3388POPC   C3A46181  23.540  16.141   6.995
 3388POPC   C4A46182  23.521  15.958   7.366
 3388POPC   C1B46183  23.865  15.771   6.165
 3388POPC   C2B46184  24.044  15.652   6.606
 3388POPC   C3B46185  24.047  15.841   7.054
 3388POPC   C4B46186  23.962  15.741   7.502
 3389POPC   NC346187  29.996   7.563   5.331
 3389POPC   PO446188  29.613   6.985   5.253
 3389POPC   GL146189  29.788   7.203   5.638
 3389POPC   GL246190  30.143   7.170   5.707
 3389POPC   C1A46191  29.790   7.515   5.987
 3389POPC   D2A46192  29.792   7.678   6.427
 3389POPC   C3A46193  29.661   7.511   6.836
 3389POPC   C4A46194  29.803   7.642   7.248
 3389POPC   C1B46195  30.085   7.139   6.151
 3389POPC   C2B46196  29.922   7.168   6.558
 3389POPC   C3B46197  30.119   7.319   6.944
 3389POPC   C4B46198  30.195   7.083   7.285
 3390POPC   NC346199  30.457   6.080   5.090
 3390POPC   PO446200  30.495   5.613   5.549
 3390POPC   GL146201  30.787   5.599   5.892
 3390POPC   GL246202  30.569   5.370   6.066
 3390POPC   C1A46203  30.961   5.597   6.332
 3390POPC   D2A46204  30.772   5.698   6.741
 3390POPC   C3A46205  31.072   5.790   7.099
 3390POPC   C4A46206  31.202   6.056   7.462
 3390POPC   C1B46207  30.499   5.788   6.288
 3390POPC   C2B46208  30.253   6.142   6.379
 3390POPC   C3B46209  30.256   6.190   6.810
 3390POPC   C4B46210  30.524   5.965   7.124
 3391POPC   NC346211  36.118   7.058   5.479
 3391POPC   PO446212  35.824   7.601   5.507
 3391POPC   GL146213  36.066   7.433   5.867
 3391POPC   GL246214  36.389   7.259   5.874
 3391POPC   C1A46215  35.979   7.305   6.293
 3391POPC   D2A46216  36.044   7.117   6.662
 3391POPC   C3A46217  35.867   7.329   6.944
 3391POPC   C4A46218  35.807   7.279   7.364
 3391POPC   C1B46219  36.409   7.554   6.266
 3391POPC   C2B46220  36.151   7.660   6.666
 3391POPC   C3B46221  36.209   7.634   7.151
 3391POPC   C4B46222  36.389   7.551   7.587
 3392POPC   NC346223  36.346   4.861   5.286
 3392POPC   PO446224  36.016   5.371   5.204
 3392POPC   GL146225  36.227   5.254   5.617
 3392POPC   GL246226  36.079   4.934   5.718
 3392POPC   C1A46227  36.365   5.158   6.067
 3392POPC   D2A46228  36.274   4.916   6.437
 3392POPC   C3A46229  36.264   5.089   6.833
 3392POPC   C4A46230  36.117   5.081   7.240
 3392POPC   C1B46231  35.840   4.973   6.114
 3392POPC   C2B46232  35.784   4.868   6.546
 3392POPC   C3B46233  35.874   4.742   6.951
 3392POPC   C4B46234  35.679   4.848   7.347
 3393POPC   NC346235  14.752  23.342   5.341
 3393POPC   PO446236  15.373  23.786   5.351
 3393POPC   GL146237  15.287  23.610   5.749
 3393POPC   GL246238  14.958  23.744   5.852
 3393POPC   C1A46239  15.438  23.730   6.152
 3393POPC   D2A46240  15.485  23.982   6.515
 3393POPC   C3A46241  15.423  23.683   6.848
 3393POPC   C4A46242  15.497  23.633   7.274
 3393POPC   C1B46243  14.975  23.507   6.267
 3393POPC   C2B46244  14.985  23.357   6.723
 3393POPC   C3B46245  14.978  23.517   7.157
 3393POPC   C4B46246  15.097  23.704   7.581
 3394POPC   NC346247   5.513  12.377   5.200
 3394POPC   PO446248   5.779  11.846   5.526
 3394POPC   GL146249   5.806  12.227   5.725
 3394POPC   GL246250   6.150  12.323   5.789
 3394POPC   C1A46251   5.784  12.246   6.178
 3394POPC   D2A46252   5.582  12.146   6.559
 3394POPC   C3A46253   5.800  11.902   6.884
 3394POPC   C4A46254   5.791  12.050   7.288
 3394POPC   C1B46255   6.339  12.177   6.200
 3394POPC   C2B46256   6.232  11.982   6.615
 3394POPC   C3B46257   6.259  12.130   7.061
 3394POPC   C4B46258   6.230  12.057   7.539
 3395POPC   NC346259  38.024   5.233   5.487
 3395POPC   PO446260  37.581   4.698   5.521
 3395POPC   GL146261  37.752   4.960   5.828
 3395POPC   GL246262  38.107   4.877   5.847
 3395POPC   C1A46263  37.570   5.070   6.239
 3395POPC   D2A46264  37.348   4.894   6.607
 3395POPC   C3A46265  37.513   5.084   7.008
 3395POPC   C4A46266  37.774   5.340   7.324
 3395POPC   C1B46267  38.070   5.114   6.235
 3395POPC   C2B46268  37.879   4.982   6.639
 3395POPC   C3B46269  37.983   4.910   7.088
 3395POPC   C4B46270  37.773   4.863   7.503
 3396POPC   NC346271   8.056   7.760   5.320
 3396POPC   PO446272   8.472   7.203   5.448
 3396POPC   GL146273   8.429   7.465   5.838
 3396POPC   GL246274   8.066   7.614   5.851
 3396POPC   C1A46275   8.360   7.611   6.285
 3396POPC   D2A46276   7.972   7.528   6.563
 3396POPC   C3A46277   8.058   7.551   7.005
 3396POPC   C4A46278   8.470   7.690   7.165
 3396POPC   C1B46279   8.083   7.218   6.140
 3396POPC   C2B46280   8.271   7.106   6.564
 3396POPC   C3B46281   8.376   7.110   7.028
 3396POPC   C4B46282   8.241   7.324   7.450
 3397POPC   NC346283  30.475  13.587   5.418
 3397POPC   PO446284  30.962  14.015   5.487
 3397POPC   GL146285  30.761  13.743   5.825
 3397POPC   GL246286  30.675  13.374   5.879
 3397POPC   C1A46287  30.775  13.754   6.267
 3397POPC   D2A46288  30.770  13.950   6.663
 3397POPC   C3A46289  30.893  13.624   6.939
 3397POPC   C4A46290  30.840  13.557   7.361
 3397POPC   C1B46291  30.392  13.030   6.088
 3397POPC   C2B46292  30.297  12.856   6.514
 3397POPC   C3B46293  30.384  12.936   6.971
 3397POPC   C4B46294  30.426  13.328   7.148
 3398POPC   NC346295   8.090  40.765   5.457
 3398POPC   PO446296   7.872  41.366   5.530
 3398POPC   GL146297   8.030  41.043   5.863
 3398POPC   GL246298   8.393  40.902   5.864
 3398POPC   C1A46299   8.080  40.818   6.253
 3398POPC   D2A46300   8.240  40.914   6.642
 3398POPC   C3A46301   7.971  40.956   7.006
 3398POPC   C4A46302   7.895  40.868   7.442
 3398POPC   C1B46303   8.641  41.105   6.254
 3398POPC   C2B46304   8.691  41.141   6.702
 3398POPC   C3B46305   8.492  40.988   7.087
 3398POPC   C4B46306   8.810  41.039   7.355
 3399POPC   NC346307  38.649  23.549   5.431
 3399POPC   PO446308  38.278  24.114   5.395
 3399POPC   GL146309  38.391  23.898   5.762
 3399POPC   GL246310  38.253  23.560   5.789
 3399POPC   C1A46311  38.604  23.870   6.175
 3399POPC   D2A46312  38.535  23.997   6.602
 3399POPC   C3A46313  38.607  23.968   7.027
 3399POPC   C4A46314  38.235  24.030   7.317
 3399POPC   C1B46315  38.576  23.369   6.094
 3399POPC   C2B46316  38.765  23.475   6.501
 3399POPC   C3B46317  38.609  23.457   6.924
 3399POPC   C4B46318  38.491  23.594   7.348
 3400POPC   NC346319  30.390   6.792   5.459
 3400POPC   PO446320  30.462   7.488   5.417
 3400POPC   GL146321  30.644   7.347   5.802
 3400POPC   GL246322  30.847   7.049   5.725
 3400POPC   C1A46323  30.718   7.427   6.260
 3400POPC   D2A46324  30.555   7.652   6.634
 3400POPC   C3A46325  30.899   7.634   6.883
 3400POPC   C4A46326  31.052   7.427   7.234
 3400POPC   C1B46327  30.570   6.968   6.107
 3400POPC   C2B46328  30.439   7.051   6.551
 3400POPC   C3B46329  30.628   7.205   6.935
 3400POPC   C4B46330  30.677   7.138   7.360
 3401POPC   NC346331   0.163  44.303   5.669
 3401POPC   PO446332   0.796  44.446   5.377
 3401POPC   GL146333   0.625  44.589   5.818
 3401POPC   GL246334   0.441  44.917   5.819
 3401POPC   C1A46335   0.440  44.538   6.272
 3401POPC   D2A46336   0.160  44.483   6.654
 3401POPC   C3A46337   0.376  44.560   7.044
 3401POPC   C4A46338   0.438  44.448   7.456
 3401POPC   C1B46339   0.608   0.023   6.242
 3401POPC   C2B46340   0.520  44.904   6.691
 3401POPC   C3B46341   0.811  44.981   7.052
 3401POPC   C4B46342   0.891   0.242   7.455
 3402POPC   NC346343  22.807   5.339   5.415
 3402POPC   PO446344  22.885   5.955   5.101
 3402POPC   GL146345  22.890   5.851   5.602
 3402POPC   GL246346  23.104   5.613   5.754
 3402POPC   C1A46347  22.950   5.919   6.118
 3402POPC   D2A46348  23.174   5.944   6.550
 3402POPC   C3A46349  23.003   6.127   6.965
 3402POPC   C4A46350  22.954   5.943   7.394
 3402POPC   C1B46351  23.099   5.427   6.167
 3402POPC   C2B46352  22.874   5.517   6.543
 3402POPC   C3B46353  23.057   5.616   6.944
 3402POPC   C4B46354  23.414   5.454   7.147
 3403POPC   NC346355  35.875  31.028   5.342
 3403POPC   PO446356  36.410  30.718   5.093
 3403POPC   GL146357  36.413  30.756   5.625
 3403POPC   GL246358  36.049  30.675   5.772
 3403POPC   C1A46359  36.405  30.766   6.115
 3403POPC   D2A46360  36.205  31.003   6.514
 3403POPC   C3A46361  36.166  30.821   6.944
 3403POPC   C4A46362  36.370  30.728   7.336
 3403POPC   C1B46363  35.868  30.782   6.185
 3403POPC   C2B46364  35.757  30.719   6.619
 3403POPC   C3B46365  35.687  30.995   6.975
 3403POPC   C4B46366  35.800  30.860   7.366
 3404POPC   NC346367  12.078  39.353   5.404
 3404POPC   PO446368  12.224  38.656   5.305
 3404POPC   GL146369  12.104  38.940   5.736
 3404POPC   GL246370  12.325  39.225   5.821
 3404POPC   C1A46371  11.861  39.152   6.101
 3404POPC   D2A46372  11.999  39.250   6.541
 3404POPC   C3A46373  11.960  39.456   6.947
 3404POPC   C4A46374  11.864  39.178   7.259
 3404POPC   C1B46375  12.364  39.086   6.216
 3404POPC   C2B46376  12.308  38.855   6.620
 3404POPC   C3B46377  12.278  39.038   6.997
 3404POPC   C4B46378  12.372  39.058   7.458
 3405POPC   NC346379  21.917  34.216   5.623
 3405POPC   PO446380  22.545  34.343   5.390
 3405POPC   GL146381  22.332  34.460   5.821
 3405POPC   GL246382  22.019  34.695   5.878
 3405POPC   C1A46383  22.283  34.543   6.293
 3405POPC   D2A46384  22.294  34.915   6.602
 3405POPC   C3A46385  22.323  34.787   7.057
 3405POPC   C4A46386  22.655  34.459   7.238
 3405POPC   C1B46387  21.833  34.800   6.320
 3405POPC   C2B46388  21.824  34.890   6.762
 3405POPC   C3B46389  21.774  34.886   7.166
 3405POPC   C4B46390  21.918  34.669   7.468
 3406POPC   NC346391   5.851  17.747   5.122
 3406POPC   PO446392   5.456  17.320   5.340
 3406POPC   GL146393   5.591  17.613   5.698
 3406POPC   GL246394   5.930  17.740   5.651
 3406POPC   C1A46395   5.557  17.575   6.176
 3406POPC   D2A46396   5.691  17.705   6.595
 3406POPC   C3A46397   5.567  17.527   6.979
 3406POPC   C4A46398   5.613  17.733   7.374
 3406POPC   C1B46399   6.077  17.598   6.042
 3406POPC   C2B46400   6.069  17.398   6.452
 3406POPC   C3B46401   6.103  17.519   6.897
 3406POPC   C4B46402   6.347  17.439   7.269
 3407POPC   NC346403  41.555  16.680   5.265
 3407POPC   PO446404  41.714  17.331   5.467
 3407POPC   GL146405  41.520  16.947   5.716
 3407POPC   GL246406  41.617  16.566   5.742
 3407POPC   C1A46407  41.322  16.869   6.114
 3407POPC   D2A46408  41.488  16.829   6.536
 3407POPC   C3A46409  41.333  16.934   6.946
 3407POPC   C4A46410  41.540  16.655   7.197
 3407POPC   C1B46411  41.745  16.578   6.152
 3407POPC   C2B46412  41.785  16.416   6.551
 3407POPC   C3B46413  41.979  16.569   6.917
 3407POPC   C4B46414  41.959  16.429   7.353
 3408POPC   NC346415  22.869   9.461   5.613
 3408POPC   PO446416  23.408   9.487   5.542
 3408POPC   GL146417  23.266   9.197   5.883
 3408POPC   GL246418  23.444   8.889   5.954
 3408POPC   C1A46419  23.105   9.126   6.318
 3408POPC   D2A46420  23.156   9.340   6.734
 3408POPC   C3A46421  22.917   9.206   7.107
 3408POPC   C4A46422  22.537   8.963   7.266
 3408POPC   C1B46423  23.472   8.771   6.396
 3408POPC   C2B46424  23.379   8.887   6.834
 3408POPC   C3B46425  23.233   8.835   7.250
 3408POPC   C4B46426  23.324   8.584   7.621
 3409POPC   NC346427  40.168  43.100   5.362
 3409POPC   PO446428  39.422  42.991   5.419
 3409POPC   GL146429  39.782  43.017   5.724
 3409POPC   GL246430  40.024  43.271   5.824
 3409POPC   C1A46431  39.988  42.885   6.135
 3409POPC   D2A46432  40.166  43.057   6.514
 3409POPC   C3A46433  40.043  42.908   6.899
 3409POPC   C4A46434  39.900  42.757   7.279
 3409POPC   C1B46435  40.398  43.300   6.119
 3409POPC   C2B46436  40.609  43.292   6.558
 3409POPC   C3B46437  40.414  43.360   6.959
 3409POPC   C4B46438  40.193  43.209   7.329
 3410POPC   NC346439  41.830   2.073   5.349
 3410POPC   PO446440  41.850   1.470   5.394
 3410POPC   GL146441  41.701   1.792   5.771
 3410POPC   GL246442  41.329   1.800   5.864
 3410POPC   C1A46443  41.697   1.993   6.224
 3410POPC   D2A46444  41.737   1.792   6.675
 3410POPC   C3A46445  41.676   2.088   7.034
 3410POPC   C4A46446  41.861   2.486   6.913
 3410POPC   C1B46447  41.182   1.918   6.283
 3410POPC   C2B46448  41.261   2.042   6.728
 3410POPC   C3B46449  41.110   1.961   7.159
 3410POPC   C4B46450  41.351   1.769   7.554
 3411POPC   NC346451   5.519   4.596   5.521
 3411POPC   PO446452   6.168   4.561   5.433
 3411POPC   GL146453   6.103   4.289   5.819
 3411POPC   GL246454   5.730   4.271   5.881
 3411POPC   C1A46455   6.037   4.085   6.243
 3411POPC   D2A46456   5.724   4.152   6.583
 3411POPC   C3A46457   5.981   4.134   6.962
 3411POPC   C4A46458   6.102   4.377   7.314
 3411POPC   C1B46459   5.469   4.482   6.206
 3411POPC   C2B46460   5.306   4.473   6.650
 3411POPC   C3B46461   5.582   4.472   7.015
 3411POPC   C4B46462   5.627   4.435   7.474
 3412POPC   NC346463  33.857   0.144   5.272
 3412POPC   PO446464  33.504   0.746   5.422
 3412POPC   GL146465  33.613   0.438   5.798
 3412POPC   GL246466  33.672   0.067   5.740
 3412POPC   C1A46467  33.851   0.370   6.229
 3412POPC   D2A46468  33.729   0.477   6.666
 3412POPC   C3A46469  33.951   0.572   7.054
 3412POPC   C4A46470  33.849   0.762   7.466
 3412POPC   C1B46471  33.665  44.881   6.159
 3412POPC   C2B46472  33.888  44.958   6.567
 3412POPC   C3B46473  33.749   0.073   6.995
 3412POPC   C4B46474  33.608   0.295   7.376
 3413POPC   NC346475  10.680   2.942   5.365
 3413POPC   PO446476  10.361   2.336   5.425
 3413POPC   GL146477  10.479   2.648   5.746
 3413POPC   GL246478  10.299   2.968   5.747
 3413POPC   C1A46479  10.415   2.636   6.198
 3413POPC   D2A46480  10.720   2.658   6.504
 3413POPC   C3A46481  10.645   2.552   6.936
 3413POPC   C4A46482  10.312   2.689   7.219
 3413POPC   C1B46483  10.682   3.043   6.023
 3413POPC   C2B46484  10.703   3.183   6.453
 3413POPC   C3B46485  10.593   3.077   6.890
 3413POPC   C4B46486  10.872   2.940   7.215
 3414POPC   NC346487  31.784  30.920   5.461
 3414POPC   PO446488  31.137  30.690   5.526
 3414POPC   GL146489  31.263  30.510   5.928
 3414POPC   GL246490  31.564  30.633   5.910
 3414POPC   C1A46491  31.451  30.594   6.393
 3414POPC   D2A46492  31.733  30.657   6.708
 3414POPC   C3A46493  31.431  30.470   6.970
 3414POPC   C4A46494  31.301  30.359   7.391
 3414POPC   C1B46495  31.180  30.936   6.161
 3414POPC   C2B46496  31.276  31.102   6.585
 3414POPC   C3B46497  31.488  30.999   6.987
 3414POPC   C4B46498  31.775  30.711   7.231
 3415POPC   NC346499  36.500  33.186   4.976
 3415POPC   PO446500  36.133  32.820   5.379
 3415POPC   GL146501  36.222  32.993   5.732
 3415POPC   GL246502  35.863  32.986   5.789
 3415POPC   C1A46503  36.268  32.857   6.143
 3415POPC   D2A46504  36.065  33.022   6.513
 3415POPC   C3A46505  36.234  33.102   6.915
 3415POPC   C4A46506  36.066  32.947   7.282
 3415POPC   C1B46507  35.687  33.097   6.145
 3415POPC   C2B46508  35.551  33.046   6.551
 3415POPC   C3B46509  35.711  33.204   6.930
 3415POPC   C4B46510  35.636  33.527   7.228
 3416POPC   NC346511  23.607  29.974   5.234
 3416POPC   PO446512  24.143  29.851   5.612
 3416POPC   GL146513  23.703  29.937   5.758
 3416POPC   GL246514  23.445  29.718   5.655
 3416POPC   C1A46515  23.582  30.081   6.180
 3416POPC   D2A46516  23.804  30.096   6.574
 3416POPC   C3A46517  23.635  30.138   6.995
 3416POPC   C4A46518  23.896  30.338   7.282
 3416POPC   C1B46519  23.428  29.582   6.080
 3416POPC   C2B46520  23.512  29.682   6.513
 3416POPC   C3B46521  23.667  29.618   6.920
 3416POPC   C4B46522  23.471  29.674   7.299
 3417POPC   NC346523   1.438  34.052   5.378
 3417POPC   PO446524   1.007  33.552   5.410
 3417POPC   GL146525   1.189  33.713   5.780
 3417POPC   GL246526   1.038  34.000   5.746
 3417POPC   C1A46527   1.139  33.832   6.242
 3417POPC   D2A46528   1.470  33.863   6.552
 3417POPC   C3A46529   1.399  33.851   6.998
 3417POPC   C4A46530   1.107  33.596   7.260
 3417POPC   C1B46531   0.868  34.248   6.085
 3417POPC   C2B46532   0.739  34.127   6.521
 3417POPC   C3B46533   0.896  33.848   6.837
 3417POPC   C4B46534   1.001  34.095   7.182
 3418POPC   NC346535  12.505   9.538   5.550
 3418POPC   PO446536  11.901   9.850   5.463
 3418POPC   GL146537  12.162   9.849   5.853
 3418POPC   GL246538  12.146   9.487   5.926
 3418POPC   C1A46539  12.178   9.797   6.326
 3418POPC   D2A46540  11.894   9.663   6.602
 3418POPC   C3A46541  11.979   9.645   7.031
 3418POPC   C4A46542  11.843   9.893   7.414
 3418POPC   C1B46543  12.532   9.451   6.190
 3418POPC   C2B46544  12.642   9.431   6.631
 3418POPC   C3B46545  12.418   9.357   7.036
 3418POPC   C4B46546  12.321   9.664   7.402
 3419POPC   NC346547  44.702  44.799   5.334
 3419POPC   PO446548  44.036  44.887   5.221
 3419POPC   GL146549  44.283  44.875   5.662
 3419POPC   GL246550  44.453  44.552   5.729
 3419POPC   C1A46551  44.566  44.909   6.071
 3419POPC   D2A46552  44.704  44.716   6.497
 3419POPC   C3A46553  44.656  44.769   6.957
 3419POPC   C4A46554   0.003  44.929   7.182
 3419POPC   C1B46555  44.600  44.377   6.135
 3419POPC   C2B46556  44.526  44.223   6.558
 3419POPC   C3B46557  44.656  44.253   7.011
 3419POPC   C4B46558  44.876  44.464   7.354
 3420POPC   NC346559  23.500   4.188   5.795
 3420POPC   PO446560  22.974   4.258   5.281
 3420POPC   GL146561  22.981   4.406   5.786
 3420POPC   GL246562  22.939   4.085   5.896
 3420POPC   C1A46563  23.043   4.427   6.280
 3420POPC   D2A46564  23.033   4.118   6.642
 3420POPC   C3A46565  23.132   4.207   7.081
 3420POPC   C4A46566  23.031   4.510   7.419
 3420POPC   C1B46567  22.589   4.260   6.137
 3420POPC   C2B46568  22.519   4.157   6.557
 3420POPC   C3B46569  22.593   4.100   6.971
 3420POPC   C4B46570  22.719   4.117   7.381
 3421POPC   NC346571  21.899  20.436   5.372
 3421POPC   PO446572  21.745  20.968   5.423
 3421POPC   GL146573  21.884  20.686   5.816
 3421POPC   GL246574  22.213  20.478   5.794
 3421POPC   C1A46575  21.960  20.505   6.247
 3421POPC   D2A46576  22.008  20.426   6.689
 3421POPC   C3A46577  22.052  20.749   6.970
 3421POPC   C4A46578  21.949  20.621   7.344
 3421POPC   C1B46579  22.471  20.529   6.214
 3421POPC   C2B46580  22.514  20.470   6.694
 3421POPC   C3B46581  22.437  20.486   7.163
 3421POPC   C4B46582  22.379  20.740   7.571
 3422POPC   NC346583  12.389  42.286   5.358
 3422POPC   PO446584  12.944  42.016   5.505
 3422POPC   GL146585  12.664  42.201   5.773
 3422POPC   GL246586  12.675  42.548   5.697
 3422POPC   C1A46587  12.504  42.210   6.168
 3422POPC   D2A46588  12.597  42.393   6.566
 3422POPC   C3A46589  12.868  42.209   6.875
 3422POPC   C4A46590  12.729  42.321   7.273
 3422POPC   C1B46591  12.942  42.545   6.082
 3422POPC   C2B46592  13.032  42.647   6.514
 3422POPC   C3B46593  12.866  42.709   6.923
 3422POPC   C4B46594  13.065  42.745   7.292
 3423POPC   NC346595  34.290   3.454   5.124
 3423POPC   PO446596  34.867   3.241   5.464
 3423POPC   GL146597  34.796   3.404   5.892
 3423POPC   GL246598  34.787   3.788   5.859
 3423POPC   C1A46599  34.445   3.480   6.237
 3423POPC   D2A46600  34.217   3.408   6.664
 3423POPC   C3A46601  34.529   3.297   7.032
 3423POPC   C4A46602  34.933   3.494   7.128
 3423POPC   C1B46603  34.937   3.717   6.281
 3423POPC   C2B46604  34.735   3.576   6.652
 3423POPC   C3B46605  34.452   3.781   6.940
 3423POPC   C4B46606  34.588   3.917   7.292
 3424POPC   NC346607   6.366  37.675   5.470
 3424POPC   PO446608   7.050  37.526   5.438
 3424POPC   GL146609   6.762  37.557   5.778
 3424POPC   GL246610   6.614  37.227   5.742
 3424POPC   C1A46611   6.611  37.751   6.177
 3424POPC   D2A46612   6.431  37.923   6.537
 3424POPC   C3A46613   6.654  37.908   6.918
 3424POPC   C4A46614   6.569  38.189   7.226
 3424POPC   C1B46615   6.649  37.247   6.205
 3424POPC   C2B46616   6.652  37.463   6.632
 3424POPC   C3B46617   6.604  37.411   7.101
 3424POPC   C4B46618   6.229  37.405   7.360
 3425POPC   NC346619   4.735   6.340   5.494
 3425POPC   PO446620   5.056   5.825   5.458
 3425POPC   GL146621   5.153   5.702   5.863
 3425POPC   GL246622   5.203   5.984   5.970
 3425POPC   C1A46623   4.934   5.709   6.287
 3425POPC   D2A46624   4.918   5.985   6.626
 3425POPC   C3A46625   5.027   5.731   6.976
 3425POPC   C4A46626   5.283   5.484   7.149
 3425POPC   C1B46627   5.446   5.796   6.298
 3425POPC   C2B46628   5.429   5.922   6.684
 3425POPC   C3B46629   5.268   6.189   6.949
 3425POPC   C4B46630   5.264   6.083   7.271
 3426POPC   NC346631  20.583  25.895   5.246
 3426POPC   PO446632  20.339  26.416   5.548
 3426POPC   GL146633  20.548  26.042   5.791
 3426POPC   GL246634  20.481  25.673   5.692
 3426POPC   C1A46635  20.822  26.066   6.182
 3426POPC   D2A46636  20.950  25.975   6.624
 3426POPC   C3A46637  20.705  26.213   6.917
 3426POPC   C4A46638  20.545  26.128   7.301
 3426POPC   C1B46639  20.514  25.659   6.137
 3426POPC   C2B46640  20.393  25.887   6.485
 3426POPC   C3B46641  20.271  25.930   6.899
 3426POPC   C4B46642  20.284  25.694   7.268
 3427POPC   NC346643  22.462  43.194   5.488
 3427POPC   PO446644  21.803  43.323   5.421
 3427POPC   GL146645  22.104  43.342   5.812
 3427POPC   GL246646  22.429  43.499   5.870
 3427POPC   C1A46647  22.323  42.999   6.066
 3427POPC   D2A46648  22.351  42.911   6.473
 3427POPC   C3A46649  22.371  42.940   6.909
 3427POPC   C4A46650  22.176  42.895   7.328
 3427POPC   C1B46651  22.338  43.449   6.289
 3427POPC   C2B46652  22.314  43.389   6.684
 3427POPC   C3B46653  22.137  43.391   7.047
 3427POPC   C4B46654  22.481  43.300   7.255
 3428POPC   NC346655  24.028  30.313   5.598
 3428POPC   PO446656  24.544  29.991   5.215
 3428POPC   GL146657  24.606  29.988   5.737
 3428POPC   GL246658  24.690  30.329   5.790
 3428POPC   C1A46659  24.387  29.796   6.184
 3428POPC   D2A46660  24.069  29.653   6.516
 3428POPC   C3A46661  24.120  29.876   6.914
 3428POPC   C4A46662  24.192  29.741   7.321
 3428POPC   C1B46663  24.754  30.133   6.208
 3428POPC   C2B46664  24.440  30.181   6.526
 3428POPC   C3B46665  24.566  30.134   6.905
 3428POPC   C4B46666  24.372  30.202   7.261
 3429POPC   NC346667  19.195  26.502   5.474
 3429POPC   PO446668  19.315  27.131   5.652
 3429POPC   GL146669  19.133  26.799   5.894
 3429POPC   GL246670  18.795  26.751   5.827
 3429POPC   C1A46671  19.228  26.525   6.227
 3429POPC   D2A46672  19.321  26.753   6.610
 3429POPC   C3A46673  19.351  26.644   7.027
 3429POPC   C4A46674  19.131  26.951   7.255
 3429POPC   C1B46675  18.716  26.611   6.232
 3429POPC   C2B46676  18.872  26.437   6.592
 3429POPC   C3B46677  18.841  26.632   6.980
 3429POPC   C4B46678  18.966  26.478   7.368
 3430POPC   NC346679  16.044  14.183   5.420
 3430POPC   PO446680  15.604  14.654   5.601
 3430POPC   GL146681  15.882  14.372   5.881
 3430POPC   GL246682  16.225  14.295   5.897
 3430POPC   C1A46683  15.934  14.227   6.326
 3430POPC   D2A46684  15.657  14.161   6.659
 3430POPC   C3A46685  15.807  14.311   7.080
 3430POPC   C4A46686  15.842  14.163   7.500
 3430POPC   C1B46687  16.256  14.598   6.231
 3430POPC   C2B46688  16.257  14.798   6.611
 3430POPC   C3B46689  16.226  14.693   7.055
 3430POPC   C4B46690  16.249  14.453   7.444
 3431POPC   NC346691   6.302  19.153   5.030
 3431POPC   PO446692   6.748  19.052   5.539
 3431POPC   GL146693   6.677  18.852   5.908
 3431POPC   GL246694   6.316  18.899   5.956
 3431POPC   C1A46695   6.831  18.901   6.347
 3431POPC   D2A46696   6.649  18.867   6.762
 3431POPC   C3A46697   6.930  18.944   7.111
 3431POPC   C4A46698   6.990  19.047   7.526
 3431POPC   C1B46699   6.493  19.245   6.188
 3431POPC   C2B46700   6.447  19.444   6.598
 3431POPC   C3B46701   6.456  19.289   6.996
 3431POPC   C4B46702   6.642  19.368   7.334
 3432POPC   NC346703  42.752   1.707   5.516
 3432POPC   PO446704  42.288   2.167   5.286
 3432POPC   GL146705  42.208   1.802   5.606
 3432POPC   GL246706  42.431   1.924   5.831
 3432POPC   C1A46707  42.097   1.671   6.098
 3432POPC   D2A46708  42.223   1.634   6.548
 3432POPC   C3A46709  42.215   2.023   6.797
 3432POPC   C4A46710  42.157   2.171   7.212
 3432POPC   C1B46711  42.629   1.764   6.217
 3432POPC   C2B46712  42.704   1.851   6.659
 3432POPC   C3B46713  42.604   1.888   7.126
 3432POPC   C4B46714  42.651   1.986   7.587
 3433POPC   NC346715  35.895  27.996   5.523
 3433POPC   PO446716  36.268  27.486   5.340
 3433POPC   GL146717  36.243  27.660   5.744
 3433POPC   GL246718  35.998  27.418   5.797
 3433POPC   C1A46719  36.200  27.973   6.113
 3433POPC   D2A46720  36.114  28.110   6.530
 3433POPC   C3A46721  36.319  27.837   6.830
 3433POPC   C4A46722  36.231  27.615   7.236
 3433POPC   C1B46723  36.116  27.467   6.229
 3433POPC   C2B46724  35.932  27.606   6.606
 3433POPC   C3B46725  35.827  27.432   7.000
 3433POPC   C4B46726  35.673  27.545   7.406
 3434POPC   NC346727   1.824  30.847   5.380
 3434POPC   PO446728   2.001  30.319   5.624
 3434POPC   GL146729   2.173  30.669   5.815
 3434POPC   GL246730   1.877  30.753   5.937
 3434POPC   C1A46731   2.305  30.811   6.252
 3434POPC   D2A46732   1.975  30.907   6.554
 3434POPC   C3A46733   2.106  30.909   6.993
 3434POPC   C4A46734   1.883  30.896   7.423
 3434POPC   C1B46735   1.945  30.439   6.273
 3434POPC   C2B46736   1.926  30.411   6.696
 3434POPC   C3B46737   1.759  30.526   7.036
 3434POPC   C4B46738   2.115  30.454   7.244
 3435POPC   NC346739  20.407  32.459   5.407
 3435POPC   PO446740  20.888  32.076   5.336
 3435POPC   GL146741  20.593  32.019   5.668
 3435POPC   GL246742  20.667  32.320   5.839
 3435POPC   C1A46743  20.385  31.927   6.068
 3435POPC   D2A46744  20.459  32.076   6.487
 3435POPC   C3A46745  20.522  31.862   6.875
 3435POPC   C4A46746  20.543  32.070   7.262
 3435POPC   C1B46747  20.380  32.442   6.130
 3435POPC   C2B46748  20.361  32.559   6.576
 3435POPC   C3B46749  20.526  32.583   6.982
 3435POPC   C4B46750  20.736  32.522   7.377
 3436POPC   NC346751  10.895   1.097   5.132
 3436POPC   PO446752  10.445   1.538   5.471
 3436POPC   GL146753  10.536   1.147   5.704
 3436POPC   GL246754  10.884   1.158   5.778
 3436POPC   C1A46755  10.551   1.025   6.140
 3436POPC   D2A46756  10.755   0.986   6.522
 3436POPC   C3A46757  10.461   1.100   6.816
 3436POPC   C4A46758  10.383   1.174   7.222
 3436POPC   C1B46759  10.796   1.483   6.143
 3436POPC   C2B46760  10.875   1.485   6.615
 3436POPC   C3B46761  10.673   1.557   7.040
 3436POPC   C4B46762  10.786   1.398   7.443
 3437POPC   NC346763  18.351  17.120   5.485
 3437POPC   PO446764  18.003  17.678   5.394
 3437POPC   GL146765  17.954  17.440   5.813
 3437POPC   GL246766  18.154  17.153   5.947
 3437POPC   C1A46767  17.894  17.416   6.299
 3437POPC   D2A46768  18.073  17.267   6.681
 3437POPC   C3A46769  18.104  17.518   6.997
 3437POPC   C4A46770  18.032  17.455   7.402
 3437POPC   C1B46771  18.408  17.316   6.304
 3437POPC   C2B46772  18.543  17.514   6.663
 3437POPC   C3B46773  18.618  17.201   6.924
 3437POPC   C4B46774  18.392  17.128   7.278
 3438POPC   NC346775  14.130   2.463   5.544
 3438POPC   PO446776  14.621   2.844   5.468
 3438POPC   GL146777  14.406   2.823   5.841
 3438POPC   GL246778  14.572   3.117   5.947
 3438POPC   C1A46779  14.217   2.665   6.233
 3438POPC   D2A46780  14.456   2.706   6.618
 3438POPC   C3A46781  14.562   2.353   6.858
 3438POPC   C4A46782  14.503   2.616   7.201
 3438POPC   C1B46783  14.321   3.138   6.333
 3438POPC   C2B46784  14.027   2.989   6.675
 3438POPC   C3B46785  14.140   3.011   7.117
 3438POPC   C4B46786  14.473   3.267   7.273
 3439POPC   NC346787  10.077  44.696   5.517
 3439POPC   PO446788   9.426  44.410   5.475
 3439POPC   GL146789   9.530  44.543   5.880
 3439POPC   GL246790   9.844  44.364   5.883
 3439POPC   C1A46791   9.512  44.802   6.250
 3439POPC   D2A46792   9.812   0.090   6.475
 3439POPC   C3A46793   9.790   0.078   6.935
 3439POPC   C4A46794   9.847  44.848   7.323
 3439POPC   C1B46795   9.903  44.509   6.325
 3439POPC   C2B46796   9.763  44.582   6.760
 3439POPC   C3B46797   9.820  44.371   7.182
 3439POPC   C4B46798   9.990  44.437   7.621
 3440POPC   NC346799  38.292   1.222   5.370
 3440POPC   PO446800  38.759   0.824   5.738
 3440POPC   GL146801  38.381   1.003   5.848
 3440POPC   GL246802  38.370   1.371   5.848
 3440POPC   C1A46803  38.353   1.063   6.281
 3440POPC   D2A46804  38.367   0.926   6.694
 3440POPC   C3A46805  38.375   1.198   7.060
 3440POPC   C4A46806  38.456   0.966   7.436
 3440POPC   C1B46807  38.700   1.417   6.169
 3440POPC   C2B46808  38.681   1.352   6.634
 3440POPC   C3B46809  38.851   1.431   7.047
 3440POPC   C4B46810  38.725   1.476   7.488
 3441POPC   NC346811  25.594   1.934   5.455
 3441POPC   PO446812  25.210   2.422   5.378
 3441POPC   GL146813  25.280   2.275   5.775
 3441POPC   GL246814  25.226   1.972   5.796
 3441POPC   C1A46815  25.056   2.195   6.197
 3441POPC   D2A46816  24.865   2.032   6.545
 3441POPC   C3A46817  25.011   2.243   6.901
 3441POPC   C4A46818  24.958   2.053   7.275
 3441POPC   C1B46819  25.544   2.032   6.150
 3441POPC   C2B46820  25.393   2.014   6.577
 3441POPC   C3B46821  25.320   1.821   6.984
 3441POPC   C4B46822  25.473   2.120   7.241
 3442POPC   NC346823  18.233  22.750   5.464
 3442POPC   PO446824  18.357  23.392   5.478
 3442POPC   GL146825  18.234  23.115   5.850
 3442POPC   GL246826  18.468  22.807   5.908
 3442POPC   C1A46827  18.208  23.045   6.311
 3442POPC   D2A46828  17.973  22.810   6.643
 3442POPC   C3A46829  18.150  22.848   7.036
 3442POPC   C4A46830  18.219  23.265   7.207
 3442POPC   C1B46831  18.687  23.124   6.143
 3442POPC   C2B46832  18.817  23.069   6.590
 3442POPC   C3B46833  18.640  23.057   7.012
 3442POPC   C4B46834  18.603  23.056   7.474
 3443POPC   NC346835  31.356   1.961   5.227
 3443POPC   PO446836  32.008   2.205   5.215
 3443POPC   GL146837  31.701   1.995   5.583
 3443POPC   GL246838  31.609   1.699   5.649
 3443POPC   C1A46839  31.673   1.994   6.069
 3443POPC   D2A46840  31.640   1.803   6.483
 3443POPC   C3A46841  31.624   1.995   6.919
 3443POPC   C4A46842  31.515   1.798   7.316
 3443POPC   C1B46843  31.328   1.611   5.993
 3443POPC   C2B46844  31.150   1.637   6.413
 3443POPC   C3B46845  31.251   1.644   6.864
 3443POPC   C4B46846  31.026   1.680   7.257
 3444POPC   NC346847  37.029  35.096   5.264
 3444POPC   PO446848  36.537  35.441   5.284
 3444POPC   GL146849  36.772  35.268   5.694
 3444POPC   GL246850  36.663  35.468   6.017
 3444POPC   C1A46851  37.032  35.163   6.103
 3444POPC   D2A46852  36.812  35.370   6.497
 3444POPC   C3A46853  37.005  35.472   6.910
 3444POPC   C4A46854  37.048  35.165   7.246
 3444POPC   C1B46855  36.513  35.827   6.296
 3444POPC   C2B46856  36.372  35.905   6.718
 3444POPC   C3B46857  36.470  35.561   7.041
 3444POPC   C4B46858  36.791  35.629   7.385
 3445POPC   NC346859  12.088  21.058   5.430
 3445POPC   PO446860  11.638  20.572   5.481
 3445POPC   GL146861  11.871  20.798   5.842
 3445POPC   GL246862  12.248  20.775   5.812
 3445POPC   C1A46863  12.018  20.634   6.287
 3445POPC   D2A46864  12.121  20.449   6.719
 3445POPC   C3A46865  11.963  20.582   7.152
 3445POPC   C4A46866  11.680  20.323   7.457
 3445POPC   C1B46867  12.356  20.996   6.173
 3445POPC   C2B46868  12.474  20.790   6.554
 3445POPC   C3B46869  12.537  20.626   6.956
 3445POPC   C4B46870  12.425  20.747   7.353
 3446POPC   NC346871  15.721   3.792   5.514
 3446POPC   PO446872  16.137   3.298   5.382
 3446POPC   GL146873  15.992   3.407   5.772
 3446POPC   GL246874  16.039   3.761   5.897
 3446POPC   C1A46875  15.826   3.317   6.165
 3446POPC   D2A46876  15.807   3.524   6.557
 3446POPC   C3A46877  15.831   3.237   6.892
 3446POPC   C4A46878  15.844   3.266   7.326
 3446POPC   C1B46879  16.055   3.928   6.288
 3446POPC   C2B46880  16.238   3.800   6.674
 3446POPC   C3B46881  16.110   3.924   7.086
 3446POPC   C4B46882  15.758   3.857   7.352
 3447POPC   NC346883  30.787  10.707   5.447
 3447POPC   PO446884  30.400  10.286   5.262
 3447POPC   GL146885  30.636  10.382   5.781
 3447POPC   GL246886  30.952  10.558   5.900
 3447POPC   C1A46887  30.630  10.504   6.274
 3447POPC   D2A46888  30.941  10.476   6.651
 3447POPC   C3A46889  30.755  10.560   7.073
 3447POPC   C4A46890  30.605  10.447   7.490
 3447POPC   C1B46891  31.022  10.850   6.270
 3447POPC   C2B46892  30.816  10.972   6.642
 3447POPC   C3B46893  30.917  11.075   7.050
 3447POPC   C4B46894  30.748  10.941   7.467
 3448POPC   NC346895  29.339  28.197   5.452
 3448POPC   PO446896  29.220  28.828   5.441
 3448POPC   GL146897  29.128  28.536   5.795
 3448POPC   GL246898  29.210  28.212   5.940
 3448POPC   C1A46899  28.926  28.582   6.169
 3448POPC   D2A46900  29.107  28.436   6.509
 3448POPC   C3A46901  28.853  28.549   6.863
 3448POPC   C4A46902  28.884  28.739   7.270
 3448POPC   C1B46903  28.832  28.053   6.159
 3448POPC   C2B46904  28.755  28.066   6.608
 3448POPC   C3B46905  29.096  28.077   6.862
 3448POPC   C4B46906  29.176  28.312   7.202
 3449POPC   NC346907  22.337  12.106   5.414
 3449POPC   PO446908  21.947  12.528   5.320
 3449POPC   GL146909  22.047  12.351   5.767
 3449POPC   GL246910  22.408  12.334   5.876
 3449POPC   C1A46911  22.080  12.402   6.247
 3449POPC   D2A46912  22.300  12.219   6.603
 3449POPC   C3A46913  22.201  12.426   6.999
 3449POPC   C4A46914  21.940  12.607   7.334
 3449POPC   C1B46915  22.672  12.474   6.243
 3449POPC   C2B46916  22.766  12.459   6.709
 3449POPC   C3B46917  22.628  12.136   7.001
 3449POPC   C4B46918  22.221  11.904   7.025
 3450POPC   NC346919  43.823  34.805   5.601
 3450POPC   PO446920  43.699  34.336   5.132
 3450POPC   GL146921  43.741  34.189   5.692
 3450POPC   GL246922  43.755  34.438   5.926
 3450POPC   C1A46923  43.642  34.014   6.150
 3450POPC   D2A46924  43.842  34.067   6.576
 3450POPC   C3A46925  43.644  34.149   6.984
 3450POPC   C4A46926  43.891  34.412   7.252
 3450POPC   C1B46927  44.042  34.434   6.268
 3450POPC   C2B46928  43.924  34.572   6.705
 3450POPC   C3B46929  43.866  34.886   7.045
 3450POPC   C4B46930  44.180  34.878   7.364
 3451POPC   NC346931  34.032  41.451   5.550
 3451POPC   PO446932  33.413  41.749   5.541
 3451POPC   GL146933  33.589  41.547   5.860
 3451POPC   GL246934  33.868  41.812   5.878
 3451POPC   C1A46935  33.458  41.431   6.279
 3451POPC   D2A46936  33.597  41.714   6.591
 3451POPC   C3A46937  33.644  41.613   7.017
 3451POPC   C4A46938  33.618  41.819   7.386
 3451POPC   C1B46939  33.970  41.553   6.244
 3451POPC   C2B46940  34.127  41.601   6.664
 3451POPC   C3B46941  34.095  41.384   7.042
 3451POPC   C4B46942  34.019  41.001   7.242
 3452POPC   NC346943  24.287  37.410   5.532
 3452POPC   PO446944  24.425  37.951   5.475
 3452POPC   GL146945  24.319  37.802   5.887
 3452POPC   GL246946  24.620  37.614   5.897
 3452POPC   C1A46947  24.362  37.869   6.350
 3452POPC   D2A46948  24.311  38.073   6.790
 3452POPC   C3A46949  24.114  37.845   7.133
 3452POPC   C4A46950  24.249  37.459   7.335
 3452POPC   C1B46951  24.845  37.700   6.276
 3452POPC   C2B46952  24.707  37.696   6.714
 3452POPC   C3B46953  24.624  37.793   7.143
 3452POPC   C4B46954  24.503  38.140   7.414
 3453POPC   NC346955  30.566  20.818   5.441
 3453POPC   PO446956  31.231  20.797   5.350
 3453POPC   GL146957  30.906  20.571   5.722
 3453POPC   GL246958  30.551  20.376   5.706
 3453POPC   C1A46959  30.618  20.648   6.112
 3453POPC   D2A46960  30.456  20.770   6.519
 3453POPC   C3A46961  30.598  20.561   6.895
 3453POPC   C4A46962  30.675  20.701   7.265
 3453POPC   C1B46963  30.324  20.233   6.120
 3453POPC   C2B46964  30.207  20.329   6.540
 3453POPC   C3B46965  30.104  20.570   6.928
 3453POPC   C4B46966  30.223  20.468   7.321
 3454POPC   NC346967  35.858  43.477   5.651
 3454POPC   PO446968  36.412  43.097   5.517
 3454POPC   GL146969  36.117  43.052   5.872
 3454POPC   GL246970  35.795  42.845   5.908
 3454POPC   C1A46971  36.170  42.971   6.319
 3454POPC   D2A46972  35.926  43.004   6.694
 3454POPC   C3A46973  36.140  42.806   7.039
 3454POPC   C4A46974  36.019  42.887   7.475
 3454POPC   C1B46975  35.718  43.171   6.225
 3454POPC   C2B46976  35.613  43.436   6.583
 3454POPC   C3B46977  35.676  43.502   6.999
 3454POPC   C4B46978  35.990  43.277   7.152
 3455POPC   NC346979  32.377  34.790   5.317
 3455POPC   PO446980  32.177  35.423   5.271
 3455POPC   GL146981  32.052  35.362   5.721
 3455POPC   GL246982  32.084  35.002   5.721
 3455POPC   C1A46983  32.012  35.336   6.182
 3455POPC   D2A46984  32.210  35.261   6.589
 3455POPC   C3A46985  32.253  35.513   6.963
 3455POPC   C4A46986  32.103  35.558   7.388
 3455POPC   C1B46987  31.994  34.832   6.131
 3455POPC   C2B46988  31.830  34.928   6.564
 3455POPC   C3B46989  31.936  35.089   7.011
 3455POPC   C4B46990  31.873  35.111   7.478
 3456POPC   NC346991  19.192  39.588   5.452
 3456POPC   PO446992  18.735  39.282   5.443
 3456POPC   GL146993  18.911  39.217   5.858
 3456POPC   GL246994  19.092  38.910   5.866
 3456POPC   C1A46995  19.079  39.330   6.287
 3456POPC   D2A46996  19.255  39.240   6.717
 3456POPC   C3A46997  19.086  39.467   7.098
 3456POPC   C4A46998  19.068  39.604   7.552
 3456POPC   C1B46999  18.850  38.868   6.263
 3456POPC   C2B47000  19.009  38.778   6.679
 3456POPC   C3B47001  18.990  38.957   7.112
 3456POPC   C4B47002  18.975  38.930   7.587
 3457POPC   NC347003  28.709  15.164   5.530
 3457POPC   PO447004  28.563  15.764   5.454
 3457POPC   GL147005  28.300  15.433   5.746
 3457POPC   GL247006  28.295  15.006   5.769
 3457POPC   C1A47007  28.205  15.240   6.179
 3457POPC   D2A47008  28.471  15.250   6.507
 3457POPC   C3A47009  28.336  15.172   6.898
 3457POPC   C4A47010  28.025  15.140   7.232
 3457POPC   C1B47011  28.571  14.849   6.153
 3457POPC   C2B47012  28.778  14.865   6.590
 3457POPC   C3B47013  28.655  14.771   7.009
 3457POPC   C4B47014  28.463  14.918   7.348
 3458POPC   NC347015  10.726  27.050   5.253
 3458POPC   PO447016  10.091  26.838   5.424
 3458POPC   GL147017  10.353  26.695   5.773
 3458POPC   GL247018  10.619  26.899   5.777
 3458POPC   C1A47019  10.284  26.551   6.239
 3458POPC   D2A47020  10.144  26.717   6.658
 3458POPC   C3A47021  10.347  26.814   7.006
 3458POPC   C4A47022  10.450  26.522   7.267
 3458POPC   C1B47023  10.583  26.972   6.240
 3458POPC   C2B47024  10.682  27.065   6.682
 3458POPC   C3B47025  10.566  27.266   7.068
 3458POPC   C4B47026  10.185  27.340   7.318
 3459POPC   NC347027  25.261  11.372   5.177
 3459POPC   PO447028  25.796  11.001   5.432
 3459POPC   GL147029  25.521  11.053   5.838
 3459POPC   GL247030  25.285  11.337   5.760
 3459POPC   C1A47031  25.506  11.268   6.278
 3459POPC   D2A47032  25.367  11.478   6.684
 3459POPC   C3A47033  25.354  11.157   7.029
 3459POPC   C4A47034  25.415  11.154   7.492
 3459POPC   C1B47035  25.032  11.172   6.096
 3459POPC   C2B47036  25.002  11.159   6.553
 3459POPC   C3B47037  24.902  10.931   6.919
 3459POPC   C4B47038  24.974  10.945   7.356
 3460POPC   NC347039   9.194  41.572   5.361
 3460POPC   PO447040   9.852  41.466   5.530
 3460POPC   GL147041   9.626  41.339   5.920
 3460POPC   GL247042   9.569  41.700   5.912
 3460POPC   C1A47043   9.699  41.194   6.369
 3460POPC   D2A47044  10.084  41.217   6.652
 3460POPC   C3A47045   9.983  41.411   7.051
 3460POPC   C4A47046   9.569  41.470   7.238
 3460POPC   C1B47047   9.923  41.640   6.210
 3460POPC   C2B47048   9.790  41.665   6.615
 3460POPC   C3B47049   9.806  41.904   6.943
 3460POPC   C4B47050  10.230  41.980   7.054
 3461POPC   NC347051  16.135  22.559   5.364
 3461POPC   PO447052  15.569  22.159   5.374
 3461POPC   GL147053  15.660  22.344   5.801
 3461POPC   GL247054  16.023  22.334   5.892
 3461POPC   C1A47055  15.714  22.210   6.268
 3461POPC   D2A47056  15.837  22.170   6.723
 3461POPC   C3A47057  15.591  22.413   7.036
 3461POPC   C4A47058  15.587  22.440   7.544
 3461POPC   C1B47059  16.269  22.222   6.275
 3461POPC   C2B47060  16.322  22.427   6.689
 3461POPC   C3B47061  16.264  22.185   7.069
 3461POPC   C4B47062  15.888  22.104   7.264
 3462POPC   NC347063   1.027  23.074   5.497
 3462POPC   PO447064   1.571  23.246   5.219
 3462POPC   GL147065   1.478  22.995   5.691
 3462POPC   GL247066   1.316  22.643   5.745
 3462POPC   C1A47067   1.217  23.013   6.119
 3462POPC   D2A47068   1.231  23.123   6.547
 3462POPC   C3A47069   0.966  22.922   6.842
 3462POPC   C4A47070   1.066  22.895   7.281
 3462POPC   C1B47071   1.561  22.651   6.138
 3462POPC   C2B47072   1.507  22.660   6.602
 3462POPC   C3B47073   1.466  22.916   6.989
 3462POPC   C4B47074   1.549  22.860   7.444
 3463POPC   NC347075  15.936  33.359   5.417
 3463POPC   PO447076  16.258  32.745   5.359
 3463POPC   GL147077  16.106  32.972   5.763
 3463POPC   GL247078  16.252  33.294   5.853
 3463POPC   C1A47079  15.936  32.843   6.202
 3463POPC   D2A47080  15.922  32.613   6.626
 3463POPC   C3A47081  15.938  32.754   7.091
 3463POPC   C4A47082  15.879  32.761   7.556
 3463POPC   C1B47083  16.376  33.092   6.260
 3463POPC   C2B47084  16.198  33.044   6.694
 3463POPC   C3B47085  16.215  33.201   7.142
 3463POPC   C4B47086  16.367  33.206   7.584
 3464POPC   NC347087  39.451  19.090   5.532
 3464POPC   PO447088  40.014  19.247   5.168
 3464POPC   GL147089  40.105  19.112   5.624
 3464POPC   GL247090  39.854  19.063   5.814
 3464POPC   C1A47091  40.271  19.179   6.066
 3464POPC   D2A47092  40.154  19.181   6.490
 3464POPC   C3A47093  40.241  19.063   6.909
 3464POPC   C4A47094  40.216  18.934   7.322
 3464POPC   C1B47095  39.699  18.957   6.190
 3464POPC   C2B47096  39.644  19.133   6.569
 3464POPC   C3B47097  39.741  18.990   6.968
 3464POPC   C4B47098  39.751  18.753   7.315
 3465POPC   NC347099  29.512  29.191   5.407
 3465POPC   PO447100  30.197  29.118   5.280
 3465POPC   GL147101  30.127  29.052   5.750
 3465POPC   GL247102  29.760  28.982   5.845
 3465POPC   C1A47103  30.232  29.113   6.207
 3465POPC   D2A47104  29.978  28.968   6.544
 3465POPC   C3A47105  30.215  29.002   6.921
 3465POPC   C4A47106  30.148  29.162   7.327
 3465POPC   C1B47107  29.759  29.307   6.177
 3465POPC   C2B47108  29.648  29.385   6.614
 3465POPC   C3B47109  29.688  29.135   6.929
 3465POPC   C4B47110  29.626  29.201   7.300
 3466POPC   NC347111  38.315  32.141   4.960
 3466POPC   PO447112  38.448  32.593   5.296
 3466POPC   GL147113  38.487  32.571   5.767
 3466POPC   GL247114  38.380  32.273   5.896
 3466POPC   C1A47115  38.245  32.683   6.142
 3466POPC   D2A47116  38.166  32.307   6.388
 3466POPC   C3A47117  38.411  32.369   6.749
 3466POPC   C4A47118  38.385  32.383   7.190
 3466POPC   C1B47119  38.668  32.322   6.251
 3466POPC   C2B47120  38.805  32.080   6.612
 3466POPC   C3B47121  38.630  31.961   7.016
 3466POPC   C4B47122  38.707  31.740   7.381
 3467POPC   NC347123   8.896  44.326   5.428
 3467POPC   PO447124   9.054  43.621   5.438
 3467POPC   GL147125   9.119  43.788   5.836
 3467POPC   GL247126   9.184  44.138   5.832
 3467POPC   C1A47127   9.035  43.836   6.252
 3467POPC   D2A47128   9.033  44.090   6.594
 3467POPC   C3A47129   8.993  43.890   6.950
 3467POPC   C4A47130   8.822  44.042   7.313
 3467POPC   C1B47131   9.440  44.156   6.192
 3467POPC   C2B47132   9.498  43.895   6.527
 3467POPC   C3B47133   9.474  44.141   6.883
 3467POPC   C4B47134   9.296  44.217   7.260
 3468POPC   NC347135  31.862  30.147   5.381
 3468POPC   PO447136  31.178  29.959   5.383
 3468POPC   GL147137  31.427  30.059   5.734
 3468POPC   GL247138  31.423  29.765   5.895
 3468POPC   C1A47139  31.518  30.151   6.194
 3468POPC   D2A47140  31.728  30.172   6.582
 3468POPC   C3A47141  31.567  30.001   6.950
 3468POPC   C4A47142  31.757  30.145   7.318
 3468POPC   C1B47143  31.088  29.912   6.229
 3468POPC   C2B47144  31.145  30.134   6.630
 3468POPC   C3B47145  31.047  30.060   7.070
 3468POPC   C4B47146  31.300  29.788   7.349
 3469POPC   NC347147  39.067  21.759   5.643
 3469POPC   PO447148  38.894  21.116   5.607
 3469POPC   GL147149  39.279  21.134   5.858
 3469POPC   GL247150  39.449  21.452   5.848
 3469POPC   C1A47151  39.525  21.221   6.271
 3469POPC   D2A47152  39.609  21.475   6.641
 3469POPC   C3A47153  39.462  21.323   7.029
 3469POPC   C4A47154  39.102  21.062   7.113
 3469POPC   C1B47155  39.286  21.680   6.258
 3469POPC   C2B47156  39.181  21.890   6.650
 3469POPC   C3B47157  39.138  21.809   7.089
 3469POPC   C4B47158  39.404  21.689   7.410
 3470POPC   NC347159  41.316  35.216   5.526
 3470POPC   PO447160  41.773  35.696   5.198
 3470POPC   GL147161  41.645  35.581   5.666
 3470POPC   GL247162  41.750  35.208   5.801
 3470POPC   C1A47163  41.558  35.563   6.138
 3470POPC   D2A47164  41.225  35.507   6.466
 3470POPC   C3A47165  41.402  35.554   6.896
 3470POPC   C4A47166  41.400  35.469   7.342
 3470POPC   C1B47167  41.915  35.102   6.221
 3470POPC   C2B47168  41.840  35.350   6.579
 3470POPC   C3B47169  42.068  35.625   6.839
 3470POPC   C4B47170  41.918  35.482   7.204
 3471POPC   NC347171  34.011  10.685   5.428
 3471POPC   PO447172  33.640  10.162   5.493
 3471POPC   GL147173  33.592  10.541   5.728
 3471POPC   GL247174  33.904  10.494   5.879
 3471POPC   C1A47175  33.542  10.641   6.178
 3471POPC   D2A47176  33.692  10.543   6.606
 3471POPC   C3A47177  33.556  10.414   7.001
 3471POPC   C4A47178  33.703  10.642   7.344
 3471POPC   C1B47179  34.064  10.636   6.255
 3471POPC   C2B47180  34.168  10.386   6.612
 3471POPC   C3B47181  34.106  10.486   7.037
 3471POPC   C4B47182  33.927  10.158   7.284
 3472POPC   NC347183  27.140  24.529   5.502
 3472POPC   PO447184  27.691  24.273   5.165
 3472POPC   GL147185  27.730  24.426   5.670
 3472POPC   GL247186  27.461  24.447   5.886
 3472POPC   C1A47187  27.884  24.416   6.156
 3472POPC   D2A47188  27.680  24.245   6.572
 3472POPC   C3A47189  27.834  24.325   6.993
 3472POPC   C4A47190  27.903  24.695   7.220
 3472POPC   C1B47191  27.436  24.663   6.309
 3472POPC   C2B47192  27.556  24.715   6.762
 3472POPC   C3B47193  27.329  24.570   7.138
 3472POPC   C4B47194  27.335  24.161   7.267
 3473POPC   NC347195  19.910  15.583   5.220
 3473POPC   PO447196  19.872  14.955   5.346
 3473POPC   GL147197  19.824  14.893   5.796
 3473POPC   GL247198  19.460  14.825   5.796
 3473POPC   C1A47199  20.047  15.071   6.211
 3473POPC   D2A47200  19.875  15.370   6.521
 3473POPC   C3A47201  20.022  15.318   6.948
 3473POPC   C4A47202  20.291  14.992   7.106
 3473POPC   C1B47203  19.552  15.004   6.213
 3473POPC   C2B47204  19.707  14.904   6.665
 3473POPC   C3B47205  19.579  15.112   7.067
 3473POPC   C4B47206  19.496  15.502   7.291
 3474POPC   NC347207  40.617  26.024   5.336
 3474POPC   PO447208  41.293  26.264   5.471
 3474POPC   GL147209  40.956  26.210   5.766
 3474POPC   GL247210  40.961  25.883   5.709
 3474POPC   C1A47211  40.725  25.989   6.143
 3474POPC   D2A47212  40.467  25.831   6.485
 3474POPC   C3A47213  40.629  25.869   6.879
 3474POPC   C4A47214  40.491  26.021   7.296
 3474POPC   C1B47215  41.032  25.597   6.019
 3474POPC   C2B47216  40.938  25.591   6.464
 3474POPC   C3B47217  41.084  25.591   6.910
 3474POPC   C4B47218  40.957  25.826   7.258
 3475POPC   NC347219  13.481   9.775   5.184
 3475POPC   PO447220  13.764  10.139   5.625
 3475POPC   GL147221  13.609   9.801   5.855
 3475POPC   GL247222  13.585   9.470   5.713
 3475POPC   C1A47223  13.756   9.684   6.264
 3475POPC   D2A47224  13.498   9.635   6.634
 3475POPC   C3A47225  13.777   9.621   6.966
 3475POPC   C4A47226  14.031   9.942   7.103
 3475POPC   C1B47227  13.407   9.346   6.149
 3475POPC   C2B47228  13.623   9.165   6.520
 3475POPC   C3B47229  13.503   9.168   6.964
 3475POPC   C4B47230  13.586   9.380   7.356
 3476POPC   NC347231  10.628   1.962   5.556
 3476POPC   PO447232   9.927   2.071   5.552
 3476POPC   GL147233  10.259   2.108   5.903
 3476POPC   GL247234  10.627   2.224   5.977
 3476POPC   C1A47235  10.393   1.844   6.263
 3476POPC   D2A47236  10.370   1.567   6.626
 3476POPC   C3A47237  10.208   1.794   6.993
 3476POPC   C4A47238  10.120   2.252   7.026
 3476POPC   C1B47239  10.826   2.135   6.356
 3476POPC   C2B47240  10.786   1.985   6.772
 3476POPC   C3B47241  10.622   2.089   7.163
 3476POPC   C4B47242  10.786   2.184   7.596
 3477POPC   NC347243  25.566  10.590   5.552
 3477POPC   PO447244  24.831  10.419   5.522
 3477POPC   GL147245  25.103  10.691   5.821
 3477POPC   GL247246  25.260  10.376   5.919
 3477POPC   C1A47247  25.292  10.746   6.278
 3477POPC   D2A47248  25.307  10.424   6.642
 3477POPC   C3A47249  25.236  10.568   7.091
 3477POPC   C4A47250  25.342  10.625   7.538
 3477POPC   C1B47251  25.611  10.319   6.191
 3477POPC   C2B47252  25.812  10.369   6.572
 3477POPC   C3B47253  25.668  10.300   7.004
 3477POPC   C4B47254  25.399  10.147   7.359
 3478POPC   NC347255  14.636   4.161   5.476
 3478POPC   PO447256  14.071   4.521   5.331
 3478POPC   GL147257  14.301   4.537   5.772
 3478POPC   GL247258  14.483   4.832   5.811
 3478POPC   C1A47259  14.343   4.438   6.273
 3478POPC   D2A47260  14.454   4.086   6.627
 3478POPC   C3A47261  14.337   4.160   7.072
 3478POPC   C4A47262  14.044   4.448   7.316
 3478POPC   C1B47263  14.788   4.669   6.116
 3478POPC   C2B47264  14.827   4.426   6.482
 3478POPC   C3B47265  14.776   4.451   6.916
 3478POPC   C4B47266  14.477   4.663   7.138
 3479POPC   NC347267  22.252  25.680   5.553
 3479POPC   PO447268  21.946  26.131   5.252
 3479POPC   GL147269  22.041  26.138   5.705
 3479POPC   GL247270  22.363  26.308   5.770
 3479POPC   C1A47271  21.878  25.944   6.107
 3479POPC   D2A47272  21.985  25.790   6.520
 3479POPC   C3A47273  22.255  25.750   6.891
 3479POPC   C4A47274  22.152  25.814   7.351
 3479POPC   C1B47275  22.124  26.417   6.148
 3479POPC   C2B47276  22.188  26.254   6.565
 3479POPC   C3B47277  22.143  26.235   7.005
 3479POPC   C4B47278  22.444  26.417   7.243
 3480POPC   NC347279   8.726  37.848   5.411
 3480POPC   PO447280   9.367  37.637   5.477
 3480POPC   GL147281   9.169  37.491   5.872
 3480POPC   GL247282   8.829  37.612   5.852
 3480POPC   C1A47283   9.153  37.632   6.304
 3480POPC   D2A47284   9.197  37.886   6.685
 3480POPC   C3A47285   9.204  37.571   6.981
 3480POPC   C4A47286   9.099  37.541   7.378
 3480POPC   C1B47287   8.643  37.566   6.250
 3480POPC   C2B47288   8.779  37.582   6.678
 3480POPC   C3B47289   8.724  37.783   7.069
 3480POPC   C4B47290   8.492  38.000   7.397
 3481POPC   NC347291  11.544   1.762   5.501
 3481POPC   PO447292  11.412   1.105   5.381
 3481POPC   GL147293  11.397   1.168   5.842
 3481POPC   GL247294  11.271   1.517   5.891
 3481POPC   C1A47295  11.172   1.167   6.261
 3481POPC   D2A47296  11.242   1.075   6.694
 3481POPC   C3A47297  10.955   1.126   7.026
 3481POPC   C4A47298  11.229   1.151   7.399
 3481POPC   C1B47299  11.591   1.464   6.238
 3481POPC   C2B47300  11.576   1.471   6.704
 3481POPC   C3B47301  11.634   1.450   7.176
 3481POPC   C4B47302  11.436   1.615   7.573
 3482POPC   NC347303  19.042  14.160   5.342
 3482POPC   PO447304  18.886  14.826   5.240
 3482POPC   GL147305  18.846  14.534   5.673
 3482POPC   GL247306  19.167  14.393   5.796
 3482POPC   C1A47307  18.841  14.430   6.168
 3482POPC   D2A47308  19.001  14.340   6.590
 3482POPC   C3A47309  18.792  14.423   7.002
 3482POPC   C4A47310  18.844  14.049   7.249
 3482POPC   C1B47311  19.372  14.436   6.212
 3482POPC   C2B47312  19.530  14.406   6.655
 3482POPC   C3B47313  19.276  14.249   7.019
 3482POPC   C4B47314  19.396  14.138   7.437
 3483POPC   NC347315  22.593  37.647   5.352
 3483POPC   PO447316  23.099  38.004   5.398
 3483POPC   GL147317  22.841  37.883   5.763
 3483POPC   GL247318  22.825  37.516   5.792
 3483POPC   C1A47319  22.831  37.879   6.227
 3483POPC   D2A47320  23.042  37.929   6.623
 3483POPC   C3A47321  23.161  37.725   6.990
 3483POPC   C4A47322  23.035  38.054   7.210
 3483POPC   C1B47323  22.571  37.426   6.170
 3483POPC   C2B47324  22.445  37.624   6.561
 3483POPC   C3B47325  22.604  37.519   6.976
 3483POPC   C4B47326  22.634  37.096   7.204
 3484POPC   NC347327  12.959   8.552   5.548
 3484POPC   PO447328  12.525   9.090   5.447
 3484POPC   GL147329  12.637   8.998   5.897
 3484POPC   GL247330  12.789   8.654   6.019
 3484POPC   C1A47331  12.853   9.059   6.311
 3484POPC   D2A47332  13.134   9.256   6.587
 3484POPC   C3A47333  12.991   9.287   6.979
 3484POPC   C4A47334  12.791   9.087   7.270
 3484POPC   C1B47335  12.481   8.660   6.378
 3484POPC   C2B47336  12.531   8.851   6.792
 3484POPC   C3B47337  12.623   8.633   7.177
 3484POPC   C4B47338  12.486   8.703   7.634
 3485POPC   NC347339   8.230  38.330   5.604
 3485POPC   PO447340   7.820  38.798   5.747
 3485POPC   GL147341   8.130  38.626   6.034
 3485POPC   GL247342   8.501  38.579   5.947
 3485POPC   C1A47343   8.153  38.281   6.297
 3485POPC   D2A47344   7.982  38.054   6.630
 3485POPC   C3A47345   7.939  38.436   6.861
 3485POPC   C4A47346   7.849  38.625   7.251
 3485POPC   C1B47347   8.611  38.138   6.138
 3485POPC   C2B47348   8.499  37.982   6.557
 3485POPC   C3B47349   8.379  38.170   6.931
 3485POPC   C4B47350   8.370  38.496   7.214
 3486POPC   NC347351  40.386  16.039   5.307
 3486POPC   PO447352  39.737  15.985   5.197
 3486POPC   GL147353  40.044  16.086   5.679
 3486POPC   GL247354  40.120  16.374   5.824
 3486POPC   C1A47355  39.875  16.027   6.183
 3486POPC   D2A47356  39.742  15.708   6.494
 3486POPC   C3A47357  39.716  15.839   6.927
 3486POPC   C4A47358  39.899  15.639   7.294
 3486POPC   C1B47359  40.354  16.127   6.156
 3486POPC   C2B47360  40.222  15.998   6.604
 3486POPC   C3B47361  40.156  16.059   7.061
 3486POPC   C4B47362  39.885  16.138   7.421
 3487POPC   NC347363  16.960   5.454   5.318
 3487POPC   PO447364  16.418   5.168   5.576
 3487POPC   GL147365  16.784   5.261   5.786
 3487POPC   GL247366  16.796   4.908   5.847
 3487POPC   C1A47367  16.939   5.254   6.215
 3487POPC   D2A47368  16.717   5.187   6.598
 3487POPC   C3A47369  16.847   5.312   6.986
 3487POPC   C4A47370  16.494   5.303   7.261
 3487POPC   C1B47371  16.666   4.800   6.255
 3487POPC   C2B47372  16.501   4.729   6.657
 3487POPC   C3B47373  16.582   4.828   7.071
 3487POPC   C4B47374  16.276   4.769   7.332
 3488POPC   NC347375   1.244  38.781   5.340
 3488POPC   PO447376   1.058  38.152   5.497
 3488POPC   GL147377   1.238  38.260   5.862
 3488POPC   GL247378   1.229  38.619   5.828
 3488POPC   C1A47379   1.449  38.243   6.249
 3488POPC   D2A47380   1.615  38.239   6.652
 3488POPC   C3A47381   1.318  38.416   6.893
 3488POPC   C4A47382   1.195  38.176   7.246
 3488POPC   C1B47383   1.015  38.528   6.229
 3488POPC   C2B47384   0.888  38.383   6.603
 3488POPC   C3B47385   0.814  38.452   7.012
 3488POPC   C4B47386   1.105  38.668   7.308
 3489POPC   NC347387   3.471  44.055   5.514
 3489POPC   PO447388   3.878  43.582   5.361
 3489POPC   GL147389   3.637  43.594   5.781
 3489POPC   GL247390   3.265  43.701   5.871
 3489POPC   C1A47391   3.713  43.742   6.195
 3489POPC   D2A47392   3.516  43.960   6.532
 3489POPC   C3A47393   3.738  43.935   6.911
 3489POPC   C4A47394   3.829  43.749   7.307
 3489POPC   C1B47395   3.071  44.011   6.199
 3489POPC   C2B47396   3.086  44.206   6.622
 3489POPC   C3B47397   3.218  43.977   6.976
 3489POPC   C4B47398   3.311  44.136   7.357
 3490POPC   NC347399  10.091  11.665   5.664
 3490POPC   PO447400   9.766  11.108   5.386
 3490POPC   GL147401   9.535  11.235   5.754
 3490POPC   GL247402   9.787  11.391   5.983
 3490POPC   C1A47403   9.375  11.179   6.139
 3490POPC   D2A47404   9.654  11.188   6.495
 3490POPC   C3A47405   9.489  11.229   6.906
 3490POPC   C4A47406   9.595  11.247   7.361
 3490POPC   C1B47407   9.574  11.655   6.306
 3490POPC   C2B47408   9.414  11.831   6.667
 3490POPC   C3B47409   9.568  11.706   7.067
 3490POPC   C4B47410  10.014  11.776   7.179
 3491POPC   NC347411  12.579  43.426   5.042
 3491POPC   PO447412  12.998  42.933   5.387
 3491POPC   GL147413  12.833  43.028   5.769
 3491POPC   GL247414  12.684  43.325   5.800
 3491POPC   C1A47415  12.954  43.076   6.183
 3491POPC   D2A47416  12.800  43.089   6.588
 3491POPC   C3A47417  13.081  43.174   6.950
 3491POPC   C4A47418  12.849  43.218   7.299
 3491POPC   C1B47419  12.433  43.245   6.175
 3491POPC   C2B47420  12.365  43.344   6.608
 3491POPC   C3B47421  12.682  43.501   6.900
 3491POPC   C4B47422  12.641  43.679   7.325
 3492POPC   NC347423  37.919  22.918   5.302
 3492POPC   PO447424  37.549  23.433   5.329
 3492POPC   GL147425  37.518  23.199   5.752
 3492POPC   GL247426  37.611  22.818   5.748
 3492POPC   C1A47427  37.526  23.084   6.207
 3492POPC   D2A47428  37.755  23.217   6.595
 3492POPC   C3A47429  37.587  23.022   6.983
 3492POPC   C4A47430  37.856  22.985   7.309
 3492POPC   C1B47431  37.754  22.615   6.168
 3492POPC   C2B47432  37.744  22.688   6.634
 3492POPC   C3B47433  37.897  22.514   7.048
 3492POPC   C4B47434  37.813  22.536   7.511
 3493POPC   NC347435  34.187  44.960   5.809
 3493POPC   PO447436  33.794  44.672   5.307
 3493POPC   GL147437  33.794  44.534   5.742
 3493POPC   GL247438  34.152  44.448   5.816
 3493POPC   C1A47439  33.532  44.375   6.109
 3493POPC   D2A47440  33.559  44.560   6.539
 3493POPC   C3A47441  33.594  44.532   6.982
 3493POPC   C4A47442  33.898  44.697   7.302
 3493POPC   C1B47443  34.006  44.516   6.264
 3493POPC   C2B47444  33.992  44.328   6.700
 3493POPC   C3B47445  34.285  44.391   7.042
 3493POPC   C4B47446  34.322  44.433   7.458
 3494POPC   NC347447   0.118   9.821   5.417
 3494POPC   PO447448   0.751   9.592   5.514
 3494POPC   GL147449   0.379   9.585   5.816
 3494POPC   GL247450   0.195   9.914   5.901
 3494POPC   C1A47451   0.232   9.496   6.248
 3494POPC   D2A47452   0.283   9.669   6.667
 3494POPC   C3A47453   0.425   9.509   7.047
 3494POPC   C4A47454   0.496   9.721   7.417
 3494POPC   C1B47455   0.240  10.050   6.310
 3494POPC   C2B47456   0.139  10.157   6.723
 3494POPC   C3B47457   0.415  10.078   7.058
 3494POPC   C4B47458   0.487  10.204   7.497
 3495POPC   NC347459  32.869  36.303   4.992
 3495POPC   PO447460  33.077  35.798   5.494
 3495POPC   GL147461  33.239  36.187   5.712
 3495POPC   GL247462  32.994  36.426   5.671
 3495POPC   C1A47463  33.337  36.209   6.156
 3495POPC   D2A47464  33.395  35.931   6.513
 3495POPC   C3A47465  33.259  36.070   6.929
 3495POPC   C4A47466  32.984  35.811   7.204
 3495POPC   C1B47467  32.837  36.276   6.090
 3495POPC   C2B47468  32.899  36.186   6.545
 3495POPC   C3B47469  32.753  36.238   6.974
 3495POPC   C4B47470  33.013  36.324   7.317
 3496POPC   NC347471  40.247  31.077   5.569
 3496POPC   PO447472  39.947  31.716   5.463
 3496POPC   GL147473  40.004  31.602   5.873
 3496POPC   GL247474  39.806  31.297   5.870
 3496POPC   C1A47475  40.086  31.811   6.288
 3496POPC   D2A47476  40.083  31.595   6.694
 3496POPC   C3A47477  39.909  31.753   7.082
 3496POPC   C4A47478  39.994  31.675   7.499
 3496POPC   C1B47479  39.917  31.286   6.305
 3496POPC   C2B47480  39.999  31.062   6.728
 3496POPC   C3B47481  39.865  31.225   7.137
 3496POPC   C4B47482  39.573  31.398   7.433
 3497POPC   NC347483   4.160  14.587   5.397
 3497POPC   PO447484   4.852  14.440   5.375
 3497POPC   GL147485   4.643  14.290   5.771
 3497POPC   GL247486   4.287  14.418   5.877
 3497POPC   C1A47487   4.641  14.363   6.230
 3497POPC   D2A47488   4.488  14.356   6.643
 3497POPC   C3A47489   4.698  14.342   7.017
 3497POPC   C4A47490   4.461  14.633   7.239
 3497POPC   C1B47491   4.155  14.175   6.273
 3497POPC   C2B47492   4.034  14.145   6.748
 3497POPC   C3B47493   4.253  14.154   7.170
 3497POPC   C4B47494   4.541  14.079   7.501
 3498POPC   NC347495   5.061  37.237   5.406
 3498POPC   PO447496   5.308  37.865   5.337
 3498POPC   GL147497   5.078  37.674   5.659
 3498POPC   GL247498   4.818  37.910   5.668
 3498POPC   C1A47499   5.038  37.528   6.097
 3498POPC   D2A47500   4.680  37.488   6.370
 3498POPC   C3A47501   4.756  37.437   6.835
 3498POPC   C4A47502   5.120  37.332   7.145
 3498POPC   C1B47503   4.860  38.020   6.121
 3498POPC   C2B47504   4.886  37.918   6.541
 3498POPC   C3B47505   5.036  37.852   6.972
 3498POPC   C4B47506   5.153  38.117   7.308
 3499POPC   NC347507  14.946  26.517   5.548
 3499POPC   PO447508  14.990  25.828   5.482
 3499POPC   GL147509  15.164  25.881   5.873
 3499POPC   GL247510  15.246  26.194   5.832
 3499POPC   C1A47511  14.959  25.987   6.262
 3499POPC   D2A47512  14.847  26.107   6.689
 3499POPC   C3A47513  14.992  25.872   7.052
 3499POPC   C4A47514  14.965  26.002   7.478
 3499POPC   C1B47515  15.405  26.229   6.245
 3499POPC   C2B47516  15.363  26.005   6.658
 3499POPC   C3B47517  15.442  26.118   7.101
 3499POPC   C4B47518  15.376  26.269   7.515
 3500POPC   NC347519  25.372  32.751   5.434
 3500POPC   PO447520  25.497  33.265   5.600
 3500POPC   GL147521  25.395  32.963   5.944
 3500POPC   GL247522  25.122  32.717   5.947
 3500POPC   C1A47523  25.504  32.831   6.377
 3500POPC   D2A47524  25.369  32.745   6.817
 3500POPC   C3A47525  25.346  33.103   7.110
 3500POPC   C4A47526  25.643  33.222   7.461
 3500POPC   C1B47527  25.046  32.629   6.403
 3500POPC   C2B47528  24.942  32.470   6.793
 3500POPC   C3B47529  24.967  32.739   7.141
 3500POPC   C4B47530  24.953  32.649   7.547
 3501POPC   NC347531   5.505   7.175   5.483
 3501POPC   PO447532   5.963   7.631   5.179
 3501POPC   GL147533   5.951   7.721   5.654
 3501POPC   GL247534   5.847   7.394   5.801
 3501POPC   C1A47535   5.724   7.789   6.093
 3501POPC   D2A47536   5.679   7.557   6.504
 3501POPC   C3A47537   5.622   7.674   6.957
 3501POPC   C4A47538   5.864   7.736   7.331
 3501POPC   C1B47539   5.875   7.166   6.207
 3501POPC   C2B47540   5.661   7.049   6.611
 3501POPC   C3B47541   5.574   7.158   7.065
 3501POPC   C4B47542   5.675   7.296   7.505
 3502POPC   NC347543   6.925  34.180   5.314
 3502POPC   PO447544   6.298  34.400   5.431
 3502POPC   GL147545   6.687  34.423   5.710
 3502POPC   GL247546   6.732  34.694   5.947
 3502POPC   C1A47547   6.942  34.219   6.046
 3502POPC   D2A47548   6.993  34.182   6.500
 3502POPC   C3A47549   6.611  34.138   6.759
 3502POPC   C4A47550   6.453  34.285   7.175
 3502POPC   C1B47551   6.515  34.438   6.306
 3502POPC   C2B47552   6.324  34.572   6.742
 3502POPC   C3B47553   6.470  34.827   7.130
 3502POPC   C4B47554   6.626  35.066   7.522
 3503POPC   NC347555  21.377  32.640   5.262
 3503POPC   PO447556  21.507  32.008   5.514
 3503POPC   GL147557  21.382  32.271   5.829
 3503POPC   GL247558  21.131  32.423   5.667
 3503POPC   C1A47559  21.347  32.193   6.273
 3503POPC   D2A47560  21.571  32.220   6.649
 3503POPC   C3A47561  21.458  32.209   7.063
 3503POPC   C4A47562  21.717  32.134   7.396
 3503POPC   C1B47563  21.076  32.594   6.117
 3503POPC   C2B47564  21.243  32.652   6.561
 3503POPC   C3B47565  21.161  32.645   7.042
 3503POPC   C4B47566  21.237  32.451   7.464
 3504POPC   NC347567   1.035  32.396   5.337
 3504POPC   PO447568   1.651  32.181   5.302
 3504POPC   GL147569   1.358  32.198   5.674
 3504POPC   GL247570   1.338  32.554   5.784
 3504POPC   C1A47571   1.089  32.138   6.061
 3504POPC   D2A47572   1.226  32.152   6.525
 3504POPC   C3A47573   1.163  31.994   6.963
 3504POPC   C4A47574   1.327  32.244   7.306
 3504POPC   C1B47575   1.303  32.577   6.250
 3504POPC   C2B47576   1.202  32.747   6.696
 3504POPC   C3B47577   1.004  32.676   7.165
 3504POPC   C4B47578   0.916  32.680   7.650
 3505POPC   NC347579  18.734   1.109   5.462
 3505POPC   PO447580  19.429   1.431   5.557
 3505POPC   GL147581  19.142   1.238   5.844
 3505POPC   GL247582  19.110   0.904   5.796
 3505POPC   C1A47583  19.087   1.141   6.291
 3505POPC   D2A47584  19.238   1.176   6.707
 3505POPC   C3A47585  19.053   1.454   7.013
 3505POPC   C4A47586  19.200   1.478   7.414
 3505POPC   C1B47587  18.776   0.802   6.086
 3505POPC   C2B47588  18.777   0.764   6.517
 3505POPC   C3B47589  18.872   0.875   6.916
 3505POPC   C4B47590  18.903   1.067   7.285
 3506POPC   NC347591  14.892  33.548   5.539
 3506POPC   PO447592  15.575  33.647   5.414
 3506POPC   GL147593  15.336  33.780   5.795
 3506POPC   GL247594  15.221  33.486   5.945
 3506POPC   C1A47595  15.291  33.891   6.263
 3506POPC   D2A47596  15.262  33.684   6.694
 3506POPC   C3A47597  15.231  33.889   7.097
 3506POPC   C4A47598  15.427  34.035   7.511
 3506POPC   C1B47599  14.957  33.514   6.310
 3506POPC   C2B47600  14.814  33.464   6.734
 3506POPC   C3B47601  15.020  33.409   7.146
 3506POPC   C4B47602  15.092  33.219   7.576
 3507POPC   NC347603  40.535  37.825   5.535
 3507POPC   PO447604  41.117  37.467   5.418
 3507POPC   GL147605  40.879  37.494   5.799
 3507POPC   GL247606  40.511  37.439   5.861
 3507POPC   C1A47607  40.977  37.683   6.194
 3507POPC   D2A47608  40.777  37.508   6.543
 3507POPC   C3A47609  41.040  37.562   6.889
 3507POPC   C4A47610  41.016  37.854   7.196
 3507POPC   C1B47611  40.496  37.806   6.164
 3507POPC   C2B47612  40.371  37.828   6.578
 3507POPC   C3B47613  40.536  37.697   6.970
 3507POPC   C4B47614  40.508  37.933   7.308
 3508POPC   NC347615   2.384   3.941   5.385
 3508POPC   PO447616   1.916   3.573   5.590
 3508POPC   GL147617   2.038   3.822   5.903
 3508POPC   GL247618   1.701   3.849   6.019
 3508POPC   C1A47619   2.108   3.739   6.337
 3508POPC   D2A47620   2.094   3.331   6.547
 3508POPC   C3A47621   2.219   3.375   6.992
 3508POPC   C4A47622   2.061   3.575   7.422
 3508POPC   C1B47623   1.649   3.485   6.320
 3508POPC   C2B47624   1.644   3.351   6.776
 3508POPC   C3B47625   1.635   3.603   7.161
 3508POPC   C4B47626   1.596   3.653   7.622
 3509POPC   NC347627  11.388  39.767   5.472
 3509POPC   PO447628  11.252  40.435   5.374
 3509POPC   GL147629  11.269  40.221   5.767
 3509POPC   GL247630  11.624  40.088   5.843
 3509POPC   C1A47631  11.083  40.128   6.177
 3509POPC   D2A47632  11.311  40.193   6.556
 3509POPC   C3A47633  11.158  40.324   6.951
 3509POPC   C4A47634  11.322  40.026   7.261
 3509POPC   C1B47635  11.667  39.727   6.154
 3509POPC   C2B47636  11.543  39.508   6.559
 3509POPC   C3B47637  11.465  39.586   7.014
 3509POPC   C4B47638  11.702  39.692   7.398
 3510POPC   NC347639  23.884  16.948   5.458
 3510POPC   PO447640  23.211  17.140   5.491
 3510POPC   GL147641  23.488  16.798   5.789
 3510POPC   GL247642  23.857  16.678   5.890
 3510POPC   C1A47643  23.497  16.695   6.251
 3510POPC   D2A47644  23.572  16.484   6.631
 3510POPC   C3A47645  23.714  16.617   7.066
 3510POPC   C4A47646  24.089  16.506   7.301
 3510POPC   C1B47647  24.003  16.709   6.348
 3510POPC   C2B47648  23.954  16.912   6.744
 3510POPC   C3B47649  24.068  16.996   7.183
 3510POPC   C4B47650  24.249  16.883   7.615
 3511POPC   NC347651  12.663  41.639   5.552
 3511POPC   PO447652  13.244  41.145   5.613
 3511POPC   GL147653  12.935  41.395   5.908
 3511POPC   GL247654  12.889  41.781   5.982
 3511POPC   C1A47655  12.762  41.448   6.357
 3511POPC   D2A47656  12.893  41.165   6.676
 3511POPC   C3A47657  12.908  41.292   7.122
 3511POPC   C4A47658  12.564  41.303   7.424
 3511POPC   C1B47659  12.881  41.943   6.415
 3511POPC   C2B47660  12.666  41.746   6.794
 3511POPC   C3B47661  12.774  41.789   7.245
 3511POPC   C4B47662  12.845  42.011   7.656
 3512POPC   NC347663   3.248  27.532   5.247
 3512POPC   PO447664   3.852  27.768   5.412
 3512POPC   GL147665   3.465  27.807   5.689
 3512POPC   GL247666   3.173  27.564   5.741
 3512POPC   C1A47667   3.388  27.764   6.158
 3512POPC   D2A47668   3.157  27.766   6.555
 3512POPC   C3A47669   3.435  27.699   6.889
 3512POPC   C4A47670   3.658  27.688   7.282
 3512POPC   C1B47671   3.383  27.273   6.065
 3512POPC   C2B47672   3.425  27.295   6.532
 3512POPC   C3B47673   3.504  27.189   6.984
 3512POPC   C4B47674   3.350  27.275   7.394
 3513POPC   NC347675   2.507  14.658   5.214
 3513POPC   PO447676   3.029  14.264   5.460
 3513POPC   GL147677   2.891  14.319   5.831
 3513POPC   GL247678   2.615  14.470   5.731
 3513POPC   C1A47679   2.882  14.196   6.235
 3513POPC   D2A47680   2.602  14.368   6.534
 3513POPC   C3A47681   2.858  14.443   6.909
 3513POPC   C4A47682   2.922  14.315   7.330
 3513POPC   C1B47683   2.450  14.690   6.082
 3513POPC   C2B47684   2.539  14.896   6.494
 3513POPC   C3B47685   2.429  14.701   6.873
 3513POPC   C4B47686   2.533  14.671   7.253
 3514POPC   NC347687   5.688  27.769   5.407
 3514POPC   PO447688   6.050  27.365   5.509
 3514POPC   GL147689   5.797  27.546   5.889
 3514POPC   GL247690   5.538  27.838   5.904
 3514POPC   C1A47691   5.855  27.723   6.319
 3514POPC   D2A47692   5.575  27.836   6.695
 3514POPC   C3A47693   5.825  27.906   7.052
 3514POPC   C4A47694   6.151  27.620   7.217
 3514POPC   C1B47695   5.383  27.583   6.270
 3514POPC   C2B47696   5.634  27.330   6.587
 3514POPC   C3B47697   5.709  27.403   7.036
 3514POPC   C4B47698   5.471  27.663   7.338
 3515POPC   NC347699  21.604  31.018   5.306
 3515POPC   PO447700  21.773  30.420   5.385
 3515POPC   GL147701  21.439  30.518   5.740
 3515POPC   GL247702  21.088  30.696   5.735
 3515POPC   C1A47703  21.557  30.646   6.175
 3515POPC   D2A47704  21.624  30.921   6.544
 3515POPC   C3A47705  21.641  30.676   6.924
 3515POPC   C4A47706  21.523  30.794   7.345
 3515POPC   C1B47707  20.990  30.558   6.191
 3515POPC   C2B47708  21.244  30.520   6.594
 3515POPC   C3B47709  21.142  30.615   7.033
 3515POPC   C4B47710  21.033  30.481   7.460
 3516POPC   NC347711   5.810  31.892   5.555
 3516POPC   PO447712   6.044  32.494   5.384
 3516POPC   GL147713   6.050  32.297   5.768
 3516POPC   GL247714   5.675  32.352   5.781
 3516POPC   C1A47715   5.950  32.361   6.216
 3516POPC   D2A47716   5.862  32.149   6.600
 3516POPC   C3A47717   6.104  32.308   6.947
 3516POPC   C4A47718   6.132  32.151   7.326
 3516POPC   C1B47719   5.454  32.244   6.165
 3516POPC   C2B47720   5.399  32.397   6.548
 3516POPC   C3B47721   5.460  32.244   6.910
 3516POPC   C4B47722   5.657  32.348   7.239
 3517POPC   NC347723  39.678   7.469   5.225
 3517POPC   PO447724  40.119   8.012   5.299
 3517POPC   GL147725  40.155   7.885   5.769
 3517POPC   GL247726  40.426   8.090   5.917
 3517POPC   C1A47727  40.181   7.747   6.229
 3517POPC   D2A47728  40.310   7.808   6.693
 3517POPC   C3A47729  40.092   7.974   7.092
 3517POPC   C4A47730  39.898   8.303   7.406
 3517POPC   C1B47731  40.372   8.214   6.374
 3517POPC   C2B47732  40.442   8.282   6.825
 3517POPC   C3B47733  40.382   8.345   7.281
 3517POPC   C4B47734  40.336   8.339   7.736
 3518POPC   NC347735  26.534  12.038   5.647
 3518POPC   PO447736  26.165  12.326   5.135
 3518POPC   GL147737  26.163  12.431   5.687
 3518POPC   GL247738  25.851  12.310   5.892
 3518POPC   C1A47739  26.263  12.249   6.181
 3518POPC   D2A47740  26.100  12.026   6.563
 3518POPC   C3A47741  26.199  12.229   6.940
 3518POPC   C4A47742  26.334  12.438   7.334
 3518POPC   C1B47743  25.745  12.292   6.324
 3518POPC   C2B47744  25.586  11.957   6.592
 3518POPC   C3B47745  25.658  11.790   6.983
 3518POPC   C4B47746  25.855  12.055   7.267
 3519POPC   NC347747  37.180  21.378   5.244
 3519POPC   PO447748  37.861  21.453   5.316
 3519POPC   GL147749  37.829  21.322   5.786
 3519POPC   GL247750  37.578  21.078   5.800
 3519POPC   C1A47751  37.862  21.382   6.260
 3519POPC   D2A47752  37.636  21.282   6.664
 3519POPC   C3A47753  37.719  21.465   7.080
 3519POPC   C4A47754  37.799  21.541   7.465
 3519POPC   C1B47755  37.390  21.409   6.057
 3519POPC   C2B47756  37.391  21.688   6.403
 3519POPC   C3B47757  37.334  21.672   6.848
 3519POPC   C4B47758  37.169  21.381   7.118
 3520POPC   NC347759  25.452   5.511   5.412
 3520POPC   PO447760  25.110   4.881   5.398
 3520POPC   GL147761  25.325   4.925   5.768
 3520POPC   GL247762  25.298   5.267   5.887
 3520POPC   C1A47763  25.117   4.858   6.172
 3520POPC   D2A47764  25.221   5.006   6.558
 3520POPC   C3A47765  25.013   4.793   6.849
 3520POPC   C4A47766  25.215   4.794   7.240
 3520POPC   C1B47767  25.036   5.378   6.255
 3520POPC   C2B47768  24.821   5.293   6.668
 3520POPC   C3B47769  25.034   5.273   7.052
 3520POPC   C4B47770  25.360   5.449   7.238
 3521POPC   NC347771   6.313  11.855   5.496
 3521POPC   PO447772   6.560  12.471   5.507
 3521POPC   GL147773   6.741  12.206   5.853
 3521POPC   GL247774   6.843  11.867   5.736
 3521POPC   C1A47775   6.849  12.295   6.294
 3521POPC   D2A47776   6.661  12.301   6.737
 3521POPC   C3A47777   6.928  12.113   7.103
 3521POPC   C4A47778   6.911  12.105   7.587
 3521POPC   C1B47779   6.662  11.725   6.115
 3521POPC   C2B47780   6.719  11.844   6.521
 3521POPC   C3B47781   6.586  11.773   6.926
 3521POPC   C4B47782   6.623  11.769   7.357
 3522POPC   NC347783   2.355  33.190   5.647
 3522POPC   PO447784   2.762  32.826   5.138
 3522POPC   GL147785   2.832  32.960   5.616
 3522POPC   GL247786   3.047  33.235   5.694
 3522POPC   C1A47787   2.802  32.950   6.109
 3522POPC   D2A47788   2.900  33.152   6.509
 3522POPC   C3A47789   2.898  32.989   6.942
 3522POPC   C4A47790   2.730  32.941   7.401
 3522POPC   C1B47791   3.144  33.365   6.109
 3522POPC   C2B47792   3.256  33.544   6.508
 3522POPC   C3B47793   3.152  33.476   6.941
 3522POPC   C4B47794   3.140  33.284   7.336
 3523POPC   NC347795  36.690  16.087   4.959
 3523POPC   PO447796  37.111  16.271   5.243
 3523POPC   GL147797  37.019  16.169   5.686
 3523POPC   GL247798  36.687  16.222   5.856
 3523POPC   C1A47799  37.091  16.022   6.138
 3523POPC   D2A47800  37.181  16.170   6.585
 3523POPC   C3A47801  36.929  16.040   6.973
 3523POPC   C4A47802  36.716  15.915   7.358
 3523POPC   C1B47803  36.767  16.373   6.325
 3523POPC   C2B47804  36.819  16.514   6.789
 3523POPC   C3B47805  36.720  16.425   7.260
 3523POPC   C4B47806  36.745  16.362   7.724
 3524POPC   NC347807   4.819  30.897   5.399
 3524POPC   PO447808   5.466  30.683   5.423
 3524POPC   GL147809   5.071  30.522   5.683
 3524POPC   GL247810   4.905  30.209   5.609
 3524POPC   C1A47811   4.940  30.581   6.145
 3524POPC   D2A47812   4.733  30.685   6.609
 3524POPC   C3A47813   4.995  30.700   7.026
 3524POPC   C4A47814   5.234  30.898   7.368
 3524POPC   C1B47815   4.709  30.147   5.996
 3524POPC   C2B47816   4.751  30.202   6.438
 3524POPC   C3B47817   4.849  30.228   6.883
 3524POPC   C4B47818   5.196  30.212   7.197
 3525POPC   NC347819   1.261  18.649   5.474
 3525POPC   PO447820   1.308  18.011   5.284
 3525POPC   GL147821   1.423  18.159   5.693
 3525POPC   GL247822   1.125  18.277   5.816
 3525POPC   C1A47823   1.409  17.999   6.148
 3525POPC   D2A47824   1.520  18.155   6.566
 3525POPC   C3A47825   1.372  17.972   6.972
 3525POPC   C4A47826   1.509  18.260   7.274
 3525POPC   C1B47827   1.016  18.342   6.252
 3525POPC   C2B47828   1.001  18.183   6.691
 3525POPC   C3B47829   1.004  18.292   7.154
 3525POPC   C4B47830   0.750  18.451   7.485
 3526POPC   NC347831  13.173  42.492   5.451
 3526POPC   PO447832  13.841  42.358   5.368
 3526POPC   GL147833  13.581  42.119   5.683
 3526POPC   GL247834  13.827  41.943   5.880
 3526POPC   C1A47835  13.382  42.185   6.130
 3526POPC   D2A47836  13.503  42.477   6.513
 3526POPC   C3A47837  13.394  42.383   6.985
 3526POPC   C4A47838  13.699  42.442   7.374
 3526POPC   C1B47839  13.698  41.805   6.326
 3526POPC   C2B47840  13.674  42.040   6.712
 3526POPC   C3B47841  13.899  42.419   6.892
 3526POPC   C4B47842  14.215  42.539   7.213
 3527POPC   NC347843  11.280   0.419   5.352
 3527POPC   PO447844  10.948  44.819   5.571
 3527POPC   GL147845  11.010   0.288   5.772
 3527POPC   GL247846  11.134   0.705   5.724
 3527POPC   C1A47847  11.350   0.410   6.076
 3527POPC   D2A47848  11.435   0.734   6.363
 3527POPC   C3A47849  11.528   0.584   6.784
 3527POPC   C4A47850  11.339   0.259   7.038
 3527POPC   C1B47851  10.953   0.727   6.097
 3527POPC   C2B47852  10.957   0.507   6.451
 3527POPC   C3B47853  11.008   0.631   6.825
 3527POPC   C4B47854  11.106   0.678   7.224
 3528POPC   NC347855   3.771   7.502   5.276
 3528POPC   PO447856   3.193   7.311   5.440
 3528POPC   GL147857   3.464   7.281   5.758
 3528POPC   GL247858   3.551   7.619   5.744
 3528POPC   C1A47859   3.496   7.146   6.188
 3528POPC   D2A47860   3.618   7.323   6.589
 3528POPC   C3A47861   3.456   7.155   6.958
 3528POPC   C4A47862   3.469   7.147   7.395
 3528POPC   C1B47863   3.610   7.648   6.171
 3528POPC   C2B47864   3.724   7.831   6.570
 3528POPC   C3B47865   3.816   7.688   6.950
 3528POPC   C4B47866   3.549   7.639   7.261
 3529POPC   NC347867  33.571  42.924   5.468
 3529POPC   PO447868  33.852  42.325   5.221
 3529POPC   GL147869  33.775  42.291   5.671
 3529POPC   GL247870  33.511  42.505   5.738
 3529POPC   C1A47871  33.892  42.285   6.130
 3529POPC   D2A47872  33.960  42.094   6.561
 3529POPC   C3A47873  34.018  42.397   6.887
 3529POPC   C4A47874  33.814  42.599   7.214
 3529POPC   C1B47875  33.395  42.262   6.075
 3529POPC   C2B47876  33.358  42.175   6.521
 3529POPC   C3B47877  33.546  42.111   6.926
 3529POPC   C4B47878  33.353  42.259   7.275
 3530POPC   NC347879  26.369   3.324   5.610
 3530POPC   PO447880  25.842   3.521   5.412
 3530POPC   GL147881  25.919   3.428   5.825
 3530POPC   GL247882  26.083   3.707   5.861
 3530POPC   C1A47883  26.076   3.436   6.268
 3530POPC   D2A47884  25.792   3.683   6.522
 3530POPC   C3A47885  25.857   3.675   6.949
 3530POPC   C4A47886  25.979   3.346   7.240
 3530POPC   C1B47887  26.040   3.978   6.197
 3530POPC   C2B47888  26.190   4.040   6.604
 3530POPC   C3B47889  26.465   3.927   6.905
 3530POPC   C4B47890  26.399   3.618   7.170
 3531POPC   NC347891  28.977  15.748   5.242
 3531POPC   PO447892  29.121  15.070   5.320
 3531POPC   GL147893  29.166  15.266   5.739
 3531POPC   GL247894  28.903  15.555   5.808
 3531POPC   C1A47895  29.405  15.194   6.115
 3531POPC   D2A47896  29.263  15.120   6.533
 3531POPC   C3A47897  29.324  15.306   6.933
 3531POPC   C4A47898  29.164  14.910   7.038
 3531POPC   C1B47899  28.895  15.324   6.223
 3531POPC   C2B47900  28.893  15.439   6.697
 3531POPC   C3B47901  28.808  15.267   7.120
 3531POPC   C4B47902  28.750  15.256   7.582
 3532POPC   NC347903  31.151  44.073   5.165
 3532POPC   PO447904  31.635  43.616   5.458
 3532POPC   GL147905  31.387  43.781   5.850
 3532POPC   GL247906  31.224  44.099   5.817
 3532POPC   C1A47907  31.466  43.982   6.255
 3532POPC   D2A47908  31.480  44.139   6.687
 3532POPC   C3A47909  31.700  43.879   6.991
 3532POPC   C4A47910  31.516  43.845   7.398
 3532POPC   C1B47911  31.114  44.357   6.221
 3532POPC   C2B47912  30.987  44.325   6.663
 3532POPC   C3B47913  30.936  44.209   7.111
 3532POPC   C4B47914  30.922  44.217   7.566
 3533POPC   NC347915   5.649  18.723   4.979
 3533POPC   PO447916   5.794  18.139   5.374
 3533POPC   GL147917   5.861  18.234   5.803
 3533POPC   GL247918   5.940  18.578   5.787
 3533POPC   C1A47919   5.822  18.012   6.198
 3533POPC   D2A47920   5.981  18.129   6.609
 3533POPC   C3A47921   5.855  17.981   7.015
 3533POPC   C4A47922   6.086  17.837   7.422
 3533POPC   C1B47923   5.987  18.502   6.221
 3533POPC   C2B47924   5.778  18.601   6.591
 3533POPC   C3B47925   5.892  18.495   6.994
 3533POPC   C4B47926   6.060  18.763   7.257
 3534POPC   NC347927   5.554  42.173   5.019
 3534POPC   PO447928   5.861  42.642   5.412
 3534POPC   GL147929   5.901  42.453   5.820
 3534POPC   GL247930   6.102  42.125   5.857
 3534POPC   C1A47931   5.937  42.418   6.255
 3534POPC   D2A47932   5.721  42.377   6.621
 3534POPC   C3A47933   5.887  42.563   6.992
 3534POPC   C4A47934   5.906  42.303   7.375
 3534POPC   C1B47935   6.145  41.893   6.208
 3534POPC   C2B47936   6.123  42.051   6.568
 3534POPC   C3B47937   5.935  42.041   6.936
 3534POPC   C4B47938   6.104  41.853   7.257
 3535POPC   NC347939  19.160  22.379   5.409
 3535POPC   PO447940  18.829  21.707   5.444
 3535POPC   GL147941  18.805  22.081   5.781
 3535POPC   GL247942  19.098  22.298   5.897
 3535POPC   C1A47943  18.707  22.283   6.203
 3535POPC   D2A47944  18.692  22.056   6.599
 3535POPC   C3A47945  18.823  22.152   7.040
 3535POPC   C4A47946  18.830  21.821   7.406
 3535POPC   C1B47947  19.205  22.177   6.320
 3535POPC   C2B47948  19.276  22.112   6.753
 3535POPC   C3B47949  19.509  22.264   7.097
 3535POPC   C4B47950  19.169  22.320   7.347
 3536POPC   NC347951  33.534  20.497   5.454
 3536POPC   PO447952  33.831  20.985   5.525
 3536POPC   GL147953  33.820  20.814   5.963
 3536POPC   GL247954  33.776  20.455   5.919
 3536POPC   C1A47955  33.876  20.704   6.425
 3536POPC   D2A47956  33.689  20.484   6.787
 3536POPC   C3A47957  33.574  20.683   7.159
 3536POPC   C4A47958  33.362  20.645   7.579
 3536POPC   C1B47959  33.980  20.225   6.267
 3536POPC   C2B47960  34.122  20.235   6.712
 3536POPC   C3B47961  34.067  20.468   7.139
 3536POPC   C4B47962  34.166  20.399   7.595
 3537POPC   NC347963  11.548   7.245   5.420
 3537POPC   PO447964  10.943   7.585   5.332
 3537POPC   GL147965  11.222   7.558   5.715
 3537POPC   GL247966  11.227   7.228   5.921
 3537POPC   C1A47967  11.307   7.702   6.160
 3537POPC   D2A47968  11.230   7.468   6.534
 3537POPC   C3A47969  11.172   7.512   6.953
 3537POPC   C4A47970  11.229   7.115   7.186
 3537POPC   C1B47971  11.629   7.314   6.135
 3537POPC   C2B47972  11.726   7.524   6.545
 3537POPC   C3B47973  11.639   7.358   6.964
 3537POPC   C4B47974  11.540   7.654   7.298
 3538POPC   NC347975   2.915  20.441   4.932
 3538POPC   PO447976   2.704  20.650   5.572
 3538POPC   GL147977   2.676  20.271   5.852
 3538POPC   GL247978   2.305  20.131   5.948
 3538POPC   C1A47979   2.804  20.212   6.282
 3538POPC   D2A47980   3.053  20.423   6.577
 3538POPC   C3A47981   2.902  20.411   6.984
 3538POPC   C4A47982   2.855  20.810   7.180
 3538POPC   C1B47983   2.365  20.486   6.222
 3538POPC   C2B47984   2.517  20.474   6.626
 3538POPC   C3B47985   2.422  20.621   7.003
 3538POPC   C4B47986   2.528  20.419   7.371
 3539POPC   NC347987  17.995  29.460   5.518
 3539POPC   PO447988  18.692  29.426   5.501
 3539POPC   GL147989  18.346  29.173   5.758
 3539POPC   GL247990  18.258  28.820   5.763
 3539POPC   C1A47991  18.092  29.150   6.152
 3539POPC   D2A47992  18.297  29.058   6.530
 3539POPC   C3A47993  18.222  29.247   6.946
 3539POPC   C4A47994  18.231  29.413   7.376
 3539POPC   C1B47995  18.566  28.838   6.111
 3539POPC   C2B47996  18.796  29.012   6.468
 3539POPC   C3B47997  18.625  28.925   6.892
 3539POPC   C4B47998  18.394  28.905   7.285
 3540POPC   NC347999  19.028  17.529   5.340
 3540POPC   PO448000  18.565  17.440   5.720
 3540POPC   GL148001  18.941  17.441   5.881
 3540POPC   GL248002  19.159  17.742   5.814
 3540POPC   C1A48003  18.926  17.523   6.326
 3540POPC   D2A48004  19.121  17.671   6.696
 3540POPC   C3A48005  18.988  17.521   7.067
 3540POPC   C4A48006  18.583  17.646   7.165
 3540POPC   C1B48007  19.282  17.900   6.256
 3540POPC   C2B48008  19.541  17.942   6.664
 3540POPC   C3B48009  19.405  17.852   7.130
 3540POPC   C4B48010  19.465  17.947   7.587
 3541POPC   NC348011   1.618  22.423   5.064
 3541POPC   PO448012   1.097  22.202   5.530
 3541POPC   GL148013   1.139  22.004   5.928
 3541POPC   GL248014   1.417  22.187   6.051
 3541POPC   C1A48015   1.098  21.985   6.402
 3541POPC   D2A48016   1.347  22.152   6.701
 3541POPC   C3A48017   1.295  21.956   7.115
 3541POPC   C4A48018   0.992  22.062   7.472
 3541POPC   C1B48019   1.097  22.473   6.238
 3541POPC   C2B48020   0.882  22.450   6.642
 3541POPC   C3B48021   1.101  22.443   7.042
 3541POPC   C4B48022   1.541  22.427   7.117
 3542POPC   NC348023  21.267  17.247   5.395
 3542POPC   PO448024  21.279  17.842   5.574
 3542POPC   GL148025  21.472  17.538   5.894
 3542POPC   GL248026  21.620  17.202   5.780
 3542POPC   C1A48027  21.365  17.310   6.308
 3542POPC   D2A48028  21.247  17.141   6.747
 3542POPC   C3A48029  21.403  17.387   7.106
 3542POPC   C4A48030  21.252  17.850   7.214
 3542POPC   C1B48031  21.673  16.904   6.129
 3542POPC   C2B48032  21.726  17.011   6.569
 3542POPC   C3B48033  21.745  16.941   7.004
 3542POPC   C4B48034  21.803  17.105   7.428
 3543POPC   NC348035  27.133  40.761   5.437
 3543POPC   PO448036  26.452  40.540   5.474
 3543POPC   GL148037  26.734  40.546   5.803
 3543POPC   GL248038  26.789  40.876   5.784
 3543POPC   C1A48039  26.719  40.574   6.267
 3543POPC   D2A48040  26.466  40.789   6.573
 3543POPC   C3A48041  26.679  40.791   6.959
 3543POPC   C4A48042  26.723  40.477   7.239
 3543POPC   C1B48043  26.734  41.092   6.144
 3543POPC   C2B48044  26.881  41.084   6.550
 3543POPC   C3B48045  27.108  41.250   6.860
 3543POPC   C4B48046  26.921  41.210   7.227
 3544POPC   NC348047   5.978   3.176   5.276
 3544POPC   PO448048   5.620   2.520   5.320
 3544POPC   GL148049   5.816   2.604   5.741
 3544POPC   GL248050   6.161   2.595   5.783
 3544POPC   C1A48051   5.855   2.737   6.183
 3544POPC   D2A48052   6.013   2.944   6.532
 3544POPC   C3A48053   5.763   2.792   6.860
 3544POPC   C4A48054   5.621   2.927   7.230
 3544POPC   C1B48055   6.340   2.606   6.156
 3544POPC   C2B48056   6.282   2.487   6.562
 3544POPC   C3B48057   6.253   2.708   6.956
 3544POPC   C4B48058   6.181   2.675   7.405
 3545POPC   NC348059  21.110  31.816   5.653
 3545POPC   PO448060  21.396  31.407   5.181
 3545POPC   GL148061  21.466  31.412   5.648
 3545POPC   GL248062  21.476  31.068   5.810
 3545POPC   C1A48063  21.482  31.479   6.124
 3545POPC   D2A48064  21.378  31.397   6.568
 3545POPC   C3A48065  21.413  31.730   6.861
 3545POPC   C4A48066  21.488  31.706   7.304
 3545POPC   C1B48067  21.212  31.021   6.192
 3545POPC   C2B48068  21.092  30.989   6.625
 3545POPC   C3B48069  21.282  31.100   7.007
 3545POPC   C4B48070  21.069  31.033   7.417
 3546POPC   NC348071  36.917  44.377   5.296
 3546POPC   PO448072  36.669  44.945   5.626
 3546POPC   GL148073  36.969  44.652   5.746
 3546POPC   GL248074  36.797  44.340   5.811
 3546POPC   C1A48075  37.155  44.615   6.150
 3546POPC   D2A48076  37.388  44.657   6.551
 3546POPC   C3A48077  37.146  44.571   6.920
 3546POPC   C4A48078  36.858  44.724   7.227
 3546POPC   C1B48079  36.661  44.422   6.261
 3546POPC   C2B48080  36.668  44.535   6.729
 3546POPC   C3B48081  36.679  44.281   7.110
 3546POPC   C4B48082  36.723  44.369   7.592
 3547POPC   NC348083  18.410  13.475   5.458
 3547POPC   PO448084  18.340  12.772   5.449
 3547POPC   GL148085  18.519  13.049   5.732
 3547POPC   GL248086  18.660  12.760   5.885
 3547POPC   C1A48087  18.547  13.252   6.143
 3547POPC   D2A48088  18.713  13.210   6.561
 3547POPC   C3A48089  18.447  13.153   6.900
 3547POPC   C4A48090  18.456  12.974   7.310
 3547POPC   C1B48091  18.577  12.749   6.345
 3547POPC   C2B48092  18.224  12.736   6.667
 3547POPC   C3B48093  18.173  12.608   7.098
 3547POPC   C4B48094  18.072  12.302   7.436
 3548POPC   NC348095  41.262  14.743   5.457
 3548POPC   PO448096  41.375  14.172   5.454
 3548POPC   GL148097  41.692  14.286   5.698
 3548POPC   GL248098  41.882  14.015   5.706
 3548POPC   C1A48099  41.671  14.457   6.100
 3548POPC   D2A48100  41.449  14.527   6.458
 3548POPC   C3A48101  41.495  14.795   6.819
 3548POPC   C4A48102  41.574  14.556   7.211
 3548POPC   C1B48103  41.743  13.952   6.128
 3548POPC   C2B48104  41.660  14.082   6.538
 3548POPC   C3B48105  41.476  14.092   6.946
 3548POPC   C4B48106  41.691  14.010   7.312
 3549POPC   NC348107  16.316   9.651   5.437
 3549POPC   PO448108  16.930   9.598   5.604
 3549POPC   GL148109  16.573   9.618   5.893
 3549POPC   GL248110  16.484   9.971   5.816
 3549POPC   C1A48111  16.570   9.520   6.362
 3549POPC   D2A48112  16.773   9.670   6.768
 3549POPC   C3A48113  16.775   9.568   7.220
 3549POPC   C4A48114  16.845   9.374   7.628
 3549POPC   C1B48115  16.682  10.013   6.236
 3549POPC   C2B48116  16.588  10.126   6.657
 3549POPC   C3B48117  16.705  10.086   7.092
 3549POPC   C4B48118  16.735  10.412   7.406
 3550POPC   NC348119  42.985  21.691   4.885
 3550POPC   PO448120  43.211  21.343   5.286
 3550POPC   GL148121  43.268  21.653   5.697
 3550POPC   GL248122  43.081  21.431   5.935
 3550POPC   C1A48123  43.400  21.722   6.159
 3550POPC   D2A48124  43.081  21.592   6.452
 3550POPC   C3A48125  43.214  21.418   6.825
 3550POPC   C4A48126  43.013  21.303   7.182
 3550POPC   C1B48127  43.094  21.099   6.255
 3550POPC   C2B48128  43.361  20.953   6.581
 3550POPC   C3B48129  43.240  20.849   6.998
 3550POPC   C4B48130  43.252  20.948   7.440
 3551POPC   NC348131   5.901  20.144   5.506
 3551POPC   PO448132   5.862  19.470   5.509
 3551POPC   GL148133   5.757  19.727   5.844
 3551POPC   GL248134   6.110  19.811   5.824
 3551POPC   C1A48135   5.670  19.674   6.309
 3551POPC   D2A48136   5.774  19.466   6.720
 3551POPC   C3A48137   5.746  19.697   7.097
 3551POPC   C4A48138   5.860  20.089   7.210
 3551POPC   C1B48139   6.171  19.649   6.211
 3551POPC   C2B48140   6.093  19.860   6.601
 3551POPC   C3B48141   6.252  19.822   6.990
 3551POPC   C4B48142   6.211  19.660   7.372
 3552POPC   NC348143  21.466  24.310   5.294
 3552POPC   PO448144  20.966  24.812   5.564
 3552POPC   GL148145  21.352  24.672   5.806
 3552POPC   GL248146  21.349  24.326   5.814
 3552POPC   C1A48147  21.429  24.610   6.272
 3552POPC   D2A48148  21.239  24.714   6.686
 3552POPC   C3A48149  21.476  24.668   7.085
 3552POPC   C4A48150  21.775  24.423   7.328
 3552POPC   C1B48151  20.990  24.423   6.143
 3552POPC   C2B48152  20.978  24.275   6.599
 3552POPC   C3B48153  21.139  24.248   7.051
 3552POPC   C4B48154  21.163  24.476   7.466
 3553POPC   NC348155   3.315   8.963   5.370
 3553POPC   PO448156   3.446   8.362   5.344
 3553POPC   GL148157   3.639   8.671   5.694
 3553POPC   GL248158   3.445   8.966   5.847
 3553POPC   C1A48159   3.886   8.898   6.076
 3553POPC   D2A48160   3.782   8.835   6.535
 3553POPC   C3A48161   3.698   9.099   6.901
 3553POPC   C4A48162   3.713   8.925   7.326
 3553POPC   C1B48163   3.452   8.649   6.170
 3553POPC   C2B48164   3.250   8.674   6.553
 3553POPC   C3B48165   3.443   8.675   6.928
 3553POPC   C4B48166   3.204   8.917   7.211
 3554POPC   NC348167  35.774   1.127   5.402
 3554POPC   PO448168  36.327   1.491   5.409
 3554POPC   GL148169  36.305   1.283   5.819
 3554POPC   GL248170  36.096   1.011   5.804
 3554POPC   C1A48171  36.122   1.254   6.261
 3554POPC   D2A48172  36.021   0.943   6.607
 3554POPC   C3A48173  35.966   1.158   6.994
 3554POPC   C4A48174  36.275   1.354   7.283
 3554POPC   C1B48175  36.425   0.845   6.084
 3554POPC   C2B48176  36.508   0.777   6.516
 3554POPC   C3B48177  36.460   0.996   6.917
 3554POPC   C4B48178  36.679   1.005   7.309
 3555POPC   NC348179  19.817  33.618   5.136
 3555POPC   PO448180  19.226  33.725   5.416
 3555POPC   GL148181  19.638  33.616   5.641
 3555POPC   GL248182  19.902  33.821   5.821
 3555POPC   C1A48183  19.777  33.399   6.044
 3555POPC   D2A48184  20.001  33.499   6.443
 3555POPC   C3A48185  19.964  33.390   6.886
 3555POPC   C4A48186  20.058  33.737   7.177
 3555POPC   C1B48187  19.662  33.846   6.267
 3555POPC   C2B48188  19.791  33.885   6.735
 3555POPC   C3B48189  20.068  34.205   6.976
 3555POPC   C4B48190  20.150  34.447   7.368
 3556POPC   NC348191  12.974  21.548   5.493
 3556POPC   PO448192  12.472  21.184   5.211
 3556POPC   GL148193  12.585  21.215   5.716
 3556POPC   GL248194  12.972  21.210   5.854
 3556POPC   C1A48195  12.652  21.418   6.179
 3556POPC   D2A48196  12.884  21.335   6.590
 3556POPC   C3A48197  12.747  21.443   7.008
 3556POPC   C4A48198  12.962  21.343   7.405
 3556POPC   C1B48199  13.163  21.510   6.160
 3556POPC   C2B48200  13.309  21.614   6.581
 3556POPC   C3B48201  13.260  21.505   7.012
 3556POPC   C4B48202  13.194  21.769   7.376
 3557POPC   NC348203  32.789  28.552   5.551
 3557POPC   PO448204  33.464  28.628   5.575
 3557POPC   GL148205  33.131  28.653   5.929
 3557POPC   GL248206  32.940  28.321   5.978
 3557POPC   C1A48207  33.032  28.607   6.378
 3557POPC   D2A48208  33.189  28.435   6.756
 3557POPC   C3A48209  32.971  28.622   7.105
 3557POPC   C4A48210  32.946  28.930   7.425
 3557POPC   C1B48211  33.168  28.108   6.329
 3557POPC   C2B48212  33.094  27.931   6.757
 3557POPC   C3B48213  33.039  28.109   7.183
 3557POPC   C4B48214  33.294  28.093   7.566
 3558POPC   NC348215   3.918  37.165   5.392
 3558POPC   PO448216   4.641  37.059   5.412
 3558POPC   GL148217   4.432  36.882   5.771
 3558POPC   GL248218   4.101  36.780   5.680
 3558POPC   C1A48219   4.216  36.973   6.161
 3558POPC   D2A48220   4.332  37.175   6.547
 3558POPC   C3A48221   4.148  36.993   6.879
 3558POPC   C4A48222   4.160  37.170   7.276
 3558POPC   C1B48223   3.944  36.567   6.037
 3558POPC   C2B48224   3.983  36.595   6.496
 3558POPC   C3B48225   3.823  36.596   6.932
 3558POPC   C4B48226   3.863  36.780   7.319
 3559POPC   NC348227  25.529  14.835   5.272
 3559POPC   PO448228  24.985  15.236   5.242
 3559POPC   GL148229  25.080  15.095   5.680
 3559POPC   GL248230  25.207  15.424   5.778
 3559POPC   C1A48231  25.284  15.094   6.130
 3559POPC   D2A48232  25.222  15.432   6.432
 3559POPC   C3A48233  25.365  15.345   6.821
 3559POPC   C4A48234  25.243  15.132   7.159
 3559POPC   C1B48235  25.576  15.529   6.055
 3559POPC   C2B48236  25.772  15.453   6.474
 3559POPC   C3B48237  25.836  15.454   6.952
 3559POPC   C4B48238  25.577  15.481   7.305
 3560POPC   NC348239  42.045  32.412   5.651
 3560POPC   PO448240  42.560  32.117   5.324
 3560POPC   GL148241  42.580  32.089   5.805
 3560POPC   GL248242  42.276  32.085   6.012
 3560POPC   C1A48243  42.678  32.205   6.256
 3560POPC   D2A48244  42.402  32.213   6.627
 3560POPC   C3A48245  42.625  32.205   7.001
 3560POPC   C4A48246  42.519  32.129   7.402
 3560POPC   C1B48247  42.269  32.523   6.239
 3560POPC   C2B48248  42.063  32.647   6.615
 3560POPC   C3B48249  42.152  32.470   7.030
 3560POPC   C4B48250  42.091  32.412   7.471
 3561POPC   NC348251   4.183  17.136   5.425
 3561POPC   PO448252   3.956  17.810   5.549
 3561POPC   GL148253   4.211  17.515   5.796
 3561POPC   GL248254   4.307  17.775   6.001
 3561POPC   C1A48255   4.108  17.273   6.181
 3561POPC   D2A48256   4.094  17.499   6.572
 3561POPC   C3A48257   4.299  17.409   6.947
 3561POPC   C4A48258   4.298  17.674   7.281
 3561POPC   C1B48259   4.539  17.515   6.286
 3561POPC   C2B48260   4.737  17.514   6.679
 3561POPC   C3B48261   4.753  17.810   7.033
 3561POPC   C4B48262   4.709  17.814   7.514
 3562POPC   NC348263  31.601  36.494   5.474
 3562POPC   PO448264  31.551  35.780   5.270
 3562POPC   GL148265  31.608  36.010   5.692
 3562POPC   GL248266  31.333  36.181   5.813
 3562POPC   C1A48267  31.668  36.106   6.172
 3562POPC   D2A48268  31.457  35.936   6.541
 3562POPC   C3A48269  31.627  36.090   6.914
 3562POPC   C4A48270  31.714  36.287   7.314
 3562POPC   C1B48271  31.225  36.344   6.258
 3562POPC   C2B48272  31.159  36.328   6.742
 3562POPC   C3B48273  31.227  36.184   7.200
 3562POPC   C4B48274  31.123  36.018   7.604
 3563POPC   NC348275   7.200  11.598   5.351
 3563POPC   PO448276   7.602  11.085   5.267
 3563POPC   GL148277   7.459  11.173   5.711
 3563POPC   GL248278   7.501  11.507   5.775
 3563POPC   C1A48279   7.520  11.108   6.179
 3563POPC   D2A48280   7.754  11.169   6.594
 3563POPC   C3A48281   7.516  11.318   6.938
 3563POPC   C4A48282   7.316  10.987   7.138
 3563POPC   C1B48283   7.089  11.414   5.994
 3563POPC   C2B48284   6.974  11.377   6.422
 3563POPC   C3B48285   7.075  11.596   6.784
 3563POPC   C4B48286   7.071  11.515   7.193
 3564POPC   NC348287   1.521  19.603   5.619
 3564POPC   PO448288   2.067  20.027   5.477
 3564POPC   GL148289   1.773  20.024   5.824
 3564POPC   GL248290   1.952  19.731   5.893
 3564POPC   C1A48291   1.792  19.988   6.295
 3564POPC   D2A48292   2.114  20.127   6.592
 3564POPC   C3A48293   2.056  19.920   6.997
 3564POPC   C4A48294   2.304  19.836   7.358
 3564POPC   C1B48295   2.282  19.501   6.076
 3564POPC   C2B48296   2.207  19.423   6.491
 3564POPC   C3B48297   2.275  19.444   6.924
 3564POPC   C4B48298   2.000  19.423   7.281
 3565POPC   NC348299  18.463  14.973   5.418
 3565POPC   PO448300  17.927  15.413   5.460
 3565POPC   GL148301  18.183  15.228   5.762
 3565POPC   GL248302  17.971  14.951   5.811
 3565POPC   C1A48303  18.509  15.271   6.084
 3565POPC   D2A48304  18.433  15.422   6.492
 3565POPC   C3A48305  18.280  15.157   6.814
 3565POPC   C4A48306  18.349  15.311   7.229
 3565POPC   C1B48307  18.076  15.063   6.256
 3565POPC   C2B48308  17.830  15.203   6.585
 3565POPC   C3B48309  17.822  15.019   6.990
 3565POPC   C4B48310  17.971  15.003   7.394
 3566POPC   NC348311  30.032  18.385   5.346
 3566POPC   PO448312  29.800  17.744   5.455
 3566POPC   GL148313  29.939  18.109   5.810
 3566POPC   GL248314  29.806  18.447   5.800
 3566POPC   C1A48315  30.122  18.374   6.215
 3566POPC   D2A48316  30.276  18.581   6.634
 3566POPC   C3A48317  30.190  18.368   7.042
 3566POPC   C4A48318  29.797  18.134   7.108
 3566POPC   C1B48319  29.626  18.476   6.212
 3566POPC   C2B48320  29.777  18.411   6.642
 3566POPC   C3B48321  29.762  18.638   7.040
 3566POPC   C4B48322  29.757  18.564   7.481
 3567POPC   NC348323  35.211   6.919   5.496
 3567POPC   PO448324  35.540   6.627   5.119
 3567POPC   GL148325  35.408   6.490   5.656
 3567POPC   GL248326  35.090   6.574   5.843
 3567POPC   C1A48327  35.527   6.452   6.077
 3567POPC   D2A48328  35.343   6.598   6.482
 3567POPC   C3A48329  35.396   6.466   6.910
 3567POPC   C4A48330  35.262   6.429   7.335
 3567POPC   C1B48331  34.982   6.815   6.198
 3567POPC   C2B48332  34.977   6.951   6.658
 3567POPC   C3B48333  35.066   6.850   7.100
 3567POPC   C4B48334  34.826   6.656   7.472
 3568POPC   NC348335  20.108   2.487   5.462
 3568POPC   PO448336  19.620   2.909   5.469
 3568POPC   GL148337  19.685   2.845   5.871
 3568POPC   GL248338  20.028   2.821   5.854
 3568POPC   C1A48339  19.469   2.873   6.232
 3568POPC   D2A48340  19.394   2.667   6.583
 3568POPC   C3A48341  19.554   2.837   6.960
 3568POPC   C4A48342  19.865   2.667   7.215
 3568POPC   C1B48343  19.965   2.605   6.263
 3568POPC   C2B48344  19.901   2.320   6.628
 3568POPC   C3B48345  20.141   2.267   7.024
 3568POPC   C4B48346  20.180   2.350   7.482
 3569POPC   NC348347   3.532  20.899   5.363
 3569POPC   PO448348   3.170  21.525   5.441
 3569POPC   GL148349   3.510  21.557   5.746
 3569POPC   GL248350   3.605  21.193   5.797
 3569POPC   C1A48351   3.627  21.685   6.188
 3569POPC   D2A48352   3.836  21.670   6.603
 3569POPC   C3A48353   3.611  21.516   6.970
 3569POPC   C4A48354   3.390  21.560   7.373
 3569POPC   C1B48355   3.780  21.209   6.215
 3569POPC   C2B48356   3.809  21.145   6.643
 3569POPC   C3B48357   3.700  21.027   7.049
 3569POPC   C4B48358   3.626  21.122   7.490
 3570POPC   NC348359  12.078   0.048   5.498
 3570POPC   PO448360  11.814  44.320   5.546
 3570POPC   GL148361  12.076  44.495   5.872
 3570POPC   GL248362  11.852  44.752   6.022
 3570POPC   C1A48363  12.243  44.499   6.308
 3570POPC   D2A48364  12.004  44.655   6.686
 3570POPC   C3A48365  12.216  44.738   7.117
 3570POPC   C4A48366  12.107  44.824   7.590
 3570POPC   C1B48367  11.758  44.328   6.244
 3570POPC   C2B48368  11.969  44.107   6.589
 3570POPC   C3B48369  12.055  44.269   7.007
 3570POPC   C4B48370  12.028  44.349   7.446
 3571POPC   NC348371   5.236  29.560   5.066
 3571POPC   PO448372   4.988  29.014   5.426
 3571POPC   GL148373   5.073  29.130   5.840
 3571POPC   GL248374   5.304  29.360   5.712
 3571POPC   C1A48375   4.899  29.152   6.260
 3571POPC   D2A48376   4.679  29.264   6.651
 3571POPC   C3A48377   4.844  29.192   7.060
 3571POPC   C4A48378   4.927  29.033   7.474
 3571POPC   C1B48379   5.261  29.507   6.172
 3571POPC   C2B48380   5.164  29.423   6.644
 3571POPC   C3B48381   5.329  29.359   7.095
 3571POPC   C4B48382   5.717  29.374   7.359
 3572POPC   NC348383  17.315   9.667   5.387
 3572POPC   PO448384  17.859   9.815   5.331
 3572POPC   GL148385  17.681   9.747   5.755
 3572POPC   GL248386  17.412   9.514   5.864
 3572POPC   C1A48387  17.758   9.737   6.204
 3572POPC   D2A48388  17.654   9.997   6.559
 3572POPC   C3A48389  17.741   9.880   6.977
 3572POPC   C4A48390  17.722   9.453   7.125
 3572POPC   C1B48391  17.237   9.842   6.174
 3572POPC   C2B48392  17.117  10.013   6.595
 3572POPC   C3B48393  17.197   9.880   7.032
 3572POPC   C4B48394  17.099   9.903   7.473
 3573POPC   NC348395  42.479  33.915   5.171
 3573POPC   PO448396  42.028  33.392   5.112
 3573POPC   GL148397  42.249  33.562   5.548
 3573POPC   GL248398  42.406  33.915   5.683
 3573POPC   C1A48399  42.258  33.580   6.037
 3573POPC   D2A48400  42.042  33.729   6.416
 3573POPC   C3A48401  42.287  33.659   6.782
 3573POPC   C4A48402  42.286  33.723   7.223
 3573POPC   C1B48403  42.271  34.099   6.114
 3573POPC   C2B48404  42.190  34.206   6.572
 3573POPC   C3B48405  42.435  34.116   6.950
 3573POPC   C4B48406  42.595  34.160   7.375
 3574POPC   NC348407  28.437   7.803   5.387
 3574POPC   PO448408  28.099   8.299   5.400
 3574POPC   GL148409  28.128   8.097   5.844
 3574POPC   GL248410  28.478   8.003   5.868
 3574POPC   C1A48411  28.093   8.218   6.323
 3574POPC   D2A48412  28.047   8.544   6.693
 3574POPC   C3A48413  28.192   8.513   7.178
 3574POPC   C4A48414  28.130   8.640   7.649
 3574POPC   C1B48415  28.579   8.031   6.313
 3574POPC   C2B48416  28.332   7.906   6.694
 3574POPC   C3B48417  28.455   8.042   7.106
 3574POPC   C4B48418  28.725   8.369   7.279
 3575POPC   NC348419   2.870  12.340   5.385
 3575POPC   PO448420   2.332  12.007   5.514
 3575POPC   GL148421   2.675  12.056   5.790
 3575POPC   GL248422   2.755  12.399   5.874
 3575POPC   C1A48423   2.862  11.986   6.199
 3575POPC   D2A48424   3.031  11.949   6.617
 3575POPC   C3A48425   2.780  11.917   6.990
 3575POPC   C4A48426   2.649  11.954   7.448
 3575POPC   C1B48427   2.872  12.480   6.312
 3575POPC   C2B48428   2.782  12.428   6.762
 3575POPC   C3B48429   2.761  12.413   7.208
 3575POPC   C4B48430   3.051  12.357   7.535
 3576POPC   NC348431  41.339  35.363   5.030
 3576POPC   PO448432  40.846  35.226   5.470
 3576POPC   GL148433  40.964  35.189   5.876
 3576POPC   GL248434  41.127  35.501   5.886
 3576POPC   C1A48435  40.884  35.127   6.289
 3576POPC   D2A48436  40.550  35.128   6.536
 3576POPC   C3A48437  40.748  35.336   6.850
 3576POPC   C4A48438  41.069  35.161   7.138
 3576POPC   C1B48439  40.751  35.586   6.116
 3576POPC   C2B48440  40.720  35.738   6.513
 3576POPC   C3B48441  40.744  35.885   6.902
 3576POPC   C4B48442  40.921  35.663   7.216
 3577POPC   NC348443  12.699  18.227   5.454
 3577POPC   PO448444  13.072  18.626   5.593
 3577POPC   GL148445  12.788  18.455   5.919
 3577POPC   GL248446  12.711  18.081   5.953
 3577POPC   C1A48447  12.497  18.454   6.278
 3577POPC   D2A48448  12.463  18.213   6.671
 3577POPC   C3A48449  12.738  18.341   6.999
 3577POPC   C4A48450  12.934  18.454   7.388
 3577POPC   C1B48451  12.880  18.135   6.385
 3577POPC   C2B48452  13.159  18.251   6.722
 3577POPC   C3B48453  13.164  18.067   7.148
 3577POPC   C4B48454  12.868  17.963   7.502
 3578POPC   NC348455   0.206  23.301   5.356
 3578POPC   PO448456   0.651  22.835   5.360
 3578POPC   GL148457   0.401  22.862   5.717
 3578POPC   GL248458   0.469  23.193   5.799
 3578POPC   C1A48459   0.432  22.798   6.171
 3578POPC   D2A48460   0.407  23.064   6.547
 3578POPC   C3A48461   0.389  22.760   6.871
 3578POPC   C4A48462   0.655  22.653   7.175
 3578POPC   C1B48463   0.078  23.154   6.061
 3578POPC   C2B48464  44.933  23.292   6.474
 3578POPC   C3B48465   0.025  23.127   6.909
 3578POPC   C4B48466   0.239  22.982   7.309
 3579POPC   NC348467  38.266   3.657   5.480
 3579POPC   PO448468  38.768   3.297   5.505
 3579POPC   GL148469  38.637   3.429   5.885
 3579POPC   GL248470  38.456   3.716   5.961
 3579POPC   C1A48471  38.807   3.444   6.262
 3579POPC   D2A48472  38.717   3.662   6.582
 3579POPC   C3A48473  38.673   3.349   6.898
 3579POPC   C4A48474  38.481   3.161   7.246
 3579POPC   C1B48475  38.261   3.798   6.374
 3579POPC   C2B48476  38.004   4.037   6.685
 3579POPC   C3B48477  38.019   3.980   7.118
 3579POPC   C4B48478  37.960   3.741   7.500
 3580POPC   NC348479  32.879  37.970   5.114
 3580POPC   PO448480  33.102  38.529   5.488
 3580POPC   GL148481  33.076  38.779   5.888
 3580POPC   GL248482  33.422  38.818   5.884
 3580POPC   C1A48483  33.078  38.748   6.381
 3580POPC   D2A48484  32.833  38.415   6.630
 3580POPC   C3A48485  32.876  38.310   7.070
 3580POPC   C4A48486  33.189  38.549   7.275
 3580POPC   C1B48487  33.544  38.570   6.256
 3580POPC   C2B48488  33.546  38.639   6.685
 3580POPC   C3B48489  33.326  38.291   6.830
 3580POPC   C4B48490  33.312  38.069   7.199
 3581POPC   NC348491  15.995   0.299   5.447
 3581POPC   PO448492  16.028   0.954   5.485
 3581POPC   GL148493  15.824   0.657   5.843
 3581POPC   GL248494  15.736   0.289   5.892
 3581POPC   C1A48495  15.904   0.595   6.275
 3581POPC   D2A48496  16.099   0.859   6.539
 3581POPC   C3A48497  16.038   0.756   6.949
 3581POPC   C4A48498  16.245   0.655   7.318
 3581POPC   C1B48499  15.854   0.096   6.304
 3581POPC   C2B48500  15.870   0.199   6.720
 3581POPC   C3B48501  16.096   0.225   7.080
 3581POPC   C4B48502  15.922   0.280   7.461
 3582POPC   NC348503  18.826  33.957   5.463
 3582POPC   PO448504  18.670  33.319   5.434
 3582POPC   GL148505  18.927  33.537   5.790
 3582POPC   GL248506  19.249  33.387   5.879
 3582POPC   C1A48507  19.036  33.770   6.202
 3582POPC   D2A48508  19.263  33.887   6.624
 3582POPC   C3A48509  19.068  33.808   7.072
 3582POPC   C4A48510  18.888  33.615   7.477
 3582POPC   C1B48511  19.367  33.419   6.335
 3582POPC   C2B48512  19.473  33.445   6.763
 3582POPC   C3B48513  19.540  33.644   7.135
 3582POPC   C4B48514  19.638  34.066   7.228
 3583POPC   NC348515  27.712  30.945   5.541
 3583POPC   PO448516  27.110  30.648   5.449
 3583POPC   GL148517  27.422  30.566   5.749
 3583POPC   GL248518  27.441  30.865   5.955
 3583POPC   C1A48519  27.433  30.418   6.169
 3583POPC   D2A48520  27.158  30.541   6.489
 3583POPC   C3A48521  27.337  30.517   6.892
 3583POPC   C4A48522  27.590  30.531   7.251
 3583POPC   C1B48523  27.639  30.853   6.395
 3583POPC   C2B48524  27.713  30.898   6.874
 3583POPC   C3B48525  27.878  30.953   7.302
 3583POPC   C4B48526  27.996  30.767   7.723
 3584POPC   NC348527  40.659  29.605   5.538
 3584POPC   PO448528  40.808  28.985   5.539
 3584POPC   GL148529  40.888  29.077   5.923
 3584POPC   GL248530  40.769  29.407   6.002
 3584POPC   C1A48531  40.804  28.931   6.319
 3584POPC   D2A48532  40.645  29.033   6.701
 3584POPC   C3A48533  40.866  28.920   7.043
 3584POPC   C4A48534  40.759  29.132   7.427
 3584POPC   C1B48535  41.148  29.354   6.253
 3584POPC   C2B48536  41.106  29.238   6.639
 3584POPC   C3B48537  40.921  29.422   6.987
 3584POPC   C4B48538  41.134  29.488   7.369
 3585POPC   NC348539  44.282  24.565   5.466
 3585POPC   PO448540  43.671  24.453   5.184
 3585POPC   GL148541  43.672  24.545   5.612
 3585POPC   GL248542  43.476  24.260   5.695
 3585POPC   C1A48543  43.851  24.601   6.040
 3585POPC   D2A48544  43.948  24.432   6.469
 3585POPC   C3A48545  43.949  24.670   6.856
 3585POPC   C4A48546  44.186  24.696   7.214
 3585POPC   C1B48547  43.587  24.143   6.101
 3585POPC   C2B48548  43.646  24.023   6.521
 3585POPC   C3B48549  43.582  24.308   6.868
 3585POPC   C4B48550  43.596  24.531   7.301
 3586POPC   NC348551  40.904  39.392   5.405
 3586POPC   PO448552  40.689  38.827   5.275
 3586POPC   GL148553  40.702  39.010   5.712
 3586POPC   GL248554  40.669  39.349   5.836
 3586POPC   C1A48555  40.946  39.023   6.101
 3586POPC   D2A48556  40.930  39.188   6.513
 3586POPC   C3A48557  40.959  38.977   6.906
 3586POPC   C4A48558  40.940  39.241   7.267
 3586POPC   C1B48559  40.500  39.347   6.236
 3586POPC   C2B48560  40.456  39.640   6.566
 3586POPC   C3B48561  40.631  39.576   6.965
 3586POPC   C4B48562  40.585  39.579   7.412
 3587POPC   NC348563  15.554   4.536   5.447
 3587POPC   PO448564  15.380   3.933   5.228
 3587POPC   GL148565  15.358   4.110   5.698
 3587POPC   GL248566  15.243   4.446   5.843
 3587POPC   C1A48567  15.386   4.078   6.161
 3587POPC   D2A48568  15.272   4.219   6.576
 3587POPC   C3A48569  15.025   3.997   6.831
 3587POPC   C4A48570  15.339   3.815   7.067
 3587POPC   C1B48571  15.296   4.625   6.257
 3587POPC   C2B48572  15.468   4.661   6.696
 3587POPC   C3B48573  15.242   4.621   7.068
 3587POPC   C4B48574  15.125   4.895   7.413
 3588POPC   NC348575  26.796   8.162   5.406
 3588POPC   PO448576  26.459   8.667   5.833
 3588POPC   GL148577  26.746   8.347   5.859
 3588POPC   GL248578  27.107   8.373   5.840
 3588POPC   C1A48579  26.882   7.952   6.055
 3588POPC   D2A48580  26.800   7.768   6.447
 3588POPC   C3A48581  26.744   8.031   6.806
 3588POPC   C4A48582  26.666   7.961   7.209
 3588POPC   C1B48583  26.930   8.428   6.303
 3588POPC   C2B48584  26.652   8.517   6.670
 3588POPC   C3B48585  26.703   8.469   7.144
 3588POPC   C4B48586  26.898   8.671   7.532
 3589POPC   NC348587  38.175  27.745   5.588
 3589POPC   PO448588  38.852  27.472   5.620
 3589POPC   GL148589  38.599  27.747   5.841
 3589POPC   GL248590  38.416  27.491   6.005
 3589POPC   C1A48591  38.438  27.939   6.245
 3589POPC   D2A48592  38.480  27.570   6.558
 3589POPC   C3A48593  38.480  27.527   6.976
 3589POPC   C4A48594  38.349  27.848   7.239
 3589POPC   C1B48595  38.850  27.668   6.244
 3589POPC   C2B48596  38.856  27.957   6.571
 3589POPC   C3B48597  38.828  27.912   7.002
 3589POPC   C4B48598  38.959  27.583   7.201
 3590POPC   NC348599  20.876  20.262   5.590
 3590POPC   PO448600  20.798  20.863   5.388
 3590POPC   GL148601  20.672  20.926   5.874
 3590POPC   GL248602  20.622  20.609   5.901
 3590POPC   C1A48603  20.494  20.853   6.351
 3590POPC   D2A48604  20.781  20.695   6.710
 3590POPC   C3A48605  20.794  20.897   7.155
 3590POPC   C4A48606  20.461  20.881   7.516
 3590POPC   C1B48607  20.656  20.379   6.300
 3590POPC   C2B48608  20.376  20.384   6.647
 3590POPC   C3B48609  20.330  20.731   6.940
 3590POPC   C4B48610  20.561  20.464   7.179
 3591POPC   NC348611  44.338  17.707   5.430
 3591POPC   PO448612  44.974  17.704   5.607
 3591POPC   GL148613  44.599  17.798   5.870
 3591POPC   GL248614  44.279  17.595   5.918
 3591POPC   C1A48615  44.599  17.789   6.299
 3591POPC   D2A48616  44.905  17.596   6.525
 3591POPC   C3A48617  44.872  17.735   6.930
 3591POPC   C4A48618  44.892  17.605   7.330
 3591POPC   C1B48619  44.586  17.326   6.109
 3591POPC   C2B48620  44.523  17.229   6.518
 3591POPC   C3B48621  44.372  17.404   6.880
 3591POPC   C4B48622  44.380  17.631   7.244
 3592POPC   NC348623  28.679  30.690   5.535
 3592POPC   PO448624  28.093  30.810   5.334
 3592POPC   GL148625  28.211  30.735   5.759
 3592POPC   GL248626  27.918  30.696   5.935
 3592POPC   C1A48627  28.367  30.745   6.195
 3592POPC   D2A48628  28.154  30.843   6.579
 3592POPC   C3A48629  28.434  30.877   6.936
 3592POPC   C4A48630  28.362  30.790   7.371
 3592POPC   C1B48631  27.957  30.412   6.258
 3592POPC   C2B48632  27.827  30.455   6.653
 3592POPC   C3B48633  28.060  30.523   7.003
 3592POPC   C4B48634  28.051  30.369   7.393
 3593POPC   NC348635   2.261   1.707   5.568
 3593POPC   PO448636   2.846   2.034   5.457
 3593POPC   GL148637   2.921   2.018   5.864
 3593POPC   GL248638   2.760   2.328   5.880
 3593POPC   C1A48639   2.679   1.933   6.229
 3593POPC   D2A48640   2.777   1.727   6.611
 3593POPC   C3A48641   2.589   1.874   6.953
 3593POPC   C4A48642   2.490   1.678   7.337
 3593POPC   C1B48643   2.623   2.474   6.255
 3593POPC   C2B48644   2.700   2.271   6.628
 3593POPC   C3B48645   2.988   2.197   6.924
 3593POPC   C4B48646   2.948   2.338   7.338
 3594POPC   NC348647   8.497  28.281   5.279
 3594POPC   PO448648   8.234  28.893   5.331
 3594POPC   GL148649   8.114  28.647   5.728
 3594POPC   GL248650   8.276  28.332   5.766
 3594POPC   C1A48651   7.960  28.501   6.142
 3594POPC   D2A48652   8.081  28.296   6.545
 3594POPC   C3A48653   8.064  28.451   6.986
 3594POPC   C4A48654   7.937  28.728   7.338
 3594POPC   C1B48655   8.474  28.380   6.199
 3594POPC   C2B48656   8.534  28.524   6.659
 3594POPC   C3B48657   8.563  28.440   7.118
 3594POPC   C4B48658   8.629  28.006   7.259
 3595POPC   NC348659   9.092  28.859   5.485
 3595POPC   PO448660   8.947  28.195   5.263
 3595POPC   GL148661   8.966  28.379   5.690
 3595POPC   GL248662   8.702  28.616   5.770
 3595POPC   C1A48663   8.988  28.337   6.158
 3595POPC   D2A48664   9.066  28.534   6.591
 3595POPC   C3A48665   9.063  28.341   7.040
 3595POPC   C4A48666   9.215  28.399   7.467
 3595POPC   C1B48667   8.800  28.814   6.187
 3595POPC   C2B48668   8.675  29.001   6.602
 3595POPC   C3B48669   8.870  28.826   6.970
 3595POPC   C4B48670   8.892  28.776   7.401
 3596POPC   NC348671  43.445  20.565   5.487
 3596POPC   PO448672  42.935  21.065   5.620
 3596POPC   GL148673  43.073  20.708   5.862
 3596POPC   GL248674  43.428  20.844   5.922
 3596POPC   C1A48675  42.907  20.479   6.236
 3596POPC   D2A48676  42.791  20.230   6.624
 3596POPC   C3A48677  42.940  20.409   7.001
 3596POPC   C4A48678  42.813  20.768   7.272
 3596POPC   C1B48679  43.435  20.454   6.167
 3596POPC   C2B48680  43.288  20.411   6.579
 3596POPC   C3B48681  43.441  20.334   6.942
 3596POPC   C4B48682  43.493  20.504   7.296
 3597POPC   NC348683  26.351  44.792   5.315
 3597POPC   PO448684  25.712  44.931   5.474
 3597POPC   GL148685  25.989  44.669   5.738
 3597POPC   GL248686  26.315  44.832   5.812
 3597POPC   C1A48687  26.178  44.474   6.137
 3597POPC   D2A48688  26.256  44.419   6.592
 3597POPC   C3A48689  25.975  44.694   6.836
 3597POPC   C4A48690  25.960  44.762   7.285
 3597POPC   C1B48691  26.056   0.007   6.138
 3597POPC   C2B48692  26.159   0.187   6.545
 3597POPC   C3B48693  26.068   0.168   7.002
 3597POPC   C4B48694  26.124   0.193   7.487
 3598POPC   NC348695   3.005  22.761   5.399
 3598POPC   PO448696   2.553  23.198   5.403
 3598POPC   GL148697   2.654  22.854   5.742
 3598POPC   GL248698   2.426  22.575   5.695
 3598POPC   C1A48699   2.890  22.608   6.083
 3598POPC   D2A48700   3.156  22.532   6.453
 3598POPC   C3A48701   3.039  22.693   6.867
 3598POPC   C4A48702   2.979  22.989   7.213
 3598POPC   C1B48703   2.390  22.670   6.145
 3598POPC   C2B48704   2.625  22.714   6.547
 3598POPC   C3B48705   2.555  22.697   7.031
 3598POPC   C4B48706   2.429  22.711   7.520
 3599POPC   NC348707  18.867  19.356   5.294
 3599POPC   PO448708  19.089  18.750   5.351
 3599POPC   GL148709  18.972  18.781   5.758
 3599POPC   GL248710  18.770  19.061   5.713
 3599POPC   C1A48711  19.167  18.758   6.183
 3599POPC   D2A48712  18.961  18.746   6.600
 3599POPC   C3A48713  19.135  18.798   7.025
 3599POPC   C4A48714  19.371  18.871   7.400
 3599POPC   C1B48715  19.108  19.230   5.990
 3599POPC   C2B48716  19.142  19.241   6.453
 3599POPC   C3B48717  18.943  19.271   6.854
 3599POPC   C4B48718  18.647  19.399   7.204
 3600POPC   NC348719  15.527  13.796   5.233
 3600POPC   PO448720  15.389  13.185   5.283
 3600POPC   GL148721  15.397  13.471   5.645
 3600POPC   GL248722  15.093  13.709   5.590
 3600POPC   C1A48723  15.405  13.369   6.112
 3600POPC   D2A48724  15.066  13.398   6.462
 3600POPC   C3A48725  15.176  13.504   6.896
 3600POPC   C4A48726  15.311  13.412   7.315
 3600POPC   C1B48727  15.261  13.822   6.005
 3600POPC   C2B48728  15.253  13.899   6.458
 3600POPC   C3B48729  15.190  14.006   6.887
 3600POPC   C4B48730  15.411  14.021   7.251
 3601POPC   NC348731  42.482   2.625   5.251
 3601POPC   PO448732  42.143   3.256   5.476
 3601POPC   GL148733  42.476   2.940   5.700
 3601POPC   GL248734  42.600   2.537   5.730
 3601POPC   C1A48735  42.415   2.817   6.142
 3601POPC   D2A48736  42.127   2.659   6.460
 3601POPC   C3A48737  42.259   2.816   6.853
 3601POPC   C4A48738  42.212   2.680   7.256
 3601POPC   C1B48739  42.514   2.315   6.129
 3601POPC   C2B48740  42.555   2.373   6.549
 3601POPC   C3B48741  42.780   2.314   6.890
 3601POPC   C4B48742  42.631   2.402   7.279
 3602POPC   NC348743  30.211  11.440   5.503
 3602POPC   PO448744  30.854  11.175   5.460
 3602POPC   GL148745  30.807  11.105   5.887
 3602POPC   GL248746  31.140  11.214   5.910
 3602POPC   C1A48747  30.607  11.296   6.287
 3602POPC   D2A48748  30.690  11.467   6.744
 3602POPC   C3A48749  30.459  11.286   7.139
 3602POPC   C4A48750  30.315  11.159   7.575
 3602POPC   C1B48751  31.099  11.384   6.282
 3602POPC   C2B48752  31.232  11.271   6.635
 3602POPC   C3B48753  31.284  11.483   6.951
 3602POPC   C4B48754  31.202  11.386   7.342
 3603POPC   NC348755  11.541   2.472   5.560
 3603POPC   PO448756  11.111   2.953   5.185
 3603POPC   GL148757  11.122   2.825   5.744
 3603POPC   GL248758  11.466   2.797   5.948
 3603POPC   C1A48759  11.149   3.029   6.257
 3603POPC   D2A48760  11.092   2.933   6.705
 3603POPC   C3A48761  11.390   2.846   7.012
 3603POPC   C4A48762  11.351   3.053   7.396
 3603POPC   C1B48763  11.155   2.530   6.229
 3603POPC   C2B48764  11.120   2.397   6.685
 3603POPC   C3B48765  11.089   2.316   7.133
 3603POPC   C4B48766  11.127   2.589   7.489
 3604POPC   NC348767  17.257  43.978   5.083
 3604POPC   PO448768  16.810  43.573   5.379
 3604POPC   GL148769  16.642  43.624   5.821
 3604POPC   GL248770  16.748  43.960   5.832
 3604POPC   C1A48771  16.454  43.544   6.237
 3604POPC   D2A48772  16.708  43.785   6.543
 3604POPC   C3A48773  16.623  43.934   6.951
 3604POPC   C4A48774  16.826  43.813   7.310
 3604POPC   C1B48775  16.810  44.179   6.211
 3604POPC   C2B48776  16.904  44.246   6.634
 3604POPC   C3B48777  16.748  44.431   7.004
 3604POPC   C4B48778  16.737  44.310   7.438
 3605POPC   NC348779   3.565  40.170   5.318
 3605POPC   PO448780   3.291  39.731   5.640
 3605POPC   GL148781   3.666  39.908   5.817
 3605POPC   GL248782   3.638  40.241   5.847
 3605POPC   C1A48783   3.749  39.771   6.229
 3605POPC   D2A48784   3.639  39.988   6.612
 3605POPC   C3A48785   3.749  39.764   6.989
 3605POPC   C4A48786   3.842  39.689   7.415
 3605POPC   C1B48787   3.311  40.045   6.186
 3605POPC   C2B48788   3.120  40.106   6.594
 3605POPC   C3B48789   3.363  40.238   6.966
 3605POPC   C4B48790   3.381  39.961   7.314
 3606POPC   NC348791   7.518   1.093   5.202
 3606POPC   PO448792   7.339   1.709   5.157
 3606POPC   GL148793   7.358   1.351   5.609
 3606POPC   GL248794   7.570   1.003   5.713
 3606POPC   C1A48795   7.425   1.308   6.085
 3606POPC   D2A48796   7.529   1.243   6.521
 3606POPC   C3A48797   7.226   1.215   6.864
 3606POPC   C4A48798   7.264   1.075   7.298
 3606POPC   C1B48799   7.675   0.879   6.165
 3606POPC   C2B48800   7.868   0.857   6.580
 3606POPC   C3B48801   7.745   0.745   7.010
 3606POPC   C4B48802   8.024   0.604   7.328
 3607POPC   NC348803  12.016  35.717   5.083
 3607POPC   PO448804  12.158  35.081   5.377
 3607POPC   GL148805  12.012  35.117   5.807
 3607POPC   GL248806  11.835  34.780   5.829
 3607POPC   C1A48807  12.083  35.369   6.182
 3607POPC   D2A48808  12.135  35.541   6.593
 3607POPC   C3A48809  12.241  35.315   6.964
 3607POPC   C4A48810  12.328  35.360   7.402
 3607POPC   C1B48811  11.855  34.917   6.247
 3607POPC   C2B48812  11.819  35.087   6.615
 3607POPC   C3B48813  11.883  34.919   6.998
 3607POPC   C4B48814  11.840  35.210   7.299
 3608POPC   NC348815  37.542  19.072   5.271
 3608POPC   PO448816  37.585  18.426   5.386
 3608POPC   GL148817  37.720  18.747   5.690
 3608POPC   GL248818  37.433  18.892   5.806
 3608POPC   C1A48819  37.893  18.938   6.082
 3608POPC   D2A48820  37.931  18.824   6.533
 3608POPC   C3A48821  38.074  19.048   6.887
 3608POPC   C4A48822  38.165  18.903   7.340
 3608POPC   C1B48823  37.425  19.110   6.224
 3608POPC   C2B48824  37.615  19.276   6.585
 3608POPC   C3B48825  37.523  19.189   6.999
 3608POPC   C4B48826  37.660  19.142   7.373
 3609POPC   NC348827  18.710  20.507   5.627
 3609POPC   PO448828  19.404  20.314   5.446
 3609POPC   GL148829  19.352  20.548   5.883
 3609POPC   GL248830  19.030  20.662   5.952
 3609POPC   C1A48831  19.221  20.619   6.386
 3609POPC   D2A48832  18.890  20.281   6.528
 3609POPC   C3A48833  18.734  20.328   6.943
 3609POPC   C4A48834  19.001  20.465   7.284
 3609POPC   C1B48835  18.791  20.900   6.241
 3609POPC   C2B48836  18.755  20.771   6.638
 3609POPC   C3B48837  18.778  20.856   7.031
 3609POPC   C4B48838  18.561  20.697   7.395
 3610POPC   NC348839   0.565  28.934   5.613
 3610POPC   PO448840   0.329  29.493   5.323
 3610POPC   GL148841   0.246  29.326   5.750
 3610POPC   GL248842   0.571  29.453   5.805
 3610POPC   C1A48843   0.331  29.133   6.181
 3610POPC   D2A48844   0.513  29.099   6.603
 3610POPC   C3A48845   0.227  28.917   6.895
 3610POPC   C4A48846   0.197  28.972   7.324
 3610POPC   C1B48847   0.731  29.472   6.217
 3610POPC   C2B48848   0.909  29.531   6.600
 3610POPC   C3B48849   0.869  29.294   6.943
 3610POPC   C4B48850   0.778  29.406   7.330
 3611POPC   NC348851  10.127  20.698   5.365
 3611POPC   PO448852   9.478  20.436   5.295
 3611POPC   GL148853   9.702  20.631   5.656
 3611POPC   GL248854   9.978  20.444   5.774
 3611POPC   C1A48855   9.707  20.809   6.072
 3611POPC   D2A48856   9.893  20.787   6.454
 3611POPC   C3A48857   9.855  20.620   6.882
 3611POPC   C4A48858   9.927  20.710   7.323
 3611POPC   C1B48859   9.761  20.335   6.163
 3611POPC   C2B48860   9.810  20.165   6.550
 3611POPC   C3B48861   9.600  20.165   6.937
 3611POPC   C4B48862   9.695  20.223   7.339
 3612POPC   NC348863   6.887  29.564   5.371
 3612POPC   PO448864   6.538  30.007   5.283
 3612POPC   GL148865   6.710  30.173   5.730
 3612POPC   GL248866   6.978  29.924   5.829
 3612POPC   C1A48867   6.938  30.298   6.178
 3612POPC   D2A48868   7.079  30.150   6.648
 3612POPC   C3A48869   6.904  30.083   7.053
 3612POPC   C4A48870   6.692  29.951   7.423
 3612POPC   C1B48871   6.990  29.779   6.290
 3612POPC   C2B48872   6.898  29.675   6.740
 3612POPC   C3B48873   7.017  29.609   7.188
 3612POPC   C4B48874   6.950  29.573   7.669
 3613POPC   NC348875  37.905  37.611   5.459
 3613POPC   PO448876  37.570  38.101   5.497
 3613POPC   GL148877  37.667  38.084   5.915
 3613POPC   GL248878  37.998  37.928   5.910
 3613POPC   C1A48879  37.495  38.079   6.353
 3613POPC   D2A48880  37.422  37.784   6.690
 3613POPC   C3A48881  37.492  37.847   7.132
 3613POPC   C4A48882  37.743  37.634   7.413
 3613POPC   C1B48883  37.804  37.642   6.189
 3613POPC   C2B48884  37.769  37.373   6.527
 3613POPC   C3B48885  37.791  37.467   6.928
 3613POPC   C4B48886  37.458  37.292   7.145
 3614POPC   NC348887   7.269  17.025   5.545
 3614POPC   PO448888   7.740  16.609   5.295
 3614POPC   GL148889   7.536  16.546   5.713
 3614POPC   GL248890   7.804  16.313   5.805
 3614POPC   C1A48891   7.217  16.645   6.071
 3614POPC   D2A48892   7.220  16.952   6.416
 3614POPC   C3A48893   7.226  16.840   6.858
 3614POPC   C4A48894   7.085  16.946   7.273
 3614POPC   C1B48895   7.562  16.278   6.167
 3614POPC   C2B48896   7.437  16.490   6.511
 3614POPC   C3B48897   7.579  16.461   6.899
 3614POPC   C4B48898   7.430  16.550   7.266
 3615POPC   NC348899  19.093  44.332   5.510
 3615POPC   PO448900  18.838  44.974   5.384
 3615POPC   GL148901  18.889  44.905   5.833
 3615POPC   GL248902  19.224  44.812   5.756
 3615POPC   C1A48903  18.793  44.777   6.291
 3615POPC   D2A48904  18.647  44.796   6.737
 3615POPC   C3A48905  18.942  44.748   7.058
 3615POPC   C4A48906  19.278   0.031   7.107
 3615POPC   C1B48907  19.270  44.585   6.162
 3615POPC   C2B48908  19.175  44.528   6.600
 3615POPC   C3B48909  19.425  44.568   6.964
 3615POPC   C4B48910  19.373  44.572   7.417
 3616POPC   NC348911  33.512  38.314   5.426
 3616POPC   PO448912  34.079  38.719   5.389
 3616POPC   GL148913  33.931  38.707   5.813
 3616POPC   GL248914  33.764  38.394   5.843
 3616POPC   C1A48915  33.927  38.894   6.239
 3616POPC   D2A48916  34.180  38.847   6.602
 3616POPC   C3A48917  34.018  38.621   6.934
 3616POPC   C4A48918  33.708  38.418   7.151
 3616POPC   C1B48919  33.803  38.094   6.182
 3616POPC   C2B48920  33.802  38.193   6.609
 3616POPC   C3B48921  33.722  37.938   6.948
 3616POPC   C4B48922  33.846  37.976   7.356
 3617POPC   NC348923  23.240   0.350   5.566
 3617POPC   PO448924  22.682   0.351   5.312
 3617POPC   GL148925  22.732   0.380   5.745
 3617POPC   GL248926  22.824   0.729   5.743
 3617POPC   C1A48927  22.918   0.240   6.136
 3617POPC   D2A48928  23.009   0.409   6.541
 3617POPC   C3A48929  22.712   0.303   6.853
 3617POPC   C4A48930  22.938   0.154   7.199
 3617POPC   C1B48931  22.810   0.763   6.211
 3617POPC   C2B48932  22.732   0.828   6.693
 3617POPC   C3B48933  22.954   0.684   7.098
 3617POPC   C4B48934  22.850   0.511   7.552
 3618POPC   NC348935   7.632  43.406   5.522
 3618POPC   PO448936   7.558  44.063   5.402
 3618POPC   GL148937   7.389  44.031   5.806
 3618POPC   GL248938   7.303  43.671   5.871
 3618POPC   C1A48939   7.463  44.024   6.246
 3618POPC   D2A48940   7.144  43.931   6.523
 3618POPC   C3A48941   7.190  43.898   6.968
 3618POPC   C4A48942   7.561  44.138   7.101
 3618POPC   C1B48943   7.400  43.519   6.316
 3618POPC   C2B48944   7.581  43.721   6.705
 3618POPC   C3B48945   7.677  43.619   7.147
 3618POPC   C4B48946   8.098  43.520   7.272
 3619POPC   NC348947  15.082  41.358   5.203
 3619POPC   PO448948  14.937  40.676   5.382
 3619POPC   GL148949  15.067  40.761   5.852
 3619POPC   GL248950  15.420  40.851   5.941
 3619POPC   C1A48951  15.058  40.835   6.321
 3619POPC   D2A48952  14.714  40.700   6.639
 3619POPC   C3A48953  14.848  40.607   7.048
 3619POPC   C4A48954  14.870  40.942   7.299
 3619POPC   C1B48955  15.598  40.994   6.311
 3619POPC   C2B48956  15.492  41.257   6.675
 3619POPC   C3B48957  15.355  41.120   7.089
 3619POPC   C4B48958  15.339  40.943   7.506
 3620POPC   NC348959   6.191   8.805   5.503
 3620POPC   PO448960   5.704   9.252   5.445
 3620POPC   GL148961   5.658   9.127   5.854
 3620POPC   GL248962   5.755   8.807   5.785
 3620POPC   C1A48963   5.909   9.090   6.250
 3620POPC   D2A48964   6.091   9.248   6.646
 3620POPC   C3A48965   5.935   9.085   7.036
 3620POPC   C4A48966   5.549   9.214   7.214
 3620POPC   C1B48967   5.924   8.589   6.108
 3620POPC   C2B48968   5.939   8.589   6.528
 3620POPC   C3B48969   5.979   8.580   6.963
 3620POPC   C4B48970   5.832   8.659   7.380
 3621POPC   NC348971  17.603  42.389   5.379
 3621POPC   PO448972  17.062  41.921   5.521
 3621POPC   GL148973  17.401  42.188   5.797
 3621POPC   GL248974  17.619  42.502   5.861
 3621POPC   C1A48975  17.360  42.185   6.236
 3621POPC   D2A48976  17.104  42.172   6.591
 3621POPC   C3A48977  17.421  42.159   6.890
 3621POPC   C4A48978  17.473  41.973   7.269
 3621POPC   C1B48979  17.556  42.668   6.257
 3621POPC   C2B48980  17.468  42.614   6.634
 3621POPC   C3B48981  17.599  42.632   7.053
 3621POPC   C4B48982  17.424  42.476   7.470
 3622POPC   NC348983  43.666  33.129   5.456
 3622POPC   PO448984  44.315  32.942   5.391
 3622POPC   GL148985  44.100  33.059   5.753
 3622POPC   GL248986  44.275  33.365   5.775
 3622POPC   C1A48987  43.824  32.975   6.119
 3622POPC   D2A48988  43.790  32.732   6.498
 3622POPC   C3A48989  43.802  32.896   6.921
 3622POPC   C4A48990  44.127  32.813   7.202
 3622POPC   C1B48991  44.118  33.388   6.197
 3622POPC   C2B48992  43.949  33.273   6.564
 3622POPC   C3B48993  44.170  33.272   6.928
 3622POPC   C4B48994  43.980  33.277   7.270
 3623POPC   NC348995  11.164   7.978   5.200
 3623POPC   PO448996  11.628   8.414   5.496
 3623POPC   GL148997  11.233   8.249   5.698
 3623POPC   GL248998  10.969   8.487   5.753
 3623POPC   C1A48999  11.164   8.196   6.160
 3623POPC   D2A49000  11.500   8.203   6.491
 3623POPC   C3A49001  11.468   7.984   6.886
 3623POPC   C4A49002  11.457   8.221   7.278
 3623POPC   C1B49003  11.034   8.683   6.139
 3623POPC   C2B49004  10.916   8.583   6.530
 3623POPC   C3B49005  11.064   8.330   6.848
 3623POPC   C4B49006  11.057   8.569   7.179
 3624POPC   NC349007  40.236  37.047   5.303
 3624POPC   PO449008  39.564  36.874   5.215
 3624POPC   GL149009  39.781  37.067   5.606
 3624POPC   GL249010  39.570  37.164   5.876
 3624POPC   C1A49011  40.032  37.009   6.021
 3624POPC   D2A49012  40.097  36.820   6.451
 3624POPC   C3A49013  39.988  36.885   6.902
 3624POPC   C4A49014  40.203  36.823   7.256
 3624POPC   C1B49015  39.602  37.339   6.248
 3624POPC   C2B49016  39.798  37.224   6.586
 3624POPC   C3B49017  39.724  37.363   6.994
 3624POPC   C4B49018  39.822  37.173   7.368
 3625POPC   NC349019  27.395  12.354   5.587
 3625POPC   PO449020  27.715  11.703   5.566
 3625POPC   GL149021  27.476  11.935   5.879
 3625POPC   GL249022  27.741  12.177   5.940
 3625POPC   C1A49023  27.309  11.965   6.297
 3625POPC   D2A49024  27.427  11.626   6.575
 3625POPC   C3A49025  27.472  11.777   6.991
 3625POPC   C4A49026  27.269  12.156   7.131
 3625POPC   C1B49027  27.817  11.956   6.323
 3625POPC   C2B49028  27.622  12.153   6.698
 3625POPC   C3B49029  27.770  12.252   7.125
 3625POPC   C4B49030  27.855  12.291   7.585
 3626POPC   NC349031  25.961   3.148   5.172
 3626POPC   PO449032  26.153   2.570   5.432
 3626POPC   GL149033  26.210   2.850   5.717
 3626POPC   GL249034  25.883   2.936   5.719
 3626POPC   C1A49035  26.301   2.873   6.143
 3626POPC   D2A49036  26.280   2.573   6.480
 3626POPC   C3A49037  26.079   2.795   6.821
 3626POPC   C4A49038  26.235   2.895   7.222
 3626POPC   C1B49039  25.734   3.043   6.146
 3626POPC   C2B49040  25.769   3.186   6.598
 3626POPC   C3B49041  25.536   3.171   6.973
 3626POPC   C4B49042  25.675   2.919   7.305
 3627POPC   NC349043  26.344   5.073   5.299
 3627POPC   PO449044  26.922   5.422   5.151
 3627POPC   GL149045  26.813   5.187   5.575
 3627POPC   GL249046  26.477   5.197   5.792
 3627POPC   C1A49047  26.972   5.228   6.030
 3627POPC   D2A49048  26.908   5.157   6.488
 3627POPC   C3A49049  26.915   5.442   6.841
 3627POPC   C4A49050  26.784   5.420   7.274
 3627POPC   C1B49051  26.589   4.892   6.139
 3627POPC   C2B49052  26.566   4.780   6.590
 3627POPC   C3B49053  26.629   5.008   6.984
 3627POPC   C4B49054  26.675   4.942   7.452
 3628POPC   NC349055   3.871  40.979   5.400
 3628POPC   PO449056   4.463  40.710   5.336
 3628POPC   GL149057   4.533  40.703   5.765
 3628POPC   GL249058   4.218  40.844   5.791
 3628POPC   C1A49059   4.619  40.832   6.178
 3628POPC   D2A49060   4.729  40.669   6.568
 3628POPC   C3A49061   4.742  40.975   6.877
 3628POPC   C4A49062   4.617  40.863   7.285
 3628POPC   C1B49063   4.133  40.636   6.188
 3628POPC   C2B49064   4.225  40.751   6.590
 3628POPC   C3B49065   4.382  40.562   6.940
 3628POPC   C4B49066   4.192  40.593   7.321
 3629POPC   NC349067  10.085  23.455   5.393
 3629POPC   PO449068   9.834  22.825   5.385
 3629POPC   GL149069   9.713  22.803   5.826
 3629POPC   GL249070   9.643  23.157   5.939
 3629POPC   C1A49071   9.602  22.730   6.254
 3629POPC   D2A49072   9.836  22.739   6.658
 3629POPC   C3A49073   9.578  22.721   7.051
 3629POPC   C4A49074   9.642  22.820   7.504
 3629POPC   C1B49075   9.695  23.204   6.395
 3629POPC   C2B49076   9.735  23.210   6.825
 3629POPC   C3B49077   9.771  23.192   7.210
 3629POPC   C4B49078  10.118  23.200   7.433
 3630POPC   NC349079  40.482  44.824   5.089
 3630POPC   PO449080  39.918  44.541   5.252
 3630POPC   GL149081  40.062  44.495   5.710
 3630POPC   GL249082  40.231  44.190   5.778
 3630POPC   C1A49083  40.258  44.542   6.165
 3630POPC   D2A49084  40.308  44.736   6.593
 3630POPC   C3A49085  39.959  44.891   6.904
 3630POPC   C4A49086  40.059  44.941   7.366
 3630POPC   C1B49087  39.893  44.197   6.116
 3630POPC   C2B49088  39.853  44.463   6.502
 3630POPC   C3B49089  40.013  44.381   6.915
 3630POPC   C4B49090  39.903  44.457   7.340
 3631POPC   NC349091   0.297   8.046   5.333
 3631POPC   PO449092   0.784   8.322   5.645
 3631POPC   GL149093   0.382   8.304   5.816
 3631POPC   GL249094   0.354   7.968   5.860
 3631POPC   C1A49095   0.245   8.358   6.245
 3631POPC   D2A49096   0.384   8.235   6.661
 3631POPC   C3A49097   0.291   8.454   7.031
 3631POPC   C4A49098   0.438   8.348   7.452
 3631POPC   C1B49099   0.592   7.964   6.275
 3631POPC   C2B49100   0.552   7.741   6.688
 3631POPC   C3B49101   0.447   7.955   7.108
 3631POPC   C4B49102   0.182   7.897   7.482
 3632POPC   NC349103   5.327  38.322   5.372
 3632POPC   PO449104   4.711  38.455   5.496
 3632POPC   GL149105   5.023  38.395   5.820
 3632POPC   GL249106   5.273  38.111   5.827
 3632POPC   C1A49107   4.933  38.542   6.245
 3632POPC   D2A49108   5.046  38.728   6.648
 3632POPC   C3A49109   4.926  38.489   7.017
 3632POPC   C4A49110   4.867  38.522   7.468
 3632POPC   C1B49111   5.312  38.231   6.252
 3632POPC   C2B49112   5.254  38.236   6.692
 3632POPC   C3B49113   5.549  38.064   7.000
 3632POPC   C4B49114   5.653  38.111   7.440
 3633POPC   NC349115  16.641  42.147   5.506
 3633POPC   PO449116  16.564  42.779   5.396
 3633POPC   GL149117  16.679  42.567   5.818
 3633POPC   GL249118  16.914  42.235   5.909
 3633POPC   C1A49119  16.610  42.415   6.257
 3633POPC   D2A49120  16.416  42.494   6.635
 3633POPC   C3A49121  16.648  42.349   6.951
 3633POPC   C4A49122  16.571  42.239   7.396
 3633POPC   C1B49123  17.069  42.578   6.131
 3633POPC   C2B49124  16.969  42.674   6.552
 3633POPC   C3B49125  17.101  42.558   6.966
 3633POPC   C4B49126  17.047  42.223   7.238
 3634POPC   NC349127  36.876  19.565   5.248
 3634POPC   PO449128  36.861  20.156   5.397
 3634POPC   GL149129  36.918  20.108   5.819
 3634POPC   GL249130  37.002  19.813   5.889
 3634POPC   C1A49131  36.597  20.200   6.121
 3634POPC   D2A49132  36.534  20.278   6.554
 3634POPC   C3A49133  36.547  20.052   6.942
 3634POPC   C4A49134  36.766  19.788   7.237
 3634POPC   C1B49135  36.984  19.942   6.342
 3634POPC   C2B49136  36.897  19.715   6.716
 3634POPC   C3B49137  37.171  19.563   7.032
 3634POPC   C4B49138  37.203  19.401   7.409
 3635POPC   NC349139  34.268  34.008   5.669
 3635POPC   PO449140  34.589  33.412   5.466
 3635POPC   GL149141  34.763  33.539   5.905
 3635POPC   GL249142  34.700  33.908   5.929
 3635POPC   C1A49143  34.907  33.724   6.350
 3635POPC   D2A49144  34.658  33.756   6.696
 3635POPC   C3A49145  34.714  33.597   7.062
 3635POPC   C4A49146  34.681  33.953   7.290
 3635POPC   C1B49147  34.399  33.676   6.238
 3635POPC   C2B49148  34.152  33.786   6.606
 3635POPC   C3B49149  34.217  33.849   7.049
 3635POPC   C4B49150  34.301  33.571   7.383
 3636POPC   NC349151  35.157   2.966   5.223
 3636POPC   PO449152  35.484   2.448   5.450
 3636POPC   GL149153  35.341   2.708   5.822
 3636POPC   GL249154  35.221   3.057   5.784
 3636POPC   C1A49155  35.562   2.776   6.246
 3636POPC   D2A49156  35.770   2.656   6.670
 3636POPC   C3A49157  35.620   2.903   7.005
 3636POPC   C4A49158  35.281   2.700   7.190
 3636POPC   C1B49159  35.056   2.924   6.203
 3636POPC   C2B49160  35.084   2.772   6.633
 3636POPC   C3B49161  34.893   2.952   7.002
 3636POPC   C4B49162  34.999   3.087   7.442
 3637POPC   NC349163   5.903  14.577   5.520
 3637POPC   PO449164   5.652  13.857   5.521
 3637POPC   GL149165   5.726  14.152   5.851
 3637POPC   GL249166   6.055  14.345   5.940
 3637POPC   C1A49167   5.871  14.042   6.272
 3637POPC   D2A49168   6.089  14.294   6.507
 3637POPC   C3A49169   5.844  14.460   6.837
 3637POPC   C4A49170   5.969  14.438   7.231
 3637POPC   C1B49171   5.678  14.510   6.236
 3637POPC   C2B49172   5.502  14.792   6.569
 3637POPC   C3B49173   5.545  14.847   7.027
 3637POPC   C4B49174   5.698  14.837   7.442
 3638POPC   NC349175   6.584  20.174   5.341
 3638POPC   PO449176   6.519  19.518   5.243
 3638POPC   GL149177   6.591  19.603   5.740
 3638POPC   GL249178   6.594  19.970   5.825
 3638POPC   C1A49179   6.712  19.694   6.213
 3638POPC   D2A49180   6.964  19.774   6.564
 3638POPC   C3A49181   6.762  19.733   6.957
 3638POPC   C4A49182   7.009  19.924   7.267
 3638POPC   C1B49183   6.397  20.110   6.251
 3638POPC   C2B49184   6.565  20.116   6.673
 3638POPC   C3B49185   6.578  20.199   7.125
 3638POPC   C4B49186   6.304  20.157   7.462
 3639POPC   NC349187   1.826   5.388   5.532
 3639POPC   PO449188   2.105   4.777   5.572
 3639POPC   GL149189   2.151   5.100   5.827
 3639POPC   GL249190   1.807   5.026   5.931
 3639POPC   C1A49191   2.190   5.205   6.243
 3639POPC   D2A49192   1.932   4.976   6.517
 3639POPC   C3A49193   2.076   5.069   6.900
 3639POPC   C4A49194   2.205   4.885   7.253
 3639POPC   C1B49195   1.693   5.347   6.238
 3639POPC   C2B49196   1.796   5.489   6.672
 3639POPC   C3B49197   1.759   5.395   7.120
 3639POPC   C4B49198   1.791   5.433   7.557
 3640POPC   NC349199   7.758  14.576   5.474
 3640POPC   PO449200   8.168  14.086   5.374
 3640POPC   GL149201   7.870  14.164   5.763
 3640POPC   GL249202   7.911  14.493   5.961
 3640POPC   C1A49203   7.751  14.110   6.229
 3640POPC   D2A49204   7.664  14.271   6.642
 3640POPC   C3A49205   7.901  14.200   7.061
 3640POPC   C4A49206   7.966  14.306   7.508
 3640POPC   C1B49207   8.005  14.623   6.411
 3640POPC   C2B49208   7.868  14.691   6.869
 3640POPC   C3B49209   8.112  14.759   7.267
 3640POPC   C4B49210   8.362  14.609   7.640
 3641POPC   NC349211  31.299   6.595   5.275
 3641POPC   PO449212  31.808   6.141   5.553
 3641POPC   GL149213  31.648   6.624   5.681
 3641POPC   GL249214  31.273   6.716   5.789
 3641POPC   C1A49215  31.677   6.794   6.129
 3641POPC   D2A49216  31.722   6.588   6.560
 3641POPC   C3A49217  31.662   6.816   6.929
 3641POPC   C4A49218  31.750   6.772   7.390
 3641POPC   C1B49219  31.230   6.501   6.229
 3641POPC   C2B49220  31.250   6.432   6.714
 3641POPC   C3B49221  31.340   6.523   7.162
 3641POPC   C4B49222  31.307   6.561   7.644
 3642POPC   NC349223  25.799  14.400   5.532
 3642POPC   PO449224  26.156  14.852   5.194
 3642POPC   GL149225  26.251  14.599   5.704
 3642POPC   GL249226  26.165  14.294   5.896
 3642POPC   C1A49227  26.272  14.634   6.216
 3642POPC   D2A49228  26.216  14.786   6.640
 3642POPC   C3A49229  26.100  14.571   7.016
 3642POPC   C4A49230  26.367  14.240   7.168
 3642POPC   C1B49231  25.805  14.435   6.181
 3642POPC   C2B49232  25.739  14.512   6.624
 3642POPC   C3B49233  25.584  14.428   7.038
 3642POPC   C4B49234  25.573  14.027   7.248
 3643POPC   NC349235  44.125   3.668   5.105
 3643POPC   PO449236  43.785   3.095   5.324
 3643POPC   GL149237  43.812   3.412   5.651
 3643POPC   GL249238  44.166   3.557   5.641
 3643POPC   C1A49239  43.694   3.405   6.106
 3643POPC   D2A49240  43.856   3.534   6.531
 3643POPC   C3A49241  43.616   3.745   6.883
 3643POPC   C4A49242  43.470   3.764   7.365
 3643POPC   C1B49243  44.211   3.430   6.112
 3643POPC   C2B49244  44.239   3.159   6.500
 3643POPC   C3B49245  44.130   3.322   6.929
 3643POPC   C4B49246  43.710   3.329   7.142
 3644POPC   NC349247  32.330   0.688   5.393
 3644POPC   PO449248  32.700   0.203   5.662
 3644POPC   GL149249  32.575   0.592   5.850
 3644POPC   GL249250  32.221   0.531   5.860
 3644POPC   C1A49251  32.463   0.628   6.291
 3644POPC   D2A49252  32.502   0.540   6.704
 3644POPC   C3A49253  32.451   0.173   6.941
 3644POPC   C4A49254  32.072   0.266   7.135
 3644POPC   C1B49255  31.954   0.519   6.233
 3644POPC   C2B49256  31.968   0.542   6.686
 3644POPC   C3B49257  31.988   0.759   7.084
 3644POPC   C4B49258  31.913   0.612   7.507
 3645POPC   NC349259  23.804   5.263   5.426
 3645POPC   PO449260  23.608   4.572   5.568
 3645POPC   GL149261  23.605   4.934   5.830
 3645POPC   GL249262  23.913   5.032   5.850
 3645POPC   C1A49263  23.608   5.129   6.255
 3645POPC   D2A49264  23.358   5.254   6.591
 3645POPC   C3A49265  23.533   5.020   6.866
 3645POPC   C4A49266  23.720   5.056   7.225
 3645POPC   C1B49267  24.088   4.947   6.230
 3645POPC   C2B49268  23.922   4.790   6.575
 3645POPC   C3B49269  23.966   4.693   6.964
 3645POPC   C4B49270  24.176   4.834   7.291
 3646POPC   NC349271  40.072   6.913   5.321
 3646POPC   PO449272  39.983   6.210   5.358
 3646POPC   GL149273  39.890   6.315   5.796
 3646POPC   GL249274  40.083   6.600   5.874
 3646POPC   C1A49275  39.927   6.289   6.281
 3646POPC   D2A49276  40.068   6.439   6.707
 3646POPC   C3A49277  39.802   6.513   7.095
 3646POPC   C4A49278  39.770   6.725   7.521
 3646POPC   C1B49279  40.334   6.601   6.286
 3646POPC   C2B49280  40.362   6.878   6.662
 3646POPC   C3B49281  40.243   6.807   7.092
 3646POPC   C4B49282  40.254   6.553   7.475
 3647POPC   NC349283   8.649  18.749   5.548
 3647POPC   PO449284   8.409  19.346   5.461
 3647POPC   GL149285   8.238  19.111   5.821
 3647POPC   GL249286   7.996  18.864   5.683
 3647POPC   C1A49287   8.133  19.314   6.250
 3647POPC   D2A49288   8.005  19.414   6.709
 3647POPC   C3A49289   8.308  19.198   6.996
 3647POPC   C4A49290   8.534  19.148   7.400
 3647POPC   C1B49291   7.838  18.865   6.100
 3647POPC   C2B49292   7.920  18.941   6.536
 3647POPC   C3B49293   7.845  18.920   6.970
 3647POPC   C4B49294   7.932  19.173   7.330
 3648POPC   NC349295  16.647  21.349   5.474
 3648POPC   PO449296  17.145  21.803   5.565
 3648POPC   GL149297  16.914  21.567   5.868
 3648POPC   GL249298  17.027  21.212   5.832
 3648POPC   C1A49299  16.697  21.688   6.267
 3648POPC   D2A49300  16.987  21.680   6.619
 3648POPC   C3A49301  16.869  21.425   6.953
 3648POPC   C4A49302  16.565  21.604   7.186
 3648POPC   C1B49303  16.808  21.179   6.256
 3648POPC   C2B49304  16.482  21.211   6.617
 3648POPC   C3B49305  16.408  21.126   7.070
 3648POPC   C4B49306  16.706  21.146   7.407
 3649POPC   NC349307   2.793  38.055   5.306
 3649POPC   PO449308   2.678  37.424   5.391
 3649POPC   GL149309   2.696  37.667   5.773
 3649POPC   GL249310   2.441  37.948   5.729
 3649POPC   C1A49311   2.700  37.427   6.180
 3649POPC   D2A49312   2.384  37.422   6.542
 3649POPC   C3A49313   2.671  37.478   6.910
 3649POPC   C4A49314   2.479  37.429   7.267
 3649POPC   C1B49315   2.371  37.808   6.165
 3649POPC   C2B49316   2.676  37.821   6.502
 3649POPC   C3B49317   2.531  37.953   6.846
 3649POPC   C4B49318   2.704  37.884   7.260
 3650POPC   NC349319  21.061   5.130   5.179
 3650POPC   PO449320  21.665   4.927   5.304
 3650POPC   GL149321  21.537   5.047   5.755
 3650POPC   GL249322  21.171   4.918   5.779
 3650POPC   C1A49323  21.756   5.127   6.214
 3650POPC   D2A49324  21.731   4.976   6.674
 3650POPC   C3A49325  21.625   5.297   7.026
 3650POPC   C4A49326  21.596   5.525   7.455
 3650POPC   C1B49327  21.356   4.828   6.225
 3650POPC   C2B49328  21.225   4.766   6.684
 3650POPC   C3B49329  21.350   4.865   7.111
 3650POPC   C4B49330  21.223   5.168   7.437
 3651POPC   NC349331  26.944  21.827   5.600
 3651POPC   PO449332  26.662  22.296   5.443
 3651POPC   GL149333  26.744  22.471   5.870
 3651POPC   GL249334  26.982  22.233   5.928
 3651POPC   C1A49335  26.643  22.329   6.323
 3651POPC   D2A49336  26.858  22.374   6.736
 3651POPC   C3A49337  26.650  22.487   7.101
 3651POPC   C4A49338  26.367  22.251   7.346
 3651POPC   C1B49339  27.139  22.207   6.337
 3651POPC   C2B49340  27.037  21.902   6.654
 3651POPC   C3B49341  26.952  21.943   7.103
 3651POPC   C4B49342  27.232  21.875   7.480
 3652POPC   NC349343  23.019  22.758   5.092
 3652POPC   PO449344  22.799  22.387   5.497
 3652POPC   GL149345  22.779  22.366   5.902
 3652POPC   GL249346  22.820  22.040   5.988
 3652POPC   C1A49347  22.842  22.483   6.308
 3652POPC   D2A49348  22.809  22.255   6.672
 3652POPC   C3A49349  22.939  22.495   7.015
 3652POPC   C4A49350  22.873  22.417   7.441
 3652POPC   C1B49351  23.156  22.067   6.305
 3652POPC   C2B49352  23.238  22.000   6.767
 3652POPC   C3B49353  22.967  21.994   7.142
 3652POPC   C4B49354  22.601  21.939   7.410
 3653POPC   NC349355  30.371  28.680   5.384
 3653POPC   PO449356  29.802  28.271   5.348
 3653POPC   GL149357  29.679  28.464   5.736
 3653POPC   GL249358  30.036  28.533   5.759
 3653POPC   C1A49359  29.665  28.313   6.159
 3653POPC   D2A49360  29.874  28.382   6.549
 3653POPC   C3A49361  29.713  28.391   6.957
 3653POPC   C4A49362  29.874  28.733   7.225
 3653POPC   C1B49363  30.098  28.627   6.168
 3653POPC   C2B49364  30.346  28.612   6.557
 3653POPC   C3B49365  30.240  28.451   6.954
 3653POPC   C4B49366  30.064  28.224   7.300
 3654POPC   NC349367  36.680  21.673   5.555
 3654POPC   PO449368  36.803  21.129   5.170
 3654POPC   GL149369  36.864  21.207   5.623
 3654POPC   GL249370  37.107  20.983   5.651
 3654POPC   C1A49371  36.872  21.348   6.067
 3654POPC   D2A49372  36.678  21.434   6.449
 3654POPC   C3A49373  36.829  21.643   6.786
 3654POPC   C4A49374  36.654  21.454   7.131
 3654POPC   C1B49375  37.190  20.944   6.117
 3654POPC   C2B49376  37.156  21.212   6.488
 3654POPC   C3B49377  36.883  21.098   6.796
 3654POPC   C4B49378  37.042  20.864   7.121
 3655POPC   NC349379  40.294  38.728   5.501
 3655POPC   PO449380  39.612  38.785   5.329
 3655POPC   GL149381  39.814  38.591   5.749
 3655POPC   GL249382  39.973  38.271   5.761
 3655POPC   C1A49383  39.703  38.329   6.174
 3655POPC   D2A49384  39.822  38.189   6.615
 3655POPC   C3A49385  39.753  38.417   7.006
 3655POPC   C4A49386  39.907  38.776   7.257
 3655POPC   C1B49387  40.175  38.511   6.129
 3655POPC   C2B49388  40.179  38.559   6.571
 3655POPC   C3B49389  40.292  38.255   6.883
 3655POPC   C4B49390  40.216  38.344   7.285
 3656POPC   NC349391  39.001  17.113   5.396
 3656POPC   PO449392  39.496  16.709   5.178
 3656POPC   GL149393  39.498  16.671   5.733
 3656POPC   GL249394  39.190  16.718   5.994
 3656POPC   C1A49395  39.530  16.386   6.135
 3656POPC   D2A49396  39.605  16.244   6.598
 3656POPC   C3A49397  39.309  16.387   6.924
 3656POPC   C4A49398  39.268  16.743   7.211
 3656POPC   C1B49399  39.173  17.017   6.345
 3656POPC   C2B49400  39.146  16.982   6.788
 3656POPC   C3B49401  38.863  17.128   7.133
 3656POPC   C4B49402  38.815  17.285   7.605
 3657POPC   NC349403  32.945   6.072   5.490
 3657POPC   PO449404  33.477   5.630   5.549
 3657POPC   GL149405  33.278   5.764   5.971
 3657POPC   GL249406  33.065   6.066   5.965
 3657POPC   C1A49407  33.035   5.801   6.401
 3657POPC   D2A49408  33.034   5.818   6.901
 3657POPC   C3A49409  32.730   5.626   7.202
 3657POPC   C4A49410  32.655   5.513   7.672
 3657POPC   C1B49411  33.270   6.279   6.253
 3657POPC   C2B49412  33.079   6.265   6.624
 3657POPC   C3B49413  33.176   6.330   7.005
 3657POPC   C4B49414  32.858   6.193   7.245
 3658POPC   NC349415  42.114  43.000   5.468
 3658POPC   PO449416  42.801  42.885   5.497
 3658POPC   GL149417  42.528  43.098   5.815
 3658POPC   GL249418  42.189  42.946   5.954
 3658POPC   C1A49419  42.467  43.257   6.230
 3658POPC   D2A49420  42.381  43.039   6.603
 3658POPC   C3A49421  42.548  43.157   6.969
 3658POPC   C4A49422  42.287  42.970   7.245
 3658POPC   C1B49423  41.898  43.226   6.150
 3658POPC   C2B49424  41.955  43.325   6.585
 3658POPC   C3B49425  42.059  43.363   7.002
 3658POPC   C4B49426  41.839  43.409   7.371
 3659POPC   NC349427  44.428  41.553   5.327
 3659POPC   PO449428  44.753  42.212   5.409
 3659POPC   GL149429  44.637  41.892   5.790
 3659POPC   GL249430  44.634  41.514   5.796
 3659POPC   C1A49431  44.847  41.682   6.214
 3659POPC   D2A49432  44.820  41.401   6.597
 3659POPC   C3A49433  44.788  41.632   6.991
 3659POPC   C4A49434  44.434  41.858   7.211
 3659POPC   C1B49435  44.474  41.303   6.202
 3659POPC   C2B49436  44.270  41.353   6.625
 3659POPC   C3B49437  44.363  41.352   7.087
 3659POPC   C4B49438  44.715  41.322   7.399
 3660POPC   NC349439   8.316  31.929   5.313
 3660POPC   PO449440   7.781  32.433   5.387
 3660POPC   GL149441   8.006  32.430   5.804
 3660POPC   GL249442   8.374  32.385   5.772
 3660POPC   C1A49443   7.886  32.354   6.262
 3660POPC   D2A49444   7.753  32.345   6.689
 3660POPC   C3A49445   7.995  32.397   7.073
 3660POPC   C4A49446   7.924  32.567   7.494
 3660POPC   C1B49447   8.380  32.194   6.213
 3660POPC   C2B49448   8.466  32.057   6.690
 3660POPC   C3B49449   8.422  32.035   7.174
 3660POPC   C4B49450   8.582  31.970   7.633
 3661POPC   NC349451  38.059  32.511   5.523
 3661POPC   PO449452  37.526  32.163   5.286
 3661POPC   GL149453  37.543  32.357   5.694
 3661POPC   GL249454  37.479  32.030   5.857
 3661POPC   C1A49455  37.720  32.437   6.125
 3661POPC   D2A49456  37.681  32.173   6.503
 3661POPC   C3A49457  37.917  32.293   6.866
 3661POPC   C4A49458  37.858  32.391   7.284
 3661POPC   C1B49459  37.398  31.798   6.243
 3661POPC   C2B49460  37.573  31.695   6.651
 3661POPC   C3B49461  37.767  31.839   7.060
 3661POPC   C4B49462  38.167  31.904   7.346
 3662POPC   NC349463  39.358  18.040   5.283
 3662POPC   PO449464  39.549  18.634   5.569
 3662POPC   GL149465  39.255  18.475   5.861
 3662POPC   GL249466  39.044  18.324   5.626
 3662POPC   C1A49467  39.178  18.426   6.316
 3662POPC   D2A49468  39.431  18.674   6.586
 3662POPC   C3A49469  39.575  18.451   6.926
 3662POPC   C4A49470  39.440  18.379   7.342
 3662POPC   C1B49471  38.995  18.032   5.995
 3662POPC   C2B49472  39.083  17.890   6.429
 3662POPC   C3B49473  39.143  18.153   6.805
 3662POPC   C4B49474  39.035  18.084   7.226
 3663POPC   NC349475  42.870  43.412   5.547
 3663POPC   PO449476  43.502  43.115   5.450
 3663POPC   GL149477  43.201  43.111   5.804
 3663POPC   GL249478  43.033  42.803   5.952
 3663POPC   C1A49479  42.987  43.279   6.170
 3663POPC   D2A49480  42.897  43.101   6.556
 3663POPC   C3A49481  43.066  43.347   6.882
 3663POPC   C4A49482  42.947  43.325   7.279
 3663POPC   C1B49483  43.346  42.639   6.267
 3663POPC   C2B49484  43.444  42.753   6.690
 3663POPC   C3B49485  43.285  42.752   7.128
 3663POPC   C4B49486  43.182  42.903   7.552
 3664POPC   NC349487  37.826  29.462   5.612
 3664POPC   PO449488  37.814  28.839   5.364
 3664POPC   GL149489  37.552  28.986   5.752
 3664POPC   GL249490  37.180  29.063   5.708
 3664POPC   C1A49491  37.491  28.913   6.231
 3664POPC   D2A49492  37.698  28.845   6.650
 3664POPC   C3A49493  37.449  28.950   7.018
 3664POPC   C4A49494  37.582  29.001   7.441
 3664POPC   C1B49495  37.275  29.352   6.075
 3664POPC   C2B49496  37.313  29.377   6.526
 3664POPC   C3B49497  37.654  29.412   6.800
 3664POPC   C4B49498  37.564  29.445   7.212
 3665POPC   NC349499  29.318   1.400   5.356
 3665POPC   PO449500  29.017   0.822   5.491
 3665POPC   GL149501  29.098   1.168   5.798
 3665POPC   GL249502  29.418   1.311   5.863
 3665POPC   C1A49503  29.023   1.412   6.196
 3665POPC   D2A49504  29.086   1.302   6.624
 3665POPC   C3A49505  28.911   1.377   7.036
 3665POPC   C4A49506  28.944   1.253   7.458
 3665POPC   C1B49507  29.460   1.011   6.193
 3665POPC   C2B49508  29.354   0.850   6.591
 3665POPC   C3B49509  29.286   1.005   6.998
 3665POPC   C4B49510  29.423   1.347   7.277
 3666POPC   NC349511  25.717  12.201   5.417
 3666POPC   PO449512  25.288  11.793   4.989
 3666POPC   GL149513  25.258  11.837   5.549
 3666POPC   GL249514  25.313  12.179   5.778
 3666POPC   C1A49515  25.232  11.767   6.070
 3666POPC   D2A49516  25.087  11.948   6.500
 3666POPC   C3A49517  24.995  11.791   6.885
 3666POPC   C4A49518  25.221  11.607   7.207
 3666POPC   C1B49519  25.260  12.364   6.247
 3666POPC   C2B49520  25.289  12.356   6.730
 3666POPC   C3B49521  25.321  12.127   7.126
 3666POPC   C4B49522  25.185  12.278   7.509
 3667POPC   NC349523   7.488  34.987   5.474
 3667POPC   PO449524   7.388  34.277   5.283
 3667POPC   GL149525   7.320  34.520   5.700
 3667POPC   GL249526   7.659  34.655   5.813
 3667POPC   C1A49527   7.349  34.488   6.194
 3667POPC   D2A49528   7.503  34.250   6.577
 3667POPC   C3A49529   7.386  34.344   7.031
 3667POPC   C4A49530   6.953  34.206   7.154
 3667POPC   C1B49531   7.566  34.964   6.152
 3667POPC   C2B49532   7.687  34.928   6.604
 3667POPC   C3B49533   7.629  34.911   7.070
 3667POPC   C4B49534   7.248  34.909   7.352
 3668POPC   NC349535  18.150  44.504   5.227
 3668POPC   PO449536  18.063   0.140   5.287
 3668POPC   GL149537  18.204   0.003   5.709
 3668POPC   GL249538  18.060   0.230   5.940
 3668POPC   C1A49539  18.095  44.677   6.054
 3668POPC   D2A49540  18.210  44.384   6.414
 3668POPC   C3A49541  18.138  44.457   6.870
 3668POPC   C4A49542  18.445  44.584   7.178
 3668POPC   C1B49543  18.303   0.071   6.295
 3668POPC   C2B49544  18.169  44.945   6.689
 3668POPC   C3B49545  18.302   0.077   7.077
 3668POPC   C4B49546  18.340  44.974   7.497
 3669POPC   NC349547  37.555  31.033   5.628
 3669POPC   PO449548  37.895  30.494   5.471
 3669POPC   GL149549  37.767  30.651   5.910
 3669POPC   GL249550  37.812  30.994   6.058
 3669POPC   C1A49551  37.901  30.468   6.322
 3669POPC   D2A49552  38.161  30.315   6.644
 3669POPC   C3A49553  38.115  30.508   7.048
 3669POPC   C4A49554  37.759  30.504   7.331
 3669POPC   C1B49555  37.505  30.781   6.350
 3669POPC   C2B49556  37.665  30.695   6.776
 3669POPC   C3B49557  37.679  30.963   7.131
 3669POPC   C4B49558  37.648  30.961   7.608
 3670POPC   NC349559  23.537  23.583   5.644
 3670POPC   PO449560  24.154  23.775   5.436
 3670POPC   GL149561  23.930  23.828   5.837
 3670POPC   GL249562  23.897  24.154   5.821
 3670POPC   C1A49563  23.838  23.619   6.265
 3670POPC   D2A49564  23.945  23.465   6.707
 3670POPC   C3A49565  23.722  23.358   7.113
 3670POPC   C4A49566  23.586  23.571   7.515
 3670POPC   C1B49567  23.716  24.108   6.225
 3670POPC   C2B49568  23.998  23.974   6.604
 3670POPC   C3B49569  23.886  23.861   7.041
 3670POPC   C4B49570  24.205  24.017   7.325
 3671POPC   NC349571  11.091  26.119   5.232
 3671POPC   PO449572  11.676  26.411   5.399
 3671POPC   GL149573  11.336  26.222   5.670
 3671POPC   GL249574  11.240  25.841   5.746
 3671POPC   C1A49575  11.185  26.196   6.095
 3671POPC   D2A49576  11.375  26.112   6.498
 3671POPC   C3A49577  11.313  26.085   6.946
 3671POPC   C4A49578  11.533  26.081   7.344
 3671POPC   C1B49579  11.267  25.680   6.203
 3671POPC   C2B49580  11.353  25.600   6.672
 3671POPC   C3B49581  11.473  25.494   7.098
 3671POPC   C4B49582  11.291  25.629   7.495
 3672POPC   NC349583  40.875   3.979   5.436
 3672POPC   PO449584  40.504   4.605   5.513
 3672POPC   GL149585  40.643   4.285   5.870
 3672POPC   GL249586  40.987   4.119   5.898
 3672POPC   C1A49587  40.720   4.320   6.334
 3672POPC   D2A49588  40.684   4.586   6.694
 3672POPC   C3A49589  40.683   4.451   7.131
 3672POPC   C4A49590  40.449   4.111   7.251
 3672POPC   C1B49591  41.187   4.141   6.258
 3672POPC   C2B49592  41.102   4.151   6.661
 3672POPC   C3B49593  41.037   4.084   7.055
 3672POPC   C4B49594  40.894   3.942   7.393
 3673POPC   NC349595  26.400  15.193   5.430
 3673POPC   PO449596  25.825  14.854   5.629
 3673POPC   GL149597  26.201  15.058   5.881
 3673POPC   GL249598  26.066  15.344   6.028
 3673POPC   C1A49599  26.446  15.105   6.274
 3673POPC   D2A49600  26.239  15.299   6.611
 3673POPC   C3A49601  26.225  15.117   7.034
 3673POPC   C4A49602  26.070  15.300   7.404
 3673POPC   C1B49603  25.896  14.995   6.300
 3673POPC   C2B49604  25.760  15.001   6.743
 3673POPC   C3B49605  25.729  14.942   7.184
 3673POPC   C4B49606  25.656  14.623   7.515
 3674POPC   NC349607  43.019  29.387   5.395
 3674POPC   PO449608  43.353  28.775   5.433
 3674POPC   GL149609  43.275  28.931   5.789
 3674POPC   GL249610  43.356  29.282   5.809
 3674POPC   C1A49611  43.057  28.970   6.172
 3674POPC   D2A49612  43.098  29.335   6.438
 3674POPC   C3A49613  43.014  29.307   6.870
 3674POPC   C4A49614  43.248  29.404   7.224
 3674POPC   C1B49615  43.562  29.090   6.194
 3674POPC   C2B49616  43.380  28.927   6.593
 3674POPC   C3B49617  43.387  28.950   7.067
 3674POPC   C4B49618  43.370  28.713   7.467
 3675POPC   NC349619  20.103  28.380   5.291
 3675POPC   PO449620  19.497  28.590   5.425
 3675POPC   GL149621  19.830  28.578   5.706
 3675POPC   GL249622  19.843  28.249   5.787
 3675POPC   C1A49623  19.856  28.561   6.175
 3675POPC   D2A49624  20.041  28.643   6.588
 3675POPC   C3A49625  19.747  28.712   6.940
 3675POPC   C4A49626  19.944  28.593   7.333
 3675POPC   C1B49627  19.906  28.027   6.176
 3675POPC   C2B49628  19.776  27.861   6.582
 3675POPC   C3B49629  19.991  27.904   6.964
 3675POPC   C4B49630  19.997  28.077   7.303
 3676POPC   NC349631   7.338  42.498   5.480
 3676POPC   PO449632   7.800  42.059   5.378
 3676POPC   GL149633   7.467  42.092   5.750
 3676POPC   GL249634   7.122  42.259   5.862
 3676POPC   C1A49635   7.417  41.995   6.188
 3676POPC   D2A49636   7.493  42.091   6.599
 3676POPC   C3A49637   7.254  42.137   6.965
 3676POPC   C4A49638   7.425  42.266   7.396
 3676POPC   C1B49639   6.902  42.649   6.049
 3676POPC   C2B49640   6.756  42.669   6.458
 3676POPC   C3B49641   6.793  42.530   6.877
 3676POPC   C4B49642   7.065  42.537   7.195
 3677POPC   NC349643  10.807  11.897   5.363
 3677POPC   PO449644  10.148  12.032   5.386
 3677POPC   GL149645  10.426  12.043   5.782
 3677POPC   GL249646  10.783  12.156   5.808
 3677POPC   C1A49647  10.533  11.912   6.229
 3677POPC   D2A49648  10.418  11.810   6.676
 3677POPC   C3A49649  10.451  12.050   7.071
 3677POPC   C4A49650  10.569  12.471   7.165
 3677POPC   C1B49651  11.048  12.039   6.191
 3677POPC   C2B49652  11.129  11.884   6.610
 3677POPC   C3B49653  10.888  11.795   6.985
 3677POPC   C4B49654  10.836  11.872   7.445
 3678POPC   NC349655  26.376  29.216   5.191
 3678POPC   PO449656  25.774  29.382   5.266
 3678POPC   GL149657  26.063  29.255   5.669
 3678POPC   GL249658  25.797  29.195   5.885
 3678POPC   C1A49659  26.241  29.205   6.155
 3678POPC   D2A49660  26.176  29.087   6.624
 3678POPC   C3A49661  26.271  29.266   7.021
 3678POPC   C4A49662  26.230  29.238   7.472
 3678POPC   C1B49663  25.736  29.101   6.316
 3678POPC   C2B49664  25.708  29.278   6.723
 3678POPC   C3B49665  25.795  29.109   7.131
 3678POPC   C4B49666  25.661  28.921   7.543
 3679POPC   NC349667  20.616  43.443   5.418
 3679POPC   PO449668  20.087  43.037   5.368
 3679POPC   GL149669  20.392  43.057   5.715
 3679POPC   GL249670  20.730  42.874   5.735
 3679POPC   C1A49671  20.468  43.076   6.167
 3679POPC   D2A49672  20.323  43.047   6.583
 3679POPC   C3A49673  20.318  43.308   6.928
 3679POPC   C4A49674  20.271  43.135   7.334
 3679POPC   C1B49675  20.978  42.982   6.132
 3679POPC   C2B49676  20.873  43.129   6.549
 3679POPC   C3B49677  20.733  43.006   6.950
 3679POPC   C4B49678  20.760  43.146   7.429
 3680POPC   NC349679  35.577  38.754   5.415
 3680POPC   PO449680  35.145  38.375   5.173
 3680POPC   GL149681  35.213  38.384   5.643
 3680POPC   GL249682  34.925  38.163   5.709
 3680POPC   C1A49683  35.473  38.536   6.054
 3680POPC   D2A49684  35.672  38.730   6.444
 3680POPC   C3A49685  35.624  38.557   6.852
 3680POPC   C4A49686  35.602  38.452   7.273
 3680POPC   C1B49687  34.981  38.356   6.124
 3680POPC   C2B49688  34.866  38.375   6.565
 3680POPC   C3B49689  35.069  38.440   6.957
 3680POPC   C4B49690  35.115  38.186   7.326
 3681POPC   NC349691  20.230  23.608   5.400
 3681POPC   PO449692  20.804  23.857   5.315
 3681POPC   GL149693  20.624  23.711   5.724
 3681POPC   GL249694  20.844  23.483   5.877
 3681POPC   C1A49695  20.396  23.637   6.155
 3681POPC   D2A49696  20.511  23.555   6.619
 3681POPC   C3A49697  20.278  23.738   6.993
 3681POPC   C4A49698  20.396  23.967   7.404
 3681POPC   C1B49699  20.912  23.686   6.282
 3681POPC   C2B49700  20.979  23.757   6.733
 3681POPC   C3B49701  20.755  23.571   7.096
 3681POPC   C4B49702  20.683  23.574   7.528
 3682POPC   NC349703  31.028  18.154   5.576
 3682POPC   PO449704  30.487  18.471   5.445
 3682POPC   GL149705  30.492  18.359   5.876
 3682POPC   GL249706  30.631  18.026   5.902
 3682POPC   C1A49707  30.622  18.301   6.346
 3682POPC   D2A49708  30.641  18.274   6.805
 3682POPC   C3A49709  30.927  18.425   7.069
 3682POPC   C4A49710  30.616  18.203   7.339
 3682POPC   C1B49711  30.999  17.989   6.218
 3682POPC   C2B49712  31.100  18.140   6.646
 3682POPC   C3B49713  31.040  17.947   7.079
 3682POPC   C4B49714  31.089  18.178   7.512
 3683POPC   NC349715  14.231  24.850   5.458
 3683POPC   PO449716  14.490  25.453   5.258
 3683POPC   GL149717  14.443  25.462   5.702
 3683POPC   GL249718  14.732  25.592   5.852
 3683POPC   C1A49719  14.184  25.376   6.059
 3683POPC   D2A49720  14.122  25.438   6.509
 3683POPC   C3A49721  14.484  25.312   6.775
 3683POPC   C4A49722  14.357  25.171   7.169
 3683POPC   C1B49723  14.559  25.662   6.261
 3683POPC   C2B49724  14.434  25.810   6.659
 3683POPC   C3B49725  14.288  25.695   7.059
 3683POPC   C4B49726  14.595  25.641   7.375
 3684POPC   NC349727  37.076  42.570   5.206
 3684POPC   PO449728  37.328  42.038   5.509
 3684POPC   GL149729  36.900  41.994   5.720
 3684POPC   GL249730  36.905  42.340   5.852
 3684POPC   C1A49731  36.656  42.006   6.139
 3684POPC   D2A49732  36.802  42.245   6.527
 3684POPC   C3A49733  37.022  42.187   6.944
 3684POPC   C4A49734  36.738  42.063   7.232
 3684POPC   C1B49735  37.066  42.585   6.220
 3684POPC   C2B49736  36.861  42.743   6.608
 3684POPC   C3B49737  36.761  42.630   7.038
 3684POPC   C4B49738  36.818  42.532   7.497
 3685POPC   NC349739   1.314  39.769   5.206
 3685POPC   PO449740   0.914  40.267   5.368
 3685POPC   GL149741   1.217  40.038   5.644
 3685POPC   GL249742   1.063  39.690   5.693
 3685POPC   C1A49743   1.362  39.927   6.070
 3685POPC   D2A49744   1.146  39.756   6.445
 3685POPC   C3A49745   1.369  39.828   6.836
 3685POPC   C4A49746   1.375  40.054   7.192
 3685POPC   C1B49747   0.869  40.005   6.015
 3685POPC   C2B49748   1.050  40.255   6.383
 3685POPC   C3B49749   0.979  40.168   6.819
 3685POPC   C4B49750   0.749  40.065   7.199
 3686POPC   NC349751   1.712  15.458   5.472
 3686POPC   PO449752   2.249  15.018   5.358
 3686POPC   GL149753   2.118  14.976   5.778
 3686POPC   GL249754   1.768  15.080   5.856
 3686POPC   C1A49755   2.181  15.132   6.206
 3686POPC   D2A49756   2.048  15.155   6.630
 3686POPC   C3A49757   2.247  15.140   7.043
 3686POPC   C4A49758   2.137  15.275   7.451
 3686POPC   C1B49759   1.684  15.376   6.232
 3686POPC   C2B49760   1.641  15.435   6.709
 3686POPC   C3B49761   1.749  15.312   7.120
 3686POPC   C4B49762   1.602  15.288   7.546
 3687POPC   NC349763  35.436  28.875   5.652
 3687POPC   PO449764  35.199  29.558   5.626
 3687POPC   GL149765  35.325  29.253   5.951
 3687POPC   GL249766  35.693  29.215   5.926
 3687POPC   C1A49767  35.467  29.031   6.337
 3687POPC   D2A49768  35.624  28.971   6.744
 3687POPC   C3A49769  35.295  28.961   7.037
 3687POPC   C4A49770  35.326  29.154   7.414
 3687POPC   C1B49771  35.916  29.312   6.325
 3687POPC   C2B49772  35.908  29.473   6.742
 3687POPC   C3B49773  35.710  29.346   7.128
 3687POPC   C4B49774  35.851  29.185   7.541
 3688POPC   NC349775  27.225  26.976   5.577
 3688POPC   PO449776  27.913  26.817   5.339
 3688POPC   GL149777  27.656  26.721   5.719
 3688POPC   GL249778  27.658  27.047   5.880
 3688POPC   C1A49779  27.382  26.623   6.116
 3688POPC   D2A49780  27.474  26.454   6.551
 3688POPC   C3A49781  27.635  26.557   6.981
 3688POPC   C4A49782  28.076  26.597   7.111
 3688POPC   C1B49783  27.872  26.817   6.243
 3688POPC   C2B49784  27.905  26.916   6.704
 3688POPC   C3B49785  27.739  27.031   7.133
 3688POPC   C4B49786  27.466  27.118   7.534
 3689POPC   NC349787  21.829  44.823   5.582
 3689POPC   PO449788  22.338  44.559   5.206
 3689POPC   GL149789  22.323  44.682   5.690
 3689POPC   GL249790  22.152  44.444   5.935
 3689POPC   C1A49791  22.281  44.889   6.126
 3689POPC   D2A49792  22.017  44.788   6.483
 3689POPC   C3A49793  22.237  44.740   6.858
 3689POPC   C4A49794  22.174  44.719   7.293
 3689POPC   C1B49795  21.887  44.273   6.240
 3689POPC   C2B49796  21.931  44.302   6.671
 3689POPC   C3B49797  21.803  44.531   7.021
 3689POPC   C4B49798  21.739  44.290   7.400
 3690POPC   NC349799  19.352  29.845   5.710
 3690POPC   PO449800  18.945  30.304   5.490
 3690POPC   GL149801  18.891  30.113   5.908
 3690POPC   GL249802  18.865  29.762   5.890
 3690POPC   C1A49803  18.952  30.127   6.380
 3690POPC   D2A49804  18.726  29.963   6.747
 3690POPC   C3A49805  18.991  29.906   7.062
 3690POPC   C4A49806  19.391  30.116   7.125
 3690POPC   C1B49807  18.983  29.610   6.274
 3690POPC   C2B49808  19.160  29.633   6.649
 3690POPC   C3B49809  19.359  29.570   7.020
 3690POPC   C4B49810  19.160  29.509   7.407
 3691POPC   NC349811  18.616  13.700   5.020
 3691POPC   PO449812  18.002  13.709   5.365
 3691POPC   GL149813  18.041  13.616   5.798
 3691POPC   GL249814  18.352  13.801   5.841
 3691POPC   C1A49815  18.140  13.576   6.234
 3691POPC   D2A49816  18.367  13.592   6.597
 3691POPC   C3A49817  18.137  13.674   6.950
 3691POPC   C4A49818  18.097  13.340   7.210
 3691POPC   C1B49819  18.623  13.812   6.206
 3691POPC   C2B49820  18.828  13.824   6.618
 3691POPC   C3B49821  18.688  13.625   7.001
 3691POPC   C4B49822  18.442  13.710   7.382
 3692POPC   NC349823  18.041  25.293   5.405
 3692POPC   PO449824  18.482  24.846   5.337
 3692POPC   GL149825  18.454  25.220   5.704
 3692POPC   GL249826  18.082  25.339   5.897
 3692POPC   C1A49827  18.508  25.371   6.145
 3692POPC   D2A49828  18.146  25.325   6.453
 3692POPC   C3A49829  18.210  25.456   6.874
 3692POPC   C4A49830  18.505  25.357   7.180
 3692POPC   C1B49831  17.778  25.068   6.126
 3692POPC   C2B49832  17.755  24.947   6.568
 3692POPC   C3B49833  17.887  25.039   6.999
 3692POPC   C4B49834  17.840  25.396   7.255
 3693POPC   NC349835  41.891  41.447   5.538
 3693POPC   PO449836  41.308  41.655   5.197
 3693POPC   GL149837  41.305  41.486   5.685
 3693POPC   GL249838  41.235  41.100   5.695
 3693POPC   C1A49839  41.391  41.671   6.154
 3693POPC   D2A49840  41.654  41.781   6.534
 3693POPC   C3A49841  41.393  41.742   6.916
 3693POPC   C4A49842  41.515  41.720   7.339
 3693POPC   C1B49843  41.346  41.175   6.127
 3693POPC   C2B49844  41.375  41.335   6.541
 3693POPC   C3B49845  41.320  41.236   6.964
 3693POPC   C4B49846  41.497  41.215   7.373
 3694POPC   NC349847   4.047   6.547   5.390
 3694POPC   PO449848   4.715   6.786   5.374
 3694POPC   GL149849   4.515   6.702   5.765
 3694POPC   GL249850   4.220   6.891   5.749
 3694POPC   C1A49851   4.274   6.477   6.075
 3694POPC   D2A49852   4.097   6.376   6.482
 3694POPC   C3A49853   4.171   6.525   6.906
 3694POPC   C4A49854   4.407   6.436   7.276
 3694POPC   C1B49855   4.400   7.010   6.150
 3694POPC   C2B49856   4.341   6.888   6.565
 3694POPC   C3B49857   4.478   6.916   6.998
 3694POPC   C4B49858   4.285   6.926   7.409
 3695POPC   NC349859   4.387  19.558   5.472
 3695POPC   PO449860   4.595  20.177   5.435
 3695POPC   GL149861   4.477  19.992   5.854
 3695POPC   GL249862   4.581  19.657   5.928
 3695POPC   C1A49863   4.246  19.856   6.271
 3695POPC   D2A49864   4.247  19.718   6.717
 3695POPC   C3A49865   4.110  20.044   7.018
 3695POPC   C4A49866   4.372  20.406   7.138
 3695POPC   C1B49867   4.641  19.411   6.289
 3695POPC   C2B49868   4.541  19.282   6.687
 3695POPC   C3B49869   4.736  19.383   7.078
 3695POPC   C4B49870   4.500  19.743   7.173
 3696POPC   NC349871   4.899  31.813   5.571
 3696POPC   PO449872   5.140  31.272   5.391
 3696POPC   GL149873   4.926  31.277   5.790
 3696POPC   GL249874   5.121  30.990   5.859
 3696POPC   C1A49875   4.807  31.522   6.194
 3696POPC   D2A49876   4.942  31.662   6.629
 3696POPC   C3A49877   4.923  31.465   7.064
 3696POPC   C4A49878   4.952  31.278   7.509
 3696POPC   C1B49879   5.178  31.174   6.264
 3696POPC   C2B49880   5.384  31.360   6.609
 3696POPC   C3B49881   5.378  31.251   7.031
 3696POPC   C4B49882   5.461  31.379   7.467
 3697POPC   NC349883  22.405  33.178   5.529
 3697POPC   PO449884  21.801  32.854   5.342
 3697POPC   GL149885  21.971  32.925   5.757
 3697POPC   GL249886  22.109  32.632   5.922
 3697POPC   C1A49887  21.966  33.041   6.203
 3697POPC   D2A49888  21.876  33.225   6.599
 3697POPC   C3A49889  21.940  33.074   7.035
 3697POPC   C4A49890  22.271  33.205   7.325
 3697POPC   C1B49891  22.428  32.804   6.196
 3697POPC   C2B49892  22.434  33.056   6.562
 3697POPC   C3B49893  22.593  32.991   6.973
 3697POPC   C4B49894  22.293  32.735   7.149
 3698POPC   NC349895  29.582  43.338   4.985
 3698POPC   PO449896  29.930  43.084   5.490
 3698POPC   GL149897  29.974  42.888   5.866
 3698POPC   GL249898  30.283  43.032   5.873
 3698POPC   C1A49899  29.760  43.002   6.230
 3698POPC   D2A49900  29.678  43.307   6.556
 3698POPC   C3A49901  29.785  43.070   6.900
 3698POPC   C4A49902  29.632  42.955   7.249
 3698POPC   C1B49903  30.214  43.245   6.218
 3698POPC   C2B49904  30.174  43.041   6.578
 3698POPC   C3B49905  30.303  43.196   6.956
 3698POPC   C4B49906  30.124  43.050   7.320
 3699POPC   NC349907  28.223  13.536   5.142
 3699POPC   PO449908  28.508  13.319   5.681
 3699POPC   GL149909  28.339  13.732   5.803
 3699POPC   GL249910  28.022  13.897   5.692
 3699POPC   C1A49911  28.344  13.833   6.237
 3699POPC   D2A49912  28.499  13.903   6.649
 3699POPC   C3A49913  28.302  13.662   6.995
 3699POPC   C4A49914  28.273  13.444   7.388
 3699POPC   C1B49915  27.923  14.103   6.104
 3699POPC   C2B49916  27.968  14.301   6.512
 3699POPC   C3B49917  28.059  14.111   6.891
 3699POPC   C4B49918  28.005  13.996   7.311
 3700POPC   NC349919  39.564   6.388   5.265
 3700POPC   PO449920  39.566   7.057   5.438
 3700POPC   GL149921  39.576   6.720   5.692
 3700POPC   GL249922  39.255   6.560   5.683
 3700POPC   C1A49923  39.532   6.578   6.116
 3700POPC   D2A49924  39.246   6.720   6.448
 3700POPC   C3A49925  39.284   6.605   6.887
 3700POPC   C4A49926  39.046   6.799   7.225
 3700POPC   C1B49927  39.049   6.370   6.060
 3700POPC   C2B49928  38.887   6.343   6.503
 3700POPC   C3B49929  38.884   6.268   6.957
 3700POPC   C4B49930  38.725   6.420   7.334
 3701POPC   NC349931  38.773  18.723   5.296
 3701POPC   PO449932  38.080  18.911   5.388
 3701POPC   GL149933  38.373  18.987   5.768
 3701POPC   GL249934  38.559  19.334   5.735
 3701POPC   C1A49935  38.376  18.831   6.222
 3701POPC   D2A49936  38.620  18.716   6.575
 3701POPC   C3A49937  38.568  18.878   7.000
 3701POPC   C4A49938  38.866  19.079   7.257
 3701POPC   C1B49939  38.480  19.334   6.187
 3701POPC   C2B49940  38.536  19.242   6.625
 3701POPC   C3B49941  38.474  19.396   7.051
 3701POPC   C4B49942  38.073  19.392   7.244
 3702POPC   NC349943  23.317  29.302   5.267
 3702POPC   PO449944  22.871  28.972   5.553
 3702POPC   GL149945  22.803  29.158   5.890
 3702POPC   GL249946  22.974  29.482   5.752
 3702POPC   C1A49947  22.671  29.117   6.332
 3702POPC   D2A49948  22.645  29.452   6.666
 3702POPC   C3A49949  22.728  29.252   7.078
 3702POPC   C4A49950  22.797  28.816   7.223
 3702POPC   C1B49951  22.921  29.536   6.197
 3702POPC   C2B49952  23.128  29.366   6.584
 3702POPC   C3B49953  23.221  29.349   7.007
 3702POPC   C4B49954  23.069  29.378   7.446
 3703POPC   NC349955  12.447  25.418   5.599
 3703POPC   PO449956  12.795  24.881   5.362
 3703POPC   GL149957  12.809  25.033   5.786
 3703POPC   GL249958  12.692  24.731   5.845
 3703POPC   C1A49959  12.932  25.098   6.257
 3703POPC   D2A49960  12.905  25.373   6.666
 3703POPC   C3A49961  12.978  25.197   7.086
 3703POPC   C4A49962  13.021  25.150   7.560
 3703POPC   C1B49963  12.539  24.730   6.252
 3703POPC   C2B49964  12.624  24.949   6.634
 3703POPC   C3B49965  12.476  25.076   7.016
 3703POPC   C4B49966  12.695  24.839   7.295
 3704POPC   NC349967   5.975   0.771   5.326
 3704POPC   PO449968   5.484   0.341   5.382
 3704POPC   GL149969   5.763   0.288   5.785
 3704POPC   GL249970   5.839   0.625   5.853
 3704POPC   C1A49971   6.001   0.294   6.233
 3704POPC   D2A49972   5.919   0.529   6.638
 3704POPC   C3A49973   6.146   0.530   7.009
 3704POPC   C4A49974   6.030   0.346   7.417
 3704POPC   C1B49975   5.552   0.482   6.230
 3704POPC   C2B49976   5.451   0.349   6.647
 3704POPC   C3B49977   5.608   0.396   7.120
 3704POPC   C4B49978   5.569   0.173   7.540
 3705POPC   NC349979  32.170  41.617   5.513
 3705POPC   PO449980  32.672  41.148   5.651
 3705POPC   GL149981  32.425  41.376   5.882
 3705POPC   GL249982  32.511  41.719   5.919
 3705POPC   C1A49983  32.283  41.389   6.272
 3705POPC   D2A49984  32.290  41.620   6.599
 3705POPC   C3A49985  32.337  41.450   6.955
 3705POPC   C4A49986  32.580  41.793   7.156
 3705POPC   C1B49987  32.430  42.009   6.271
 3705POPC   C2B49988  32.043  42.054   6.503
 3705POPC   C3B49989  31.857  41.781   6.858
 3705POPC   C4B49990  32.082  41.712   7.295
 3706POPC   NC349991  14.535  25.875   5.400
 3706POPC   PO449992  14.435  26.531   5.494
 3706POPC   GL149993  14.601  26.259   5.851
 3706POPC   GL249994  14.378  25.964   5.892
 3706POPC   C1A49995  14.494  26.211   6.317
 3706POPC   D2A49996  14.324  26.286   6.748
 3706POPC   C3A49997  14.563  26.136   7.124
 3706POPC   C4A49998  14.579  26.322   7.563
 3706POPC   C1B49999  14.087  25.904   6.261
 3706POPC   C2B50000  13.923  25.910   6.703
 3706POPC   C3B50001  13.973  26.104   7.115
 3706POPC   C4B50002  14.222  25.987   7.484
 3707POPC   NC350003  23.846  24.167   5.314
 3707POPC   PO450004  23.470  24.771   5.457
 3707POPC   GL150005  23.539  24.525   5.864
 3707POPC   GL250006  23.869  24.654   5.935
 3707POPC   C1A50007  23.282  24.488   6.287
 3707POPC   D2A50008  23.291  24.744   6.708
 3707POPC   C3A50009  23.542  24.602   7.092
 3707POPC   C4A50010  23.526  24.145   7.299
 3707POPC   C1B50011  23.756  24.598   6.348
 3707POPC   C2B50012  23.683  24.356   6.679
 3707POPC   C3B50013  23.965  24.354   7.014
 3707POPC   C4B50014  24.033  24.775   7.177
 3708POPC   NC350015  18.304   9.818   5.368
 3708POPC   PO450016  18.839   9.744   5.518
 3708POPC   GL150017  18.491   9.719   5.859
 3708POPC   GL250018  18.167   9.928   5.873
 3708POPC   C1A50019  18.260   9.598   6.266
 3708POPC   D2A50020  17.994   9.547   6.660
 3708POPC   C3A50021  18.197   9.617   7.092
 3708POPC   C4A50022  18.104   9.986   7.372
 3708POPC   C1B50023  18.122  10.091   6.329
 3708POPC   C2B50024  18.212   9.996   6.771
 3708POPC   C3B50025  18.540  10.016   7.121
 3708POPC   C4B50026  18.711  10.141   7.558
 3709POPC   NC350027  25.387   3.447   5.473
 3709POPC   PO450028  24.870   3.748   5.474
 3709POPC   GL150029  25.029   3.530   5.843
 3709POPC   GL250030  24.993   3.205   5.694
 3709POPC   C1A50031  25.277   3.575   6.284
 3709POPC   D2A50032  25.344   3.839   6.708
 3709POPC   C3A50033  25.367   3.633   7.150
 3709POPC   C4A50034  25.563   3.404   7.514
 3709POPC   C1B50035  25.011   3.124   6.168
 3709POPC   C2B50036  25.096   3.182   6.625
 3709POPC   C3B50037  24.937   3.317   7.027
 3709POPC   C4B50038  25.039   3.300   7.485
 3710POPC   NC350039   3.211  15.865   5.537
 3710POPC   PO450040   3.744  15.985   5.082
 3710POPC   GL150041   3.724  15.821   5.534
 3710POPC   GL250042   3.708  16.082   5.764
 3710POPC   C1A50043   3.701  15.605   5.986
 3710POPC   D2A50044   3.743  15.568   6.473
 3710POPC   C3A50045   3.448  15.652   6.853
 3710POPC   C4A50046   3.473  15.785   7.303
 3710POPC   C1B50047   3.484  16.030   6.180
 3710POPC   C2B50048   3.256  16.063   6.593
 3710POPC   C3B50049   3.432  16.202   6.974
 3710POPC   C4B50050   3.753  16.230   7.257
 3711POPC   NC350051  19.686  43.265   5.534
 3711POPC   PO450052  19.384  42.686   5.549
 3711POPC   GL150053  19.542  42.918   5.911
 3711POPC   GL250054  19.889  42.893   5.812
 3711POPC   C1A50055  19.484  43.061   6.379
 3711POPC   D2A50056  19.825  43.293   6.655
 3711POPC   C3A50057  19.820  43.228   7.074
 3711POPC   C4A50058  19.654  42.840   7.185
 3711POPC   C1B50059  19.952  43.009   6.223
 3711POPC   C2B50060  19.882  42.773   6.616
 3711POPC   C3B50061  20.113  42.802   6.995
 3711POPC   C4B50062  20.053  42.697   7.480
 3712POPC   NC350063  29.651   6.548   5.094
 3712POPC   PO450064  30.124   6.435   5.605
 3712POPC   GL150065  30.175   6.678   5.925
 3712POPC   GL250066  29.835   6.760   5.911
 3712POPC   C1A50067  30.117   6.671   6.361
 3712POPC   D2A50068  29.865   6.672   6.712
 3712POPC   C3A50069  30.180   6.680   6.985
 3712POPC   C4A50070  30.234   6.370   7.283
 3712POPC   C1B50071  29.649   6.494   6.246
 3712POPC   C2B50072  29.601   6.218   6.599
 3712POPC   C3B50073  29.774   6.234   7.003
 3712POPC   C4B50074  29.754   6.596   7.245
 3713POPC   NC350075  32.015  38.374   5.415
 3713POPC   PO450076  32.615  38.327   5.254
 3713POPC   GL150077  32.453  38.467   5.683
 3713POPC   GL250078  32.549  38.802   5.787
 3713POPC   C1A50079  32.130  38.499   6.046
 3713POPC   D2A50080  31.849  38.683   6.366
 3713POPC   C3A50081  31.921  38.535   6.799
 3713POPC   C4A50082  32.049  38.298   7.143
 3713POPC   C1B50083  32.623  38.575   6.164
 3713POPC   C2B50084  32.356  38.629   6.515
 3713POPC   C3B50085  32.433  38.537   6.927
 3713POPC   C4B50086  32.676  38.759   7.167
 3714POPC   NC350087   6.576  31.205   5.174
 3714POPC   PO450088   6.456  30.624   5.549
 3714POPC   GL150089   6.483  30.759   5.899
 3714POPC   GL250090   6.759  30.914   5.882
 3714POPC   C1A50091   6.604  30.719   6.314
 3714POPC   D2A50092   6.869  30.603   6.590
 3714POPC   C3A50093   6.622  30.455   6.887
 3714POPC   C4A50094   6.401  30.318   7.224
 3714POPC   C1B50095   6.954  31.094   6.240
 3714POPC   C2B50096   7.057  31.084   6.655
 3714POPC   C3B50097   6.686  30.995   6.850
 3714POPC   C4B50098   6.580  30.830   7.203
 3715POPC   NC350099  41.540  22.582   5.547
 3715POPC   PO450100  41.698  23.277   5.424
 3715POPC   GL150101  41.714  23.178   5.898
 3715POPC   GL250102  41.756  22.822   5.953
 3715POPC   C1A50103  41.750  23.135   6.362
 3715POPC   D2A50104  41.380  23.153   6.617
 3715POPC   C3A50105  41.479  23.079   7.023
 3715POPC   C4A50106  41.373  22.819   7.297
 3715POPC   C1B50107  42.029  22.708   6.296
 3715POPC   C2B50108  41.983  22.847   6.740
 3715POPC   C3B50109  41.895  22.815   7.200
 3715POPC   C4B50110  41.767  23.116   7.531
 3716POPC   NC350111   1.223  19.286   5.224
 3716POPC   PO450112   1.659  18.855   5.560
 3716POPC   GL150113   1.409  19.113   5.837
 3716POPC   GL250114   1.245  18.788   5.960
 3716POPC   C1A50115   1.363  19.142   6.325
 3716POPC   D2A50116   1.301  18.712   6.486
 3716POPC   C3A50117   1.347  18.585   6.901
 3716POPC   C4A50118   1.183  18.746   7.289
 3716POPC   C1B50119   0.944  19.068   6.069
 3716POPC   C2B50120   0.849  19.124   6.488
 3716POPC   C3B50121   1.090  19.061   6.849
 3716POPC   C4B50122   0.969  19.221   7.235
 3717POPC   NC350123  18.162  19.526   5.400
 3717POPC   PO450124  18.516  20.128   5.430
 3717POPC   GL150125  18.528  20.002   5.837
 3717POPC   GL250126  18.178  19.906   5.870
 3717POPC   C1A50127  18.532  19.953   6.285
 3717POPC   D2A50128  18.457  19.644   6.634
 3717POPC   C3A50129  18.393  19.847   7.035
 3717POPC   C4A50130  18.384  20.210   7.324
 3717POPC   C1B50131  18.052  19.730   6.301
 3717POPC   C2B50132  17.951  19.734   6.776
 3717POPC   C3B50133  17.960  19.676   7.256
 3717POPC   C4B50134  17.871  19.465   7.684
 3718POPC   NC350135   9.483  43.891   5.490
 3718POPC   PO450136  10.183  44.154   5.490
 3718POPC   GL150137   9.990  43.863   5.809
 3718POPC   GL250138   9.647  43.748   5.937
 3718POPC   C1A50139   9.951  44.001   6.240
 3718POPC   D2A50140   9.966  44.107   6.641
 3718POPC   C3A50141   9.858  43.788   6.893
 3718POPC   C4A50142   9.887  43.877   7.287
 3718POPC   C1B50143   9.366  43.443   6.126
 3718POPC   C2B50144   9.233  43.352   6.533
 3718POPC   C3B50145   9.362  43.372   6.949
 3718POPC   C4B50146   9.419  43.722   7.184
 3719POPC   NC350147   9.536  19.924   5.269
 3719POPC   PO450148  10.124  19.736   5.335
 3719POPC   GL150149   9.905  19.940   5.696
 3719POPC   GL250150   9.576  20.119   5.730
 3719POPC   C1A50151   9.803  19.821   6.135
 3719POPC   D2A50152  10.002  19.673   6.525
 3719POPC   C3A50153   9.782  19.687   6.922
 3719POPC   C4A50154   9.916  19.761   7.331
 3719POPC   C1B50155   9.339  20.053   6.119
 3719POPC   C2B50156   9.276  20.006   6.567
 3719POPC   C3B50157   9.247  19.803   6.984
 3719POPC   C4B50158   9.426  19.777   7.392
 3720POPC   NC350159  42.664  16.787   5.352
 3720POPC   PO450160  42.086  16.536   5.158
 3720POPC   GL150161  42.215  16.645   5.614
 3720POPC   GL250162  42.519  16.455   5.732
 3720POPC   C1A50163  42.238  16.806   6.063
 3720POPC   D2A50164  42.015  16.925   6.465
 3720POPC   C3A50165  42.259  17.002   6.850
 3720POPC   C4A50166  42.258  16.824   7.278
 3720POPC   C1B50167  42.666  16.520   6.148
 3720POPC   C2B50168  42.453  16.630   6.528
 3720POPC   C3B50169  42.550  16.549   6.945
 3720POPC   C4B50170  42.734  16.707   7.369
 3721POPC   NC350171   6.961   1.909   5.360
 3721POPC   PO450172   6.279   1.770   5.257
 3721POPC   GL150173   6.380   2.004   5.692
 3721POPC   GL250174   6.742   2.173   5.757
 3721POPC   C1A50175   6.441   2.097   6.170
 3721POPC   D2A50176   6.611   2.049   6.599
 3721POPC   C3A50177   6.409   2.181   6.971
 3721POPC   C4A50178   6.224   1.881   7.223
 3721POPC   C1B50179   6.972   2.074   6.168
 3721POPC   C2B50180   7.102   2.154   6.579
 3721POPC   C3B50181   7.087   2.270   6.988
 3721POPC   C4B50182   6.832   2.067   7.235
 3722POPC   NC350183   2.018  32.378   5.516
 3722POPC   PO450184   2.064  31.659   5.559
 3722POPC   GL150185   1.823  31.981   5.780
 3722POPC   GL250186   2.094  32.157   5.981
 3722POPC   C1A50187   1.602  32.131   6.150
 3722POPC   D2A50188   1.808  32.158   6.557
 3722POPC   C3A50189   1.699  32.060   6.986
 3722POPC   C4A50190   1.947  32.089   7.400
 3722POPC   C1B50191   1.911  32.529   6.206
 3722POPC   C2B50192   1.895  32.661   6.639
 3722POPC   C3B50193   2.030  32.458   7.003
 3722POPC   C4B50194   2.356  32.438   7.350
 3723POPC   NC350195   7.060  37.058   5.406
 3723POPC   PO450196   6.423  36.822   5.462
 3723POPC   GL150197   6.573  36.662   5.841
 3723POPC   GL250198   6.895  36.800   5.874
 3723POPC   C1A50199   6.626  36.744   6.317
 3723POPC   D2A50200   6.406  37.014   6.627
 3723POPC   C3A50201   6.512  36.913   7.041
 3723POPC   C4A50202   6.387  36.929   7.466
 3723POPC   C1B50203   7.081  36.985   6.274
 3723POPC   C2B50204   6.921  37.030   6.698
 3723POPC   C3B50205   7.004  36.797   7.074
 3723POPC   C4B50206   6.910  36.851   7.492
 3724POPC   NC350207  43.784  28.826   5.580
 3724POPC   PO450208  43.676  28.349   5.081
 3724POPC   GL150209  43.751  28.274   5.570
 3724POPC   GL250210  44.020  28.409   5.778
 3724POPC   C1A50211  43.708  28.112   6.055
 3724POPC   D2A50212  43.847  27.962   6.487
 3724POPC   C3A50213  43.875  28.262   6.826
 3724POPC   C4A50214  43.935  28.191   7.249
 3724POPC   C1B50215  43.920  28.561   6.199
 3724POPC   C2B50216  43.986  28.894   6.459
 3724POPC   C3B50217  43.801  28.778   6.815
 3724POPC   C4B50218  43.810  28.676   7.213
 3725POPC   NC350219   8.223  30.918   5.284
 3725POPC   PO450220   8.162  31.546   5.126
 3725POPC   GL150221   8.020  31.606   5.565
 3725POPC   GL250222   7.867  31.951   5.599
 3725POPC   C1A50223   8.207  31.549   5.996
 3725POPC   D2A50224   8.200  31.235   6.363
 3725POPC   C3A50225   8.254  31.451   6.775
 3725POPC   C4A50226   8.295  31.315   7.196
 3725POPC   C1B50227   7.822  31.903   6.032
 3725POPC   C2B50228   8.053  31.845   6.420
 3725POPC   C3B50229   7.985  31.912   6.856
 3725POPC   C4B50230   7.980  31.733   7.227
 3726POPC   NC350231  22.785  42.815   5.123
 3726POPC   PO450232  22.898  42.213   5.482
 3726POPC   GL150233  22.704  42.435   5.822
 3726POPC   GL250234  23.015  42.439   6.001
 3726POPC   C1A50235  22.592  42.518   6.277
 3726POPC   D2A50236  22.732  42.445   6.709
 3726POPC   C3A50237  22.522  42.521   7.119
 3726POPC   C4A50238  22.655  42.664   7.563
 3726POPC   C1B50239  23.199  42.305   6.401
 3726POPC   C2B50240  23.305  41.961   6.697
 3726POPC   C3B50241  23.333  41.961   7.172
 3726POPC   C4B50242  23.156  41.919   7.619
 3727POPC   NC350243  21.914  23.390   5.490
 3727POPC   PO450244  21.968  22.716   5.554
 3727POPC   GL150245  22.035  22.778   5.972
 3727POPC   GL250246  22.333  22.611   5.943
 3727POPC   C1A50247  22.003  23.139   6.304
 3727POPC   D2A50248  21.804  23.125   6.735
 3727POPC   C3A50249  22.045  23.059   7.100
 3727POPC   C4A50250  21.970  23.191   7.474
 3727POPC   C1B50251  22.399  22.775   6.349
 3727POPC   C2B50252  22.402  22.859   6.801
 3727POPC   C3B50253  22.507  22.806   7.258
 3727POPC   C4B50254  22.629  22.758   7.731
 3728POPC   NC350255  44.064   6.116   5.498
 3728POPC   PO450256  43.510   5.661   5.431
 3728POPC   GL150257  43.461   5.817   5.851
 3728POPC   GL250258  43.510   5.453   5.903
 3728POPC   C1A50259  43.718   6.067   6.178
 3728POPC   D2A50260  43.991   5.942   6.543
 3728POPC   C3A50261  43.913   6.024   6.994
 3728POPC   C4A50262  44.149   5.712   7.234
 3728POPC   C1B50263  43.550   5.600   6.318
 3728POPC   C2B50264  43.564   5.466   6.715
 3728POPC   C3B50265  43.656   5.492   7.121
 3728POPC   C4B50266  43.445   5.468   7.488
 3729POPC   NC350267  14.477  21.796   5.061
 3729POPC   PO450268  14.326  21.220   5.484
 3729POPC   GL150269  14.245  21.353   5.856
 3729POPC   GL250270  13.998  21.093   5.967
 3729POPC   C1A50271  14.322  21.555   6.222
 3729POPC   D2A50272  14.158  21.429   6.594
 3729POPC   C3A50273  14.413  21.524   6.924
 3729POPC   C4A50274  14.590  21.542   7.305
 3729POPC   C1B50275  14.377  21.038   6.249
 3729POPC   C2B50276  14.652  21.251   6.546
 3729POPC   C3B50277  14.686  21.108   6.974
 3729POPC   C4B50278  14.729  20.943   7.424
 3730POPC   NC350279  20.724  21.966   5.449
 3730POPC   PO450280  20.415  22.502   5.415
 3730POPC   GL150281  20.440  22.260   5.781
 3730POPC   GL250282  20.770  22.365   5.780
 3730POPC   C1A50283  20.524  22.155   6.210
 3730POPC   D2A50284  20.283  22.151   6.576
 3730POPC   C3A50285  20.472  22.175   6.953
 3730POPC   C4A50286  20.232  22.118   7.300
 3730POPC   C1B50287  20.888  22.540   6.141
 3730POPC   C2B50288  20.858  22.395   6.570
 3730POPC   C3B50289  20.901  22.473   7.015
 3730POPC   C4B50290  20.740  22.251   7.389
 3731POPC   NC350291  43.240  42.709   5.478
 3731POPC   PO450292  42.987  42.064   5.354
 3731POPC   GL150293  43.028  42.318   5.745
 3731POPC   GL250294  43.373  42.331   5.862
 3731POPC   C1A50295  42.924  42.360   6.203
 3731POPC   D2A50296  42.934  42.578   6.631
 3731POPC   C3A50297  42.918  42.331   7.039
 3731POPC   C4A50298  42.993  42.408   7.494
 3731POPC   C1B50299  43.507  42.138   6.266
 3731POPC   C2B50300  43.399  42.221   6.707
 3731POPC   C3B50301  43.401  42.236   7.153
 3731POPC   C4B50302  43.296  41.981   7.514
 3732POPC   NC350303  33.383   6.716   5.484
 3732POPC   PO450304  32.730   6.501   5.410
 3732POPC   GL150305  32.827   6.526   5.833
 3732POPC   GL250306  32.576   6.265   5.871
 3732POPC   C1A50307  33.001   6.721   6.245
 3732POPC   D2A50308  33.266   6.718   6.614
 3732POPC   C3A50309  33.003   6.796   6.982
 3732POPC   C4A50310  32.678   7.013   7.114
 3732POPC   C1B50311  32.699   6.342   6.286
 3732POPC   C2B50312  32.642   6.618   6.631
 3732POPC   C3B50313  32.531   6.528   7.042
 3732POPC   C4B50314  32.653   6.623   7.450
 3733POPC   NC350315  41.602  13.792   5.345
 3733POPC   PO450316  41.873  13.176   5.421
 3733POPC   GL150317  41.824  13.499   5.742
 3733POPC   GL250318  41.483  13.656   5.811
 3733POPC   C1A50319  41.789  13.446   6.200
 3733POPC   D2A50320  41.553  13.571   6.565
 3733POPC   C3A50321  41.721  13.436   6.963
 3733POPC   C4A50322  42.013  13.600   7.270
 3733POPC   C1B50323  41.255  13.450   6.131
 3733POPC   C2B50324  41.041  13.513   6.549
 3733POPC   C3B50325  41.207  13.585   6.971
 3733POPC   C4B50326  41.459  13.561   7.406
 3734POPC   NC350327  30.926   1.431   5.254
 3734POPC   PO450328  30.646   0.903   5.438
 3734POPC   GL150329  30.621   1.291   5.664
 3734POPC   GL250330  30.419   1.171   5.928
 3734POPC   C1A50331  30.815   1.482   6.034
 3734POPC   D2A50332  30.749   1.300   6.462
 3734POPC   C3A50333  30.739   1.560   6.835
 3734POPC   C4A50334  30.612   1.386   7.222
 3734POPC   C1B50335  30.580   0.828   6.162
 3734POPC   C2B50336  30.389   0.737   6.561
 3734POPC   C3B50337  30.429   1.039   6.878
 3734POPC   C4B50338  30.634   0.866   7.229
 3735POPC   NC350339  43.638   1.859   5.459
 3735POPC   PO450340  43.027   2.100   5.507
 3735POPC   GL150341  42.912   2.096   5.885
 3735POPC   GL250342  43.063   1.776   5.939
 3735POPC   C1A50343  42.985   2.170   6.299
 3735POPC   D2A50344  43.312   2.141   6.581
 3735POPC   C3A50345  43.141   1.939   6.921
 3735POPC   C4A50346  43.052   2.112   7.274
 3735POPC   C1B50347  43.138   1.685   6.377
 3735POPC   C2B50348  43.472   1.654   6.672
 3735POPC   C3B50349  43.481   1.585   7.134
 3735POPC   C4B50350  43.677   1.708   7.542
 3736POPC   NC350351   6.093  33.984   5.390
 3736POPC   PO450352   5.603  33.697   5.211
 3736POPC   GL150353   5.735  33.763   5.732
 3736POPC   GL250354   6.073  33.878   5.882
 3736POPC   C1A50355   5.748  33.675   6.235
 3736POPC   D2A50356   5.846  33.381   6.616
 3736POPC   C3A50357   5.886  33.492   7.064
 3736POPC   C4A50358   6.141  33.578   7.426
 3736POPC   C1B50359   6.062  34.115   6.276
 3736POPC   C2B50360   5.835  33.963   6.651
 3736POPC   C3B50361   5.638  33.940   7.045
 3736POPC   C4B50362   6.020  34.011   7.190
 3737POPC   NC350363   8.199  32.743   5.272
 3737POPC   PO450364   7.873  33.404   5.324
 3737POPC   GL150365   8.167  33.249   5.716
 3737POPC   GL250366   8.315  32.909   5.778
 3737POPC   C1A50367   8.317  33.256   6.185
 3737POPC   D2A50368   8.201  33.449   6.595
 3737POPC   C3A50369   8.270  33.290   7.023
 3737POPC   C4A50370   8.045  33.228   7.433
 3737POPC   C1B50371   8.243  32.710   6.194
 3737POPC   C2B50372   8.257  32.507   6.606
 3737POPC   C3B50373   8.467  32.541   6.997
 3737POPC   C4B50374   8.340  32.851   7.272
 3738POPC   NC350375   2.805  39.342   5.118
 3738POPC   PO450376   3.025  39.128   5.642
 3738POPC   GL150377   2.758  39.063   5.920
 3738POPC   GL250378   3.077  38.920   6.089
 3738POPC   C1A50379   2.473  39.253   6.224
 3738POPC   D2A50380   2.292  39.407   6.616
 3738POPC   C3A50381   2.559  39.278   6.957
 3738POPC   C4A50382   2.893  39.479   7.192
 3738POPC   C1B50383   2.982  39.254   6.332
 3738POPC   C2B50384   3.040  39.233   6.732
 3738POPC   C3B50385   3.337  39.051   6.954
 3738POPC   C4B50386   3.209  38.951   7.372
 3739POPC   NC350387  29.810  40.915   5.372
 3739POPC   PO450388  29.779  40.305   5.584
 3739POPC   GL150389  29.896  40.662   5.839
 3739POPC   GL250390  29.774  41.023   5.876
 3739POPC   C1A50391  29.769  40.692   6.268
 3739POPC   D2A50392  29.666  40.887   6.642
 3739POPC   C3A50393  29.697  40.591   6.959
 3739POPC   C4A50394  30.015  40.532   7.324
 3739POPC   C1B50395  30.123  41.060   6.187
 3739POPC   C2B50396  30.127  41.134   6.640
 3739POPC   C3B50397  30.028  40.968   7.056
 3739POPC   C4B50398  30.050  41.050   7.543
 3740POPC   NC350399  23.366  33.661   5.020
 3740POPC   PO450400  23.457  33.025   5.274
 3740POPC   GL150401  23.502  32.879   5.721
 3740POPC   GL250402  23.219  32.699   5.882
 3740POPC   C1A50403  23.481  33.059   6.156
 3740POPC   D2A50404  23.471  33.080   6.620
 3740POPC   C3A50405  23.850  32.985   6.867
 3740POPC   C4A50406  23.954  33.085   7.309
 3740POPC   C1B50407  23.301  32.628   6.353
 3740POPC   C2B50408  23.544  32.573   6.741
 3740POPC   C3B50409  23.565  32.707   7.176
 3740POPC   C4B50410  23.426  32.646   7.588
 3741POPC   NC350411   3.122  26.566   5.469
 3741POPC   PO450412   3.076  27.138   5.433
 3741POPC   GL150413   3.033  26.975   5.823
 3741POPC   GL250414   3.339  26.794   5.882
 3741POPC   C1A50415   3.027  26.933   6.278
 3741POPC   D2A50416   3.194  26.866   6.693
 3741POPC   C3A50417   3.020  26.880   7.089
 3741POPC   C4A50418   3.151  26.811   7.500
 3741POPC   C1B50419   3.541  26.829   6.304
 3741POPC   C2B50420   3.693  26.773   6.740
 3741POPC   C3B50421   3.571  26.721   7.189
 3741POPC   C4B50422   3.662  26.770   7.636
 3742POPC   NC350423  24.950  30.125   5.367
 3742POPC   PO450424  25.557  30.255   5.345
 3742POPC   GL150425  25.422  30.099   5.767
 3742POPC   GL250426  25.113  30.036   5.844
 3742POPC   C1A50427  25.543  29.939   6.190
 3742POPC   D2A50428  25.622  29.786   6.628
 3742POPC   C3A50429  25.591  30.097   6.943
 3742POPC   C4A50430  25.370  30.266   7.311
 3742POPC   C1B50431  25.070  29.703   6.132
 3742POPC   C2B50432  25.088  29.769   6.567
 3742POPC   C3B50433  25.122  29.891   6.998
 3742POPC   C4B50434  24.887  30.168   7.279
 3743POPC   NC350435   4.520  34.150   5.413
 3743POPC   PO450436   3.998  33.809   5.619
 3743POPC   GL150437   4.439  33.710   5.863
 3743POPC   GL250438   4.564  33.344   5.902
 3743POPC   C1A50439   4.594  33.879   6.290
 3743POPC   D2A50440   4.426  34.160   6.664
 3743POPC   C3A50441   4.054  33.984   6.900
 3743POPC   C4A50442   4.099  33.685   7.247
 3743POPC   C1B50443   4.374  33.374   6.315
 3743POPC   C2B50444   4.327  33.625   6.673
 3743POPC   C3B50445   4.535  33.795   7.029
 3743POPC   C4B50446   4.511  33.374   7.214
 3744POPC   NC350447  36.660  33.920   5.396
 3744POPC   PO450448  37.123  33.344   5.451
 3744POPC   GL150449  36.907  33.645   5.786
 3744POPC   GL250450  37.024  34.018   5.790
 3744POPC   C1A50451  36.744  33.546   6.215
 3744POPC   D2A50452  36.951  33.367   6.594
 3744POPC   C3A50453  36.782  33.457   7.024
 3744POPC   C4A50454  36.755  33.521   7.485
 3744POPC   C1B50455  36.819  34.100   6.212
 3744POPC   C2B50456  36.788  33.891   6.646
 3744POPC   C3B50457  36.607  33.952   7.084
 3744POPC   C4B50458  36.339  34.297   7.182
 3745POPC   NC350459  26.962  11.222   5.095
 3745POPC   PO450460  26.802  11.676   5.548
 3745POPC   GL150461  26.704  11.205   5.595
 3745POPC   GL250462  27.064  11.046   5.617
 3745POPC   C1A50463  26.449  11.054   6.006
 3745POPC   D2A50464  26.580  11.238   6.418
 3745POPC   C3A50465  26.380  11.287   6.800
 3745POPC   C4A50466  26.558  11.483   7.167
 3745POPC   C1B50467  26.932  11.164   6.049
 3745POPC   C2B50468  27.105  11.180   6.488
 3745POPC   C3B50469  26.938  11.311   6.873
 3745POPC   C4B50470  26.722  11.009   7.158
 3746POPC   NC350471  37.853  30.867   5.200
 3746POPC   PO450472  38.589  30.783   5.294
 3746POPC   GL150473  38.587  30.819   5.746
 3746POPC   GL250474  38.219  30.863   5.747
 3746POPC   C1A50475  38.784  30.686   6.156
 3746POPC   D2A50476  38.580  30.601   6.559
 3746POPC   C3A50477  38.669  30.726   6.965
 3746POPC   C4A50478  38.521  30.644   7.365
 3746POPC   C1B50479  38.267  30.794   6.181
 3746POPC   C2B50480  38.120  30.884   6.604
 3746POPC   C3B50481  38.240  31.004   7.024
 3746POPC   C4B50482  38.101  30.914   7.423
 3747POPC   NC350483  29.598  11.573   5.267
 3747POPC   PO450484  29.961  11.056   5.435
 3747POPC   GL150485  29.867  11.184   5.839
 3747POPC   GL250486  29.739  11.500   5.753
 3747POPC   C1A50487  30.059  11.378   6.213
 3747POPC   D2A50488  30.217  11.284   6.616
 3747POPC   C3A50489  29.997  11.391   6.951
 3747POPC   C4A50490  29.928  11.100   7.246
 3747POPC   C1B50491  29.588  11.547   6.144
 3747POPC   C2B50492  29.751  11.665   6.560
 3747POPC   C3B50493  29.546  11.606   6.932
 3747POPC   C4B50494  29.622  11.512   7.332
 3748POPC   NC350495  35.712  34.300   5.578
 3748POPC   PO450496  35.318  34.908   5.458
 3748POPC   GL150497  35.274  34.630   5.798
 3748POPC   GL250498  35.224  34.259   5.782
 3748POPC   C1A50499  35.412  34.531   6.201
 3748POPC   D2A50500  35.175  34.651   6.534
 3748POPC   C3A50501  35.448  34.764   6.828
 3748POPC   C4A50502  35.399  34.537   7.182
 3748POPC   C1B50503  34.975  34.265   6.169
 3748POPC   C2B50504  34.939  34.188   6.606
 3748POPC   C3B50505  35.021  34.216   7.032
 3748POPC   C4B50506  35.135  34.202   7.484
 3749POPC   NC350507  31.999   2.362   5.648
 3749POPC   PO450508  32.237   2.846   5.315
 3749POPC   GL150509  32.179   2.875   5.729
 3749POPC   GL250510  32.460   2.629   5.736
 3749POPC   C1A50511  31.996   2.979   6.143
 3749POPC   D2A50512  32.161   2.850   6.560
 3749POPC   C3A50513  32.222   3.060   6.956
 3749POPC   C4A50514  32.092   2.829   7.315
 3749POPC   C1B50515  32.368   2.607   6.157
 3749POPC   C2B50516  32.483   2.437   6.540
 3749POPC   C3B50517  32.513   2.621   6.908
 3749POPC   C4B50518  32.468   2.492   7.299
 3750POPC   NC350519   8.676  36.866   5.270
 3750POPC   PO450520   8.090  36.576   5.069
 3750POPC   GL150521   8.152  36.632   5.603
 3750POPC   GL250522   8.301  36.966   5.703
 3750POPC   C1A50523   8.049  36.746   6.103
 3750POPC   D2A50524   8.092  37.000   6.543
 3750POPC   C3A50525   7.929  36.837   6.970
 3750POPC   C4A50526   7.985  36.825   7.463
 3750POPC   C1B50527   8.440  37.087   6.154
 3750POPC   C2B50528   8.612  37.117   6.577
 3750POPC   C3B50529   8.531  37.265   6.993
 3750POPC   C4B50530   8.177  37.231   7.240
 3751POPC   NC350531   1.201  44.466   5.116
 3751POPC   PO450532   1.514  44.933   5.458
 3751POPC   GL150533   1.487  44.768   5.901
 3751POPC   GL250534   1.336  44.415   5.917
 3751POPC   C1A50535   1.216  44.928   6.239
 3751POPC   D2A50536   1.045   0.084   6.598
 3751POPC   C3A50537   1.294  44.859   6.874
 3751POPC   C4A50538   1.274  44.924   7.271
 3751POPC   C1B50539   0.968  44.464   6.216
 3751POPC   C2B50540   0.901  44.594   6.652
 3751POPC   C3B50541   0.895  44.453   7.087
 3751POPC   C4B50542   1.220  44.356   7.399
 3752POPC   NC350543   4.052  35.189   5.515
 3752POPC   PO450544   4.736  35.408   5.427
 3752POPC   GL150545   4.476  35.335   5.768
 3752POPC   GL250546   4.289  35.615   5.876
 3752POPC   C1A50547   4.336  35.161   6.165
 3752POPC   D2A50548   4.448  35.342   6.565
 3752POPC   C3A50549   4.191  35.175   6.875
 3752POPC   C4A50550   4.333  35.082   7.281
 3752POPC   C1B50551   4.096  35.616   6.295
 3752POPC   C2B50552   4.145  35.728   6.750
 3752POPC   C3B50553   4.125  35.569   7.187
 3752POPC   C4B50554   4.418  35.521   7.550
 3753POPC   NC350555  11.324  37.887   5.587
 3753POPC   PO450556  11.124  37.215   5.442
 3753POPC   GL150557  11.340  37.417   5.824
 3753POPC   GL250558  11.029  37.530   5.922
 3753POPC   C1A50559  11.413  37.705   6.230
 3753POPC   D2A50560  11.655  37.672   6.640
 3753POPC   C3A50561  11.406  37.702   6.983
 3753POPC   C4A50562  11.347  37.998   7.306
 3753POPC   C1B50563  11.089  37.326   6.297
 3753POPC   C2B50564  11.274  37.286   6.662
 3753POPC   C3B50565  11.157  37.265   7.066
 3753POPC   C4B50566  11.088  37.572   7.369
 3754POPC   NC350567  32.846  38.930   5.391
 3754POPC   PO450568  33.370  39.368   5.188
 3754POPC   GL150569  33.196  39.294   5.696
 3754POPC   GL250570  32.842  39.235   5.802
 3754POPC   C1A50571  33.137  39.356   6.205
 3754POPC   D2A50572  33.404  39.166   6.571
 3754POPC   C3A50573  33.176  38.930   6.906
 3754POPC   C4A50574  33.049  39.066   7.320
 3754POPC   C1B50575  32.712  39.067   6.208
 3754POPC   C2B50576  32.710  38.972   6.678
 3754POPC   C3B50577  32.580  39.242   7.036
 3754POPC   C4B50578  32.541  39.136   7.467
 3755POPC   NC350579  41.115   2.285   5.545
 3755POPC   PO450580  40.568   2.619   5.370
 3755POPC   GL150581  40.615   2.868   5.732
 3755POPC   GL250582  40.966   2.759   5.793
 3755POPC   C1A50583  40.588   2.882   6.183
 3755POPC   D2A50584  40.825   2.894   6.567
 3755POPC   C3A50585  40.587   2.952   6.949
 3755POPC   C4A50586  40.652   2.827   7.378
 3755POPC   C1B50587  41.168   2.906   6.156
 3755POPC   C2B50588  41.283   3.147   6.522
 3755POPC   C3B50589  41.149   3.056   6.947
 3755POPC   C4B50590  41.271   3.243   7.335
 3756POPC   NC350591  42.252  29.916   5.437
 3756POPC   PO450592  42.571  29.263   5.336
 3756POPC   GL150593  42.555  29.563   5.646
 3756POPC   GL250594  42.241  29.443   5.727
 3756POPC   C1A50595  42.553  29.863   6.049
 3756POPC   D2A50596  42.542  30.041   6.505
 3756POPC   C3A50597  42.495  29.909   6.972
 3756POPC   C4A50598  42.644  29.919   7.451
 3756POPC   C1B50599  42.137  29.592   6.144
 3756POPC   C2B50600  42.127  29.710   6.590
 3756POPC   C3B50601  41.955  29.774   6.991
 3756POPC   C4B50602  42.200  29.673   7.320
 3757POPC   NC350603  37.098  20.545   5.374
 3757POPC   PO450604  36.574  20.794   5.605
 3757POPC   GL150605  36.857  20.604   5.895
 3757POPC   GL250606  37.227  20.513   5.857
 3757POPC   C1A50607  36.987  20.479   6.315
 3757POPC   D2A50608  37.015  20.525   6.743
 3757POPC   C3A50609  36.663  20.591   6.942
 3757POPC   C4A50610  36.557  20.935   7.149
 3757POPC   C1B50611  37.387  20.205   6.133
 3757POPC   C2B50612  37.412  20.257   6.578
 3757POPC   C3B50613  37.186  20.086   6.930
 3757POPC   C4B50614  36.911  20.267   7.228
 3758POPC   NC350615  44.076  19.690   5.474
 3758POPC   PO450616  43.735  20.200   5.407
 3758POPC   GL150617  43.751  19.970   5.799
 3758POPC   GL250618  43.811  19.572   5.889
 3758POPC   C1A50619  43.603  19.900   6.201
 3758POPC   D2A50620  43.759  19.591   6.489
 3758POPC   C3A50621  43.649  19.610   6.905
 3758POPC   C4A50622  43.834  19.483   7.265
 3758POPC   C1B50623  44.116  19.819   6.157
 3758POPC   C2B50624  44.241  19.871   6.582
 3758POPC   C3B50625  44.073  19.859   6.987
 3758POPC   C4B50626  43.700  20.005   7.233
 3759POPC   NC350627  14.283  22.398   5.442
 3759POPC   PO450628  14.118  23.000   5.201
 3759POPC   GL150629  14.262  22.949   5.635
 3759POPC   GL250630  14.273  23.266   5.815
 3759POPC   C1A50631  14.336  22.773   6.077
 3759POPC   D2A50632  14.329  22.499   6.445
 3759POPC   C3A50633  14.206  22.655   6.851
 3759POPC   C4A50634  14.393  22.868   7.152
 3759POPC   C1B50635  14.540  23.236   6.176
 3759POPC   C2B50636  14.559  23.085   6.603
 3759POPC   C3B50637  14.494  23.345   6.968
 3759POPC   C4B50638  14.521  23.306   7.387
 3760POPC   NC350639   0.143   2.508   5.447
 3760POPC   PO450640  44.457   2.683   5.437
 3760POPC   GL150641  44.761   2.732   5.781
 3760POPC   GL250642   0.017   3.005   5.772
 3760POPC   C1A50643  44.893   2.684   6.214
 3760POPC   D2A50644  44.645   2.776   6.610
 3760POPC   C3A50645  44.523   2.481   6.923
 3760POPC   C4A50646  44.520   2.596   7.372
 3760POPC   C1B50647   0.229   3.095   6.177
 3760POPC   C2B50648   0.161   2.917   6.614
 3760POPC   C3B50649  44.953   2.881   7.031
 3760POPC   C4B50650  44.976   2.832   7.497
 3761POPC   NC350651  35.393   6.229   5.249
 3761POPC   PO450652  35.086   5.737   5.156
 3761POPC   GL150653  35.302   5.836   5.591
 3761POPC   GL250654  35.115   6.068   5.762
 3761POPC   C1A50655  35.501   5.900   6.045
 3761POPC   D2A50656  35.646   5.734   6.477
 3761POPC   C3A50657  35.440   5.674   6.881
 3761POPC   C4A50658  35.434   5.938   7.241
 3761POPC   C1B50659  35.095   6.188   6.195
 3761POPC   C2B50660  35.235   6.076   6.601
 3761POPC   C3B50661  35.008   5.980   6.970
 3761POPC   C4B50662  34.913   6.077   7.404
 3762POPC   NC350663   4.208   0.594   5.360
 3762POPC   PO450664   4.261   0.008   5.671
 3762POPC   GL150665   4.282   0.412   5.835
 3762POPC   GL250666   4.492   0.678   5.815
 3762POPC   C1A50667   4.138   0.598   6.223
 3762POPC   D2A50668   4.018   0.323   6.556
 3762POPC   C3A50669   4.168   0.370   6.969
 3762POPC   C4A50670   4.276   0.176   7.344
 3762POPC   C1B50671   4.616   0.431   6.196
 3762POPC   C2B50672   4.513   0.497   6.601
 3762POPC   C3B50673   4.655   0.417   6.985
 3762POPC   C4B50674   4.637   0.539   7.402
 3763POPC   NC350675  36.286  41.082   5.378
 3763POPC   PO450676  35.890  40.486   5.482
 3763POPC   GL150677  36.115  40.765   5.772
 3763POPC   GL250678  35.971  41.130   5.778
 3763POPC   C1A50679  36.321  40.679   6.175
 3763POPC   D2A50680  36.420  40.887   6.579
 3763POPC   C3A50681  36.205  40.777   6.941
 3763POPC   C4A50682  36.352  40.526   7.229
 3763POPC   C1B50683  36.059  41.124   6.214
 3763POPC   C2B50684  35.887  40.899   6.562
 3763POPC   C3B50685  35.711  41.057   6.923
 3763POPC   C4B50686  35.954  41.114   7.271
 3764POPC   NC350687  42.706  42.445   5.349
 3764POPC   PO450688  42.126  42.567   5.287
 3764POPC   GL150689  42.191  42.495   5.723
 3764POPC   GL250690  42.549  42.570   5.823
 3764POPC   C1A50691  42.133  42.347   6.159
 3764POPC   D2A50692  42.180  41.988   6.489
 3764POPC   C3A50693  42.289  42.133   6.937
 3764POPC   C4A50694  42.115  42.472   7.230
 3764POPC   C1B50695  42.547  42.718   6.233
 3764POPC   C2B50696  42.371  42.522   6.590
 3764POPC   C3B50697  42.510  42.623   6.961
 3764POPC   C4B50698  42.784  42.803   7.250
 3765POPC   NC350699  31.955  43.334   5.659
 3765POPC   PO450700  32.081  42.724   5.382
 3765POPC   GL150701  31.945  42.850   5.827
 3765POPC   GL250702  32.298  43.016   5.860
 3765POPC   C1A50703  32.025  42.996   6.288
 3765POPC   D2A50704  32.011  43.328   6.593
 3765POPC   C3A50705  32.075  43.204   7.015
 3765POPC   C4A50706  32.265  43.378   7.404
 3765POPC   C1B50707  32.404  43.355   6.150
 3765POPC   C2B50708  32.535  43.361   6.549
 3765POPC   C3B50709  32.565  43.368   6.990
 3765POPC   C4B50710  32.768  43.251   7.398
 3766POPC   NC350711   7.778  18.424   5.448
 3766POPC   PO450712   8.425  18.351   5.456
 3766POPC   GL150713   8.268  18.463   5.863
 3766POPC   GL250714   7.967  18.279   5.900
 3766POPC   C1A50715   8.240  18.626   6.296
 3766POPC   D2A50716   8.401  18.571   6.748
 3766POPC   C3A50717   8.308  18.225   7.072
 3766POPC   C4A50718   8.496  18.051   7.481
 3766POPC   C1B50719   8.039  18.169   6.344
 3766POPC   C2B50720   7.912  18.449   6.686
 3766POPC   C3B50721   7.831  18.371   7.087
 3766POPC   C4B50722   7.918  17.948   7.302
 3767POPC   NC350723  30.508  31.928   5.422
 3767POPC   PO450724  30.589  32.574   5.499
 3767POPC   GL150725  30.637  32.271   5.829
 3767POPC   GL250726  30.944  32.432   5.866
 3767POPC   C1A50727  30.794  32.140   6.265
 3767POPC   D2A50728  30.953  32.049   6.694
 3767POPC   C3A50729  30.648  32.102   7.016
 3767POPC   C4A50730  30.392  32.127   7.382
 3767POPC   C1B50731  31.003  32.702   6.190
 3767POPC   C2B50732  30.838  32.801   6.584
 3767POPC   C3B50733  30.865  32.598   6.967
 3767POPC   C4B50734  30.779  32.466   7.371
 3768POPC   NC350735  44.873  34.549   5.441
 3768POPC   PO450736  44.148  34.470   5.539
 3768POPC   GL150737  44.539  34.498   5.849
 3768POPC   GL250738  44.823  34.756   5.908
 3768POPC   C1A50739  44.625  34.461   6.310
 3768POPC   D2A50740  44.366  34.277   6.638
 3768POPC   C3A50741  44.336  34.524   7.006
 3768POPC   C4A50742  44.374  34.413   7.438
 3768POPC   C1B50743   0.121  34.834   6.270
 3768POPC   C2B50744   0.200  34.667   6.661
 3768POPC   C3B50745  44.838  34.515   6.838
 3768POPC   C4B50746  44.763  34.691   7.234
 3769POPC   NC350747  28.676  24.487   5.203
 3769POPC   PO450748  29.257  24.659   5.360
 3769POPC   GL150749  29.208  24.595   5.794
 3769POPC   GL250750  28.875  24.515   5.812
 3769POPC   C1A50751  29.226  24.434   6.246
 3769POPC   D2A50752  29.032  24.430   6.662
 3769POPC   C3A50753  29.289  24.484   7.000
 3769POPC   C4A50754  29.254  24.752   7.338
 3769POPC   C1B50755  28.862  24.123   6.074
 3769POPC   C2B50756  29.002  23.955   6.494
 3769POPC   C3B50757  29.053  24.001   6.974
 3769POPC   C4B50758  29.258  23.945   7.380
 3770POPC   NC350759   7.344  44.936   5.189
 3770POPC   PO450760   7.393   0.648   5.290
 3770POPC   GL150761   7.360   0.538   5.728
 3770POPC   GL250762   7.109   0.780   5.828
 3770POPC   C1A50763   7.398   0.441   6.182
 3770POPC   D2A50764   7.579   0.157   6.507
 3770POPC   C3A50765   7.574   0.249   6.956
 3770POPC   C4A50766   7.300   0.051   7.214
 3770POPC   C1B50767   7.146   0.903   6.262
 3770POPC   C2B50768   7.356   0.746   6.624
 3770POPC   C3B50769   7.220   0.634   7.030
 3770POPC   C4B50770   7.377   0.550   7.435
 3771POPC   NC350771  13.751  44.166   5.400
 3771POPC   PO450772  13.394  44.607   5.535
 3771POPC   GL150773  13.737  44.596   5.837
 3771POPC   GL250774  13.923  44.243   5.870
 3771POPC   C1A50775  13.603  44.738   6.253
 3771POPC   D2A50776  13.673  44.964   6.603
 3771POPC   C3A50777  13.374  44.812   6.884
 3771POPC   C4A50778  13.553  44.838   7.248
 3771POPC   C1B50779  13.712  44.260   6.254
 3771POPC   C2B50780  13.692  44.432   6.676
 3771POPC   C3B50781  13.812  44.327   7.098
 3771POPC   C4B50782  13.807  44.216   7.565
 3772POPC   NC350783  17.063   0.737   5.358
 3772POPC   PO450784  16.848   0.140   5.126
 3772POPC   GL150785  16.735   0.247   5.621
 3772POPC   GL250786  16.739   0.611   5.731
 3772POPC   C1A50787  16.619   0.199   6.109
 3772POPC   D2A50788  16.364   0.288   6.535
 3772POPC   C3A50789  16.582   0.347   6.960
 3772POPC   C4A50790  16.767   0.520   7.334
 3772POPC   C1B50791  16.833   0.684   6.166
 3772POPC   C2B50792  16.917   0.553   6.613
 3772POPC   C3B50793  16.876   0.845   6.964
 3772POPC   C4B50794  16.592   1.007   7.302
 3773POPC   NC350795  27.119  15.434   5.356
 3773POPC   PO450796  26.808  14.838   5.445
 3773POPC   GL150797  26.930  15.149   5.776
 3773POPC   GL250798  26.652  15.350   5.869
 3773POPC   C1A50799  26.994  15.068   6.258
 3773POPC   D2A50800  27.290  15.078   6.648
 3773POPC   C3A50801  27.098  15.126   7.069
 3773POPC   C4A50802  26.719  14.912   7.214
 3773POPC   C1B50803  26.460  15.613   6.200
 3773POPC   C2B50804  26.648  15.621   6.560
 3773POPC   C3B50805  26.685  15.366   6.884
 3773POPC   C4B50806  26.546  15.457   7.270
 3774POPC   NC350807   5.348   0.800   5.240
 3774POPC   PO450808   4.685   0.556   5.361
 3774POPC   GL150809   4.985   0.495   5.756
 3774POPC   GL250810   5.333   0.621   5.786
 3774POPC   C1A50811   5.086   0.306   6.199
 3774POPC   D2A50812   4.923   0.143   6.610
 3774POPC   C3A50813   5.129   0.250   7.014
 3774POPC   C4A50814   5.162   0.504   7.409
 3774POPC   C1B50815   5.498   0.958   6.118
 3774POPC   C2B50816   5.598   0.929   6.526
 3774POPC   C3B50817   5.429   0.803   6.891
 3774POPC   C4B50818   5.476   0.908   7.321
 3775POPC   NC350819  28.654  29.465   5.522
 3775POPC   PO450820  28.226  28.938   5.432
 3775POPC   GL150821  28.359  29.130   5.810
 3775POPC   GL250822  28.631  28.918   5.932
 3775POPC   C1A50823  28.332  29.178   6.266
 3775POPC   D2A50824  28.557  28.865   6.480
 3775POPC   C3A50825  28.520  28.961   6.895
 3775POPC   C4A50826  28.204  29.033   7.179
 3775POPC   C1B50827  28.810  29.249   6.146
 3775POPC   C2B50828  28.833  29.421   6.558
 3775POPC   C3B50829  28.659  29.468   6.958
 3775POPC   C4B50830  28.810  29.662   7.296
 3776POPC   NC350831   4.435  38.099   5.375
 3776POPC   PO450832   4.025  37.635   5.458
 3776POPC   GL150833   4.234  37.368   5.766
 3776POPC   GL250834   4.602  37.411   5.818
 3776POPC   C1A50835   4.087  37.459   6.190
 3776POPC   D2A50836   3.869  37.380   6.573
 3776POPC   C3A50837   4.142  37.515   6.895
 3776POPC   C4A50838   4.447  37.570   7.232
 3776POPC   C1B50839   4.430  37.793   6.002
 3776POPC   C2B50840   4.358  37.913   6.432
 3776POPC   C3B50841   4.499  37.899   6.859
 3776POPC   C4B50842   4.649  38.074   7.252
 3777POPC   NC350843  15.596  11.140   5.542
 3777POPC   PO450844  15.721  11.826   5.474
 3777POPC   GL150845  15.912  11.488   5.782
 3777POPC   GL250846  15.800  11.189   6.012
 3777POPC   C1A50847  16.178  11.492   6.172
 3777POPC   D2A50848  15.922  11.434   6.583
 3777POPC   C3A50849  16.082  11.397   7.019
 3777POPC   C4A50850  15.820  11.435   7.393
 3777POPC   C1B50851  16.106  11.019   6.344
 3777POPC   C2B50852  16.109  10.926   6.810
 3777POPC   C3B50853  15.937  10.949   7.224
 3777POPC   C4B50854  16.100  11.051   7.627
 3778POPC   NC350855  10.795  38.374   5.569
 3778POPC   PO450856  10.573  38.972   5.480
 3778POPC   GL150857  10.608  38.726   5.889
 3778POPC   GL250858  10.395  38.426   5.893
 3778POPC   C1A50859  10.535  38.649   6.355
 3778POPC   D2A50860  10.320  38.520   6.758
 3778POPC   C3A50861  10.635  38.423   7.091
 3778POPC   C4A50862  10.706  38.474   7.550
 3778POPC   C1B50863  10.395  38.103   6.227
 3778POPC   C2B50864  10.569  38.067   6.632
 3778POPC   C3B50865  10.454  37.951   7.029
 3778POPC   C4B50866  10.322  38.161   7.399
 3779POPC   NC350867  15.773  24.047   5.396
 3779POPC   PO450868  16.347  23.717   5.281
 3779POPC   GL150869  15.999  23.602   5.602
 3779POPC   GL250870  16.077  23.306   5.791
 3779POPC   C1A50871  15.961  23.765   6.054
 3779POPC   D2A50872  16.000  23.889   6.511
 3779POPC   C3A50873  16.143  23.690   6.929
 3779POPC   C4A50874  16.004  23.694   7.375
 3779POPC   C1B50875  15.834  23.285   6.168
 3779POPC   C2B50876  15.846  23.424   6.589
 3779POPC   C3B50877  15.774  23.313   7.001
 3779POPC   C4B50878  16.080  23.191   7.265
 3780POPC   NC350879  30.989  28.737   5.727
 3780POPC   PO450880  30.797  28.330   5.271
 3780POPC   GL150881  30.537  28.301   5.714
 3780POPC   GL250882  30.544  28.592   5.936
 3780POPC   C1A50883  30.403  28.191   6.208
 3780POPC   D2A50884  30.602  28.170   6.658
 3780POPC   C3A50885  30.506  28.019   7.105
 3780POPC   C4A50886  30.786  27.861   7.457
 3780POPC   C1B50887  30.806  28.536   6.337
 3780POPC   C2B50888  30.900  28.555   6.795
 3780POPC   C3B50889  30.713  28.491   7.172
 3780POPC   C4B50890  30.398  28.728   7.355
 3781POPC   NC350891  32.454  32.441   5.341
 3781POPC   PO450892  31.907  32.127   5.483
 3781POPC   GL150893  32.184  32.327   5.758
 3781POPC   GL250894  31.985  32.618   5.854
 3781POPC   C1A50895  32.394  32.303   6.151
 3781POPC   D2A50896  32.489  32.447   6.573
 3781POPC   C3A50897  32.367  32.130   6.891
 3781POPC   C4A50898  32.553  32.299   7.228
 3781POPC   C1B50899  31.838  32.310   6.139
 3781POPC   C2B50900  32.014  32.281   6.539
 3781POPC   C3B50901  32.080  32.567   6.878
 3781POPC   C4B50902  32.052  32.367   7.270
 3782POPC   NC350903  29.792  10.614   5.473
 3782POPC   PO450904  30.206  10.155   5.764
 3782POPC   GL150905  29.977  10.549   5.932
 3782POPC   GL250906  29.564  10.608   5.933
 3782POPC   C1A50907  29.931  10.808   6.285
 3782POPC   D2A50908  29.814  10.687   6.717
 3782POPC   C3A50909  30.127  10.486   6.951
 3782POPC   C4A50910  30.320  10.774   7.230
 3782POPC   C1B50911  29.679  10.341   6.298
 3782POPC   C2B50912  29.758  10.094   6.667
 3782POPC   C3B50913  29.599  10.313   7.003
 3782POPC   C4B50914  29.732  10.624   7.257
 3783POPC   NC350915  16.905  43.109   5.429
 3783POPC   PO450916  16.268  43.413   5.550
 3783POPC   GL150917  16.516  43.107   5.797
 3783POPC   GL250918  16.875  43.191   5.909
 3783POPC   C1A50919  16.599  42.923   6.211
 3783POPC   D2A50920  16.755  43.134   6.560
 3783POPC   C3A50921  16.711  42.902   6.932
 3783POPC   C4A50922  16.507  43.011   7.275
 3783POPC   C1B50923  16.952  43.477   6.214
 3783POPC   C2B50924  17.118  43.495   6.585
 3783POPC   C3B50925  16.906  43.467   6.943
 3783POPC   C4B50926  16.945  43.271   7.302
 3784POPC   NC350927   7.359   4.542   5.459
 3784POPC   PO450928   7.626   4.019   5.300
 3784POPC   GL150929   7.489   4.099   5.749
 3784POPC   GL250930   7.151   4.213   5.827
 3784POPC   C1A50931   7.523   4.152   6.210
 3784POPC   D2A50932   7.351   4.149   6.614
 3784POPC   C3A50933   7.611   4.209   6.967
 3784POPC   C4A50934   7.813   3.968   7.278
 3784POPC   C1B50935   7.035   4.368   6.245
 3784POPC   C2B50936   6.919   4.432   6.670
 3784POPC   C3B50937   7.103   4.383   7.062
 3784POPC   C4B50938   7.202   4.010   7.279
 3785POPC   NC350939  31.556   0.061   5.296
 3785POPC   PO450940  31.328  44.425   5.397
 3785POPC   GL150941  31.271  44.799   5.692
 3785POPC   GL250942  31.614  44.926   5.796
 3785POPC   C1A50943  31.232  44.873   6.163
 3785POPC   D2A50944  31.396  44.666   6.553
 3785POPC   C3A50945  31.291  44.600   6.984
 3785POPC   C4A50946  31.403  44.331   7.347
 3785POPC   C1B50947  31.757  44.884   6.233
 3785POPC   C2B50948  31.735   0.067   6.644
 3785POPC   C3B50949  31.678  44.945   7.090
 3785POPC   C4B50950  31.450  44.826   7.445
 3786POPC   NC350951  29.662  39.174   5.321
 3786POPC   PO450952  30.281  39.004   5.046
 3786POPC   GL150953  30.155  39.097   5.532
 3786POPC   GL250954  29.958  39.360   5.699
 3786POPC   C1A50955  30.081  39.025   6.030
 3786POPC   D2A50956  29.984  38.997   6.478
 3786POPC   C3A50957  30.232  39.079   6.839
 3786POPC   C4A50958  30.094  39.009   7.264
 3786POPC   C1B50959  30.062  39.537   6.116
 3786POPC   C2B50960  30.104  39.507   6.565
 3786POPC   C3B50961  29.942  39.507   7.007
 3786POPC   C4B50962  29.733  39.790   7.310
 3787POPC   NC350963  25.541  41.221   5.378
 3787POPC   PO450964  25.281  41.887   5.415
 3787POPC   GL150965  25.219  41.518   5.719
 3787POPC   GL250966  25.488  41.318   5.883
 3787POPC   C1A50967  25.023  41.442   6.121
 3787POPC   D2A50968  25.256  41.372   6.512
 3787POPC   C3A50969  25.065  41.248   6.897
 3787POPC   C4A50970  25.016  41.500   7.250
 3787POPC   C1B50971  25.467  41.703   6.139
 3787POPC   C2B50972  25.554  41.809   6.586
 3787POPC   C3B50973  25.461  41.703   7.029
 3787POPC   C4B50974  25.671  41.655   7.433
 3788POPC   NC350975  43.201  33.321   5.113
 3788POPC   PO450976  43.336  32.748   5.452
 3788POPC   GL150977  43.314  33.016   5.810
 3788POPC   GL250978  43.187  33.322   5.666
 3788POPC   C1A50979  43.278  33.049   6.257
 3788POPC   D2A50980  43.024  32.991   6.625
 3788POPC   C3A50981  43.267  32.946   7.000
 3788POPC   C4A50982  43.475  33.233   7.283
 3788POPC   C1B50983  42.877  33.358   6.032
 3788POPC   C2B50984  42.589  33.429   6.404
 3788POPC   C3B50985  42.684  33.335   6.825
 3788POPC   C4B50986  42.592  33.290   7.228
 3789POPC   NC350987  36.340  21.077   5.332
 3789POPC   PO450988  36.104  21.676   5.562
 3789POPC   GL150989  36.318  21.549   5.929
 3789POPC   GL250990  36.288  21.205   5.835
 3789POPC   C1A50991  36.240  21.675   6.383
 3789POPC   D2A50992  36.317  21.728   6.846
 3789POPC   C3A50993  35.978  21.682   7.169
 3789POPC   C4A50994  35.943  21.687   7.636
 3789POPC   C1B50995  36.274  21.165   6.290
 3789POPC   C2B50996  36.314  21.225   6.780
 3789POPC   C3B50997  36.174  21.216   7.242
 3789POPC   C4B50998  35.981  20.828   7.434
 3790POPC   NC350999  15.253   3.475   5.160
 3790POPC   PO451000  14.608   3.734   5.302
 3790POPC   GL151001  14.807   3.542   5.691
 3790POPC   GL251002  15.006   3.242   5.683
 3790POPC   C1A51003  15.132   3.653   6.023
 3790POPC   D2A51004  15.301   3.674   6.475
 3790POPC   C3A51005  15.038   3.474   6.782
 3790POPC   C4A51006  15.006   3.450   7.210
 3790POPC   C1B51007  15.042   3.165   6.137
 3790POPC   C2B51008  14.837   3.079   6.522
 3790POPC   C3B51009  14.775   3.020   6.957
 3790POPC   C4B51010  14.910   2.997   7.414
 3791POPC   NC351011  20.884   0.043   5.341
 3791POPC   PO451012  20.333  44.572   5.381
 3791POPC   GL151013  20.554  44.550   5.796
 3791POPC   GL251014  20.484  44.195   5.899
 3791POPC   C1A51015  20.783  44.522   6.197
 3791POPC   D2A51016  20.633  44.617   6.607
 3791POPC   C3A51017  20.898  44.455   6.903
 3791POPC   C4A51018  20.818  44.534   7.314
 3791POPC   C1B51019  20.273  44.422   6.252
 3791POPC   C2B51020  20.121  44.551   6.683
 3791POPC   C3B51021  20.354  44.456   7.070
 3791POPC   C4B51022  20.283  44.450   7.536
 3792POPC   NC351023  43.486  17.298   5.102
 3792POPC   PO451024  44.066  17.339   5.402
 3792POPC   GL151025  43.799  17.544   5.704
 3792POPC   GL251026  43.633  17.271   5.855
 3792POPC   C1A51027  43.824  17.750   6.124
 3792POPC   D2A51028  44.133  17.675   6.485
 3792POPC   C3A51029  43.981  17.752   6.917
 3792POPC   C4A51030  43.742  17.606   7.271
 3792POPC   C1B51031  43.959  17.257   6.173
 3792POPC   C2B51032  44.021  17.109   6.588
 3792POPC   C3B51033  43.894  17.219   6.973
 3792POPC   C4B51034  44.092  17.237   7.327
 3793POPC   NC351035  38.877  23.127   5.104
 3793POPC   PO451036  38.256  23.314   5.326
 3793POPC   GL151037  38.490  23.094   5.654
 3793POPC   GL251038  38.860  23.119   5.679
 3793POPC   C1A51039  38.397  22.881   6.049
 3793POPC   D2A51040  38.198  22.746   6.433
 3793POPC   C3A51041  38.157  22.956   6.840
 3793POPC   C4A51042  38.332  23.127   7.210
 3793POPC   C1B51043  38.910  22.952   6.116
 3793POPC   C2B51044  38.659  22.961   6.507
 3793POPC   C3B51045  38.725  22.912   6.945
 3793POPC   C4B51046  38.804  23.012   7.374
 3794POPC   NC351047  17.838  28.519   5.547
 3794POPC   PO451048  17.327  28.139   5.364
 3794POPC   GL151049  17.316  28.086   5.845
 3794POPC   GL251050  17.674  28.113   5.859
 3794POPC   C1A51051  17.460  28.217   6.303
 3794POPC   D2A51052  17.565  28.431   6.690
 3794POPC   C3A51053  17.341  28.429   7.093
 3794POPC   C4A51054  17.143  28.746   7.264
 3794POPC   C1B51055  17.953  28.058   6.226
 3794POPC   C2B51056  18.026  28.168   6.669
 3794POPC   C3B51057  17.820  28.255   7.084
 3794POPC   C4B51058  17.576  28.140   7.443
 3795POPC   NC351059  31.509   8.363   5.521
 3795POPC   PO451060  31.896   7.742   5.607
 3795POPC   GL151061  31.645   8.027   5.888
 3795POPC   GL251062  31.265   8.085   5.948
 3795POPC   C1A51063  31.613   8.320   6.239
 3795POPC   D2A51064  31.423   8.205   6.638
 3795POPC   C3A51065  31.705   8.229   6.988
 3795POPC   C4A51066  32.056   8.138   7.266
 3795POPC   C1B51067  31.109   8.451   6.248
 3795POPC   C2B51068  31.113   8.613   6.708
 3795POPC   C3B51069  31.195   8.333   7.083
 3795POPC   C4B51070  31.264   7.892   7.109
 3796POPC   NC351071  27.957   8.761   5.352
 3796POPC   PO451072  28.625   9.081   5.421
 3796POPC   GL151073  28.348   8.926   5.720
 3796POPC   GL251074  28.217   9.284   5.708
 3796POPC   C1A51075  28.359   8.661   6.150
 3796POPC   D2A51076  28.530   8.475   6.571
 3796POPC   C3A51077  28.587   8.757   6.957
 3796POPC   C4A51078  28.532   8.855   7.430
 3796POPC   C1B51079  28.159   9.130   6.140
 3796POPC   C2B51080  28.284   9.003   6.558
 3796POPC   C3B51081  28.123   8.979   6.976
 3796POPC   C4B51082  28.099   9.174   7.366
 3797POPC   NC351083  12.654  10.255   5.478
 3797POPC   PO451084  13.120  10.751   5.600
 3797POPC   GL151085  12.763  10.648   5.849
 3797POPC   GL251086  12.900  10.332   5.915
 3797POPC   C1A51087  12.597  10.543   6.286
 3797POPC   D2A51088  12.699  10.646   6.743
 3797POPC   C3A51089  12.658  10.350   7.103
 3797POPC   C4A51090  12.498  10.516   7.493
 3797POPC   C1B51091  13.080  10.179   6.290
 3797POPC   C2B51092  13.129  10.343   6.687
 3797POPC   C3B51093  13.153  10.500   7.069
 3797POPC   C4B51094  13.157  10.131   7.301
 3798POPC   NC351095  41.861   5.365   5.281
 3798POPC   PO451096  41.224   5.188   5.535
 3798POPC   GL151097  41.224   5.134   5.927
 3798POPC   GL251098  41.544   4.946   5.873
 3798POPC   C1A51099  41.362   5.056   6.334
 3798POPC   D2A51100  41.542   4.897   6.707
 3798POPC   C3A51101  41.300   5.088   7.014
 3798POPC   C4A51102  41.284   5.333   7.355
 3798POPC   C1B51103  41.699   5.326   6.054
 3798POPC   C2B51104  41.808   5.436   6.489
 3798POPC   C3B51105  41.740   5.339   6.922
 3798POPC   C4B51106  41.766   5.155   7.329
 3799POPC   NC351107  28.066  24.900   5.434
 3799POPC   PO451108  28.082  25.593   5.540
 3799POPC   GL151109  28.335  25.285   5.779
 3799POPC   GL251110  28.157  25.023   5.929
 3799POPC   C1A51111  28.465  25.255   6.272
 3799POPC   D2A51112  28.385  25.004   6.645
 3799POPC   C3A51113  28.476  25.151   7.057
 3799POPC   C4A51114  28.585  25.563   7.189
 3799POPC   C1B51115  28.036  25.451   6.144
 3799POPC   C2B51116  28.171  25.653   6.506
 3799POPC   C3B51117  28.155  25.529   6.911
 3799POPC   C4B51118  27.997  25.217   7.216
 3800POPC   NC351119   8.789   4.755   5.559
 3800POPC   PO451120   8.811   4.163   5.474
 3800POPC   GL151121   8.956   4.376   5.843
 3800POPC   GL251122   9.314   4.384   5.962
 3800POPC   C1A51123   8.894   4.511   6.246
 3800POPC   D2A51124   8.732   4.343   6.618
 3800POPC   C3A51125   8.862   4.489   7.003
 3800POPC   C4A51126   8.570   4.505   7.281
 3800POPC   C1B51127   9.088   4.015   6.162
 3800POPC   C2B51128   8.945   3.890   6.546
 3800POPC   C3B51129   8.980   3.997   6.937
 3800POPC   C4B51130   8.857   4.042   7.349
 3801POPC   NC351131  34.992  30.888   5.790
 3801POPC   PO451132  34.406  30.883   5.358
 3801POPC   GL151133  34.357  30.827   5.796
 3801POPC   GL251134  34.556  30.512   5.900
 3801POPC   C1A51135  34.515  30.868   6.244
 3801POPC   D2A51136  34.783  30.697   6.567
 3801POPC   C3A51137  34.486  30.534   6.831
 3801POPC   C4A51138  34.504  30.683   7.192
 3801POPC   C1B51139  34.777  30.298   6.256
 3801POPC   C2B51140  34.863  30.192   6.712
 3801POPC   C3B51141  34.964  30.483   7.086
 3801POPC   C4B51142  34.821  30.509   7.546
 3802POPC   NC351143   8.590   8.360   5.398
 3802POPC   PO451144   9.159   7.929   5.474
 3802POPC   GL151145   8.847   8.083   5.779
 3802POPC   GL251146   8.750   8.440   5.866
 3802POPC   C1A51147   8.843   8.051   6.217
 3802POPC   D2A51148   9.177   8.177   6.469
 3802POPC   C3A51149   9.105   8.158   6.896
 3802POPC   C4A51150   9.073   8.575   7.081
 3802POPC   C1B51151   8.868   8.589   6.265
 3802POPC   C2B51152   8.719   8.428   6.647
 3802POPC   C3B51153   8.611   8.359   7.061
 3802POPC   C4B51154   8.687   8.584   7.467
 3803POPC   NC351155  44.426  15.091   5.447
 3803POPC   PO451156  43.791  14.938   5.267
 3803POPC   GL151157  43.873  15.164   5.690
 3803POPC   GL251158  44.151  15.405   5.791
 3803POPC   C1A51159  43.745  15.033   6.124
 3803POPC   D2A51160  43.881  14.997   6.555
 3803POPC   C3A51161  43.674  15.287   6.821
 3803POPC   C4A51162  43.715  15.225   7.257
 3803POPC   C1B51163  44.221  15.213   6.204
 3803POPC   C2B51164  44.179  15.423   6.612
 3803POPC   C3B51165  44.166  15.228   7.002
 3803POPC   C4B51166  44.221  15.006   7.380
 3804POPC   NC351167  30.346  27.010   5.570
 3804POPC   PO451168  29.684  26.758   5.526
 3804POPC   GL151169  29.718  27.087   5.847
 3804POPC   GL251170  29.383  27.271   5.811
 3804POPC   C1A51171  29.837  26.995   6.329
 3804POPC   D2A51172  29.875  26.620   6.623
 3804POPC   C3A51173  29.985  26.655   7.067
 3804POPC   C4A51174  30.150  27.026   7.256
 3804POPC   C1B51175  29.350  26.979   6.175
 3804POPC   C2B51176  29.395  26.835   6.592
 3804POPC   C3B51177  29.666  27.012   6.899
 3804POPC   C4B51178  29.629  26.970   7.342
 3805POPC   NC351179  13.567  10.640   5.513
 3805POPC   PO451180  13.953  10.221   5.151
 3805POPC   GL151181  14.045  10.516   5.668
 3805POPC   GL251182  14.212  10.242   5.851
 3805POPC   C1A51183  13.744  10.645   6.122
 3805POPC   D2A51184  13.632  10.501   6.577
 3805POPC   C3A51185  13.607  10.773   6.952
 3805POPC   C4A51186  13.419  10.788   7.401
 3805POPC   C1B51187  13.976  10.201   6.240
 3805POPC   C2B51188  13.839  10.028   6.631
 3805POPC   C3B51189  13.536  10.093   6.932
 3805POPC   C4B51190  13.632  10.361   7.243
 3806POPC   NC351191  18.659  23.738   5.503
 3806POPC   PO451192  19.319  23.673   5.372
 3806POPC   GL151193  19.123  23.770   5.764
 3806POPC   GL251194  18.954  24.054   5.775
 3806POPC   C1A51195  19.263  23.746   6.210
 3806POPC   D2A51196  19.061  23.558   6.591
 3806POPC   C3A51197  19.324  23.648   6.946
 3806POPC   C4A51198  19.406  23.994   7.191
 3806POPC   C1B51199  18.762  23.787   6.156
 3806POPC   C2B51200  18.635  23.967   6.548
 3806POPC   C3B51201  18.976  24.040   6.833
 3806POPC   C4B51202  18.924  23.801   7.215
 3807POPC   NC351203  27.737  41.997   5.340
 3807POPC   PO451204  27.407  42.663   5.445
 3807POPC   GL151205  27.602  42.650   5.819
 3807POPC   GL251206  27.748  42.345   5.719
 3807POPC   C1A51207  27.470  42.642   6.247
 3807POPC   D2A51208  27.205  42.586   6.606
 3807POPC   C3A51209  27.462  42.621   6.942
 3807POPC   C4A51210  27.773  42.306   7.155
 3807POPC   C1B51211  27.669  42.104   6.076
 3807POPC   C2B51212  27.384  42.148   6.403
 3807POPC   C3B51213  27.442  42.120   6.819
 3807POPC   C4B51214  27.241  42.227   7.185
 3808POPC   NC351215  19.301   3.505   5.583
 3808POPC   PO451216  18.648   3.889   5.530
 3808POPC   GL151217  18.858   3.730   5.849
 3808POPC   GL251218  18.875   3.394   5.865
 3808POPC   C1A51219  18.693   3.649   6.261
 3808POPC   D2A51220  18.794   3.810   6.638
 3808POPC   C3A51221  18.900   3.555   6.966
 3808POPC   C4A51222  19.083   3.704   7.318
 3808POPC   C1B51223  19.187   3.529   6.241
 3808POPC   C2B51224  19.334   3.602   6.688
 3808POPC   C3B51225  19.379   3.336   7.074
 3808POPC   C4B51226  19.145   3.206   7.456
 3809POPC   NC351227  41.747   3.039   5.596
 3809POPC   PO451228  41.548   2.424   5.462
 3809POPC   GL151229  41.470   2.606   5.865
 3809POPC   GL251230  41.305   2.318   5.993
 3809POPC   C1A51231  41.660   2.834   6.254
 3809POPC   D2A51232  41.788   2.995   6.665
 3809POPC   C3A51233  41.699   2.920   7.111
 3809POPC   C4A51234  41.664   3.016   7.540
 3809POPC   C1B51235  41.389   2.403   6.370
 3809POPC   C2B51236  41.373   2.662   6.666
 3809POPC   C3B51237  41.358   2.518   7.029
 3809POPC   C4B51238  41.248   2.747   7.346
 3810POPC   NC351239  26.344  41.063   5.483
 3810POPC   PO451240  25.704  40.795   5.492
 3810POPC   GL151241  26.033  40.766   5.766
 3810POPC   GL251242  25.977  41.121   5.828
 3810POPC   C1A51243  26.256  40.542   6.083
 3810POPC   D2A51244  26.163  40.373   6.466
 3810POPC   C3A51245  26.011  40.617   6.808
 3810POPC   C4A51246  26.220  40.649   7.196
 3810POPC   C1B51247  26.204  41.051   6.205
 3810POPC   C2B51248  26.102  41.155   6.641
 3810POPC   C3B51249  26.403  41.205   6.950
 3810POPC   C4B51250  26.470  41.044   7.380
 3811POPC   NC351251   6.882  35.390   5.391
 3811POPC   PO451252   7.482  35.344   5.171
 3811POPC   GL151253   7.447  35.549   5.591
 3811POPC   GL251254   7.123  35.690   5.727
 3811POPC   C1A51255   7.539  35.655   6.039
 3811POPC   D2A51256   7.659  35.516   6.463
 3811POPC   C3A51257   7.469  35.348   6.839
 3811POPC   C4A51258   7.412  35.374   7.279
 3811POPC   C1B51259   7.101  35.427   6.121
 3811POPC   C2B51260   7.136  35.609   6.549
 3811POPC   C3B51261   7.114  35.685   6.998
 3811POPC   C4B51262   6.889  35.394   7.228
 3812POPC   NC351263   2.325  42.881   5.516
 3812POPC   PO451264   2.950  43.217   5.442
 3812POPC   GL151265   2.770  43.000   5.786
 3812POPC   GL251266   2.596  43.287   5.858
 3812POPC   C1A51267   2.786  42.811   6.207
 3812POPC   D2A51268   2.768  42.541   6.577
 3812POPC   C3A51269   2.866  42.706   6.986
 3812POPC   C4A51270   3.155  43.005   7.183
 3812POPC   C1B51271   2.872  43.322   6.243
 3812POPC   C2B51272   2.886  43.197   6.703
 3812POPC   C3B51273   2.668  43.175   7.115
 3812POPC   C4B51274   2.546  43.357   7.514
 3813POPC   NC351275  25.967   3.975   5.457
 3813POPC   PO451276  26.153   4.640   5.328
 3813POPC   GL151277  26.044   4.443   5.735
 3813POPC   GL251278  26.292   4.183   5.817
 3813POPC   C1A51279  25.781   4.435   6.152
 3813POPC   D2A51280  25.705   4.182   6.556
 3813POPC   C3A51281  25.833   4.218   6.997
 3813POPC   C4A51282  25.806   4.660   7.162
 3813POPC   C1B51283  26.322   4.415   6.191
 3813POPC   C2B51284  26.111   4.536   6.541
 3813POPC   C3B51285  26.266   4.453   6.919
 3813POPC   C4B51286  26.324   4.631   7.279
 3814POPC   NC351287  29.909  13.977   5.002
 3814POPC   PO451288  30.081  14.613   5.335
 3814POPC   GL151289  30.052  14.463   5.758
 3814POPC   GL251290  29.888  14.188   5.887
 3814POPC   C1A51291  30.061  14.473   6.254
 3814POPC   D2A51292  29.911  14.478   6.672
 3814POPC   C3A51293  30.085  14.751   7.024
 3814POPC   C4A51294  29.987  14.757   7.468
 3814POPC   C1B51295  30.110  13.965   6.190
 3814POPC   C2B51296  30.217  14.030   6.629
 3814POPC   C3B51297  30.173  14.244   7.020
 3814POPC   C4B51298  29.851  14.293   7.280
 3815POPC   NC351299  12.426   2.930   5.139
 3815POPC   PO451300  11.914   2.609   5.302
 3815POPC   GL151301  11.923   2.859   5.670
 3815POPC   GL251302  11.951   2.555   5.881
 3815POPC   C1A51303  11.992   3.027   6.095
 3815POPC   D2A51304  12.147   3.055   6.534
 3815POPC   C3A51305  11.994   2.761   6.873
 3815POPC   C4A51306  12.183   2.721   7.316
 3815POPC   C1B51307  12.067   2.544   6.330
 3815POPC   C2B51308  12.076   2.276   6.716
 3815POPC   C3B51309  11.987   2.283   7.181
 3815POPC   C4B51310  11.668   2.595   7.402
 3816POPC   NC351311  33.000  34.325   5.234
 3816POPC   PO451312  32.853  34.955   5.300
 3816POPC   GL151313  32.991  34.677   5.669
 3816POPC   GL251314  32.905  34.343   5.768
 3816POPC   C1A51315  32.953  34.794   6.135
 3816POPC   D2A51316  33.195  34.902   6.540
 3816POPC   C3A51317  33.032  34.908   6.980
 3816POPC   C4A51318  33.069  34.658   7.364
 3816POPC   C1B51319  32.867  34.306   6.216
 3816POPC   C2B51320  32.779  34.579   6.578
 3816POPC   C3B51321  32.910  34.426   6.930
 3816POPC   C4B51322  32.801  34.232   7.258
 3817POPC   NC351323   0.003   4.818   5.557
 3817POPC   PO451324   0.616   5.209   5.390
 3817POPC   GL151325   0.450   5.119   5.790
 3817POPC   GL251326   0.816   5.151   5.866
 3817POPC   C1A51327   0.190   5.075   6.194
 3817POPC   D2A51328   0.130   4.857   6.614
 3817POPC   C3A51329   0.393   4.916   6.958
 3817POPC   C4A51330   0.364   5.058   7.379
 3817POPC   C1B51331   0.734   5.024   6.268
 3817POPC   C2B51332   0.905   5.049   6.667
 3817POPC   C3B51333   0.885   4.926   7.089
 3817POPC   C4B51334   0.835   5.256   7.353
 3818POPC   NC351335   2.053  11.034   5.125
 3818POPC   PO451336   1.983  10.453   5.212
 3818POPC   GL151337   1.842  10.417   5.658
 3818POPC   GL251338   2.103  10.551   5.895
 3818POPC   C1A51339   1.748  10.257   6.077
 3818POPC   D2A51340   2.044  10.273   6.427
 3818POPC   C3A51341   1.844  10.291   6.828
 3818POPC   C4A51342   1.979  10.443   7.210
 3818POPC   C1B51343   2.139  10.791   6.254
 3818POPC   C2B51344   1.929  10.787   6.639
 3818POPC   C3B51345   1.810  10.909   7.042
 3818POPC   C4B51346   2.050  10.921   7.423
 3819POPC   NC351347  31.654  20.800   5.541
 3819POPC   PO451348  31.595  21.408   5.611
 3819POPC   GL151349  31.415  21.107   5.889
 3819POPC   GL251350  31.073  21.038   5.864
 3819POPC   C1A51351  31.328  21.010   6.327
 3819POPC   D2A51352  31.231  21.149   6.746
 3819POPC   C3A51353  31.495  21.145   7.118
 3819POPC   C4A51354  31.612  21.128   7.585
 3819POPC   C1B51355  31.108  21.442   6.146
 3819POPC   C2B51356  31.035  21.592   6.587
 3819POPC   C3B51357  31.163  21.580   7.035
 3819POPC   C4B51358  31.197  21.396   7.433
 3820POPC   NC351359  44.421  22.688   5.261
 3820POPC   PO451360  44.752  23.255   5.234
 3820POPC   GL151361  44.655  23.107   5.688
 3820POPC   GL251362  44.729  22.744   5.809
 3820POPC   C1A51363  44.568  23.070   6.162
 3820POPC   D2A51364  44.695  22.861   6.573
 3820POPC   C3A51365  44.477  22.955   6.950
 3820POPC   C4A51366  44.287  23.318   7.136
 3820POPC   C1B51367  44.528  22.534   6.202
 3820POPC   C2B51368  44.361  22.482   6.636
 3820POPC   C3B51369  44.673  22.460   6.913
 3820POPC   C4B51370  44.863  22.707   7.144
 3821POPC   NC351371   1.913  17.990   5.378
 3821POPC   PO451372   2.393  18.491   5.330
 3821POPC   GL151373   2.203  18.333   5.712
 3821POPC   GL251374   2.195  17.962   5.804
 3821POPC   C1A51375   2.043  18.539   6.075
 3821POPC   D2A51376   2.157  18.503   6.493
 3821POPC   C3A51377   1.879  18.549   6.834
 3821POPC   C4A51378   1.973  18.441   7.247
 3821POPC   C1B51379   1.930  18.034   6.154
 3821POPC   C2B51380   2.043  18.028   6.565
 3821POPC   C3B51381   1.869  18.047   6.940
 3821POPC   C4B51382   1.979  17.938   7.319
 3822POPC   NC351383  28.771  10.274   5.308
 3822POPC   PO451384  29.265  10.724   5.467
 3822POPC   GL151385  29.007  10.662   5.805
 3822POPC   GL251386  28.969  10.318   5.784
 3822POPC   C1A51387  29.043  10.817   6.230
 3822POPC   D2A51388  29.342  10.690   6.548
 3822POPC   C3A51389  29.200  10.663   6.988
 3822POPC   C4A51390  29.230  10.531   7.423
 3822POPC   C1B51391  29.175  10.311   6.175
 3822POPC   C2B51392  29.259  10.103   6.542
 3822POPC   C3B51393  29.112  10.147   6.947
 3822POPC   C4B51394  29.322  10.045   7.326
 3823POPC   NC351395  40.368  19.458   5.380
 3823POPC   PO451396  40.505  18.807   5.563
 3823POPC   GL151397  40.741  19.016   5.889
 3823POPC   GL251398  40.978  19.286   5.790
 3823POPC   C1A51399  40.727  19.251   6.286
 3823POPC   D2A51400  40.707  19.204   6.730
 3823POPC   C3A51401  40.951  18.885   6.923
 3823POPC   C4A51402  41.029  18.588   7.253
 3823POPC   C1B51403  41.209  19.383   6.163
 3823POPC   C2B51404  41.213  19.235   6.599
 3823POPC   C3B51405  41.106  19.374   7.013
 3823POPC   C4B51406  41.090  19.105   7.367
 3824POPC   NC351407   5.071  43.425   5.261
 3824POPC   PO451408   4.901  42.873   5.567
 3824POPC   GL151409   5.130  42.991   5.883
 3824POPC   GL251410   5.152  43.337   5.775
 3824POPC   C1A51411   4.989  42.901   6.281
 3824POPC   D2A51412   5.117  43.087   6.674
 3824POPC   C3A51413   4.993  42.936   7.082
 3824POPC   C4A51414   5.298  43.011   7.400
 3824POPC   C1B51415   5.105  43.410   6.226
 3824POPC   C2B51416   5.045  43.602   6.651
 3824POPC   C3B51417   5.151  43.429   7.066
 3824POPC   C4B51418   5.019  43.525   7.464
 3825POPC   NC351419  26.522   6.570   5.515
 3825POPC   PO451420  27.022   7.008   5.449
 3825POPC   GL151421  26.803   6.882   5.858
 3825POPC   GL251422  26.464   6.745   5.990
 3825POPC   C1A51423  26.872   6.543   6.203
 3825POPC   D2A51424  27.083   6.382   6.597
 3825POPC   C3A51425  26.797   6.383   6.919
 3825POPC   C4A51426  26.696   6.510   7.316
 3825POPC   C1B51427  26.552   7.045   6.268
 3825POPC   C2B51428  26.633   7.046   6.694
 3825POPC   C3B51429  26.571   6.970   7.134
 3825POPC   C4B51430  26.516   6.926   7.592
 3826POPC   NC351431  30.256  42.718   5.461
 3826POPC   PO451432  29.747  42.216   5.486
 3826POPC   GL151433  29.876  42.366   5.856
 3826POPC   GL251434  30.212  42.405   5.862
 3826POPC   C1A51435  29.838  42.486   6.273
 3826POPC   D2A51436  29.565  42.351   6.614
 3826POPC   C3A51437  29.674  42.539   6.996
 3826POPC   C4A51438  29.967  42.578   7.411
 3826POPC   C1B51439  30.222  42.136   6.214
 3826POPC   C2B51440  30.089  42.207   6.640
 3826POPC   C3B51441  30.058  42.220   7.066
 3826POPC   C4B51442  30.376  42.203   7.324
 3827POPC   NC351443  28.946  14.639   5.227
 3827POPC   PO451444  29.486  14.426   5.444
 3827POPC   GL151445  29.179  14.485   5.727
 3827POPC   GL251446  28.959  14.771   5.745
 3827POPC   C1A51447  28.881  14.296   5.989
 3827POPC   D2A51448  28.825  14.381   6.406
 3827POPC   C3A51449  28.953  14.183   6.770
 3827POPC   C4A51450  28.997  14.427   7.136
 3827POPC   C1B51451  29.102  14.768   6.182
 3827POPC   C2B51452  29.220  14.602   6.623
 3827POPC   C3B51453  29.466  14.410   6.944
 3827POPC   C4B51454  29.476  14.636   7.327
 3828POPC   NC351455  26.485  14.539   5.277
 3828POPC   PO451456  27.077  14.228   5.459
 3828POPC   GL151457  26.746  14.432   5.758
 3828POPC   GL251458  26.678  14.751   5.941
 3828POPC   C1A51459  26.662  14.283   6.180
 3828POPC   D2A51460  26.579  14.415   6.589
 3828POPC   C3A51461  26.805  14.210   6.896
 3828POPC   C4A51462  26.847  14.400   7.291
 3828POPC   C1B51463  27.074  14.582   6.122
 3828POPC   C2B51464  27.149  14.409   6.533
 3828POPC   C3B51465  27.185  14.602   6.932
 3828POPC   C4B51466  27.245  14.718   7.345
 3829POPC   NC351467  14.479  39.410   5.412
 3829POPC   PO451468  13.971  38.956   5.514
 3829POPC   GL151469  14.102  39.297   5.826
 3829POPC   GL251470  14.463  39.255   5.878
 3829POPC   C1A51471  14.180  39.333   6.301
 3829POPC   D2A51472  14.136  39.518   6.712
 3829POPC   C3A51473  14.273  39.381   7.137
 3829POPC   C4A51474  14.280  39.321   7.611
 3829POPC   C1B51475  14.667  39.175   6.249
 3829POPC   C2B51476  14.607  39.333   6.655
 3829POPC   C3B51477  14.649  39.068   7.012
 3829POPC   C4B51478  14.709  39.101   7.448
 3830POPC   NC351479   7.418  38.601   5.639
 3830POPC   PO451480   7.819  37.984   5.574
 3830POPC   GL151481   7.723  38.274   5.936
 3830POPC   GL251482   7.349  38.252   6.025
 3830POPC   C1A51483   7.695  38.520   6.341
 3830POPC   D2A51484   7.472  38.647   6.722
 3830POPC   C3A51485   7.465  38.310   7.029
 3830POPC   C4A51486   7.569  38.260   7.473
 3830POPC   C1B51487   7.182  38.636   6.268
 3830POPC   C2B51488   6.998  38.861   6.630
 3830POPC   C3B51489   7.131  38.955   7.075
 3830POPC   C4B51490   7.323  38.685   7.360
 3831POPC   NC351491   6.000  10.445   5.346
 3831POPC   PO451492   5.376  10.816   5.480
 3831POPC   GL151493   5.676  10.670   5.827
 3831POPC   GL251494   6.012  10.510   5.848
 3831POPC   C1A51495   5.836  10.750   6.269
 3831POPC   D2A51496   5.873  10.966   6.675
 3831POPC   C3A51497   5.648  10.775   6.992
 3831POPC   C4A51498   5.590  10.809   7.414
 3831POPC   C1B51499   5.869  10.233   6.202
 3831POPC   C2B51500   5.832  10.356   6.646
 3831POPC   C3B51501   6.035  10.442   7.051
 3831POPC   C4B51502   5.778  10.290   7.387
 3832POPC   NC351503  23.226  42.557   5.542
 3832POPC   PO451504  23.830  42.608   5.454
 3832POPC   GL151505  23.787  42.634   5.881
 3832POPC   GL251506  23.563  42.358   5.958
 3832POPC   C1A51507  24.022  42.617   6.272
 3832POPC   D2A51508  24.125  42.372   6.658
 3832POPC   C3A51509  24.053  42.697   6.988
 3832POPC   C4A51510  23.793  42.627   7.340
 3832POPC   C1B51511  23.728  42.197   6.368
 3832POPC   C2B51512  23.631  42.344   6.794
 3832POPC   C3B51513  23.208  42.418   6.922
 3832POPC   C4B51514  22.957  42.314   7.250
 3833POPC   NC351515  39.519  35.721   5.574
 3833POPC   PO451516  38.981  35.235   5.422
 3833POPC   GL151517  39.141  35.404   5.768
 3833POPC   GL251518  39.458  35.222   5.726
 3833POPC   C1A51519  39.027  35.567   6.164
 3833POPC   D2A51520  39.134  35.340   6.535
 3833POPC   C3A51521  39.015  35.532   6.881
 3833POPC   C4A51522  38.894  35.367   7.234
 3833POPC   C1B51523  39.533  35.386   6.145
 3833POPC   C2B51524  39.746  35.414   6.533
 3833POPC   C3B51525  39.529  35.428   6.877
 3833POPC   C4B51526  39.378  35.550   7.235
 3834POPC   NC351527  30.281   4.311   5.256
 3834POPC   PO451528  30.886   3.935   5.385
 3834POPC   GL151529  30.893   4.236   5.735
 3834POPC   GL251530  30.549   4.279   5.711
 3834POPC   C1A51531  30.790   4.363   6.168
 3834POPC   D2A51532  30.969   4.248   6.539
 3834POPC   C3A51533  30.703   4.302   6.858
 3834POPC   C4A51534  30.765   4.482   7.243
 3834POPC   C1B51535  30.405   4.050   6.093
 3834POPC   C2B51536  30.466   3.941   6.535
 3834POPC   C3B51537  30.329   3.977   6.995
 3834POPC   C4B51538  30.443   3.727   7.376
 3835POPC   NC351539   1.419  27.349   5.652
 3835POPC   PO451540   1.307  27.958   5.342
 3835POPC   GL151541   1.379  27.850   5.781
 3835POPC   GL251542   1.043  27.655   5.813
 3835POPC   C1A51543   1.531  27.734   6.221
 3835POPC   D2A51544   1.332  27.688   6.608
 3835POPC   C3A51545   1.477  27.662   7.018
 3835POPC   C4A51546   1.358  27.375   7.319
 3835POPC   C1B51547   0.925  27.364   6.163
 3835POPC   C2B51548   1.103  27.249   6.560
 3835POPC   C3B51549   0.994  27.440   6.952
 3835POPC   C4B51550   0.772  27.220   7.239
 3836POPC   NC351551   5.256  12.958   5.155
 3836POPC   PO451552   4.810  13.318   5.542
 3836POPC   GL151553   5.168  13.050   5.694
 3836POPC   GL251554   5.002  12.785   5.930
 3836POPC   C1A51555   5.381  13.078   6.083
 3836POPC   D2A51556   5.438  13.272   6.480
 3836POPC   C3A51557   5.282  13.047   6.791
 3836POPC   C4A51558   5.158  13.048   7.187
 3836POPC   C1B51559   4.973  12.916   6.357
 3836POPC   C2B51560   4.791  12.921   6.748
 3836POPC   C3B51561   4.860  12.656   7.078
 3836POPC   C4B51562   4.975  12.301   7.287
 3837POPC   NC351563  24.466  23.383   5.338
 3837POPC   PO451564  24.366  22.799   5.461
 3837POPC   GL151565  24.465  23.128   5.788
 3837POPC   GL251566  24.209  23.396   5.803
 3837POPC   C1A51567  24.652  23.048   6.193
 3837POPC   D2A51568  24.663  22.811   6.573
 3837POPC   C3A51569  24.735  23.023   6.970
 3837POPC   C4A51570  24.578  22.887   7.388
 3837POPC   C1B51571  24.169  23.226   6.234
 3837POPC   C2B51572  24.397  23.246   6.637
 3837POPC   C3B51573  24.280  23.229   7.091
 3837POPC   C4B51574  24.049  23.036   7.445
 3838POPC   NC351575  44.574  13.768   5.455
 3838POPC   PO451576  44.665  13.158   5.315
 3838POPC   GL151577  44.573  13.302   5.769
 3838POPC   GL251578  44.464  13.608   5.936
 3838POPC   C1A51579  44.844  13.349   6.158
 3838POPC   D2A51580  44.955  13.563   6.560
 3838POPC   C3A51581  44.910  13.331   6.952
 3838POPC   C4A51582  44.621  13.496   7.250
 3838POPC   C1B51583  44.305  13.349   6.290
 3838POPC   C2B51584  44.227  13.457   6.766
 3838POPC   C3B51585  44.124  13.421   7.240
 3838POPC   C4B51586  44.336  13.302   7.662
 3839POPC   NC351587  44.216  18.700   5.448
 3839POPC   PO451588  44.883  18.939   5.440
 3839POPC   GL151589  44.580  19.055   5.767
 3839POPC   GL251590  44.763  19.315   5.920
 3839POPC   C1A51591  44.561  19.007   6.242
 3839POPC   D2A51592  44.701  19.175   6.618
 3839POPC   C3A51593  44.564  19.006   6.997
 3839POPC   C4A51594  44.689  19.164   7.370
 3839POPC   C1B51595  44.328  19.395   6.025
 3839POPC   C2B51596  44.234  19.376   6.469
 3839POPC   C3B51597  44.219  19.379   6.932
 3839POPC   C4B51598  44.330  19.604   7.367
 3840POPC   NC351599  43.391  12.012   5.423
 3840POPC   PO451600  42.978  11.512   5.395
 3840POPC   GL151601  42.935  11.737   5.806
 3840POPC   GL251602  43.026  12.073   5.875
 3840POPC   C1A51603  43.132  11.751   6.244
 3840POPC   D2A51604  43.350  11.948   6.578
 3840POPC   C3A51605  43.130  11.849   6.945
 3840POPC   C4A51606  43.167  11.874   7.388
 3840POPC   C1B51607  43.068  12.296   6.305
 3840POPC   C2B51608  43.134  12.414   6.764
 3840POPC   C3B51609  43.289  12.335   7.203
 3840POPC   C4B51610  43.039  12.298   7.631
 3841POPC   NC351611  27.100   0.167   5.584
 3841POPC   PO451612  26.821   0.695   5.344
 3841POPC   GL151613  26.750   0.536   5.785
 3841POPC   GL251614  27.048   0.507   5.978
 3841POPC   C1A51615  26.630   0.411   6.239
 3841POPC   D2A51616  26.805   0.666   6.559
 3841POPC   C3A51617  26.874   0.433   6.953
 3841POPC   C4A51618  26.576   0.344   7.304
 3841POPC   C1B51619  27.148   0.143   6.277
 3841POPC   C2B51620  27.110  44.894   6.681
 3841POPC   C3B51621  26.935  44.915   7.111
 3841POPC   C4B51622  27.063   0.230   7.394
 3842POPC   NC351623  41.526   9.061   5.464
 3842POPC   PO451624  41.734   8.450   5.333
 3842POPC   GL151625  41.711   8.658   5.807
 3842POPC   GL251626  41.712   9.043   5.967
 3842POPC   C1A51627  41.634   8.671   6.302
 3842POPC   D2A51628  41.753   8.562   6.737
 3842POPC   C3A51629  41.626   8.922   7.021
 3842POPC   C4A51630  41.320   8.984   7.353
 3842POPC   C1B51631  41.900   9.413   6.267
 3842POPC   C2B51632  41.903   9.564   6.722
 3842POPC   C3B51633  41.631   9.435   7.096
 3842POPC   C4B51634  41.754   9.213   7.482
 3843POPC   NC351635  36.601  36.594   5.466
 3843POPC   PO451636  37.158  37.053   5.524
 3843POPC   GL151637  36.799  36.915   5.813
 3843POPC   GL251638  36.904  36.575   5.880
 3843POPC   C1A51639  36.526  36.757   6.176
 3843POPC   D2A51640  36.665  36.932   6.566
 3843POPC   C3A51641  36.702  36.906   7.010
 3843POPC   C4A51642  36.986  37.141   7.252
 3843POPC   C1B51643  37.040  36.687   6.277
 3843POPC   C2B51644  37.021  36.549   6.704
 3843POPC   C3B51645  37.229  36.740   7.031
 3843POPC   C4B51646  37.460  36.825   7.384
 3844POPC   NC351647  12.980  23.215   5.135
 3844POPC   PO451648  12.724  23.765   5.512
 3844POPC   GL151649  12.781  23.790   5.906
 3844POPC   GL251650  12.550  23.575   6.008
 3844POPC   C1A51651  12.999  23.799   6.268
 3844POPC   D2A51652  13.001  23.712   6.687
 3844POPC   C3A51653  12.604  23.691   6.946
 3844POPC   C4A51654  12.514  23.939   7.297
 3844POPC   C1B51655  12.622  23.441   6.431
 3844POPC   C2B51656  12.806  23.251   6.809
 3844POPC   C3B51657  13.143  23.430   7.067
 3844POPC   C4B51658  13.197  23.837   7.235
 3845POPC   NC351659   5.502  35.510   5.734
 3845POPC   PO451660   6.045  35.172   5.494
 3845POPC   GL151661   5.939  35.280   5.875
 3845POPC   GL251662   6.034  35.606   5.860
 3845POPC   C1A51663   5.862  35.166   6.284
 3845POPC   D2A51664   5.943  35.379   6.670
 3845POPC   C3A51665   5.578  35.374   6.937
 3845POPC   C4A51666   5.399  35.261   7.330
 3845POPC   C1B51667   5.799  35.677   6.272
 3845POPC   C2B51668   5.715  35.838   6.696
 3845POPC   C3B51669   5.934  35.719   7.071
 3845POPC   C4B51670   5.865  35.458   7.402
 3846POPC   NC351671  42.239   7.784   5.128
 3846POPC   PO451672  42.597   7.312   5.389
 3846POPC   GL151673  42.462   7.280   5.792
 3846POPC   GL251674  42.651   7.539   5.908
 3846POPC   C1A51675  42.220   7.401   6.173
 3846POPC   D2A51676  42.048   7.617   6.549
 3846POPC   C3A51677  42.169   7.470   6.961
 3846POPC   C4A51678  42.222   7.334   7.391
 3846POPC   C1B51679  42.614   7.734   6.307
 3846POPC   C2B51680  42.570   7.750   6.744
 3846POPC   C3B51681  42.660   7.530   7.105
 3846POPC   C4B51682  42.596   7.610   7.598
 3847POPC   NC351683  42.884  32.462   5.232
 3847POPC   PO451684  43.341  31.911   5.164
 3847POPC   GL151685  43.042  32.082   5.587
 3847POPC   GL251686  43.023  32.445   5.728
 3847POPC   C1A51687  43.152  32.148   6.105
 3847POPC   D2A51688  43.348  32.044   6.530
 3847POPC   C3A51689  43.145  32.079   6.962
 3847POPC   C4A51690  43.388  32.142   7.351
 3847POPC   C1B51691  42.938  32.644   6.160
 3847POPC   C2B51692  42.825  32.519   6.608
 3847POPC   C3B51693  42.808  32.677   7.004
 3847POPC   C4B51694  42.952  32.421   7.367
 3848POPC   NC351695  19.122  33.255   5.376
 3848POPC   PO451696  19.303  32.549   5.350
 3848POPC   GL151697  19.176  32.864   5.715
 3848POPC   GL251698  18.879  33.015   5.800
 3848POPC   C1A51699  19.083  32.785   6.205
 3848POPC   D2A51700  19.170  33.003   6.602
 3848POPC   C3A51701  19.092  32.786   7.029
 3848POPC   C4A51702  19.299  32.857   7.419
 3848POPC   C1B51703  18.889  33.259   6.227
 3848POPC   C2B51704  18.966  33.461   6.664
 3848POPC   C3B51705  19.104  33.291   7.088
 3848POPC   C4B51706  18.850  33.091   7.436
 3849POPC   NC351707  44.963  24.638   5.155
 3849POPC   PO451708  44.516  24.166   5.395
 3849POPC   GL151709  44.563  24.345   5.814
 3849POPC   GL251710  44.834  24.546   5.793
 3849POPC   C1A51711  44.382  24.600   6.150
 3849POPC   D2A51712  44.416  24.646   6.596
 3849POPC   C3A51713  44.513  24.304   6.878
 3849POPC   C4A51714  44.393  24.231   7.313
 3849POPC   C1B51715  44.890  24.669   6.232
 3849POPC   C2B51716  44.895  24.838   6.671
 3849POPC   C3B51717  44.667  24.769   7.045
 3849POPC   C4B51718  44.855  24.453   7.253
 3850POPC   NC351719   6.829  33.395   5.141
 3850POPC   PO451720   6.328  33.057   5.469
 3850POPC   GL151721   6.503  32.870   5.865
 3850POPC   GL251722   6.799  32.679   5.803
 3850POPC   C1A51723   6.647  33.057   6.292
 3850POPC   D2A51724   6.642  33.283   6.717
 3850POPC   C3A51725   6.443  33.273   7.131
 3850POPC   C4A51726   6.684  33.281   7.537
 3850POPC   C1B51727   6.892  32.606   6.260
 3850POPC   C2B51728   6.954  32.819   6.674
 3850POPC   C3B51729   6.774  32.886   7.088
 3850POPC   C4B51730   6.588  32.795   7.525
 3851POPC   NC351731   2.882  34.037   5.445
 3851POPC   PO451732   2.682  33.440   5.424
 3851POPC   GL151733   2.666  33.676   5.795
 3851POPC   GL251734   2.645  33.405   5.980
 3851POPC   C1A51735   2.825  33.744   6.268
 3851POPC   D2A51736   2.744  33.600   6.652
 3851POPC   C3A51737   2.761  33.832   6.974
 3851POPC   C4A51738   2.877  33.717   7.387
 3851POPC   C1B51739   2.408  33.336   6.345
 3851POPC   C2B51740   2.413  33.235   6.771
 3851POPC   C3B51741   2.621  33.369   7.142
 3851POPC   C4B51742   2.540  33.391   7.619
 3852POPC   NC351743   8.521   9.913   5.398
 3852POPC   PO451744   7.979   9.535   5.579
 3852POPC   GL151745   8.239   9.748   5.867
 3852POPC   GL251746   8.219  10.090   5.794
 3852POPC   C1A51747   8.179   9.830   6.316
 3852POPC   D2A51748   7.931   9.936   6.690
 3852POPC   C3A51749   7.995   9.632   6.999
 3852POPC   C4A51750   8.329   9.531   7.308
 3852POPC   C1B51751   8.520  10.164   6.091
 3852POPC   C2B51752   8.658   9.954   6.456
 3852POPC   C3B51753   8.432   9.873   6.836
 3852POPC   C4B51754   8.525  10.004   7.245
 3853POPC   NC351755  38.020  24.511   5.486
 3853POPC   PO451756  37.393  24.758   5.182
 3853POPC   GL151757  37.591  24.688   5.707
 3853POPC   GL251758  37.352  24.704   5.962
 3853POPC   C1A51759  37.765  24.378   6.115
 3853POPC   D2A51760  37.951  24.169   6.557
 3853POPC   C3A51761  37.852  24.198   7.035
 3853POPC   C4A51762  37.822  24.342   7.504
 3853POPC   C1B51763  37.377  24.568   6.402
 3853POPC   C2B51764  37.431  24.388   6.813
 3853POPC   C3B51765  37.591  24.640   7.169
 3853POPC   C4B51766  37.527  24.806   7.587
 3854POPC   NC351767  15.087   8.546   5.425
 3854POPC   PO451768  15.287   7.933   5.396
 3854POPC   GL151769  15.317   8.226   5.745
 3854POPC   GL251770  14.993   8.214   5.848
 3854POPC   C1A51771  15.298   8.254   6.247
 3854POPC   D2A51772  15.599   8.104   6.601
 3854POPC   C3A51773  15.444   8.247   6.999
 3854POPC   C4A51774  15.262   8.158   7.418
 3854POPC   C1B51775  14.844   8.485   6.223
 3854POPC   C2B51776  15.026   8.472   6.661
 3854POPC   C3B51777  14.918   8.253   7.055
 3854POPC   C4B51778  14.776   8.324   7.514
 3855POPC   NC351779   1.071  21.739   5.469
 3855POPC   PO451780   1.455  21.260   5.738
 3855POPC   GL151781   1.068  21.220   5.879
 3855POPC   GL251782   0.896  21.536   5.888
 3855POPC   C1A51783   1.119  21.300   6.323
 3855POPC   D2A51784   1.245  21.083   6.700
 3855POPC   C3A51785   1.209  21.328   7.076
 3855POPC   C4A51786   1.405  21.136   7.452
 3855POPC   C1B51787   0.748  21.645   6.267
 3855POPC   C2B51788   0.910  21.597   6.711
 3855POPC   C3B51789   0.844  21.693   7.147
 3855POPC   C4B51790   0.752  21.633   7.578
 3856POPC   NC351791  14.926  13.076   5.352
 3856POPC   PO451792  15.168  12.375   5.458
 3856POPC   GL151793  15.067  12.721   5.720
 3856POPC   GL251794  14.807  12.613   5.912
 3856POPC   C1A51795  15.117  12.962   6.128
 3856POPC   D2A51796  15.414  13.025   6.504
 3856POPC   C3A51797  15.267  12.993   6.940
 3856POPC   C4A51798  15.207  12.874   7.371
 3856POPC   C1B51799  15.073  12.486   6.300
 3856POPC   C2B51800  15.129  12.516   6.774
 3856POPC   C3B51801  14.838  12.705   7.086
 3856POPC   C4B51802  14.745  12.736   7.558
 3857POPC   NC351803  29.732  31.785   5.376
 3857POPC   PO451804  30.354  31.461   5.263
 3857POPC   GL151805  30.132  31.540   5.663
 3857POPC   GL251806  29.954  31.213   5.663
 3857POPC   C1A51807  29.953  31.701   6.087
 3857POPC   D2A51808  29.768  31.699   6.537
 3857POPC   C3A51809  29.997  31.598   6.915
 3857POPC   C4A51810  30.066  31.526   7.375
 3857POPC   C1B51811  29.821  31.205   6.086
 3857POPC   C2B51812  29.711  31.192   6.539
 3857POPC   C3B51813  29.827  31.122   6.962
 3857POPC   C4B51814  29.678  31.195   7.367
 3858POPC   NC351815   2.875  21.159   5.441
 3858POPC   PO451816   2.352  21.551   5.405
 3858POPC   GL151817   2.689  21.555   5.776
 3858POPC   GL251818   3.015  21.747   5.864
 3858POPC   C1A51819   2.724  21.559   6.257
 3858POPC   D2A51820   2.808  21.313   6.631
 3858POPC   C3A51821   2.574  21.345   7.033
 3858POPC   C4A51822   2.416  21.017   7.323
 3858POPC   C1B51823   3.206  21.388   6.121
 3858POPC   C2B51824   3.337  21.375   6.558
 3858POPC   C3B51825   3.106  21.582   6.940
 3858POPC   C4B51826   2.849  21.742   7.276
 3859POPC   NC351827  20.826  16.004   5.358
 3859POPC   PO451828  20.280  15.684   5.470
 3859POPC   GL151829  20.576  15.816   5.794
 3859POPC   GL251830  20.639  16.167   5.815
 3859POPC   C1A51831  20.542  15.913   6.235
 3859POPC   D2A51832  20.693  15.697   6.549
 3859POPC   C3A51833  20.640  15.953   6.883
 3859POPC   C4A51834  20.288  16.035   7.124
 3859POPC   C1B51835  20.928  16.273   6.181
 3859POPC   C2B51836  21.163  16.137   6.556
 3859POPC   C3B51837  21.083  16.190   7.004
 3859POPC   C4B51838  20.697  16.363   7.193
 3860POPC   NC351839  13.163   2.292   5.358
 3860POPC   PO451840  12.691   1.898   5.129
 3860POPC   GL151841  12.760   2.018   5.597
 3860POPC   GL251842  12.845   1.750   5.817
 3860POPC   C1A51843  12.587   2.154   6.041
 3860POPC   D2A51844  12.751   2.216   6.499
 3860POPC   C3A51845  12.543   2.195   6.931
 3860POPC   C4A51846  12.738   2.226   7.353
 3860POPC   C1B51847  12.939   1.824   6.226
 3860POPC   C2B51848  12.853   1.666   6.618
 3860POPC   C3B51849  12.884   1.809   7.034
 3860POPC   C4B51850  13.019   1.769   7.431
 3861POPC   NC351851  27.037  27.720   5.444
 3861POPC   PO451852  26.453  27.410   5.316
 3861POPC   GL151853  26.601  27.589   5.811
 3861POPC   GL251854  26.962  27.695   5.931
 3861POPC   C1A51855  26.713  27.393   6.262
 3861POPC   D2A51856  27.054  27.337   6.573
 3861POPC   C3A51857  26.920  27.366   7.001
 3861POPC   C4A51858  27.014  27.307   7.437
 3861POPC   C1B51859  26.748  27.914   6.251
 3861POPC   C2B51860  26.731  27.757   6.653
 3861POPC   C3B51861  26.724  27.849   7.068
 3861POPC   C4B51862  27.068  27.794   7.341
 3862POPC   NC351863  30.908  30.237   5.666
 3862POPC   PO451864  30.580  30.750   5.256
 3862POPC   GL151865  30.678  30.711   5.757
 3862POPC   GL251866  30.552  30.424   5.978
 3862POPC   C1A51867  30.618  30.879   6.205
 3862POPC   D2A51868  30.439  30.562   6.513
 3862POPC   C3A51869  30.615  30.496   6.930
 3862POPC   C4A51870  30.555  30.839   7.236
 3862POPC   C1B51871  30.914  30.462   6.296
 3862POPC   C2B51872  31.034  30.671   6.688
 3862POPC   C3B51873  31.032  30.716   7.142
 3862POPC   C4B51874  30.801  30.460   7.454
 3863POPC   NC351875  11.057  41.698   5.437
 3863POPC   PO451876  11.628  41.468   5.354
 3863POPC   GL151877  11.427  41.590   5.776
 3863POPC   GL251878  11.431  41.227   5.854
 3863POPC   C1A51879  11.259  41.553   6.235
 3863POPC   D2A51880  11.474  41.584   6.652
 3863POPC   C3A51881  11.288  41.496   7.051
 3863POPC   C4A51882  11.275  41.741   7.458
 3863POPC   C1B51883  11.436  41.045   6.265
 3863POPC   C2B51884  11.725  41.121   6.607
 3863POPC   C3B51885  11.715  41.220   7.039
 3863POPC   C4B51886  11.535  41.300   7.469
 3864POPC   NC351887  20.464  18.559   5.345
 3864POPC   PO451888  20.312  18.001   5.680
 3864POPC   GL151889  20.473  18.119   6.050
 3864POPC   GL251890  20.615  18.379   5.889
 3864POPC   C1A51891  20.675  18.215   6.449
 3864POPC   D2A51892  20.941  17.974   6.733
 3864POPC   C3A51893  20.749  17.995   7.134
 3864POPC   C4A51894  20.365  18.197   7.261
 3864POPC   C1B51895  20.880  18.596   6.150
 3864POPC   C2B51896  20.782  18.720   6.571
 3864POPC   C3B51897  20.718  18.486   6.950
 3864POPC   C4B51898  20.761  18.588   7.386
 3865POPC   NC351899  44.452  23.582   5.402
 3865POPC   PO451900   0.093  23.654   5.636
 3865POPC   GL151901  44.692  23.598   5.876
 3865POPC   GL251902  44.430  23.852   5.822
 3865POPC   C1A51903  44.384  23.554   6.231
 3865POPC   D2A51904  44.404  23.314   6.603
 3865POPC   C3A51905  44.688  23.499   6.890
 3865POPC   C4A51906  44.613  23.809   7.178
 3865POPC   C1B51907  44.657  24.020   6.188
 3865POPC   C2B51908  44.783  23.921   6.617
 3865POPC   C3B51909   0.070  23.933   6.979
 3865POPC   C4B51910   0.031  24.003   7.408
 3866POPC   NC351911   6.892   9.995   5.316
 3866POPC   PO451912   6.430  10.476   5.137
 3866POPC   GL151913   6.471  10.390   5.603
 3866POPC   GL251914   6.473  10.734   5.747
 3866POPC   C1A51915   6.729  10.384   6.012
 3866POPC   D2A51916   6.943  10.445   6.443
 3866POPC   C3A51917   6.696  10.430   6.822
 3866POPC   C4A51918   6.708  10.366   7.244
 3866POPC   C1B51919   6.363  10.727   6.182
 3866POPC   C2B51920   6.274  10.652   6.606
 3866POPC   C3B51921   6.317  10.879   6.996
 3866POPC   C4B51922   6.423  10.787   7.428
 3867POPC   NC351923  33.403   5.185   5.441
 3867POPC   PO451924  32.816   4.910   5.426
 3867POPC   GL151925  32.910   4.963   5.893
 3867POPC   GL251926  33.280   4.962   5.877
 3867POPC   C1A51927  32.919   5.064   6.379
 3867POPC   D2A51928  33.170   5.371   6.654
 3867POPC   C3A51929  33.206   5.349   7.112
 3867POPC   C4A51930  32.950   5.132   7.396
 3867POPC   C1B51931  33.412   5.089   6.277
 3867POPC   C2B51932  33.308   4.870   6.694
 3867POPC   C3B51933  33.334   4.838   7.165
 3867POPC   C4B51934  33.193   4.741   7.629
 3868POPC   NC351935   6.914  39.397   5.305
 3868POPC   PO451936   6.351  38.959   5.424
 3868POPC   GL151937   6.546  39.270   5.724
 3868POPC   GL251938   6.933  39.294   5.802
 3868POPC   C1A51939   6.597  39.143   6.172
 3868POPC   D2A51940   6.487  38.916   6.561
 3868POPC   C3A51941   6.629  39.108   6.932
 3868POPC   C4A51942   6.699  39.091   7.346
 3868POPC   C1B51943   7.084  39.281   6.234
 3868POPC   C2B51944   6.908  39.367   6.613
 3868POPC   C3B51945   7.029  39.449   7.047
 3868POPC   C4B51946   6.997  39.448   7.522
 3869POPC   NC351947   8.485  35.196   5.455
 3869POPC   PO451948   9.166  35.483   5.399
 3869POPC   GL151949   8.976  35.498   5.796
 3869POPC   GL251950   8.786  35.199   5.851
 3869POPC   C1A51951   9.058  35.413   6.233
 3869POPC   D2A51952   8.851  35.369   6.629
 3869POPC   C3A51953   9.053  35.369   7.017
 3869POPC   C4A51954   9.105  35.682   7.298
 3869POPC   C1B51955   8.548  34.968   6.152
 3869POPC   C2B51956   8.514  34.997   6.583
 3869POPC   C3B51957   8.769  34.936   6.943
 3869POPC   C4B51958   8.581  34.995   7.318
 3870POPC   NC351959  15.149  22.392   5.366
 3870POPC   PO451960  15.112  23.045   5.307
 3870POPC   GL151961  15.323  22.858   5.698
 3870POPC   GL251962  15.566  23.140   5.739
 3870POPC   C1A51963  15.213  22.651   6.111
 3870POPC   D2A51964  15.003  22.902   6.416
 3870POPC   C3A51965  14.902  22.756   6.813
 3870POPC   C4A51966  14.865  23.017   7.153
 3870POPC   C1B51967  15.330  23.187   6.097
 3870POPC   C2B51968  15.432  23.161   6.512
 3870POPC   C3B51969  15.342  23.005   6.892
 3870POPC   C4B51970  15.324  23.171   7.278
 3871POPC   NC351971  16.136  42.990   5.404
 3871POPC   PO451972  15.471  43.229   5.197
 3871POPC   GL151973  15.756  43.175   5.671
 3871POPC   GL251974  15.700  42.881   5.895
 3871POPC   C1A51975  16.028  43.184   6.107
 3871POPC   D2A51976  16.134  42.861   6.429
 3871POPC   C3A51977  16.175  42.972   6.859
 3871POPC   C4A51978  16.068  43.248   7.208
 3871POPC   C1B51979  15.682  42.678   6.291
 3871POPC   C2B51980  15.600  42.847   6.717
 3871POPC   C3B51981  15.599  43.050   7.149
 3871POPC   C4B51982  15.700  43.064   7.617
 3872POPC   NC351983  12.928  38.929   5.266
 3872POPC   PO451984  12.624  39.459   5.471
 3872POPC   GL151985  12.877  39.167   5.714
 3872POPC   GL251986  12.796  39.353   5.969
 3872POPC   C1A51987  12.993  38.935   6.129
 3872POPC   D2A51988  12.759  39.060   6.523
 3872POPC   C3A51989  12.818  39.195   6.934
 3872POPC   C4A51990  12.858  39.165   7.328
 3872POPC   C1B51991  12.644  39.511   6.323
 3872POPC   C2B51992  12.444  39.450   6.708
 3872POPC   C3B51993  12.450  39.473   7.186
 3872POPC   C4B51994  12.568  39.493   7.644
 3873POPC   NC351995   7.677   9.867   5.460
 3873POPC   PO451996   7.127   9.578   5.232
 3873POPC   GL151997   7.394   9.562   5.728
 3873POPC   GL251998   7.478   9.838   5.957
 3873POPC   C1A51999   7.632   9.385   6.147
 3873POPC   D2A52000   7.602   9.513   6.603
 3873POPC   C3A52001   7.416   9.917   6.771
 3873POPC   C4A52002   7.498  10.120   7.177
 3873POPC   C1B52003   7.154   9.538   6.181
 3873POPC   C2B52004   6.921   9.440   6.543
 3873POPC   C3B52005   7.159   9.482   6.873
 3873POPC   C4B52006   7.503   9.546   7.151
 3874POPC   NC352007  43.429  16.291   5.045
 3874POPC   PO452008  42.888  16.269   5.415
 3874POPC   GL152009  43.053  16.606   5.694
 3874POPC   GL252010  42.827  16.882   5.821
 3874POPC   C1A52011  43.161  16.668   6.141
 3874POPC   D2A52012  42.973  16.634   6.567
 3874POPC   C3A52013  43.288  16.634   6.917
 3874POPC   C4A52014  43.567  16.334   7.133
 3874POPC   C1B52015  42.705  17.037   6.208
 3874POPC   C2B52016  42.687  17.153   6.614
 3874POPC   C3B52017  42.846  16.952   6.947
 3874POPC   C4B52018  43.166  17.030   7.222
 3875POPC   NC352019  38.639  40.634   4.894
 3875POPC   PO452020  38.162  40.618   5.380
 3875POPC   GL152021  38.256  40.598   5.846
 3875POPC   GL252022  38.567  40.687   5.942
 3875POPC   C1A52023  38.200  40.476   6.283
 3875POPC   D2A52024  37.996  40.611   6.654
 3875POPC   C3A52025  38.269  40.592   6.970
 3875POPC   C4A52026  38.257  40.734   7.370
 3875POPC   C1B52027  38.458  40.943   6.280
 3875POPC   C2B52028  38.574  40.904   6.694
 3875POPC   C3B52029  38.748  40.762   7.067
 3875POPC   C4B52030  38.727  40.600   7.462
 3876POPC   NC352031   8.335  44.744   5.315
 3876POPC   PO452032   7.790  44.968   5.103
 3876POPC   GL152033   7.949  44.876   5.606
 3876POPC   GL252034   8.320  44.910   5.773
 3876POPC   C1A52035   7.941  44.810   6.106
 3876POPC   D2A52036   7.991  44.859   6.595
 3876POPC   C3A52037   8.016  44.468   6.873
 3876POPC   C4A52038   8.420  44.275   7.055
 3876POPC   C1B52039   8.581  44.854   6.116
 3876POPC   C2B52040   8.528  44.989   6.541
 3876POPC   C3B52041   8.418  44.769   6.906
 3876POPC   C4B52042   8.249  44.698   7.321
 3877POPC   NC352043  36.630  18.987   4.868
 3877POPC   PO452044  37.144  19.233   5.075
 3877POPC   GL152045  37.041  19.180   5.557
 3877POPC   GL252046  37.201  19.352   5.829
 3877POPC   C1A52047  36.711  19.194   5.944
 3877POPC   D2A52048  36.554  19.266   6.422
 3877POPC   C3A52049  36.602  19.052   6.841
 3877POPC   C4A52050  36.614  19.157   7.307
 3877POPC   C1B52051  37.014  19.426   6.272
 3877POPC   C2B52052  37.083  19.222   6.661
 3877POPC   C3B52053  37.050  19.040   7.075
 3877POPC   C4B52054  37.283  18.821   7.352
 3878POPC   NC352055   6.208  35.897   5.437
 3878POPC   PO452056   5.544  35.908   5.504
 3878POPC   GL152057   5.747  36.017   5.873
 3878POPC   GL252058   6.003  36.164   5.848
 3878POPC   C1A52059   5.865  36.173   6.329
 3878POPC   D2A52060   5.810  36.391   6.703
 3878POPC   C3A52061   5.779  36.211   7.070
 3878POPC   C4A52062   5.794  36.061   7.452
 3878POPC   C1B52063   6.282  36.395   6.172
 3878POPC   C2B52064   6.288  36.517   6.634
 3878POPC   C3B52065   6.140  36.573   7.078
 3878POPC   C4B52066   6.170  36.391   7.512
 3879POPC   NC352067   3.082  28.515   5.325
 3879POPC   PO452068   2.537  28.106   5.260
 3879POPC   GL152069   2.577  28.255   5.682
 3879POPC   GL252070   2.496  28.564   5.564
 3879POPC   C1A52071   2.666  28.230   6.136
 3879POPC   D2A52072   2.829  28.341   6.551
 3879POPC   C3A52073   2.899  28.109   6.893
 3879POPC   C4A52074   2.898  28.334   7.259
 3879POPC   C1B52075   2.473  28.675   6.006
 3879POPC   C2B52076   2.483  28.715   6.476
 3879POPC   C3B52077   2.594  28.604   6.913
 3879POPC   C4B52078   2.621  28.795   7.327
 3880POPC   NC352079  11.960  21.933   5.387
 3880POPC   PO452080  12.257  22.521   5.388
 3880POPC   GL152081  12.032  22.292   5.746
 3880POPC   GL252082  11.706  22.414   5.868
 3880POPC   C1A52083  12.124  22.172   6.165
 3880POPC   D2A52084  12.374  21.991   6.517
 3880POPC   C3A52085  12.125  22.011   6.922
 3880POPC   C4A52086  12.298  21.880   7.318
 3880POPC   C1B52087  11.609  22.236   6.271
 3880POPC   C2B52088  11.482  22.131   6.684
 3880POPC   C3B52089  11.614  21.862   6.991
 3880POPC   C4B52090  11.768  21.848   7.399
 3881POPC   NC352091   0.492   0.207   5.398
 3881POPC   PO452092   0.393   0.847   5.331
 3881POPC   GL152093   0.493   0.654   5.741
 3881POPC   GL252094   0.206   0.439   5.773
 3881POPC   C1A52095   0.451   0.524   6.208
 3881POPC   D2A52096   0.630   0.383   6.616
 3881POPC   C3A52097   0.422   0.314   7.025
 3881POPC   C4A52098   0.436   0.721   7.178
 3881POPC   C1B52099   0.065   0.135   6.097
 3881POPC   C2B52100   0.142   0.204   6.512
 3881POPC   C3B52101   0.166   0.597   6.709
 3881POPC   C4B52102  44.924   0.705   7.056
 3882POPC   NC352103  33.676  43.632   5.480
 3882POPC   PO452104  34.030  43.071   5.471
 3882POPC   GL152105  33.929  42.795   5.822
 3882POPC   GL252106  33.634  42.952   5.995
 3882POPC   C1A52107  34.017  42.762   6.255
 3882POPC   D2A52108  33.889  42.996   6.582
 3882POPC   C3A52109  34.186  42.894   6.877
 3882POPC   C4A52110  34.171  42.993   7.283
 3882POPC   C1B52111  33.406  43.171   6.335
 3882POPC   C2B52112  33.412  43.115   6.769
 3882POPC   C3B52113  33.697  43.065   7.068
 3882POPC   C4B52114  33.700  43.054   7.510
 3883POPC   NC352115   3.555  41.837   5.338
 3883POPC   PO452116   3.733  41.270   5.728
 3883POPC   GL152117   3.797  41.648   5.892
 3883POPC   GL252118   3.460  41.744   5.824
 3883POPC   C1A52119   3.852  41.625   6.336
 3883POPC   D2A52120   3.571  41.439   6.651
 3883POPC   C3A52121   3.754  41.599   7.006
 3883POPC   C4A52122   4.002  41.485   7.319
 3883POPC   C1B52123   3.354  41.718   6.234
 3883POPC   C2B52124   3.321  41.886   6.620
 3883POPC   C3B52125   3.262  41.712   7.004
 3883POPC   C4B52126   3.354  41.290   7.137
 3884POPC   NC352127  28.868   5.605   5.309
 3884POPC   PO452128  29.253   6.107   5.567
 3884POPC   GL152129  29.387   5.901   5.886
 3884POPC   GL252130  29.226   5.623   5.800
 3884POPC   C1A52131  29.244   6.006   6.281
 3884POPC   D2A52132  29.016   6.201   6.604
 3884POPC   C3A52133  29.251   6.132   6.970
 3884POPC   C4A52134  29.389   6.240   7.348
 3884POPC   C1B52135  29.106   5.504   6.252
 3884POPC   C2B52136  29.103   5.684   6.699
 3884POPC   C3B52137  28.902   5.806   7.123
 3884POPC   C4B52138  29.049   5.878   7.541
 3885POPC   NC352139  11.834  10.308   5.448
 3885POPC   PO452140  12.395  10.676   5.474
 3885POPC   GL152141  12.021  10.631   5.809
 3885POPC   GL252142  11.774  10.359   5.937
 3885POPC   C1A52143  11.904  10.777   6.242
 3885POPC   D2A52144  12.230  10.883   6.578
 3885POPC   C3A52145  12.234  10.679   7.009
 3885POPC   C4A52146  12.184  10.909   7.388
 3885POPC   C1B52147  11.802  10.149   6.335
 3885POPC   C2B52148  12.137  10.210   6.650
 3885POPC   C3B52149  12.163  10.159   7.079
 3885POPC   C4B52150  11.820  10.336   7.180
 3886POPC   NC352151  37.070  32.175   5.371
 3886POPC   PO452152  36.506  32.021   5.547
 3886POPC   GL152153  36.805  32.086   5.872
 3886POPC   GL252154  37.045  32.359   5.851
 3886POPC   C1A52155  36.904  31.942   6.295
 3886POPC   D2A52156  37.168  32.005   6.671
 3886POPC   C3A52157  37.009  31.964   7.084
 3886POPC   C4A52158  36.654  32.207   7.225
 3886POPC   C1B52159  37.240  32.307   6.252
 3886POPC   C2B52160  37.324  32.501   6.669
 3886POPC   C3B52161  37.417  32.272   7.054
 3886POPC   C4B52162  37.211  32.231   7.479
 3887POPC   NC352163  16.012  26.574   5.458
 3887POPC   PO452164  15.901  27.320   5.429
 3887POPC   GL152165  15.833  26.977   5.738
 3887POPC   GL252166  16.153  26.871   5.836
 3887POPC   C1A52167  15.766  26.782   6.165
 3887POPC   D2A52168  15.732  26.972   6.589
 3887POPC   C3A52169  15.592  26.749   6.975
 3887POPC   C4A52170  15.814  26.457   7.269
 3887POPC   C1B52171  16.351  26.665   6.172
 3887POPC   C2B52172  16.337  26.810   6.589
 3887POPC   C3B52173  16.105  26.795   6.944
 3887POPC   C4B52174  16.262  26.739   7.334
 3888POPC   NC352175   0.274  41.236   5.229
 3888POPC   PO452176   0.660  41.790   5.414
 3888POPC   GL152177   0.534  41.575   5.807
 3888POPC   GL252178   0.386  41.246   5.769
 3888POPC   C1A52179   0.385  41.526   6.255
 3888POPC   D2A52180   0.202  41.768   6.619
 3888POPC   C3A52181   0.444  41.690   7.000
 3888POPC   C4A52182   0.770  41.983   7.086
 3888POPC   C1B52183   0.739  41.167   6.065
 3888POPC   C2B52184   0.812  41.287   6.484
 3888POPC   C3B52185   0.769  41.108   6.888
 3888POPC   C4B52186   0.547  41.217   7.270
 3889POPC   NC352187  34.929  37.147   5.428
 3889POPC   PO452188  35.514  36.633   5.422
 3889POPC   GL152189  35.250  36.887   5.716
 3889POPC   GL252190  35.403  37.129   5.892
 3889POPC   C1A52191  34.968  36.958   6.114
 3889POPC   D2A52192  34.885  37.101   6.566
 3889POPC   C3A52193  35.270  37.101   6.829
 3889POPC   C4A52194  35.355  36.986   7.284
 3889POPC   C1B52195  35.531  37.041   6.280
 3889POPC   C2B52196  35.783  37.241   6.590
 3889POPC   C3B52197  35.685  37.319   7.031
 3889POPC   C4B52198  35.846  37.160   7.412
 3890POPC   NC352199  43.600  25.025   5.376
 3890POPC   PO452200  44.258  25.023   5.510
 3890POPC   GL152201  43.920  25.051   5.792
 3890POPC   GL252202  43.975  25.402   5.847
 3890POPC   C1A52203  43.603  25.178   6.124
 3890POPC   D2A52204  43.601  25.498   6.484
 3890POPC   C3A52205  43.828  25.412   6.883
 3890POPC   C4A52206  43.873  25.091   7.192
 3890POPC   C1B52207  44.094  25.187   6.278
 3890POPC   C2B52208  44.229  25.101   6.734
 3890POPC   C3B52209  44.381  25.206   7.148
 3890POPC   C4B52210  44.234  25.075   7.579
 3891POPC   NC352211  42.074   0.045   5.621
 3891POPC   PO452212  41.992  44.357   5.438
 3891POPC   GL152213  42.242  44.530   5.768
 3891POPC   GL252214  42.522  44.726   5.665
 3891POPC   C1A52215  42.193  44.719   6.187
 3891POPC   D2A52216  42.125  44.489   6.550
 3891POPC   C3A52217  42.271  44.640   6.908
 3891POPC   C4A52218  42.066  44.938   7.129
 3891POPC   C1B52219  42.708  44.711   6.097
 3891POPC   C2B52220  42.670  44.689   6.562
 3891POPC   C3B52221  42.667  44.948   6.957
 3891POPC   C4B52222  42.742   0.024   7.369
 3892POPC   NC352223   2.236  40.154   5.248
 3892POPC   PO452224   1.744  39.809   5.071
 3892POPC   GL152225   1.720  39.925   5.520
 3892POPC   GL252226   1.576  39.636   5.639
 3892POPC   C1A52227   1.827  40.140   5.935
 3892POPC   D2A52228   2.081  40.161   6.347
 3892POPC   C3A52229   2.008  40.196   6.809
 3892POPC   C4A52230   2.151  39.932   7.155
 3892POPC   C1B52231   1.784  39.630   6.023
 3892POPC   C2B52232   1.699  39.766   6.435
 3892POPC   C3B52233   1.864  39.681   6.820
 3892POPC   C4B52234   1.682  39.609   7.205
 3893POPC   NC352235  16.736  25.023   5.029
 3893POPC   PO452236  16.813  24.397   5.347
 3893POPC   GL152237  16.820  24.477   5.804
 3893POPC   GL252238  16.768  24.819   5.922
 3893POPC   C1A52239  16.975  24.253   6.181
 3893POPC   D2A52240  17.053  24.102   6.601
 3893POPC   C3A52241  16.745  24.249   6.896
 3893POPC   C4A52242  16.901  24.214   7.254
 3893POPC   C1B52243  16.847  24.880   6.312
 3893POPC   C2B52244  16.863  24.618   6.584
 3893POPC   C3B52245  16.743  24.742   6.988
 3893POPC   C4B52246  16.675  24.629   7.399
 3894POPC   NC352247  13.249  24.906   5.291
 3894POPC   PO452248  13.780  24.861   5.641
 3894POPC   GL152249  13.354  24.947   5.795
 3894POPC   GL252250  13.233  25.315   5.888
 3894POPC   C1A52251  13.434  24.990   6.208
 3894POPC   D2A52252  13.658  25.132   6.516
 3894POPC   C3A52253  13.341  25.102   6.758
 3894POPC   C4A52254  13.475  25.184   7.162
 3894POPC   C1B52255  13.301  25.485   6.348
 3894POPC   C2B52256  13.477  25.589   6.784
 3894POPC   C3B52257  13.751  25.641   7.161
 3894POPC   C4B52258  13.730  25.911   7.544
 3895POPC   NC352259   4.448   2.991   5.504
 3895POPC   PO452260   3.905   2.528   5.532
 3895POPC   GL152261   4.143   2.737   5.828
 3895POPC   GL252262   4.487   2.575   5.814
 3895POPC   C1A52263   4.067   2.954   6.213
 3895POPC   D2A52264   3.895   2.843   6.608
 3895POPC   C3A52265   4.014   3.059   6.984
 3895POPC   C4A52266   4.299   3.028   7.344
 3895POPC   C1B52267   4.568   2.860   6.177
 3895POPC   C2B52268   4.423   2.858   6.625
 3895POPC   C3B52269   4.699   2.866   7.009
 3895POPC   C4B52270   4.993   2.539   7.190
 3896POPC   NC352271  39.395  38.363   5.259
 3896POPC   PO452272  38.824  38.746   5.417
 3896POPC   GL152273  39.074  38.484   5.726
 3896POPC   GL252274  39.342  38.684   5.879
 3896POPC   C1A52275  39.196  38.299   6.166
 3896POPC   D2A52276  39.402  38.477   6.576
 3896POPC   C3A52277  39.218  38.408   6.996
 3896POPC   C4A52278  38.997  38.307   7.405
 3896POPC   C1B52279  39.627  38.811   6.239
 3896POPC   C2B52280  39.744  38.849   6.693
 3896POPC   C3B52281  39.440  38.860   7.056
 3896POPC   C4B52282  39.428  38.642   7.491
 3897POPC   NC352283   1.849  26.146   5.299
 3897POPC   PO452284   2.245  25.685   5.431
 3897POPC   GL152285   1.986  25.930   5.767
 3897POPC   GL252286   1.686  26.156   5.777
 3897POPC   C1A52287   1.970  26.135   6.194
 3897POPC   D2A52288   1.983  26.013   6.614
 3897POPC   C3A52289   2.030  26.317   6.936
 3897POPC   C4A52290   1.880  26.227   7.318
 3897POPC   C1B52291   1.517  25.907   6.132
 3897POPC   C2B52292   1.518  25.800   6.587
 3897POPC   C3B52293   1.660  25.865   7.024
 3897POPC   C4B52294   1.849  25.693   7.404
 3898POPC   NC352295   0.566  33.693   5.344
 3898POPC   PO452296   0.263  34.286   5.319
 3898POPC   GL152297   0.523  34.068   5.706
 3898POPC   GL252298   0.629  33.687   5.838
 3898POPC   C1A52299   0.418  33.992   6.172
 3898POPC   D2A52300   0.090  34.215   6.403
 3898POPC   C3A52301   0.145  34.064   6.801
 3898POPC   C4A52302   0.476  33.974   7.109
 3898POPC   C1B52303   0.251  33.521   6.101
 3898POPC   C2B52304   0.045  33.518   6.529
 3898POPC   C3B52305   0.182  33.579   6.985
 3898POPC   C4B52306   0.608  33.444   7.177
 3899POPC   NC352307  33.220   7.703   5.482
 3899POPC   PO452308  32.799   8.170   5.570
 3899POPC   GL152309  32.918   8.005   5.948
 3899POPC   GL252310  32.908   8.342   6.071
 3899POPC   C1A52311  33.000   7.974   6.418
 3899POPC   D2A52312  32.728   8.086   6.728
 3899POPC   C3A52313  32.833   8.301   7.080
 3899POPC   C4A52314  33.177   8.230   7.365
 3899POPC   C1B52315  33.287   8.428   6.300
 3899POPC   C2B52316  33.340   8.467   6.763
 3899POPC   C3B52317  33.586   8.486   7.165
 3899POPC   C4B52318  33.590   8.422   7.620
 3900POPC   NC352319   6.058   8.106   5.230
 3900POPC   PO452320   6.712   8.090   5.448
 3900POPC   GL152321   6.652   8.267   5.860
 3900POPC   GL252322   6.389   8.490   5.851
 3900POPC   C1A52323   6.664   8.067   6.257
 3900POPC   D2A52324   6.454   7.811   6.560
 3900POPC   C3A52325   6.645   7.965   6.938
 3900POPC   C4A52326   6.978   8.223   7.075
 3900POPC   C1B52327   6.390   8.523   6.297
 3900POPC   C2B52328   6.341   8.305   6.677
 3900POPC   C3B52329   6.485   8.439   7.089
 3900POPC   C4B52330   6.360   8.513   7.510
 3901POPC   NC352331  27.271  14.704   5.481
 3901POPC   PO452332  27.747  14.177   5.352
 3901POPC   GL152333  27.560  14.304   5.738
 3901POPC   GL252334  27.506  13.985   5.815
 3901POPC   C1A52335  27.569  14.460   6.201
 3901POPC   D2A52336  27.619  14.659   6.623
 3901POPC   C3A52337  27.673  14.423   7.011
 3901POPC   C4A52338  27.698  14.470   7.451
 3901POPC   C1B52339  27.432  13.957   6.218
 3901POPC   C2B52340  27.530  14.073   6.624
 3901POPC   C3B52341  27.299  14.080   6.976
 3901POPC   C4B52342  27.501  14.001   7.318
 3902POPC   NC352343  32.437   5.218   5.378
 3902POPC   PO452344  31.704   5.377   5.295
 3902POPC   GL152345  31.944   5.203   5.748
 3902POPC   GL252346  32.342   5.124   5.858
 3902POPC   C1A52347  32.003   5.024   6.194
 3902POPC   D2A52348  32.405   4.957   6.446
 3902POPC   C3A52349  32.318   4.892   6.886
 3902POPC   C4A52350  31.956   5.086   7.130
 3902POPC   C1B52351  32.626   5.389   6.107
 3902POPC   C2B52352  32.646   5.487   6.553
 3902POPC   C3B52353  32.719   5.220   6.899
 3902POPC   C4B52354  32.453   5.189   7.280
 3903POPC   NC352355  38.840  29.703   5.447
 3903POPC   PO452356  39.260  30.265   5.313
 3903POPC   GL152357  39.168  30.027   5.684
 3903POPC   GL252358  39.519  29.959   5.722
 3903POPC   C1A52359  38.903  29.959   6.111
 3903POPC   D2A52360  39.059  29.812   6.543
 3903POPC   C3A52361  38.913  29.696   6.940
 3903POPC   C4A52362  38.921  29.912   7.317
 3903POPC   C1B52363  39.410  29.882   6.143
 3903POPC   C2B52364  39.512  30.026   6.543
 3903POPC   C3B52365  39.467  29.819   6.925
 3903POPC   C4B52366  39.418  30.044   7.294
 3904POPC   NC352367   7.057  13.503   5.598
 3904POPC   PO452368   6.637  14.005   5.483
 3904POPC   GL152369   6.668  13.792   5.861
 3904POPC   GL252370   6.516  13.467   5.887
 3904POPC   C1A52371   6.893  13.734   6.251
 3904POPC   D2A52372   6.836  13.646   6.680
 3904POPC   C3A52373   6.815  13.930   7.043
 3904POPC   C4A52374   6.778  13.764   7.456
 3904POPC   C1B52375   6.270  13.408   6.277
 3904POPC   C2B52376   6.413  13.336   6.690
 3904POPC   C3B52377   6.486  13.555   7.047
 3904POPC   C4B52378   6.192  13.616   7.286
 3905POPC   NC352379  18.762   2.664   5.531
 3905POPC   PO452380  19.021   3.232   5.342
 3905POPC   GL152381  19.169   2.993   5.761
 3905POPC   GL252382  19.220   2.618   5.790
 3905POPC   C1A52383  18.985   3.016   6.227
 3905POPC   D2A52384  19.111   3.092   6.694
 3905POPC   C3A52385  18.813   3.074   7.081
 3905POPC   C4A52386  18.792   2.840   7.501
 3905POPC   C1B52387  19.050   2.497   6.208
 3905POPC   C2B52388  18.943   2.423   6.647
 3905POPC   C3B52389  19.082   2.646   7.013
 3905POPC   C4B52390  19.343   2.555   7.360
 3906POPC   NC352391  14.629  19.070   5.536
 3906POPC   PO452392  14.192  18.903   6.001
 3906POPC   GL152393  14.557  19.140   6.028
 3906POPC   GL252394  14.843  18.892   5.954
 3906POPC   C1A52395  14.506  19.466   6.288
 3906POPC   D2A52396  14.162  19.491   6.580
 3906POPC   C3A52397  14.232  19.278   6.966
 3906POPC   C4A52398  14.144  19.016   7.310
 3906POPC   C1B52399  14.808  18.849   6.370
 3906POPC   C2B52400  14.643  19.118   6.670
 3906POPC   C3B52401  14.683  19.052   7.094
 3906POPC   C4B52402  14.729  18.664   7.319
 3907POPC   NC352403  10.771  40.438   5.412
 3907POPC   PO452404  10.347  39.934   5.327
 3907POPC   GL152405  10.468  39.902   5.791
 3907POPC   GL252406  10.557  40.257   5.851
 3907POPC   C1A52407  10.406  39.986   6.276
 3907POPC   D2A52408  10.521  39.791   6.705
 3907POPC   C3A52409  10.367  39.814   7.148
 3907POPC   C4A52410  10.532  39.804   7.577
 3907POPC   C1B52411  10.654  40.452   6.230
 3907POPC   C2B52412  10.755  40.255   6.613
 3907POPC   C3B52413  10.518  40.268   6.976
 3907POPC   C4B52414  10.411  40.503   7.333
 3908POPC   NC352415  37.671  27.767   5.241
 3908POPC   PO452416  38.018  27.292   5.478
 3908POPC   GL152417  37.821  27.525   5.880
 3908POPC   GL252418  37.883  27.911   5.977
 3908POPC   C1A52419  37.549  27.589   6.265
 3908POPC   D2A52420  37.611  27.575   6.719
 3908POPC   C3A52421  37.486  27.377   7.102
 3908POPC   C4A52422  37.420  27.692   7.384
 3908POPC   C1B52423  38.018  27.709   6.360
 3908POPC   C2B52424  38.069  27.795   6.781
 3908POPC   C3B52425  37.864  27.750   7.147
 3908POPC   C4B52426  38.069  27.449   7.397
 3909POPC   NC352427   0.045   3.228   5.267
 3909POPC   PO452428  44.562   3.655   5.255
 3909POPC   GL152429  44.718   3.541   5.706
 3909POPC   GL252430  44.563   3.234   5.791
 3909POPC   C1A52431  44.653   3.677   6.190
 3909POPC   D2A52432  44.372   3.638   6.582
 3909POPC   C3A52433  44.570   3.629   7.003
 3909POPC   C4A52434  44.894   3.869   7.140
 3909POPC   C1B52435  44.690   3.160   6.239
 3909POPC   C2B52436  44.721   3.254   6.713
 3909POPC   C3B52437  44.555   3.150   7.174
 3909POPC   C4B52438  44.556   3.083   7.636
 3910POPC   NC352439   8.390   2.401   5.338
 3910POPC   PO452440   7.955   2.948   5.505
 3910POPC   GL152441   8.234   2.890   5.832
 3910POPC   GL252442   8.239   2.516   5.839
 3910POPC   C1A52443   8.207   2.871   6.269
 3910POPC   D2A52444   8.204   2.663   6.657
 3910POPC   C3A52445   8.292   3.001   6.905
 3910POPC   C4A52446   8.412   3.173   7.272
 3910POPC   C1B52447   8.022   2.401   6.226
 3910POPC   C2B52448   7.961   2.202   6.633
 3910POPC   C3B52449   7.985   2.353   7.041
 3910POPC   C4B52450   8.344   2.553   7.190
 3911POPC   NC352451   9.873  13.850   4.752
 3911POPC   PO452452   9.686  13.409   5.161
 3911POPC   GL152453   9.671  13.406   5.696
 3911POPC   GL252454   9.944  13.251   5.895
 3911POPC   C1A52455   9.738  13.658   6.149
 3911POPC   D2A52456   9.632  13.739   6.629
 3911POPC   C3A52457   9.819  13.738   7.087
 3911POPC   C4A52458   9.718  13.920   7.527
 3911POPC   C1B52459   9.649  13.171   6.243
 3911POPC   C2B52460   9.714  13.233   6.691
 3911POPC   C3B52461   9.896  13.222   7.093
 3911POPC   C4B52462  10.313  13.263   7.280
 3912POPC   NC352463  17.775  14.310   5.124
 3912POPC   PO452464  17.299  14.636   5.424
 3912POPC   GL152465  17.545  14.535   5.797
 3912POPC   GL252466  17.288  14.306   5.869
 3912POPC   C1A52467  17.571  14.407   6.283
 3912POPC   D2A52468  17.562  14.317   6.765
 3912POPC   C3A52469  17.679  14.556   7.174
 3912POPC   C4A52470  17.631  14.702   7.649
 3912POPC   C1B52471  17.117  14.621   6.127
 3912POPC   C2B52472  17.151  14.512   6.549
 3912POPC   C3B52473  17.204  14.663   6.969
 3912POPC   C4B52474  17.215  14.526   7.390
 3913POPC   NC352475  25.674  25.359   5.372
 3913POPC   PO452476  25.039  25.078   5.188
 3913POPC   GL152477  25.112  25.228   5.633
 3913POPC   GL252478  25.353  25.496   5.740
 3913POPC   C1A52479  25.130  25.168   6.112
 3913POPC   D2A52480  25.342  25.225   6.554
 3913POPC   C3A52481  25.105  25.467   6.873
 3913POPC   C4A52482  24.937  25.447   7.284
 3913POPC   C1B52483  25.574  25.437   6.131
 3913POPC   C2B52484  25.758  25.576   6.522
 3913POPC   C3B52485  25.603  25.600   6.912
 3913POPC   C4B52486  25.517  25.353   7.244
 3914POPC   NC352487   2.341  10.613   5.463
 3914POPC   PO452488   2.906  10.897   5.260
 3914POPC   GL152489   2.823  10.599   5.641
 3914POPC   GL252490   3.075  10.467   5.852
 3914POPC   C1A52491   2.599  10.569   6.066
 3914POPC   D2A52492   2.604  10.665   6.500
 3914POPC   C3A52493   2.335  10.524   6.827
 3914POPC   C4A52494   2.484  10.462   7.239
 3914POPC   C1B52495   3.043  10.818   6.194
 3914POPC   C2B52496   2.987  10.944   6.663
 3914POPC   C3B52497   2.890  10.624   6.986
 3914POPC   C4B52498   3.072  10.314   7.284
 3915POPC   NC352499  19.268  31.341   5.385
 3915POPC   PO452500  18.793  31.804   5.183
 3915POPC   GL152501  18.820  31.547   5.692
 3915POPC   GL252502  19.125  31.392   5.865
 3915POPC   C1A52503  18.887  31.683   6.188
 3915POPC   D2A52504  19.113  31.513   6.544
 3915POPC   C3A52505  19.011  31.679   6.944
 3915POPC   C4A52506  19.111  31.772   7.362
 3915POPC   C1B52507  19.112  31.087   6.236
 3915POPC   C2B52508  19.217  31.025   6.710
 3915POPC   C3B52509  19.128  31.126   7.170
 3915POPC   C4B52510  19.368  31.328   7.525
 3916POPC   NC352511  29.804  38.200   5.496
 3916POPC   PO452512  29.287  37.862   5.493
 3916POPC   GL152513  29.627  37.827   5.820
 3916POPC   GL252514  29.661  38.135   5.975
 3916POPC   C1A52515  30.001  37.744   6.112
 3916POPC   D2A52516  30.226  37.615   6.530
 3916POPC   C3A52517  30.157  37.660   7.012
 3916POPC   C4A52518  29.798  37.494   7.264
 3916POPC   C1B52519  29.613  37.992   6.364
 3916POPC   C2B52520  29.843  37.964   6.744
 3916POPC   C3B52521  29.773  38.011   7.194
 3916POPC   C4B52522  29.791  37.880   7.619
 3917POPC   NC352523  38.754  32.183   5.535
 3917POPC   PO452524  39.398  32.316   5.446
 3917POPC   GL152525  39.415  32.429   5.899
 3917POPC   GL252526  39.048  32.422   5.919
 3917POPC   C1A52527  39.367  32.551   6.350
 3917POPC   D2A52528  39.630  32.598   6.709
 3917POPC   C3A52529  39.354  32.612   7.079
 3917POPC   C4A52530  39.358  32.466   7.531
 3917POPC   C1B52531  39.188  32.093   6.242
 3917POPC   C2B52532  39.301  32.171   6.706
 3917POPC   C3B52533  39.110  32.158   7.139
 3917POPC   C4B52534  39.053  32.071   7.593
 3918POPC   NC352535  31.652  40.503   5.363
 3918POPC   PO452536  31.223  40.945   5.257
 3918POPC   GL152537  31.330  40.870   5.724
 3918POPC   GL252538  31.682  40.745   5.812
 3918POPC   C1A52539  31.297  40.657   6.141
 3918POPC   D2A52540  31.515  40.800   6.487
 3918POPC   C3A52541  31.299  40.740   6.854
 3918POPC   C4A52542  31.399  40.973   7.198
 3918POPC   C1B52543  31.838  40.506   6.177
 3918POPC   C2B52544  31.959  40.588   6.633
 3918POPC   C3B52545  31.741  40.546   7.035
 3918POPC   C4B52546  31.657  40.174   7.248
 3919POPC   NC352547  41.683  39.899   5.531
 3919POPC   PO452548  41.197  40.190   5.760
 3919POPC   GL152549  41.424  39.841   5.957
 3919POPC   GL252550  41.230  39.669   5.690
 3919POPC   C1A52551  41.705  39.560   6.236
 3919POPC   D2A52552  42.005  39.643   6.590
 3919POPC   C3A52553  41.742  39.737   6.987
 3919POPC   C4A52554  41.711  39.967   7.396
 3919POPC   C1B52555  41.085  39.512   6.111
 3919POPC   C2B52556  41.276  39.564   6.513
 3919POPC   C3B52557  41.132  39.680   6.887
 3919POPC   C4B52558  41.286  39.717   7.286
 3920POPC   NC352559  14.794   6.610   5.607
 3920POPC   PO452560  14.351   6.875   5.148
 3920POPC   GL152561  14.324   6.933   5.631
 3920POPC   GL252562  14.272   6.600   5.720
 3920POPC   C1A52563  14.489   6.902   6.107
 3920POPC   D2A52564  14.556   6.575   6.457
 3920POPC   C3A52565  14.403   6.643   6.881
 3920POPC   C4A52566  14.353   6.869   7.274
 3920POPC   C1B52567  14.144   6.471   6.131
 3920POPC   C2B52568  14.222   6.181   6.470
 3920POPC   C3B52569  14.087   6.213   6.894
 3920POPC   C4B52570  14.223   6.314   7.269
 3921POPC   NC352571  36.404  32.464   5.513
 3921POPC   PO452572  35.772  32.200   5.503
 3921POPC   GL152573  36.003  32.476   5.854
 3921POPC   GL252574  36.332  32.320   5.994
 3921POPC   C1A52575  35.824  32.624   6.308
 3921POPC   D2A52576  35.818  32.686   6.826
 3921POPC   C3A52577  36.049  32.364   7.105
 3921POPC   C4A52578  36.158  31.959   6.958
 3921POPC   C1B52579  36.711  32.447   6.251
 3921POPC   C2B52580  36.778  32.451   6.715
 3921POPC   C3B52581  36.463  32.636   7.026
 3921POPC   C4B52582  36.397  32.597   7.476
 3922POPC   NC352583  32.035  11.606   5.426
 3922POPC   PO452584  32.722  11.352   5.305
 3922POPC   GL152585  32.430  11.319   5.659
 3922POPC   GL252586  32.478  11.637   5.715
 3922POPC   C1A52587  32.217  11.257   6.083
 3922POPC   D2A52588  32.350  11.070   6.487
 3922POPC   C3A52589  32.191  11.053   6.906
 3922POPC   C4A52590  32.039  11.372   7.138
 3922POPC   C1B52591  32.505  11.684   6.182
 3922POPC   C2B52592  32.678  11.471   6.549
 3922POPC   C3B52593  32.557  11.405   6.952
 3922POPC   C4B52594  32.473  11.488   7.372
 3923POPC   NC352595   0.348  12.258   5.330
 3923POPC   PO452596   0.235  11.657   5.580
 3923POPC   GL152597   0.396  11.988   5.792
 3923POPC   GL252598   0.132  12.228   5.799
 3923POPC   C1A52599   0.518  12.024   6.223
 3923POPC   D2A52600   0.723  11.993   6.635
 3923POPC   C3A52601   0.486  11.939   7.004
 3923POPC   C4A52602   0.624  12.257   7.293
 3923POPC   C1B52603   0.102  12.325   6.232
 3923POPC   C2B52604   0.231  12.242   6.664
 3923POPC   C3B52605   0.169  12.352   7.103
 3923POPC   C4B52606   0.005  12.610   7.425
 3924POPC   NC352607  19.715  12.686   5.649
 3924POPC   PO452608  19.512  13.209   5.706
 3924POPC   GL152609  19.525  12.948   6.055
 3924POPC   GL252610  19.859  12.832   6.154
 3924POPC   C1A52611  19.426  12.620   6.299
 3924POPC   D2A52612  19.449  12.488   6.694
 3924POPC   C3A52613  19.422  12.830   7.013
 3924POPC   C4A52614  19.818  12.878   7.244
 3924POPC   C1B52615  19.740  12.937   6.604
 3924POPC   C2B52616  20.005  13.227   6.903
 3924POPC   C3B52617  20.229  13.205   7.321
 3924POPC   C4B52618  20.207  12.848   7.616
 3925POPC   NC352619   9.429  23.049   5.475
 3925POPC   PO452620   8.879  22.719   5.579
 3925POPC   GL152621   9.195  22.822   5.867
 3925POPC   GL252622   9.318  22.477   5.886
 3925POPC   C1A52623   9.223  23.087   6.241
 3925POPC   D2A52624   9.352  22.947   6.651
 3925POPC   C3A52625   9.246  23.104   7.082
 3925POPC   C4A52626   9.139  22.913   7.504
 3925POPC   C1B52627   9.097  22.580   6.294
 3925POPC   C2B52628   9.000  22.628   6.751
 3925POPC   C3B52629   8.887  22.635   7.159
 3925POPC   C4B52630   8.481  22.576   7.371
 3926POPC   NC352631   9.604  41.065   5.481
 3926POPC   PO452632   9.828  40.610   5.019
 3926POPC   GL152633   9.786  40.600   5.593
 3926POPC   GL252634   9.586  40.397   5.903
 3926POPC   C1A52635   9.862  40.814   6.047
 3926POPC   D2A52636   9.825  40.681   6.504
 3926POPC   C3A52637   9.717  40.940   6.865
 3926POPC   C4A52638   9.857  40.962   7.285
 3926POPC   C1B52639   9.319  40.540   6.305
 3926POPC   C2B52640   9.320  40.458   6.776
 3926POPC   C3B52641   9.546  40.548   7.166
 3926POPC   C4B52642   9.495  40.728   7.564
 3927POPC   NC352643  21.419  14.841   5.489
 3927POPC   PO452644  21.343  14.205   5.532
 3927POPC   GL152645  21.431  14.495   5.893
 3927POPC   GL252646  21.746  14.717   5.841
 3927POPC   C1A52647  21.300  14.425   6.342
 3927POPC   D2A52648  20.945  14.502   6.642
 3927POPC   C3A52649  21.092  14.321   7.050
 3927POPC   C4A52650  21.345  13.985   7.270
 3927POPC   C1B52651  21.668  14.773   6.269
 3927POPC   C2B52652  21.773  14.530   6.641
 3927POPC   C3B52653  21.628  14.360   7.020
 3927POPC   C4B52654  21.737  14.578   7.355
 3928POPC   NC352655  18.108   3.971   5.521
 3928POPC   PO452656  18.406   4.596   5.506
 3928POPC   GL152657  18.367   4.471   5.897
 3928POPC   GL252658  18.031   4.366   5.860
 3928POPC   C1A52659  18.304   4.588   6.310
 3928POPC   D2A52660  18.473   4.512   6.711
 3928POPC   C3A52661  18.197   4.665   7.023
 3928POPC   C4A52662  18.329   4.320   7.226
 3928POPC   C1B52663  17.978   4.187   6.258
 3928POPC   C2B52664  17.969   4.391   6.653
 3928POPC   C3B52665  17.853   4.176   7.007
 3928POPC   C4B52666  18.029   3.833   7.192
 3929POPC   NC352667  31.182  43.457   5.511
 3929POPC   PO452668  30.611  43.054   5.489
 3929POPC   GL152669  30.903  43.134   5.810
 3929POPC   GL252670  30.693  43.301   6.035
 3929POPC   C1A52671  30.965  42.906   6.211
 3929POPC   D2A52672  30.687  43.053   6.547
 3929POPC   C3A52673  30.781  42.929   6.982
 3929POPC   C4A52674  30.625  43.141   7.356
 3929POPC   C1B52675  31.119  43.403   6.201
 3929POPC   C2B52676  31.122  43.315   6.622
 3929POPC   C3B52677  30.817  43.439   6.931
 3929POPC   C4B52678  31.125  43.276   7.205
 3930POPC   NC352679  21.026  27.118   5.527
 3930POPC   PO452680  21.269  26.419   5.397
 3930POPC   GL152681  21.214  26.652   5.758
 3930POPC   GL252682  21.488  26.856   5.850
 3930POPC   C1A52683  21.170  26.606   6.193
 3930POPC   D2A52684  20.938  26.468   6.526
 3930POPC   C3A52685  21.123  26.514   6.931
 3930POPC   C4A52686  21.036  26.878   7.165
 3930POPC   C1B52687  21.632  26.829   6.278
 3930POPC   C2B52688  21.488  26.818   6.702
 3930POPC   C3B52689  21.525  26.806   7.167
 3930POPC   C4B52690  21.603  27.051   7.575
 3931POPC   NC352691  22.331  24.945   5.623
 3931POPC   PO452692  21.893  24.598   5.256
 3931POPC   GL152693  21.883  24.429   5.718
 3931POPC   GL252694  22.227  24.317   5.845
 3931POPC   C1A52695  21.916  24.523   6.191
 3931POPC   D2A52696  21.751  24.448   6.644
 3931POPC   C3A52697  22.053  24.563   6.943
 3931POPC   C4A52698  22.356  24.824   7.093
 3931POPC   C1B52699  22.290  24.169   6.253
 3931POPC   C2B52700  22.396  24.321   6.665
 3931POPC   C3B52701  22.588  24.347   7.075
 3931POPC   C4B52702  22.541  24.103   7.464
 3932POPC   NC352703  40.993  41.341   5.287
 3932POPC   PO452704  40.970  40.714   5.185
 3932POPC   GL152705  40.932  40.671   5.661
 3932POPC   GL252706  40.642  40.877   5.824
 3932POPC   C1A52707  41.038  40.763   6.110
 3932POPC   D2A52708  40.898  41.094   6.409
 3932POPC   C3A52709  40.846  41.013   6.869
 3932POPC   C4A52710  40.985  40.974   7.298
 3932POPC   C1B52711  40.412  40.803   6.246
 3932POPC   C2B52712  40.355  40.471   6.570
 3932POPC   C3B52713  40.439  40.486   6.998
 3932POPC   C4B52714  40.478  40.854   7.275
 3933POPC   NC352715  44.921  42.706   5.539
 3933POPC   PO452716  44.285  42.636   5.456
 3933POPC   GL152717  44.491  42.404   5.830
 3933POPC   GL252718  44.668  42.623   5.956
 3933POPC   C1A52719  44.728  42.179   6.207
 3933POPC   D2A52720  44.730  41.993   6.639
 3933POPC   C3A52721  44.630  42.280   7.018
 3933POPC   C4A52722  44.266  42.375   7.238
 3933POPC   C1B52723  44.598  42.631   6.381
 3933POPC   C2B52724  44.916  42.465   6.659
 3933POPC   C3B52725   0.087  42.608   7.049
 3933POPC   C4B52726  44.725  42.739   7.247
 3934POPC   NC352727  29.685  14.014   5.479
 3934POPC   PO452728  30.087  13.555   5.148
 3934POPC   GL152729  29.869  13.540   5.596
 3934POPC   GL252730  30.160  13.526   5.822
 3934POPC   C1A52731  29.711  13.651   6.054
 3934POPC   D2A52732  29.899  13.636   6.508
 3934POPC   C3A52733  29.757  13.888   6.870
 3934POPC   C4A52734  29.582  13.677   7.233
 3934POPC   C1B52735  30.334  13.513   6.244
 3934POPC   C2B52736  30.446  13.544   6.667
 3934POPC   C3B52737  30.437  13.808   7.023
 3934POPC   C4B52738  30.098  13.814   7.257
 3935POPC   NC352739  22.213  30.585   5.332
 3935POPC   PO452740  22.112  31.219   5.408
 3935POPC   GL152741  22.198  30.940   5.776
 3935POPC   GL252742  22.375  30.610   5.809
 3935POPC   C1A52743  22.112  30.804   6.215
 3935POPC   D2A52744  22.452  30.731   6.506
 3935POPC   C3A52745  22.313  30.695   6.922
 3935POPC   C4A52746  22.009  30.928   7.196
 3935POPC   C1B52747  22.241  30.321   6.121
 3935POPC   C2B52748  22.163  30.291   6.567
 3935POPC   C3B52749  22.186  30.213   7.013
 3935POPC   C4B52750  21.936  30.421   7.282
 3936POPC   NC352751   2.788   5.615   5.378
 3936POPC   PO452752   2.912   4.959   5.337
 3936POPC   GL152753   2.889   4.969   5.768
 3936POPC   GL252754   2.804   5.304   5.790
 3936POPC   C1A52755   2.777   4.783   6.167
 3936POPC   D2A52756   2.958   4.811   6.571
 3936POPC   C3A52757   2.622   4.870   6.890
 3936POPC   C4A52758   2.536   5.267   7.069
 3936POPC   C1B52759   2.795   5.366   6.224
 3936POPC   C2B52760   3.065   5.329   6.573
 3936POPC   C3B52761   3.056   5.392   6.987
 3936POPC   C4B52762   2.998   5.044   7.224
 3937POPC   NC352763   3.855  22.527   5.543
 3937POPC   PO452764   4.020  21.973   5.484
 3937POPC   GL152765   4.181  22.009   5.911
 3937POPC   GL252766   4.134  22.352   5.940
 3937POPC   C1A52767   4.250  21.874   6.356
 3937POPC   D2A52768   4.507  22.022   6.704
 3937POPC   C3A52769   4.299  21.977   7.083
 3937POPC   C4A52770   3.908  21.853   7.184
 3937POPC   C1B52771   4.294  22.389   6.368
 3937POPC   C2B52772   4.350  22.496   6.817
 3937POPC   C3B52773   4.472  22.434   7.245
 3937POPC   C4B52774   4.646  22.416   7.681
 3938POPC   NC352775  40.886  21.827   5.492
 3938POPC   PO452776  40.483  22.293   5.265
 3938POPC   GL152777  40.531  22.172   5.711
 3938POPC   GL252778  40.809  22.379   5.771
 3938POPC   C1A52779  40.754  21.982   6.121
 3938POPC   D2A52780  40.959  22.075   6.546
 3938POPC   C3A52781  40.735  22.142   6.947
 3938POPC   C4A52782  40.984  22.154   7.318
 3938POPC   C1B52783  40.804  22.482   6.234
 3938POPC   C2B52784  41.040  22.606   6.609
 3938POPC   C3B52785  40.982  22.604   7.053
 3938POPC   C4B52786  40.644  22.533   7.349
 3939POPC   NC352787   7.110  19.322   5.409
 3939POPC   PO452788   7.540  18.817   5.455
 3939POPC   GL152789   7.409  18.980   5.828
 3939POPC   GL252790   7.114  19.130   5.886
 3939POPC   C1A52791   7.353  18.891   6.265
 3939POPC   D2A52792   7.472  18.747   6.643
 3939POPC   C3A52793   7.368  19.044   6.887
 3939POPC   C4A52794   7.434  19.063   7.303
 3939POPC   C1B52795   7.079  19.336   6.287
 3939POPC   C2B52796   6.944  19.292   6.726
 3939POPC   C3B52797   7.116  19.428   7.141
 3939POPC   C4B52798   7.048  19.524   7.585
 3940POPC   NC352799   7.992  10.932   5.079
 3940POPC   PO452800   8.282  10.362   5.366
 3940POPC   GL152801   8.273  10.630   5.769
 3940POPC   GL252802   7.965  10.716   5.937
 3940POPC   C1A52803   8.372  10.639   6.232
 3940POPC   D2A52804   8.263  10.304   6.543
 3940POPC   C3A52805   8.179  10.342   7.011
 3940POPC   C4A52806   8.380  10.457   7.441
 3940POPC   C1B52807   7.887  10.726   6.366
 3940POPC   C2B52808   8.167  10.796   6.702
 3940POPC   C3B52809   8.212  10.848   7.131
 3940POPC   C4B52810   8.186  10.907   7.556
 3941POPC   NC352811  23.289  30.747   5.397
 3941POPC   PO452812  22.651  30.471   5.377
 3941POPC   GL152813  22.776  30.869   5.630
 3941POPC   GL252814  23.086  30.842   5.865
 3941POPC   C1A52815  22.648  30.983   6.078
 3941POPC   D2A52816  22.959  30.864   6.415
 3941POPC   C3A52817  22.867  30.758   6.856
 3941POPC   C4A52818  23.066  30.909   7.220
 3941POPC   C1B52819  23.255  30.503   6.178
 3941POPC   C2B52820  23.323  30.300   6.588
 3941POPC   C3B52821  23.152  30.354   6.999
 3941POPC   C4B52822  22.865  30.452   7.319
 3942POPC   NC352823  37.756  42.804   5.469
 3942POPC   PO452824  37.937  42.175   5.247
 3942POPC   GL152825  37.819  42.145   5.728
 3942POPC   GL252826  38.007  42.349   5.941
 3942POPC   C1A52827  37.532  42.248   6.110
 3942POPC   D2A52828  37.334  42.273   6.546
 3942POPC   C3A52829  37.578  42.238   6.965
 3942POPC   C4A52830  37.741  42.282   7.434
 3942POPC   C1B52831  37.965  42.331   6.391
 3942POPC   C2B52832  38.193  42.436   6.753
 3942POPC   C3B52833  38.125  42.499   7.187
 3942POPC   C4B52834  38.111  42.588   7.617
 3943POPC   NC352835   1.806  39.347   5.096
 3943POPC   PO452836   2.442  39.360   5.410
 3943POPC   GL152837   2.178  39.135   5.793
 3943POPC   GL252838   1.813  38.975   5.744
 3943POPC   C1A52839   1.953  39.185   6.227
 3943POPC   D2A52840   1.795  39.196   6.659
 3943POPC   C3A52841   2.040  39.248   7.075
 3943POPC   C4A52842   2.233  39.173   7.517
 3943POPC   C1B52843   1.507  38.928   6.109
 3943POPC   C2B52844   1.445  38.802   6.551
 3943POPC   C3B52845   1.758  38.731   6.893
 3943POPC   C4B52846   1.907  38.813   7.343
 3944POPC   NC352847  33.202   2.088   4.843
 3944POPC   PO452848  33.137   1.615   5.312
 3944POPC   GL152849  33.037   1.847   5.659
 3944POPC   GL252850  33.268   2.096   5.779
 3944POPC   C1A52851  32.982   1.801   6.101
 3944POPC   D2A52852  33.202   1.902   6.481
 3944POPC   C3A52853  33.007   1.738   6.859
 3944POPC   C4A52854  33.265   1.834   7.212
 3944POPC   C1B52855  33.238   2.356   6.136
 3944POPC   C2B52856  33.014   2.393   6.498
 3944POPC   C3B52857  33.093   2.255   6.906
 3944POPC   C4B52858  32.914   2.267   7.284
 3945POPC   NC352859  34.203  44.412   5.277
 3945POPC   PO452860  34.559  44.865   5.557
 3945POPC   GL152861  34.635  44.679   5.903
 3945POPC   GL252862  34.961  44.765   5.928
 3945POPC   C1A52863  34.674  44.730   6.353
 3945POPC   D2A52864  34.338  44.682   6.608
 3945POPC   C3A52865  34.245  44.915   6.952
 3945POPC   C4A52866  34.493  44.881   7.267
 3945POPC   C1B52867  34.961  44.363   6.114
 3945POPC   C2B52868  34.957  44.280   6.536
 3945POPC   C3B52869  34.774  44.574   6.877
 3945POPC   C4B52870  34.973  44.692   7.258
 3946POPC   NC352871   0.093  29.895   5.268
 3946POPC   PO452872   0.550  30.347   5.323
 3946POPC   GL152873   0.544  30.017   5.691
 3946POPC   GL252874   0.225  29.846   5.762
 3946POPC   C1A52875   0.597  29.975   6.191
 3946POPC   D2A52876   0.474  30.128   6.630
 3946POPC   C3A52877   0.144  29.909   6.911
 3946POPC   C4A52878   0.204  29.820   7.348
 3946POPC   C1B52879   0.233  29.643   6.176
 3946POPC   C2B52880   0.397  29.597   6.603
 3946POPC   C3B52881   0.314  29.414   7.042
 3946POPC   C4B52882  44.945  29.396   7.371
 3947POPC   NC352883   7.781  39.222   5.560
 3947POPC   PO452884   8.239  38.752   5.341
 3947POPC   GL152885   8.268  39.044   5.765
 3947POPC   GL252886   8.431  39.362   5.718
 3947POPC   C1A52887   8.063  39.152   6.207
 3947POPC   D2A52888   7.948  38.900   6.583
 3947POPC   C3A52889   8.169  38.914   6.964
 3947POPC   C4A52890   8.045  39.097   7.342
 3947POPC   C1B52891   8.492  39.424   6.209
 3947POPC   C2B52892   8.323  39.281   6.637
 3947POPC   C3B52893   8.159  39.481   7.031
 3947POPC   C4B52894   8.425  39.632   7.360
 3948POPC   NC352895  25.139  13.798   5.653
 3948POPC   PO452896  25.268  14.425   5.364
 3948POPC   GL152897  25.126  14.306   5.778
 3948POPC   GL252898  25.019  14.613   5.879
 3948POPC   C1A52899  24.951  14.224   6.225
 3948POPC   D2A52900  25.227  14.272   6.609
 3948POPC   C3A52901  25.114  14.175   7.031
 3948POPC   C4A52902  25.186  14.346   7.415
 3948POPC   C1B52903  24.838  14.867   6.186
 3948POPC   C2B52904  25.022  14.964   6.595
 3948POPC   C3B52905  25.127  14.692   6.957
 3948POPC   C4B52906  24.838  14.669   7.300
 3949POPC   NC352907   6.362  14.753   5.049
 3949POPC   PO452908   6.917  15.131   5.355
 3949POPC   GL152909   6.664  15.091   5.740
 3949POPC   GL252910   6.478  15.395   5.869
 3949POPC   C1A52911   6.590  14.968   6.177
 3949POPC   D2A52912   6.414  15.193   6.532
 3949POPC   C3A52913   6.575  15.076   6.936
 3949POPC   C4A52914   6.774  14.992   7.331
 3949POPC   C1B52915   6.773  15.459   6.250
 3949POPC   C2B52916   6.807  15.522   6.731
 3949POPC   C3B52917   6.730  15.492   7.215
 3949POPC   C4B52918   6.593  15.575   7.653
 3950POPC   NC352919  36.573  35.747   5.623
 3950POPC   PO452920  36.999  36.307   5.460
 3950POPC   GL152921  36.913  36.062   5.844
 3950POPC   GL252922  37.074  35.725   5.785
 3950POPC   C1A52923  36.777  36.251   6.279
 3950POPC   D2A52924  36.536  36.429   6.662
 3950POPC   C3A52925  36.730  36.423   7.100
 3950POPC   C4A52926  36.970  36.623   7.460
 3950POPC   C1B52927  37.033  35.763   6.247
 3950POPC   C2B52928  37.134  36.023   6.610
 3950POPC   C3B52929  36.966  35.988   7.037
 3950POPC   C4B52930  36.910  36.122   7.485
 3951POPC   NC352931  30.591   3.577   5.357
 3951POPC   PO452932  31.043   3.255   5.516
 3951POPC   GL152933  30.864   3.464   5.832
 3951POPC   GL252934  30.703   3.762   5.812
 3951POPC   C1A52935  30.931   3.382   6.241
 3951POPC   D2A52936  30.657   3.356   6.599
 3951POPC   C3A52937  30.951   3.294   6.929
 3951POPC   C4A52938  30.933   3.495   7.326
 3951POPC   C1B52939  30.884   3.876   6.176
 3951POPC   C2B52940  30.971   3.749   6.579
 3951POPC   C3B52941  30.776   3.766   6.916
 3951POPC   C4B52942  30.864   3.986   7.225
 3952POPC   NC352943  30.120  41.936   5.548
 3952POPC   PO452944  29.766  41.360   5.504
 3952POPC   GL152945  29.794  41.596   5.835
 3952POPC   GL252946  29.520  41.808   5.743
 3952POPC   C1A52947  30.022  41.579   6.249
 3952POPC   D2A52948  30.375  41.647   6.538
 3952POPC   C3A52949  30.267  41.773   6.958
 3952POPC   C4A52950  30.058  41.440   7.201
 3952POPC   C1B52951  29.663  41.957   6.167
 3952POPC   C2B52952  29.428  41.866   6.531
 3952POPC   C3B52953  29.449  41.822   6.969
 3952POPC   C4B52954  29.779  41.838   7.257
 3953POPC   NC352955   6.664   3.423   5.353
 3953POPC   PO452956   6.268   3.828   5.671
 3953POPC   GL152957   6.463   3.616   5.965
 3953POPC   GL252958   6.792   3.545   5.829
 3953POPC   C1A52959   6.445   3.648   6.402
 3953POPC   D2A52960   6.330   3.352   6.700
 3953POPC   C3A52961   6.485   3.490   7.081
 3953POPC   C4A52962   6.423   3.513   7.533
 3953POPC   C1B52963   6.820   3.329   6.220
 3953POPC   C2B52964   6.872   3.403   6.650
 3953POPC   C3B52965   7.009   3.335   7.055
 3953POPC   C4B52966   6.915   3.533   7.397
 3954POPC   NC352967  14.544  13.980   5.217
 3954POPC   PO452968  14.721  14.544   5.360
 3954POPC   GL152969  14.638  14.380   5.799
 3954POPC   GL252970  14.660  14.005   5.738
 3954POPC   C1A52971  14.554  14.526   6.276
 3954POPC   D2A52972  14.515  14.650   6.757
 3954POPC   C3A52973  14.403  14.482   7.189
 3954POPC   C4A52974  14.345  14.762   7.561
 3954POPC   C1B52975  14.438  14.040   6.157
 3954POPC   C2B52976  14.364  14.169   6.597
 3954POPC   C3B52977  14.167  14.059   6.982
 3954POPC   C4B52978  14.332  13.930   7.347
 3955POPC   NC352979  16.652  32.493   5.349
 3955POPC   PO452980  17.323  32.427   5.185
 3955POPC   GL152981  17.002  32.148   5.507
 3955POPC   GL252982  17.147  31.906   5.779
 3955POPC   C1A52983  16.742  32.162   5.960
 3955POPC   D2A52984  16.692  32.247   6.450
 3955POPC   C3A52985  16.736  32.237   6.920
 3955POPC   C4A52986  16.573  32.170   7.340
 3955POPC   C1B52987  17.120  32.005   6.271
 3955POPC   C2B52988  16.990  31.865   6.682
 3955POPC   C3B52989  16.856  31.775   7.137
 3955POPC   C4B52990  16.951  31.915   7.584
 3956POPC   NC352991  39.478  24.893   5.469
 3956POPC   PO452992  39.068  25.396   5.620
 3956POPC   GL152993  39.347  25.274   5.890
 3956POPC   GL252994  39.576  24.977   5.969
 3956POPC   C1A52995  39.185  25.199   6.295
 3956POPC   D2A52996  38.962  25.378   6.633
 3956POPC   C3A52997  39.105  25.268   7.016
 3956POPC   C4A52998  38.977  25.033   7.344
 3956POPC   C1B52999  39.676  25.356   6.255
 3956POPC   C2B53000  39.533  25.329   6.641
 3956POPC   C3B53001  39.603  25.082   6.978
 3956POPC   C4B53002  39.512  25.245   7.359
 3957POPC   NC353003  19.266   5.531   5.403
 3957POPC   PO453004  18.864   6.124   5.428
 3957POPC   GL153005  18.929   5.856   5.841
 3957POPC   GL253006  18.944   5.482   5.821
 3957POPC   C1A53007  19.099   5.741   6.277
 3957POPC   D2A53008  19.286   5.875   6.699
 3957POPC   C3A53009  19.125   5.793   7.121
 3957POPC   C4A53010  19.303   5.918   7.538
 3957POPC   C1B53011  18.649   5.515   6.179
 3957POPC   C2B53012  18.552   5.490   6.656
 3957POPC   C3B53013  18.639   5.624   7.123
 3957POPC   C4B53014  18.876   5.652   7.546
 3958POPC   NC353015  23.925  14.157   5.537
 3958POPC   PO453016  23.440  14.628   5.439
 3958POPC   GL153017  23.601  14.482   5.853
 3958POPC   GL253018  23.618  14.123   5.943
 3958POPC   C1A53019  23.749  14.603   6.284
 3958POPC   D2A53020  24.058  14.642   6.661
 3958POPC   C3A53021  23.874  14.521   7.069
 3958POPC   C4A53022  23.443  14.439   7.119
 3958POPC   C1B53023  23.903  14.118   6.302
 3958POPC   C2B53024  23.974  14.141   6.762
 3958POPC   C3B53025  24.105  14.074   7.218
 3958POPC   C4B53026  24.123  13.967   7.698
 3959POPC   NC353027   7.655  10.729   5.546
 3959POPC   PO453028   7.311  10.153   5.484
 3959POPC   GL153029   7.414  10.344   5.854
 3959POPC   GL253030   7.749  10.273   5.807
 3959POPC   C1A53031   7.408  10.598   6.225
 3959POPC   D2A53032   7.296  10.823   6.605
 3959POPC   C3A53033   7.202  10.506   6.910
 3959POPC   C4A53034   7.203  10.521   7.324
 3959POPC   C1B53035   7.783  10.203   6.254
 3959POPC   C2B53036   7.645  10.380   6.653
 3959POPC   C3B53037   7.706  10.723   6.920
 3959POPC   C4B53038   7.794  10.599   7.312
 3960POPC   NC353039  29.320  26.974   5.391
 3960POPC   PO453040  28.721  26.966   5.353
 3960POPC   GL153041  28.962  26.916   5.780
 3960POPC   GL253042  29.225  26.664   5.802
 3960POPC   C1A53043  28.897  26.736   6.234
 3960POPC   D2A53044  28.959  26.498   6.620
 3960POPC   C3A53045  28.972  26.700   7.018
 3960POPC   C4A53046  29.132  26.800   7.455
 3960POPC   C1B53047  29.325  26.450   6.224
 3960POPC   C2B53048  29.448  26.334   6.660
 3960POPC   C3B53049  29.458  26.546   7.069
 3960POPC   C4B53050  29.323  26.333   7.465
 3961POPC   NC353051  27.824   6.451   5.427
 3961POPC   PO453052  27.747   7.076   5.489
 3961POPC   GL153053  27.863   6.815   5.825
 3961POPC   GL253054  27.583   6.546   5.864
 3961POPC   C1A53055  27.777   6.793   6.256
 3961POPC   D2A53056  27.521   6.608   6.484
 3961POPC   C3A53057  27.568   6.814   6.832
 3961POPC   C4A53058  27.776   6.632   7.159
 3961POPC   C1B53059  27.294   6.852   6.064
 3961POPC   C2B53060  27.100   6.912   6.473
 3961POPC   C3B53061  27.064   6.878   6.925
 3961POPC   C4B53062  27.246   6.539   7.130
 3962POPC   NC353063   2.302  20.423   5.533
 3962POPC   PO453064   1.727  20.770   5.392
 3962POPC   GL153065   1.846  20.529   5.742
 3962POPC   GL253066   2.090  20.774   5.854
 3962POPC   C1A53067   1.849  20.478   6.195
 3962POPC   D2A53068   2.016  20.647   6.602
 3962POPC   C3A53069   1.963  20.437   7.005
 3962POPC   C4A53070   2.073  20.606   7.444
 3962POPC   C1B53071   2.350  21.017   6.158
 3962POPC   C2B53072   2.422  20.978   6.611
 3962POPC   C3B53073   2.120  21.080   6.914
 3962POPC   C4B53074   1.854  21.018   7.260
 3963POPC   NC353075  42.591  37.447   5.469
 3963POPC   PO453076  43.286  37.616   5.445
 3963POPC   GL153077  43.159  37.778   5.846
 3963POPC   GL253078  42.799  37.757   5.830
 3963POPC   C1A53079  43.349  37.649   6.261
 3963POPC   D2A53080  43.562  37.478   6.646
 3963POPC   C3A53081  43.305  37.283   6.967
 3963POPC   C4A53082  43.100  37.244   7.361
 3963POPC   C1B53083  42.840  37.524   6.222
 3963POPC   C2B53084  43.006  37.595   6.650
 3963POPC   C3B53085  43.053  37.719   7.079
 3963POPC   C4B53086  43.189  38.056   7.292
 3964POPC   NC353087  24.793   1.342   5.369
 3964POPC   PO453088  24.263   0.916   5.375
 3964POPC   GL153089  24.417   1.064   5.747
 3964POPC   GL253090  24.702   0.911   5.875
 3964POPC   C1A53091  24.341   1.031   6.205
 3964POPC   D2A53092  24.197   1.262   6.532
 3964POPC   C3A53093  24.116   1.195   6.965
 3964POPC   C4A53094  24.291   1.411   7.328
 3964POPC   C1B53095  24.858   1.129   6.251
 3964POPC   C2B53096  24.691   1.137   6.638
 3964POPC   C3B53097  24.608   1.097   7.033
 3964POPC   C4B53098  24.896   1.068   7.315
 3965POPC   NC353099   7.349  32.229   5.384
 3965POPC   PO453100   7.207  31.618   5.315
 3965POPC   GL153101   7.155  31.869   5.786
 3965POPC   GL253102   7.144  32.288   5.859
 3965POPC   C1A53103   7.334  31.993   6.208
 3965POPC   D2A53104   7.564  31.892   6.554
 3965POPC   C3A53105   7.408  32.001   6.964
 3965POPC   C4A53106   7.644  32.126   7.323
 3965POPC   C1B53107   7.405  32.579   6.182
 3965POPC   C2B53108   7.515  32.803   6.610
 3965POPC   C3B53109   7.472  32.583   7.042
 3965POPC   C4B53110   7.069  32.427   7.171
 3966POPC   NC353111  24.752  25.389   4.985
 3966POPC   PO453112  24.208  25.437   5.346
 3966POPC   GL153113  24.297  25.225   5.747
 3966POPC   GL253114  24.012  25.378   5.884
 3966POPC   C1A53115  24.607  25.257   6.124
 3966POPC   D2A53116  24.818  25.129   6.535
 3966POPC   C3A53117  24.664  25.164   6.964
 3966POPC   C4A53118  24.496  24.952   7.320
 3966POPC   C1B53119  24.168  25.429   6.301
 3966POPC   C2B53120  24.270  25.141   6.606
 3966POPC   C3B53121  24.165  25.261   7.011
 3966POPC   C4B53122  24.095  25.259   7.420
 3967POPC   NC353123  23.163  12.657   5.389
 3967POPC   PO453124  22.814  13.300   5.403
 3967POPC   GL153125  22.993  13.031   5.711
 3967POPC   GL253126  23.323  13.132   5.741
 3967POPC   C1A53127  22.999  12.924   6.172
 3967POPC   D2A53128  22.806  12.982   6.594
 3967POPC   C3A53129  22.987  12.837   6.998
 3967POPC   C4A53130  23.049  12.419   7.163
 3967POPC   C1B53131  23.312  13.329   6.120
 3967POPC   C2B53132  23.165  13.341   6.527
 3967POPC   C3B53133  23.348  13.231   6.924
 3967POPC   C4B53134  23.144  13.219   7.308
 3968POPC   NC353135   7.766   9.115   5.553
 3968POPC   PO453136   8.182   8.603   5.495
 3968POPC   GL153137   8.210   8.991   5.792
 3968POPC   GL253138   7.923   8.929   5.993
 3968POPC   C1A53139   8.163   9.311   6.180
 3968POPC   D2A53140   7.993   9.179   6.573
 3968POPC   C3A53141   8.252   9.197   6.918
 3968POPC   C4A53142   8.188   9.033   7.313
 3968POPC   C1B53143   7.649   8.864   6.332
 3968POPC   C2B53144   7.767   8.684   6.713
 3968POPC   C3B53145   7.786   8.782   7.140
 3968POPC   C4B53146   7.832   8.698   7.600
 3969POPC   NC353147  24.785  11.850   5.331
 3969POPC   PO453148  24.172  12.107   5.337
 3969POPC   GL153149  24.344  12.376   5.709
 3969POPC   GL253150  24.704  12.303   5.698
 3969POPC   C1A53151  24.411  12.398   6.167
 3969POPC   D2A53152  24.464  12.025   6.460
 3969POPC   C3A53153  24.383  12.143   6.872
 3969POPC   C4A53154  24.382  12.048   7.292
 3969POPC   C1B53155  24.834  12.145   6.110
 3969POPC   C2B53156  24.809  12.376   6.566
 3969POPC   C3B53157  24.840  12.264   7.049
 3969POPC   C4B53158  24.853  11.906   7.385
 3970POPC   NC353159  19.857  16.184   5.526
 3970POPC   PO453160  19.489  15.575   5.407
 3970POPC   GL153161  19.783  15.733   5.778
 3970POPC   GL253162  19.689  16.057   5.973
 3970POPC   C1A53163  20.040  15.757   6.200
 3970POPC   D2A53164  20.194  15.733   6.659
 3970POPC   C3A53165  19.849  15.818   6.958
 3970POPC   C4A53166  19.810  16.213   7.196
 3970POPC   C1B53167  19.404  16.097   6.286
 3970POPC   C2B53168  19.377  15.872   6.662
 3970POPC   C3B53169  19.351  15.962   7.092
 3970POPC   C4B53170  19.308  15.911   7.544
 3971POPC   NC353171  18.615   3.453   5.383
 3971POPC   PO453172  18.033   3.511   5.428
 3971POPC   GL153173  18.299   3.624   5.855
 3971POPC   GL253174  18.394   3.966   5.955
 3971POPC   C1A53175  18.188   3.696   6.343
 3971POPC   D2A53176  18.397   3.500   6.724
 3971POPC   C3A53177  18.330   3.404   7.161
 3971POPC   C4A53178  18.636   3.355   7.494
 3971POPC   C1B53179  18.497   4.126   6.347
 3971POPC   C2B53180  18.326   4.022   6.763
 3971POPC   C3B53181  18.536   3.862   7.127
 3971POPC   C4B53182  18.663   3.887   7.552
 3972POPC   NC353183   0.026  33.945   5.560
 3972POPC   PO453184  44.439  33.722   5.365
 3972POPC   GL153185  44.597  33.757   5.776
 3972POPC   GL253186  44.828  33.484   5.814
 3972POPC   C1A53187  44.645  33.962   6.178
 3972POPC   D2A53188  44.702  33.889   6.606
 3972POPC   C3A53189  44.652  34.079   7.030
 3972POPC   C4A53190  44.976  33.983   7.285
 3972POPC   C1B53191  44.631  33.419   6.184
 3972POPC   C2B53192  44.550  33.342   6.595
 3972POPC   C3B53193  44.601  33.564   6.977
 3972POPC   C4B53194  44.320  33.633   7.326
 3973POPC   NC353195  42.355  26.122   5.335
 3973POPC   PO453196  42.616  25.533   5.613
 3973POPC   GL153197  42.358  25.866   5.867
 3973POPC   GL253198  42.255  26.248   5.820
 3973POPC   C1A53199  42.352  25.888   6.341
 3973POPC   D2A53200  42.686  25.914   6.686
 3973POPC   C3A53201  42.447  25.912   7.072
 3973POPC   C4A53202  42.104  25.848   7.423
 3973POPC   C1B53203  42.521  26.323   6.130
 3973POPC   C2B53204  42.505  26.382   6.569
 3973POPC   C3B53205  42.198  26.370   6.892
 3973POPC   C4B53206  42.371  26.343   7.296
 3974POPC   NC353207  11.671   3.463   5.518
 3974POPC   PO453208  12.253   3.262   5.411
 3974POPC   GL153209  12.119   3.474   5.800
 3974POPC   GL253210  12.028   3.850   5.736
 3974POPC   C1A53211  12.123   3.525   6.259
 3974POPC   D2A53212  12.082   3.636   6.702
 3974POPC   C3A53213  12.148   3.298   6.998
 3974POPC   C4A53214  11.835   3.079   7.231
 3974POPC   C1B53215  12.421   3.867   5.984
 3974POPC   C2B53216  12.538   3.845   6.428
 3974POPC   C3B53217  12.561   3.739   6.857
 3974POPC   C4B53218  12.284   3.753   7.208
 3975POPC   NC353219  14.162   7.298   5.251
 3975POPC   PO453220  14.682   7.731   5.386
 3975POPC   GL153221  14.583   7.403   5.737
 3975POPC   GL253222  14.828   7.110   5.729
 3975POPC   C1A53223  14.400   7.435   6.191
 3975POPC   D2A53224  14.386   7.688   6.601
 3975POPC   C3A53225  14.240   7.411   6.943
 3975POPC   C4A53226  14.104   7.312   7.389
 3975POPC   C1B53227  14.894   7.280   6.145
 3975POPC   C2B53228  14.859   7.504   6.521
 3975POPC   C3B53229  14.740   7.561   6.951
 3975POPC   C4B53230  14.602   7.343   7.313
 3976POPC   NC353231  31.118  31.204   5.522
 3976POPC   PO453232  31.766  31.466   5.486
 3976POPC   GL153233  31.484  31.475   5.793
 3976POPC   GL253234  31.519  31.132   5.839
 3976POPC   C1A53235  31.331  31.429   6.190
 3976POPC   D2A53236  31.241  31.666   6.508
 3976POPC   C3A53237  31.273  31.511   6.881
 3976POPC   C4A53238  30.999  31.698   7.122
 3976POPC   C1B53239  31.694  31.027   6.248
 3976POPC   C2B53240  31.975  31.108   6.609
 3976POPC   C3B53241  31.945  31.241   7.041
 3976POPC   C4B53242  31.617  31.435   7.264
 3977POPC   NC353243  40.233  24.240   5.414
 3977POPC   PO453244  39.951  24.844   5.513
 3977POPC   GL153245  40.051  24.551   5.851
 3977POPC   GL253246  39.950  24.177   5.833
 3977POPC   C1A53247  40.158  24.612   6.293
 3977POPC   D2A53248  39.971  24.434   6.667
 3977POPC   C3A53249  40.007  24.688   7.024
 3977POPC   C4A53250  39.829  24.862   7.396
 3977POPC   C1B53251  40.170  24.120   6.202
 3977POPC   C2B53252  40.430  24.214   6.580
 3977POPC   C3B53253  40.202  24.028   6.905
 3977POPC   C4B53254  39.853  24.182   7.117
 3978POPC   NC353255  23.097  41.754   5.507
 3978POPC   PO453256  22.527  41.340   5.525
 3978POPC   GL153257  22.754  41.512   5.832
 3978POPC   GL253258  22.689  41.879   5.804
 3978POPC   C1A53259  22.842  41.319   6.243
 3978POPC   D2A53260  22.618  41.156   6.619
 3978POPC   C3A53261  22.888  41.239   6.936
 3978POPC   C4A53262  23.172  41.533   6.957
 3978POPC   C1B53263  22.858  41.944   6.186
 3978POPC   C2B53264  22.835  41.722   6.567
 3978POPC   C3B53265  22.817  41.970   6.897
 3978POPC   C4B53266  22.840  41.805   7.260
 3979POPC   NC353267  28.834  40.742   5.240
 3979POPC   PO453268  29.424  41.051   5.147
 3979POPC   GL153269  29.321  40.881   5.586
 3979POPC   GL253270  28.964  40.905   5.716
 3979POPC   C1A53271  29.331  40.872   6.063
 3979POPC   D2A53272  29.198  41.069   6.454
 3979POPC   C3A53273  29.203  40.900   6.874
 3979POPC   C4A53274  29.217  40.587   7.174
 3979POPC   C1B53275  28.813  40.835   6.158
 3979POPC   C2B53276  28.877  40.624   6.572
 3979POPC   C3B53277  28.738  40.695   7.004
 3979POPC   C4B53278  28.793  40.801   7.440
 3980POPC   NC353279   5.395   9.600   5.459
 3980POPC   PO453280   4.903   9.945   5.601
 3980POPC   GL153281   5.127   9.772   5.915
 3980POPC   GL253282   5.358  10.040   5.898
 3980POPC   C1A53283   5.095   9.530   6.308
 3980POPC   D2A53284   5.319   9.401   6.695
 3980POPC   C3A53285   5.170   9.588   7.077
 3980POPC   C4A53286   4.876   9.436   7.371
 3980POPC   C1B53287   5.480   9.886   6.311
 3980POPC   C2B53288   5.426   9.946   6.766
 3980POPC   C3B53289   5.323  10.180   7.151
 3980POPC   C4B53290   5.282   9.989   7.566
 3981POPC   NC353291  10.297  36.049   5.372
 3981POPC   PO453292  10.797  36.222   4.968
 3981POPC   GL153293  10.722  36.294   5.538
 3981POPC   GL253294  10.456  36.252   5.801
 3981POPC   C1A53295  10.891  36.268   6.027
 3981POPC   D2A53296  10.939  35.938   6.366
 3981POPC   C3A53297  10.933  36.070   6.821
 3981POPC   C4A53298  10.779  36.337   7.158
 3981POPC   C1B53299  10.441  36.055   6.236
 3981POPC   C2B53300  10.390  36.036   6.697
 3981POPC   C3B53301  10.293  36.040   7.150
 3981POPC   C4B53302  10.349  35.753   7.531
 3982POPC   NC353303  21.591  44.493   5.254
 3982POPC   PO453304  21.040  44.714   5.604
 3982POPC   GL153305  21.397  44.729   5.819
 3982POPC   GL253306  21.567  44.422   5.808
 3982POPC   C1A53307  21.575  44.814   6.220
 3982POPC   D2A53308  21.331  44.960   6.565
 3982POPC   C3A53309  21.439  44.874   6.968
 3982POPC   C4A53310  21.198  44.960   7.315
 3982POPC   C1B53311  21.346  44.344   6.179
 3982POPC   C2B53312  21.446  44.443   6.590
 3982POPC   C3B53313  21.452  44.203   6.942
 3982POPC   C4B53314  21.304  44.458   7.264
 3983POPC   NC353315  42.004  21.259   5.059
 3983POPC   PO453316  41.364  21.280   5.347
 3983POPC   GL153317  41.411  21.211   5.779
 3983POPC   GL253318  41.258  20.913   5.805
 3983POPC   C1A53319  41.652  21.267   6.179
 3983POPC   D2A53320  41.694  21.519   6.569
 3983POPC   C3A53321  41.582  21.355   6.978
 3983POPC   C4A53322  41.239  21.341   7.271
 3983POPC   C1B53323  41.307  20.897   6.226
 3983POPC   C2B53324  41.466  20.807   6.622
 3983POPC   C3B53325  41.318  20.885   7.040
 3983POPC   C4B53326  41.423  20.913   7.463
 3984POPC   NC353327   1.795   1.495   5.268
 3984POPC   PO453328   2.140   2.123   5.403
 3984POPC   GL153329   1.929   2.038   5.791
 3984POPC   GL253330   2.249   2.156   5.978
 3984POPC   C1A53331   1.959   1.766   6.169
 3984POPC   D2A53332   2.241   1.914   6.520
 3984POPC   C3A53333   2.083   1.809   6.930
 3984POPC   C4A53334   1.836   1.817   7.280
 3984POPC   C1B53335   1.889   2.264   6.267
 3984POPC   C2B53336   1.727   2.428   6.672
 3984POPC   C3B53337   1.928   2.284   7.040
 3984POPC   C4B53338   2.316   2.167   7.263
 3985POPC   NC353339   4.971  20.213   5.144
 3985POPC   PO453340   5.501  20.402   5.542
 3985POPC   GL153341   5.385  20.650   5.879
 3985POPC   GL253342   5.007  20.747   5.933
 3985POPC   C1A53343   5.307  20.577   6.312
 3985POPC   D2A53344   5.041  20.839   6.546
 3985POPC   C3A53345   5.101  20.773   6.958
 3985POPC   C4A53346   5.272  20.935   7.309
 3985POPC   C1B53347   4.811  20.468   6.278
 3985POPC   C2B53348   4.961  20.296   6.694
 3985POPC   C3B53349   4.906  20.350   7.146
 3985POPC   C4B53350   4.925  20.581   7.532
 3986POPC   NC353351  25.261  31.732   5.389
 3986POPC   PO453352  25.143  32.374   5.316
 3986POPC   GL153353  25.091  32.233   5.750
 3986POPC   GL253354  25.309  31.973   5.857
 3986POPC   C1A53355  24.941  32.193   6.185
 3986POPC   D2A53356  24.780  31.986   6.564
 3986POPC   C3A53357  25.010  31.997   6.967
 3986POPC   C4A53358  25.250  32.310   7.193
 3986POPC   C1B53359  25.429  32.086   6.282
 3986POPC   C2B53360  25.378  32.208   6.693
 3986POPC   C3B53361  25.596  31.978   7.023
 3986POPC   C4B53362  25.622  31.747   7.412
 3987POPC   NC353363  42.034   4.398   5.096
 3987POPC   PO453364  42.295   4.664   5.639
 3987POPC   GL153365  42.366   4.240   5.787
 3987POPC   GL253366  42.048   4.200   5.753
 3987POPC   C1A53367  42.418   4.123   6.221
 3987POPC   D2A53368  42.315   4.469   6.523
 3987POPC   C3A53369  42.424   4.493   6.958
 3987POPC   C4A53370  42.441   4.151   7.238
 3987POPC   C1B53371  41.948   4.273   6.187
 3987POPC   C2B53372  42.051   4.008   6.586
 3987POPC   C3B53373  41.945   3.984   7.022
 3987POPC   C4B53374  41.974   4.327   7.342
 3988POPC   NC353375   4.124   3.906   5.505
 3988POPC   PO453376   4.638   3.422   5.575
 3988POPC   GL153377   4.337   3.425   5.899
 3988POPC   GL253378   4.385   3.769   5.929
 3988POPC   C1A53379   4.378   3.363   6.352
 3988POPC   D2A53380   4.597   3.311   6.766
 3988POPC   C3A53381   4.305   3.477   7.074
 3988POPC   C4A53382   4.263   3.519   7.502
 3988POPC   C1B53383   4.118   3.854   6.268
 3988POPC   C2B53384   4.026   3.710   6.698
 3988POPC   C3B53385   4.126   3.970   7.068
 3988POPC   C4B53386   4.076   3.986   7.560
 3989POPC   NC353387  14.928  10.848   5.521
 3989POPC   PO453388  15.537  10.672   5.522
 3989POPC   GL153389  15.320  10.649   5.865
 3989POPC   GL253390  15.130  10.404   5.785
 3989POPC   C1A53391  15.257  10.736   6.304
 3989POPC   D2A53392  15.255  10.423   6.649
 3989POPC   C3A53393  15.036  10.558   7.008
 3989POPC   C4A53394  15.107  10.938   7.206
 3989POPC   C1B53395  15.025  10.303   6.187
 3989POPC   C2B53396  14.857  10.095   6.570
 3989POPC   C3B53397  14.989  10.035   6.984
 3989POPC   C4B53398  14.898  10.206   7.391
 3990POPC   NC353399   7.957  19.460   5.423
 3990POPC   PO453400   8.347  20.121   5.477
 3990POPC   GL153401   8.287  19.981   5.869
 3990POPC   GL253402   8.206  19.636   5.839
 3990POPC   C1A53403   8.441  19.847   6.255
 3990POPC   D2A53404   8.354  19.982   6.652
 3990POPC   C3A53405   8.383  19.703   6.955
 3990POPC   C4A53406   8.481  19.675   7.359
 3990POPC   C1B53407   7.886  19.765   6.121
 3990POPC   C2B53408   7.787  19.849   6.533
 3990POPC   C3B53409   7.920  19.920   6.939
 3990POPC   C4B53410   7.987  19.683   7.311
 3991POPC   NC353411  44.719  39.816   5.338
 3991POPC   PO453412  44.938  40.477   5.417
 3991POPC   GL153413  44.704  40.169   5.703
 3991POPC   GL253414  44.873  39.876   5.836
 3991POPC   C1A53415  44.404  39.964   6.005
 3991POPC   D2A53416  44.317  39.891   6.436
 3991POPC   C3A53417  44.536  39.998   6.800
 3991POPC   C4A53418  44.407  39.735   7.146
 3991POPC   C1B53419  44.838  39.902   6.282
 3991POPC   C2B53420   0.046  40.069   6.618
 3991POPC   C3B53421  44.906  40.322   6.950
 3991POPC   C4B53422  44.817  40.007   7.273
 3992POPC   NC353423  21.719  26.492   5.419
 3992POPC   PO453424  22.265  26.864   5.489
 3992POPC   GL153425  22.375  26.806   5.893
 3992POPC   GL253426  22.023  26.904   5.960
 3992POPC   C1A53427  22.375  26.940   6.313
 3992POPC   D2A53428  22.063  26.767   6.549
 3992POPC   C3A53429  22.167  26.767   6.949
 3992POPC   C4A53430  21.973  26.640   7.304
 3992POPC   C1B53431  21.937  27.234   6.284
 3992POPC   C2B53432  21.844  27.200   6.741
 3992POPC   C3B53433  21.909  27.150   7.177
 3992POPC   C4B53434  22.099  27.107   7.595
 3993POPC   NC353435   9.132  20.363   4.946
 3993POPC   PO453436   8.808  20.838   5.384
 3993POPC   GL153437   8.904  20.697   5.804
 3993POPC   GL253438   9.198  20.458   5.784
 3993POPC   C1A53439   8.776  20.727   6.239
 3993POPC   D2A53440   9.004  20.783   6.638
 3993POPC   C3A53441   8.827  20.552   6.980
 3993POPC   C4A53442   8.637  20.692   7.332
 3993POPC   C1B53443   9.252  20.539   6.197
 3993POPC   C2B53444   9.446  20.522   6.571
 3993POPC   C3B53445   9.340  20.594   7.008
 3993POPC   C4B53446   9.173  20.264   7.269
 3994POPC   NC353447  25.719   8.095   5.042
 3994POPC   PO453448  26.343   7.915   5.248
 3994POPC   GL153449  26.325   8.096   5.697
 3994POPC   GL253450  26.013   8.172   5.891
 3994POPC   C1A53451  26.412   8.096   6.172
 3994POPC   D2A53452  26.318   7.934   6.550
 3994POPC   C3A53453  26.267   8.219   6.839
 3994POPC   C4A53454  26.226   8.242   7.229
 3994POPC   C1B53455  25.817   8.261   6.260
 3994POPC   C2B53456  25.831   8.009   6.622
 3994POPC   C3B53457  25.765   8.130   7.023
 3994POPC   C4B53458  25.786   8.547   7.235
 3995POPC   NC353459  19.287  16.711   5.728
 3995POPC   PO453460  18.809  17.052   5.313
 3995POPC   GL153461  18.784  16.921   5.753
 3995POPC   GL253462  18.776  16.532   5.793
 3995POPC   C1A53463  18.930  17.011   6.213
 3995POPC   D2A53464  18.942  16.809   6.646
 3995POPC   C3A53465  19.088  17.000   7.069
 3995POPC   C4A53466  18.877  17.189   7.459
 3995POPC   C1B53467  18.921  16.462   6.214
 3995POPC   C2B53468  19.023  16.276   6.597
 3995POPC   C3B53469  19.123  16.443   6.998
 3995POPC   C4B53470  19.372  16.398   7.360
 3996POPC   NC353471  27.752   9.737   5.426
 3996POPC   PO453472  27.219  10.107   5.162
 3996POPC   GL153473  27.256   9.693   5.525
 3996POPC   GL253474  27.473   9.402   5.688
 3996POPC   C1A53475  27.236   9.666   6.034
 3996POPC   D2A53476  27.553   9.766   6.358
 3996POPC   C3A53477  27.567   9.823   6.800
 3996POPC   C4A53478  27.408   9.931   7.232
 3996POPC   C1B53479  27.861   9.534   6.007
 3996POPC   C2B53480  27.930   9.434   6.463
 3996POPC   C3B53481  27.827   9.375   6.875
 3996POPC   C4B53482  27.873   9.668   7.205
 3997POPC   NC353483  42.889   8.391   5.262
 3997POPC   PO453484  43.319   7.999   5.506
 3997POPC   GL153485  43.110   8.185   5.800
 3997POPC   GL253486  43.000   7.902   5.943
 3997POPC   C1A53487  43.300   8.239   6.222
 3997POPC   D2A53488  43.551   8.080   6.557
 3997POPC   C3A53489  43.344   8.166   6.944
 3997POPC   C4A53490  43.314   8.008   7.375
 3997POPC   C1B53491  42.788   8.203   6.210
 3997POPC   C2B53492  42.723   8.257   6.649
 3997POPC   C3B53493  42.878   8.325   7.046
 3997POPC   C4B53494  42.814   7.977   7.294
 3998POPC   NC353495  31.450  29.568   5.417
 3998POPC   PO453496  31.594  28.921   5.397
 3998POPC   GL153497  31.451  29.110   5.774
 3998POPC   GL253498  31.737  29.333   5.804
 3998POPC   C1A53499  31.370  28.983   6.207
 3998POPC   D2A53500  31.505  29.134   6.590
 3998POPC   C3A53501  31.464  28.905   6.946
 3998POPC   C4A53502  31.203  29.110   7.244
 3998POPC   C1B53503  31.634  29.435   6.201
 3998POPC   C2B53504  31.533  29.703   6.522
 3998POPC   C3B53505  31.478  29.509   6.931
 3998POPC   C4B53506  31.739  29.267   7.166
 3999POPC   NC353507  37.087   5.460   5.331
 3999POPC   PO453508  36.792   5.994   5.297
 3999POPC   GL153509  36.791   5.664   5.692
 3999POPC   GL253510  37.137   5.514   5.840
 3999POPC   C1A53511  36.712   5.543   6.154
 3999POPC   D2A53512  36.821   5.488   6.641
 3999POPC   C3A53513  36.729   5.831   6.956
 3999POPC   C4A53514  36.630   6.246   7.152
 3999POPC   C1B53515  37.301   5.733   6.225
 3999POPC   C2B53516  37.438   5.904   6.642
 3999POPC   C3B53517  37.224   6.055   7.004
 3999POPC   C4B53518  37.073   5.832   7.356
 4000POPC   NC353519  43.170  35.720   5.431
 4000POPC   PO453520  43.179  35.089   5.237
 4000POPC   GL153521  43.207  35.007   5.664
 4000POPC   GL253522  43.041  35.315   5.741
 4000POPC   C1A53523  43.394  35.145   6.071
 4000POPC   D2A53524  43.367  35.341   6.482
 4000POPC   C3A53525  43.246  35.064   6.810
 4000POPC   C4A53526  43.349  35.176   7.212
 4000POPC   C1B53527  43.115  35.613   6.099
 4000POPC   C2B53528  42.932  35.631   6.510
 4000POPC   C3B53529  43.109  35.547   6.934
 4000POPC   C4B53530  42.919  35.621   7.354
 4001POPC   NC353531   2.788   9.516   5.525
 4001POPC   PO453532   2.554  10.171   5.533
 4001POPC   GL153533   2.892   9.950   5.774
 4001POPC   GL253534   2.633   9.763   5.927
 4001POPC   C1A53535   3.052   9.700   6.181
 4001POPC   D2A53536   3.166   9.838   6.587
 4001POPC   C3A53537   3.048   9.630   6.976
 4001POPC   C4A53538   3.075   9.689   7.439
 4001POPC   C1B53539   2.748  10.106   6.223
 4001POPC   C2B53540   2.603  10.156   6.598
 4001POPC   C3B53541   2.790  10.078   6.937
 4001POPC   C4B53542   2.678   9.950   7.320
 4002POPC   NC353543  24.795  27.578   5.469
 4002POPC   PO453544  24.164  27.936   5.414
 4002POPC   GL153545  24.396  27.780   5.771
 4002POPC   GL253546  24.436  27.424   5.786
 4002POPC   C1A53547  24.609  27.775   6.174
 4002POPC   D2A53548  24.457  27.614   6.574
 4002POPC   C3A53549  24.560  27.783   6.955
 4002POPC   C4A53550  24.496  27.642   7.369
 4002POPC   C1B53551  24.317  27.307   6.183
 4002POPC   C2B53552  24.442  27.115   6.586
 4002POPC   C3B53553  24.410  27.247   7.020
 4002POPC   C4B53554  24.529  27.125   7.468
 4003POPC   NC353555  40.893  22.522   5.176
 4003POPC   PO453556  40.708  23.134   5.422
 4003POPC   GL153557  40.908  22.894   5.759
 4003POPC   GL253558  40.618  22.844   5.935
 4003POPC   C1A53559  41.036  22.978   6.218
 4003POPC   D2A53560  40.864  23.257   6.553
 4003POPC   C3A53561  40.976  23.133   6.990
 4003POPC   C4A53562  40.902  22.970   7.423
 4003POPC   C1B53563  40.522  22.931   6.324
 4003POPC   C2B53564  40.604  22.851   6.750
 4003POPC   C3B53565  40.485  23.013   7.144
 4003POPC   C4B53566  40.437  22.977   7.635
 4004POPC   NC353567  37.591  14.322   4.882
 4004POPC   PO453568  37.822  14.538   5.334
 4004POPC   GL153569  37.905  14.545   5.802
 4004POPC   GL253570  37.750  14.229   5.932
 4004POPC   C1A53571  37.868  14.569   6.292
 4004POPC   D2A53572  37.837  14.378   6.725
 4004POPC   C3A53573  37.562  14.552   7.054
 4004POPC   C4A53574  37.563  14.746   7.497
 4004POPC   C1B53575  37.883  14.023   6.329
 4004POPC   C2B53576  37.648  13.886   6.707
 4004POPC   C3B53577  37.699  14.020   7.110
 4004POPC   C4B53578  37.779  13.924   7.565
 4005POPC   NC353579  44.702  28.617   5.563
 4005POPC   PO453580  44.269  28.276   5.365
 4005POPC   GL153581  44.507  28.181   5.745
 4005POPC   GL253582  44.421  27.854   5.823
 4005POPC   C1A53583  44.693  28.346   6.157
 4005POPC   D2A53584  44.874  28.461   6.562
 4005POPC   C3A53585  44.761  28.276   6.945
 4005POPC   C4A53586  44.912  28.409   7.360
 4005POPC   C1B53587  44.230  28.150   6.175
 4005POPC   C2B53588  44.299  28.440   6.559
 4005POPC   C3B53589  44.298  28.495   7.025
 4005POPC   C4B53590  44.447  28.165   7.337
 4006POPC   NC353591   5.513  44.885   5.373
 4006POPC   PO453592   5.948  44.539   5.007
 4006POPC   GL153593   5.936  44.520   5.558
 4006POPC   GL253594   5.740  44.748   5.805
 4006POPC   C1A53595   5.881  44.328   6.048
 4006POPC   D2A53596   5.629  44.456   6.464
 4006POPC   C3A53597   5.807  44.540   6.898
 4006POPC   C4A53598   6.061  44.324   7.211
 4006POPC   C1B53599   5.943  44.796   6.220
 4006POPC   C2B53600   5.843  44.982   6.611
 4006POPC   C3B53601   5.945   0.037   7.009
 4006POPC   C4B53602   5.947  44.816   7.370
 4007POPC   NC353603  33.939   0.811   5.614
 4007POPC   PO453604  33.841   1.431   5.351
 4007POPC   GL153605  33.777   1.296   5.773
 4007POPC   GL253606  33.519   1.036   5.831
 4007POPC   C1A53607  33.771   1.242   6.225
 4007POPC   D2A53608  33.779   1.007   6.594
 4007POPC   C3A53609  33.693   1.275   6.894
 4007POPC   C4A53610  33.934   1.224   7.230
 4007POPC   C1B53611  33.528   0.766   6.205
 4007POPC   C2B53612  33.328   0.785   6.605
 4007POPC   C3B53613  33.478   0.814   7.033
 4007POPC   C4B53614  33.425   1.164   7.318
 4008POPC   NC353615  42.620  10.722   5.256
 4008POPC   PO453616  42.111  10.259   5.395
 4008POPC   GL153617  42.244  10.519   5.717
 4008POPC   GL253618  42.552  10.508   5.746
 4008POPC   C1A53619  42.235  10.660   6.147
 4008POPC   D2A53620  42.295  10.519   6.581
 4008POPC   C3A53621  42.096  10.708   6.972
 4008POPC   C4A53622  41.987  10.761   7.424
 4008POPC   C1B53623  42.541  10.269   6.139
 4008POPC   C2B53624  42.730  10.167   6.538
 4008POPC   C3B53625  42.545  10.250   6.948
 4008POPC   C4B53626  42.430  10.522   7.308
 4009POPC   NC353627  36.090  29.539   5.339
 4009POPC   PO453628  35.914  28.898   5.505
 4009POPC   GL153629  36.167  29.028   5.821
 4009POPC   GL253630  36.165  29.368   5.812
 4009POPC   C1A53631  36.253  28.937   6.211
 4009POPC   D2A53632  36.356  29.067   6.598
 4009POPC   C3A53633  36.089  29.014   6.948
 4009POPC   C4A53634  36.261  29.020   7.308
 4009POPC   C1B53635  36.360  29.495   6.150
 4009POPC   C2B53636  36.397  29.592   6.563
 4009POPC   C3B53637  36.424  29.409   6.964
 4009POPC   C4B53638  36.176  29.498   7.303
 4010POPC   NC353639  28.715   6.263   5.014
 4010POPC   PO453640  28.283   6.614   5.481
 4010POPC   GL153641  28.365   6.678   5.901
 4010POPC   GL253642  28.723   6.732   5.903
 4010POPC   C1A53643  28.286   6.733   6.346
 4010POPC   D2A53644  28.023   6.508   6.667
 4010POPC   C3A53645  28.226   6.414   7.070
 4010POPC   C4A53646  28.253   6.803   7.247
 4010POPC   C1B53647  28.669   6.382   6.224
 4010POPC   C2B53648  28.543   6.399   6.644
 4010POPC   C3B53649  28.567   6.762   6.864
 4010POPC   C4B53650  28.749   6.687   7.276
 4011POPC   NC353651   6.001  38.724   5.612
 4011POPC   PO453652   6.150  38.136   5.372
 4011POPC   GL153653   5.777  38.265   5.686
 4011POPC   GL253654   5.528  38.543   5.784
 4011POPC   C1A53655   5.797  38.355   6.151
 4011POPC   D2A53656   5.733  38.144   6.524
 4011POPC   C3A53657   6.042  38.121   6.807
 4011POPC   C4A53658   5.964  38.372   7.146
 4011POPC   C1B53659   5.415  38.734   6.149
 4011POPC   C2B53660   5.546  38.637   6.533
 4011POPC   C3B53661   5.521  38.590   6.949
 4011POPC   C4B53662   5.793  38.861   7.133
 4012POPC   NC353663  16.798   6.972   5.044
 4012POPC   PO453664  16.392   6.736   5.530
 4012POPC   GL153665  16.780   6.634   5.764
 4012POPC   GL253666  16.948   6.279   5.707
 4012POPC   C1A53667  16.772   6.734   6.222
 4012POPC   D2A53668  16.598   6.675   6.622
 4012POPC   C3A53669  16.642   6.844   7.021
 4012POPC   C4A53670  16.653   6.640   7.432
 4012POPC   C1B53671  16.782   6.245   6.105
 4012POPC   C2B53672  16.840   6.220   6.524
 4012POPC   C3B53673  16.863   6.385   6.955
 4012POPC   C4B53674  16.937   6.209   7.351
 4013POPC   NC353675  44.754  31.570   5.490
 4013POPC   PO453676  44.130  31.279   5.401
 4013POPC   GL153677  44.382  31.240   5.798
 4013POPC   GL253678  44.758  31.155   5.859
 4013POPC   C1A53679  44.407  31.365   6.237
 4013POPC   D2A53680  44.243  31.453   6.659
 4013POPC   C3A53681  44.610  31.459   6.976
 4013POPC   C4A53682  44.655  31.436   7.458
 4013POPC   C1B53683  44.930  31.130   6.315
 4013POPC   C2B53684   0.171  31.238   6.708
 4013POPC   C3B53685   0.085  31.351   7.161
 4013POPC   C4B53686   0.039  31.140   7.593
 4014POPC   NC353687   5.268  39.130   5.336
 4014POPC   PO453688   4.801  39.444   5.380
 4014POPC   GL153689   4.807  39.131   5.744
 4014POPC   GL253690   5.107  38.907   5.773
 4014POPC   C1A53691   4.777  39.021   6.209
 4014POPC   D2A53692   4.859  39.207   6.631
 4014POPC   C3A53693   4.857  39.016   7.078
 4014POPC   C4A53694   5.045  39.216   7.476
 4014POPC   C1B53695   5.246  39.218   6.117
 4014POPC   C2B53696   5.375  39.213   6.575
 4014POPC   C3B53697   5.350  39.122   7.030
 4014POPC   C4B53698   5.305  38.788   7.366
 4015POPC   NC353699  26.606   7.186   5.300
 4015POPC   PO453700  27.066   7.715   5.456
 4015POPC   GL153701  26.902   7.424   5.767
 4015POPC   GL253702  26.553   7.358   5.775
 4015POPC   C1A53703  26.964   7.344   6.198
 4015POPC   D2A53704  27.054   7.370   6.650
 4015POPC   C3A53705  27.123   7.698   6.908
 4015POPC   C4A53706  27.101   7.636   7.334
 4015POPC   C1B53707  26.468   7.584   6.100
 4015POPC   C2B53708  26.355   7.451   6.491
 4015POPC   C3B53709  26.588   7.534   6.852
 4015POPC   C4B53710  26.569   7.465   7.262
 4016POPC   NC353711  40.557  17.010   5.311
 4016POPC   PO453712  41.090  16.583   5.242
 4016POPC   GL153713  41.026  16.650   5.726
 4016POPC   GL253714  41.183  16.377   5.921
 4016POPC   C1A53715  40.821  16.883   6.123
 4016POPC   D2A53716  40.594  16.934   6.547
 4016POPC   C3A53717  40.690  16.831   6.982
 4016POPC   C4A53718  40.962  16.977   7.344
 4016POPC   C1B53719  41.258  16.415   6.358
 4016POPC   C2B53720  41.029  16.620   6.666
 4016POPC   C3B53721  41.058  16.505   7.094
 4016POPC   C4B53722  41.036  16.086   7.189
 4017POPC   NC353723   0.975   4.900   5.407
 4017POPC   PO453724   1.600   5.056   5.310
 4017POPC   GL153725   1.348   5.125   5.721
 4017POPC   GL253726   1.238   4.803   5.837
 4017POPC   C1A53727   1.212   5.192   6.187
 4017POPC   D2A53728   1.291   5.448   6.564
 4017POPC   C3A53729   1.274   5.267   6.986
 4017POPC   C4A53730   1.329   5.312   7.417
 4017POPC   C1B53731   1.475   4.756   6.215
 4017POPC   C2B53732   1.441   4.945   6.623
 4017POPC   C3B53733   1.373   4.781   7.034
 4017POPC   C4B53734   1.217   4.813   7.488
 4018POPC   NC353735  11.497  40.810   5.242
 4018POPC   PO453736  10.868  40.841   5.183
 4018POPC   GL153737  11.142  40.849   5.630
 4018POPC   GL253738  11.523  40.712   5.739
 4018POPC   C1A53739  11.124  40.651   6.064
 4018POPC   D2A53740  11.029  40.683   6.512
 4018POPC   C3A53741  11.215  41.029   6.753
 4018POPC   C4A53742  11.275  40.955   7.178
 4018POPC   C1B53743  11.627  40.549   6.158
 4018POPC   C2B53744  11.540  40.645   6.592
 4018POPC   C3B53745  11.628  40.540   7.002
 4018POPC   C4B53746  11.724  40.776   7.346
 4019POPC   NC353747  33.554  35.823   5.540
 4019POPC   PO453748  33.586  36.530   5.473
 4019POPC   GL153749  33.746  36.297   5.868
 4019POPC   GL253750  33.878  35.912   5.903
 4019POPC   C1A53751  33.856  36.197   6.296
 4019POPC   D2A53752  33.887  35.953   6.655
 4019POPC   C3A53753  33.766  36.149   7.046
 4019POPC   C4A53754  33.788  36.397   7.430
 4019POPC   C1B53755  34.214  35.783   6.217
 4019POPC   C2B53756  34.344  35.723   6.655
 4019POPC   C3B53757  34.204  35.889   7.062
 4019POPC   C4B53758  34.225  36.153   7.433
 4020POPC   NC353759  16.510  40.661   5.407
 4020POPC   PO453760  16.988  41.148   5.459
 4020POPC   GL153761  16.715  40.992   5.819
 4020POPC   GL253762  16.687  40.609   5.884
 4020POPC   C1A53763  16.750  40.907   6.291
 4020POPC   D2A53764  16.784  40.617   6.656
 4020POPC   C3A53765  16.978  40.785   7.017
 4020POPC   C4A53766  17.135  40.636   7.420
 4020POPC   C1B53767  16.378  40.562   6.233
 4020POPC   C2B53768  16.307  40.747   6.656
 4020POPC   C3B53769  16.469  40.629   7.073
 4020POPC   C4B53770  16.622  40.417   7.455
 4021POPC   NC353771  27.195   5.040   5.204
 4021POPC   PO453772  27.853   5.127   5.364
 4021POPC   GL153773  27.658   5.191   5.768
 4021POPC   GL253774  27.724   5.528   5.881
 4021POPC   C1A53775  27.482   5.176   6.197
 4021POPC   D2A53776  27.391   4.959   6.574
 4021POPC   C3A53777  27.401   5.246   6.909
 4021POPC   C4A53778  27.698   5.212   7.220
 4021POPC   C1B53779  27.818   5.591   6.336
 4021POPC   C2B53780  27.711   5.659   6.778
 4021POPC   C3B53781  27.907   5.667   7.195
 4021POPC   C4B53782  27.916   5.458   7.611
 4022POPC   NC353783   1.265  11.647   5.188
 4022POPC   PO453784   0.864  12.114   5.424
 4022POPC   GL153785   0.905  12.080   5.836
 4022POPC   GL253786   1.248  12.155   5.824
 4022POPC   C1A53787   0.968  12.275   6.236
 4022POPC   D2A53788   1.195  12.132   6.556
 4022POPC   C3A53789   1.076  12.278   6.940
 4022POPC   C4A53790   1.322  12.198   7.289
 4022POPC   C1B53791   1.440  11.888   6.134
 4022POPC   C2B53792   1.346  11.644   6.520
 4022POPC   C3B53793   1.362  11.823   6.934
 4022POPC   C4B53794   1.649  11.804   7.302
 4023POPC   NC353795  43.389  34.085   5.367
 4023POPC   PO453796  42.889  33.629   5.300
 4023POPC   GL153797  42.978  33.805   5.719
 4023POPC   GL253798  43.355  33.794   5.790
 4023POPC   C1A53799  42.712  33.858   6.103
 4023POPC   D2A53800  42.694  34.101   6.488
 4023POPC   C3A53801  42.971  33.937   6.795
 4023POPC   C4A53802  42.798  33.756   7.139
 4023POPC   C1B53803  43.190  33.791   6.210
 4023POPC   C2B53804  43.079  33.491   6.505
 4023POPC   C3B53805  43.174  33.455   6.931
 4023POPC   C4B53806  43.318  33.782   7.196
 4024POPC   NC353807   7.071  12.503   5.570
 4024POPC   PO453808   7.561  11.891   5.403
 4024POPC   GL153809   7.332  11.989   5.795
 4024POPC   GL253810   7.598  11.965   6.013
 4024POPC   C1A53811   7.149  11.877   6.227
 4024POPC   D2A53812   7.172  12.099   6.645
 4024POPC   C3A53813   7.426  11.922   6.990
 4024POPC   C4A53814   7.335  11.911   7.432
 4024POPC   C1B53815   7.381  12.335   6.219
 4024POPC   C2B53816   7.544  12.463   6.596
 4024POPC   C3B53817   7.435  12.447   6.994
 4024POPC   C4B53818   7.640  12.523   7.355
 4025POPC   NC353819  38.734   7.699   5.421
 4025POPC   PO453820  38.609   7.038   5.499
 4025POPC   GL153821  38.656   7.315   5.863
 4025POPC   GL253822  38.325   7.471   5.946
 4025POPC   C1A53823  38.609   7.246   6.336
 4025POPC   D2A53824  38.797   7.031   6.707
 4025POPC   C3A53825  38.589   7.079   7.111
 4025POPC   C4A53826  38.507   7.384   7.456
 4025POPC   C1B53827  38.149   7.457   6.397
 4025POPC   C2B53828  38.297   7.417   6.839
 4025POPC   C3B53829  38.089   7.241   7.217
 4025POPC   C4B53830  37.951   7.454   7.630
 4026POPC   NC353831  19.800  26.292   5.359
 4026POPC   PO453832  20.068  25.735   5.183
 4026POPC   GL153833  20.012  25.890   5.652
 4026POPC   GL253834  19.679  25.816   5.795
 4026POPC   C1A53835  20.097  26.110   6.097
 4026POPC   D2A53836  19.827  26.383   6.430
 4026POPC   C3A53837  19.882  26.275   6.885
 4026POPC   C4A53838  20.024  26.130   7.315
 4026POPC   C1B53839  19.631  25.951   6.212
 4026POPC   C2B53840  19.852  25.855   6.591
 4026POPC   C3B53841  19.686  25.829   7.017
 4026POPC   C4B53842  19.526  26.211   7.253
 4027POPC   NC353843  13.033  20.815   5.209
 4027POPC   PO453844  12.865  20.266   5.520
 4027POPC   GL153845  12.702  20.423   5.863
 4027POPC   GL253846  12.774  20.748   5.839
 4027POPC   C1A53847  12.905  20.454   6.252
 4027POPC   D2A53848  13.193  20.376   6.539
 4027POPC   C3A53849  13.067  20.381   6.971
 4027POPC   C4A53850  12.821  20.442   7.349
 4027POPC   C1B53851  12.877  20.947   6.265
 4027POPC   C2B53852  12.983  20.832   6.708
 4027POPC   C3B53853  12.912  20.911   7.157
 4027POPC   C4B53854  12.886  20.898   7.625
 4028POPC   NC353855  28.364  26.737   5.570
 4028POPC   PO453856  28.297  27.400   5.531
 4028POPC   GL153857  28.202  27.175   5.928
 4028POPC   GL253858  28.501  26.963   6.000
 4028POPC   C1A53859  28.298  27.148   6.404
 4028POPC   D2A53860  28.523  26.817   6.621
 4028POPC   C3A53861  28.491  26.904   7.047
 4028POPC   C4A53862  28.203  27.150   7.270
 4028POPC   C1B53863  28.408  26.526   6.193
 4028POPC   C2B53864  28.509  26.236   6.524
 4028POPC   C3B53865  28.539  26.394   6.931
 4028POPC   C4B53866  28.649  26.520   7.358
 4029POPC   NC353867  21.256  25.609   5.502
 4029POPC   PO453868  21.437  25.205   5.018
 4029POPC   GL153869  21.360  25.138   5.584
 4029POPC   GL253870  21.497  25.397   5.866
 4029POPC   C1A53871  21.220  25.082   6.120
 4029POPC   D2A53872  21.193  25.230   6.597
 4029POPC   C3A53873  21.350  25.171   7.029
 4029POPC   C4A53874  21.603  25.208   7.433
 4029POPC   C1B53875  21.547  25.501   6.308
 4029POPC   C2B53876  21.686  25.446   6.737
 4029POPC   C3B53877  21.758  25.578   7.147
 4029POPC   C4B53878  21.675  25.698   7.619
 4030POPC   NC353879   1.441   0.463   5.386
 4030POPC   PO453880   2.171   0.435   5.538
 4030POPC   GL153881   1.872   0.511   5.838
 4030POPC   GL253882   1.819   0.147   5.803
 4030POPC   C1A53883   1.858   0.657   6.277
 4030POPC   D2A53884   1.691   0.787   6.689
 4030POPC   C3A53885   1.796   0.594   7.083
 4030POPC   C4A53886   2.106   0.359   7.322
 4030POPC   C1B53887   1.954   0.149   6.223
 4030POPC   C2B53888   1.955   0.286   6.659
 4030POPC   C3B53889   1.763   0.074   7.006
 4030POPC   C4B53890   1.703   0.087   7.421
 4031POPC   NC353891  23.694   3.116   5.592
 4031POPC   PO453892  23.776   2.469   5.361
 4031POPC   GL153893  23.696   2.652   5.801
 4031POPC   GL253894  23.411   2.496   5.792
 4031POPC   C1A53895  23.787   2.864   6.236
 4031POPC   D2A53896  24.053   2.960   6.602
 4031POPC   C3A53897  23.876   2.908   7.041
 4031POPC   C4A53898  23.746   2.808   7.498
 4031POPC   C1B53899  23.362   2.557   6.226
 4031POPC   C2B53900  23.439   2.443   6.658
 4031POPC   C3B53901  23.510   2.528   7.119
 4031POPC   C4B53902  23.407   2.441   7.589
 4032POPC   NC353903  39.912   3.712   5.410
 4032POPC   PO453904  39.738   3.056   5.540
 4032POPC   GL153905  39.717   3.391   5.879
 4032POPC   GL253906  39.905   3.734   5.921
 4032POPC   C1A53907  39.978   3.381   6.273
 4032POPC   D2A53908  40.192   3.231   6.649
 4032POPC   C3A53909  39.892   3.389   6.925
 4032POPC   C4A53910  39.720   3.473   7.318
 4032POPC   C1B53911  40.265   3.874   6.164
 4032POPC   C2B53912  40.230   3.735   6.587
 4032POPC   C3B53913  40.046   3.891   6.967
 4032POPC   C4B53914  40.054   3.834   7.408
 4033POPC   NC353915  24.257  13.341   5.475
 4033POPC   PO453916  24.931  13.511   5.361
 4033POPC   GL153917  24.684  13.625   5.774
 4033POPC   GL253918  24.351  13.763   5.764
 4033POPC   C1A53919  24.779  13.716   6.225
 4033POPC   D2A53920  24.582  13.536   6.584
 4033POPC   C3A53921  24.316  13.649   6.923
 4033POPC   C4A53922  24.450  13.724   7.369
 4033POPC   C1B53923  24.289  13.499   6.150
 4033POPC   C2B53924  24.184  13.236   6.518
 4033POPC   C3B53925  24.313  13.124   6.933
 4033POPC   C4B53926  24.074  12.911   7.269
 4034POPC   NC353927  39.763  16.407   5.388
 4034POPC   PO453928  40.444  16.481   5.401
 4034POPC   GL153929  40.485  16.733   5.753
 4034POPC   GL253930  40.166  16.882   5.704
 4034POPC   C1A53931  40.344  16.680   6.173
 4034POPC   D2A53932  40.040  16.464   6.420
 4034POPC   C3A53933  40.111  16.540   6.840
 4034POPC   C4A53934  40.230  16.543   7.274
 4034POPC   C1B53935  39.865  16.774   6.049
 4034POPC   C2B53936  39.617  16.788   6.442
 4034POPC   C3B53937  39.663  16.857   6.868
 4034POPC   C4B53938  39.725  16.534   7.165
 4035POPC   NC353939  39.952  21.856   5.576
 4035POPC   PO453940  40.167  21.348   5.176
 4035POPC   GL153941  40.129  21.283   5.715
 4035POPC   GL253942  40.138  21.587   5.947
 4035POPC   C1A53943  40.086  21.205   6.244
 4035POPC   D2A53944  40.119  21.556   6.577
 4035POPC   C3A53945  39.999  21.489   6.980
 4035POPC   C4A53946  40.274  21.263   7.196
 4035POPC   C1B53947  39.802  21.678   6.205
 4035POPC   C2B53948  39.696  21.989   6.515
 4035POPC   C3B53949  39.626  21.903   6.948
 4035POPC   C4B53950  39.867  21.848   7.320
 4036POPC   NC353951  33.447  12.294   5.397
 4036POPC   PO453952  32.859  12.329   5.345
 4036POPC   GL153953  32.835  12.280   5.796
 4036POPC   GL253954  32.866  11.933   5.891
 4036POPC   C1A53955  32.990  12.247   6.252
 4036POPC   D2A53956  32.996  11.869   6.510
 4036POPC   C3A53957  32.843  11.830   6.935
 4036POPC   C4A53958  32.724  11.918   7.366
 4036POPC   C1B53959  33.306  11.861   6.084
 4036POPC   C2B53960  33.533  11.780   6.489
 4036POPC   C3B53961  33.363  11.698   6.917
 4036POPC   C4B53962  33.234  11.939   7.289
 4037POPC   NC353963  44.078  27.857   5.366
 4037POPC   PO453964  43.622  27.448   5.128
 4037POPC   GL153965  43.695  27.582   5.598
 4037POPC   GL253966  44.019  27.473   5.746
 4037POPC   C1A53967  43.579  27.599   6.064
 4037POPC   D2A53968  43.771  27.395   6.438
 4037POPC   C3A53969  43.693  27.466   6.867
 4037POPC   C4A53970  43.623  27.852   7.043
 4037POPC   C1B53971  44.090  27.659   6.141
 4037POPC   C2B53972  44.352  27.775   6.502
 4037POPC   C3B53973  44.278  27.938   6.913
 4037POPC   C4B53974  44.110  27.718   7.285
 4038POPC   NC353975  28.399  40.320   5.303
 4038POPC   PO453976  28.848  39.945   5.658
 4038POPC   GL153977  28.649  39.895   5.985
 4038POPC   GL253978  28.337  40.066   5.876
 4038POPC   C1A53979  28.778  39.664   6.339
 4038POPC   D2A53980  28.708  39.784   6.745
 4038POPC   C3A53981  28.666  39.812   7.158
 4038POPC   C4A53982  28.226  39.842   7.205
 4038POPC   C1B53983  28.077  40.274   6.238
 4038POPC   C2B53984  27.941  40.277   6.710
 4038POPC   C3B53985  27.987  40.300   7.193
 4038POPC   C4B53986  28.034  40.311   7.704
 4039POPC   NC353987   0.318  38.435   5.488
 4039POPC   PO453988   0.424  37.836   5.335
 4039POPC   GL153989   0.607  38.062   5.763
 4039POPC   GL253990   0.726  38.443   5.805
 4039POPC   C1A53991   0.569  38.185   6.243
 4039POPC   D2A53992   0.569  37.963   6.674
 4039POPC   C3A53993   0.384  38.165   7.078
 4039POPC   C4A53994   0.248  38.570   7.217
 4039POPC   C1B53995   0.470  38.667   6.155
 4039POPC   C2B53996   0.420  38.579   6.636
 4039POPC   C3B53997   0.545  38.894   6.963
 4039POPC   C4B53998   0.608  38.937   7.385
 4040POPC   NC353999  35.818  35.066   5.544
 4040POPC   PO454000  36.155  34.441   5.523
 4040POPC   GL154001  36.078  34.683   5.888
 4040POPC   GL254002  36.001  35.011   6.034
 4040POPC   C1A54003  35.971  34.556   6.306
 4040POPC   D2A54004  36.192  34.590   6.696
 4040POPC   C3A54005  35.935  34.718   7.026
 4040POPC   C4A54006  35.860  34.409   7.286
 4040POPC   C1B54007  36.443  34.989   6.232
 4040POPC   C2B54008  36.603  34.919   6.653
 4040POPC   C3B54009  36.454  34.797   7.088
 4040POPC   C4B54010  36.234  34.709   7.487
 4041POPC   NC354011   1.633  29.064   5.585
 4041POPC   PO454012   2.244  29.350   5.582
 4041POPC   GL154013   2.064  28.953   5.847
 4041POPC   GL254014   1.693  28.741   5.953
 4041POPC   C1A54015   2.174  29.043   6.228
 4041POPC   D2A54016   2.337  29.208   6.583
 4041POPC   C3A54017   2.251  28.985   6.944
 4041POPC   C4A54018   2.314  29.197   7.300
 4041POPC   C1B54019   1.658  29.069   6.264
 4041POPC   C2B54020   1.819  29.292   6.623
 4041POPC   C3B54021   1.862  29.295   7.066
 4041POPC   C4B54022   1.811  29.012   7.412
 4042POPC   NC354023  38.957  35.692   5.352
 4042POPC   PO454024  38.299  35.529   5.410
 4042POPC   GL154025  38.596  35.481   5.736
 4042POPC   GL254026  38.674  35.146   5.827
 4042POPC   C1A54027  38.441  35.453   6.166
 4042POPC   D2A54028  38.640  35.529   6.549
 4042POPC   C3A54029  38.462  35.418   6.957
 4042POPC   C4A54030  38.251  35.368   7.360
 4042POPC   C1B54031  38.802  35.111   6.205
 4042POPC   C2B54032  38.571  35.017   6.525
 4042POPC   C3B54033  38.753  35.008   6.883
 4042POPC   C4B54034  38.549  34.982   7.257
 4043POPC   NC354035  43.516  15.291   5.084
 4043POPC   PO454036  43.024  15.082   5.343
 4043POPC   GL154037  43.135  15.251   5.730
 4043POPC   GL254038  42.765  15.344   5.764
 4043POPC   C1A54039  43.324  15.341   6.191
 4043POPC   D2A54040  43.135  15.259   6.619
 4043POPC   C3A54041  43.212  15.259   7.087
 4043POPC   C4A54042  42.978  15.408   7.485
 4043POPC   C1B54043  42.885  15.105   6.138
 4043POPC   C2B54044  42.944  14.814   6.444
 4043POPC   C3B54045  42.915  14.854   6.871
 4043POPC   C4B54046  42.816  14.959   7.271
 4044POPC   NC354047  37.496   1.959   5.464
 4044POPC   PO454048  38.040   1.598   5.507
 4044POPC   GL154049  37.849   1.798   5.866
 4044POPC   GL254050  37.854   2.157   5.871
 4044POPC   C1A54051  37.561   1.945   6.228
 4044POPC   D2A54052  37.546   2.228   6.604
 4044POPC   C3A54053  37.441   2.073   7.034
 4044POPC   C4A54054  37.487   1.675   7.265
 4044POPC   C1B54055  38.006   2.407   6.211
 4044POPC   C2B54056  38.213   2.237   6.548
 4044POPC   C3B54057  38.036   2.045   6.886
 4044POPC   C4B54058  37.889   1.982   7.295
 4045POPC   NC354059   7.202  41.088   5.548
 4045POPC   PO454060   7.621  40.573   5.475
 4045POPC   GL154061   7.559  40.851   5.833
 4045POPC   GL254062   7.319  40.620   5.923
 4045POPC   C1A54063   7.330  41.023   6.213
 4045POPC   D2A54064   7.112  40.901   6.560
 4045POPC   C3A54065   7.403  41.084   6.845
 4045POPC   C4A54066   7.482  41.117   7.254
 4045POPC   C1B54067   7.649  40.534   6.251
 4045POPC   C2B54068   7.823  40.536   6.699
 4045POPC   C3B54069   7.601  40.602   7.123
 4045POPC   C4B54070   7.568  40.506   7.593
 4046POPC   NC354071  43.841  43.419   5.307
 4046POPC   PO454072  43.844  44.054   5.417
 4046POPC   GL154073  43.731  43.728   5.705
 4046POPC   GL254074  43.870  43.922   5.957
 4046POPC   C1A54075  43.534  43.588   6.086
 4046POPC   D2A54076  43.742  43.756   6.458
 4046POPC   C3A54077  43.801  43.623   6.888
 4046POPC   C4A54078  43.721  43.760   7.300
 4046POPC   C1B54079  44.090  44.118   6.292
 4046POPC   C2B54080  44.064  44.076   6.728
 4046POPC   C3B54081  43.788  44.205   7.039
 4046POPC   C4B54082  43.815  44.197   7.523
 4047POPC   NC354083  34.316  42.285   5.277
 4047POPC   PO454084  34.876  42.623   5.184
 4047POPC   GL154085  34.647  42.276   5.639
 4047POPC   GL254086  34.284  42.202   5.784
 4047POPC   C1A54087  34.625  42.299   6.142
 4047POPC   D2A54088  34.374  42.469   6.510
 4047POPC   C3A54089  34.564  42.511   6.930
 4047POPC   C4A54090  34.642  42.204   7.257
 4047POPC   C1B54091  34.272  41.954   6.170
 4047POPC   C2B54092  34.490  41.960   6.527
 4047POPC   C3B54093  34.383  41.999   6.894
 4047POPC   C4B54094  34.023  41.926   7.099
 4048POPC   NC354095  39.485  31.501   5.510
 4048POPC   PO454096  38.833  31.712   5.573
 4048POPC   GL154097  39.156  31.659   5.893
 4048POPC   GL254098  39.397  31.923   5.792
 4048POPC   C1A54099  39.332  31.305   6.177
 4048POPC   D2A54100  39.510  31.124   6.576
 4048POPC   C3A54101  39.357  31.216   6.972
 4048POPC   C4A54102  39.094  31.431   7.285
 4048POPC   C1B54103  39.599  31.735   6.145
 4048POPC   C2B54104  39.546  31.630   6.570
 4048POPC   C3B54105  39.407  31.738   6.985
 4048POPC   C4B54106  39.494  31.892   7.388
 4049POPC   NC354107  39.023  39.980   5.612
 4049POPC   PO454108  38.377  39.642   5.409
 4049POPC   GL154109  38.381  39.847   5.834
 4049POPC   GL254110  38.566  40.163   5.831
 4049POPC   C1A54111  38.273  39.973   6.266
 4049POPC   D2A54112  38.311  40.146   6.694
 4049POPC   C3A54113  38.355  39.813   7.009
 4049POPC   C4A54114  38.403  39.745   7.474
 4049POPC   C1B54115  38.676  40.296   6.254
 4049POPC   C2B54116  38.757  40.400   6.672
 4049POPC   C3B54117  38.666  40.251   7.079
 4049POPC   C4B54118  38.313  40.220   7.314
 4050POPC   NC354119  27.178  24.281   4.998
 4050POPC   PO454120  26.839  24.850   5.338
 4050POPC   GL154121  26.741  24.679   5.777
 4050POPC   GL254122  26.969  24.495   5.998
 4050POPC   C1A54123  26.561  24.704   6.185
 4050POPC   D2A54124  26.832  24.605   6.526
 4050POPC   C3A54125  26.630  24.727   6.900
 4050POPC   C4A54126  26.807  24.714   7.298
 4050POPC   C1B54127  27.226  24.219   6.279
 4050POPC   C2B54128  27.203  24.278   6.726
 4050POPC   C3B54129  26.894  24.298   7.024
 4050POPC   C4B54130  26.680  24.025   7.263
 4051POPC   NC354131  33.130  40.467   5.439
 4051POPC   PO454132  32.940  41.018   5.154
 4051POPC   GL154133  33.128  40.933   5.643
 4051POPC   GL254134  32.902  40.682   5.832
 4051POPC   C1A54135  33.151  41.012   6.136
 4051POPC   D2A54136  33.253  40.833   6.583
 4051POPC   C3A54137  33.092  40.964   6.986
 4051POPC   C4A54138  33.093  40.834   7.446
 4051POPC   C1B54139  33.063  40.438   6.204
 4051POPC   C2B54140  32.964  40.408   6.659
 4051POPC   C3B54141  32.919  40.499   7.106
 4051POPC   C4B54142  32.758  40.453   7.555
 4052POPC   NC354143  28.678  27.674   5.414
 4052POPC   PO454144  29.392  27.706   5.404
 4052POPC   GL154145  29.122  27.734   5.760
 4052POPC   GL254146  28.888  27.443   5.820
 4052POPC   C1A54147  29.197  27.705   6.207
 4052POPC   D2A54148  28.935  27.601   6.560
 4052POPC   C3A54149  29.025  27.588   6.969
 4052POPC   C4A54150  28.916  27.857   7.279
 4052POPC   C1B54151  28.923  27.240   6.217
 4052POPC   C2B54152  28.961  27.091   6.671
 4052POPC   C3B54153  29.210  27.143   7.078
 4052POPC   C4B54154  29.342  27.481   7.396
 4053POPC   NC354155   3.795  18.231   5.404
 4053POPC   PO454156   3.239  18.571   5.533
 4053POPC   GL154157   3.532  18.402   5.816
 4053POPC   GL254158   3.623  18.057   5.845
 4053POPC   C1A54159   3.740  18.439   6.202
 4053POPC   D2A54160   3.495  18.451   6.557
 4053POPC   C3A54161   3.630  18.611   6.888
 4053POPC   C4A54162   3.792  18.364   7.157
 4053POPC   C1B54163   3.412  18.032   6.216
 4053POPC   C2B54164   3.385  17.958   6.650
 4053POPC   C3B54165   3.334  18.165   7.067
 4053POPC   C4B54166   3.591  18.009   7.458
 4054POPC   NC354167  11.707  11.119   5.213
 4054POPC   PO454168  11.036  11.487   5.184
 4054POPC   GL154169  11.034  11.266   5.606
 4054POPC   GL254170  11.371  11.178   5.765
 4054POPC   C1A54171  10.985  11.325   6.084
 4054POPC   D2A54172  11.203  11.388   6.484
 4054POPC   C3A54173  11.004  11.323   6.867
 4054POPC   C4A54174  10.961  11.394   7.298
 4054POPC   C1B54175  11.327  10.976   6.200
 4054POPC   C2B54176  11.223  10.899   6.662
 4054POPC   C3B54177  11.407  11.118   7.063
 4054POPC   C4B54178  11.385  11.188   7.518
 4055POPC   NC354179  11.552  25.171   5.404
 4055POPC   PO454180  11.184  25.660   5.275
 4055POPC   GL154181  11.111  25.329   5.662
 4055POPC   GL254182  11.413  25.285   5.889
 4055POPC   C1A54183  10.978  25.090   6.073
 4055POPC   D2A54184  10.812  25.134   6.496
 4055POPC   C3A54185  11.116  25.138   6.823
 4055POPC   C4A54186  10.990  25.311   7.200
 4055POPC   C1B54187  11.390  25.183   6.353
 4055POPC   C2B54188  11.619  25.022   6.692
 4055POPC   C3B54189  11.566  24.952   7.108
 4055POPC   C4B54190  11.650  24.853   7.505
 4056POPC   NC354191  10.494  20.009   5.277
 4056POPC   PO454192  10.767  19.509   5.499
 4056POPC   GL154193  10.486  19.757   5.801
 4056POPC   GL254194  10.389  20.123   5.751
 4056POPC   C1A54195  10.457  19.703   6.259
 4056POPC   D2A54196  10.744  19.804   6.631
 4056POPC   C3A54197  10.511  19.804   7.020
 4056POPC   C4A54198  10.282  19.456   7.193
 4056POPC   C1B54199  10.214  20.124   6.154
 4056POPC   C2B54200  10.312  20.062   6.591
 4056POPC   C3B54201  10.101  20.104   6.976
 4056POPC   C4B54202  10.236  20.140   7.392
 4057POPC   NC354203  30.200   9.853   5.393
 4057POPC   PO454204  29.533   9.860   5.173
 4057POPC   GL154205  29.756   9.774   5.656
 4057POPC   GL254206  30.124   9.640   5.831
 4057POPC   C1A54207  29.736   9.846   6.143
 4057POPC   D2A54208  29.502   9.632   6.487
 4057POPC   C3A54209  29.611   9.661   6.933
 4057POPC   C4A54210  29.809   9.926   7.259
 4057POPC   C1B54211  30.304   9.568   6.228
 4057POPC   C2B54212  30.034   9.607   6.600
 4057POPC   C3B54213  30.147   9.619   7.026
 4057POPC   C4B54214  30.318   9.303   7.242
 4058POPC   NC354215  29.161   7.138   5.202
 4058POPC   PO454216  29.552   7.664   5.350
 4058POPC   GL154217  29.338   7.462   5.722
 4058POPC   GL254218  29.004   7.292   5.699
 4058POPC   C1A54219  29.324   7.585   6.177
 4058POPC   D2A54220  29.298   7.804   6.601
 4058POPC   C3A54221  29.180   7.557   6.968
 4058POPC   C4A54222  29.349   7.438   7.362
 4058POPC   C1B54223  29.009   7.115   6.106
 4058POPC   C2B54224  29.085   7.271   6.510
 4058POPC   C3B54225  28.848   7.189   6.839
 4058POPC   C4B54226  28.947   7.143   7.232
 4059POPC   NC354227  38.614   2.857   5.348
 4059POPC   PO454228  37.982   3.218   5.344
 4059POPC   GL154229  38.301   3.073   5.715
 4059POPC   GL254230  38.683   2.914   5.856
 4059POPC   C1A54231  38.264   2.869   6.130
 4059POPC   D2A54232  38.290   2.745   6.545
 4059POPC   C3A54233  38.158   2.960   6.899
 4059POPC   C4A54234  38.187   2.722   7.277
 4059POPC   C1B54235  38.733   2.941   6.354
 4059POPC   C2B54236  38.753   2.861   6.827
 4059POPC   C3B54237  38.785   2.775   7.285
 4059POPC   C4B54238  38.758   3.057   7.677
 4060POPC   NC354239  12.733  22.566   5.420
 4060POPC   PO454240  13.099  21.985   5.452
 4060POPC   GL154241  12.922  22.166   5.848
 4060POPC   GL254242  12.555  22.292   5.820
 4060POPC   C1A54243  12.875  22.017   6.287
 4060POPC   D2A54244  12.863  21.843   6.686
 4060POPC   C3A54245  12.966  22.080   7.032
 4060POPC   C4A54246  12.773  22.066   7.436
 4060POPC   C1B54247  12.585  22.428   6.249
 4060POPC   C2B54248  12.697  22.394   6.698
 4060POPC   C3B54249  12.469  22.343   7.108
 4060POPC   C4B54250  12.470  22.439   7.581
 4061POPC   NC354251  33.398   1.231   5.358
 4061POPC   PO454252  32.693   1.029   5.376
 4061POPC   GL154253  32.996   1.066   5.712
 4061POPC   GL254254  32.862   1.372   5.836
 4061POPC   C1A54255  33.146   1.095   6.167
 4061POPC   D2A54256  33.328   1.313   6.510
 4061POPC   C3A54257  33.140   1.196   6.885
 4061POPC   C4A54258  32.975   1.388   7.244
 4061POPC   C1B54259  32.644   1.081   6.109
 4061POPC   C2B54260  32.762   1.000   6.539
 4061POPC   C3B54261  32.635   1.093   6.974
 4061POPC   C4B54262  32.585   1.127   7.429
 4062POPC   NC354263  28.141   4.742   5.376
 4062POPC   PO454264  28.565   5.261   5.386
 4062POPC   GL154265  28.478   5.181   5.798
 4062POPC   GL254266  28.169   5.307   5.784
 4062POPC   C1A54267  28.438   5.351   6.228
 4062POPC   D2A54268  28.359   5.013   6.549
 4062POPC   C3A54269  28.636   4.869   6.903
 4062POPC   C4A54270  28.601   4.916   7.388
 4062POPC   C1B54271  27.991   5.117   6.169
 4062POPC   C2B54272  27.878   5.152   6.634
 4062POPC   C3B54273  28.121   4.995   7.008
 4062POPC   C4B54274  28.059   4.917   7.438
 4063POPC   NC354275  18.523   5.035   5.478
 4063POPC   PO454276  18.137   5.559   5.518
 4063POPC   GL154277  18.224   5.248   5.851
 4063POPC   GL254278  18.099   4.910   5.795
 4063POPC   C1A54279  18.473   5.051   6.202
 4063POPC   D2A54280  18.358   5.001   6.652
 4063POPC   C3A54281  18.422   5.152   7.104
 4063POPC   C4A54282  18.581   5.230   7.550
 4063POPC   C1B54283  17.977   4.974   6.233
 4063POPC   C2B54284  17.860   5.152   6.623
 4063POPC   C3B54285  17.868   5.116   7.075
 4063POPC   C4B54286  17.784   4.942   7.504
 4064POPC   NC354287  27.790  26.350   5.317
 4064POPC   PO454288  27.356  25.818   5.299
 4064POPC   GL154289  27.387  26.062   5.695
 4064POPC   GL254290  27.260  25.792   5.931
 4064POPC   C1A54291  27.552  26.137   6.142
 4064POPC   D2A54292  27.298  25.976   6.508
 4064POPC   C3A54293  27.435  26.083   6.932
 4064POPC   C4A54294  27.467  26.220   7.361
 4064POPC   C1B54295  27.592  25.637   6.267
 4064POPC   C2B54296  27.707  25.715   6.697
 4064POPC   C3B54297  27.724  25.697   7.143
 4064POPC   C4B54298  28.072  25.709   7.380
 4065POPC   NC354299   8.187  15.415   5.138
 4065POPC   PO454300   7.795  15.010   5.323
 4065POPC   GL154301   7.910  14.978   5.781
 4065POPC   GL254302   8.251  14.866   5.854
 4065POPC   C1A54303   7.963  15.124   6.233
 4065POPC   D2A54304   7.985  15.418   6.606
 4065POPC   C3A54305   7.870  15.191   6.997
 4065POPC   C4A54306   7.971  15.240   7.419
 4065POPC   C1B54307   8.432  14.908   6.273
 4065POPC   C2B54308   8.266  14.996   6.700
 4065POPC   C3B54309   8.376  15.185   7.102
 4065POPC   C4B54310   8.611  15.025   7.446
 4066POPC   NC354311  39.863  44.109   5.413
 4066POPC   PO454312  39.835  43.439   5.348
 4066POPC   GL154313  40.141  43.709   5.623
 4066POPC   GL254314  39.869  43.777   5.831
 4066POPC   C1A54315  40.294  43.820   6.112
 4066POPC   D2A54316  40.265  44.122   6.494
 4066POPC   C3A54317  40.292  43.957   6.920
 4066POPC   C4A54318  40.136  43.728   7.243
 4066POPC   C1B54319  39.881  43.538   6.234
 4066POPC   C2B54320  40.055  43.561   6.637
 4066POPC   C3B54321  39.858  43.379   6.981
 4066POPC   C4B54322  39.722  43.477   7.413
 4067POPC   NC354323  22.223  36.624   5.351
 4067POPC   PO454324  22.451  37.237   5.480
 4067POPC   GL154325  22.177  37.103   5.843
 4067POPC   GL254326  22.078  36.751   5.843
 4067POPC   C1A54327  22.216  37.035   6.303
 4067POPC   D2A54328  22.385  37.067   6.721
 4067POPC   C3A54329  22.204  36.828   7.064
 4067POPC   C4A54330  22.215  36.977   7.506
 4067POPC   C1B54331  21.894  36.650   6.251
 4067POPC   C2B54332  21.811  36.845   6.653
 4067POPC   C3B54333  21.717  36.599   7.012
 4067POPC   C4B54334  21.909  36.549   7.410
 4068POPC   NC354335  31.722   4.912   5.376
 4068POPC   PO454336  31.454   5.434   5.770
 4068POPC   GL154337  31.427   5.010   5.785
 4068POPC   GL254338  31.242   4.793   5.525
 4068POPC   C1A54339  31.517   4.848   6.184
 4068POPC   D2A54340  31.598   5.097   6.536
 4068POPC   C3A54341  31.467   4.911   6.892
 4068POPC   C4A54342  31.388   5.152   7.192
 4068POPC   C1B54343  31.107   4.662   5.937
 4068POPC   C2B54344  31.087   4.719   6.405
 4068POPC   C3B54345  30.987   4.746   6.844
 4068POPC   C4B54346  30.947   4.946   7.254
 4069POPC   NC354347  11.067  39.012   5.449
 4069POPC   PO454348  11.740  39.004   5.360
 4069POPC   GL154349  11.511  39.032   5.727
 4069POPC   GL254350  11.481  39.377   5.805
 4069POPC   C1A54351  11.350  39.009   6.166
 4069POPC   D2A54352  11.568  38.972   6.559
 4069POPC   C3A54353  11.415  39.058   6.974
 4069POPC   C4A54354  11.149  39.270   7.265
 4069POPC   C1B54355  11.177  39.489   6.151
 4069POPC   C2B54356  11.005  39.492   6.564
 4069POPC   C3B54357  11.014  39.821   6.862
 4069POPC   C4B54358  10.903  39.742   7.261
 4070POPC   NC354359  35.727  21.373   5.550
 4070POPC   PO454360  35.185  21.197   5.238
 4070POPC   GL154361  35.268  21.144   5.702
 4070POPC   GL254362  35.555  20.941   5.779
 4070POPC   C1A54363  35.247  21.132   6.183
 4070POPC   D2A54364  35.396  21.065   6.628
 4070POPC   C3A54365  35.271  21.242   7.049
 4070POPC   C4A54366  35.405  21.649   7.213
 4070POPC   C1B54367  35.818  20.946   6.137
 4070POPC   C2B54368  35.893  20.947   6.576
 4070POPC   C3B54369  35.780  21.197   6.946
 4070POPC   C4B54370  35.689  21.270   7.396
 4071POPC   NC354371  15.365  21.764   5.206
 4071POPC   PO454372  14.741  22.117   5.329
 4071POPC   GL154373  15.016  21.993   5.721
 4071POPC   GL254374  15.372  21.864   5.738
 4071POPC   C1A54375  15.196  22.124   6.157
 4071POPC   D2A54376  15.312  22.263   6.598
 4071POPC   C3A54377  15.118  22.235   7.010
 4071POPC   C4A54378  15.198  22.647   7.239
 4071POPC   C1B54379  15.530  21.722   6.160
 4071POPC   C2B54380  15.454  21.777   6.616
 4071POPC   C3B54381  15.486  21.861   7.061
 4071POPC   C4B54382  15.457  21.962   7.504
 4072POPC   NC354383  12.885  34.249   5.484
 4072POPC   PO454384  13.129  34.856   5.458
 4072POPC   GL154385  12.870  34.781   5.868
 4072POPC   GL254386  12.739  34.435   5.921
 4072POPC   C1A54387  12.781  34.693   6.343
 4072POPC   D2A54388  12.793  34.928   6.697
 4072POPC   C3A54389  12.940  34.739   7.046
 4072POPC   C4A54390  12.862  34.364   7.176
 4072POPC   C1B54391  12.571  34.225   6.286
 4072POPC   C2B54392  12.471  34.410   6.699
 4072POPC   C3B54393  12.477  34.112   7.014
 4072POPC   C4B54394  12.816  33.852   7.202
 4073POPC   NC354395  41.124  20.926   5.130
 4073POPC   PO454396  40.553  20.694   5.460
 4073POPC   GL154397  40.822  20.604   5.887
 4073POPC   GL254398  40.951  20.247   5.954
 4073POPC   C1A54399  40.920  20.598   6.344
 4073POPC   D2A54400  40.948  20.908   6.665
 4073POPC   C3A54401  40.799  20.770   7.058
 4073POPC   C4A54402  40.956  20.754   7.478
 4073POPC   C1B54403  40.565  20.241   6.254
 4073POPC   C2B54404  40.598  20.393   6.742
 4073POPC   C3B54405  40.788  20.294   7.208
 4073POPC   C4B54406  40.624  20.271   7.646
 4074POPC   NC354407  28.860   8.699   5.523
 4074POPC   PO454408  29.573   8.897   5.437
 4074POPC   GL154409  29.277   8.851   5.788
 4074POPC   GL254410  28.967   9.091   5.842
 4074POPC   C1A54411  29.073   8.694   6.170
 4074POPC   D2A54412  28.906   8.808   6.561
 4074POPC   C3A54413  29.119   8.733   6.952
 4074POPC   C4A54414  29.506   8.786   7.169
 4074POPC   C1B54415  28.694   9.144   6.230
 4074POPC   C2B54416  28.715   9.267   6.696
 4074POPC   C3B54417  28.783   9.202   7.140
 4074POPC   C4B54418  28.927   9.356   7.548
 4075POPC   NC354419  43.183   5.999   5.447
 4075POPC   PO454420  42.669   5.621   5.510
 4075POPC   GL154421  42.928   5.730   5.845
 4075POPC   GL254422  42.942   6.104   5.896
 4075POPC   C1A54423  42.800   5.704   6.273
 4075POPC   D2A54424  43.094   5.620   6.578
 4075POPC   C3A54425  43.005   5.799   6.913
 4075POPC   C4A54426  43.019   5.634   7.299
 4075POPC   C1B54427  43.218   6.037   6.278
 4075POPC   C2B54428  43.457   5.979   6.691
 4075POPC   C3B54429  43.421   5.919   7.164
 4075POPC   C4B54430  43.272   5.936   7.624
 4076POPC   NC354431  13.865  23.661   5.008
 4076POPC   PO454432  14.386  23.637   5.399
 4076POPC   GL154433  14.387  23.772   5.782
 4076POPC   GL254434  14.049  23.737   5.797
 4076POPC   C1A54435  14.566  23.840   6.191
 4076POPC   D2A54436  14.535  23.613   6.538
 4076POPC   C3A54437  14.504  23.869   6.877
 4076POPC   C4A54438  14.615  23.853   7.255
 4076POPC   C1B54439  14.078  23.633   6.255
 4076POPC   C2B54440  14.064  23.665   6.741
 4076POPC   C3B54441  14.128  23.642   7.213
 4076POPC   C4B54442  14.078  23.852   7.642
 4077POPC   NC354443  19.120  22.826   5.023
 4077POPC   PO454444  18.672  22.519   5.513
 4077POPC   GL154445  18.983  22.785   5.784
 4077POPC   GL254446  19.197  23.119   5.743
 4077POPC   C1A54447  19.007  22.718   6.247
 4077POPC   D2A54448  18.923  22.519   6.659
 4077POPC   C3A54449  19.027  22.729   7.065
 4077POPC   C4A54450  19.001  22.756   7.561
 4077POPC   C1B54451  19.181  23.227   6.196
 4077POPC   C2B54452  19.325  23.084   6.612
 4077POPC   C3B54453  19.359  23.160   7.048
 4077POPC   C4B54454  19.019  23.299   7.287
 4078POPC   NC354455   1.830  43.748   5.468
 4078POPC   PO454456   2.378  43.979   5.300
 4078POPC   GL154457   2.202  43.965   5.731
 4078POPC   GL254458   2.261  43.668   5.863
 4078POPC   C1A54459   2.215  44.094   6.185
 4078POPC   D2A54460   2.268  43.840   6.593
 4078POPC   C3A54461   2.229  44.077   6.996
 4078POPC   C4A54462   1.894  44.107   7.298
 4078POPC   C1B54463   1.936  43.627   6.169
 4078POPC   C2B54464   1.881  43.493   6.607
 4078POPC   C3B54465   1.712  43.503   7.033
 4078POPC   C4B54466   1.759  43.633   7.492
 4079POPC   NC354467  19.886   1.548   5.528
 4079POPC   PO454468  20.242   1.061   5.323
 4079POPC   GL154469  19.953   1.105   5.764
 4079POPC   GL254470  19.627   0.929   5.868
 4079POPC   C1A54471  20.081   1.335   6.166
 4079POPC   D2A54472  19.968   1.190   6.577
 4079POPC   C3A54473  20.137   1.343   6.936
 4079POPC   C4A54474  20.194   1.003   7.252
 4079POPC   C1B54475  19.572   1.243   6.191
 4079POPC   C2B54476  19.600   1.531   6.533
 4079POPC   C3B54477  19.603   1.405   6.982
 4079POPC   C4B54478  19.818   1.329   7.332
 4080POPC   NC354479  43.831  35.632   5.263
 4080POPC   PO454480  44.292  36.070   5.351
 4080POPC   GL154481  44.120  35.806   5.692
 4080POPC   GL254482  43.799  35.999   5.782
 4080POPC   C1A54483  44.126  35.914   6.153
 4080POPC   D2A54484  43.849  36.080   6.474
 4080POPC   C3A54485  43.807  35.925   6.888
 4080POPC   C4A54486  43.913  36.096   7.264
 4080POPC   C1B54487  43.736  36.394   6.062
 4080POPC   C2B54488  43.592  36.531   6.489
 4080POPC   C3B54489  43.723  36.467   6.912
 4080POPC   C4B54490  43.546  36.418   7.314
 4081POPC   NC354491   5.751  20.788   5.391
 4081POPC   PO454492   6.318  20.495   5.146
 4081POPC   GL154493   6.228  20.808   5.604
 4081POPC   GL254494   5.924  20.639   5.830
 4081POPC   C1A54495   6.306  20.753   6.137
 4081POPC   D2A54496   6.023  20.642   6.509
 4081POPC   C3A54497   6.126  20.354   6.837
 4081POPC   C4A54498   6.064  20.545   7.220
 4081POPC   C1B54499   5.766  20.356   6.174
 4081POPC   C2B54500   5.633  20.308   6.636
 4081POPC   C3B54501   5.548  20.495   7.047
 4081POPC   C4B54502   5.403  20.451   7.456
 4082POPC   NC354503  38.326  33.064   5.345
 4082POPC   PO454504  38.857  32.883   5.693
 4082POPC   GL154505  38.499  33.090   5.848
 4082POPC   GL254506  38.388  33.448   5.848
 4082POPC   C1A54507  38.456  33.149   6.274
 4082POPC   D2A54508  38.611  33.191   6.676
 4082POPC   C3A54509  38.391  32.867   6.853
 4082POPC   C4A54510  38.131  32.807   7.188
 4082POPC   C1B54511  38.022  33.404   6.139
 4082POPC   C2B54512  38.043  33.250   6.575
 4082POPC   C3B54513  38.128  33.288   7.010
 4082POPC   C4B54514  38.106  33.231   7.485
 4083POPC   NC354515   0.106  37.501   5.369
 4083POPC   PO454516   0.734  37.215   5.438
 4083POPC   GL154517   0.550  37.520   5.757
 4083POPC   GL254518   0.271  37.352   5.897
 4083POPC   C1A54519   0.450  37.704   6.206
 4083POPC   D2A54520   0.412  37.434   6.599
 4083POPC   C3A54521   0.296  37.637   6.977
 4083POPC   C4A54522  44.945  37.772   7.223
 4083POPC   C1B54523   0.671  37.269   6.185
 4083POPC   C2B54524   0.904  37.518   6.488
 4083POPC   C3B54525   0.821  37.483   6.911
 4083POPC   C4B54526   0.791  37.432   7.352
 4084POPC   NC354527  31.815   5.687   5.633
 4084POPC   PO454528  32.505   5.857   5.504
 4084POPC   GL154529  32.290   5.643   5.805
 4084POPC   GL254530  32.148   5.958   5.919
 4084POPC   C1A54531  32.142   5.523   6.223
 4084POPC   D2A54532  32.177   5.767   6.603
 4084POPC   C3A54533  32.212   5.583   7.007
 4084POPC   C4A54534  31.997   5.931   7.235
 4084POPC   C1B54535  32.511   5.886   6.219
 4084POPC   C2B54536  32.626   6.009   6.654
 4084POPC   C3B54537  32.436   6.035   7.032
 4084POPC   C4B54538  32.463   5.962   7.484
 4085POPC   NC354539  32.606   7.001   5.343
 4085POPC   PO454540  33.248   7.218   5.450
 4085POPC   GL154541  32.919   7.367   5.731
 4085POPC   GL254542  32.818   7.058   5.864
 4085POPC   C1A54543  33.035   7.525   6.142
 4085POPC   D2A54544  32.997   7.240   6.507
 4085POPC   C3A54545  32.829   7.516   6.828
 4085POPC   C4A54546  33.010   7.802   7.131
 4085POPC   C1B54547  33.272   7.082   6.069
 4085POPC   C2B54548  33.527   7.117   6.461
 4085POPC   C3B54549  33.371   7.152   6.867
 4085POPC   C4B54550  33.115   7.301   7.194
 4086POPC   NC354551  30.850  34.880   5.534
 4086POPC   PO454552  30.662  35.595   5.394
 4086POPC   GL154553  30.974  35.429   5.698
 4086POPC   GL254554  30.697  35.260   5.884
 4086POPC   C1A54555  31.093  35.395   6.168
 4086POPC   D2A54556  30.763  35.440   6.513
 4086POPC   C3A54557  30.839  35.388   6.942
 4086POPC   C4A54558  31.061  35.680   7.217
 4086POPC   C1B54559  30.769  34.992   6.274
 4086POPC   C2B54560  30.658  34.954   6.739
 4086POPC   C3B54561  30.485  35.045   7.174
 4086POPC   C4B54562  30.534  34.892   7.594
 4087POPC   NC354563   1.252   1.497   5.515
 4087POPC   PO454564   1.347   0.890   5.224
 4087POPC   GL154565   1.382   0.829   5.726
 4087POPC   GL254566   1.107   1.040   5.763
 4087POPC   C1A54567   1.376   0.834   6.220
 4087POPC   D2A54568   1.299   1.104   6.617
 4087POPC   C3A54569   1.298   0.928   7.037
 4087POPC   C4A54570   1.543   0.954   7.417
 4087POPC   C1B54571   1.153   1.278   6.152
 4087POPC   C2B54572   0.878   1.357   6.507
 4087POPC   C3B54573   1.048   1.461   6.945
 4087POPC   C4B54574   1.439   1.502   7.178
 4088POPC   NC354575  19.995  29.550   5.466
 4088POPC   PO454576  19.699  30.158   5.596
 4088POPC   GL154577  19.921  29.892   5.854
 4088POPC   GL254578  19.750  29.561   5.902
 4088POPC   C1A54579  19.775  29.907   6.272
 4088POPC   D2A54580  19.516  30.019   6.615
 4088POPC   C3A54581  19.817  29.924   6.913
 4088POPC   C4A54582  20.026  29.990   7.289
 4088POPC   C1B54583  20.065  29.491   6.192
 4088POPC   C2B54584  20.184  29.665   6.596
 4088POPC   C3B54585  20.121  29.493   6.972
 4088POPC   C4B54586  19.807  29.531   7.231
 4089POPC   NC354587  30.438  15.348   5.648
 4089POPC   PO454588  30.814  14.895   5.585
 4089POPC   GL154589  30.504  14.916   5.902
 4089POPC   GL254590  30.458  14.637   6.014
 4089POPC   C1A54591  30.532  15.061   6.340
 4089POPC   D2A54592  30.434  15.056   6.795
 4089POPC   C3A54593  30.648  15.316   7.140
 4089POPC   C4A54594  30.452  15.528   7.496
 4089POPC   C1B54595  30.832  14.653   6.278
 4089POPC   C2B54596  30.885  14.825   6.700
 4089POPC   C3B54597  30.710  14.803   7.130
 4089POPC   C4B54598  30.956  14.906   7.487
 4090POPC   NC354599  38.283  15.791   5.574
 4090POPC   PO454600  38.754  16.134   5.462
 4090POPC   GL154601  38.731  15.911   5.874
 4090POPC   GL254602  38.425  16.072   5.959
 4090POPC   C1A54603  38.870  15.726   6.316
 4090POPC   D2A54604  38.721  15.634   6.775
 4090POPC   C3A54605  38.752  15.746   7.200
 4090POPC   C4A54606  38.547  16.085   7.432
 4090POPC   C1B54607  38.386  15.753   6.246
 4090POPC   C2B54608  38.482  16.019   6.580
 4090POPC   C3B54609  38.345  15.963   6.983
 4090POPC   C4B54610  38.292  15.533   7.092
 4091POPC   NC354611  37.227  25.858   5.452
 4091POPC   PO454612  36.708  26.163   5.248
 4091POPC   GL154613  36.761  26.245   5.702
 4091POPC   GL254614  36.949  25.971   5.872
 4091POPC   C1A54615  36.667  26.284   6.150
 4091POPC   D2A54616  36.935  26.251   6.507
 4091POPC   C3A54617  36.778  26.118   6.864
 4091POPC   C4A54618  36.894  25.904   7.186
 4091POPC   C1B54619  36.968  25.793   6.291
 4091POPC   C2B54620  37.126  25.754   6.728
 4091POPC   C3B54621  36.983  25.436   7.035
 4091POPC   C4B54622  36.661  25.466   7.350
 4092POPC   NC354623   0.770  27.533   5.370
 4092POPC   PO454624   0.313  28.066   5.346
 4092POPC   GL154625   0.364  27.796   5.756
 4092POPC   GL254626   0.552  27.489   5.826
 4092POPC   C1A54627   0.560  27.851   6.187
 4092POPC   D2A54628   0.815  27.715   6.556
 4092POPC   C3A54629   0.681  27.879   6.983
 4092POPC   C4A54630   0.613  27.691   7.388
 4092POPC   C1B54631   0.289  27.396   6.163
 4092POPC   C2B54632   0.314  27.556   6.554
 4092POPC   C3B54633   0.408  27.469   6.952
 4092POPC   C4B54634   0.142  27.459   7.261
 4093POPC   NC354635   5.842  41.250   5.277
 4093POPC   PO454636   6.195  41.881   5.386
 4093POPC   GL154637   5.818  41.750   5.600
 4093POPC   GL254638   5.645  42.070   5.562
 4093POPC   C1A54639   5.817  41.562   6.016
 4093POPC   D2A54640   5.883  41.364   6.426
 4093POPC   C3A54641   6.029  41.570   6.755
 4093POPC   C4A54642   5.989  41.396   7.147
 4093POPC   C1B54643   5.639  42.040   6.028
 4093POPC   C2B54644   5.621  41.879   6.469
 4093POPC   C3B54645   5.424  42.018   6.874
 4093POPC   C4B54646   5.582  41.872   7.287
 4094POPC   NC354647  22.408  33.908   5.169
 4094POPC   PO454648  21.794  33.768   5.467
 4094POPC   GL154649  22.184  33.647   5.681
 4094POPC   GL254650  22.406  33.932   5.693
 4094POPC   C1A54651  22.219  33.481   6.117
 4094POPC   D2A54652  22.174  33.679   6.511
 4094POPC   C3A54653  22.143  33.539   6.926
 4094POPC   C4A54654  21.990  33.817   7.245
 4094POPC   C1B54655  22.288  34.026   6.130
 4094POPC   C2B54656  22.539  34.031   6.517
 4094POPC   C3B54657  22.367  34.049   6.928
 4094POPC   C4B54658  22.167  34.323   7.211
 4095POPC   NC354659  15.587  19.310   5.474
 4095POPC   PO454660  15.025  18.773   5.486
 4095POPC   GL154661  15.326  18.940   5.764
 4095POPC   GL254662  15.192  19.261   5.832
 4095POPC   C1A54663  15.345  18.902   6.204
 4095POPC   D2A54664  15.238  18.652   6.558
 4095POPC   C3A54665  15.143  18.815   6.967
 4095POPC   C4A54666  15.488  18.916   7.210
 4095POPC   C1B54667  14.998  19.302   6.213
 4095POPC   C2B54668  15.145  19.190   6.593
 4095POPC   C3B54669  15.090  19.352   6.968
 4095POPC   C4B54670  15.302  19.514   7.275
 4096POPC   NC354671  36.296  12.337   5.523
 4096POPC   PO454672  35.723  12.362   5.555
 4096POPC   GL154673  36.009  12.238   5.941
 4096POPC   GL254674  36.334  12.024   5.924
 4096POPC   C1A54675  36.183  12.247   6.373
 4096POPC   D2A54676  36.447  12.213   6.737
 4096POPC   C3A54677  36.176  12.108   7.072
 4096POPC   C4A54678  35.901  11.741   7.198
 4096POPC   C1B54679  36.252  11.753   6.283
 4096POPC   C2B54680  36.148  11.737   6.709
 4096POPC   C3B54681  36.382  11.643   7.058
 4096POPC   C4B54682  36.704  11.931   7.179
 4097POPC   NC354683   9.951  32.953   5.393
 4097POPC   PO454684   9.262  32.845   5.421
 4097POPC   GL154685   9.557  33.094   5.748
 4097POPC   GL254686   9.863  32.923   5.884
 4097POPC   C1A54687   9.638  33.244   6.206
 4097POPC   D2A54688   9.621  32.929   6.558
 4097POPC   C3A54689   9.712  32.998   7.010
 4097POPC   C4A54690   9.655  32.754   7.412
 4097POPC   C1B54691  10.090  32.969   6.267
 4097POPC   C2B54692  10.115  33.109   6.699
 4097POPC   C3B54693  10.193  33.175   7.155
 4097POPC   C4B54694  10.194  33.028   7.603
 4098POPC   NC354695   7.775  40.144   5.420
 4098POPC   PO454696   7.249  39.750   5.178
 4098POPC   GL154697   7.274  39.801   5.629
 4098POPC   GL254698   7.355  40.145   5.725
 4098POPC   C1A54699   7.206  39.795   6.099
 4098POPC   D2A54700   7.331  39.653   6.517
 4098POPC   C3A54701   7.282  39.911   6.859
 4098POPC   C4A54702   7.087  39.908   7.247
 4098POPC   C1B54703   7.679  40.035   6.054
 4098POPC   C2B54704   7.761  39.989   6.487
 4098POPC   C3B54705   7.825  39.989   6.905
 4098POPC   C4B54706   7.575  40.099   7.262
 4099POPC   NC354707  12.942  23.373   5.643
 4099POPC   PO454708  13.199  22.852   5.324
 4099POPC   GL154709  13.010  22.859   5.807
 4099POPC   GL254710  12.808  23.127   6.041
 4099POPC   C1A54711  12.985  22.742   6.296
 4099POPC   D2A54712  12.611  22.915   6.472
 4099POPC   C3A54713  12.465  22.844   6.860
 4099POPC   C4A54714  12.500  22.823   7.271
 4099POPC   C1B54715  13.104  23.300   6.339
 4099POPC   C2B54716  13.256  23.064   6.650
 4099POPC   C3B54717  13.021  22.789   6.857
 4099POPC   C4B54718  12.971  23.000   7.233
 4100POPC   NC354719  37.258   4.980   5.677
 4100POPC   PO454720  36.713   5.177   5.384
 4100POPC   GL154721  36.641   4.843   5.748
 4100POPC   GL254722  36.861   5.031   5.984
 4100POPC   C1A54723  36.641   4.659   6.216
 4100POPC   D2A54724  36.793   4.929   6.557
 4100POPC   C3A54725  36.988   5.097   6.936
 4100POPC   C4A54726  36.814   5.406   7.231
 4100POPC   C1B54727  37.107   5.247   6.284
 4100POPC   C2B54728  37.349   5.400   6.613
 4100POPC   C3B54729  37.263   5.529   7.003
 4100POPC   C4B54730  37.268   5.293   7.400
 4101POPC   NC354731  42.716  30.801   5.381
 4101POPC   PO454732  42.167  30.401   5.381
 4101POPC   GL154733  42.367  30.601   5.731
 4101POPC   GL254734  42.315  30.975   5.743
 4101POPC   C1A54735  42.484  30.399   6.112
 4101POPC   D2A54736  42.346  30.520   6.517
 4101POPC   C3A54737  42.569  30.404   6.884
 4101POPC   C4A54738  42.407  30.331   7.297
 4101POPC   C1B54739  42.134  30.840   6.157
 4101POPC   C2B54740  42.124  30.985   6.566
 4101POPC   C3B54741  42.243  30.782   6.955
 4101POPC   C4B54742  42.142  30.757   7.405
 4102POPC   NC354743  14.692   9.127   5.329
 4102POPC   PO454744  14.043   9.341   5.435
 4102POPC   GL154745  14.314   9.106   5.760
 4102POPC   GL254746  14.199   8.770   5.854
 4102POPC   C1A54747  14.532   8.988   6.176
 4102POPC   D2A54748  14.506   9.155   6.597
 4102POPC   C3A54749  14.485   9.013   6.996
 4102POPC   C4A54750  14.663   9.202   7.324
 4102POPC   C1B54751  14.323   8.516   6.212
 4102POPC   C2B54752  14.457   8.601   6.613
 4102POPC   C3B54753  14.187   8.612   6.950
 4102POPC   C4B54754  14.374   8.626   7.360
 4103POPC   NC354755   2.284   7.863   5.679
 4103POPC   PO454756   2.011   8.386   5.421
 4103POPC   GL154757   2.013   8.367   5.854
 4103POPC   GL254758   1.819   8.071   5.782
 4103POPC   C1A54759   2.192   8.483   6.271
 4103POPC   D2A54760   2.076   8.321   6.712
 4103POPC   C3A54761   2.143   8.371   7.166
 4103POPC   C4A54762   1.907   8.284   7.560
 4103POPC   C1B54763   1.893   8.023   6.240
 4103POPC   C2B54764   1.663   8.021   6.626
 4103POPC   C3B54765   1.743   8.085   7.051
 4103POPC   C4B54766   1.766   7.799   7.448
 4104POPC   NC354767   8.072   4.137   5.275
 4104POPC   PO454768   8.036   4.794   5.503
 4104POPC   GL154769   8.143   4.369   5.741
 4104POPC   GL254770   8.370   4.054   5.713
 4104POPC   C1A54771   8.060   4.153   6.134
 4104POPC   D2A54772   7.943   4.258   6.557
 4104POPC   C3A54773   8.243   4.455   6.850
 4104POPC   C4A54774   8.059   4.447   7.242
 4104POPC   C1B54775   8.570   4.085   6.135
 4104POPC   C2B54776   8.414   3.942   6.532
 4104POPC   C3B54777   8.463   4.019   6.980
 4104POPC   C4B54778   8.335   4.063   7.404
 4105POPC   NC354779  44.642  43.637   5.486
 4105POPC   PO454780  44.801  44.345   5.385
 4105POPC   GL154781  44.651  44.070   5.763
 4105POPC   GL254782  44.300  44.040   5.712
 4105POPC   C1A54783  44.799  43.907   6.221
 4105POPC   D2A54784  44.951  43.989   6.682
 4105POPC   C3A54785  44.831  43.734   7.067
 4105POPC   C4A54786   0.019  43.731   7.497
 4105POPC   C1B54787  44.337  43.729   6.076
 4105POPC   C2B54788  44.431  43.665   6.542
 4105POPC   C3B54789  44.320  43.691   6.993
 4105POPC   C4B54790  44.232  44.068   7.219
 4106POPC   NC354791  28.578  16.228   5.393
 4106POPC   PO454792  27.913  16.236   5.325
 4106POPC   GL154793  28.162  16.023   5.708
 4106POPC   GL254794  28.482  16.031   5.866
 4106POPC   C1A54795  28.103  15.962   6.181
 4106POPC   D2A54796  28.163  16.173   6.530
 4106POPC   C3A54797  28.198  16.037   6.907
 4106POPC   C4A54798  28.060  16.067   7.303
 4106POPC   C1B54799  28.505  15.668   6.163
 4106POPC   C2B54800  28.554  15.812   6.585
 4106POPC   C3B54801  28.630  15.767   7.027
 4106POPC   C4B54802  28.380  15.507   7.287
 4107POPC   NC354803  35.650  39.451   5.063
 4107POPC   PO454804  35.103  39.472   5.489
 4107POPC   GL154805  35.367  39.160   5.672
 4107POPC   GL254806  35.180  38.872   5.801
 4107POPC   C1A54807  35.567  39.087   6.087
 4107POPC   D2A54808  35.497  39.322   6.479
 4107POPC   C3A54809  35.608  39.404   6.920
 4107POPC   C4A54810  35.299  39.579   7.194
 4107POPC   C1B54811  35.103  38.855   6.265
 4107POPC   C2B54812  35.247  38.883   6.697
 4107POPC   C3B54813  35.336  38.991   7.123
 4107POPC   C4B54814  35.140  38.716   7.385
 4108POPC   NC354815  28.190   1.468   5.211
 4108POPC   PO454816  27.496   1.296   5.347
 4108POPC   GL154817  27.288   1.445   5.742
 4108POPC   GL254818  27.637   1.413   5.859
 4108POPC   C1A54819  27.304   1.479   6.225
 4108POPC   D2A54820  27.615   1.398   6.562
 4108POPC   C3A54821  27.578   1.073   6.847
 4108POPC   C4A54822  27.315   1.167   7.178
 4108POPC   C1B54823  27.754   1.089   6.176
 4108POPC   C2B54824  28.019   1.065   6.570
 4108POPC   C3B54825  28.059   0.943   7.015
 4108POPC   C4B54826  27.811   1.183   7.298
 4109POPC   NC354827  43.531   8.424   5.595
 4109POPC   PO454828  44.062   8.027   5.438
 4109POPC   GL154829  43.850   8.072   5.815
 4109POPC   GL254830  43.555   7.902   5.930
 4109POPC   C1A54831  43.931   8.215   6.217
 4109POPC   D2A54832  44.085   7.988   6.581
 4109POPC   C3A54833  44.071   8.274   6.919
 4109POPC   C4A54834  43.742   8.362   7.199
 4109POPC   C1B54835  43.779   7.730   6.247
 4109POPC   C2B54836  43.708   7.580   6.655
 4109POPC   C3B54837  43.743   7.858   6.985
 4109POPC   C4B54838  43.815   7.886   7.391
 4110POPC   NC354839  32.194  31.753   5.534
 4110POPC   PO454840  32.738  31.263   5.602
 4110POPC   GL154841  32.407  31.427   5.886
 4110POPC   GL254842  32.030  31.298   5.915
 4110POPC   C1A54843  32.365  31.716   6.232
 4110POPC   D2A54844  32.243  31.588   6.644
 4110POPC   C3A54845  32.381  31.627   7.071
 4110POPC   C4A54846  32.182  31.455   7.449
 4110POPC   C1B54847  31.849  31.519   6.308
 4110POPC   C2B54848  31.764  31.632   6.776
 4110POPC   C3B54849  31.905  31.845   7.207
 4110POPC   C4B54850  31.813  31.735   7.682
 4111POPC   NC354851  35.435  19.985   5.343
 4111POPC   PO454852  35.535  19.356   5.281
 4111POPC   GL154853  35.636  19.630   5.654
 4111POPC   GL254854  35.274  19.714   5.827
 4111POPC   C1A54855  35.696  19.707   6.106
 4111POPC   D2A54856  35.438  19.764   6.488
 4111POPC   C3A54857  35.476  19.649   6.919
 4111POPC   C4A54858  35.613  19.922   7.238
 4111POPC   C1B54859  35.000  19.757   6.254
 4111POPC   C2B54860  35.002  19.794   6.754
 4111POPC   C3B54861  35.088  19.836   7.232
 4111POPC   C4B54862  35.014  19.879   7.711
 4112POPC   NC354863  17.784  43.022   5.142
 4112POPC   PO454864  18.354  43.305   5.449
 4112POPC   GL154865  18.273  43.001   5.751
 4112POPC   GL254866  17.963  42.860   5.648
 4112POPC   C1A54867  18.404  43.058   6.208
 4112POPC   D2A54868  18.408  43.376   6.551
 4112POPC   C3A54869  18.393  43.208   7.007
 4112POPC   C4A54870  18.551  43.265   7.448
 4112POPC   C1B54871  18.024  42.727   6.098
 4112POPC   C2B54872  17.962  42.814   6.579
 4112POPC   C3B54873  18.102  42.736   7.036
 4112POPC   C4B54874  18.118  43.011   7.455
 4113POPC   NC354875  36.454  43.584   5.336
 4113POPC   PO454876  35.811  43.892   5.443
 4113POPC   GL154877  36.032  43.931   5.833
 4113POPC   GL254878  36.321  43.698   5.834
 4113POPC   C1A54879  36.141  44.123   6.242
 4113POPC   D2A54880  36.391  44.081   6.634
 4113POPC   C3A54881  36.163  44.198   7.000
 4113POPC   C4A54882  36.266  44.160   7.449
 4113POPC   C1B54883  36.174  43.482   6.223
 4113POPC   C2B54884  36.129  43.490   6.667
 4113POPC   C3B54885  36.255  43.695   7.038
 4113POPC   C4B54886  35.973  43.741   7.382
 4114POPC   NC354887   3.393  30.165   5.172
 4114POPC   PO454888   3.253  29.559   5.564
 4114POPC   GL154889   3.411  29.938   5.828
 4114POPC   GL254890   3.786  29.868   5.790
 4114POPC   C1A54891   3.292  30.229   6.228
 4114POPC   D2A54892   3.434  30.206   6.697
 4114POPC   C3A54893   3.233  29.883   7.010
 4114POPC   C4A54894   3.349  29.660   7.415
 4114POPC   C1B54895   3.764  30.037   6.234
 4114POPC   C2B54896   3.748  29.807   6.633
 4114POPC   C3B54897   3.735  29.945   7.048
 4114POPC   C4B54898   3.992  30.112   7.372
 4115POPC   NC354899  26.042  13.576   5.322
 4115POPC   PO454900  26.278  14.126   5.437
 4115POPC   GL154901  25.983  13.853   5.742
 4115POPC   GL254902  25.967  13.488   5.839
 4115POPC   C1A54903  25.881  13.894   6.177
 4115POPC   D2A54904  26.114  14.166   6.480
 4115POPC   C3A54905  25.966  14.078   6.886
 4115POPC   C4A54906  26.051  13.843   7.247
 4115POPC   C1B54907  26.219  13.410   6.188
 4115POPC   C2B54908  26.134  13.590   6.584
 4115POPC   C3B54909  25.995  13.441   6.982
 4115POPC   C4B54910  25.653  13.493   7.275
 4116POPC   NC354911  26.406  25.559   5.548
 4116POPC   PO454912  26.017  25.046   5.391
 4116POPC   GL154913  25.939  25.193   5.804
 4116POPC   GL254914  25.937  25.539   5.796
 4116POPC   C1A54915  26.039  25.257   6.237
 4116POPC   D2A54916  25.848  25.073   6.589
 4116POPC   C3A54917  25.953  25.204   6.980
 4116POPC   C4A54918  25.918  25.042   7.366
 4116POPC   C1B54919  26.232  25.720   6.132
 4116POPC   C2B54920  26.333  25.672   6.545
 4116POPC   C3B54921  26.121  25.682   6.932
 4116POPC   C4B54922  26.211  25.518   7.351
 4117POPC   NC354923  41.567  44.521   5.259
 4117POPC   PO454924  41.492  43.940   5.603
 4117POPC   GL154925  41.530  43.662   5.912
 4117POPC   GL254926  41.182  43.586   5.855
 4117POPC   C1A54927  41.666  43.668   6.331
 4117POPC   D2A54928  41.598  43.697   6.766
 4117POPC   C3A54929  41.776  44.029   7.026
 4117POPC   C4A54930  41.723  44.053   7.476
 4117POPC   C1B54931  41.220  43.909   6.224
 4117POPC   C2B54932  41.195  44.040   6.665
 4117POPC   C3B54933  41.291  43.925   7.118
 4117POPC   C4B54934  41.057  43.932   7.503
 4118POPC   NC354935  34.736  38.284   4.995
 4118POPC   PO454936  34.721  38.637   5.535
 4118POPC   GL154937  34.533  38.465   5.894
 4118POPC   GL254938  34.235  38.246   5.886
 4118POPC   C1A54939  34.587  38.702   6.268
 4118POPC   D2A54940  34.703  38.867   6.652
 4118POPC   C3A54941  34.548  38.588   6.960
 4118POPC   C4A54942  34.683  38.526   7.337
 4118POPC   C1B54943  34.149  38.445   6.242
 4118POPC   C2B54944  34.307  38.333   6.596
 4118POPC   C3B54945  34.188  38.148   6.969
 4118POPC   C4B54946  34.213  38.336   7.355
 4119POPC   NC354947  39.900  13.802   5.427
 4119POPC   PO454948  40.528  13.773   5.441
 4119POPC   GL154949  40.346  13.757   5.847
 4119POPC   GL254950  40.185  13.444   5.886
 4119POPC   C1A54951  40.258  13.698   6.301
 4119POPC   D2A54952  40.025  13.917   6.603
 4119POPC   C3A54953  39.968  13.784   6.968
 4119POPC   C4A54954  40.261  13.554   7.168
 4119POPC   C1B54955  39.971  13.287   6.262
 4119POPC   C2B54956  40.103  13.351   6.711
 4119POPC   C3B54957  40.027  13.101   7.085
 4119POPC   C4B54958  39.891  13.004   7.508
 4120POPC   NC354959  20.146  26.820   5.635
 4120POPC   PO454960  19.587  26.701   5.301
 4120POPC   GL154961  19.650  26.762   5.754
 4120POPC   GL254962  19.800  27.137   5.841
 4120POPC   C1A54963  19.622  26.845   6.200
 4120POPC   D2A54964  19.745  27.056   6.549
 4120POPC   C3A54965  19.816  26.769   6.847
 4120POPC   C4A54966  19.850  26.614   7.275
 4120POPC   C1B54967  20.139  27.087   6.225
 4120POPC   C2B54968  20.244  27.062   6.698
 4120POPC   C3B54969  20.097  27.060   7.140
 4120POPC   C4B54970  20.233  26.881   7.500
 4121POPC   NC354971   6.586  36.431   5.327
 4121POPC   PO454972   6.770  35.851   5.386
 4121POPC   GL154973   6.807  36.150   5.693
 4121POPC   GL254974   6.495  36.118   5.806
 4121POPC   C1A54975   6.843  36.320   6.113
 4121POPC   D2A54976   6.651  36.174   6.483
 4121POPC   C3A54977   6.720  36.390   6.882
 4121POPC   C4A54978   6.627  36.462   7.298
 4121POPC   C1B54979   6.279  35.894   6.199
 4121POPC   C2B54980   6.204  35.989   6.666
 4121POPC   C3B54981   6.276  36.087   7.114
 4121POPC   C4B54982   6.229  35.832   7.511
 4122POPC   NC354983   1.233  17.572   5.150
 4122POPC   PO454984   1.492  17.038   5.440
 4122POPC   GL154985   1.319  17.419   5.709
 4122POPC   GL254986   1.145  17.736   5.782
 4122POPC   C1A54987   1.291  17.440   6.176
 4122POPC   D2A54988   1.252  17.697   6.552
 4122POPC   C3A54989   1.137  17.462   6.918
 4122POPC   C4A54990   1.267  17.081   7.088
 4122POPC   C1B54991   0.907  17.828   6.182
 4122POPC   C2B54992   0.761  17.725   6.627
 4122POPC   C3B54993   0.828  17.830   7.079
 4122POPC   C4B54994   0.859  17.509   7.382
 4123POPC   NC354995  11.168  34.049   5.437
 4123POPC   PO454996  11.049  33.402   5.377
 4123POPC   GL154997  10.986  33.681   5.748
 4123POPC   GL254998  11.330  33.755   5.864
 4123POPC   C1A54999  10.945  33.805   6.202
 4123POPC   D2A55000  11.197  33.790   6.590
 4123POPC   C3A55001  11.160  34.082   6.996
 4123POPC   C4A55002  11.139  33.933   7.473
 4123POPC   C1B55003  11.534  33.943   6.203
 4123POPC   C2B55004  11.556  34.133   6.637
 4123POPC   C3B55005  11.554  33.783   6.973
 4123POPC   C4B55006  11.653  34.063   7.278
 4124POPC   NC355007   2.568  23.660   5.355
 4124POPC   PO455008   2.893  24.201   5.469
 4124POPC   GL155009   2.609  23.892   5.801
 4124POPC   GL255010   2.597  23.473   5.848
 4124POPC   C1A55011   2.452  23.759   6.247
 4124POPC   D2A55012   2.575  23.651   6.692
 4124POPC   C3A55013   2.420  23.878   7.072
 4124POPC   C4A55014   2.454  24.068   7.494
 4124POPC   C1B55015   2.623  23.164   6.259
 4124POPC   C2B55016   2.742  23.162   6.746
 4124POPC   C3B55017   2.860  23.477   7.084
 4124POPC   C4B55018   2.918  23.919   7.206
 4125POPC   NC355019  28.774  21.897   5.458
 4125POPC   PO455020  28.516  22.419   5.544
 4125POPC   GL155021  28.437  22.328   5.937
 4125POPC   GL255022  28.450  21.991   5.855
 4125POPC   C1A55023  28.393  22.241   6.370
 4125POPC   D2A55024  28.627  22.303   6.743
 4125POPC   C3A55025  28.321  22.301   7.115
 4125POPC   C4A55026  28.049  22.427   7.474
 4125POPC   C1B55027  28.768  21.973   6.153
 4125POPC   C2B55028  28.598  21.807   6.545
 4125POPC   C3B55029  28.580  21.854   6.994
 4125POPC   C4B55030  28.673  21.778   7.422
 4126POPC   NC355031  36.707  31.269   5.152
 4126POPC   PO455032  37.286  31.395   5.529
 4126POPC   GL155033  36.875  31.299   5.713
 4126POPC   GL255034  36.576  31.541   5.715
 4126POPC   C1A55035  36.883  31.446   6.130
 4126POPC   D2A55036  37.066  31.515   6.542
 4126POPC   C3A55037  36.942  31.242   6.842
 4126POPC   C4A55038  36.891  31.456   7.198
 4126POPC   C1B55039  36.445  31.769   6.125
 4126POPC   C2B55040  36.450  31.985   6.510
 4126POPC   C3B55041  36.624  31.764   6.841
 4126POPC   C4B55042  36.481  31.710   7.254
 4127POPC   NC355043  29.248  20.017   5.307
 4127POPC   PO455044  28.677  19.800   5.218
 4127POPC   GL155045  28.904  19.868   5.647
 4127POPC   GL255046  28.906  19.613   5.887
 4127POPC   C1A55047  29.301  19.915   5.995
 4127POPC   D2A55048  29.287  19.968   6.479
 4127POPC   C3A55049  29.336  19.761   6.901
 4127POPC   C4A55050  29.105  19.495   7.230
 4127POPC   C1B55051  28.832  20.036   6.142
 4127POPC   C2B55052  28.792  20.122   6.605
 4127POPC   C3B55053  29.000  20.142   7.012
 4127POPC   C4B55054  28.870  20.329   7.406
 4128POPC   NC355055  10.351   4.374   5.396
 4128POPC   PO455056  10.887   4.086   5.543
 4128POPC   GL155057  10.715   4.318   5.904
 4128POPC   GL255058  10.384   4.519   5.863
 4128POPC   C1A55059  10.828   4.264   6.344
 4128POPC   D2A55060  10.952   3.979   6.652
 4128POPC   C3A55061  10.765   4.028   7.060
 4128POPC   C4A55062  10.698   4.392   7.352
 4128POPC   C1B55063  10.302   4.325   6.218
 4128POPC   C2B55064  10.453   4.515   6.573
 4128POPC   C3B55065  10.386   4.375   6.948
 4128POPC   C4B55066  10.246   4.605   7.258
 4129POPC   NC355067   2.731  40.537   5.368
 4129POPC   PO455068   2.772  41.177   5.466
 4129POPC   GL155069   2.885  40.839   5.780
 4129POPC   GL255070   2.602  40.600   5.859
 4129POPC   C1A55071   3.118  40.923   6.165
 4129POPC   D2A55072   2.980  41.067   6.584
 4129POPC   C3A55073   2.957  40.838   6.970
 4129POPC   C4A55074   2.887  41.135   7.262
 4129POPC   C1B55075   2.632  40.831   6.272
 4129POPC   C2B55076   2.525  40.794   6.726
 4129POPC   C3B55077   2.503  40.790   7.226
 4129POPC   C4B55078   2.433  40.589   7.645
 4130POPC   NC355079  24.433   3.740   5.340
 4130POPC   PO455080  24.548   3.104   5.343
 4130POPC   GL155081  24.515   3.363   5.748
 4130POPC   GL255082  24.520   3.721   5.828
 4130POPC   C1A55083  24.589   3.422   6.206
 4130POPC   D2A55084  24.348   3.498   6.554
 4130POPC   C3A55085  24.487   3.623   6.944
 4130POPC   C4A55086  24.271   3.626   7.322
 4130POPC   C1B55087  24.845   3.856   6.172
 4130POPC   C2B55088  24.872   3.673   6.589
 4130POPC   C3B55089  24.924   3.850   6.999
 4130POPC   C4B55090  24.777   3.702   7.366
 4131POPC   NC355091   2.499  31.517   5.689
 4131POPC   PO455092   2.910  31.839   5.201
 4131POPC   GL155093   2.980  31.712   5.706
 4131POPC   GL255094   2.973  31.349   5.893
 4131POPC   C1A55095   2.806  31.752   6.179
 4131POPC   D2A55096   2.763  31.480   6.548
 4131POPC   C3A55097   2.670  31.697   6.915
 4131POPC   C4A55098   3.002  31.885   7.153
 4131POPC   C1B55099   2.773  31.062   6.234
 4131POPC   C2B55100   2.692  30.975   6.690
 4131POPC   C3B55101   2.871  31.242   7.027
 4131POPC   C4B55102   2.638  31.375   7.390
 4132POPC   NC355103  21.242  41.072   5.479
 4132POPC   PO455104  21.759  40.702   5.464
 4132POPC   GL155105  21.382  40.685   5.753
 4132POPC   GL255106  21.534  40.946   5.950
 4132POPC   C1A55107  21.259  40.564   6.174
 4132POPC   D2A55108  21.451  40.802   6.515
 4132POPC   C3A55109  21.386  40.676   6.934
 4132POPC   C4A55110  21.478  40.853   7.297
 4132POPC   C1B55111  21.199  41.148   6.182
 4132POPC   C2B55112  21.033  41.114   6.596
 4132POPC   C3B55113  21.225  41.178   6.959
 4132POPC   C4B55114  21.107  41.225   7.330
 4133POPC   NC355115   3.935  16.538   5.664
 4133POPC   PO455116   3.316  16.342   5.435
 4133POPC   GL155117   3.370  16.439   5.890
 4133POPC   GL255118   3.505  16.720   5.941
 4133POPC   C1A55119   3.422  16.503   6.387
 4133POPC   D2A55120   3.779  16.517   6.695
 4133POPC   C3A55121   3.654  16.695   7.066
 4133POPC   C4A55122   3.218  16.676   7.189
 4133POPC   C1B55123   3.252  16.961   6.238
 4133POPC   C2B55124   3.351  16.987   6.681
 4133POPC   C3B55125   3.420  17.155   7.086
 4133POPC   C4B55126   3.676  17.037   7.454
 4134POPC   NC355127   4.542   1.368   5.466
 4134POPC   PO455128   3.999   0.965   5.548
 4134POPC   GL155129   4.243   1.240   5.856
 4134POPC   GL255130   4.614   1.157   5.923
 4134POPC   C1A55131   4.251   1.348   6.281
 4134POPC   D2A55132   4.069   1.018   6.530
 4134POPC   C3A55133   4.077   1.169   6.914
 4134POPC   C4A55134   4.098   1.281   7.325
 4134POPC   C1B55135   4.536   0.931   6.294
 4134POPC   C2B55136   4.583   0.993   6.716
 4134POPC   C3B55137   4.471   0.925   7.120
 4134POPC   C4B55138   4.541   1.012   7.557
 4135POPC   NC355139  12.426   7.175   5.295
 4135POPC   PO455140  11.891   7.592   5.370
 4135POPC   GL155141  12.027   7.364   5.737
 4135POPC   GL255142  12.388   7.242   5.796
 4135POPC   C1A55143  12.106   7.476   6.180
 4135POPC   D2A55144  12.112   7.210   6.561
 4135POPC   C3A55145  12.119   7.450   6.964
 4135POPC   C4A55146  12.138   7.089   7.275
 4135POPC   C1B55147  12.534   7.230   6.231
 4135POPC   C2B55148  12.497   7.522   6.584
 4135POPC   C3B55149  12.565   7.251   6.935
 4135POPC   C4B55150  12.525   7.447   7.342
 4136POPC   NC355151  13.249  19.056   5.553
 4136POPC   PO455152  12.796  19.422   5.145
 4136POPC   GL155153  12.886  19.398   5.649
 4136POPC   GL255154  12.793  19.044   5.787
 4136POPC   C1A55155  12.998  19.386   6.152
 4136POPC   D2A55156  13.048  19.155   6.596
 4136POPC   C3A55157  12.890  19.343   7.009
 4136POPC   C4A55158  12.601  19.295   7.396
 4136POPC   C1B55159  12.795  18.883   6.219
 4136POPC   C2B55160  12.850  18.665   6.607
 4136POPC   C3B55161  12.993  18.805   7.018
 4136POPC   C4B55162  13.373  18.726   7.297
 4137POPC   NC355163  41.235  41.983   5.495
 4137POPC   PO455164  40.648  41.631   5.420
 4137POPC   GL155165  40.850  41.726   5.816
 4137POPC   GL255166  40.841  41.365   5.917
 4137POPC   C1A55167  40.870  41.713   6.283
 4137POPC   D2A55168  40.941  41.536   6.686
 4137POPC   C3A55169  40.887  41.788   7.031
 4137POPC   C4A55170  41.041  41.489   7.328
 4137POPC   C1B55171  40.474  41.352   6.219
 4137POPC   C2B55172  40.452  41.276   6.665
 4137POPC   C3B55173  40.549  41.405   7.101
 4137POPC   C4B55174  40.588  41.721   7.465
 4138POPC   NC355175  37.700   3.602   5.301
 4138POPC   PO455176  37.998   3.878   5.774
 4138POPC   GL155177  37.666   3.603   5.837
 4138POPC   GL255178  37.767   3.262   5.793
 4138POPC   C1A55179  37.612   3.443   6.240
 4138POPC   D2A55180  37.860   3.553   6.580
 4138POPC   C3A55181  37.670   3.630   6.977
 4138POPC   C4A55182  37.409   3.413   7.258
 4138POPC   C1B55183  38.117   3.353   6.112
 4138POPC   C2B55184  38.322   3.303   6.526
 4138POPC   C3B55185  38.191   3.490   6.962
 4138POPC   C4B55186  37.987   3.274   7.319
 4139POPC   NC355187   3.968  31.045   5.129
 4139POPC   PO455188   3.822  31.726   5.209
 4139POPC   GL155189   3.689  31.501   5.595
 4139POPC   GL255190   3.900  31.225   5.663
 4139POPC   C1A55191   3.531  31.492   6.028
 4139POPC   D2A55192   3.242  31.562   6.351
 4139POPC   C3A55193   3.223  31.534   6.793
 4139POPC   C4A55194   3.347  31.468   7.178
 4139POPC   C1B55195   3.814  31.088   6.100
 4139POPC   C2B55196   3.663  31.250   6.508
 4139POPC   C3B55197   3.789  31.314   6.946
 4139POPC   C4B55198   3.724  31.087   7.338
 4140POPC   NC355199  30.186  44.193   5.309
 4140POPC   PO455200  29.804  43.631   5.365
 4140POPC   GL155201  29.743  43.780   5.794
 4140POPC   GL255202  29.932  44.061   5.769
 4140POPC   C1A55203  29.896  43.678   6.222
 4140POPC   D2A55204  30.115  43.574   6.621
 4140POPC   C3A55205  29.855  43.569   7.017
 4140POPC   C4A55206  29.599  43.585   7.430
 4140POPC   C1B55207  30.071  44.177   6.166
 4140POPC   C2B55208  30.100  44.099   6.592
 4140POPC   C3B55209  29.946  44.158   6.994
 4140POPC   C4B55210  29.599  44.243   7.248
 4141POPC   NC355211   5.323  11.923   5.616
 4141POPC   PO455212   4.925  12.440   5.426
 4141POPC   GL155213   5.013  12.274   5.827
 4141POPC   GL255214   5.333  12.424   5.771
 4141POPC   C1A55215   5.063  12.040   6.252
 4141POPC   D2A55216   4.858  11.755   6.575
 4141POPC   C3A55217   4.855  11.900   7.005
 4141POPC   C4A55218   4.809  11.831   7.462
 4141POPC   C1B55219   5.312  12.518   6.230
 4141POPC   C2B55220   5.243  12.544   6.689
 4141POPC   C3B55221   5.399  12.274   7.024
 4141POPC   C4B55222   5.349  11.839   7.124
 4142POPC   NC355223  13.095  11.108   5.321
 4142POPC   PO455224  12.641  11.551   5.505
 4142POPC   GL155225  12.840  11.202   5.767
 4142POPC   GL255226  13.163  11.349   5.774
 4142POPC   C1A55227  12.651  11.057   6.178
 4142POPC   D2A55228  12.597  11.348   6.539
 4142POPC   C3A55229  12.740  11.185   6.909
 4142POPC   C4A55230  12.768  10.868   7.236
 4142POPC   C1B55231  13.009  11.412   6.200
 4142POPC   C2B55232  13.200  11.401   6.600
 4142POPC   C3B55233  13.172  11.590   7.006
 4142POPC   C4B55234  12.953  11.427   7.338
 4143POPC   NC355235  15.604   9.214   5.520
 4143POPC   PO455236  15.079   8.921   5.165
 4143POPC   GL155237  15.115   9.004   5.644
 4143POPC   GL255238  15.165   8.716   5.885
 4143POPC   C1A55239  15.015   9.181   6.080
 4143POPC   D2A55240  15.108   9.280   6.537
 4143POPC   C3A55241  14.969   8.968   6.820
 4143POPC   C4A55242  14.855   8.726   7.192
 4143POPC   C1B55243  15.282   8.777   6.303
 4143POPC   C2B55244  15.455   8.763   6.692
 4143POPC   C3B55245  15.530   9.087   6.953
 4143POPC   C4B55246  15.234   9.050   7.251
 4144POPC   NC355247  37.764   5.990   5.426
 4144POPC   PO455248  37.510   5.338   5.507
 4144POPC   GL155249  37.696   5.469   5.899
 4144POPC   GL255250  37.672   5.817   5.899
 4144POPC   C1A55251  37.781   5.533   6.355
 4144POPC   D2A55252  37.834   5.468   6.808
 4144POPC   C3A55253  37.686   5.778   7.109
 4144POPC   C4A55254  37.898   5.865   7.500
 4144POPC   C1B55255  37.773   6.037   6.280
 4144POPC   C2B55256  37.951   5.967   6.703
 4144POPC   C3B55257  37.907   6.225   7.088
 4144POPC   C4B55258  37.878   6.411   7.501
 4145POPC   NC355259   5.394   6.167   5.545
 4145POPC   PO455260   5.980   5.940   5.390
 4145POPC   GL155261   6.065   5.923   5.824
 4145POPC   GL255262   5.706   5.886   5.881
 4145POPC   C1A55263   6.046   5.781   6.268
 4145POPC   D2A55264   5.941   5.942   6.684
 4145POPC   C3A55265   5.762   5.716   7.031
 4145POPC   C4A55266   6.055   5.623   7.368
 4145POPC   C1B55267   5.768   6.196   6.244
 4145POPC   C2B55268   5.666   6.375   6.663
 4145POPC   C3B55269   5.750   6.250   7.102
 4145POPC   C4B55270   5.631   6.292   7.530
 4146POPC   NC355271  14.237  35.305   5.286
 4146POPC   PO455272  14.724  35.005   5.499
 4146POPC   GL155273  14.303  35.024   5.729
 4146POPC   GL255274  14.348  34.754   5.967
 4146POPC   C1A55275  14.088  35.161   6.137
 4146POPC   D2A55276  14.160  34.985   6.581
 4146POPC   C3A55277  14.194  35.255   6.971
 4146POPC   C4A55278  14.378  35.653   7.174
 4146POPC   C1B55279  14.567  35.041   6.263
 4146POPC   C2B55280  14.648  35.054   6.738
 4146POPC   C3B55281  14.667  35.226   7.177
 4146POPC   C4B55282  14.798  35.425   7.565
 4147POPC   NC355283  35.476  39.760   5.573
 4147POPC   PO455284  35.016  40.272   5.445
 4147POPC   GL155285  35.237  40.154   5.790
 4147POPC   GL255286  35.550  40.278   5.814
 4147POPC   C1A55287  35.112  39.884   6.127
 4147POPC   D2A55288  34.991  39.999   6.515
 4147POPC   C3A55289  35.156  40.012   6.939
 4147POPC   C4A55290  35.088  40.008   7.391
 4147POPC   C1B55291  35.583  40.061   6.185
 4147POPC   C2B55292  35.508  39.863   6.591
 4147POPC   C3B55293  35.668  40.046   6.995
 4147POPC   C4B55294  35.511  40.262   7.387
 4148POPC   NC355295   4.688   0.123   5.543
 4148POPC   PO455296   5.160  44.568   5.444
 4148POPC   GL155297   5.208  44.706   5.865
 4148POPC   GL255298   5.299   0.061   5.818
 4148POPC   C1A55299   5.106  44.562   6.304
 4148POPC   D2A55300   4.780  44.646   6.628
 4148POPC   C3A55301   4.963  44.663   7.029
 4148POPC   C4A55302   5.314  44.408   6.962
 4148POPC   C1B55303   5.456  44.958   6.251
 4148POPC   C2B55304   5.346  44.844   6.685
 4148POPC   C3B55305   5.471  44.876   7.111
 4148POPC   C4B55306   5.232  44.819   7.456
 4149POPC   NC355307  41.662  18.490   5.464
 4149POPC   PO455308  41.133  18.089   5.463
 4149POPC   GL155309  41.413  18.235   5.824
 4149POPC   GL255310  41.816  18.268   5.888
 4149POPC   C1A55311  41.422  18.489   6.195
 4149POPC   D2A55312  41.277  18.685   6.580
 4149POPC   C3A55313  41.427  18.450   6.920
 4149POPC   C4A55314  41.318  18.077   7.181
 4149POPC   C1B55315  41.813  18.138   6.292
 4149POPC   C2B55316  41.546  18.052   6.644
 4149POPC   C3B55317  41.784  17.990   7.041
 4149POPC   C4B55318  41.736  18.158   7.481
 4150POPC   NC355319   4.705  42.505   5.402
 4150POPC   PO455320   4.166  42.123   5.339
 4150POPC   GL155321   4.257  42.397   5.739
 4150POPC   GL255322   4.563  42.602   5.892
 4150POPC   C1A55323   4.161  42.294   6.186
 4150POPC   D2A55324   4.213  42.473   6.593
 4150POPC   C3A55325   4.254  42.261   6.975
 4150POPC   C4A55326   4.178  42.432   7.400
 4150POPC   C1B55327   4.674  42.225   6.139
 4150POPC   C2B55328   4.560  42.017   6.555
 4150POPC   C3B55329   4.692  41.922   7.005
 4150POPC   C4B55330   4.647  42.267   7.333
 4151POPC   NC355331  16.333   4.715   5.566
 4151POPC   PO455332  15.868   4.232   5.617
 4151POPC   GL155333  15.761   4.380   5.963
 4151POPC   GL255334  16.041   4.567   5.971
 4151POPC   C1A55335  15.750   4.345   6.386
 4151POPC   D2A55336  15.730   4.028   6.707
 4151POPC   C3A55337  15.676   4.272   7.060
 4151POPC   C4A55338  15.935   4.357   7.424
 4151POPC   C1B55339  16.287   4.428   6.265
 4151POPC   C2B55340  16.179   4.291   6.642
 4151POPC   C3B55341  16.217   4.420   6.985
 4151POPC   C4B55342  16.428   4.276   7.305
 4152POPC   NC355343  38.235   2.026   5.448
 4152POPC   PO455344  38.691   1.515   5.399
 4152POPC   GL155345  38.581   1.836   5.790
 4152POPC   GL255346  38.379   2.173   5.890
 4152POPC   C1A55347  38.537   1.897   6.261
 4152POPC   D2A55348  38.307   1.705   6.567
 4152POPC   C3A55349  38.472   1.764   6.970
 4152POPC   C4A55350  38.302   1.706   7.366
 4152POPC   C1B55351  38.563   2.445   6.164
 4152POPC   C2B55352  38.697   2.434   6.548
 4152POPC   C3B55353  38.484   2.444   6.944
 4152POPC   C4B55354  38.353   2.203   7.265
 4153POPC   NC355355  25.011  15.681   5.394
 4153POPC   PO455356  25.500  16.060   5.478
 4153POPC   GL155357  25.234  15.926   5.871
 4153POPC   GL255358  24.843  15.828   5.846
 4153POPC   C1A55359  25.388  15.929   6.324
 4153POPC   D2A55360  25.551  15.820   6.725
 4153POPC   C3A55361  25.451  15.965   7.126
 4153POPC   C4A55362  25.751  16.104   7.470
 4153POPC   C1B55363  24.895  15.795   6.289
 4153POPC   C2B55364  25.030  15.844   6.730
 4153POPC   C3B55365  24.910  16.074   7.121
 4153POPC   C4B55366  24.846  15.991   7.576
 4154POPC   NC355367   0.985  30.307   5.451
 4154POPC   PO455368   1.306  29.696   5.382
 4154POPC   GL155369   1.271  29.901   5.804
 4154POPC   GL255370   0.960  29.799   5.868
 4154POPC   C1A55371   1.182  29.865   6.307
 4154POPC   D2A55372   1.407  29.644   6.652
 4154POPC   C3A55373   1.220  29.690   7.082
 4154POPC   C4A55374   1.242  30.095   7.345
 4154POPC   C1B55375   0.987  30.264   6.075
 4154POPC   C2B55376   1.015  30.381   6.507
 4154POPC   C3B55377   0.986  30.107   6.868
 4154POPC   C4B55378   0.678  29.790   7.007
 4155POPC   NC355379  29.426  32.378   5.536
 4155POPC   PO455380  30.074  32.102   5.374
 4155POPC   GL155381  30.132  32.061   5.774
 4155POPC   GL255382  29.814  32.187   5.818
 4155POPC   C1A55383  30.256  32.131   6.200
 4155POPC   D2A55384  30.332  31.893   6.599
 4155POPC   C3A55385  30.124  32.084   6.971
 4155POPC   C4A55386  29.770  31.950   7.237
 4155POPC   C1B55387  29.680  32.118   6.204
 4155POPC   C2B55388  29.881  32.181   6.550
 4155POPC   C3B55389  29.627  32.218   6.847
 4155POPC   C4B55390  29.491  32.517   7.123
 4156POPC   NC355391  42.520   9.197   5.493
 4156POPC   PO455392  41.890   9.313   5.582
 4156POPC   GL155393  42.159   8.941   5.738
 4156POPC   GL255394  42.248   9.203   5.938
 4156POPC   C1A55395  42.569   8.850   6.037
 4156POPC   D2A55396  42.713   9.109   6.399
 4156POPC   C3A55397  42.637   8.983   6.838
 4156POPC   C4A55398  42.359   8.861   7.171
 4156POPC   C1B55399  42.103   8.946   6.288
 4156POPC   C2B55400  42.063   9.009   6.747
 4156POPC   C3B55401  42.130   9.292   7.108
 4156POPC   C4B55402  42.568   9.353   7.221
 4157POPC   NC355403  16.960  29.992   5.430
 4157POPC   PO455404  16.418  30.219   5.377
 4157POPC   GL155405  16.590  30.019   5.803
 4157POPC   GL255406  16.888  29.794   5.907
 4157POPC   C1A55407  16.609  30.027   6.284
 4157POPC   D2A55408  16.752  29.922   6.722
 4157POPC   C3A55409  16.603  30.140   7.099
 4157POPC   C4A55410  16.868  30.460   7.296
 4157POPC   C1B55411  16.855  29.567   6.313
 4157POPC   C2B55412  16.827  29.428   6.771
 4157POPC   C3B55413  16.825  29.615   7.205
 4157POPC   C4B55414  16.745  29.559   7.710
 4158POPC   NC355415  40.316  17.756   5.323
 4158POPC   PO455416  40.886  17.373   5.308
 4158POPC   GL155417  40.884  17.608   5.717
 4158POPC   GL255418  40.534  17.668   5.778
 4158POPC   C1A55419  40.971  17.428   6.149
 4158POPC   D2A55420  41.071  17.135   6.509
 4158POPC   C3A55421  40.941  17.274   6.918
 4158POPC   C4A55422  41.050  17.483   7.330
 4158POPC   C1B55423  40.625  17.819   6.184
 4158POPC   C2B55424  40.890  17.804   6.534
 4158POPC   C3B55425  40.763  17.744   6.958
 4158POPC   C4B55426  40.552  17.665   7.351
 4159POPC   NC355427  26.360   0.788   5.402
 4159POPC   PO455428  26.620   0.152   5.472
 4159POPC   GL155429  26.282   0.344   5.757
 4159POPC   GL255430  25.894   0.334   5.765
 4159POPC   C1A55431  26.298   0.720   6.026
 4159POPC   D2A55432  26.302   0.772   6.460
 4159POPC   C3A55433  26.377   0.551   6.847
 4159POPC   C4A55434  26.108   0.613   7.216
 4159POPC   C1B55435  25.894   0.494   6.214
 4159POPC   C2B55436  25.869   0.599   6.670
 4159POPC   C3B55437  25.600   0.507   6.981
 4159POPC   C4B55438  25.669   0.348   7.383
 4160POPC   NC355439   6.891   2.770   5.223
 4160POPC   PO455440   6.174   2.740   5.306
 4160POPC   GL155441   6.542   2.883   5.575
 4160POPC   GL255442   6.465   3.148   5.731
 4160POPC   C1A55443   6.776   2.847   6.009
 4160POPC   D2A55444   6.797   2.509   6.336
 4160POPC   C3A55445   6.739   2.537   6.755
 4160POPC   C4A55446   6.682   2.570   7.188
 4160POPC   C1B55447   6.336   3.127   6.152
 4160POPC   C2B55448   6.553   2.944   6.496
 4160POPC   C3B55449   6.656   3.013   6.918
 4160POPC   C4B55450   6.496   3.055   7.327
 4161POPC   NC355451   7.801  28.971   5.480
 4161POPC   PO455452   7.283  29.345   5.358
 4161POPC   GL155453   7.488  29.240   5.799
 4161POPC   GL255454   7.616  28.902   5.940
 4161POPC   C1A55455   7.481  29.302   6.263
 4161POPC   D2A55456   7.684  29.235   6.674
 4161POPC   C3A55457   7.486  29.161   7.055
 4161POPC   C4A55458   7.668  29.154   7.465
 4161POPC   C1B55459   7.650  28.814   6.393
 4161POPC   C2B55460   7.643  28.723   6.854
 4161POPC   C3B55461   7.426  28.713   7.284
 4161POPC   C4B55462   7.542  28.746   7.738
 4162POPC   NC355463  35.159   4.660   5.538
 4162POPC   PO455464  35.438   4.033   5.538
 4162POPC   GL155465  35.487   4.221   5.899
 4162POPC   GL255466  35.177   4.115   5.997
 4162POPC   C1A55467  35.614   4.471   6.238
 4162POPC   D2A55468  35.593   4.418   6.670
 4162POPC   C3A55469  35.283   4.365   6.979
 4162POPC   C4A55470  35.495   4.338   7.360
 4162POPC   C1B55471  35.103   4.536   6.182
 4162POPC   C2B55472  35.257   4.772   6.524
 4162POPC   C3B55473  35.378   4.849   6.936
 4162POPC   C4B55474  35.180   4.775   7.358
 4163POPC   NC355475  31.852  37.433   5.710
 4163POPC   PO455476  31.196  37.497   5.414
 4163POPC   GL155477  31.270  37.739   5.808
 4163POPC   GL255478  31.012  37.968   5.799
 4163POPC   C1A55479  31.470  37.725   6.263
 4163POPC   D2A55480  31.660  37.394   6.569
 4163POPC   C3A55481  31.798  37.559   6.955
 4163POPC   C4A55482  31.686  37.940   7.187
 4163POPC   C1B55483  31.065  38.054   6.191
 4163POPC   C2B55484  31.120  38.109   6.606
 4163POPC   C3B55485  31.202  37.958   6.997
 4163POPC   C4B55486  31.177  38.122   7.395
 4164POPC   NC355487  26.152  11.304   5.502
 4164POPC   PO455488  26.068  11.950   5.594
 4164POPC   GL155489  26.142  11.632   5.890
 4164POPC   GL255490  26.475  11.552   5.902
 4164POPC   C1A55491  26.078  11.346   6.251
 4164POPC   D2A55492  25.877  11.498   6.626
 4164POPC   C3A55493  25.869  11.294   7.041
 4164POPC   C4A55494  26.189  10.999   7.174
 4164POPC   C1B55495  26.443  11.741   6.291
 4164POPC   C2B55496  26.508  11.790   6.736
 4164POPC   C3B55497  26.156  11.722   6.996
 4164POPC   C4B55498  26.140  11.635   7.429
 4165POPC   NC355499  20.407   1.901   5.162
 4165POPC   PO455500  19.767   1.940   5.270
 4165POPC   GL155501  19.863   2.068   5.691
 4165POPC   GL255502  19.673   2.362   5.707
 4165POPC   C1A55503  19.903   2.011   6.151
 4165POPC   D2A55504  20.092   1.773   6.494
 4165POPC   C3A55505  19.890   1.828   6.887
 4165POPC   C4A55506  20.045   1.819   7.293
 4165POPC   C1B55507  19.538   2.369   6.134
 4165POPC   C2B55508  19.370   2.159   6.494
 4165POPC   C3B55509  19.478   2.306   6.931
 4165POPC   C4B55510  19.709   2.189   7.298
 4166POPC   NC355511  15.762   7.950   5.530
 4166POPC   PO455512  15.639   8.701   5.645
 4166POPC   GL155513  15.874   8.307   5.878
 4166POPC   GL255514  15.667   8.019   6.023
 4166POPC   C1A55515  16.034   8.067   6.319
 4166POPC   D2A55516  16.140   7.994   6.751
 4166POPC   C3A55517  15.944   8.169   7.102
 4166POPC   C4A55518  16.083   8.223   7.519
 4166POPC   C1B55519  15.732   8.485   6.306
 4166POPC   C2B55520  15.895   8.520   6.727
 4166POPC   C3B55521  15.738   8.653   7.136
 4166POPC   C4B55522  15.646   8.458   7.517
 4167POPC   NC355523  12.613  13.586   5.482
 4167POPC   PO455524  12.102  13.836   5.455
 4167POPC   GL155525  12.091  13.601   5.877
 4167POPC   GL255526  11.799  13.378   5.878
 4167POPC   C1A55527  12.106  13.408   6.334
 4167POPC   D2A55528  12.133  13.290   6.805
 4167POPC   C3A55529  12.155  13.639   7.117
 4167POPC   C4A55530  12.257  13.772   7.556
 4167POPC   C1B55531  11.648  13.624   6.246
 4167POPC   C2B55532  11.803  13.684   6.687
 4167POPC   C3B55533  11.688  13.435   7.062
 4167POPC   C4B55534  11.703  13.296   7.518
 4168POPC   NC355535   9.032  42.524   5.526
 4168POPC   PO455536   8.954  41.906   5.559
 4168POPC   GL155537   8.869  42.164   5.881
 4168POPC   GL255538   9.228  42.230   5.927
 4168POPC   C1A55539   8.821  42.481   6.201
 4168POPC   D2A55540   8.715  42.286   6.596
 4168POPC   C3A55541   8.963  42.359   6.932
 4168POPC   C4A55542   8.733  42.470   7.266
 4168POPC   C1B55543   9.159  42.137   6.359
 4168POPC   C2B55544   9.327  41.946   6.695
 4168POPC   C3B55545   9.217  41.885   7.086
 4168POPC   C4B55546   9.176  42.100   7.434
 4169POPC   NC355547   7.846  12.357   5.273
 4169POPC   PO455548   8.430  12.044   5.397
 4169POPC   GL155549   8.274  12.030   5.801
 4169POPC   GL255550   7.966  12.191   5.742
 4169POPC   C1A55551   8.082  11.947   6.201
 4169POPC   D2A55552   7.768  11.991   6.540
 4169POPC   C3A55553   7.964  11.939   6.954
 4169POPC   C4A55554   8.200  11.816   7.314
 4169POPC   C1B55555   7.873  12.400   6.131
 4169POPC   C2B55556   8.068  12.413   6.512
 4169POPC   C3B55557   7.992  12.494   6.924
 4169POPC   C4B55558   8.110  12.318   7.282
 4170POPC   NC355559  18.867  27.196   5.598
 4170POPC   PO455560  19.112  27.799   5.429
 4170POPC   GL155561  18.928  27.845   5.859
 4170POPC   GL255562  18.942  27.498   6.011
 4170POPC   C1A55563  18.906  27.926   6.324
 4170POPC   D2A55564  18.928  27.573   6.629
 4170POPC   C3A55565  19.006  27.589   7.087
 4170POPC   C4A55566  18.830  27.350   7.470
 4170POPC   C1B55567  19.227  27.266   6.293
 4170POPC   C2B55568  19.433  27.428   6.652
 4170POPC   C3B55569  19.508  27.210   7.037
 4170POPC   C4B55570  19.350  27.389   7.413
 4171POPC   NC355571  41.887  15.578   5.553
 4171POPC   PO455572  41.559  16.179   5.369
 4171POPC   GL155573  41.487  15.979   5.766
 4171POPC   GL255574  41.272  15.674   5.763
 4171POPC   C1A55575  41.586  16.059   6.190
 4171POPC   D2A55576  41.398  15.951   6.574
 4171POPC   C3A55577  41.441  16.234   6.886
 4171POPC   C4A55578  41.546  16.137   7.302
 4171POPC   C1B55579  41.535  15.547   6.146
 4171POPC   C2B55580  41.803  15.677   6.519
 4171POPC   C3B55581  41.676  15.747   6.966
 4171POPC   C4B55582  41.714  15.594   7.403
 4172POPC   NC355583   1.651  31.712   5.361
 4172POPC   PO455584   1.056  31.382   5.208
 4172POPC   GL155585   1.238  31.359   5.602
 4172POPC   GL255586   1.222  31.701   5.706
 4172POPC   C1A55587   1.078  31.266   6.040
 4172POPC   D2A55588   1.047  31.441   6.486
 4172POPC   C3A55589   1.127  31.254   6.883
 4172POPC   C4A55590   1.060  31.513   7.245
 4172POPC   C1B55591   1.344  31.698   6.161
 4172POPC   C2B55592   1.526  31.724   6.572
 4172POPC   C3B55593   1.510  31.576   6.972
 4172POPC   C4B55594   1.560  31.737   7.374
 4173POPC   NC355595   0.915  20.758   5.590
 4173POPC   PO455596   0.381  20.345   5.621
 4173POPC   GL155597   0.621  20.531   5.957
 4173POPC   GL255598   0.367  20.782   5.964
 4173POPC   C1A55599   0.815  20.904   6.193
 4173POPC   D2A55600   0.740  21.093   6.593
 4173POPC   C3A55601   0.628  20.781   6.904
 4173POPC   C4A55602   0.638  20.777   7.331
 4173POPC   C1B55603   0.369  20.774   6.416
 4173POPC   C2B55604   0.224  21.053   6.716
 4173POPC   C3B55605   0.148  20.951   7.132
 4173POPC   C4B55606   0.187  20.518   7.259
 4174POPC   NC355607  37.445  43.555   5.469
 4174POPC   PO455608  36.801  43.903   5.305
 4174POPC   GL155609  37.127  43.977   5.623
 4174POPC   GL255610  36.865  43.804   5.812
 4174POPC   C1A55611  37.175  44.102   6.088
 4174POPC   D2A55612  37.062  44.247   6.533
 4174POPC   C3A55613  37.102  44.012   6.962
 4174POPC   C4A55614  36.731  43.807   7.227
 4174POPC   C1B55615  37.175  43.595   6.077
 4174POPC   C2B55616  37.154  43.745   6.485
 4174POPC   C3B55617  36.791  43.657   6.732
 4174POPC   C4B55618  36.948  43.401   7.038
 4175POPC   NC355619  14.430  32.929   5.504
 4175POPC   PO455620  15.025  33.110   5.650
 4175POPC   GL155621  14.695  33.263   5.947
 4175POPC   GL255622  14.321  33.201   5.926
 4175POPC   C1A55623  14.472  33.409   6.349
 4175POPC   D2A55624  14.299  33.525   6.752
 4175POPC   C3A55625  14.485  33.250   7.059
 4175POPC   C4A55626  14.784  32.932   7.190
 4175POPC   C1B55627  14.447  32.892   6.255
 4175POPC   C2B55628  14.462  32.842   6.726
 4175POPC   C3B55629  14.281  32.756   7.154
 4175POPC   C4B55630  14.053  32.746   7.572
 4176POPC   NC355631   4.389  29.995   5.371
 4176POPC   PO455632   3.866  30.349   5.591
 4176POPC   GL155633   4.225  30.141   5.840
 4176POPC   GL255634   4.380  29.772   5.829
 4176POPC   C1A55635   4.282  30.087   6.274
 4176POPC   D2A55636   4.070  30.331   6.562
 4176POPC   C3A55637   4.211  30.122   6.903
 4176POPC   C4A55638   4.526  29.921   7.146
 4176POPC   C1B55639   4.074  29.648   6.158
 4176POPC   C2B55640   4.220  29.631   6.598
 4176POPC   C3B55641   4.127  29.636   7.034
 4176POPC   C4B55642   3.857  29.553   7.353
 4177POPC   NC355643   1.727  30.018   5.373
 4177POPC   PO455644   2.358  29.838   5.241
 4177POPC   GL155645   2.193  29.850   5.699
 4177POPC   GL255646   1.847  29.771   5.803
 4177POPC   C1A55647   2.176  29.949   6.165
 4177POPC   D2A55648   1.951  29.918   6.561
 4177POPC   C3A55649   2.143  29.994   6.977
 4177POPC   C4A55650   2.080  29.676   7.317
 4177POPC   C1B55651   1.645  30.040   6.131
 4177POPC   C2B55652   1.498  30.178   6.542
 4177POPC   C3B55653   1.592  30.042   6.949
 4177POPC   C4B55654   1.766  30.077   7.352
 4178POPC   NC355655  28.694  18.096   5.502
 4178POPC   PO455656  29.242  18.227   5.333
 4178POPC   GL155657  29.386  18.148   5.758
 4178POPC   GL255658  29.060  18.126   5.882
 4178POPC   C1A55659  29.496  17.980   6.169
 4178POPC   D2A55660  29.354  18.011   6.610
 4178POPC   C3A55661  29.323  17.969   7.062
 4178POPC   C4A55662  29.331  18.385   7.243
 4178POPC   C1B55663  29.120  18.341   6.283
 4178POPC   C2B55664  29.062  18.409   6.755
 4178POPC   C3B55665  28.823  18.401   7.146
 4178POPC   C4B55666  28.839  18.569   7.545
 4179POPC   NC355667  44.065  44.451   5.409
 4179POPC   PO455668  43.469  44.807   5.406
 4179POPC   GL155669  43.783  44.749   5.750
 4179POPC   GL255670  43.970  44.433   5.897
 4179POPC   C1A55671  43.695  44.725   6.192
 4179POPC   D2A55672  43.781  44.470   6.538
 4179POPC   C3A55673  43.661  44.686   6.884
 4179POPC   C4A55674  43.698  44.637   7.306
 4179POPC   C1B55675  44.191  44.624   6.268
 4179POPC   C2B55676  44.232  44.602   6.725
 4179POPC   C3B55677  44.195  44.581   7.161
 4179POPC   C4B55678  44.270  44.447   7.591
 4180POPC   NC355679  30.957  27.931   5.461
 4180POPC   PO455680  31.669  27.850   5.175
 4180POPC   GL155681  31.506  27.845   5.687
 4180POPC   GL255682  31.575  27.477   5.859
 4180POPC   C1A55683  31.359  27.792   6.168
 4180POPC   D2A55684  31.507  27.659   6.581
 4180POPC   C3A55685  31.374  27.806   6.980
 4180POPC   C4A55686  31.103  27.523   7.228
 4180POPC   C1B55687  31.499  27.220   6.254
 4180POPC   C2B55688  31.700  27.196   6.673
 4180POPC   C3B55689  31.662  27.395   7.074
 4180POPC   C4B55690  31.486  27.330   7.495
 4181POPC   NC355691  44.944   6.194   5.473
 4181POPC   PO455692  44.450   5.876   5.606
 4181POPC   GL155693  44.661   5.647   5.916
 4181POPC   GL255694   0.023   5.725   5.847
 4181POPC   C1A55695  44.483   5.515   6.330
 4181POPC   D2A55696  44.449   5.530   6.796
 4181POPC   C3A55697  44.438   5.974   6.914
 4181POPC   C4A55698  44.588   6.103   7.306
 4181POPC   C1B55699   0.001   5.557   6.263
 4181POPC   C2B55700  44.828   5.804   6.598
 4181POPC   C3B55701  44.899   5.752   7.034
 4181POPC   C4B55702   0.069   6.141   7.152
 4182POPC   NC355703  39.094   7.017   5.502
 4182POPC   PO455704  39.180   7.670   5.336
 4182POPC   GL155705  39.160   7.466   5.753
 4182POPC   GL255706  39.421   7.223   5.878
 4182POPC   C1A55707  39.087   7.375   6.212
 4182POPC   D2A55708  39.285   7.206   6.607
 4182POPC   C3A55709  39.127   7.280   7.033
 4182POPC   C4A55710  39.001   7.256   7.463
 4182POPC   C1B55711  39.641   7.061   6.253
 4182POPC   C2B55712  39.691   6.874   6.699
 4182POPC   C3B55713  39.547   6.985   7.145
 4182POPC   C4B55714  39.663   7.249   7.528
 4183POPC   NC355715  28.843  31.673   5.610
 4183POPC   PO455716  29.359  31.536   5.192
 4183POPC   GL155717  29.470  31.434   5.689
 4183POPC   GL255718  29.160  31.360   5.839
 4183POPC   C1A55719  29.439  31.509   6.201
 4183POPC   D2A55720  29.195  31.253   6.533
 4183POPC   C3A55721  29.318  31.237   6.953
 4183POPC   C4A55722  29.440  31.594   7.154
 4183POPC   C1B55723  28.902  31.504   6.217
 4183POPC   C2B55724  28.664  31.284   6.548
 4183POPC   C3B55725  28.802  31.249   6.967
 4183POPC   C4B55726  28.928  31.595   7.249
 4184POPC   NC355727   7.976  11.699   5.506
 4184POPC   PO455728   8.233  11.064   5.438
 4184POPC   GL155729   8.136  11.188   5.870
 4184POPC   GL255730   7.973  11.499   5.984
 4184POPC   C1A55731   8.197  11.156   6.330
 4184POPC   D2A55732   8.152  11.509   6.634
 4184POPC   C3A55733   8.093  11.365   7.064
 4184POPC   C4A55734   7.798  11.108   7.314
 4184POPC   C1B55735   8.419  11.551   6.117
 4184POPC   C2B55736   8.648  11.572   6.518
 4184POPC   C3B55737   8.552  11.648   6.940
 4184POPC   C4B55738   8.579  11.461   7.310
 4185POPC   NC355739  13.240  43.334   5.478
 4185POPC   PO455740  13.923  43.317   5.351
 4185POPC   GL155741  13.666  43.060   5.614
 4185POPC   GL255742  13.655  43.361   5.792
 4185POPC   C1A55743  13.464  42.938   6.047
 4185POPC   D2A55744  13.361  43.058   6.496
 4185POPC   C3A55745  13.471  42.856   6.872
 4185POPC   C4A55746  13.539  42.912   7.307
 4185POPC   C1B55747  13.419  43.452   6.139
 4185POPC   C2B55748  13.606  43.509   6.528
 4185POPC   C3B55749  13.610  43.347   6.922
 4185POPC   C4B55750  13.655  43.407   7.337
 4186POPC   NC355751  13.061  44.890   5.403
 4186POPC   PO455752  12.628  44.428   5.581
 4186POPC   GL155753  12.976  44.596   5.850
 4186POPC   GL255754  12.827  44.956   5.843
 4186POPC   C1A55755  13.155  44.459   6.270
 4186POPC   D2A55756  12.849  44.448   6.624
 4186POPC   C3A55757  12.879  44.523   7.071
 4186POPC   C4A55758  13.043  44.850   7.327
 4186POPC   C1B55759  12.786  44.859   6.276
 4186POPC   C2B55760  12.506  44.824   6.629
 4186POPC   C3B55761  12.667  44.980   6.981
 4186POPC   C4B55762  12.535   0.101   7.348
 4187POPC   NC355763  37.968  26.828   5.414
 4187POPC   PO455764  37.413  26.609   5.069
 4187POPC   GL155765  37.523  26.692   5.592
 4187POPC   GL255766  37.680  26.998   5.792
 4187POPC   C1A55767  37.735  26.560   6.053
 4187POPC   D2A55768  37.718  26.774   6.506
 4187POPC   C3A55769  37.635  26.641   6.958
 4187POPC   C4A55770  37.410  26.904   7.323
 4187POPC   C1B55771  38.084  26.970   6.063
 4187POPC   C2B55772  38.149  27.215   6.429
 4187POPC   C3B55773  38.043  27.279   6.865
 4187POPC   C4B55774  37.869  27.044   7.193
 4188POPC   NC355775  27.966  41.094   5.590
 4188POPC   PO455776  28.369  40.774   5.115
 4188POPC   GL155777  28.429  40.762   5.591
 4188POPC   GL255778  28.642  40.477   5.736
 4188POPC   C1A55779  28.309  40.754   6.062
 4188POPC   D2A55780  28.380  40.715   6.511
 4188POPC   C3A55781  28.229  40.714   6.939
 4188POPC   C4A55782  28.371  41.049   7.217
 4188POPC   C1B55783  28.599  40.356   6.197
 4188POPC   C2B55784  28.468  40.220   6.606
 4188POPC   C3B55785  28.460  40.266   7.041
 4188POPC   C4B55786  28.367  40.551   7.418
 4189POPC   NC355787  29.652  14.854   5.408
 4189POPC   PO455788  30.005  15.284   5.735
 4189POPC   GL155789  29.970  14.915   5.999
 4189POPC   GL255790  29.635  14.726   5.907
 4189POPC   C1A55791  30.057  14.937   6.467
 4189POPC   D2A55792  29.952  15.266   6.768
 4189POPC   C3A55793  30.136  15.282   7.164
 4189POPC   C4A55794  29.997  15.278   7.578
 4189POPC   C1B55795  29.606  14.764   6.351
 4189POPC   C2B55796  29.627  14.882   6.812
 4189POPC   C3B55797  29.677  15.080   7.228
 4189POPC   C4B55798  29.590  14.963   7.707
 4190POPC   NC355799   8.218   6.854   5.238
 4190POPC   PO455800   8.053   6.272   5.448
 4190POPC   GL155801   8.209   6.566   5.729
 4190POPC   GL255802   8.018   6.878   5.716
 4190POPC   C1A55803   8.226   6.698   6.169
 4190POPC   D2A55804   8.013   6.666   6.572
 4190POPC   C3A55805   8.198   6.579   6.979
 4190POPC   C4A55806   8.261   6.401   7.423
 4190POPC   C1B55807   7.749   6.838   6.094
 4190POPC   C2B55808   7.702   7.080   6.502
 4190POPC   C3B55809   7.880   7.054   6.926
 4190POPC   C4B55810   8.015   6.880   7.333
 4191POPC   NC355811  42.081   8.231   5.514
 4191POPC   PO455812  42.625   7.999   5.278
 4191POPC   GL155813  42.524   8.043   5.737
 4191POPC   GL255814  42.276   7.776   5.685
 4191POPC   C1A55815  42.338   8.385   6.077
 4191POPC   D2A55816  42.444   8.632   6.470
 4191POPC   C3A55817  42.260   8.502   6.830
 4191POPC   C4A55818  42.408   8.348   7.209
 4191POPC   C1B55819  42.159   7.895   6.102
 4191POPC   C2B55820  42.259   8.096   6.492
 4191POPC   C3B55821  42.129   8.004   6.912
 4191POPC   C4B55822  42.319   7.857   7.265
 4192POPC   NC355823   3.650  29.308   5.518
 4192POPC   PO455824   3.548  28.616   5.414
 4192POPC   GL155825   3.451  28.895   5.747
 4192POPC   GL255826   3.824  28.917   5.804
 4192POPC   C1A55827   3.307  29.095   6.164
 4192POPC   D2A55828   3.321  29.461   6.479
 4192POPC   C3A55829   3.264  29.270   6.899
 4192POPC   C4A55830   3.410  29.146   7.314
 4192POPC   C1B55831   3.841  29.167   6.176
 4192POPC   C2B55832   3.671  29.116   6.580
 4192POPC   C3B55833   3.810  29.219   6.979
 4192POPC   C4B55834   3.913  29.042   7.387
 4193POPC   NC355835  15.458   6.047   5.280
 4193POPC   PO455836  15.008   5.555   5.412
 4193POPC   GL155837  15.184   5.836   5.701
 4193POPC   GL255838  15.446   5.679   5.721
 4193POPC   C1A55839  15.091   5.856   6.126
 4193POPC   D2A55840  15.129   5.621   6.524
 4193POPC   C3A55841  15.063   5.883   6.924
 4193POPC   C4A55842  15.068   5.834   7.390
 4193POPC   C1B55843  15.570   6.020   5.986
 4193POPC   C2B55844  15.477   6.003   6.425
 4193POPC   C3B55845  15.441   6.252   6.792
 4193POPC   C4B55846  15.491   6.102   7.197
 4194POPC   NC355847   1.439  37.114   5.355
 4194POPC   PO455848   1.060  36.599   5.342
 4194POPC   GL155849   1.159  36.884   5.733
 4194POPC   GL255850   1.059  37.231   5.833
 4194POPC   C1A55851   1.558  37.006   5.993
 4194POPC   D2A55852   1.706  36.868   6.407
 4194POPC   C3A55853   1.492  36.948   6.808
 4194POPC   C4A55854   1.635  37.186   7.194
 4194POPC   C1B55855   1.160  37.128   6.282
 4194POPC   C2B55856   1.013  37.048   6.692
 4194POPC   C3B55857   1.121  37.116   7.133
 4194POPC   C4B55858   1.211  37.087   7.567
 4195POPC   NC355859  42.588   3.550   5.416
 4195POPC   PO455860  42.090   3.979   5.269
 4195POPC   GL155861  42.201   3.727   5.712
 4195POPC   GL255862  42.558   3.762   5.881
 4195POPC   C1A55863  42.116   3.693   6.176
 4195POPC   D2A55864  42.479   3.680   6.494
 4195POPC   C3A55865  42.478   3.711   6.953
 4195POPC   C4A55866  42.208   3.684   7.323
 4195POPC   C1B55867  42.485   3.341   6.088
 4195POPC   C2B55868  42.208   3.217   6.456
 4195POPC   C3B55869  42.119   3.317   6.915
 4195POPC   C4B55870  42.247   3.171   7.342
 4196POPC   NC355871  10.008  40.272   5.276
 4196POPC   PO455872   9.357  39.982   5.455
 4196POPC   GL155873   9.760  39.924   5.727
 4196POPC   GL255874  10.037  40.174   5.776
 4196POPC   C1A55875   9.860  39.925   6.187
 4196POPC   D2A55876   9.637  40.175   6.473
 4196POPC   C3A55877   9.654  40.088   6.918
 4196POPC   C4A55878   9.613  39.801   7.267
 4196POPC   C1B55879  10.115  40.387   6.171
 4196POPC   C2B55880  10.119  40.256   6.603
 4196POPC   C3B55881  10.018  40.465   6.974
 4196POPC   C4B55882  10.010  40.175   7.299
 4197POPC   NC355883  40.090  33.296   5.488
 4197POPC   PO455884  40.068  32.636   5.347
 4197POPC   GL155885  40.012  32.760   5.808
 4197POPC   GL255886  40.047  33.116   5.968
 4197POPC   C1A55887  39.944  32.740   6.269
 4197POPC   D2A55888  40.224  32.928   6.594
 4197POPC   C3A55889  40.077  32.854   7.004
 4197POPC   C4A55890  39.748  33.133   7.129
 4197POPC   C1B55891  39.958  33.370   6.345
 4197POPC   C2B55892  40.115  33.457   6.779
 4197POPC   C3B55893  40.281  33.324   7.192
 4197POPC   C4B55894  40.510  33.365   7.610
 4198POPC   NC355895   8.651  30.206   5.280
 4198POPC   PO455896   8.748  29.477   5.414
 4198POPC   GL155897   8.734  29.895   5.701
 4198POPC   GL255898   9.066  30.046   5.785
 4198POPC   C1A55899   8.731  29.944   6.176
 4198POPC   D2A55900   8.933  29.757   6.546
 4198POPC   C3A55901   8.886  29.868   6.971
 4198POPC   C4A55902   8.581  30.056   7.197
 4198POPC   C1B55903   9.222  30.094   6.253
 4198POPC   C2B55904   9.307  30.103   6.727
 4198POPC   C3B55905   9.364  29.870   7.140
 4198POPC   C4B55906   9.364  29.763   7.585
 4199POPC   NC355907  30.458   2.303   5.400
 4199POPC   PO455908  30.882   1.875   5.194
 4199POPC   GL155909  30.903   1.826   5.635
 4199POPC   GL255910  31.193   1.998   5.714
 4199POPC   C1A55911  30.670   1.975   6.011
 4199POPC   D2A55912  30.734   1.929   6.466
 4199POPC   C3A55913  30.507   2.120   6.826
 4199POPC   C4A55914  30.613   2.022   7.259
 4199POPC   C1B55915  31.166   2.077   6.139
 4199POPC   C2B55916  31.233   2.110   6.565
 4199POPC   C3B55917  31.013   2.082   6.922
 4199POPC   C4B55918  31.118   2.193   7.320
 4200POPC   NC355919   5.202  10.326   5.489
 4200POPC   PO455920   4.617  10.672   5.307
 4200POPC   GL155921   4.849  10.661   5.741
 4200POPC   GL255922   4.877  10.341   5.893
 4200POPC   C1A55923   4.995  10.706   6.208
 4200POPC   D2A55924   5.349  10.765   6.520
 4200POPC   C3A55925   5.143  10.809   6.926
 4200POPC   C4A55926   5.077  10.632   7.334
 4200POPC   C1B55927   5.023  10.162   6.267
 4200POPC   C2B55928   5.090  10.336   6.648
 4200POPC   C3B55929   4.855  10.317   6.988
 4200POPC   C4B55930   4.857   9.974   7.284
 4201POPC   NC355931  15.031  10.028   5.421
 4201POPC   PO455932  15.661   9.682   5.453
 4201POPC   GL155933  15.500  10.072   5.652
 4201POPC   GL255934  15.244   9.898   5.869
 4201POPC   C1A55935  15.527  10.237   6.096
 4201POPC   D2A55936  15.321   9.963   6.417
 4201POPC   C3A55937  15.468   9.907   6.825
 4201POPC   C4A55938  15.299   9.546   7.011
 4201POPC   C1B55939  14.867   9.813   6.125
 4201POPC   C2B55940  14.687   9.620   6.506
 4201POPC   C3B55941  14.794   9.475   6.924
 4201POPC   C4B55942  14.917   9.657   7.349
 4202POPC   NC355943  25.770  42.085   5.411
 4202POPC   PO455944  26.034  41.442   5.366
 4202POPC   GL155945  25.913  41.625   5.768
 4202POPC   GL255946  26.134  41.900   5.751
 4202POPC   C1A55947  25.915  41.479   6.236
 4202POPC   D2A55948  26.085  41.707   6.615
 4202POPC   C3A55949  25.985  41.527   7.025
 4202POPC   C4A55950  25.970  41.113   7.196
 4202POPC   C1B55951  25.912  41.977   6.164
 4202POPC   C2B55952  25.882  42.205   6.542
 4202POPC   C3B55953  25.887  42.047   6.958
 4202POPC   C4B55954  26.261  41.951   7.131
 4203POPC   NC355955  42.661   6.850   5.407
 4203POPC   PO455956  42.203   6.426   5.436
 4203POPC   GL155957  42.490   6.411   5.799
 4203POPC   GL255958  42.644   6.711   5.887
 4203POPC   C1A55959  42.444   6.412   6.254
 4203POPC   D2A55960  42.338   6.674   6.612
 4203POPC   C3A55961  42.470   6.432   6.933
 4203POPC   C4A55962  42.199   6.134   7.072
 4203POPC   C1B55963  42.500   6.969   6.215
 4203POPC   C2B55964  42.474   7.237   6.599
 4203POPC   C3B55965  42.467   7.030   7.004
 4203POPC   C4B55966  42.332   6.723   7.312
 4204POPC   NC355967   9.792  27.185   5.586
 4204POPC   PO455968   9.750  27.764   5.258
 4204POPC   GL155969   9.841  27.764   5.763
 4204POPC   GL255970   9.988  27.470   5.951
 4204POPC   C1A55971   9.762  27.835   6.242
 4204POPC   D2A55972   9.645  27.635   6.663
 4204POPC   C3A55973   9.876  27.662   7.057
 4204POPC   C4A55974   9.864  27.712   7.529
 4204POPC   C1B55975   9.658  27.322   6.244
 4204POPC   C2B55976   9.554  27.103   6.634
 4204POPC   C3B55977   9.439  27.295   7.032
 4204POPC   C4B55978   9.412  27.673   7.273
 4205POPC   NC355979   9.947   5.430   5.548
 4205POPC   PO455980   9.788   6.100   5.710
 4205POPC   GL155981   9.911   5.746   5.937
 4205POPC   GL255982   9.622   5.580   5.912
 4205POPC   C1A55983   9.946   5.707   6.356
 4205POPC   D2A55984   9.893   6.049   6.623
 4205POPC   C3A55985   9.964   5.910   6.994
 4205POPC   C4A55986   9.951   5.576   7.341
 4205POPC   C1B55987   9.437   5.637   6.297
 4205POPC   C2B55988   9.393   5.941   6.617
 4205POPC   C3B55989   9.484   6.154   6.999
 4205POPC   C4B55990   9.507   5.764   7.165
 4206POPC   NC355991  25.684   4.713   5.396
 4206POPC   PO455992  25.948   5.357   5.334
 4206POPC   GL155993  25.977   5.046   5.656
 4206POPC   GL255994  25.801   5.243   5.875
 4206POPC   C1A55995  26.093   4.853   6.051
 4206POPC   D2A55996  26.155   5.043   6.449
 4206POPC   C3A55997  26.116   4.957   6.875
 4206POPC   C4A55998  26.212   5.150   7.245
 4206POPC   C1B55999  25.622   4.958   6.197
 4206POPC   C2B56000  25.693   4.823   6.614
 4206POPC   C3B56001  25.565   5.066   6.958
 4206POPC   C4B56002  25.712   5.127   7.384
 4207POPC   NC356003  26.706  13.980   5.562
 4207POPC   PO456004  26.902  13.345   5.442
 4207POPC   GL156005  26.748  13.513   5.803
 4207POPC   GL256006  26.433  13.567   5.706
 4207POPC   C1A56007  26.863  13.687   6.192
 4207POPC   D2A56008  27.050  13.889   6.548
 4207POPC   C3A56009  26.956  13.697   6.929
 4207POPC   C4A56010  26.932  13.915   7.322
 4207POPC   C1B56011  26.384  13.866   6.098
 4207POPC   C2B56012  26.541  13.903   6.530
 4207POPC   C3B56013  26.452  13.796   6.938
 4207POPC   C4B56014  26.554  13.535   7.260
 4208POPC   NC356015   1.601   3.284   5.458
 4208POPC   PO456016   1.339   2.709   5.282
 4208POPC   GL156017   1.476   2.781   5.729
 4208POPC   GL256018   1.212   3.016   5.780
 4208POPC   C1A56019   1.479   2.563   6.179
 4208POPC   D2A56020   1.235   2.328   6.539
 4208POPC   C3A56021   1.291   2.477   6.967
 4208POPC   C4A56022   1.631   2.678   7.162
 4208POPC   C1B56023   1.362   3.060   6.207
 4208POPC   C2B56024   1.348   2.866   6.641
 4208POPC   C3B56025   1.309   3.068   7.056
 4208POPC   C4B56026   0.999   3.019   7.353
 4209POPC   NC356027  42.107  40.797   5.439
 4209POPC   PO456028  42.703  40.449   5.423
 4209POPC   GL156029  42.477  40.731   5.763
 4209POPC   GL256030  42.152  40.573   5.879
 4209POPC   C1A56031  42.310  41.033   6.085
 4209POPC   D2A56032  42.287  40.983   6.522
 4209POPC   C3A56033  42.246  41.138   6.914
 4209POPC   C4A56034  42.441  41.043   7.269
 4209POPC   C1B56035  41.964  40.684   6.241
 4209POPC   C2B56036  41.966  40.578   6.660
 4209POPC   C3B56037  42.208  40.651   7.025
 4209POPC   C4B56038  42.019  40.808   7.417
 4210POPC   NC356039  25.213   9.053   5.666
 4210POPC   PO456040  25.601   8.615   5.382
 4210POPC   GL156041  25.382   8.592   5.880
 4210POPC   GL256042  25.078   8.789   6.072
 4210POPC   C1A56043  25.479   8.682   6.356
 4210POPC   D2A56044  25.245   8.955   6.672
 4210POPC   C3A56045  25.073   8.902   7.080
 4210POPC   C4A56046  25.314   8.804   7.457
 4210POPC   C1B56047  25.187   9.237   6.254
 4210POPC   C2B56048  25.387   9.451   6.587
 4210POPC   C3B56049  25.432   9.297   7.005
 4210POPC   C4B56050  25.183   9.296   7.362
 4211POPC   NC356051   1.483  25.536   5.485
 4211POPC   PO456052   0.949  25.101   5.403
 4211POPC   GL156053   1.098  25.291   5.776
 4211POPC   GL256054   1.409  25.175   5.925
 4211POPC   C1A56055   1.086  25.563   6.142
 4211POPC   D2A56056   1.006  25.721   6.564
 4211POPC   C3A56057   1.106  25.385   6.876
 4211POPC   C4A56058   1.484  25.322   7.135
 4211POPC   C1B56059   1.048  24.940   6.176
 4211POPC   C2B56060   0.964  24.864   6.629
 4211POPC   C3B56061   1.209  24.861   6.986
 4211POPC   C4B56062   1.156  24.999   7.397
 4212POPC   NC356063  44.871  12.748   5.344
 4212POPC   PO456064  44.267  12.573   5.522
 4212POPC   GL156065  44.612  12.790   5.787
 4212POPC   GL256066  44.977  12.969   5.784
 4212POPC   C1A56067  44.580  12.904   6.210
 4212POPC   D2A56068  44.628  13.110   6.598
 4212POPC   C3A56069  44.465  13.055   7.015
 4212POPC   C4A56070  44.708  13.030   7.424
 4212POPC   C1B56071   0.083  12.843   6.203
 4212POPC   C2B56072  44.871  12.645   6.565
 4212POPC   C3B56073  44.903  12.792   6.968
 4212POPC   C4B56074   0.276  12.966   7.196
 4213POPC   NC356075  23.840  25.127   5.389
 4213POPC   PO456076  23.298  25.559   5.444
 4213POPC   GL156077  23.485  25.416   5.820
 4213POPC   GL256078  23.573  25.072   5.863
 4213POPC   C1A56079  23.654  25.557   6.234
 4213POPC   D2A56080  23.810  25.446   6.683
 4213POPC   C3A56081  23.556  25.607   7.083
 4213POPC   C4A56082  23.374  25.797   7.467
 4213POPC   C1B56083  23.802  25.079   6.276
 4213POPC   C2B56084  23.788  24.940   6.728
 4213POPC   C3B56085  23.667  25.112   7.124
 4213POPC   C4B56086  23.651  24.885   7.514
 4214POPC   NC356087  15.751  25.007   5.358
 4214POPC   PO456088  16.385  25.182   5.297
 4214POPC   GL156089  16.071  25.336   5.609
 4214POPC   GL256090  16.081  25.005   5.748
 4214POPC   C1A56091  16.042  25.433   6.094
 4214POPC   D2A56092  16.068  25.296   6.585
 4214POPC   C3A56093  16.250  25.538   6.981
 4214POPC   C4A56094  16.117  25.507   7.432
 4214POPC   C1B56095  15.956  24.872   6.137
 4214POPC   C2B56096  15.777  24.808   6.507
 4214POPC   C3B56097  15.907  24.843   6.909
 4214POPC   C4B56098  15.842  25.064   7.277
 4215POPC   NC356099  15.359  42.787   5.201
 4215POPC   PO456100  15.028  43.336   5.539
 4215POPC   GL156101  15.255  43.149   5.830
 4215POPC   GL256102  14.947  43.009   5.997
 4215POPC   C1A56103  15.360  43.082   6.247
 4215POPC   D2A56104  15.012  42.999   6.512
 4215POPC   C3A56105  15.160  43.084   6.872
 4215POPC   C4A56106  15.081  43.015   7.277
 4215POPC   C1B56107  14.883  43.410   6.183
 4215POPC   C2B56108  14.954  43.535   6.604
 4215POPC   C3B56109  14.807  43.411   7.032
 4215POPC   C4B56110  14.865  43.387   7.509
 4216POPC   NC356111  42.742   4.524   5.586
 4216POPC   PO456112  43.511   4.614   5.562
 4216POPC   GL156113  43.217   4.426   5.897
 4216POPC   GL256114  42.969   4.146   5.862
 4216POPC   C1A56115  43.354   4.119   6.227
 4216POPC   D2A56116  43.206   4.006   6.653
 4216POPC   C3A56117  43.384   4.158   7.059
 4216POPC   C4A56118  43.202   4.196   7.491
 4216POPC   C1B56119  42.885   4.286   6.289
 4216POPC   C2B56120  42.704   4.141   6.673
 4216POPC   C3B56121  42.897   4.293   7.019
 4216POPC   C4B56122  42.797   4.531   7.359
 4217POPC   NC356123   9.038  16.492   5.400
 4217POPC   PO456124   9.614  16.465   5.463
 4217POPC   GL156125   9.365  16.725   5.806
 4217POPC   GL256126   8.994  16.714   5.861
 4217POPC   C1A56127   9.293  16.903   6.265
 4217POPC   D2A56128   9.064  16.838   6.665
 4217POPC   C3A56129   9.108  16.683   7.091
 4217POPC   C4A56130   9.169  16.895   7.500
 4217POPC   C1B56131   8.894  16.529   6.278
 4217POPC   C2B56132   8.724  16.457   6.736
 4217POPC   C3B56133   8.601  16.621   7.161
 4217POPC   C4B56134   8.637  16.845   7.575
 4218POPC   NC356135  17.794  21.999   4.980
 4218POPC   PO456136  17.306  22.322   5.224
 4218POPC   GL156137  17.392  22.279   5.718
 4218POPC   GL256138  17.473  21.962   5.923
 4218POPC   C1A56139  17.482  22.398   6.169
 4218POPC   D2A56140  17.807  22.340   6.505
 4218POPC   C3A56141  17.759  22.456   6.943
 4218POPC   C4A56142  17.581  22.287   7.311
 4218POPC   C1B56143  17.605  21.893   6.351
 4218POPC   C2B56144  17.687  21.916   6.804
 4218POPC   C3B56145  17.976  22.009   7.125
 4218POPC   C4B56146  17.906  21.974   7.599
 4219POPC   NC356147  42.442  22.169   5.420
 4219POPC   PO456148  41.989  22.556   5.591
 4219POPC   GL156149  42.256  22.315   5.892
 4219POPC   GL256150  42.619  22.352   5.919
 4219POPC   C1A56151  42.446  21.919   6.119
 4219POPC   D2A56152  42.684  21.930   6.537
 4219POPC   C3A56153  42.410  21.976   6.905
 4219POPC   C4A56154  42.022  21.802   7.074
 4219POPC   C1B56155  42.429  22.360   6.379
 4219POPC   C2B56156  42.055  22.335   6.667
 4219POPC   C3B56157  42.187  22.406   7.070
 4219POPC   C4B56158  42.655  22.374   7.120
 4220POPC   NC356159   4.090  44.063   5.189
 4220POPC   PO456160   4.634  43.722   5.356
 4220POPC   GL156161   4.509  43.964   5.722
 4220POPC   GL256162   4.615  43.674   5.871
 4220POPC   C1A56163   4.231  43.900   6.132
 4220POPC   D2A56164   4.178  43.511   6.438
 4220POPC   C3A56165   4.117  43.581   6.891
 4220POPC   C4A56166   4.230  43.981   7.121
 4220POPC   C1B56167   4.688  43.731   6.285
 4220POPC   C2B56168   4.546  43.778   6.692
 4220POPC   C3B56169   4.696  43.736   7.098
 4220POPC   C4B56170   4.511  43.706   7.516
 4221POPC   NC356171  27.169  25.172   5.361
 4221POPC   PO456172  26.850  25.648   5.621
 4221POPC   GL156173  26.806  25.197   5.739
 4221POPC   GL256174  26.435  25.072   5.732
 4221POPC   C1A56175  26.987  24.978   6.140
 4221POPC   D2A56176  27.174  25.008   6.587
 4221POPC   C3A56177  26.987  25.099   7.007
 4221POPC   C4A56178  26.821  25.332   7.387
 4221POPC   C1B56179  26.547  25.275   6.160
 4221POPC   C2B56180  26.738  25.327   6.567
 4221POPC   C3B56181  26.579  25.435   6.962
 4221POPC   C4B56182  26.417  25.074   7.225
 4222POPC   NC356183  37.021  22.482   5.356
 4222POPC   PO456184  37.135  21.757   5.528
 4222POPC   GL156185  36.954  22.008   5.875
 4222POPC   GL256186  36.897  22.397   5.853
 4222POPC   C1A56187  36.912  21.873   6.309
 4222POPC   D2A56188  37.129  22.067   6.639
 4222POPC   C3A56189  37.008  22.071   7.074
 4222POPC   C4A56190  36.674  21.943   7.323
 4222POPC   C1B56191  36.897  22.386   6.294
 4222POPC   C2B56192  36.829  22.445   6.734
 4222POPC   C3B56193  36.695  22.560   7.096
 4222POPC   C4B56194  36.988  22.515   7.377
 4223POPC   NC356195  30.452  31.111   5.543
 4223POPC   PO456196  30.949  31.641   5.520
 4223POPC   GL156197  30.692  31.486   5.816
 4223POPC   GL256198  30.504  31.747   5.969
 4223POPC   C1A56199  30.816  31.400   6.249
 4223POPC   D2A56200  30.649  31.470   6.665
 4223POPC   C3A56201  30.840  31.173   6.930
 4223POPC   C4A56202  31.118  31.207   7.248
 4223POPC   C1B56203  30.313  31.344   6.180
 4223POPC   C2B56204  30.233  31.115   6.588
 4223POPC   C3B56205  30.327  31.229   7.021
 4223POPC   C4B56206  30.510  31.625   7.173
 4224POPC   NC356207  16.257  12.273   5.509
 4224POPC   PO456208  15.722  12.474   5.707
 4224POPC   GL156209  16.006  12.290   5.963
 4224POPC   GL256210  16.075  11.955   5.873
 4224POPC   C1A56211  15.979  12.210   6.374
 4224POPC   D2A56212  16.099  12.389   6.728
 4224POPC   C3A56213  15.879  12.177   7.006
 4224POPC   C4A56214  16.097  11.858   7.239
 4224POPC   C1B56215  15.761  11.778   6.173
 4224POPC   C2B56216  15.589  11.857   6.566
 4224POPC   C3B56217  15.655  11.707   6.967
 4224POPC   C4B56218  15.581  11.923   7.349
 4225POPC   NC356219  20.565  21.066   5.043
 4225POPC   PO456220  20.371  21.583   5.449
 4225POPC   GL156221  20.656  21.460   5.790
 4225POPC   GL256222  20.764  21.792   5.937
 4225POPC   C1A56223  20.661  21.323   6.263
 4225POPC   D2A56224  20.616  21.180   6.730
 4225POPC   C3A56225  20.426  21.248   7.145
 4225POPC   C4A56226  20.667  21.348   7.523
 4225POPC   C1B56227  20.345  21.679   6.115
 4225POPC   C2B56228  20.154  21.635   6.524
 4225POPC   C3B56229  20.319  21.688   6.912
 4225POPC   C4B56230  20.628  21.770   7.242
 4226POPC   NC356231   1.570  42.999   5.553
 4226POPC   PO456232   2.176  43.352   5.471
 4226POPC   GL156233   2.033  43.183   5.853
 4226POPC   GL256234   2.265  42.927   6.023
 4226POPC   C1A56235   1.823  43.109   6.240
 4226POPC   D2A56236   2.041  43.001   6.602
 4226POPC   C3A56237   1.937  42.918   7.024
 4226POPC   C4A56238   1.788  43.140   7.394
 4226POPC   C1B56239   2.326  43.306   6.283
 4226POPC   C2B56240   2.391  43.357   6.713
 4226POPC   C3B56241   2.196  43.379   7.121
 4226POPC   C4B56242   2.247  43.732   7.386
 4227POPC   NC356243  28.286  27.082   5.199
 4227POPC   PO456244  28.292  27.777   5.156
 4227POPC   GL156245  28.286  27.876   5.678
 4227POPC   GL256246  28.016  28.050   5.784
 4227POPC   C1A56247  28.262  27.671   6.118
 4227POPC   D2A56248  28.414  27.681   6.533
 4227POPC   C3A56249  28.536  27.370   6.824
 4227POPC   C4A56250  28.592  27.470   7.250
 4227POPC   C1B56251  28.002  28.107   6.209
 4227POPC   C2B56252  27.891  27.782   6.520
 4227POPC   C3B56253  28.049  27.594   6.916
 4227POPC   C4B56254  28.183  27.797   7.303
 4228POPC   NC356255  22.749  40.977   5.350
 4228POPC   PO456256  22.860  40.339   5.467
 4228POPC   GL156257  22.952  40.618   5.782
 4228POPC   GL256258  23.304  40.517   5.840
 4228POPC   C1A56259  22.790  40.784   6.183
 4228POPC   D2A56260  22.672  40.634   6.578
 4228POPC   C3A56261  22.941  40.738   6.894
 4228POPC   C4A56262  22.944  40.907   7.316
 4228POPC   C1B56263  23.113  40.392   6.221
 4228POPC   C2B56264  23.286  40.356   6.628
 4228POPC   C3B56265  23.124  40.300   7.050
 4228POPC   C4B56266  22.738  40.422   7.257
 4229POPC   NC356267  20.630  41.501   5.397
 4229POPC   PO456268  21.136  41.868   5.381
 4229POPC   GL156269  20.876  41.649   5.808
 4229POPC   GL256270  20.540  41.414   5.870
 4229POPC   C1A56271  20.827  41.521   6.272
 4229POPC   D2A56272  20.851  41.844   6.595
 4229POPC   C3A56273  20.965  41.692   6.989
 4229POPC   C4A56274  20.826  41.646   7.394
 4229POPC   C1B56275  20.411  41.170   6.237
 4229POPC   C2B56276  20.532  41.047   6.660
 4229POPC   C3B56277  20.691  41.269   7.032
 4229POPC   C4B56278  20.452  41.315   7.436
 4230POPC   NC356279  17.694   7.422   5.014
 4230POPC   PO456280  17.513   7.061   5.486
 4230POPC   GL156281  17.394   7.216   5.899
 4230POPC   GL256282  17.143   7.477   5.823
 4230POPC   C1A56283  17.415   7.264   6.349
 4230POPC   D2A56284  17.358   7.432   6.764
 4230POPC   C3A56285  17.530   7.246   7.136
 4230POPC   C4A56286  17.649   7.321   7.602
 4230POPC   C1B56287  17.121   7.674   6.186
 4230POPC   C2B56288  16.933   7.640   6.569
 4230POPC   C3B56289  17.077   7.798   6.985
 4230POPC   C4B56290  17.261   7.615   7.355
 4231POPC   NC356291  15.937  10.443   5.500
 4231POPC   PO456292  16.079  11.065   5.562
 4231POPC   GL156293  16.076  10.764   5.874
 4231POPC   GL256294  16.370  10.566   5.756
 4231POPC   C1A56295  15.788  10.657   6.213
 4231POPC   D2A56296  15.658  10.906   6.588
 4231POPC   C3A56297  15.560  10.688   6.992
 4231POPC   C4A56298  15.748  10.307   7.203
 4231POPC   C1B56299  16.245  10.340   6.130
 4231POPC   C2B56300  16.256  10.510   6.545
 4231POPC   C3B56301  16.412  10.508   6.972
 4231POPC   C4B56302  16.230  10.552   7.353
 4232POPC   NC356303  25.809  26.295   5.376
 4232POPC   PO456304  26.373  25.981   5.383
 4232POPC   GL156305  26.048  26.025   5.738
 4232POPC   GL256306  25.850  26.311   5.864
 4232POPC   C1A56307  25.785  25.931   6.153
 4232POPC   D2A56308  25.973  26.040   6.563
 4232POPC   C3A56309  25.783  26.067   6.983
 4232POPC   C4A56310  25.805  25.840   7.351
 4232POPC   C1B56311  26.208  26.258   6.152
 4232POPC   C2B56312  26.444  26.262   6.512
 4232POPC   C3B56313  26.234  26.291   6.923
 4232POPC   C4B56314  26.340  26.015   7.248
 4233POPC   NC356315   3.319  21.974   5.459
 4233POPC   PO456316   3.440  22.697   5.522
 4233POPC   GL156317   3.395  22.331   5.823
 4233POPC   GL256318   3.669  22.075   5.844
 4233POPC   C1A56319   3.330  22.101   6.230
 4233POPC   D2A56320   3.470  22.170   6.682
 4233POPC   C3A56321   3.399  21.988   7.097
 4233POPC   C4A56322   3.173  22.038   7.516
 4233POPC   C1B56323   3.828  22.149   6.284
 4233POPC   C2B56324   3.984  22.153   6.713
 4233POPC   C3B56325   3.922  22.351   7.117
 4233POPC   C4B56326   3.674  22.199   7.473
 4234POPC   NC356327  26.870   9.812   5.107
 4234POPC   PO456328  26.929   9.321   5.517
 4234POPC   GL156329  26.747   9.516   5.850
 4234POPC   GL256330  26.740   9.829   5.878
 4234POPC   C1A56331  26.830   9.461   6.263
 4234POPC   D2A56332  27.019   9.689   6.577
 4234POPC   C3A56333  26.893   9.413   6.890
 4234POPC   C4A56334  26.806   9.494   7.317
 4234POPC   C1B56335  26.508   9.850   6.252
 4234POPC   C2B56336  26.500   9.622   6.623
 4234POPC   C3B56337  26.573   9.794   6.972
 4234POPC   C4B56338  26.423   9.853   7.323
 4235POPC   NC356339  11.517   2.522   5.056
 4235POPC   PO456340  11.257   2.102   5.617
 4235POPC   GL156341  11.230   2.036   6.007
 4235POPC   GL256342  11.574   1.926   6.008
 4235POPC   C1A56343  11.208   1.785   6.353
 4235POPC   D2A56344  11.301   1.908   6.736
 4235POPC   C3A56345  11.179   1.616   7.021
 4235POPC   C4A56346  11.018   1.820   7.333
 4235POPC   C1B56347  11.617   2.334   6.204
 4235POPC   C2B56348  11.592   2.603   6.562
 4235POPC   C3B56349  11.567   2.363   6.933
 4235POPC   C4B56350  11.510   1.989   7.192
 4236POPC   NC356351  13.680  41.093   5.436
 4236POPC   PO456352  13.478  40.507   5.283
 4236POPC   GL156353  13.632  40.659   5.717
 4236POPC   GL256354  13.383  40.805   5.950
 4236POPC   C1A56355  13.867  40.843   6.092
 4236POPC   D2A56356  13.806  40.760   6.533
 4236POPC   C3A56357  13.763  41.006   6.943
 4236POPC   C4A56358  13.514  40.937   7.311
 4236POPC   C1B56359  13.489  40.448   6.193
 4236POPC   C2B56360  13.608  40.321   6.589
 4236POPC   C3B56361  13.818  40.405   6.952
 4236POPC   C4B56362  13.534  40.351   7.241
 4237POPC   NC356363  22.782  44.877   5.284
 4237POPC   PO456364  23.000  44.225   5.437
 4237POPC   GL156365  23.010  44.518   5.783
 4237POPC   GL256366  22.816  44.837   5.798
 4237POPC   C1A56367  23.055  44.728   6.227
 4237POPC   D2A56368  22.685  44.892   6.482
 4237POPC   C3A56369  22.741  44.776   6.907
 4237POPC   C4A56370  23.053  44.501   7.026
 4237POPC   C1B56371  22.621  44.511   6.094
 4237POPC   C2B56372  22.389  44.423   6.443
 4237POPC   C3B56373  22.525  44.302   6.828
 4237POPC   C4B56374  22.584  44.395   7.237
 4238POPC   NC356375  33.841  32.302   5.407
 4238POPC   PO456376  33.330  31.953   5.561
 4238POPC   GL156377  33.607  32.131   5.852
 4238POPC   GL256378  33.983  32.177   5.870
 4238POPC   C1A56379  33.717  31.986   6.260
 4238POPC   D2A56380  33.669  32.149   6.676
 4238POPC   C3A56381  33.749  31.929   7.055
 4238POPC   C4A56382  33.447  32.122   7.262
 4238POPC   C1B56383  33.825  32.487   6.178
 4238POPC   C2B56384  33.980  32.544   6.612
 4238POPC   C3B56385  33.948  32.391   7.066
 4238POPC   C4B56386  33.806  32.335   7.532
 4239POPC   NC356387  19.321  13.601   5.573
 4239POPC   PO456388  18.671  13.878   5.444
 4239POPC   GL156389  18.923  13.877   5.786
 4239POPC   GL256390  18.818  13.533   5.810
 4239POPC   C1A56391  19.113  13.985   6.199
 4239POPC   D2A56392  19.339  13.931   6.608
 4239POPC   C3A56393  19.219  13.749   7.034
 4239POPC   C4A56394  19.173  13.683   7.479
 4239POPC   C1B56395  19.018  13.479   6.216
 4239POPC   C2B56396  19.162  13.426   6.644
 4239POPC   C3B56397  19.048  13.252   7.049
 4239POPC   C4B56398  18.798  13.341   7.423
 4240POPC   NC356399  27.067  43.485   5.312
 4240POPC   PO456400  26.677  42.916   5.507
 4240POPC   GL156401  26.928  43.025   5.812
 4240POPC   GL256402  26.959  43.389   5.816
 4240POPC   C1A56403  26.793  42.920   6.216
 4240POPC   D2A56404  26.901  43.036   6.614
 4240POPC   C3A56405  26.635  42.998   6.929
 4240POPC   C4A56406  26.812  42.971   7.334
 4240POPC   C1B56407  26.837  43.435   6.254
 4240POPC   C2B56408  26.945  43.543   6.676
 4240POPC   C3B56409  26.917  43.403   7.076
 4240POPC   C4B56410  26.936  43.522   7.474
 4241POPC   NC356411  10.545  41.074   5.396
 4241POPC   PO456412  10.284  40.553   5.533
 4241POPC   GL156413  10.352  40.768   5.863
 4241POPC   GL256414  10.683  40.799   5.839
 4241POPC   C1A56415  10.327  40.866   6.291
 4241POPC   D2A56416  10.402  40.663   6.658
 4241POPC   C3A56417  10.294  40.906   7.008
 4241POPC   C4A56418  10.548  41.133   7.268
 4241POPC   C1B56419  10.808  41.065   6.213
 4241POPC   C2B56420  10.696  41.083   6.670
 4241POPC   C3B56421  10.801  40.749   6.998
 4241POPC   C4B56422  10.859  40.765   7.449
 4242POPC   NC356423   4.480  35.811   5.412
 4242POPC   PO456424   4.259  36.413   5.363
 4242POPC   GL156425   4.222  36.137   5.729
 4242POPC   GL256426   4.572  36.051   5.860
 4242POPC   C1A56427   4.177  36.116   6.183
 4242POPC   D2A56428   4.432  36.200   6.533
 4242POPC   C3A56429   4.177  36.239   6.860
 4242POPC   C4A56430   4.213  36.385   7.257
 4242POPC   C1B56431   4.580  35.787   6.259
 4242POPC   C2B56432   4.676  35.793   6.725
 4242POPC   C3B56433   4.460  35.925   7.149
 4242POPC   C4B56434   4.642  36.204   7.490
 4243POPC   NC356435  36.585   4.063   5.274
 4243POPC   PO456436  37.172   4.289   5.423
 4243POPC   GL156437  37.069   4.505   5.820
 4243POPC   GL256438  36.772   4.293   5.906
 4243POPC   C1A56439  37.125   4.513   6.290
 4243POPC   D2A56440  36.835   4.376   6.642
 4243POPC   C3A56441  36.792   4.617   7.008
 4243POPC   C4A56442  36.455   4.710   7.285
 4243POPC   C1B56443  36.901   4.013   6.287
 4243POPC   C2B56444  36.893   3.858   6.748
 4243POPC   C3B56445  37.065   3.840   7.200
 4243POPC   C4B56446  37.138   4.058   7.620
 4244POPC   NC356447   0.865  37.711   5.401
 4244POPC   PO456448   1.546  37.552   5.239
 4244POPC   GL156449   1.339  37.635   5.653
 4244POPC   GL256450   1.038  37.770   5.872
 4244POPC   C1A56451   1.435  37.534   6.090
 4244POPC   D2A56452   1.497  37.740   6.480
 4244POPC   C3A56453   1.337  37.476   6.820
 4244POPC   C4A56454   1.242  37.636   7.237
 4244POPC   C1B56455   1.031  37.969   6.298
 4244POPC   C2B56456   1.085  37.938   6.778
 4244POPC   C3B56457   0.795  37.910   7.158
 4244POPC   C4B56458   0.795  37.948   7.607
 4245POPC   NC356459  19.336   1.856   5.392
 4245POPC   PO456460  18.848   2.227   5.538
 4245POPC   GL156461  18.978   1.831   5.748
 4245POPC   GL256462  19.222   2.071   5.881
 4245POPC   C1A56463  19.202   1.645   6.140
 4245POPC   D2A56464  19.101   1.661   6.552
 4245POPC   C3A56465  19.364   1.825   6.878
 4245POPC   C4A56466  19.246   1.975   7.262
 4245POPC   C1B56467  18.841   2.021   6.195
 4245POPC   C2B56468  18.630   1.884   6.568
 4245POPC   C3B56469  18.880   1.984   6.893
 4245POPC   C4B56470  18.834   2.254   7.212
 4246POPC   NC356471   6.274  40.103   5.414
 4246POPC   PO456472   5.722  39.736   5.391
 4246POPC   GL156473   5.702  40.066   5.755
 4246POPC   GL256474   5.379  40.282   5.821
 4246POPC   C1A56475   5.979  40.110   6.137
 4246POPC   D2A56476   6.261  39.913   6.458
 4246POPC   C3A56477   6.077  39.855   6.855
 4246POPC   C4A56478   6.034  39.777   7.274
 4246POPC   C1B56479   5.468  40.198   6.260
 4246POPC   C2B56480   5.621  40.053   6.655
 4246POPC   C3B56481   5.584  40.017   7.096
 4246POPC   C4B56482   5.435  40.310   7.432
 4247POPC   NC356483  27.858  44.961   5.382
 4247POPC   PO456484  27.223  44.768   5.383
 4247POPC   GL156485  27.405  44.853   5.833
 4247POPC   GL256486  27.768  44.874   5.875
 4247POPC   C1A56487  27.483  44.727   6.275
 4247POPC   D2A56488  27.322  44.436   6.549
 4247POPC   C3A56489  27.438  44.550   6.939
 4247POPC   C4A56490  27.256  44.582   7.339
 4247POPC   C1B56491  27.759   0.146   6.244
 4247POPC   C2B56492  27.628   0.110   6.646
 4247POPC   C3B56493  27.864  44.831   6.893
 4247POPC   C4B56494  27.802  44.688   7.310
 4248POPC   NC356495  27.564  32.893   5.225
 4248POPC   PO456496  27.951  32.522   5.332
 4248POPC   GL156497  27.806  32.765   5.728
 4248POPC   GL256498  27.459  32.872   5.848
 4248POPC   C1A56499  27.879  32.785   6.194
 4248POPC   D2A56500  27.793  32.622   6.629
 4248POPC   C3A56501  27.902  32.851   7.035
 4248POPC   C4A56502  28.074  32.892   7.484
 4248POPC   C1B56503  27.387  32.852   6.341
 4248POPC   C2B56504  27.460  32.995   6.785
 4248POPC   C3B56505  27.235  32.968   7.189
 4248POPC   C4B56506  27.209  32.916   7.662
 4249POPC   NC356507  36.086  31.860   5.505
 4249POPC   PO456508  36.313  31.204   5.401
 4249POPC   GL156509  36.059  31.406   5.712
 4249POPC   GL256510  35.967  31.162   5.878
 4249POPC   C1A56511  35.955  31.609   6.144
 4249POPC   D2A56512  36.113  31.581   6.579
 4249POPC   C3A56513  35.879  31.506   6.963
 4249POPC   C4A56514  36.004  31.668   7.357
 4249POPC   C1B56515  36.371  31.269   6.103
 4249POPC   C2B56516  36.561  31.383   6.507
 4249POPC   C3B56517  36.434  31.281   6.936
 4249POPC   C4B56518  36.186  31.202   7.302
 4250POPC   NC356519  39.604  30.538   5.518
 4250POPC   PO456520  40.320  30.618   5.497
 4250POPC   GL156521  40.229  30.659   5.878
 4250POPC   GL256522  39.895  30.778   5.865
 4250POPC   C1A56523  40.256  30.406   6.198
 4250POPC   D2A56524  40.314  30.645   6.560
 4250POPC   C3A56525  40.207  30.525   6.987
 4250POPC   C4A56526  40.109  30.794   7.336
 4250POPC   C1B56527  39.827  30.759   6.307
 4250POPC   C2B56528  39.581  30.630   6.668
 4250POPC   C3B56529  39.659  30.741   7.099
 4250POPC   C4B56530  39.631  30.914   7.512
 4251POPC   NC356531  37.370  18.047   5.295
 4251POPC   PO456532  37.972  17.822   5.486
 4251POPC   GL156533  37.855  18.084   5.860
 4251POPC   GL256534  37.567  18.304   5.890
 4251POPC   C1A56535  37.808  18.146   6.330
 4251POPC   D2A56536  37.736  18.368   6.741
 4251POPC   C3A56537  37.534  18.264   7.186
 4251POPC   C4A56538  37.697  18.153   7.636
 4251POPC   C1B56539  37.543  18.599   6.264
 4251POPC   C2B56540  37.447  18.788   6.698
 4251POPC   C3B56541  37.716  18.732   7.094
 4251POPC   C4B56542  37.718  18.680   7.579
 4252POPC   NC356543  20.845  42.477   5.405
 4252POPC   PO456544  20.433  41.989   5.450
 4252POPC   GL156545  20.469  42.251   5.848
 4252POPC   GL256546  20.277  42.553   5.802
 4252POPC   C1A56547  20.749  42.520   6.152
 4252POPC   D2A56548  21.040  42.639   6.539
 4252POPC   C3A56549  20.911  42.464   6.946
 4252POPC   C4A56550  20.766  42.112   7.213
 4252POPC   C1B56551  20.251  42.601   6.255
 4252POPC   C2B56552  20.502  42.577   6.618
 4252POPC   C3B56553  20.417  42.404   6.997
 4252POPC   C4B56554  20.536  42.693   7.274
 4253POPC   NC356555   0.920  23.908   5.368
 4253POPC   PO456556   1.262  23.454   5.642
 4253POPC   GL156557   1.384  23.803   5.838
 4253POPC   GL256558   1.055  23.872   5.903
 4253POPC   C1A56559   1.409  23.834   6.288
 4253POPC   D2A56560   1.287  23.627   6.654
 4253POPC   C3A56561   1.291  23.869   7.025
 4253POPC   C4A56562   1.479  23.607   7.315
 4253POPC   C1B56563   0.971  23.536   6.242
 4253POPC   C2B56564   0.819  23.402   6.672
 4253POPC   C3B56565   1.096  23.385   7.073
 4253POPC   C4B56566   0.985  23.651   7.479
 4254POPC   NC356567  43.794  31.720   5.340
 4254POPC   PO456568  43.468  31.149   5.273
 4254POPC   GL156569  43.745  31.186   5.716
 4254POPC   GL256570  43.900  31.497   5.809
 4254POPC   C1A56571  43.621  31.299   6.194
 4254POPC   D2A56572  43.694  31.539   6.582
 4254POPC   C3A56573  43.764  31.350   6.988
 4254POPC   C4A56574  44.168  31.449   7.202
 4254POPC   C1B56575  44.005  31.730   6.197
 4254POPC   C2B56576  43.891  32.030   6.536
 4254POPC   C3B56577  43.708  32.014   6.935
 4254POPC   C4B56578  43.770  31.795   7.306
 4255POPC   NC356579   3.480  17.630   5.567
 4255POPC   PO456580   3.704  16.929   5.529
 4255POPC   GL156581   3.596  17.230   5.908
 4255POPC   GL256582   3.750  17.569   5.977
 4255POPC   C1A56583   3.467  17.408   6.344
 4255POPC   D2A56584   3.616  17.516   6.732
 4255POPC   C3A56585   3.380  17.667   7.079
 4255POPC   C4A56586   3.048  17.480   7.289
 4255POPC   C1B56587   3.884  17.865   6.278
 4255POPC   C2B56588   3.901  18.100   6.664
 4255POPC   C3B56589   3.873  17.868   7.046
 4255POPC   C4B56590   3.840  17.439   7.173
 4256POPC   NC356591  29.570   5.755   5.420
 4256POPC   PO456592  29.977   6.189   5.144
 4256POPC   GL156593  29.948   5.972   5.665
 4256POPC   GL256594  30.185   5.822   5.888
 4256POPC   C1A56595  29.804   5.974   6.166
 4256POPC   D2A56596  29.929   5.814   6.616
 4256POPC   C3A56597  29.590   5.739   6.943
 4256POPC   C4A56598  29.537   5.752   7.416
 4256POPC   C1B56599  30.096   5.511   6.191
 4256POPC   C2B56600  30.319   5.362   6.546
 4256POPC   C3B56601  30.300   5.561   6.923
 4256POPC   C4B56602  30.028   5.830   7.193
 4257POPC   NC356603   4.109  11.386   5.531
 4257POPC   PO456604   4.783  11.610   5.609
 4257POPC   GL156605   4.428  11.490   5.902
 4257POPC   GL256606   4.044  11.635   5.984
 4257POPC   C1A56607   4.286  11.311   6.266
 4257POPC   D2A56608   4.169  11.558   6.618
 4257POPC   C3A56609   4.466  11.592   6.931
 4257POPC   C4A56610   4.497  11.400   7.308
 4257POPC   C1B56611   3.789  11.357   6.328
 4257POPC   C2B56612   3.974  11.019   6.577
 4257POPC   C3B56613   4.219  11.113   6.932
 4257POPC   C4B56614   4.014  11.462   7.165
 4258POPC   NC356615  16.363  11.440   5.502
 4258POPC   PO456616  16.993  11.336   5.359
 4258POPC   GL156617  16.759  11.344   5.796
 4258POPC   GL256618  16.461  11.123   5.925
 4258POPC   C1A56619  16.717  11.439   6.251
 4258POPC   D2A56620  16.956  11.253   6.602
 4258POPC   C3A56621  16.839  11.339   7.041
 4258POPC   C4A56622  16.564  11.619   7.256
 4258POPC   C1B56623  16.602  10.913   6.338
 4258POPC   C2B56624  16.615  10.937   6.807
 4258POPC   C3B56625  16.470  11.010   7.253
 4258POPC   C4B56626  16.540  10.804   7.686
 4259POPC   NC356627  43.115  22.537   5.402
 4259POPC   PO456628  42.805  21.930   5.241
 4259POPC   GL156629  42.955  22.072   5.656
 4259POPC   GL256630  43.199  22.322   5.848
 4259POPC   C1A56631  42.957  21.973   6.102
 4259POPC   D2A56632  43.211  22.101   6.459
 4259POPC   C3A56633  43.095  21.932   6.848
 4259POPC   C4A56634  43.309  21.819   7.206
 4259POPC   C1B56635  42.985  22.526   6.215
 4259POPC   C2B56636  42.878  22.442   6.657
 4259POPC   C3B56637  43.156  22.408   7.028
 4259POPC   C4B56638  43.115  22.630   7.398
 4260POPC   NC356639  10.052  37.015   5.455
 4260POPC   PO456640   9.422  36.772   5.424
 4260POPC   GL156641   9.490  36.926   5.816
 4260POPC   GL256642   9.687  36.701   5.992
 4260POPC   C1A56643   9.464  37.132   6.187
 4260POPC   D2A56644   9.519  36.876   6.531
 4260POPC   C3A56645   9.567  37.109   6.915
 4260POPC   C4A56646   9.473  37.039   7.339
 4260POPC   C1B56647   9.948  36.568   6.343
 4260POPC   C2B56648   9.974  36.803   6.741
 4260POPC   C3B56649   9.794  36.673   7.122
 4260POPC   C4B56650  10.079  36.538   7.429
 4261POPC   NC356651  20.780  22.772   5.405
 4261POPC   PO456652  20.153  23.133   5.491
 4261POPC   GL156653  20.523  23.111   5.729
 4261POPC   GL256654  20.488  22.784   5.850
 4261POPC   C1A56655  20.566  23.155   6.185
 4261POPC   D2A56656  20.330  23.090   6.543
 4261POPC   C3A56657  20.575  23.100   6.933
 4261POPC   C4A56658  20.568  23.119   7.376
 4261POPC   C1B56659  20.391  22.641   6.277
 4261POPC   C2B56660  20.437  22.634   6.744
 4261POPC   C3B56661  20.420  22.641   7.202
 4261POPC   C4B56662  20.386  22.501   7.638
 4262POPC   NC356663  21.966  40.483   5.120
 4262POPC   PO456664  22.364  40.919   5.112
 4262POPC   GL156665  22.268  40.760   5.552
 4262POPC   GL256666  22.492  40.887   5.783
 4262POPC   C1A56667  22.056  40.751   6.018
 4262POPC   D2A56668  22.179  40.638   6.454
 4262POPC   C3A56669  21.905  40.767   6.808
 4262POPC   C4A56670  21.990  40.843   7.261
 4262POPC   C1B56671  22.387  41.103   6.161
 4262POPC   C2B56672  22.098  41.143   6.476
 4262POPC   C3B56673  22.187  41.173   6.920
 4262POPC   C4B56674  22.461  40.822   7.047
 4263POPC   NC356675   0.760  11.578   5.546
 4263POPC   PO456676   1.351  11.221   5.316
 4263POPC   GL156677   1.157  11.294   5.707
 4263POPC   GL256678   1.187  11.645   5.784
 4263POPC   C1A56679   0.960  11.222   6.128
 4263POPC   D2A56680   1.007  11.026   6.539
 4263POPC   C3A56681   1.229  11.255   6.847
 4263POPC   C4A56682   1.248  11.441   7.240
 4263POPC   C1B56683   0.955  11.732   6.194
 4263POPC   C2B56684   0.840  11.502   6.562
 4263POPC   C3B56685   0.792  11.508   6.990
 4263POPC   C4B56686   0.934  11.857   7.230
 4264POPC   NC356687  16.681  44.792   5.377
 4264POPC   PO456688  16.910  44.172   5.370
 4264POPC   GL156689  16.952  44.478   5.738
 4264POPC   GL256690  17.068  44.851   5.745
 4264POPC   C1A56691  16.772  44.684   6.143
 4264POPC   D2A56692  16.741  44.918   6.545
 4264POPC   C3A56693  16.440  44.837   6.886
 4264POPC   C4A56694  16.561  44.777   7.334
 4264POPC   C1B56695  17.142   0.072   6.179
 4264POPC   C2B56696  17.213   0.105   6.654
 4264POPC   C3B56697  16.945  44.978   7.024
 4264POPC   C4B56698  16.950   0.075   7.478
 4265POPC   NC356699   8.838  32.756   5.104
 4265POPC   PO456700   8.738  32.151   5.416
 4265POPC   GL156701   8.844  32.180   5.855
 4265POPC   GL256702   8.900  32.536   5.917
 4265POPC   C1A56703   8.882  32.198   6.290
 4265POPC   D2A56704   8.782  32.486   6.582
 4265POPC   C3A56705   8.901  32.268   6.922
 4265POPC   C4A56706   8.833  32.323   7.304
 4265POPC   C1B56707   9.178  32.627   6.292
 4265POPC   C2B56708   9.277  32.591   6.737
 4265POPC   C3B56709   9.247  32.575   7.169
 4265POPC   C4B56710   9.318  32.306   7.533
 4266POPC   NC356711  17.928  14.090   5.631
 4266POPC   PO456712  18.071  14.664   5.293
 4266POPC   GL156713  18.276  14.536   5.699
 4266POPC   GL256714  18.438  14.768   5.926
 4266POPC   C1A56715  18.398  14.252   6.044
 4266POPC   D2A56716  18.209  14.059   6.417
 4266POPC   C3A56717  18.430  14.088   6.820
 4266POPC   C4A56718  18.226  14.143   7.205
 4266POPC   C1B56719  18.032  14.581   6.155
 4266POPC   C2B56720  17.901  14.675   6.599
 4266POPC   C3B56721  18.160  14.631   7.000
 4266POPC   C4B56722  18.484  14.821   7.253
 4267POPC   NC356723  10.139  32.152   5.643
 4267POPC   PO456724  10.307  32.766   5.592
 4267POPC   GL156725  10.321  32.531   5.960
 4267POPC   GL256726  10.629  32.334   5.867
 4267POPC   C1A56727  10.281  32.495   6.417
 4267POPC   D2A56728  10.185  32.280   6.809
 4267POPC   C3A56729  10.469  32.297   7.148
 4267POPC   C4A56730  10.582  32.566   7.495
 4267POPC   C1B56731  10.796  32.450   6.285
 4267POPC   C2B56732  10.791  32.424   6.757
 4267POPC   C3B56733  10.983  32.286   7.173
 4267POPC   C4B56734  11.158  32.343   7.590
 4268POPC   NC356735  39.183  36.645   5.379
 4268POPC   PO456736  39.198  37.282   5.537
 4268POPC   GL156737  39.143  36.920   5.835
 4268POPC   GL256738  39.441  36.669   5.806
 4268POPC   C1A56739  39.203  37.007   6.295
 4268POPC   D2A56740  39.052  36.831   6.687
 4268POPC   C3A56741  39.265  37.038   7.042
 4268POPC   C4A56742  39.367  37.022   7.485
 4268POPC   C1B56743  39.628  36.748   6.207
 4268POPC   C2B56744  39.551  36.801   6.629
 4268POPC   C3B56745  39.529  36.599   6.992
 4268POPC   C4B56746  39.508  36.243   7.264
 4269POPC   NC356747  32.785   8.630   5.582
 4269POPC   PO456748  33.299   9.039   5.436
 4269POPC   GL156749  33.001   9.055   5.793
 4269POPC   GL256750  33.086   8.801   5.951
 4269POPC   C1A56751  32.729   9.209   6.146
 4269POPC   D2A56752  32.617   9.100   6.586
 4269POPC   C3A56753  32.807   9.257   6.957
 4269POPC   C4A56754  33.089   9.176   7.295
 4269POPC   C1B56755  33.020   8.858   6.372
 4269POPC   C2B56756  33.085   8.888   6.791
 4269POPC   C3B56757  33.125   8.698   7.186
 4269POPC   C4B56758  33.141   8.761   7.619
 4270POPC   NC356759  13.023  44.172   5.539
 4270POPC   PO456760  12.547  43.648   5.439
 4270POPC   GL156761  12.671  43.871   5.788
 4270POPC   GL256762  13.031  43.731   5.797
 4270POPC   C1A56763  12.771  44.106   6.172
 4270POPC   D2A56764  12.940  43.964   6.549
 4270POPC   C3A56765  12.797  44.016   6.918
 4270POPC   C4A56766  12.979  44.068   7.282
 4270POPC   C1B56767  12.870  43.589   6.195
 4270POPC   C2B56768  13.098  43.497   6.552
 4270POPC   C3B56769  13.207  43.685   6.932
 4270POPC   C4B56770  13.165  43.621   7.356
 4271POPC   NC356771  10.838   5.153   5.338
 4271POPC   PO456772  10.237   4.834   5.424
 4271POPC   GL156773  10.509   4.992   5.705
 4271POPC   GL256774  10.416   5.316   5.728
 4271POPC   C1A56775  10.636   4.902   6.116
 4271POPC   D2A56776  10.528   5.081   6.508
 4271POPC   C3A56777  10.409   4.942   6.917
 4271POPC   C4A56778  10.155   5.099   7.307
 4271POPC   C1B56779  10.353   5.426   6.148
 4271POPC   C2B56780  10.402   5.593   6.586
 4271POPC   C3B56781  10.414   5.461   7.057
 4271POPC   C4B56782  10.389   5.476   7.563
 4272POPC   NC356783   6.292  19.232   5.551
 4272POPC   PO456784   5.776  18.866   5.396
 4272POPC   GL156785   5.691  19.047   5.772
 4272POPC   GL256786   5.943  19.253   5.954
 4272POPC   C1A56787   5.637  18.871   6.165
 4272POPC   D2A56788   5.527  19.059   6.563
 4272POPC   C3A56789   5.586  18.917   6.977
 4272POPC   C4A56790   5.516  19.088   7.366
 4272POPC   C1B56791   6.027  19.142   6.371
 4272POPC   C2B56792   6.060  19.008   6.779
 4272POPC   C3B56793   5.970  19.242   7.147
 4272POPC   C4B56794   6.197  19.179   7.520
 4273POPC   NC356795   0.998  29.342   5.264
 4273POPC   PO456796   1.246  28.842   5.622
 4273POPC   GL156797   1.170  29.260   5.758
 4273POPC   GL256798   0.918  29.100   5.930
 4273POPC   C1A56799   1.247  29.382   6.187
 4273POPC   D2A56800   1.202  29.105   6.542
 4273POPC   C3A56801   1.380  29.207   6.933
 4273POPC   C4A56802   1.242  29.194   7.356
 4273POPC   C1B56803   0.805  28.847   6.267
 4273POPC   C2B56804   0.998  28.641   6.621
 4273POPC   C3B56805   1.064  28.812   7.021
 4273POPC   C4B56806   0.718  28.913   7.280
 4274POPC   NC356807  25.535  43.012   5.578
 4274POPC   PO456808  25.060  43.471   5.550
 4274POPC   GL156809  25.066  43.077   5.754
 4274POPC   GL256810  25.314  43.269   5.978
 4274POPC   C1A56811  25.210  42.795   6.115
 4274POPC   D2A56812  25.279  43.035   6.484
 4274POPC   C3A56813  25.429  42.952   6.899
 4274POPC   C4A56814  25.485  43.254   7.180
 4274POPC   C1B56815  24.885  43.240   6.192
 4274POPC   C2B56816  24.773  43.136   6.594
 4274POPC   C3B56817  25.031  43.279   6.881
 4274POPC   C4B56818  24.981  43.177   7.272
 4275POPC   NC356819   0.868  18.004   5.440
 4275POPC   PO456820   0.376  18.392   5.470
 4275POPC   GL156821   0.618  18.325   5.811
 4275POPC   GL256822   0.771  18.655   5.765
 4275POPC   C1A56823   0.514  18.203   6.243
 4275POPC   D2A56824   0.344  18.434   6.595
 4275POPC   C3A56825   0.530  18.265   6.962
 4275POPC   C4A56826   0.365  18.108   7.347
 4275POPC   C1B56827   0.630  18.699   6.210
 4275POPC   C2B56828   0.806  18.650   6.642
 4275POPC   C3B56829   0.719  18.747   7.061
 4275POPC   C4B56830   0.343  18.637   7.277
 4276POPC   NC356831  13.155  41.570   5.432
 4276POPC   PO456832  13.795  41.526   5.330
 4276POPC   GL156833  13.598  41.511   5.720
 4276POPC   GL256834  13.374  41.692   5.892
 4276POPC   C1A56835  13.729  41.349   6.084
 4276POPC   D2A56836  13.744  41.261   6.495
 4276POPC   C3A56837  13.668  41.542   6.823
 4276POPC   C4A56838  13.436  41.428   7.174
 4276POPC   C1B56839  13.275  41.489   6.297
 4276POPC   C2B56840  13.155  41.599   6.718
 4276POPC   C3B56841  13.258  41.892   7.012
 4276POPC   C4B56842  13.663  41.954   7.214
 4277POPC   NC356843  30.748  10.030   5.429
 4277POPC   PO456844  30.472   9.331   5.499
 4277POPC   GL156845  30.701   9.499   5.855
 4277POPC   GL256846  30.607   9.824   5.857
 4277POPC   C1A56847  30.827   9.607   6.299
 4277POPC   D2A56848  30.555   9.570   6.684
 4277POPC   C3A56849  30.720   9.584   7.089
 4277POPC   C4A56850  30.642   9.563   7.538
 4277POPC   C1B56851  30.869  10.076   6.104
 4277POPC   C2B56852  30.725  10.048   6.511
 4277POPC   C3B56853  30.743  10.064   6.922
 4277POPC   C4B56854  30.488  10.007   7.250
 4278POPC   NC356855   6.166  13.929   5.443
 4278POPC   PO456856   5.992  13.266   5.296
 4278POPC   GL156857   5.980  13.462   5.772
 4278POPC   GL256858   6.109  13.784   5.909
 4278POPC   C1A56859   5.698  13.582   6.140
 4278POPC   D2A56860   5.721  13.688   6.588
 4278POPC   C3A56861   5.898  13.441   6.891
 4278POPC   C4A56862   5.692  13.491   7.286
 4278POPC   C1B56863   6.361  13.903   6.257
 4278POPC   C2B56864   6.226  13.827   6.685
 4278POPC   C3B56865   5.926  13.962   7.020
 4278POPC   C4B56866   5.967  14.001   7.499
 4279POPC   NC356867   2.360   6.198   5.286
 4279POPC   PO456868   2.978   6.620   5.360
 4279POPC   GL156869   2.828   6.677   5.775
 4279POPC   GL256870   2.961   6.406   5.899
 4279POPC   C1A56871   2.469   6.731   6.070
 4279POPC   D2A56872   2.403   6.908   6.497
 4279POPC   C3A56873   2.641   6.662   6.809
 4279POPC   C4A56874   2.577   6.688   7.251
 4279POPC   C1B56875   2.854   6.471   6.323
 4279POPC   C2B56876   3.045   6.350   6.703
 4279POPC   C3B56877   2.993   6.433   7.135
 4279POPC   C4B56878   3.039   6.893   7.240
 4280POPC   NC356879  34.624  43.912   5.331
 4280POPC   PO456880  34.947  43.430   5.647
 4280POPC   GL156881  34.595  43.688   5.815
 4280POPC   GL256882  34.537  44.086   5.807
 4280POPC   C1A56883  34.486  43.743   6.246
 4280POPC   D2A56884  34.728  43.682   6.622
 4280POPC   C3A56885  34.470  43.682   6.977
 4280POPC   C4A56886  34.381  43.951   7.317
 4280POPC   C1B56887  34.454  44.266   6.219
 4280POPC   C2B56888  34.484  44.148   6.643
 4280POPC   C3B56889  34.778  44.082   6.972
 4280POPC   C4B56890  34.789  44.250   7.367
 4281POPC   NC356891   9.892  24.129   5.548
 4281POPC   PO456892   9.628  23.462   5.510
 4281POPC   GL156893   9.842  23.651   5.804
 4281POPC   GL256894   9.663  23.913   5.953
 4281POPC   C1A56895   9.964  23.577   6.205
 4281POPC   D2A56896   9.815  23.675   6.632
 4281POPC   C3A56897  10.032  23.591   7.024
 4281POPC   C4A56898   9.863  23.640   7.451
 4281POPC   C1B56899   9.438  23.590   6.201
 4281POPC   C2B56900   9.330  23.473   6.652
 4281POPC   C3B56901   9.461  23.583   7.091
 4281POPC   C4B56902   9.418  23.855   7.501
 4282POPC   NC356903  28.339  12.756   5.552
 4282POPC   PO456904  28.719  13.266   5.187
 4282POPC   GL156905  28.855  12.976   5.682
 4282POPC   GL256906  28.767  12.641   5.851
 4282POPC   C1A56907  28.650  12.999   6.193
 4282POPC   D2A56908  28.342  13.211   6.467
 4282POPC   C3A56909  28.384  13.145   6.913
 4282POPC   C4A56910  28.331  12.947   7.319
 4282POPC   C1B56911  28.570  12.512   6.258
 4282POPC   C2B56912  28.362  12.664   6.636
 4282POPC   C3B56913  28.211  12.532   7.048
 4282POPC   C4B56914  27.892  12.716   7.301
 4283POPC   NC356915  27.399  28.619   5.300
 4283POPC   PO456916  27.722  28.077   5.368
 4283POPC   GL156917  27.498  28.080   5.770
 4283POPC   GL256918  27.479  28.458   5.806
 4283POPC   C1A56919  27.484  28.099   6.237
 4283POPC   D2A56920  27.723  28.253   6.610
 4283POPC   C3A56921  27.520  28.403   6.973
 4283POPC   C4A56922  27.448  28.562   7.371
 4283POPC   C1B56923  27.708  28.558   6.182
 4283POPC   C2B56924  27.591  28.741   6.609
 4283POPC   C3B56925  27.679  28.911   7.061
 4283POPC   C4B56926  27.950  28.673   7.400
 4284POPC   NC356927  39.748  29.284   5.434
 4284POPC   PO456928  40.065  28.663   5.262
 4284POPC   GL156929  40.184  29.047   5.614
 4284POPC   GL256930  39.870  29.112   5.886
 4284POPC   C1A56931  40.344  29.097   6.082
 4284POPC   D2A56932  40.180  28.928   6.516
 4284POPC   C3A56933  40.206  29.072   6.952
 4284POPC   C4A56934  39.816  28.959   7.175
 4284POPC   C1B56935  39.625  29.434   6.077
 4284POPC   C2B56936  39.503  29.496   6.494
 4284POPC   C3B56937  39.784  29.314   6.776
 4284POPC   C4B56938  39.975  29.483   7.140
 4285POPC   NC356939  28.262  19.860   5.365
 4285POPC   PO456940  27.749  19.942   5.549
 4285POPC   GL156941  28.132  19.981   5.870
 4285POPC   GL256942  28.427  19.771   5.929
 4285POPC   C1A56943  28.327  20.057   6.327
 4285POPC   D2A56944  28.342  19.843   6.741
 4285POPC   C3A56945  28.511  20.024   7.113
 4285POPC   C4A56946  28.387  20.230   7.497
 4285POPC   C1B56947  28.646  19.636   6.369
 4285POPC   C2B56948  28.807  19.656   6.830
 4285POPC   C3B56949  28.603  19.463   7.206
 4285POPC   C4B56950  28.695  19.377   7.660
 4286POPC   NC356951   6.451  40.796   5.712
 4286POPC   PO456952   6.144  40.920   5.130
 4286POPC   GL156953   5.964  40.888   5.596
 4286POPC   GL256954   5.791  40.603   5.772
 4286POPC   C1A56955   5.927  41.049   6.028
 4286POPC   D2A56956   6.033  40.844   6.427
 4286POPC   C3A56957   5.998  40.965   6.873
 4286POPC   C4A56958   6.132  40.731   7.254
 4286POPC   C1B56959   5.543  40.717   6.155
 4286POPC   C2B56960   5.569  40.621   6.590
 4286POPC   C3B56961   5.677  40.524   6.996
 4286POPC   C4B56962   5.503  40.788   7.262
 4287POPC   NC356963   3.063  20.377   5.474
 4287POPC   PO456964   3.673  20.448   5.431
 4287POPC   GL156965   3.475  20.636   5.814
 4287POPC   GL256966   3.182  20.459   5.971
 4287POPC   C1A56967   3.391  20.867   6.214
 4287POPC   D2A56968   3.519  20.742   6.626
 4287POPC   C3A56969   3.330  20.692   7.038
 4287POPC   C4A56970   3.599  20.629   7.382
 4287POPC   C1B56971   3.490  20.322   6.314
 4287POPC   C2B56972   3.480  20.268   6.800
 4287POPC   C3B56973   3.336  20.211   7.234
 4287POPC   C4B56974   3.042  20.410   7.477
 4288POPC   NC356975  36.405  39.536   5.406
 4288POPC   PO456976  35.892  39.085   5.244
 4288POPC   GL156977  36.038  39.246   5.632
 4288POPC   GL256978  35.795  39.437   5.788
 4288POPC   C1A56979  36.190  39.251   6.074
 4288POPC   D2A56980  36.190  39.386   6.510
 4288POPC   C3A56981  36.086  39.186   6.867
 4288POPC   C4A56982  36.383  39.057   7.162
 4288POPC   C1B56983  35.858  39.637   6.206
 4288POPC   C2B56984  36.014  39.861   6.585
 4288POPC   C3B56985  36.033  39.695   7.014
 4288POPC   C4B56986  36.071  39.412   7.330
 4289POPC   NC356987  30.713  40.501   5.507
 4289POPC   PO456988  30.624  39.853   5.300
 4289POPC   GL156989  30.898  39.967   5.683
 4289POPC   GL256990  30.653  40.137   5.869
 4289POPC   C1A56991  31.029  39.872   6.165
 4289POPC   D2A56992  31.026  39.762   6.657
 4289POPC   C3A56993  30.765  39.941   7.019
 4289POPC   C4A56994  30.837  40.144   7.426
 4289POPC   C1B56995  30.705  40.269   6.294
 4289POPC   C2B56996  30.466  40.180   6.670
 4289POPC   C3B56997  30.493  40.367   7.075
 4289POPC   C4B56998  30.878  40.589   7.110
 4290POPC   NC356999   6.195   5.022   5.493
 4290POPC   PO457000   5.531   5.055   5.516
 4290POPC   GL157001   5.743   5.080   5.888
 4290POPC   GL257002   5.902   4.771   5.836
 4290POPC   C1A57003   5.799   5.326   6.282
 4290POPC   D2A57004   6.069   5.435   6.653
 4290POPC   C3A57005   5.967   5.245   7.041
 4290POPC   C4A57006   5.652   5.283   7.390
 4290POPC   C1B57007   6.210   4.680   6.138
 4290POPC   C2B57008   6.105   4.504   6.548
 4290POPC   C3B57009   6.116   4.711   6.938
 4290POPC   C4B57010   5.851   4.826   7.275
 4291POPC   NC357011   2.636   0.292   5.468
 4291POPC   PO457012   3.356   0.371   5.451
 4291POPC   GL157013   3.030   0.456   5.775
 4291POPC   GL257014   2.740   0.710   5.753
 4291POPC   C1A57015   2.787   0.403   6.159
 4291POPC   D2A57016   2.676   0.617   6.542
 4291POPC   C3A57017   2.824   0.381   6.905
 4291POPC   C4A57018   2.682   0.103   7.205
 4291POPC   C1B57019   2.383   0.742   6.080
 4291POPC   C2B57020   2.252   0.937   6.460
 4291POPC   C3B57021   2.249   0.925   6.900
 4291POPC   C4B57022   2.481   0.633   7.157
 4292POPC   NC357023  37.709  41.811   5.357
 4292POPC   PO457024  37.431  41.264   5.161
 4292POPC   GL157025  37.771  41.403   5.612
 4292POPC   GL257026  38.080  41.685   5.700
 4292POPC   C1A57027  37.652  41.699   6.011
 4292POPC   D2A57028  37.654  41.882   6.453
 4292POPC   C3A57029  37.733  41.587   6.786
 4292POPC   C4A57030  37.668  41.423   7.200
 4292POPC   C1B57031  38.098  41.868   6.163
 4292POPC   C2B57032  38.151  41.904   6.667
 4292POPC   C3B57033  37.945  41.906   7.130
 4292POPC   C4B57034  37.895  41.685   7.567
 4293POPC   NC357035   0.595  36.748   5.381
 4293POPC   PO457036  44.887  37.094   5.348
 4293POPC   GL157037   0.204  36.892   5.706
 4293POPC   GL257038   0.589  36.930   5.838
 4293POPC   C1A57039   0.220  36.901   6.192
 4293POPC   D2A57040   0.071  36.643   6.579
 4293POPC   C3A57041   0.122  36.812   7.039
 4293POPC   C4A57042   0.037  36.838   7.528
 4293POPC   C1B57043   0.744  36.773   6.244
 4293POPC   C2B57044   0.530  36.907   6.618
 4293POPC   C3B57045   0.613  37.020   7.029
 4293POPC   C4B57046   0.339  37.214   7.287
 4294POPC   NC357047  15.513  40.695   5.466
 4294POPC   PO457048  16.191  41.080   5.440
 4294POPC   GL157049  16.214  40.844   5.817
 4294POPC   GL257050  16.199  40.468   5.756
 4294POPC   C1A57051  16.135  41.008   6.243
 4294POPC   D2A57052  15.978  41.127   6.668
 4294POPC   C3A57053  16.048  40.918   7.070
 4294POPC   C4A57054  15.776  40.647   7.328
 4294POPC   C1B57055  15.885  40.554   6.086
 4294POPC   C2B57056  15.946  40.408   6.495
 4294POPC   C3B57057  16.010  40.399   6.927
 4294POPC   C4B57058  16.151  40.281   7.300
 4295POPC   NC357059  24.054  43.893   5.390
 4295POPC   PO457060  24.686  43.780   5.172
 4295POPC   GL157061  24.665  43.831   5.659
 4295POPC   GL257062  24.321  43.847   5.826
 4295POPC   C1A57063  24.751  43.834   6.127
 4295POPC   D2A57064  24.728  43.636   6.549
 4295POPC   C3A57065  24.723  43.875   6.932
 4295POPC   C4A57066  24.484  44.146   7.195
 4295POPC   C1B57067  24.267  43.699   6.267
 4295POPC   C2B57068  24.256  43.803   6.709
 4295POPC   C3B57069  24.211  43.723   7.145
 4295POPC   C4B57070  24.241  43.631   7.575
 4296POPC   NC357071  15.079   7.555   5.557
 4296POPC   PO457072  15.123   6.851   5.357
 4296POPC   GL157073  15.369   7.124   5.715
 4296POPC   GL257074  15.443   7.507   5.889
 4296POPC   C1A57075  15.369   7.107   6.175
 4296POPC   D2A57076  15.405   7.438   6.475
 4296POPC   C3A57077  15.220   7.307   6.857
 4296POPC   C4A57078  15.108   7.362   7.272
 4296POPC   C1B57079  15.156   7.770   6.171
 4296POPC   C2B57080  15.140   7.912   6.625
 4296POPC   C3B57081  15.162   7.811   7.061
 4296POPC   C4B57082  14.840   7.817   7.415
 4297POPC   NC357083  24.193  39.649   5.451
 4297POPC   PO457084  24.590  40.206   5.225
 4297POPC   GL157085  24.580  40.044   5.727
 4297POPC   GL257086  24.243  39.960   5.866
 4297POPC   C1A57087  24.566  40.160   6.208
 4297POPC   D2A57088  24.335  39.976   6.574
 4297POPC   C3A57089  24.525  40.062   6.968
 4297POPC   C4A57090  24.543  40.157   7.394
 4297POPC   C1B57091  24.415  39.655   6.155
 4297POPC   C2B57092  24.319  39.464   6.560
 4297POPC   C3B57093  24.210  39.631   6.955
 4297POPC   C4B57094  24.482  39.618   7.274
 4298POPC   NC357095   5.410  19.383   5.421
 4298POPC   PO457096   5.190  18.767   5.278
 4298POPC   GL157097   5.160  18.987   5.725
 4298POPC   GL257098   4.856  19.229   5.805
 4298POPC   C1A57099   5.154  19.037   6.209
 4298POPC   D2A57100   5.043  19.230   6.636
 4298POPC   C3A57101   5.057  18.974   7.046
 4298POPC   C4A57102   5.018  19.160   7.478
 4298POPC   C1B57103   4.683  18.911   6.106
 4298POPC   C2B57104   4.790  18.793   6.550
 4298POPC   C3B57105   4.556  18.838   6.919
 4298POPC   C4B57106   4.300  19.125   7.131
 4299POPC   NC357107  42.244  35.787   5.059
 4299POPC   PO457108  42.738  35.875   5.487
 4299POPC   GL157109  42.559  35.473   5.658
 4299POPC   GL257110  42.581  35.072   5.710
 4299POPC   C1A57111  42.650  35.417   6.087
 4299POPC   D2A57112  42.398  35.513   6.415
 4299POPC   C3A57113  42.575  35.470   6.834
 4299POPC   C4A57114  42.434  35.543   7.228
 4299POPC   C1B57115  42.420  34.981   6.173
 4299POPC   C2B57116  42.300  35.079   6.613
 4299POPC   C3B57117  42.225  35.107   7.025
 4299POPC   C4B57118  42.014  34.814   7.251
 4300POPC   NC357119   7.106   9.121   5.117
 4300POPC   PO457120   6.578   9.078   5.521
 4300POPC   GL157121   6.717   9.069   5.951
 4300POPC   GL257122   6.903   8.791   5.862
 4300POPC   C1A57123   6.625   9.008   6.403
 4300POPC   D2A57124   6.360   8.822   6.733
 4300POPC   C3A57125   6.463   8.973   7.121
 4300POPC   C4A57126   6.819   9.222   7.126
 4300POPC   C1B57127   6.877   8.577   6.237
 4300POPC   C2B57128   6.791   8.542   6.675
 4300POPC   C3B57129   6.916   8.727   7.062
 4300POPC   C4B57130   6.883   8.858   7.465
 4301POPC   NC357131   1.100   9.907   5.563
 4301POPC   PO457132   1.737   9.748   5.457
 4301POPC   GL157133   1.466   9.570   5.817
 4301POPC   GL257134   1.101   9.475   5.866
 4301POPC   C1A57135   1.345   9.701   6.247
 4301POPC   D2A57136   1.606   9.893   6.595
 4301POPC   C3A57137   1.459   9.821   7.019
 4301POPC   C4A57138   1.177  10.041   7.326
 4301POPC   C1B57139   0.792   9.573   6.210
 4301POPC   C2B57140   0.783   9.477   6.669
 4301POPC   C3B57141   0.940   9.649   7.080
 4301POPC   C4B57142   0.920   9.506   7.526
 4302POPC   NC357143  23.785  11.876   5.334
 4302POPC   PO457144  23.546  12.383   5.450
 4302POPC   GL157145  23.767  12.250   5.808
 4302POPC   GL257146  24.016  11.982   5.810
 4302POPC   C1A57147  23.517  12.279   6.223
 4302POPC   D2A57148  23.294  12.419   6.637
 4302POPC   C3A57149  23.461  12.174   6.982
 4302POPC   C4A57150  23.536  11.822   7.279
 4302POPC   C1B57151  23.999  12.114   6.256
 4302POPC   C2B57152  23.914  12.042   6.700
 4302POPC   C3B57153  24.069  11.743   7.021
 4302POPC   C4B57154  23.998  11.710   7.466
 4303POPC   NC357155   1.504  41.545   5.156
 4303POPC   PO457156   2.138  41.570   5.360
 4303POPC   GL157157   1.998  41.592   5.747
 4303POPC   GL257158   1.690  41.784   5.641
 4303POPC   C1A57159   1.999  41.328   6.144
 4303POPC   D2A57160   1.726  41.303   6.498
 4303POPC   C3A57161   1.977  41.437   6.836
 4303POPC   C4A57162   2.008  41.316   7.250
 4303POPC   C1B57163   1.668  41.716   6.104
 4303POPC   C2B57164   1.862  41.819   6.479
 4303POPC   C3B57165   1.848  41.949   6.896
 4303POPC   C4B57166   2.148  41.853   7.217
 4304POPC   NC357167  16.592  31.567   5.218
 4304POPC   PO457168  16.620  31.127   5.702
 4304POPC   GL157169  16.798  31.504   5.913
 4304POPC   GL257170  17.107  31.345   5.931
 4304POPC   C1A57171  16.661  31.751   6.295
 4304POPC   D2A57172  16.488  31.807   6.740
 4304POPC   C3A57173  16.469  31.472   7.077
 4304POPC   C4A57174  16.504  31.661   7.516
 4304POPC   C1B57175  17.068  31.445   6.387
 4304POPC   C2B57176  16.937  31.368   6.827
 4304POPC   C3B57177  16.908  31.236   7.258
 4304POPC   C4B57178  16.888  30.925   7.612
 4305POPC   NC357179   5.309  41.708   5.374
 4305POPC   PO457180   4.688  41.364   5.402
 4305POPC   GL157181   4.920  41.639   5.733
 4305POPC   GL257182   5.303  41.625   5.878
 4305POPC   C1A57183   4.865  41.733   6.178
 4305POPC   D2A57184   5.036  41.816   6.586
 4305POPC   C3A57185   4.985  41.493   6.860
 4305POPC   C4A57186   5.127  41.597   7.247
 4305POPC   C1B57187   5.440  41.259   6.153
 4305POPC   C2B57188   5.372  41.406   6.530
 4305POPC   C3B57189   5.530  41.518   6.903
 4305POPC   C4B57190   5.521  41.296   7.272
 4306POPC   NC357191  31.285  41.325   5.488
 4306POPC   PO457192  31.739  41.785   5.424
 4306POPC   GL157193  31.670  41.648   5.839
 4306POPC   GL257194  31.988  41.772   6.000
 4306POPC   C1A57195  31.346  41.535   6.168
 4306POPC   D2A57196  31.383  41.697   6.596
 4306POPC   C3A57197  31.371  41.423   6.901
 4306POPC   C4A57198  31.134  41.472   7.241
 4306POPC   C1B57199  31.824  41.582   6.366
 4306POPC   C2B57200  31.898  41.264   6.697
 4306POPC   C3B57201  31.804  41.320   7.137
 4306POPC   C4B57202  31.581  41.695   7.286
 4307POPC   NC357203  23.555  37.918   5.330
 4307POPC   PO457204  23.856  37.352   5.428
 4307POPC   GL157205  23.765  37.700   5.764
 4307POPC   GL257206  23.390  37.761   5.877
 4307POPC   C1A57207  23.855  37.899   6.192
 4307POPC   D2A57208  23.957  37.723   6.631
 4307POPC   C3A57209  23.698  37.571   6.991
 4307POPC   C4A57210  23.769  37.606   7.457
 4307POPC   C1B57211  23.429  37.702   6.374
 4307POPC   C2B57212  23.539  38.004   6.743
 4307POPC   C3B57213  23.578  38.015   7.207
 4307POPC   C4B57214  23.319  37.814   7.566
 4308POPC   NC357215  13.735  19.967   5.425
 4308POPC   PO457216  13.449  19.462   5.630
 4308POPC   GL157217  13.742  19.712   5.922
 4308POPC   GL257218  13.968  19.441   6.074
 4308POPC   C1A57219  13.808  19.838   6.393
 4308POPC   D2A57220  13.526  20.035   6.731
 4308POPC   C3A57221  13.610  19.901   7.151
 4308POPC   C4A57222  13.498  19.720   7.560
 4308POPC   C1B57223  13.526  19.427   6.290
 4308POPC   C2B57224  13.342  19.554   6.681
 4308POPC   C3B57225  13.403  19.430   7.117
 4308POPC   C4B57226  13.833  19.447   7.276
 4309POPC   NC357227  43.929  38.658   5.163
 4309POPC   PO457228  43.652  39.200   5.534
 4309POPC   GL157229  43.801  39.122   5.923
 4309POPC   GL257230  44.125  38.988   5.780
 4309POPC   C1A57231  43.955  39.345   6.293
 4309POPC   D2A57232  43.913  39.633   6.636
 4309POPC   C3A57233  43.961  39.417   7.045
 4309POPC   C4A57234  43.591  39.244   7.308
 4309POPC   C1B57235  44.106  38.838   6.206
 4309POPC   C2B57236  44.198  38.868   6.654
 4309POPC   C3B57237  44.195  38.751   7.081
 4309POPC   C4B57238  44.063  39.035   7.378
 4310POPC   NC357239   4.162  15.780   5.052
 4310POPC   PO457240   4.306  16.250   5.489
 4310POPC   GL157241   4.214  16.122   5.865
 4310POPC   GL257242   4.172  15.791   5.777
 4310POPC   C1A57243   4.340  16.127   6.281
 4310POPC   D2A57244   4.216  16.225   6.696
 4310POPC   C3A57245   4.463  16.000   6.989
 4310POPC   C4A57246   4.678  16.215   7.281
 4310POPC   C1B57247   4.202  15.613   6.175
 4310POPC   C2B57248   4.223  15.715   6.614
 4310POPC   C3B57249   3.952  15.825   6.985
 4310POPC   C4B57250   3.955  15.731   7.435
 4311POPC   NC357251  31.835  42.244   5.517
 4311POPC   PO457252  31.190  42.291   5.521
 4311POPC   GL157253  31.436  42.453   5.838
 4311POPC   GL257254  31.608  42.150   5.976
 4311POPC   C1A57255  31.381  42.529   6.284
 4311POPC   D2A57256  31.579  42.237   6.589
 4311POPC   C3A57257  31.647  42.419   6.979
 4311POPC   C4A57258  31.942  42.723   7.164
 4311POPC   C1B57259  31.244  42.041   6.226
 4311POPC   C2B57260  31.098  42.108   6.655
 4311POPC   C3B57261  31.197  41.985   7.099
 4311POPC   C4B57262  31.232  41.910   7.583
 4312POPC   NC357263  29.779  17.277   5.461
 4312POPC   PO457264  29.829  16.626   5.225
 4312POPC   GL157265  29.979  16.675   5.711
 4312POPC   GL257266  30.006  17.005   5.850
 4312POPC   C1A57267  29.791  16.649   6.188
 4312POPC   D2A57268  29.517  16.818   6.570
 4312POPC   C3A57269  29.745  16.773   6.976
 4312POPC   C4A57270  29.993  16.410   7.106
 4312POPC   C1B57271  30.187  16.960   6.289
 4312POPC   C2B57272  30.210  16.736   6.716
 4312POPC   C3B57273  30.248  16.861   7.161
 4312POPC   C4B57274  29.990  17.209   7.381
 4313POPC   NC357275  20.010  14.462   5.421
 4313POPC   PO457276  19.460  14.065   5.541
 4313POPC   GL157277  19.713  14.363   5.827
 4313POPC   GL257278  20.080  14.277   5.894
 4313POPC   C1A57279  19.853  14.587   6.231
 4313POPC   D2A57280  20.074  14.430   6.590
 4313POPC   C3A57281  19.992  14.544   7.012
 4313POPC   C4A57282  19.574  14.612   7.145
 4313POPC   C1B57283  19.876  14.074   6.246
 4313POPC   C2B57284  19.844  13.978   6.680
 4313POPC   C3B57285  19.762  14.058   7.100
 4313POPC   C4B57286  19.802  13.859   7.542
 4314POPC   NC357287  39.164  20.782   5.454
 4314POPC   PO457288  39.080  20.113   5.540
 4314POPC   GL157289  39.280  20.417   5.798
 4314POPC   GL257290  38.964  20.539   5.871
 4314POPC   C1A57291  39.302  20.742   6.186
 4314POPC   D2A57292  39.257  20.937   6.621
 4314POPC   C3A57293  39.536  20.798   6.963
 4314POPC   C4A57294  39.485  20.883   7.402
 4314POPC   C1B57295  39.155  20.254   6.241
 4314POPC   C2B57296  39.322  20.418   6.643
 4314POPC   C3B57297  39.230  20.405   7.085
 4314POPC   C4B57298  38.964  20.154   7.345
 4315POPC   NC357299  21.655  39.925   5.530
 4315POPC   PO457300  20.956  40.161   5.504
 4315POPC   GL157301  21.288  40.150   5.825
 4315POPC   GL257302  21.663  40.297   5.864
 4315POPC   C1A57303  21.403  40.033   6.246
 4315POPC   D2A57304  21.386  40.265   6.626
 4315POPC   C3A57305  21.445  39.980   6.961
 4315POPC   C4A57306  21.117  39.691   7.093
 4315POPC   C1B57307  21.751  40.419   6.288
 4315POPC   C2B57308  21.877  40.268   6.699
 4315POPC   C3B57309  21.780  40.386   7.129
 4315POPC   C4B57310  21.583  40.384   7.542
 4316POPC   NC357311   7.934  37.530   5.521
 4316POPC   PO457312   8.328  38.032   5.264
 4316POPC   GL157313   8.315  37.835   5.732
 4316POPC   GL257314   8.331  37.470   5.837
 4316POPC   C1A57315   8.163  37.782   6.192
 4316POPC   D2A57316   8.243  37.504   6.569
 4316POPC   C3A57317   8.204  37.695   6.986
 4316POPC   C4A57318   7.912  38.010   7.163
 4316POPC   C1B57319   7.975  37.295   6.110
 4316POPC   C2B57320   7.696  37.343   6.446
 4316POPC   C3B57321   7.835  37.346   6.856
 4316POPC   C4B57322   7.751  37.524   7.218
 4317POPC   NC357323  41.772  27.397   5.443
 4317POPC   PO457324  41.077  27.233   5.354
 4317POPC   GL157325  41.360  27.395   5.763
 4317POPC   GL257326  41.663  27.642   5.865
 4317POPC   C1A57327  41.573  27.263   6.198
 4317POPC   D2A57328  41.646  27.165   6.658
 4317POPC   C3A57329  41.416  27.450   6.957
 4317POPC   C4A57330  41.153  27.753   7.199
 4317POPC   C1B57331  41.760  27.857   6.262
 4317POPC   C2B57332  41.629  28.056   6.662
 4317POPC   C3B57333  41.645  27.900   7.089
 4317POPC   C4B57334  41.879  27.480   7.196
 4318POPC   NC357335   9.168   6.723   5.332
 4318POPC   PO457336   8.553   6.499   5.200
 4318POPC   GL157337   8.719   6.623   5.654
 4318POPC   GL257338   8.584   6.922   5.857
 4318POPC   C1A57339   8.938   6.534   6.085
 4318POPC   D2A57340   9.091   6.725   6.510
 4318POPC   C3A57341   9.063   6.483   6.893
 4318POPC   C4A57342   9.162   6.538   7.313
 4318POPC   C1B57343   8.660   6.889   6.309
 4318POPC   C2B57344   8.634   6.749   6.756
 4318POPC   C3B57345   8.671   6.639   7.202
 4318POPC   C4B57346   8.720   6.478   7.661
 4319POPC   NC357347  42.184  31.771   5.411
 4319POPC   PO457348  42.626  31.259   5.389
 4319POPC   GL157349  42.503  31.569   5.752
 4319POPC   GL257350  42.160  31.519   5.856
 4319POPC   C1A57351  42.602  31.718   6.203
 4319POPC   D2A57352  42.748  31.820   6.667
 4319POPC   C3A57353  42.491  31.709   7.069
 4319POPC   C4A57354  42.564  31.641   7.529
 4319POPC   C1B57355  42.355  31.290   6.179
 4319POPC   C2B57356  42.388  31.437   6.595
 4319POPC   C3B57357  42.224  31.291   6.954
 4319POPC   C4B57358  42.404  31.209   7.323
 4320POPC   NC357359  34.711   5.066   5.141
 4320POPC   PO457360  34.369   5.530   5.494
 4320POPC   GL157361  34.638   5.370   5.854
 4320POPC   GL257362  34.777   5.006   5.832
 4320POPC   C1A57363  34.600   5.429   6.313
 4320POPC   D2A57364  34.389   5.185   6.652
 4320POPC   C3A57365  34.334   5.344   7.085
 4320POPC   C4A57366  34.486   5.300   7.518
 4320POPC   C1B57367  34.592   4.900   6.236
 4320POPC   C2B57368  34.728   4.594   6.533
 4320POPC   C3B57369  34.879   4.697   6.927
 4320POPC   C4B57370  34.755   5.032   7.176
 4321POPC   NC357371   2.680  29.535   5.432
 4321POPC   PO457372   2.910  30.270   5.414
 4321POPC   GL157373   2.918  30.128   5.827
 4321POPC   GL257374   2.690  29.893   5.794
 4321POPC   C1A57375   2.819  30.026   6.273
 4321POPC   D2A57376   2.897  30.120   6.681
 4321POPC   C3A57377   2.707  29.997   7.072
 4321POPC   C4A57378   2.954  30.007   7.476
 4321POPC   C1B57379   2.561  29.609   6.136
 4321POPC   C2B57380   2.464  29.732   6.569
 4321POPC   C3B57381   2.444  29.567   6.978
 4321POPC   C4B57382   2.572  29.637   7.431
 4322POPC   NC357383  27.631  40.237   5.573
 4322POPC   PO457384  28.110  39.937   5.391
 4322POPC   GL157385  27.872  39.865   5.840
 4322POPC   GL257386  27.478  39.877   5.894
 4322POPC   C1A57387  27.793  39.839   6.306
 4322POPC   D2A57388  27.538  39.870   6.674
 4322POPC   C3A57389  27.718  39.879   7.081
 4322POPC   C4A57390  27.641  40.083   7.473
 4322POPC   C1B57391  27.461  40.215   6.209
 4322POPC   C2B57392  27.429  40.363   6.626
 4322POPC   C3B57393  27.403  40.272   7.047
 4322POPC   C4B57394  27.230  40.424   7.423
 4323POPC   NC357395  12.043  32.822   5.434
 4323POPC   PO457396  12.323  32.274   5.385
 4323POPC   GL157397  12.090  32.310   5.818
 4323POPC   GL257398  11.842  32.565   5.826
 4323POPC   C1A57399  11.966  32.307   6.294
 4323POPC   D2A57400  11.717  32.403   6.681
 4323POPC   C3A57401  11.947  32.293   7.089
 4323POPC   C4A57402  12.135  31.983   7.402
 4323POPC   C1B57403  12.188  32.723   6.134
 4323POPC   C2B57404  12.147  32.687   6.615
 4323POPC   C3B57405  12.322  32.651   7.065
 4323POPC   C4B57406  12.282  32.461   7.500
 4324POPC   NC357407  17.051  18.812   5.097
 4324POPC   PO457408  17.491  19.219   5.305
 4324POPC   GL157409  17.456  19.071   5.715
 4324POPC   GL257410  17.167  19.210   5.876
 4324POPC   C1A57411  17.713  19.109   6.075
 4324POPC   D2A57412  17.768  18.881   6.469
 4324POPC   C3A57413  17.640  19.066   6.863
 4324POPC   C4A57414  17.608  18.735   7.178
 4324POPC   C1B57415  17.276  19.111   6.320
 4324POPC   C2B57416  17.130  19.201   6.731
 4324POPC   C3B57417  17.159  19.002   7.140
 4324POPC   C4B57418  17.122  19.107   7.575
 4325POPC   NC357419  39.232   2.073   5.395
 4325POPC   PO457420  38.626   2.408   5.495
 4325POPC   GL157421  38.937   2.202   5.834
 4325POPC   GL257422  39.300   2.028   5.883
 4325POPC   C1A57423  38.999   2.122   6.288
 4325POPC   D2A57424  38.909   1.836   6.634
 4325POPC   C3A57425  39.242   1.777   6.933
 4325POPC   C4A57426  39.003   1.864   7.270
 4325POPC   C1B57427  39.473   2.303   6.206
 4325POPC   C2B57428  39.412   2.250   6.641
 4325POPC   C3B57429  39.501   2.267   7.067
 4325POPC   C4B57430  39.556   1.960   7.338
 4326POPC   NC357431  40.489  44.788   5.589
 4326POPC   PO457432  41.107  44.594   5.277
 4326POPC   GL157433  40.966  44.718   5.807
 4326POPC   GL257434  40.832  44.979   5.896
 4326POPC   C1A57435  40.768  44.607   6.254
 4326POPC   D2A57436  40.740  44.371   6.657
 4326POPC   C3A57437  40.517  44.523   7.006
 4326POPC   C4A57438  40.434  44.981   7.050
 4326POPC   C1B57439  41.118  44.987   6.217
 4326POPC   C2B57440  40.940   0.120   6.582
 4326POPC   C3B57441  40.890  44.874   6.906
 4326POPC   C4B57442  40.870  44.744   7.322
 4327POPC   NC357443  17.371  26.002   5.481
 4327POPC   PO457444  17.862  26.529   5.249
 4327POPC   GL157445  17.875  26.328   5.678
 4327POPC   GL257446  17.881  25.983   5.769
 4327POPC   C1A57447  17.831  26.447   6.105
 4327POPC   D2A57448  17.962  26.351   6.530
 4327POPC   C3A57449  17.676  26.428   6.873
 4327POPC   C4A57450  17.485  26.241   7.235
 4327POPC   C1B57451  17.702  25.970   6.197
 4327POPC   C2B57452  17.469  25.960   6.623
 4327POPC   C3B57453  17.649  25.811   7.023
 4327POPC   C4B57454  17.870  25.865   7.434
 4328POPC   NC357455  28.723  23.516   5.437
 4328POPC   PO457456  28.203  23.851   5.410
 4328POPC   GL157457  28.249  23.656   5.807
 4328POPC   GL257458  28.577  23.716   5.889
 4328POPC   C1A57459  28.168  23.711   6.254
 4328POPC   D2A57460  28.144  24.046   6.584
 4328POPC   C3A57461  28.156  23.887   6.983
 4328POPC   C4A57462  28.015  23.506   7.176
 4328POPC   C1B57463  28.674  23.609   6.299
 4328POPC   C2B57464  28.586  23.747   6.708
 4328POPC   C3B57465  28.642  23.700   7.146
 4328POPC   C4B57466  28.748  24.032   7.445
 4329POPC   NC357467  33.294  33.132   5.518
 4329POPC   PO457468  32.794  32.750   5.283
 4329POPC   GL157469  32.950  32.824   5.716
 4329POPC   GL257470  32.815  33.164   5.756
 4329POPC   C1A57471  33.108  32.953   6.142
 4329POPC   D2A57472  33.255  32.856   6.567
 4329POPC   C3A57473  33.046  33.102   6.900
 4329POPC   C4A57474  33.145  32.905   7.262
 4329POPC   C1B57475  32.784  33.370   6.175
 4329POPC   C2B57476  32.751  33.473   6.612
 4329POPC   C3B57477  32.606  33.382   7.025
 4329POPC   C4B57478  32.693  33.118   7.307
 4330POPC   NC357479  31.463  18.941   5.353
 4330POPC   PO457480  31.465  18.323   5.589
 4330POPC   GL157481  31.543  18.733   5.841
 4330POPC   GL257482  31.288  18.989   5.834
 4330POPC   C1A57483  31.613  18.975   6.244
 4330POPC   D2A57484  31.454  18.907   6.701
 4330POPC   C3A57485  31.474  19.215   7.078
 4330POPC   C4A57486  31.600  19.342   7.516
 4330POPC   C1B57487  31.093  18.951   6.259
 4330POPC   C2B57488  31.015  19.160   6.685
 4330POPC   C3B57489  31.047  18.926   7.070
 4330POPC   C4B57490  31.206  18.963   7.483
 4331POPC   NC357491  43.543  27.019   5.237
 4331POPC   PO457492  43.938  26.574   5.496
 4331POPC   GL157493  43.791  26.702   5.916
 4331POPC   GL257494  44.059  26.979   5.941
 4331POPC   C1A57495  43.749  26.876   6.360
 4331POPC   D2A57496  44.119  27.069   6.640
 4331POPC   C3A57497  43.980  27.010   7.069
 4331POPC   C4A57498  43.646  26.726   7.116
 4331POPC   C1B57499  44.202  26.677   6.267
 4331POPC   C2B57500  44.016  26.567   6.688
 4331POPC   C3B57501  44.109  26.427   7.099
 4331POPC   C4B57502  44.201  26.597   7.549
 4332POPC   NC357503   8.648  10.786   5.440
 4332POPC   PO457504   9.281  10.334   5.364
 4332POPC   GL157505   8.963  10.285   5.683
 4332POPC   GL257506   8.780  10.567   5.869
 4332POPC   C1A57507   9.027  10.219   6.122
 4332POPC   D2A57508   8.799  10.460   6.450
 4332POPC   C3A57509   8.694  10.333   6.859
 4332POPC   C4A57510   8.865  10.459   7.247
 4332POPC   C1B57511   9.072  10.771   6.153
 4332POPC   C2B57512   9.218  10.908   6.559
 4332POPC   C3B57513   9.124  10.859   6.983
 4332POPC   C4B57514   9.266  10.808   7.391
 4333POPC   NC357515  25.200   6.252   5.400
 4333POPC   PO457516  24.976   5.545   5.477
 4333POPC   GL157517  25.233   5.768   5.815
 4333POPC   GL257518  25.065   6.085   5.851
 4333POPC   C1A57519  25.483   5.633   6.208
 4333POPC   D2A57520  25.340   5.518   6.654
 4333POPC   C3A57521  25.357   5.848   6.949
 4333POPC   C4A57522  25.630   5.889   7.307
 4333POPC   C1B57523  25.018   5.901   6.258
 4333POPC   C2B57524  25.149   6.171   6.554
 4333POPC   C3B57525  25.058   6.273   6.923
 4333POPC   C4B57526  25.263   6.269   7.280
 4334POPC   NC357527   6.033   2.281   5.385
 4334POPC   PO457528   5.944   1.634   5.652
 4334POPC   GL157529   5.740   1.831   5.931
 4334POPC   GL257530   5.724   2.108   5.750
 4334POPC   C1A57531   5.793   1.832   6.362
 4334POPC   D2A57532   6.042   1.887   6.728
 4334POPC   C3A57533   5.739   1.841   7.069
 4334POPC   C4A57534   5.474   1.746   7.391
 4334POPC   C1B57535   5.955   2.250   6.123
 4334POPC   C2B57536   5.810   2.331   6.560
 4334POPC   C3B57537   5.918   2.321   7.013
 4334POPC   C4B57538   5.946   2.239   7.474
 4335POPC   NC357539  27.943  29.303   5.504
 4335POPC   PO457540  27.290  28.945   5.614
 4335POPC   GL157541  27.558  29.175   5.861
 4335POPC   GL257542  27.838  28.934   5.836
 4335POPC   C1A57543  27.461  29.400   6.258
 4335POPC   D2A57544  27.513  29.222   6.666
 4335POPC   C3A57545  27.235  29.249   6.987
 4335POPC   C4A57546  27.282  29.080   7.379
 4335POPC   C1B57547  27.839  29.042   6.280
 4335POPC   C2B57548  28.026  29.106   6.694
 4335POPC   C3B57549  27.937  29.416   7.009
 4335POPC   C4B57550  27.747  29.304   7.408
 4336POPC   NC357551  26.368  24.651   5.363
 4336POPC   PO457552  25.762  24.451   5.332
 4336POPC   GL157553  25.992  24.650   5.717
 4336POPC   GL257554  26.294  24.435   5.813
 4336POPC   C1A57555  26.054  24.760   6.157
 4336POPC   D2A57556  25.977  24.570   6.576
 4336POPC   C3A57557  26.085  24.680   7.015
 4336POPC   C4A57558  25.840  24.537   7.388
 4336POPC   C1B57559  26.259  24.287   6.234
 4336POPC   C2B57560  26.417  24.312   6.669
 4336POPC   C3B57561  26.251  24.159   7.042
 4336POPC   C4B57562  26.224  24.143   7.489
 4337POPC   NC357563   0.461  32.957   5.244
 4337POPC   PO457564   0.145  33.500   5.422
 4337POPC   GL157565   0.415  33.212   5.708
 4337POPC   GL257566   0.418  32.822   5.727
 4337POPC   C1A57567   0.563  33.086   6.147
 4337POPC   D2A57568   0.718  32.945   6.572
 4337POPC   C3A57569   0.466  32.981   6.936
 4337POPC   C4A57570   0.582  32.916   7.347
 4337POPC   C1B57571   0.287  32.644   6.130
 4337POPC   C2B57572   0.312  32.629   6.575
 4337POPC   C3B57573   0.033  32.654   6.912
 4337POPC   C4B57574   0.053  32.674   7.325
 4338POPC   NC357575  32.852  35.405   5.433
 4338POPC   PO457576  33.539  35.272   5.589
 4338POPC   GL157577  33.105  35.162   5.802
 4338POPC   GL257578  32.690  35.074   5.780
 4338POPC   C1A57579  33.051  35.294   6.227
 4338POPC   D2A57580  33.397  35.403   6.516
 4338POPC   C3A57581  33.258  35.359   6.915
 4338POPC   C4A57582  33.301  35.418   7.320
 4338POPC   C1B57583  32.532  35.106   6.205
 4338POPC   C2B57584  32.705  35.109   6.642
 4338POPC   C3B57585  32.738  35.359   7.055
 4338POPC   C4B57586  32.616  35.579   7.485
 4339POPC   NC357587  28.526  25.751   5.567
 4339POPC   PO457588  28.192  26.313   5.537
 4339POPC   GL157589  28.284  26.075   5.892
 4339POPC   GL257590  28.642  26.116   5.932
 4339POPC   C1A57591  28.070  26.099   6.272
 4339POPC   D2A57592  27.991  26.358   6.632
 4339POPC   C3A57593  28.062  26.073   6.967
 4339POPC   C4A57594  28.416  26.041   7.255
 4339POPC   C1B57595  28.585  25.783   6.245
 4339POPC   C2B57596  28.653  25.741   6.710
 4339POPC   C3B57597  28.881  25.983   7.067
 4339POPC   C4B57598  28.870  26.098   7.535
 4340POPC   NC357599  44.130  26.152   5.458
 4340POPC   PO457600  43.519  25.963   5.631
 4340POPC   GL157601  43.829  26.166   5.872
 4340POPC   GL257602  44.137  25.923   5.894
 4340POPC   C1A57603  43.958  26.239   6.276
 4340POPC   D2A57604  44.035  26.052   6.651
 4340POPC   C3A57605  43.666  25.890   6.811
 4340POPC   C4A57606  43.782  25.939   7.180
 4340POPC   C1B57607  44.027  25.710   6.249
 4340POPC   C2B57608  44.255  25.587   6.585
 4340POPC   C3B57609  44.237  25.718   7.001
 4340POPC   C4B57610  44.045  25.539   7.356
 4341POPC   NC357611  42.729  26.833   5.516
 4341POPC   PO457612  42.204  26.573   5.410
 4341POPC   GL157613  42.044  26.808   5.756
 4341POPC   GL257614  42.367  26.757   5.911
 4341POPC   C1A57615  41.915  26.859   6.188
 4341POPC   D2A57616  42.199  26.793   6.526
 4341POPC   C3A57617  42.078  26.959   6.902
 4341POPC   C4A57618  42.062  26.723   7.245
 4341POPC   C1B57619  42.647  26.836   6.264
 4341POPC   C2B57620  42.794  26.804   6.653
 4341POPC   C3B57621  42.571  26.733   6.998
 4341POPC   C4B57622  42.468  27.022   7.275
 4342POPC   NC357623  15.417  39.090   5.546
 4342POPC   PO457624  14.915  39.282   5.486
 4342POPC   GL157625  15.006  39.402   5.925
 4342POPC   GL257626  15.335  39.261   6.033
 4342POPC   C1A57627  15.042  39.487   6.394
 4342POPC   D2A57628  15.097  39.253   6.793
 4342POPC   C3A57629  14.935  39.474   7.156
 4342POPC   C4A57630  14.967  39.561   7.592
 4342POPC   C1B57631  15.561  39.511   6.366
 4342POPC   C2B57632  15.489  39.588   6.825
 4342POPC   C3B57633  15.438  39.341   7.223
 4342POPC   C4B57634  15.685  39.343   7.625
 4343POPC   NC357635  39.637  25.869   5.456
 4343POPC   PO457636  40.264  25.713   5.444
 4343POPC   GL157637  40.149  26.065   5.715
 4343POPC   GL257638  39.858  26.290   5.685
 4343POPC   C1A57639  40.234  26.151   6.149
 4343POPC   D2A57640  40.107  26.261   6.555
 4343POPC   C3A57641  40.135  26.025   6.930
 4343POPC   C4A57642  40.022  26.204   7.324
 4343POPC   C1B57643  39.732  26.162   6.096
 4343POPC   C2B57644  39.609  26.090   6.531
 4343POPC   C3B57645  39.620  26.113   6.977
 4343POPC   C4B57646  39.558  26.420   7.274
 4344POPC   NC357647  11.834  38.565   5.532
 4344POPC   PO457648  11.209  38.505   5.404
 4344POPC   GL157649  11.252  38.583   5.837
 4344POPC   GL257650  11.596  38.602   5.991
 4344POPC   C1A57651  11.045  38.578   6.232
 4344POPC   D2A57652  10.956  38.435   6.656
 4344POPC   C3A57653  11.291  38.517   6.957
 4344POPC   C4A57654  11.176  38.463   7.373
 4344POPC   C1B57655  11.467  38.224   6.197
 4344POPC   C2B57656  11.390  38.108   6.624
 4344POPC   C3B57657  11.693  38.133   6.944
 4344POPC   C4B57658  11.726  38.327   7.301
 4345POPC   NC357659  14.763  41.067   5.572
 4345POPC   PO457660  14.177  40.619   5.506
 4345POPC   GL157661  14.424  40.666   5.865
 4345POPC   GL257662  14.344  40.997   5.866
 4345POPC   C1A57663  14.325  40.767   6.318
 4345POPC   D2A57664  14.224  40.933   6.733
 4345POPC   C3A57665  14.343  40.747   7.138
 4345POPC   C4A57666  14.556  40.536   7.479
 4345POPC   C1B57667  14.670  41.123   6.199
 4345POPC   C2B57668  14.613  41.224   6.632
 4345POPC   C3B57669  14.455  41.237   7.074
 4345POPC   C4B57670  14.481  41.169   7.529
 4346POPC   NC357671  22.030   5.204   5.414
 4346POPC   PO457672  22.648   4.830   5.461
 4346POPC   GL157673  22.354   5.003   5.768
 4346POPC   GL257674  22.027   4.926   5.852
 4346POPC   C1A57675  22.413   5.184   6.182
 4346POPC   D2A57676  22.427   5.098   6.598
 4346POPC   C3A57677  22.130   5.301   6.821
 4346POPC   C4A57678  22.379   5.549   7.077
 4346POPC   C1B57679  22.172   4.753   6.282
 4346POPC   C2B57680  22.162   4.672   6.734
 4346POPC   C3B57681  22.139   4.881   7.121
 4346POPC   C4B57682  22.020   5.266   7.333
 4347POPC   NC357683  24.468   5.688   5.418
 4347POPC   PO457684  24.611   6.296   5.381
 4347POPC   GL157685  24.538   6.059   5.787
 4347POPC   GL257686  24.709   5.703   5.885
 4347POPC   C1A57687  24.443   5.970   6.223
 4347POPC   D2A57688  24.642   6.045   6.581
 4347POPC   C3A57689  24.864   5.782   6.804
 4347POPC   C4A57690  24.921   5.881   7.229
 4347POPC   C1B57691  24.552   5.497   6.284
 4347POPC   C2B57692  24.355   5.604   6.658
 4347POPC   C3B57693  24.300   5.930   6.959
 4347POPC   C4B57694  24.270   5.824   7.405
 4348POPC   NC357695  21.701  30.066   5.663
 4348POPC   PO457696  22.208  29.776   5.355
 4348POPC   GL157697  22.213  29.903   5.818
 4348POPC   GL257698  22.585  29.963   5.894
 4348POPC   C1A57699  22.001  29.866   6.264
 4348POPC   D2A57700  21.771  29.678   6.648
 4348POPC   C3A57701  21.820  29.869   7.073
 4348POPC   C4A57702  22.108  29.824   7.427
 4348POPC   C1B57703  22.529  29.968   6.351
 4348POPC   C2B57704  22.288  29.812   6.710
 4348POPC   C3B57705  22.453  29.677   7.101
 4348POPC   C4B57706  22.574  29.582   7.539
 4349POPC   NC357707  25.381  29.120   5.205
 4349POPC   PO457708  25.116  29.690   5.449
 4349POPC   GL157709  25.067  29.251   5.655
 4349POPC   GL257710  25.349  29.004   5.687
 4349POPC   C1A57711  25.006  29.084   6.095
 4349POPC   D2A57712  25.238  29.271   6.441
 4349POPC   C3A57713  25.084  29.355   6.861
 4349POPC   C4A57714  25.402  29.440   7.127
 4349POPC   C1B57715  25.427  28.800   6.036
 4349POPC   C2B57716  25.328  28.744   6.446
 4349POPC   C3B57717  25.371  28.924   6.814
 4349POPC   C4B57718  25.271  28.922   7.185
 4350POPC   NC357719  28.780  43.266   5.564
 4350POPC   PO457720  28.244  43.043   5.427
 4350POPC   GL157721  28.190  43.240   5.819
 4350POPC   GL257722  28.455  43.069   5.905
 4350POPC   C1A57723  28.225  43.266   6.315
 4350POPC   D2A57724  28.344  42.948   6.654
 4350POPC   C3A57725  28.331  43.097   7.094
 4350POPC   C4A57726  28.198  42.922   7.469
 4350POPC   C1B57727  28.489  42.757   6.185
 4350POPC   C2B57728  28.809  42.718   6.513
 4350POPC   C3B57729  28.703  42.604   6.926
 4350POPC   C4B57730  28.671  42.731   7.330
 4351POPC   NC357731   7.957  43.933   5.213
 4351POPC   PO457732   8.441  44.285   5.355
 4351POPC   GL157733   8.286  43.919   5.690
 4351POPC   GL257734   7.898  43.822   5.741
 4351POPC   C1A57735   8.436  43.813   6.167
 4351POPC   D2A57736   8.513  43.997   6.615
 4351POPC   C3A57737   8.497  43.747   7.015
 4351POPC   C4A57738   8.348  43.925   7.424
 4351POPC   C1B57739   7.889  43.698   6.212
 4351POPC   C2B57740   8.094  43.655   6.646
 4351POPC   C3B57741   8.029  43.956   7.002
 4351POPC   C4B57742   7.992  44.277   7.355
 4352POPC   NC357743  20.129  31.843   5.461
 4352POPC   PO457744  19.677  31.474   5.514
 4352POPC   GL157745  19.723  31.472   5.868
 4352POPC   GL257746  20.098  31.502   5.849
 4352POPC   C1A57747  19.522  31.394   6.223
 4352POPC   D2A57748  19.659  31.233   6.587
 4352POPC   C3A57749  19.528  31.391   6.986
 4352POPC   C4A57750  19.828  31.342   7.301
 4352POPC   C1B57751  19.959  31.685   6.242
 4352POPC   C2B57752  20.074  31.786   6.615
 4352POPC   C3B57753  19.920  31.746   6.982
 4352POPC   C4B57754  20.122  31.790   7.333
 4353POPC   NC357755  43.454  26.431   5.585
 4353POPC   PO457756  43.117  27.080   5.431
 4353POPC   GL157757  43.180  26.817   5.816
 4353POPC   GL257758  42.913  26.604   5.932
 4353POPC   C1A57759  43.178  26.875   6.275
 4353POPC   D2A57760  43.323  26.803   6.692
 4353POPC   C3A57761  43.111  26.784   7.090
 4353POPC   C4A57762  43.327  27.063   7.418
 4353POPC   C1B57763  42.969  26.410   6.328
 4353POPC   C2B57764  43.028  26.363   6.724
 4353POPC   C3B57765  42.825  26.285   7.053
 4353POPC   C4B57766  42.873  26.346   7.466
 4354POPC   NC357767  12.277  43.269   5.498
 4354POPC   PO457768  11.599  43.343   5.527
 4354POPC   GL157769  11.933  43.046   5.775
 4354POPC   GL257770  12.302  42.886   5.796
 4354POPC   C1A57771  11.963  42.900   6.192
 4354POPC   D2A57772  11.856  43.116   6.545
 4354POPC   C3A57773  11.931  43.024   6.961
 4354POPC   C4A57774  12.127  43.388   7.167
 4354POPC   C1B57775  12.463  42.732   6.182
 4354POPC   C2B57776  12.318  42.831   6.607
 4354POPC   C3B57777  12.455  43.013   7.009
 4354POPC   C4B57778  12.574  42.802   7.378
 4355POPC   NC357779  33.609  31.684   5.280
 4355POPC   PO457780  33.902  31.133   5.580
 4355POPC   GL157781  33.897  31.380   5.875
 4355POPC   GL257782  33.860  31.689   5.757
 4355POPC   C1A57783  33.701  31.420   6.266
 4355POPC   D2A57784  33.701  31.642   6.639
 4355POPC   C3A57785  33.630  31.438   7.008
 4355POPC   C4A57786  33.778  31.051   7.150
 4355POPC   C1B57787  34.154  31.747   6.119
 4355POPC   C2B57788  34.138  31.886   6.551
 4355POPC   C3B57789  34.214  31.696   6.956
 4355POPC   C4B57790  34.033  31.486   7.305
 4356POPC   NC357791   6.213  42.332   5.432
 4356POPC   PO457792   6.875  42.436   5.425
 4356POPC   GL157793   6.593  42.353   5.768
 4356POPC   GL257794   6.388  42.647   5.822
 4356POPC   C1A57795   6.469  42.290   6.197
 4356POPC   D2A57796   6.645  42.149   6.559
 4356POPC   C3A57797   6.458  42.070   6.944
 4356POPC   C4A57798   6.721  42.170   7.248
 4356POPC   C1B57799   6.305  42.767   6.256
 4356POPC   C2B57800   6.296  42.536   6.685
 4356POPC   C3B57801   6.353  42.518   7.188
 4356POPC   C4B57802   6.221  42.591   7.646
 4357POPC   NC357803  12.848   1.542   5.363
 4357POPC   PO457804  13.137   0.922   5.366
 4357POPC   GL157805  13.020   1.225   5.708
 4357POPC   GL257806  12.644   1.284   5.769
 4357POPC   C1A57807  13.194   1.417   6.073
 4357POPC   D2A57808  13.246   1.269   6.497
 4357POPC   C3A57809  13.045   1.286   6.916
 4357POPC   C4A57810  13.205   1.276   7.359
 4357POPC   C1B57811  12.717   1.318   6.216
 4357POPC   C2B57812  12.504   1.280   6.591
 4357POPC   C3B57813  12.540   1.116   7.000
 4357POPC   C4B57814  12.711   1.365   7.328
 4358POPC   NC357815   9.443  10.749   5.493
 4358POPC   PO457816   9.992  10.291   5.456
 4358POPC   GL157817   9.814  10.439   5.822
 4358POPC   GL257818   9.810  10.807   5.830
 4358POPC   C1A57819   9.910  10.323   6.251
 4358POPC   D2A57820   9.696  10.222   6.638
 4358POPC   C3A57821   9.820  10.316   7.038
 4358POPC   C4A57822   9.375  10.409   7.120
 4358POPC   C1B57823   9.616  10.737   6.236
 4358POPC   C2B57824   9.769  10.723   6.674
 4358POPC   C3B57825   9.723  10.820   7.110
 4358POPC   C4B57826   9.994  10.911   7.478
 4359POPC   NC357827   4.708  12.863   5.541
 4359POPC   PO457828   4.052  12.675   5.435
 4359POPC   GL157829   4.246  12.911   5.788
 4359POPC   GL257830   4.012  13.186   5.810
 4359POPC   C1A57831   4.472  12.868   6.203
 4359POPC   D2A57832   4.400  12.630   6.589
 4359POPC   C3A57833   4.364  12.781   7.007
 4359POPC   C4A57834   4.124  12.581   7.299
 4359POPC   C1B57835   4.157  13.266   6.218
 4359POPC   C2B57836   4.365  13.221   6.636
 4359POPC   C3B57837   4.156  13.234   7.050
 4359POPC   C4B57838   4.245  13.118   7.477
 4360POPC   NC357839  19.576   4.836   5.394
 4360POPC   PO457840  18.951   5.188   5.384
 4360POPC   GL157841  18.997   4.943   5.722
 4360POPC   GL257842  19.308   5.085   5.750
 4360POPC   C1A57843  18.976   5.079   6.138
 4360POPC   D2A57844  19.017   5.306   6.504
 4360POPC   C3A57845  18.891   5.159   6.880
 4360POPC   C4A57846  18.977   5.272   7.237
 4360POPC   C1B57847  19.406   5.365   6.075
 4360POPC   C2B57848  19.515   5.428   6.502
 4360POPC   C3B57849  19.377   5.398   6.924
 4360POPC   C4B57850  19.429   5.434   7.389
 4361POPC   NC357851  11.132  22.558   5.225
 4361POPC   PO457852  11.545  22.047   5.533
 4361POPC   GL157853  11.297  22.080   5.876
 4361POPC   GL257854  11.161  22.388   5.721
 4361POPC   C1A57855  11.098  22.084   6.300
 4361POPC   D2A57856  10.936  21.845   6.654
 4361POPC   C3A57857  11.103  21.973   7.034
 4361POPC   C4A57858  11.280  22.092   7.416
 4361POPC   C1B57859  11.259  22.562   6.101
 4361POPC   C2B57860  11.220  22.536   6.532
 4361POPC   C3B57861  11.250  22.463   6.989
 4361POPC   C4B57862  11.651  22.352   7.195
 4362POPC   NC357863   8.378  29.529   5.687
 4362POPC   PO457864   8.207  30.133   5.399
 4362POPC   GL157865   7.997  30.086   5.788
 4362POPC   GL257866   8.252  29.935   5.949
 4362POPC   C1A57867   7.901  30.161   6.222
 4362POPC   D2A57868   8.090  30.082   6.603
 4362POPC   C3A57869   8.006  29.953   7.029
 4362POPC   C4A57870   8.162  30.071   7.468
 4362POPC   C1B57871   8.288  29.702   6.336
 4362POPC   C2B57872   8.436  29.753   6.771
 4362POPC   C3B57873   8.378  29.608   7.194
 4362POPC   C4B57874   8.385  29.586   7.645
 4363POPC   NC357875   9.270  13.087   5.302
 4363POPC   PO457876   8.758  12.531   5.220
 4363POPC   GL157877   8.890  12.763   5.590
 4363POPC   GL257878   9.166  12.570   5.800
 4363POPC   C1A57879   8.732  12.849   6.025
 4363POPC   D2A57880   8.847  12.864   6.468
 4363POPC   C3A57881   8.958  13.066   6.836
 4363POPC   C4A57882   8.977  12.873   7.198
 4363POPC   C1B57883   9.050  12.426   6.256
 4363POPC   C2B57884   9.064  12.478   6.734
 4363POPC   C3B57885   8.973  12.365   7.150
 4363POPC   C4B57886   9.267  12.462   7.470
 4364POPC   NC357887  31.387  13.829   5.534
 4364POPC   PO457888  31.321  13.169   5.524
 4364POPC   GL157889  31.520  13.308   5.881
 4364POPC   GL257890  31.206  13.487   5.945
 4364POPC   C1A57891  31.522  13.222   6.327
 4364POPC   D2A57892  31.230  13.352   6.657
 4364POPC   C3A57893  31.436  13.449   7.036
 4364POPC   C4A57894  31.325  13.655   7.401
 4364POPC   C1B57895  31.302  13.730   6.306
 4364POPC   C2B57896  31.282  13.879   6.742
 4364POPC   C3B57897  31.100  14.030   7.146
 4364POPC   C4B57898  31.384  14.195   7.469
 4365POPC   NC357899  27.511  16.290   5.102
 4365POPC   PO457900  27.416  15.771   5.465
 4365POPC   GL157901  27.460  15.967   5.828
 4365POPC   GL257902  27.718  15.857   5.899
 4365POPC   C1A57903  27.395  15.866   6.269
 4365POPC   D2A57904  27.708  15.882   6.567
 4365POPC   C3A57905  27.680  15.958   6.961
 4365POPC   C4A57906  27.441  15.927   7.263
 4365POPC   C1B57907  27.798  15.543   6.182
 4365POPC   C2B57908  28.093  15.575   6.537
 4365POPC   C3B57909  28.012  15.571   6.940
 4365POPC   C4B57910  27.851  15.609   7.325
 4366POPC   NC357911  44.187  12.169   5.309
 4366POPC   PO457912  44.868  12.172   5.356
 4366POPC   GL157913  44.619  12.281   5.739
 4366POPC   GL257914  44.327  12.069   5.804
 4366POPC   C1A57915  44.565  12.365   6.201
 4366POPC   D2A57916  44.703  12.147   6.606
 4366POPC   C3A57917  44.664  12.307   7.042
 4366POPC   C4A57918  44.789  12.152   7.464
 4366POPC   C1B57919  44.380  11.750   6.162
 4366POPC   C2B57920  44.338  11.622   6.605
 4366POPC   C3B57921  44.435  11.838   6.952
 4366POPC   C4B57922  44.543  11.723   7.333
 4367POPC   NC357923   1.038  40.704   5.432
 4367POPC   PO457924   1.463  41.171   5.427
 4367POPC   GL157925   1.219  40.990   5.828
 4367POPC   GL257926   1.261  40.612   5.898
 4367POPC   C1A57927   1.150  40.926   6.300
 4367POPC   D2A57928   1.249  41.160   6.707
 4367POPC   C3A57929   1.199  40.829   7.014
 4367POPC   C4A57930   1.066  40.471   7.222
 4367POPC   C1B57931   1.515  40.414   6.237
 4367POPC   C2B57932   1.509  40.287   6.678
 4367POPC   C3B57933   1.610  40.492   7.080
 4367POPC   C4B57934   1.478  40.478   7.521
 4368POPC   NC357935  25.699   2.584   5.371
 4368POPC   PO457936  26.042   1.883   5.333
 4368POPC   GL157937  26.125   2.099   5.702
 4368POPC   GL257938  25.821   2.292   5.760
 4368POPC   C1A57939  26.101   2.098   6.164
 4368POPC   D2A57940  26.138   2.094   6.609
 4368POPC   C3A57941  25.832   1.911   6.878
 4368POPC   C4A57942  25.985   2.008   7.268
 4368POPC   C1B57943  25.885   2.549   6.112
 4368POPC   C2B57944  25.756   2.413   6.530
 4368POPC   C3B57945  25.812   2.406   6.982
 4368POPC   C4B57946  25.916   2.499   7.405
 4369POPC   NC357947  10.406  35.235   5.518
 4369POPC   PO457948  10.655  35.781   5.474
 4369POPC   GL157949  10.671  35.774   5.880
 4369POPC   GL257950  10.315  35.705   5.879
 4369POPC   C1A57951  10.666  35.510   6.247
 4369POPC   D2A57952  10.681  35.608   6.681
 4369POPC   C3A57953  10.753  35.264   6.981
 4369POPC   C4A57954  10.782  35.025   7.361
 4369POPC   C1B57955  10.169  35.596   6.313
 4369POPC   C2B57956  10.010  35.653   6.736
 4369POPC   C3B57957  10.323  35.535   7.037
 4369POPC   C4B57958  10.347  35.252   7.373
 4370POPC   NC357959  38.713  26.369   5.428
 4370POPC   PO457960  38.647  25.782   5.293
 4370POPC   GL157961  38.550  25.996   5.753
 4370POPC   GL257962  38.810  26.224   5.905
 4370POPC   C1A57963  38.400  26.172   6.206
 4370POPC   D2A57964  38.441  26.297   6.668
 4370POPC   C3A57965  38.400  26.052   7.043
 4370POPC   C4A57966  38.364  26.106   7.497
 4370POPC   C1B57967  38.823  25.854   6.179
 4370POPC   C2B57968  38.706  25.836   6.625
 4370POPC   C3B57969  38.816  25.724   7.057
 4370POPC   C4B57970  38.763  25.751   7.516
 4371POPC   NC357971  10.001   2.502   5.685
 4371POPC   PO457972   9.733   3.040   5.402
 4371POPC   GL157973   9.782   2.985   5.829
 4371POPC   GL257974   9.530   2.736   5.825
 4371POPC   C1A57975   9.942   2.846   6.237
 4371POPC   D2A57976  10.032   2.624   6.645
 4371POPC   C3A57977   9.852   2.825   7.030
 4371POPC   C4A57978   9.929   2.975   7.443
 4371POPC   C1B57979   9.430   2.936   6.215
 4371POPC   C2B57980   9.538   2.797   6.623
 4371POPC   C3B57981   9.325   2.837   7.029
 4371POPC   C4B57982   9.472   2.767   7.436
 4372POPC   NC357983  20.498   4.510   5.186
 4372POPC   PO457984  20.690   5.099   5.444
 4372POPC   GL157985  20.628   4.835   5.785
 4372POPC   GL257986  20.252   4.819   5.832
 4372POPC   C1A57987  20.850   4.803   6.196
 4372POPC   D2A57988  20.763   4.976   6.593
 4372POPC   C3A57989  20.627   4.813   6.981
 4372POPC   C4A57990  20.731   5.014   7.372
 4372POPC   C1B57991  20.338   4.946   6.254
 4372POPC   C2B57992  20.277   5.086   6.705
 4372POPC   C3B57993  20.485   5.325   7.051
 4372POPC   C4B57994  20.400   5.414   7.507
 4373POPC   NC357995   3.756  28.210   5.480
 4373POPC   PO457996   3.166  28.020   5.276
 4373POPC   GL157997   3.077  28.142   5.738
 4373POPC   GL257998   3.323  28.375   5.787
 4373POPC   C1A57999   3.177  28.202   6.228
 4373POPC   D2A58000   3.486  28.161   6.590
 4373POPC   C3A58001   3.384  28.192   7.049
 4373POPC   C4A58002   3.155  27.853   7.296
 4373POPC   C1B58003   3.505  28.595   6.144
 4373POPC   C2B58004   3.414  28.666   6.561
 4373POPC   C3B58005   3.559  28.775   6.959
 4373POPC   C4B58006   3.720  28.584   7.290
 4374POPC   NC358007  14.912  20.447   4.878
 4374POPC   PO458008  15.413  20.587   5.269
 4374POPC   GL158009  15.215  20.407   5.676
 4374POPC   GL258010  15.527  20.307   5.791
 4374POPC   C1A58011  15.045  20.473   6.146
 4374POPC   D2A58012  14.872  20.766   6.523
 4374POPC   C3A58013  15.085  20.750   6.937
 4374POPC   C4A58014  15.086  20.340   7.099
 4374POPC   C1B58015  15.542  20.636   6.106
 4374POPC   C2B58016  15.391  20.759   6.507
 4374POPC   C3B58017  15.603  20.876   6.877
 4374POPC   C4B58018  15.489  20.900   7.297
 4375POPC   NC358019  21.416  16.283   5.433
 4375POPC   PO458020  21.566  16.918   5.322
 4375POPC   GL158021  21.258  16.830   5.721
 4375POPC   GL258022  21.274  16.508   5.871
 4375POPC   C1A58023  21.143  16.839   6.210
 4375POPC   D2A58024  21.354  16.629   6.563
 4375POPC   C3A58025  21.237  16.687   7.007
 4375POPC   C4A58026  21.394  16.847   7.378
 4375POPC   C1B58027  21.617  16.370   6.114
 4375POPC   C2B58028  21.675  16.209   6.517
 4375POPC   C3B58029  21.647  16.372   6.926
 4375POPC   C4B58030  21.773  16.541   7.327
 4376POPC   NC358031  30.469  18.939   5.462
 4376POPC   PO458032  31.123  19.239   5.373
 4376POPC   GL158033  30.814  19.172   5.791
 4376POPC   GL258034  30.785  18.798   5.836
 4376POPC   C1A58035  30.710  19.278   6.275
 4376POPC   D2A58036  30.496  19.159   6.694
 4376POPC   C3A58037  30.671  19.255   7.119
 4376POPC   C4A58038  30.605  19.150   7.570
 4376POPC   C1B58039  30.571  18.793   6.230
 4376POPC   C2B58040  30.764  18.729   6.631
 4376POPC   C3B58041  30.558  18.758   7.036
 4376POPC   C4B58042  30.732  18.685   7.456
 4377POPC   NC358043   0.003  15.567   5.441
 4377POPC   PO458044  44.816  14.846   5.407
 4377POPC   GL158045  44.882  15.066   5.815
 4377POPC   GL258046  44.669  15.353   5.827
 4377POPC   C1A58047  44.788  15.164   6.283
 4377POPC   D2A58048  44.564  15.074   6.695
 4377POPC   C3A58049  44.702  14.980   7.118
 4377POPC   C4A58050  44.894  15.187   7.475
 4377POPC   C1B58051  44.538  15.593   6.189
 4377POPC   C2B58052  44.675  15.555   6.626
 4377POPC   C3B58053  44.623  15.478   7.093
 4377POPC   C4B58054  44.255  15.569   7.375
 4378POPC   NC358055   0.541  39.271   5.179
 4378POPC   PO458056   1.275  39.295   5.211
 4378POPC   GL158057   1.330  39.195   5.645
 4378POPC   GL258058   1.006  39.114   5.674
 4378POPC   C1A58059   1.306  39.400   6.056
 4378POPC   D2A58060   1.165  39.243   6.448
 4378POPC   C3A58061   1.349  39.327   6.839
 4378POPC   C4A58062   1.520  39.097   7.172
 4378POPC   C1B58063   0.891  38.997   6.072
 4378POPC   C2B58064   0.782  38.913   6.497
 4378POPC   C3B58065   1.042  38.901   6.853
 4378POPC   C4B58066   1.019  39.166   7.206
 4379POPC   NC358067  41.365  13.081   5.415
 4379POPC   PO458068  41.916  12.607   5.248
 4379POPC   GL158069  41.698  12.732   5.668
 4379POPC   GL258070  41.309  12.709   5.759
 4379POPC   C1A58071  41.658  12.944   6.098
 4379POPC   D2A58072  41.483  13.064   6.527
 4379POPC   C3A58073  41.696  12.886   6.917
 4379POPC   C4A58074  41.704  12.567   7.277
 4379POPC   C1B58075  41.249  12.642   6.211
 4379POPC   C2B58076  41.347  12.562   6.659
 4379POPC   C3B58077  41.242  12.691   7.080
 4379POPC   C4B58078  41.307  13.134   7.164
 4380POPC   NC358079  32.704   4.441   5.457
 4380POPC   PO458080  33.285   4.064   5.169
 4380POPC   GL158081  33.224   4.111   5.699
 4380POPC   GL258082  33.058   4.453   5.821
 4380POPC   C1A58083  32.914   4.063   6.113
 4380POPC   D2A58084  32.746   4.135   6.553
 4380POPC   C3A58085  33.014   4.137   6.917
 4380POPC   C4A58086  33.127   4.384   7.260
 4380POPC   C1B58087  32.819   4.566   6.220
 4380POPC   C2B58088  32.805   4.648   6.669
 4380POPC   C3B58089  32.799   4.748   7.088
 4380POPC   C4B58090  32.724   4.605   7.491
 4381POPC   NC358091  18.083  11.484   5.479
 4381POPC   PO458092  17.677  12.025   5.409
 4381POPC   GL158093  17.604  12.089   5.831
 4381POPC   GL258094  17.325  11.965   5.992
 4381POPC   C1A58095  17.770  12.140   6.221
 4381POPC   D2A58096  17.818  12.192   6.654
 4381POPC   C3A58097  17.572  11.959   6.950
 4381POPC   C4A58098  17.675  11.959   7.385
 4381POPC   C1B58099  17.365  11.943   6.469
 4381POPC   C2B58100  17.155  12.202   6.793
 4381POPC   C3B58101  17.255  12.235   7.250
 4381POPC   C4B58102  17.322  12.141   7.703
 4382POPC   NC358103  10.546   7.838   5.413
 4382POPC   PO458104  10.203   7.301   5.254
 4382POPC   GL158105  10.346   7.471   5.696
 4382POPC   GL258106  10.705   7.432   5.780
 4382POPC   C1A58107  10.325   7.467   6.193
 4382POPC   D2A58108  10.257   7.244   6.629
 4382POPC   C3A58109  10.246   7.425   7.105
 4382POPC   C4A58110  10.493   7.465   7.547
 4382POPC   C1B58111  10.840   7.420   6.222
 4382POPC   C2B58112  10.715   7.483   6.696
 4382POPC   C3B58113  10.759   7.328   7.158
 4382POPC   C4B58114  10.848   7.104   7.610
 4383POPC   NC358115  30.633   0.406   5.467
 4383POPC   PO458116  31.296   0.433   5.324
 4383POPC   GL158117  31.125   0.347   5.738
 4383POPC   GL258118  30.984   0.682   5.774
 4383POPC   C1A58119  30.876   0.244   6.142
 4383POPC   D2A58120  31.000   0.286   6.615
 4383POPC   C3A58121  30.682   0.318   6.968
 4383POPC   C4A58122  30.605   0.039   7.333
 4383POPC   C1B58123  31.090   0.688   6.211
 4383POPC   C2B58124  30.929   0.805   6.626
 4383POPC   C3B58125  31.054   0.664   7.032
 4383POPC   C4B58126  30.903   0.465   7.418
 4384POPC   NC358127   9.725  37.933   5.526
 4384POPC   PO458128  10.153  37.449   5.393
 4384POPC   GL158129   9.797  37.431   5.687
 4384POPC   GL258130   9.903  37.217   5.910
 4384POPC   C1A58131   9.628  37.609   6.098
 4384POPC   D2A58132   9.637  37.482   6.538
 4384POPC   C3A58133   9.675  37.761   6.894
 4384POPC   C4A58134   9.626  37.507   7.259
 4384POPC   C1B58135  10.118  37.533   6.206
 4384POPC   C2B58136  10.169  37.724   6.626
 4384POPC   C3B58137  10.126  37.566   7.037
 4384POPC   C4B58138  10.361  37.597   7.407
 4385POPC   NC358139  20.571  40.384   5.342
 4385POPC   PO458140  20.787  41.054   5.429
 4385POPC   GL158141  20.883  40.926   5.839
 4385POPC   GL258142  20.873  40.573   5.786
 4385POPC   C1A58143  20.805  40.797   6.271
 4385POPC   D2A58144  20.978  40.582   6.636
 4385POPC   C3A58145  20.856  40.776   7.011
 4385POPC   C4A58146  20.423  40.854   7.130
 4385POPC   C1B58147  20.494  40.484   6.016
 4385POPC   C2B58148  20.589  40.317   6.434
 4385POPC   C3B58149  20.488  40.424   6.841
 4385POPC   C4B58150  20.408  40.320   7.246
 4386POPC   NC358151   1.577  20.234   5.360
 4386POPC   PO458152   1.120  19.708   5.427
 4386POPC   GL158153   1.123  19.886   5.815
 4386POPC   GL258154   1.055  19.534   5.900
 4386POPC   C1A58155   1.276  19.904   6.236
 4386POPC   D2A58156   1.175  20.100   6.641
 4386POPC   C3A58157   1.496  20.133   6.983
 4386POPC   C4A58158   1.599  19.740   7.206
 4386POPC   C1B58159   0.850  19.596   6.273
 4386POPC   C2B58160   1.112  19.543   6.607
 4386POPC   C3B58161   1.137  19.648   6.994
 4386POPC   C4B58162   1.014  20.014   7.135
 4387POPC   NC358163   1.342  12.368   5.353
 4387POPC   PO458164   1.037  12.972   5.528
 4387POPC   GL158165   1.330  12.766   5.815
 4387POPC   GL258166   1.612  12.497   5.819
 4387POPC   C1A58167   1.155  12.785   6.227
 4387POPC   D2A58168   1.336  13.012   6.558
 4387POPC   C3A58169   1.170  12.891   6.929
 4387POPC   C4A58170   1.298  13.021   7.330
 4387POPC   C1B58171   1.495  12.399   6.254
 4387POPC   C2B58172   1.543  12.501   6.725
 4387POPC   C3B58173   1.547  12.618   7.171
 4387POPC   C4B58174   1.370  12.604   7.632
 4388POPC   NC358175  19.564  17.076   5.180
 4388POPC   PO458176  19.978  16.637   5.460
 4388POPC   GL158177  19.875  16.817   5.840
 4388POPC   GL258178  20.162  17.090   5.843
 4388POPC   C1A58179  19.739  16.538   6.221
 4388POPC   D2A58180  19.739  16.333   6.655
 4388POPC   C3A58181  19.632  16.641   6.995
 4388POPC   C4A58182  19.780  16.697   7.451
 4388POPC   C1B58183  20.146  16.854   6.258
 4388POPC   C2B58184  19.909  16.906   6.627
 4388POPC   C3B58185  20.066  16.923   7.036
 4388POPC   C4B58186  20.080  17.187   7.341
 4389POPC   NC358187   3.068  38.712   5.446
 4389POPC   PO458188   2.553  38.404   5.138
 4389POPC   GL158189   2.646  38.445   5.637
 4389POPC   GL258190   2.944  38.282   5.771
 4389POPC   C1A58191   2.695  38.607   6.097
 4389POPC   D2A58192   2.698  38.870   6.520
 4389POPC   C3A58193   2.843  38.823   6.989
 4389POPC   C4A58194   2.858  38.594   7.405
 4389POPC   C1B58195   2.762  38.126   6.115
 4389POPC   C2B58196   2.748  38.329   6.530
 4389POPC   C3B58197   2.861  38.311   6.955
 4389POPC   C4B58198   2.471  38.340   7.171
 4390POPC   NC358199  39.547  17.159   5.096
 4390POPC   PO458200  39.264  17.651   5.536
 4390POPC   GL158201  39.063  17.392   5.834
 4390POPC   GL258202  39.305  17.184   5.856
 4390POPC   C1A58203  38.880  17.439   6.245
 4390POPC   D2A58204  38.991  17.452   6.701
 4390POPC   C3A58205  39.221  17.646   7.022
 4390POPC   C4A58206  39.538  17.925   7.162
 4390POPC   C1B58207  39.386  17.470   6.238
 4390POPC   C2B58208  39.522  17.346   6.672
 4390POPC   C3B58209  39.644  17.362   7.116
 4390POPC   C4B58210  39.304  17.235   7.378
 4391POPC   NC358211  38.910   4.769   5.466
 4391POPC   PO458212  38.980   5.531   5.319
 4391POPC   GL158213  39.202   5.177   5.631
 4391POPC   GL258214  39.341   5.378   5.817
 4391POPC   C1A58215  39.352   4.951   6.100
 4391POPC   D2A58216  39.472   5.033   6.558
 4391POPC   C3A58217  39.209   4.808   6.866
 4391POPC   C4A58218  38.964   4.898   7.228
 4391POPC   C1B58219  39.460   5.450   6.187
 4391POPC   C2B58220  39.214   5.498   6.523
 4391POPC   C3B58221  39.333   5.522   6.907
 4391POPC   C4B58222  39.169   5.419   7.272
 4392POPC   NC358223  30.910  30.375   5.179
 4392POPC   PO458224  30.504  29.973   5.532
 4392POPC   GL158225  30.645  29.902   5.929
 4392POPC   GL258226  30.913  29.687   5.783
 4392POPC   C1A58227  30.598  30.046   6.353
 4392POPC   D2A58228  30.698  29.846   6.743
 4392POPC   C3A58229  30.486  30.011   7.119
 4392POPC   C4A58230  30.465  30.095   7.578
 4392POPC   C1B58231  31.112  29.423   6.108
 4392POPC   C2B58232  31.081  29.501   6.565
 4392POPC   C3B58233  30.972  29.504   7.014
 4392POPC   C4B58234  30.803  29.705   7.372
 4393POPC   NC358235  30.187  20.010   5.329
 4393POPC   PO458236  29.607  19.727   5.417
 4393POPC   GL158237  29.928  19.875   5.763
 4393POPC   GL258238  29.984  20.221   5.756
 4393POPC   C1A58239  30.025  19.809   6.212
 4393POPC   D2A58240  29.737  19.591   6.542
 4393POPC   C3A58241  29.817  19.614   7.004
 4393POPC   C4A58242  29.573  19.529   7.385
 4393POPC   C1B58243  29.792  20.254   6.190
 4393POPC   C2B58244  29.773  20.098   6.634
 4393POPC   C3B58245  30.022  20.077   7.021
 4393POPC   C4B58246  29.811  20.149   7.416
 4394POPC   NC358247  18.617  30.645   5.522
 4394POPC   PO458248  18.182  31.079   5.377
 4394POPC   GL158249  18.202  30.791   5.782
 4394POPC   GL258250  18.100  30.440   5.691
 4394POPC   C1A58251  18.482  30.708   6.213
 4394POPC   D2A58252  18.490  30.464   6.648
 4394POPC   C3A58253  18.534  30.667   7.100
 4394POPC   C4A58254  18.568  30.617   7.588
 4394POPC   C1B58255  18.173  30.325   6.127
 4394POPC   C2B58256  17.971  30.426   6.497
 4394POPC   C3B58257  18.054  30.569   6.906
 4394POPC   C4B58258  18.162  30.308   7.216
 4395POPC   NC358259  38.527  35.084   5.361
 4395POPC   PO458260  38.674  34.394   5.323
 4395POPC   GL158261  38.602  34.651   5.663
 4395POPC   GL258262  38.306  34.574   5.804
 4395POPC   C1A58263  38.718  34.632   6.104
 4395POPC   D2A58264  38.794  34.544   6.539
 4395POPC   C3A58265  38.479  34.586   6.851
 4395POPC   C4A58266  38.634  34.483   7.256
 4395POPC   C1B58267  38.269  34.930   6.085
 4395POPC   C2B58268  38.037  35.005   6.478
 4395POPC   C3B58269  38.148  34.998   6.919
 4395POPC   C4B58270  38.146  34.679   7.243
 4396POPC   NC358271   2.322  37.303   5.651
 4396POPC   PO458272   2.674  36.740   5.423
 4396POPC   GL158273   2.790  36.881   5.801
 4396POPC   GL258274   2.927  36.593   5.964
 4396POPC   C1A58275   2.622  36.919   6.217
 4396POPC   D2A58276   2.754  37.088   6.594
 4396POPC   C3A58277   2.564  36.992   7.005
 4396POPC   C4A58278   2.829  37.057   7.344
 4396POPC   C1B58279   2.678  36.432   6.321
 4396POPC   C2B58280   2.663  36.584   6.739
 4396POPC   C3B58281   2.820  36.563   7.175
 4396POPC   C4B58282   2.551  36.646   7.576
 4397POPC   NC358283  14.680  11.574   5.371
 4397POPC   PO458284  14.249  11.067   5.354
 4397POPC   GL158285  14.382  11.321   5.730
 4397POPC   GL258286  14.738  11.238   5.800
 4397POPC   C1A58287  14.460  11.397   6.194
 4397POPC   D2A58288  14.222  11.436   6.592
 4397POPC   C3A58289  14.368  11.427   7.022
 4397POPC   C4A58290  13.986  11.513   7.255
 4397POPC   C1B58291  14.683  10.928   6.165
 4397POPC   C2B58292  14.403  10.968   6.524
 4397POPC   C3B58293  14.545  10.932   6.943
 4397POPC   C4B58294  14.642  11.073   7.363
 4398POPC   NC358295  14.173  10.625   5.200
 4398POPC   PO458296  14.772  10.410   5.434
 4398POPC   GL158297  14.629  10.527   5.822
 4398POPC   GL258298  14.449  10.804   5.739
 4398POPC   C1A58299  14.543  10.366   6.232
 4398POPC   D2A58300  14.735  10.582   6.558
 4398POPC   C3A58301  14.565  10.402   6.888
 4398POPC   C4A58302  14.551  10.528   7.250
 4398POPC   C1B58303  14.223  10.714   6.121
 4398POPC   C2B58304  14.150  10.544   6.572
 4398POPC   C3B58305  14.074  10.541   7.023
 4398POPC   C4B58306  14.106  10.326   7.413
 4399POPC   NC358307  33.983   3.222   5.586
 4399POPC   PO458308  34.074   3.837   5.338
 4399POPC   GL158309  33.756   3.821   5.693
 4399POPC   GL258310  33.602   3.514   5.804
 4399POPC   C1A58311  33.878   3.731   6.155
 4399POPC   D2A58312  34.065   3.927   6.522
 4399POPC   C3A58313  33.941   3.750   6.920
 4399POPC   C4A58314  34.105   3.470   7.230
 4399POPC   C1B58315  33.479   3.353   6.192
 4399POPC   C2B58316  33.687   3.466   6.563
 4399POPC   C3B58317  33.774   3.230   6.917
 4399POPC   C4B58318  33.588   3.461   7.234
 4400POPC   NC358319   8.425  29.270   5.145
 4400POPC   PO458320   7.941  29.396   5.608
 4400POPC   GL158321   8.065  29.152   5.888
 4400POPC   GL258322   8.414  29.043   5.818
 4400POPC   C1A58323   8.008  29.251   6.295
 4400POPC   D2A58324   8.224  29.302   6.694
 4400POPC   C3A58325   7.978  29.329   7.067
 4400POPC   C4A58326   7.925  29.607   7.426
 4400POPC   C1B58327   8.304  28.855   6.225
 4400POPC   C2B58328   8.111  28.817   6.622
 4400POPC   C3B58329   8.315  28.900   7.025
 4400POPC   C4B58330   8.601  29.167   7.226
 4401POPC   NC358331   4.442  17.897   5.521
 4401POPC   PO458332   4.226  18.522   5.382
 4401POPC   GL158333   4.191  18.262   5.776
 4401POPC   GL258334   4.571  18.247   5.877
 4401POPC   C1A58335   4.213  18.247   6.230
 4401POPC   D2A58336   4.450  18.405   6.557
 4401POPC   C3A58337   4.153  18.534   6.831
 4401POPC   C4A58338   4.224  18.608   7.246
 4401POPC   C1B58339   4.660  18.010   6.273
 4401POPC   C2B58340   4.402  17.902   6.629
 4401POPC   C3B58341   4.337  18.108   7.011
 4401POPC   C4B58342   4.585  18.266   7.345
 4402POPC   NC358343  20.964   4.443   5.576
 4402POPC   PO458344  20.524   3.877   5.504
 4402POPC   GL158345  20.285   4.068   5.839
 4402POPC   GL258346  20.441   4.365   5.695
 4402POPC   C1A58347  20.259   4.064   6.318
 4402POPC   D2A58348  20.562   4.093   6.632
 4402POPC   C3A58349  20.507   4.281   7.029
 4402POPC   C4A58350  20.610   4.228   7.455
 4402POPC   C1B58351  20.515   4.448   6.138
 4402POPC   C2B58352  20.371   4.560   6.570
 4402POPC   C3B58353  20.147   4.633   6.950
 4402POPC   C4B58354  20.337   4.641   7.389
 4403POPC   NC358355   5.357  30.233   5.377
 4403POPC   PO458356   4.798  29.751   5.411
 4403POPC   GL158357   4.939  29.721   5.818
 4403POPC   GL258358   5.272  29.874   5.750
 4403POPC   C1A58359   4.780  29.681   6.255
 4403POPC   D2A58360   4.698  29.767   6.688
 4403POPC   C3A58361   4.985  29.730   7.029
 4403POPC   C4A58362   4.939  29.826   7.453
 4403POPC   C1B58363   5.182  30.048   6.153
 4403POPC   C2B58364   5.188  29.940   6.591
 4403POPC   C3B58365   5.482  29.853   6.940
 4403POPC   C4B58366   5.449  29.799   7.377
 4404POPC   NC358367   0.104  26.202   5.676
 4404POPC   PO458368  44.526  25.881   5.414
 4404POPC   GL158369  44.658  25.966   5.815
 4404POPC   GL258370  44.585  26.328   5.767
 4404POPC   C1A58371  44.511  25.940   6.245
 4404POPC   D2A58372  44.690  25.853   6.641
 4404POPC   C3A58373  44.571  26.179   6.894
 4404POPC   C4A58374  44.579  26.346   7.286
 4404POPC   C1B58375  44.681  26.442   6.202
 4404POPC   C2B58376  44.939  26.541   6.558
 4404POPC   C3B58377  44.956  26.583   7.004
 4404POPC   C4B58378   0.003  26.544   7.461
 4405POPC   NC358379  44.436   7.028   5.669
 4405POPC   PO458380  44.791   6.551   5.196
 4405POPC   GL158381  44.748   6.632   5.673
 4405POPC   GL258382  44.379   6.517   5.734
 4405POPC   C1A58383  44.787   6.812   6.144
 4405POPC   D2A58384  44.695   6.718   6.577
 4405POPC   C3A58385  44.842   6.923   6.950
 4405POPC   C4A58386  44.830   6.581   7.264
 4405POPC   C1B58387  44.429   6.416   6.190
 4405POPC   C2B58388  44.278   6.408   6.651
 4405POPC   C3B58389  44.336   6.488   7.098
 4405POPC   C4B58390  44.429   6.562   7.556
 4406POPC   NC358391  44.946   0.768   5.371
 4406POPC   PO458392   0.035   0.093   5.433
 4406POPC   GL158393  44.700   0.315   5.736
 4406POPC   GL258394  44.740   0.687   5.824
 4406POPC   C1A58395  44.486   0.400   6.157
 4406POPC   D2A58396  44.469   0.171   6.530
 4406POPC   C3A58397  44.756   0.252   6.848
 4406POPC   C4A58398  44.567   0.226   7.223
 4406POPC   C1B58399  44.943   0.620   6.225
 4406POPC   C2B58400  44.673   0.671   6.580
 4406POPC   C3B58401  44.433   0.645   6.970
 4406POPC   C4B58402  44.542   0.694   7.433
 4407POPC   NC358403  16.579   3.276   5.314
 4407POPC   PO458404  17.055   3.688   5.325
 4407POPC   GL158405  16.860   3.610   5.717
 4407POPC   GL258406  16.493   3.599   5.725
 4407POPC   C1A58407  16.872   3.462   6.139
 4407POPC   D2A58408  17.030   3.263   6.513
 4407POPC   C3A58409  16.867   3.400   6.926
 4407POPC   C4A58410  17.045   3.675   7.238
 4407POPC   C1B58411  16.354   3.419   6.149
 4407POPC   C2B58412  16.457   3.340   6.600
 4407POPC   C3B58413  16.321   3.438   7.057
 4407POPC   C4B58414  16.263   3.461   7.548
 4408POPC   NC358415  42.107  17.597   5.534
 4408POPC   PO458416  42.769  17.243   5.467
 4408POPC   GL158417  42.453  17.301   5.859
 4408POPC   GL258418  42.057  17.263   5.908
 4408POPC   C1A58419  42.348  17.427   6.323
 4408POPC   D2A58420  42.372  17.826   6.604
 4408POPC   C3A58421  42.472  17.749   7.052
 4408POPC   C4A58422  42.387  17.316   7.244
 4408POPC   C1B58423  41.927  17.652   6.152
 4408POPC   C2B58424  41.876  17.685   6.575
 4408POPC   C3B58425  42.019  17.539   6.971
 4408POPC   C4B58426  41.950  17.640   7.421
 4409POPC   NC358427  39.437  33.500   5.370
 4409POPC   PO458428  39.004  33.966   5.713
 4409POPC   GL158429  39.268  33.613   5.860
 4409POPC   GL258430  39.154  33.294   5.750
 4409POPC   C1A58431  39.423  33.488   6.276
 4409POPC   D2A58432  39.583  33.452   6.716
 4409POPC   C3A58433  39.361  33.721   6.996
 4409POPC   C4A58434  39.483  34.107   7.206
 4409POPC   C1B58435  38.932  33.337   6.174
 4409POPC   C2B58436  38.937  33.596   6.554
 4409POPC   C3B58437  38.858  33.532   6.992
 4409POPC   C4B58438  38.944  33.383   7.398
 4410POPC   NC358439  33.928   2.618   5.176
 4410POPC   PO458440  33.521   3.145   5.488
 4410POPC   GL158441  33.794   2.772   5.703
 4410POPC   GL258442  33.767   2.986   5.977
 4410POPC   C1A58443  33.946   2.529   6.101
 4410POPC   D2A58444  34.157   2.614   6.488
 4410POPC   C3A58445  34.119   2.414   6.876
 4410POPC   C4A58446  34.116   2.408   7.292
 4410POPC   C1B58447  33.819   2.995   6.410
 4410POPC   C2B58448  33.649   2.737   6.719
 4410POPC   C3B58449  33.758   2.708   7.127
 4410POPC   C4B58450  33.966   2.986   7.387
 4411POPC   NC358451  31.171  21.366   5.479
 4411POPC   PO458452  30.557  21.284   5.481
 4411POPC   GL158453  30.562  21.103   5.889
 4411POPC   GL258454  30.586  21.433   6.000
 4411POPC   C1A58455  30.803  21.079   6.296
 4411POPC   D2A58456  30.721  21.194   6.708
 4411POPC   C3A58457  30.859  21.164   7.104
 4411POPC   C4A58458  30.501  21.175   7.294
 4411POPC   C1B58459  30.351  21.341   6.367
 4411POPC   C2B58460  30.373  21.562   6.763
 4411POPC   C3B58461  30.639  21.643   7.131
 4411POPC   C4B58462  30.468  21.861   7.502
 4412POPC   NC358463  17.934  23.593   5.459
 4412POPC   PO458464  18.420  24.108   5.337
 4412POPC   GL158465  18.226  23.903   5.728
 4412POPC   GL258466  17.918  24.089   5.727
 4412POPC   C1A58467  18.282  23.599   6.104
 4412POPC   D2A58468  18.489  23.454   6.503
 4412POPC   C3A58469  18.468  23.623   6.931
 4412POPC   C4A58470  18.279  23.746   7.352
 4412POPC   C1B58471  17.975  24.016   6.168
 4412POPC   C2B58472  18.081  23.802   6.539
 4412POPC   C3B58473  18.065  23.958   6.929
 4412POPC   C4B58474  18.085  24.206   7.296
 4413POPC   NC358475  41.114  23.484   5.479
 4413POPC   PO458476  40.585  23.919   5.371
 4413POPC   GL158477  40.812  23.901   5.760
 4413POPC   GL258478  41.119  24.020   5.868
 4413POPC   C1A58479  40.647  23.948   6.197
 4413POPC   D2A58480  40.594  23.721   6.603
 4413POPC   C3A58481  40.692  23.930   6.991
 4413POPC   C4A58482  40.956  24.117   7.315
 4413POPC   C1B58483  41.029  23.641   6.159
 4413POPC   C2B58484  41.115  23.706   6.607
 4413POPC   C3B58485  41.211  23.750   7.044
 4413POPC   C4B58486  40.898  23.561   7.271
 4414POPC   NC358487  37.043  41.066   5.359
 4414POPC   PO458488  36.541  40.688   5.340
 4414POPC   GL158489  36.675  40.910   5.730
 4414POPC   GL258490  37.027  40.768   5.793
 4414POPC   C1A58491  36.767  40.974   6.201
 4414POPC   D2A58492  36.954  40.805   6.624
 4414POPC   C3A58493  36.745  40.795   7.051
 4414POPC   C4A58494  36.703  40.702   7.526
 4414POPC   C1B58495  37.099  40.531   6.188
 4414POPC   C2B58496  37.321  40.340   6.526
 4414POPC   C3B58497  37.484  40.526   6.872
 4414POPC   C4B58498  37.229  40.678   7.218
 4415POPC   NC358499  29.479   4.909   5.237
 4415POPC   PO458500  30.096   4.749   5.558
 4415POPC   GL158501  29.909   5.094   5.806
 4415POPC   GL258502  29.833   5.450   5.737
 4415POPC   C1A58503  29.896   5.046   6.232
 4415POPC   D2A58504  30.119   4.887   6.565
 4415POPC   C3A58505  29.908   4.757   6.918
 4415POPC   C4A58506  29.985   4.859   7.331
 4415POPC   C1B58507  29.602   5.484   6.136
 4415POPC   C2B58508  29.699   5.354   6.589
 4415POPC   C3B58509  29.877   5.288   7.027
 4415POPC   C4B58510  29.781   5.274   7.482
 4416POPC   NC358511  16.640  20.406   5.141
 4416POPC   PO458512  16.865  20.953   5.390
 4416POPC   GL158513  17.030  20.687   5.732
 4416POPC   GL258514  16.851  20.358   5.782
 4416POPC   C1A58515  17.015  20.663   6.184
 4416POPC   D2A58516  16.727  20.737   6.540
 4416POPC   C3A58517  16.869  20.908   6.923
 4416POPC   C4A58518  16.994  20.710   7.299
 4416POPC   C1B58519  16.679  20.307   6.246
 4416POPC   C2B58520  16.725  20.068   6.613
 4416POPC   C3B58521  16.777  20.391   6.929
 4416POPC   C4B58522  16.503  20.615   7.211
 4417POPC   NC358523  12.047   4.795   5.529
 4417POPC   PO458524  11.856   5.435   5.583
 4417POPC   GL158525  11.940   5.081   5.932
 4417POPC   GL258526  12.256   4.853   5.973
 4417POPC   C1A58527  11.956   4.907   6.370
 4417POPC   D2A58528  12.120   5.197   6.659
 4417POPC   C3A58529  11.865   5.308   6.986
 4417POPC   C4A58530  11.867   5.248   7.409
 4417POPC   C1B58531  12.502   4.828   6.345
 4417POPC   C2B58532  12.386   4.721   6.763
 4417POPC   C3B58533  12.281   4.976   7.115
 4417POPC   C4B58534  12.303   5.067   7.556
 4418POPC   NC358535  19.748   4.090   5.329
 4418POPC   PO458536  20.069   4.677   5.329
 4418POPC   GL158537  19.936   4.432   5.686
 4418POPC   GL258538  19.759   4.162   5.831
 4418POPC   C1A58539  19.997   4.489   6.158
 4418POPC   D2A58540  19.898   4.323   6.581
 4418POPC   C3A58541  19.629   4.552   6.868
 4418POPC   C4A58542  19.761   4.666   7.278
 4418POPC   C1B58543  19.526   3.939   6.134
 4418POPC   C2B58544  19.424   4.093   6.536
 4418POPC   C3B58545  19.607   4.052   6.933
 4418POPC   C4B58546  19.503   3.985   7.342
 4419POPC   NC358547  22.692   2.033   5.511
 4419POPC   PO458548  22.103   1.890   5.274
 4419POPC   GL158549  22.012   2.011   5.723
 4419POPC   GL258550  22.287   2.207   5.799
 4419POPC   C1A58551  22.042   1.846   6.161
 4419POPC   D2A58552  22.231   1.757   6.575
 4419POPC   C3A58553  21.994   1.824   6.944
 4419POPC   C4A58554  21.800   2.178   7.080
 4419POPC   C1B58555  22.467   2.113   6.213
 4419POPC   C2B58556  22.583   2.238   6.606
 4419POPC   C3B58557  22.468   2.092   6.986
 4419POPC   C4B58558  22.666   1.962   7.360
 4420POPC   NC358559  17.050   1.462   5.428
 4420POPC   PO458560  17.516   0.974   5.354
 4420POPC   GL158561  17.438   1.238   5.705
 4420POPC   GL258562  17.722   1.424   5.843
 4420POPC   C1A58563  17.379   1.122   6.143
 4420POPC   D2A58564  17.563   1.005   6.527
 4420POPC   C3A58565  17.389   0.999   6.950
 4420POPC   C4A58566  17.580   1.060   7.359
 4420POPC   C1B58567  17.860   1.324   6.259
 4420POPC   C2B58568  17.745   1.549   6.628
 4420POPC   C3B58569  17.612   1.461   7.032
 4420POPC   C4B58570  17.768   1.580   7.462
 4421POPC   NC358571  18.127  24.488   5.387
 4421POPC   PO458572  18.510  24.291   5.865
 4421POPC   GL158573  18.120  24.517   5.895
 4421POPC   GL258574  18.115  24.842   5.752
 4421POPC   C1A58575  17.887  24.561   6.252
 4421POPC   D2A58576  18.091  24.327   6.570
 4421POPC   C3A58577  18.314  24.439   6.916
 4421POPC   C4A58578  18.544  24.107   7.086
 4421POPC   C1B58579  18.281  24.921   6.140
 4421POPC   C2B58580  18.263  24.812   6.539
 4421POPC   C3B58581  18.377  24.944   6.912
 4421POPC   C4B58582  18.353  24.866   7.328
 4422POPC   NC358583   8.230  36.193   5.319
 4422POPC   PO458584   8.390  35.576   5.138
 4422POPC   GL158585   8.031  35.780   5.574
 4422POPC   GL258586   8.091  36.120   5.791
 4422POPC   C1A58587   8.036  35.753   6.121
 4422POPC   D2A58588   8.117  36.075   6.488
 4422POPC   C3A58589   8.013  36.030   6.966
 4422POPC   C4A58590   8.001  36.006   7.473
 4422POPC   C1B58591   8.476  36.160   6.059
 4422POPC   C2B58592   8.688  36.183   6.471
 4422POPC   C3B58593   8.482  36.233   6.861
 4422POPC   C4B58594   8.326  36.362   7.263
 4423POPC   NC358595  16.942  12.930   5.396
 4423POPC   PO458596  17.279  12.411   5.603
 4423POPC   GL158597  16.955  12.654   5.850
 4423POPC   GL258598  16.943  13.042   5.910
 4423POPC   C1A58599  16.533  12.709   6.097
 4423POPC   D2A58600  16.322  12.802   6.515
 4423POPC   C3A58601  16.490  12.661   6.936
 4423POPC   C4A58602  16.782  12.864   7.224
 4423POPC   C1B58603  16.972  12.810   6.338
 4423POPC   C2B58604  17.010  12.700   6.775
 4423POPC   C3B58605  17.271  12.738   7.148
 4423POPC   C4B58606  17.109  12.630   7.543
 4424POPC   NC358607  38.654  14.874   5.428
 4424POPC   PO458608  38.265  15.384   5.365
 4424POPC   GL158609  38.425  15.243   5.747
 4424POPC   GL258610  38.299  14.901   5.794
 4424POPC   C1A58611  38.542  15.278   6.191
 4424POPC   D2A58612  38.348  15.336   6.589
 4424POPC   C3A58613  38.583  15.140   6.916
 4424POPC   C4A58614  38.669  15.239   7.337
 4424POPC   C1B58615  38.082  15.042   6.186
 4424POPC   C2B58616  37.974  14.972   6.649
 4424POPC   C3B58617  38.075  15.053   7.106
 4424POPC   C4B58618  38.161  14.823   7.509
 4425POPC   NC358619  13.903   6.706   5.274
 4425POPC   PO458620  13.302   6.581   5.441
 4425POPC   GL158621  13.506   6.579   5.831
 4425POPC   GL258622  13.798   6.796   5.781
 4425POPC   C1A58623  13.612   6.687   6.255
 4425POPC   D2A58624  13.861   6.587   6.603
 4425POPC   C3A58625  13.597   6.296   6.834
 4425POPC   C4A58626  13.561   6.244   7.276
 4425POPC   C1B58627  14.003   7.043   6.115
 4425POPC   C2B58628  14.202   7.047   6.539
 4425POPC   C3B58629  13.992   6.970   6.940
 4425POPC   C4B58630  13.851   6.631   7.164
 4426POPC   NC358631  32.299   3.324   5.433
 4426POPC   PO458632  32.370   4.066   5.488
 4426POPC   GL158633  32.303   3.725   5.794
 4426POPC   GL258634  32.604   3.503   5.817
 4426POPC   C1A58635  32.280   3.685   6.250
 4426POPC   D2A58636  32.310   3.880   6.681
 4426POPC   C3A58637  32.215   3.582   7.032
 4426POPC   C4A58638  32.119   3.323   7.408
 4426POPC   C1B58639  32.479   3.162   6.085
 4426POPC   C2B58640  32.463   3.271   6.516
 4426POPC   C3B58641  32.734   3.222   6.858
 4426POPC   C4B58642  32.604   3.297   7.272
 4427POPC   NC358643  41.830  23.991   5.561
 4427POPC   PO458644  42.307  23.471   5.342
 4427POPC   GL158645  42.296  23.713   5.738
 4427POPC   GL258646  42.025  23.589   5.885
 4427POPC   C1A58647  42.534  23.953   6.070
 4427POPC   D2A58648  42.503  23.792   6.489
 4427POPC   C3A58649  42.702  23.936   6.867
 4427POPC   C4A58650  42.539  23.781   7.235
 4427POPC   C1B58651  42.009  23.618   6.351
 4427POPC   C2B58652  42.109  23.739   6.806
 4427POPC   C3B58653  42.074  23.653   7.260
 4427POPC   C4B58654  42.029  23.547   7.705
 4428POPC   NC358655  28.171  28.194   5.303
 4428POPC   PO458656  28.814  28.255   5.502
 4428POPC   GL158657  28.559  28.388   5.855
 4428POPC   GL258658  28.253  28.512   5.721
 4428POPC   C1A58659  28.456  28.347   6.316
 4428POPC   D2A58660  28.234  28.138   6.679
 4428POPC   C3A58661  28.477  28.142   7.047
 4428POPC   C4A58662  28.423  28.552   7.174
 4428POPC   C1B58663  28.200  28.713   6.099
 4428POPC   C2B58664  28.093  28.640   6.508
 4428POPC   C3B58665  28.014  28.577   6.894
 4428POPC   C4B58666  27.962  28.220   7.141
 4429POPC   NC358667  42.277   1.353   5.303
 4429POPC   PO458668  42.115   0.716   5.431
 4429POPC   GL158669  42.302   1.007   5.782
 4429POPC   GL258670  42.132   1.295   5.781
 4429POPC   C1A58671  42.399   1.014   6.247
 4429POPC   D2A58672  42.311   0.768   6.662
 4429POPC   C3A58673  42.250   1.005   7.026
 4429POPC   C4A58674  42.301   1.458   7.083
 4429POPC   C1B58675  41.921   1.112   6.119
 4429POPC   C2B58676  41.994   1.163   6.548
 4429POPC   C3B58677  41.823   1.302   6.908
 4429POPC   C4B58678  41.855   1.125   7.343
 4430POPC   NC358679   9.597  35.489   5.545
 4430POPC   PO458680  10.039  34.969   5.504
 4430POPC   GL158681   9.961  35.269   5.909
 4430POPC   GL258682   9.814  35.644   5.959
 4430POPC   C1A58683   9.715  35.333   6.330
 4430POPC   D2A58684   9.404  35.446   6.623
 4430POPC   C3A58685   9.537  35.202   6.921
 4430POPC   C4A58686   9.927  35.162   7.114
 4430POPC   C1B58687   9.502  35.808   6.253
 4430POPC   C2B58688   9.543  35.943   6.694
 4430POPC   C3B58689   9.557  35.712   7.053
 4430POPC   C4B58690   9.911  35.663   7.277
 4431POPC   NC358691  15.296  44.016   5.270
 4431POPC   PO458692  15.268  44.679   5.425
 4431POPC   GL158693  15.098  44.768   5.823
 4431POPC   GL258694  15.416  44.891   5.880
 4431POPC   C1A58695  15.130  44.667   6.277
 4431POPC   D2A58696  15.274  44.458   6.663
 4431POPC   C3A58697  15.063  44.439   7.075
 4431POPC   C4A58698  14.813  44.784   7.163
 4431POPC   C1B58699  15.362   0.105   6.250
 4431POPC   C2B58700  15.427  44.934   6.638
 4431POPC   C3B58701  15.280  44.943   7.038
 4431POPC   C4B58702  15.288   0.230   7.392
 4432POPC   NC358703  43.088  38.181   5.417
 4432POPC   PO458704  42.675  38.805   5.419
 4432POPC   GL158705  42.870  38.612   5.806
 4432POPC   GL258706  42.828  38.265   5.872
 4432POPC   C1A58707  43.109  38.545   6.224
 4432POPC   D2A58708  43.275  38.686   6.671
 4432POPC   C3A58709  43.413  38.442   7.053
 4432POPC   C4A58710  43.327  38.453   7.564
 4432POPC   C1B58711  42.983  38.038   6.278
 4432POPC   C2B58712  43.052  38.125   6.735
 4432POPC   C3B58713  42.895  38.419   7.041
 4432POPC   C4B58714  42.775  38.559   7.451
 4433POPC   NC358715  31.090  36.957   5.427
 4433POPC   PO458716  31.768  37.010   5.449
 4433POPC   GL158717  31.496  37.006   5.777
 4433POPC   GL258718  31.296  36.714   5.868
 4433POPC   C1A58719  31.427  37.119   6.204
 4433POPC   D2A58720  31.356  36.926   6.611
 4433POPC   C3A58721  31.455  37.138   7.017
 4433POPC   C4A58722  31.265  37.093   7.449
 4433POPC   C1B58723  31.635  36.628   6.145
 4433POPC   C2B58724  31.627  36.460   6.558
 4433POPC   C3B58725  31.525  36.611   6.977
 4433POPC   C4B58726  31.668  36.786   7.354
 4434POPC   NC358727  42.060  16.078   5.190
 4434POPC   PO458728  42.342  15.671   5.643
 4434POPC   GL158729  42.325  15.566   6.049
 4434POPC   GL258730  42.051  15.814   6.074
 4434POPC   C1A58731  42.326  15.680   6.480
 4434POPC   D2A58732  42.172  16.089   6.586
 4434POPC   C3A58733  42.046  16.069   7.002
 4434POPC   C4A58734  42.215  15.755   7.282
 4434POPC   C1B58735  42.492  16.042   6.159
 4434POPC   C2B58736  42.704  16.157   6.544
 4434POPC   C3B58737  42.552  16.024   6.929
 4434POPC   C4B58738  42.420  16.240   7.308
 4435POPC   NC358739  44.793  11.813   5.643
 4435POPC   PO458740  44.605  11.210   5.430
 4435POPC   GL158741  44.573  11.349   5.838
 4435POPC   GL258742  44.923  11.335   5.870
 4435POPC   C1A58743  44.571  11.232   6.271
 4435POPC   D2A58744  44.912  11.116   6.575
 4435POPC   C3A58745  44.786  11.230   6.989
 4435POPC   C4A58746  44.915  11.408   7.349
 4435POPC   C1B58747  44.976  11.537   6.245
 4435POPC   C2B58748  44.842  11.639   6.661
 4435POPC   C3B58749  44.955  11.869   7.022
 4435POPC   C4B58750   0.176  11.841   7.404
 4436POPC   NC358751  38.978  27.911   5.499
 4436POPC   PO458752  39.652  27.913   5.213
 4436POPC   GL158753  39.562  27.856   5.707
 4436POPC   GL258754  39.425  27.495   5.809
 4436POPC   C1A58755  39.309  27.873   6.127
 4436POPC   D2A58756  39.342  27.671   6.542
 4436POPC   C3A58757  39.390  27.788   6.976
 4436POPC   C4A58758  39.217  28.014   7.350
 4436POPC   C1B58759  39.161  27.294   6.187
 4436POPC   C2B58760  38.978  27.361   6.636
 4436POPC   C3B58761  39.276  27.286   6.942
 4436POPC   C4B58762  39.125  27.127   7.299
 4437POPC   NC358763  10.097   6.419   5.540
 4437POPC   PO458764   9.551   6.549   5.159
 4437POPC   GL158765   9.589   6.746   5.643
 4437POPC   GL258766   9.866   6.725   5.895
 4437POPC   C1A58767   9.439   6.695   6.125
 4437POPC   D2A58768   9.517   6.443   6.540
 4437POPC   C3A58769   9.543   6.672   6.947
 4437POPC   C4A58770   9.431   6.975   7.266
 4437POPC   C1B58771   9.939   6.834   6.361
 4437POPC   C2B58772  10.000   6.545   6.728
 4437POPC   C3B58773  10.062   6.412   7.153
 4437POPC   C4B58774  10.123   6.625   7.546
 4438POPC   NC358775  34.705  36.294   5.432
 4438POPC   PO458776  34.015  36.144   5.473
 4438POPC   GL158777  34.295  36.189   5.840
 4438POPC   GL258778  34.633  36.038   5.862
 4438POPC   C1A58779  34.381  36.259   6.295
 4438POPC   D2A58780  34.374  36.243   6.737
 4438POPC   C3A58781  34.688  35.986   6.929
 4438POPC   C4A58782  34.723  36.120   7.297
 4438POPC   C1B58783  34.850  36.347   6.120
 4438POPC   C2B58784  34.886  36.273   6.550
 4438POPC   C3B58785  34.819  36.500   6.917
 4438POPC   C4B58786  34.960  36.585   7.357
 4439POPC   NC358787  43.367  11.241   5.536
 4439POPC   PO458788  42.699  11.038   5.562
 4439POPC   GL158789  42.832  11.257   5.934
 4439POPC   GL258790  43.178  11.308   6.000
 4439POPC   C1A58791  42.823  11.345   6.393
 4439POPC   D2A58792  43.204  11.365   6.679
 4439POPC   C3A58793  43.028  11.279   7.061
 4439POPC   C4A58794  42.731  11.612   7.182
 4439POPC   C1B58795  43.171  10.983   6.315
 4439POPC   C2B58796  43.469  10.906   6.608
 4439POPC   C3B58797  43.484  11.000   7.028
 4439POPC   C4B58798  43.276  10.687   7.248
 4440POPC   NC358799  39.716  17.708   5.648
 4440POPC   PO458800  40.154  17.282   5.316
 4440POPC   GL158801  40.111  17.396   5.753
 4440POPC   GL258802  39.808  17.241   5.829
 4440POPC   C1A58803  40.310  17.402   6.186
 4440POPC   D2A58804  40.493  17.437   6.630
 4440POPC   C3A58805  40.201  17.549   6.994
 4440POPC   C4A58806  39.998  17.786   7.337
 4440POPC   C1B58807  39.832  17.228   6.267
 4440POPC   C2B58808  40.087  16.991   6.527
 4440POPC   C3B58809  40.219  17.034   6.931
 4440POPC   C4B58810  39.958  16.986   7.271
 4441POPC   NC358811  11.419  26.771   5.347
 4441POPC   PO458812  11.028  27.153   5.574
 4441POPC   GL158813  11.119  26.733   5.801
 4441POPC   GL258814  10.887  26.468   5.690
 4441POPC   C1A58815  11.282  26.662   6.256
 4441POPC   D2A58816  11.205  26.578   6.710
 4441POPC   C3A58817  11.307  26.945   6.998
 4441POPC   C4A58818  11.147  26.985   7.446
 4441POPC   C1B58819  10.791  26.510   6.174
 4441POPC   C2B58820  10.675  26.562   6.646
 4441POPC   C3B58821  10.862  26.723   7.061
 4441POPC   C4B58822  11.261  26.508   7.249
 4442POPC   NC358823  44.254  42.162   5.454
 4442POPC   PO458824  43.604  42.412   5.419
 4442POPC   GL158825  43.897  42.381   5.765
 4442POPC   GL258826  43.870  42.067   5.903
 4442POPC   C1A58827  43.872  42.622   6.142
 4442POPC   D2A58828  43.831  42.452   6.531
 4442POPC   C3A58829  44.014  42.657   6.861
 4442POPC   C4A58830  43.782  42.574   7.184
 4442POPC   C1B58831  44.197  42.218   6.222
 4442POPC   C2B58832  44.241  42.197   6.693
 4442POPC   C3B58833  43.901  42.103   7.013
 4442POPC   C4B58834  43.795  42.102   7.465
 4443POPC   NC358835  23.681  43.026   5.298
 4443POPC   PO458836  24.158  43.413   5.481
 4443POPC   GL158837  23.855  43.161   5.789
 4443POPC   GL258838  23.464  43.034   5.760
 4443POPC   C1A58839  23.715  43.292   6.223
 4443POPC   D2A58840  23.714  43.212   6.674
 4443POPC   C3A58841  23.789  43.431   7.042
 4443POPC   C4A58842  24.101  43.212   7.234
 4443POPC   C1B58843  23.365  42.810   6.141
 4443POPC   C2B58844  23.371  42.782   6.571
 4443POPC   C3B58845  23.520  42.830   6.969
 4443POPC   C4B58846  23.292  42.714   7.332
 4444POPC   NC358847  20.490  24.968   5.562
 4444POPC   PO458848  20.831  25.505   5.330
 4444POPC   GL158849  20.889  25.335   5.749
 4444POPC   GL258850  20.961  25.658   5.892
 4444POPC   C1A58851  20.712  25.189   6.168
 4444POPC   D2A58852  20.731  24.973   6.571
 4444POPC   C3A58853  20.511  25.149   6.935
 4444POPC   C4A58854  20.732  25.224   7.305
 4444POPC   C1B58855  21.019  25.584   6.287
 4444POPC   C2B58856  20.739  25.506   6.624
 4444POPC   C3B58857  20.730  25.672   7.035
 4444POPC   C4B58858  20.735  25.685   7.510
 4445POPC   NC358859  36.475  41.888   5.401
 4445POPC   PO458860  35.987  41.452   5.344
 4445POPC   GL158861  36.249  41.548   5.718
 4445POPC   GL258862  35.951  41.679   5.789
 4445POPC   C1A58863  36.262  41.631   6.189
 4445POPC   D2A58864  36.192  41.693   6.643
 4445POPC   C3A58865  36.162  41.287   6.828
 4445POPC   C4A58866  36.449  41.193   7.162
 4445POPC   C1B58867  35.714  41.523   6.097
 4445POPC   C2B58868  35.759  41.445   6.514
 4445POPC   C3B58869  35.741  41.582   6.930
 4445POPC   C4B58870  36.079  41.631   7.198
 4446POPC   NC358871  39.951  27.630   5.435
 4446POPC   PO458872  40.267  28.195   5.663
 4446POPC   GL158873  40.126  27.792   5.907
 4446POPC   GL258874  39.964  27.413   5.881
 4446POPC   C1A58875  40.216  27.553   6.299
 4446POPC   D2A58876  40.487  27.287   6.572
 4446POPC   C3A58877  40.327  27.368   6.974
 4446POPC   C4A58878  40.134  27.729   7.181
 4446POPC   C1B58879  39.718  27.514   6.247
 4446POPC   C2B58880  39.847  27.499   6.704
 4446POPC   C3B58881  39.753  27.398   7.141
 4446POPC   C4B58882  39.442  27.512   7.441
 4447POPC   NC358883  17.321  25.081   5.384
 4447POPC   PO458884  17.700  25.613   5.454
 4447POPC   GL158885  17.311  25.547   5.721
 4447POPC   GL258886  17.309  25.219   5.908
 4447POPC   C1A58887  17.286  25.676   6.158
 4447POPC   D2A58888  17.639  25.504   6.413
 4447POPC   C3A58889  17.526  25.351   6.801
 4447POPC   C4A58890  17.332  25.425   7.167
 4447POPC   C1B58891  17.296  25.135   6.367
 4447POPC   C2B58892  17.090  25.043   6.762
 4447POPC   C3B58893  17.132  24.971   7.200
 4447POPC   C4B58894  17.517  24.992   7.391
 4448POPC   NC358895  36.721   2.466   5.301
 4448POPC   PO458896  36.333   2.970   5.532
 4448POPC   GL158897  36.674   2.712   5.730
 4448POPC   GL258898  36.915   2.929   5.752
 4448POPC   C1A58899  36.914   2.545   6.109
 4448POPC   D2A58900  36.826   2.524   6.567
 4448POPC   C3A58901  37.078   2.441   6.955
 4448POPC   C4A58902  36.896   2.526   7.377
 4448POPC   C1B58903  36.681   3.005   6.156
 4448POPC   C2B58904  36.843   3.040   6.564
 4448POPC   C3B58905  36.809   2.877   6.975
 4448POPC   C4B58906  37.169   2.937   7.198
 4449POPC   NC358907  43.823  12.523   5.672
 4449POPC   PO458908  43.857  11.872   5.391
 4449POPC   GL158909  43.763  11.973   5.800
 4449POPC   GL258910  43.464  11.723   5.832
 4449POPC   C1A58911  43.978  12.118   6.187
 4449POPC   D2A58912  43.887  12.352   6.562
 4449POPC   C3A58913  44.042  12.179   6.927
 4449POPC   C4A58914  43.800  12.241   7.272
 4449POPC   C1B58915  43.667  11.691   6.223
 4449POPC   C2B58916  43.858  11.821   6.615
 4449POPC   C3B58917  43.631  11.826   7.008
 4449POPC   C4B58918  43.455  11.483   7.258
 4450POPC   NC358919   2.712  25.655   5.415
 4450POPC   PO458920   3.128  26.123   5.447
 4450POPC   GL158921   2.815  26.217   5.796
 4450POPC   GL258922   2.509  25.980   5.815
 4450POPC   C1A58923   2.806  26.229   6.282
 4450POPC   D2A58924   2.797  25.960   6.687
 4450POPC   C3A58925   3.010  26.070   7.112
 4450POPC   C4A58926   3.223  26.046   7.527
 4450POPC   C1B58927   2.411  25.885   6.268
 4450POPC   C2B58928   2.354  25.682   6.676
 4450POPC   C3B58929   2.229  25.863   7.063
 4450POPC   C4B58930   2.503  26.179   7.158
 4451POPC   NC358931  11.689  35.104   5.416
 4451POPC   PO458932  11.609  35.733   5.286
 4451POPC   GL158933  11.422  35.534   5.656
 4451POPC   GL258934  11.669  35.528   5.914
 4451POPC   C1A58935  11.156  35.543   6.061
 4451POPC   D2A58936  11.179  35.431   6.519
 4451POPC   C3A58937  11.130  35.601   6.933
 4451POPC   C4A58938  11.107  35.397   7.322
 4451POPC   C1B58939  11.673  35.590   6.375
 4451POPC   C2B58940  11.664  35.524   6.831
 4451POPC   C3B58941  11.438  35.188   6.973
 4451POPC   C4B58942  11.270  34.905   7.229
 4452POPC   NC358943  28.277  32.203   5.345
 4452POPC   PO458944  28.918  32.113   5.398
 4452POPC   GL158945  28.592  32.069   5.751
 4452POPC   GL258946  28.354  32.295   5.873
 4452POPC   C1A58947  28.693  32.025   6.196
 4452POPC   D2A58948  28.661  32.268   6.570
 4452POPC   C3A58949  28.298  32.187   6.818
 4452POPC   C4A58950  28.371  32.091   7.231
 4452POPC   C1B58951  28.229  32.396   6.311
 4452POPC   C2B58952  28.300  32.682   6.670
 4452POPC   C3B58953  28.358  32.608   7.125
 4452POPC   C4B58954  28.554  32.611   7.533
 4453POPC   NC358955  34.865  34.800   5.400
 4453POPC   PO458956  34.251  34.417   5.470
 4453POPC   GL158957  34.432  34.438   5.897
 4453POPC   GL258958  34.749  34.505   5.795
 4453POPC   C1A58959  34.537  34.443   6.356
 4453POPC   D2A58960  34.434  34.214   6.742
 4453POPC   C3A58961  34.417  34.390   7.153
 4453POPC   C4A58962  34.307  34.662   7.480
 4453POPC   C1B58963  34.873  34.782   6.115
 4453POPC   C2B58964  34.720  34.901   6.504
 4453POPC   C3B58965  34.736  34.634   6.835
 4453POPC   C4B58966  34.887  34.634   7.239
 4454POPC   NC358967  23.399   2.153   5.361
 4454POPC   PO458968  22.885   1.662   5.318
 4454POPC   GL158969  23.090   1.778   5.711
 4454POPC   GL258970  23.089   2.121   5.793
 4454POPC   C1A58971  23.031   1.719   6.171
 4454POPC   D2A58972  22.742   1.705   6.562
 4454POPC   C3A58973  22.934   1.729   6.967
 4454POPC   C4A58974  23.165   1.907   7.325
 4454POPC   C1B58975  22.958   2.250   6.187
 4454POPC   C2B58976  23.083   2.086   6.577
 4454POPC   C3B58977  22.984   2.232   6.964
 4454POPC   C4B58978  23.016   2.480   7.283
 4455POPC   NC358979  40.509  32.689   5.232
 4455POPC   PO458980  40.936  32.207   5.572
 4455POPC   GL158981  40.716  32.369   5.895
 4455POPC   GL258982  40.512  32.636   5.749
 4455POPC   C1A58983  40.657  32.153   6.288
 4455POPC   D2A58984  40.563  31.830   6.581
 4455POPC   C3A58985  40.821  31.933   6.916
 4455POPC   C4A58986  40.778  32.059   7.310
 4455POPC   C1B58987  40.482  32.723   6.194
 4455POPC   C2B58988  40.635  32.553   6.594
 4455POPC   C3B58989  40.746  32.465   6.990
 4455POPC   C4B58990  40.491  32.512   7.334
 4456POPC   NC358991  38.057  29.167   5.132
 4456POPC   PO458992  38.538  28.908   5.468
 4456POPC   GL158993  38.380  28.914   5.876
 4456POPC   GL258994  38.035  28.815   5.871
 4456POPC   C1A58995  38.520  29.123   6.266
 4456POPC   D2A58996  38.628  28.993   6.675
 4456POPC   C3A58997  38.475  29.216   7.042
 4456POPC   C4A58998  38.480  29.182   7.487
 4456POPC   C1B58999  38.003  29.019   6.256
 4456POPC   C2B59000  38.120  29.188   6.649
 4456POPC   C3B59001  37.963  29.103   7.061
 4456POPC   C4B59002  38.062  29.436   7.298
 4457POPC   NC359003  16.420  43.828   5.427
 4457POPC   PO459004  15.723  44.050   5.447
 4457POPC   GL159005  15.674  43.899   5.867
 4457POPC   GL259006  15.772  44.224   5.974
 4457POPC   C1A59007  15.861  43.729   6.281
 4457POPC   D2A59008  16.208  43.844   6.612
 4457POPC   C3A59009  16.149  43.774   7.067
 4457POPC   C4A59010  15.747  43.638   7.188
 4457POPC   C1B59011  15.957  44.231   6.380
 4457POPC   C2B59012  15.689  44.168   6.728
 4457POPC   C3B59013  15.575  44.416   7.082
 4457POPC   C4B59014  15.827  44.130   7.245
 4458POPC   NC359015   4.477  15.533   5.459
 4458POPC   PO459016   4.060  15.054   5.266
 4458POPC   GL159017   4.300  15.038   5.622
 4458POPC   GL259018   4.581  14.781   5.641
 4458POPC   C1A59019   4.330  14.966   6.062
 4458POPC   D2A59020   4.173  14.684   6.382
 4458POPC   C3A59021   4.250  14.820   6.812
 4458POPC   C4A59022   4.015  14.914   7.205
 4458POPC   C1B59023   4.795  14.802   6.036
 4458POPC   C2B59024   4.666  14.832   6.454
 4458POPC   C3B59025   4.779  14.841   6.868
 4458POPC   C4B59026   4.736  15.089   7.229
 4459POPC   NC359027  30.532   8.264   5.372
 4459POPC   PO459028  31.075   7.988   5.474
 4459POPC   GL159029  30.779   8.253   5.818
 4459POPC   GL259030  30.398   8.405   5.844
 4459POPC   C1A59031  30.648   8.220   6.270
 4459POPC   D2A59032  30.906   8.132   6.630
 4459POPC   C3A59033  30.736   8.103   7.009
 4459POPC   C4A59034  30.716   7.812   7.328
 4459POPC   C1B59035  30.134   8.307   6.243
 4459POPC   C2B59036  30.266   8.234   6.673
 4459POPC   C3B59037  30.342   8.402   7.074
 4459POPC   C4B59038  30.557   8.311   7.446
 4460POPC   NC359039   2.821  27.816   5.040
 4460POPC   PO459040   2.210  27.575   5.290
 4460POPC   GL159041   2.566  27.664   5.571
 4460POPC   GL259042   2.687  27.356   5.714
 4460POPC   C1A59043   2.527  27.745   6.036
 4460POPC   D2A59044   2.662  27.845   6.478
 4460POPC   C3A59045   2.644  27.674   6.907
 4460POPC   C4A59046   2.630  27.873   7.340
 4460POPC   C1B59047   2.906  27.430   6.151
 4460POPC   C2B59048   2.910  27.322   6.595
 4460POPC   C3B59049   3.043  27.394   7.004
 4460POPC   C4B59050   2.831  27.389   7.400
 4461POPC   NC359051  35.861   6.481   5.418
 4461POPC   PO459052  36.476   6.758   5.446
 4461POPC   GL159053  36.167   6.653   5.810
 4461POPC   GL259054  36.002   6.924   5.970
 4461POPC   C1A59055  36.160   6.548   6.281
 4461POPC   D2A59056  36.342   6.680   6.701
 4461POPC   C3A59057  36.171   6.457   7.048
 4461POPC   C4A59058  35.779   6.375   7.249
 4461POPC   C1B59059  35.756   6.846   6.320
 4461POPC   C2B59060  35.834   6.653   6.702
 4461POPC   C3B59061  35.853   6.845   7.068
 4461POPC   C4B59062  35.531   6.856   7.338
 4462POPC   NC359063   8.252  34.484   5.147
 4462POPC   PO459064   7.999  35.040   5.433
 4462POPC   GL159065   8.203  34.695   5.643
 4462POPC   GL259066   8.120  34.858   5.926
 4462POPC   C1A59067   8.218  34.368   6.025
 4462POPC   D2A59068   8.382  34.264   6.478
 4462POPC   C3A59069   8.412  34.559   6.828
 4462POPC   C4A59070   8.436  34.497   7.248
 4462POPC   C1B59071   8.126  34.728   6.375
 4462POPC   C2B59072   7.940  34.460   6.682
 4462POPC   C3B59073   7.932  34.485   7.111
 4462POPC   C4B59074   8.089  34.850   7.335
 4463POPC   NC359075  24.013   1.363   5.415
 4463POPC   PO459076  23.517   0.892   5.415
 4463POPC   GL159077  23.645   1.214   5.750
 4463POPC   GL259078  23.446   1.473   5.888
 4463POPC   C1A59079  23.830   1.123   6.178
 4463POPC   D2A59080  23.798   0.956   6.623
 4463POPC   C3A59081  23.604   1.088   7.032
 4463POPC   C4A59082  23.593   1.113   7.493
 4463POPC   C1B59083  23.721   1.617   6.228
 4463POPC   C2B59084  23.796   1.509   6.683
 4463POPC   C3B59085  23.907   1.688   7.096
 4463POPC   C4B59086  23.668   1.604   7.493
 4464POPC   NC359087   0.292  21.442   5.212
 4464POPC   PO459088   0.884  21.172   5.374
 4464POPC   GL159089   0.543  21.214   5.727
 4464POPC   GL259090   0.364  21.556   5.764
 4464POPC   C1A59091   0.419  21.254   6.204
 4464POPC   D2A59092   0.415  21.507   6.624
 4464POPC   C3A59093   0.555  21.296   7.025
 4464POPC   C4A59094   0.435  21.272   7.438
 4464POPC   C1B59095   0.206  21.729   6.182
 4464POPC   C2B59096  44.920  21.610   6.535
 4464POPC   C3B59097  44.997  21.449   6.947
 4464POPC   C4B59098   0.119  21.693   7.272
 4465POPC   NC359099  38.183  43.708   5.506
 4465POPC   PO459100  37.612  44.000   5.352
 4465POPC   GL159101  37.684  43.967   5.799
 4465POPC   GL259102  38.016  44.130   5.891
 4465POPC   C1A59103  37.629  43.809   6.231
 4465POPC   D2A59104  37.862  43.718   6.622
 4465POPC   C3A59105  37.625  43.829   6.992
 4465POPC   C4A59106  37.338  43.622   7.273
 4465POPC   C1B59107  38.022  44.134   6.369
 4465POPC   C2B59108  38.042  44.145   6.844
 4465POPC   C3B59109  38.017  44.166   7.294
 4465POPC   C4B59110  37.958  44.224   7.769
 4466POPC   NC359111  41.403  29.396   5.530
 4466POPC   PO459112  41.676  28.925   5.047
 4466POPC   GL159113  41.536  28.930   5.541
 4466POPC   GL259114  41.801  29.146   5.769
 4466POPC   C1A59115  41.400  28.954   6.020
 4466POPC   D2A59116  41.591  28.957   6.459
 4466POPC   C3A59117  41.457  28.997   6.887
 4466POPC   C4A59118  41.298  29.001   7.302
 4466POPC   C1B59119  41.662  29.397   6.187
 4466POPC   C2B59120  41.603  29.471   6.681
 4466POPC   C3B59121  41.653  29.392   7.178
 4466POPC   C4B59122  41.889  29.457   7.654
 4467POPC   NC359123  44.761  38.805   5.481
 4467POPC   PO459124  44.609  39.470   5.638
 4467POPC   GL159125  44.628  39.155   5.924
 4467POPC   GL259126  44.944  39.010   6.033
 4467POPC   C1A59127  44.453  39.197   6.323
 4467POPC   D2A59128  44.376  39.425   6.700
 4467POPC   C3A59129  44.448  39.219   7.097
 4467POPC   C4A59130  44.446  39.391   7.534
 4467POPC   C1B59131  44.926  39.394   6.348
 4467POPC   C2B59132  44.862  39.603   6.775
 4467POPC   C3B59133  44.899  39.445   7.202
 4467POPC   C4B59134   0.134  39.064   7.285
 4468POPC   NC359135  41.938  37.605   5.144
 4468POPC   PO459136  42.543  37.905   5.387
 4468POPC   GL159137  42.277  37.731   5.758
 4468POPC   GL259138  42.361  38.052   5.855
 4468POPC   C1A59139  42.150  37.509   6.189
 4468POPC   D2A59140  41.953  37.460   6.631
 4468POPC   C3A59141  42.199  37.566   7.068
 4468POPC   C4A59142  42.631  37.546   7.321
 4468POPC   C1B59143  42.485  37.896   6.241
 4468POPC   C2B59144  42.474  37.654   6.615
 4468POPC   C3B59145  42.591  37.915   6.953
 4468POPC   C4B59146  42.689  38.050   7.357
 4469POPC   NC359147  35.279  29.959   5.391
 4469POPC   PO459148  34.923  30.516   5.548
 4469POPC   GL159149  35.129  30.216   5.893
 4469POPC   GL259150  35.440  29.981   5.881
 4469POPC   C1A59151  35.209  30.010   6.332
 4469POPC   D2A59152  35.633  29.957   6.579
 4469POPC   C3A59153  35.630  29.877   7.017
 4469POPC   C4A59154  35.229  30.049   7.099
 4469POPC   C1B59155  35.518  29.628   6.210
 4469POPC   C2B59156  35.400  29.458   6.628
 4469POPC   C3B59157  35.221  29.531   7.036
 4469POPC   C4B59158  35.284  29.658   7.439
 4470POPC   NC359159  20.788   1.932   5.677
 4470POPC   PO459160  21.355   1.809   5.332
 4470POPC   GL159161  21.496   1.882   5.725
 4470POPC   GL259162  21.709   1.588   5.790
 4470POPC   C1A59163  21.432   2.183   6.069
 4470POPC   D2A59164  21.150   2.247   6.434
 4470POPC   C3A59165  21.325   2.325   6.844
 4470POPC   C4A59166  21.156   2.147   7.206
 4470POPC   C1B59167  21.568   1.700   6.190
 4470POPC   C2B59168  21.621   1.979   6.535
 4470POPC   C3B59169  21.463   1.829   6.913
 4470POPC   C4B59170  21.627   1.510   7.177
 4471POPC   NC359171  26.931  16.981   5.081
 4471POPC   PO459172  26.367  16.553   5.399
 4471POPC   GL159173  26.625  16.515   5.802
 4471POPC   GL259174  26.957  16.682   5.788
 4471POPC   C1A59175  26.723  16.490   6.250
 4471POPC   D2A59176  26.881  16.608   6.673
 4471POPC   C3A59177  26.661  16.531   7.070
 4471POPC   C4A59178  26.559  16.740   7.475
 4471POPC   C1B59179  27.092  16.830   6.214
 4471POPC   C2B59180  27.367  16.734   6.553
 4471POPC   C3B59181  27.308  16.564   6.968
 4471POPC   C4B59182  27.072  16.736   7.312
 4472POPC   NC359183   5.347  42.743   5.479
 4472POPC   PO459184   5.164  42.151   5.291
 4472POPC   GL159185   5.166  42.117   5.753
 4472POPC   GL259186   5.069  42.455   5.829
 4472POPC   C1A59187   5.186  42.141   6.224
 4472POPC   D2A59188   4.995  42.430   6.508
 4472POPC   C3A59189   4.967  42.338   6.944
 4472POPC   C4A59190   5.113  42.097   7.290
 4472POPC   C1B59191   5.445  42.558   6.080
 4472POPC   C2B59192   5.438  42.750   6.449
 4472POPC   C3B59193   5.341  42.647   6.836
 4472POPC   C4B59194   5.441  42.450   7.170
 4473POPC   NC359195  43.416   0.970   5.542
 4473POPC   PO459196  42.694   1.225   5.462
 4473POPC   GL159197  42.793   1.330   5.878
 4473POPC   GL259198  43.163   1.250   5.912
 4473POPC   C1A59199  42.846   1.257   6.314
 4473POPC   D2A59200  42.603   1.307   6.680
 4473POPC   C3A59201  42.889   1.477   6.974
 4473POPC   C4A59202  43.115   1.256   7.250
 4473POPC   C1B59203  43.386   1.229   6.334
 4473POPC   C2B59204  43.324   1.178   6.788
 4473POPC   C3B59205  43.562   1.016   7.159
 4473POPC   C4B59206  43.520   1.242   7.551
 4474POPC   NC359207   8.687  40.829   5.403
 4474POPC   PO459208   9.321  40.775   5.685
 4474POPC   GL159209   8.937  40.712   5.844
 4474POPC   GL259210   8.879  41.024   5.838
 4474POPC   C1A59211   8.680  40.607   6.178
 4474POPC   D2A59212   8.843  40.480   6.560
 4474POPC   C3A59213   8.886  40.683   6.977
 4474POPC   C4A59214   9.053  40.588   7.376
 4474POPC   C1B59215   9.160  41.082   6.248
 4474POPC   C2B59216   9.218  40.957   6.709
 4474POPC   C3B59217   9.303  41.016   7.193
 4474POPC   C4B59218   9.201  41.120   7.677
 4475POPC   NC359219  21.390  43.532   5.447
 4475POPC   PO459220  21.243  44.178   5.250
 4475POPC   GL159221  21.285  44.001   5.683
 4475POPC   GL259222  21.003  43.782   5.732
 4475POPC   C1A59223  21.408  43.825   6.097
 4475POPC   D2A59224  21.575  43.934   6.505
 4475POPC   C3A59225  21.384  43.680   6.861
 4475POPC   C4A59226  21.473  43.830   7.300
 4475POPC   C1B59227  20.934  44.034   6.123
 4475POPC   C2B59228  21.094  44.058   6.586
 4475POPC   C3B59229  21.023  43.985   7.065
 4475POPC   C4B59230  21.092  44.080   7.530
 4476POPC   NC359231  22.421   6.008   4.967
 4476POPC   PO459232  22.362   5.513   5.414
 4476POPC   GL159233  22.220   5.502   5.844
 4476POPC   GL259234  22.572   5.586   5.926
 4476POPC   C1A59235  22.070   5.531   6.318
 4476POPC   D2A59236  22.120   5.804   6.701
 4476POPC   C3A59237  21.885   5.768   7.100
 4476POPC   C4A59238  21.747   6.014   7.501
 4476POPC   C1B59239  22.480   5.834   6.299
 4476POPC   C2B59240  22.616   5.917   6.724
 4476POPC   C3B59241  22.497   6.031   7.159
 4476POPC   C4B59242  22.504   6.147   7.607
 4477POPC   NC359243  12.624  35.020   5.461
 4477POPC   PO459244  12.979  35.631   5.528
 4477POPC   GL159245  12.827  35.335   5.831
 4477POPC   GL259246  12.470  35.379   5.817
 4477POPC   C1A59247  12.948  35.157   6.222
 4477POPC   D2A59248  13.230  35.151   6.557
 4477POPC   C3A59249  13.098  35.230   6.966
 4477POPC   C4A59250  13.215  35.456   7.316
 4477POPC   C1B59251  12.571  35.492   6.262
 4477POPC   C2B59252  12.687  35.430   6.684
 4477POPC   C3B59253  12.724  35.581   7.108
 4477POPC   C4B59254  12.799  35.609   7.556
 4478POPC   NC359255  24.068   6.228   5.406
 4478POPC   PO459256  24.158   6.909   5.332
 4478POPC   GL159257  24.517   6.917   5.760
 4478POPC   GL259258  24.717   6.588   5.786
 4478POPC   C1A59259  24.483   6.767   6.211
 4478POPC   D2A59260  24.325   6.871   6.633
 4478POPC   C3A59261  24.439   6.866   7.094
 4478POPC   C4A59262  24.097   6.791   7.419
 4478POPC   C1B59263  24.780   6.362   6.174
 4478POPC   C2B59264  24.779   6.550   6.583
 4478POPC   C3B59265  24.570   6.400   6.934
 4478POPC   C4B59266  24.556   6.238   7.303
 4479POPC   NC359267  35.587   5.530   5.271
 4479POPC   PO459268  35.081   5.099   5.433
 4479POPC   GL159269  35.289   5.101   5.804
 4479POPC   GL259270  35.638   5.254   5.716
 4479POPC   C1A59271  35.065   5.149   6.217
 4479POPC   D2A59272  34.885   5.107   6.616
 4479POPC   C3A59273  35.123   5.267   6.911
 4479POPC   C4A59274  35.349   5.272   7.258
 4479POPC   C1B59275  35.505   5.392   6.140
 4479POPC   C2B59276  35.465   5.254   6.551
 4479POPC   C3B59277  35.724   5.233   6.925
 4479POPC   C4B59278  35.805   5.532   7.280
 4480POPC   NC359279  42.312  13.246   5.617
 4480POPC   PO459280  42.172  13.786   5.329
 4480POPC   GL159281  42.352  13.826   5.753
 4480POPC   GL259282  42.628  14.059   5.750
 4480POPC   C1A59283  42.215  13.767   6.181
 4480POPC   D2A59284  42.038  13.743   6.595
 4480POPC   C3A59285  42.336  13.544   6.841
 4480POPC   C4A59286  42.530  13.469   7.232
 4480POPC   C1B59287  42.614  14.092   6.178
 4480POPC   C2B59288  42.491  13.989   6.605
 4480POPC   C3B59289  42.404  13.991   7.061
 4480POPC   C4B59290  42.684  14.013   7.381
 4481POPC   NC359291   3.537  11.774   5.523
 4481POPC   PO459292   3.390  11.201   5.466
 4481POPC   GL159293   3.634  11.369   5.827
 4481POPC   GL259294   3.937  11.129   5.922
 4481POPC   C1A59295   3.400  11.633   6.163
 4481POPC   D2A59296   3.126  11.444   6.487
 4481POPC   C3A59297   3.187  11.554   6.927
 4481POPC   C4A59298   3.375  11.376   7.293
 4481POPC   C1B59299   3.583  10.924   6.089
 4481POPC   C2B59300   3.468  10.877   6.492
 4481POPC   C3B59301   3.461  11.109   6.849
 4481POPC   C4B59302   3.762  11.029   7.145
 4482POPC   NC359303  18.983  32.257   5.105
 4482POPC   PO459304  18.861  32.033   5.656
 4482POPC   GL159305  19.011  32.403   5.875
 4482POPC   GL259306  19.419  32.477   5.909
 4482POPC   C1A59307  19.085  32.282   6.280
 4482POPC   D2A59308  19.171  32.054   6.603
 4482POPC   C3A59309  19.014  32.247   6.936
 4482POPC   C4A59310  18.746  32.130   7.236
 4482POPC   C1B59311  19.544  32.503   6.301
 4482POPC   C2B59312  19.364  32.541   6.650
 4482POPC   C3B59313  19.493  32.475   7.018
 4482POPC   C4B59314  19.279  32.330   7.350
 4483POPC   NC359315  17.996  20.179   5.452
 4483POPC   PO459316  18.344  20.752   5.506
 4483POPC   GL159317  18.265  20.438   5.823
 4483POPC   GL259318  17.962  20.475   5.881
 4483POPC   C1A59319  18.445  20.488   6.238
 4483POPC   D2A59320  18.259  20.794   6.509
 4483POPC   C3A59321  18.313  20.653   6.914
 4483POPC   C4A59322  18.036  20.688   7.231
 4483POPC   C1B59323  18.011  20.222   6.224
 4483POPC   C2B59324  18.231  20.190   6.613
 4483POPC   C3B59325  18.037  20.219   6.959
 4483POPC   C4B59326  17.853  20.222   7.318
 4484POPC   NC359327  40.466  22.722   5.484
 4484POPC   PO459328  39.977  23.126   5.411
 4484POPC   GL159329  40.187  23.141   5.783
 4484POPC   GL259330  40.095  22.803   5.822
 4484POPC   C1A59331  40.016  23.120   6.205
 4484POPC   D2A59332  39.796  23.275   6.553
 4484POPC   C3A59333  39.911  23.060   6.946
 4484POPC   C4A59334  40.043  23.132   7.358
 4484POPC   C1B59335  40.234  22.551   6.143
 4484POPC   C2B59336  40.099  22.384   6.530
 4484POPC   C3B59337  40.309  22.473   6.921
 4484POPC   C4B59338  40.157  22.651   7.284
 4485POPC   NC359339  43.661  30.735   5.227
 4485POPC   PO459340  44.124  30.445   5.615
 4485POPC   GL159341  43.926  30.728   5.818
 4485POPC   GL259342  43.567  30.692   5.757
 4485POPC   C1A59343  44.035  31.016   6.126
 4485POPC   D2A59344  43.884  31.010   6.550
 4485POPC   C3A59345  44.176  30.987   6.885
 4485POPC   C4A59346  44.001  30.977   7.264
 4485POPC   C1B59347  43.652  30.530   6.184
 4485POPC   C2B59348  43.470  30.595   6.587
 4485POPC   C3B59349  43.618  30.782   6.956
 4485POPC   C4B59350  43.699  30.583   7.336
 4486POPC   NC359351  16.497   2.450   4.755
 4486POPC   PO459352  16.630   2.807   5.337
 4486POPC   GL159353  16.745   2.786   5.766
 4486POPC   GL259354  16.652   3.119   5.813
 4486POPC   C1A59355  16.819   2.500   6.134
 4486POPC   D2A59356  16.619   2.238   6.449
 4486POPC   C3A59357  16.680   2.394   6.867
 4486POPC   C4A59358  16.707   2.770   7.113
 4486POPC   C1B59359  16.647   2.986   6.248
 4486POPC   C2B59360  16.839   2.792   6.604
 4486POPC   C3B59361  17.137   2.943   6.916
 4486POPC   C4B59362  17.347   3.258   7.141
 4487POPC   NC359363  14.431  26.974   5.339
 4487POPC   PO459364  15.017  26.965   5.456
 4487POPC   GL159365  14.664  26.882   5.801
 4487POPC   GL259366  14.263  26.922   5.827
 4487POPC   C1A59367  14.546  26.711   6.195
 4487POPC   D2A59368  14.753  26.588   6.555
 4487POPC   C3A59369  14.600  26.654   6.966
 4487POPC   C4A59370  14.249  26.510   7.217
 4487POPC   C1B59371  14.159  27.031   6.274
 4487POPC   C2B59372  14.475  27.095   6.601
 4487POPC   C3B59373  14.452  27.135   7.060
 4487POPC   C4B59374  14.420  27.295   7.499
 4488POPC   NC359375   9.674  22.203   5.002
 4488POPC   PO459376  10.124  22.130   5.555
 4488POPC   GL159377   9.712  22.102   5.782
 4488POPC   GL259378   9.641  21.790   5.990
 4488POPC   C1A59379   9.770  22.264   6.194
 4488POPC   D2A59380   9.998  22.253   6.590
 4488POPC   C3A59381   9.787  22.266   6.981
 4488POPC   C4A59382   9.891  22.379   7.403
 4488POPC   C1B59383   9.693  21.811   6.419
 4488POPC   C2B59384   9.992  21.745   6.703
 4488POPC   C3B59385  10.092  21.879   7.090
 4488POPC   C4B59386   9.851  21.725   7.433
 4489POPC   NC359387  19.682  42.853   5.224
 4489POPC   PO459388  19.687  42.229   5.098
 4489POPC   GL159389  19.799  42.393   5.615
 4489POPC   GL259390  19.730  42.110   5.838
 4489POPC   C1A59391  19.746  42.518   6.124
 4489POPC   D2A59392  19.721  42.274   6.519
 4489POPC   C3A59393  19.607  42.412   6.909
 4489POPC   C4A59394  19.939  42.344   7.144
 4489POPC   C1B59395  20.060  42.130   6.157
 4489POPC   C2B59396  20.263  42.131   6.562
 4489POPC   C3B59397  20.208  41.934   6.970
 4489POPC   C4B59398  20.360  41.816   7.336
 4490POPC   NC359399  17.688   5.709   5.528
 4490POPC   PO459400  17.363   5.193   5.250
 4490POPC   GL159401  17.612   5.206   5.650
 4490POPC   GL259402  17.302   5.110   5.846
 4490POPC   C1A59403  17.685   5.351   6.089
 4490POPC   D2A59404  17.413   5.106   6.373
 4490POPC   C3A59405  17.364   5.186   6.810
 4490POPC   C4A59406  17.358   5.124   7.232
 4490POPC   C1B59407  17.188   4.720   6.094
 4490POPC   C2B59408  17.096   4.597   6.517
 4490POPC   C3B59409  17.066   4.802   6.901
 4490POPC   C4B59410  17.177   4.648   7.284
 4491POPC   NC359411   0.037  14.347   5.287
 4491POPC   PO459412  44.398  14.191   5.380
 4491POPC   GL159413  44.680  14.336   5.670
 4491POPC   GL259414  44.920  14.057   5.721
 4491POPC   C1A59415  44.696  14.621   6.036
 4491POPC   D2A59416  44.895  14.704   6.436
 4491POPC   C3A59417  44.698  14.557   6.785
 4491POPC   C4A59418  44.757  14.486   7.212
 4491POPC   C1B59419  44.708  14.044   6.109
 4491POPC   C2B59420  44.876  14.121   6.517
 4491POPC   C3B59421  44.858  14.081   6.929
 4491POPC   C4B59422  44.496  14.045   7.179
 4492POPC   NC359423  20.477  24.178   5.238
 4492POPC   PO459424  20.529  24.801   5.130
 4492POPC   GL159425  20.551  24.487   5.616
 4492POPC   GL259426  20.826  24.222   5.692
 4492POPC   C1A59427  20.349  24.516   6.074
 4492POPC   D2A59428  20.249  24.736   6.500
 4492POPC   C3A59429  20.512  24.631   6.886
 4492POPC   C4A59430  20.916  24.785   7.081
 4492POPC   C1B59431  20.625  24.080   6.072
 4492POPC   C2B59432  20.509  24.060   6.511
 4492POPC   C3B59433  20.627  24.110   6.955
 4492POPC   C4B59434  20.691  24.384   7.309
 4493POPC   NC359435  11.069   3.415   5.100
 4493POPC   PO459436  11.298   3.286   5.705
 4493POPC   GL159437  11.313   3.555   6.006
 4493POPC   GL259438  11.652   3.660   6.035
 4493POPC   C1A59439  11.076   3.570   6.354
 4493POPC   D2A59440  11.336   3.608   6.683
 4493POPC   C3A59441  11.190   3.359   7.002
 4493POPC   C4A59442  11.077   3.653   7.272
 4493POPC   C1B59443  11.617   3.296   6.323
 4493POPC   C2B59444  11.684   3.209   6.747
 4493POPC   C3B59445  11.683   3.532   7.060
 4493POPC   C4B59446  11.520   3.525   7.467
 4494POPC   NC359447  15.897  14.960   5.402
 4494POPC   PO459448  15.690  15.596   5.446
 4494POPC   GL159449  16.005  15.292   5.768
 4494POPC   GL259450  16.052  14.866   5.858
 4494POPC   C1A59451  16.179  15.183   6.205
 4494POPC   D2A59452  15.902  15.155   6.528
 4494POPC   C3A59453  16.028  15.166   6.922
 4494POPC   C4A59454  15.963  15.512   7.165
 4494POPC   C1B59455  15.777  14.732   6.253
 4494POPC   C2B59456  15.785  14.683   6.725
 4494POPC   C3B59457  15.728  14.833   7.182
 4494POPC   C4B59458  15.394  15.014   7.506
 4495POPC   NC359459  31.754  32.751   5.415
 4495POPC   PO459460  31.288  33.235   5.512
 4495POPC   GL159461  31.478  33.276   5.889
 4495POPC   GL259462  31.736  33.085   5.813
 4495POPC   C1A59463  31.591  33.232   6.318
 4495POPC   D2A59464  31.306  32.968   6.497
 4495POPC   C3A59465  31.202  33.000   6.894
 4495POPC   C4A59466  31.414  33.179   7.200
 4495POPC   C1B59467  31.532  32.767   6.061
 4495POPC   C2B59468  31.712  32.687   6.459
 4495POPC   C3B59469  31.715  32.950   6.816
 4495POPC   C4B59470  31.803  32.838   7.232
 4496POPC   NC359471  24.756  28.575   5.465
 4496POPC   PO459472  25.041  27.982   5.628
 4496POPC   GL159473  24.682  28.219   5.836
 4496POPC   GL259474  24.302  28.316   5.757
 4496POPC   C1A59475  24.493  28.367   6.221
 4496POPC   D2A59476  24.426  28.130   6.567
 4496POPC   C3A59477  24.549  28.309   6.926
 4496POPC   C4A59478  24.442  28.145   7.310
 4496POPC   C1B59479  24.074  28.636   6.064
 4496POPC   C2B59480  24.009  28.826   6.465
 4496POPC   C3B59481  24.230  28.721   6.849
 4496POPC   C4B59482  24.393  28.691   7.256
 4497POPC   NC359483  32.000  35.826   5.125
 4497POPC   PO459484  32.288  36.381   5.092
 4497POPC   GL159485  32.059  36.244   5.497
 4497POPC   GL259486  32.101  35.892   5.657
 4497POPC   C1A59487  32.058  36.372   5.963
 4497POPC   D2A59488  32.116  36.323   6.432
 4497POPC   C3A59489  32.020  36.457   6.882
 4497POPC   C4A59490  32.181  36.503   7.317
 4497POPC   C1B59491  32.095  35.846   6.148
 4497POPC   C2B59492  31.993  35.858   6.629
 4497POPC   C3B59493  32.092  35.990   7.099
 4497POPC   C4B59494  32.042  36.020   7.569
 4498POPC   NC359495  32.092  29.271   5.438
 4498POPC   PO459496  32.569  28.943   5.622
 4498POPC   GL159497  32.199  29.042   5.880
 4498POPC   GL259498  31.884  28.832   5.860
 4498POPC   C1A59499  32.145  29.395   6.191
 4498POPC   D2A59500  31.946  29.408   6.637
 4498POPC   C3A59501  32.228  29.277   6.997
 4498POPC   C4A59502  32.473  29.168   7.401
 4498POPC   C1B59503  31.892  28.971   6.304
 4498POPC   C2B59504  31.945  28.902   6.770
 4498POPC   C3B59505  32.154  28.808   7.185
 4498POPC   C4B59506  32.158  28.668   7.621
 4499POPC   NC359507  44.416  37.186   5.440
 4499POPC   PO459508  44.333  36.581   5.504
 4499POPC   GL159509  44.697  36.770   5.719
 4499POPC   GL259510  44.762  37.165   5.818
 4499POPC   C1A59511  44.717  36.809   6.160
 4499POPC   D2A59512  44.452  36.940   6.458
 4499POPC   C3A59513  44.652  36.817   6.824
 4499POPC   C4A59514  44.596  36.809   7.251
 4499POPC   C1B59515  44.862  37.305   6.208
 4499POPC   C2B59516  44.984  37.152   6.601
 4499POPC   C3B59517  44.872  37.286   7.002
 4499POPC   C4B59518  44.868  37.317   7.432
 4500POPC   NC359519  12.261  44.158   5.532
 4500POPC   PO459520  12.049  43.572   5.237
 4500POPC   GL159521  12.118  43.676   5.755
 4500POPC   GL259522  11.902  43.963   5.911
 4500POPC   C1A59523  12.006  43.541   6.215
 4500POPC   D2A59524  11.934  43.594   6.690
 4500POPC   C3A59525  11.845  43.825   7.082
 4500POPC   C4A59526  12.101  43.834   7.438
 4500POPC   C1B59527  12.264  43.993   6.159
 4500POPC   C2B59528  12.439  43.840   6.529
 4500POPC   C3B59529  12.327  43.850   6.958
 4500POPC   C4B59530  12.477  44.159   7.297
 4501POPC   NC359531  16.578  41.337   5.403
 4501POPC   PO459532  16.218  41.850   5.533
 4501POPC   GL159533  16.576  41.801   5.864
 4501POPC   GL259534  16.820  41.536   5.808
 4501POPC   C1A59535  16.830  41.853   6.248
 4501POPC   D2A59536  16.841  41.649   6.659
 4501POPC   C3A59537  16.738  41.851   7.043
 4501POPC   C4A59538  16.418  41.749   7.346
 4501POPC   C1B59539  16.525  41.372   6.137
 4501POPC   C2B59540  16.478  41.238   6.562
 4501POPC   C3B59541  16.570  41.113   6.954
 4501POPC   C4B59542  16.783  41.380   7.227
 4502POPC   NC359543  26.484  30.208   5.238
 4502POPC   PO459544  26.912  29.793   5.533
 4502POPC   GL159545  26.729  29.915   5.949
 4502POPC   GL259546  26.412  29.699   6.018
 4502POPC   C1A59547  26.939  30.062   6.354
 4502POPC   D2A59548  26.959  30.181   6.801
 4502POPC   C3A59549  26.579  30.125   7.023
 4502POPC   C4A59550  26.404  29.744   7.137
 4502POPC   C1B59551  26.739  29.523   6.313
 4502POPC   C2B59552  27.086  29.617   6.615
 4502POPC   C3B59553  26.966  29.714   7.037
 4502POPC   C4B59554  27.090  29.568   7.415
 4503POPC   NC359555   2.250  13.120   5.467
 4503POPC   PO459556   1.653  12.727   5.375
 4503POPC   GL159557   1.832  12.952   5.718
 4503POPC   GL259558   2.087  12.737   5.777
 4503POPC   C1A59559   1.958  13.076   6.135
 4503POPC   D2A59560   2.119  13.056   6.564
 4503POPC   C3A59561   1.768  13.017   6.852
 4503POPC   C4A59562   1.851  13.012   7.244
 4503POPC   C1B59563   1.961  12.577   6.195
 4503POPC   C2B59564   2.051  12.395   6.572
 4503POPC   C3B59565   2.041  12.597   6.952
 4503POPC   C4B59566   2.296  12.779   7.252
 4504POPC   NC359567  22.258  39.088   5.724
 4504POPC   PO459568  22.098  39.691   5.450
 4504POPC   GL159569  22.145  39.552   5.882
 4504POPC   GL259570  22.512  39.568   5.799
 4504POPC   C1A59571  22.042  39.287   6.290
 4504POPC   D2A59572  22.063  39.345   6.717
 4504POPC   C3A59573  22.073  39.036   7.002
 4504POPC   C4A59574  21.919  39.148   7.411
 4504POPC   C1B59575  22.480  39.540   6.257
 4504POPC   C2B59576  22.468  39.655   6.671
 4504POPC   C3B59577  22.394  39.481   7.078
 4504POPC   C4B59578  22.248  39.646   7.398
 4505POPC   NC359579  21.569  22.499   5.483
 4505POPC   PO459580  21.440  23.213   5.358
 4505POPC   GL159581  21.117  23.088   5.660
 4505POPC   GL259582  21.183  22.745   5.748
 4505POPC   C1A59583  21.069  23.088   6.128
 4505POPC   D2A59584  21.332  23.221   6.490
 4505POPC   C3A59585  21.168  23.173   6.914
 4505POPC   C4A59586  21.525  23.123   7.206
 4505POPC   C1B59587  21.548  22.945   6.055
 4505POPC   C2B59588  21.771  22.714   6.426
 4505POPC   C3B59589  21.918  22.620   6.849
 4505POPC   C4B59590  21.885  22.543   7.298
 4506POPC   NC359591  43.785  10.230   5.129
 4506POPC   PO459592  43.718  10.882   5.367
 4506POPC   GL159593  43.999  10.535   5.745
 4506POPC   GL259594  43.954  10.165   5.965
 4506POPC   C1A59595  44.295  10.469   6.137
 4506POPC   D2A59596  44.165  10.364   6.573
 4506POPC   C3A59597  44.242  10.495   7.002
 4506POPC   C4A59598  44.004  10.390   7.379
 4506POPC   C1B59599  43.612  10.288   6.227
 4506POPC   C2B59600  43.670  10.439   6.619
 4506POPC   C3B59601  43.769  10.198   6.951
 4506POPC   C4B59602  43.504  10.236   7.278
 4507POPC   NC359603  17.197  39.934   5.416
 4507POPC   PO459604  16.643  40.210   5.437
 4507POPC   GL159605  16.563  40.106   5.877
 4507POPC   GL259606  16.561  39.751   5.862
 4507POPC   C1A59607  16.713  40.205   6.316
 4507POPC   D2A59608  16.421  40.256   6.662
 4507POPC   C3A59609  16.551  40.139   7.022
 4507POPC   C4A59610  16.955  40.280   7.062
 4507POPC   C1B59611  16.695  39.697   6.302
 4507POPC   C2B59612  16.853  39.871   6.717
 4507POPC   C3B59613  16.862  39.775   7.192
 4507POPC   C4B59614  16.884  39.661   7.664
 4508POPC   NC359615  20.809  26.392   5.531
 4508POPC   PO459616  20.549  27.046   5.585
 4508POPC   GL159617  20.683  26.762   5.876
 4508POPC   GL259618  20.903  26.995   6.003
 4508POPC   C1A59619  20.521  26.490   6.215
 4508POPC   D2A59620  20.309  26.379   6.612
 4508POPC   C3A59621  20.303  26.556   7.035
 4508POPC   C4A59622  20.630  26.627   7.314
 4508POPC   C1B59623  20.683  26.959   6.380
 4508POPC   C2B59624  20.680  26.825   6.802
 4508POPC   C3B59625  20.600  27.119   7.138
 4508POPC   C4B59626  20.696  27.087   7.579
 4509POPC   NC359627  27.133  31.741   5.364
 4509POPC   PO459628  27.592  31.272   5.237
 4509POPC   GL159629  27.587  31.402   5.701
 4509POPC   GL259630  27.835  31.665   5.691
 4509POPC   C1A59631  27.550  31.305   6.166
 4509POPC   D2A59632  27.664  31.341   6.610
 4509POPC   C3A59633  27.543  31.370   7.057
 4509POPC   C4A59634  27.569  31.692   7.410
 4509POPC   C1B59635  27.911  31.666   6.159
 4509POPC   C2B59636  27.933  31.800   6.615
 4509POPC   C3B59637  27.927  31.892   7.070
 4509POPC   C4B59638  28.023  31.879   7.557
 4510POPC   NC359639  43.675   7.673   5.478
 4510POPC   PO459640  44.258   7.354   5.397
 4510POPC   GL159641  44.079   7.485   5.824
 4510POPC   GL259642  43.719   7.380   5.899
 4510POPC   C1A59643  44.145   7.389   6.293
 4510POPC   D2A59644  44.221   7.497   6.742
 4510POPC   C3A59645  43.984   7.420   7.106
 4510POPC   C4A59646  44.030   7.469   7.558
 4510POPC   C1B59647  43.557   7.044   6.177
 4510POPC   C2B59648  43.689   6.899   6.590
 4510POPC   C3B59649  43.603   7.091   6.999
 4510POPC   C4B59650  43.509   7.476   7.251
 4511POPC   NC359651   7.679  33.891   5.340
 4511POPC   PO459652   7.136  33.479   5.485
 4511POPC   GL159653   7.400  33.700   5.752
 4511POPC   GL259654   7.699  33.518   5.795
 4511POPC   C1A59655   7.422  33.955   6.136
 4511POPC   D2A59656   7.306  33.773   6.528
 4511POPC   C3A59657   7.484  33.840   6.902
 4511POPC   C4A59658   7.311  33.853   7.257
 4511POPC   C1B59659   7.546  33.454   6.214
 4511POPC   C2B59660   7.671  33.336   6.642
 4511POPC   C3B59661   7.677  33.384   7.082
 4511POPC   C4B59662   7.781  33.645   7.434
 4512POPC   NC359663  40.983  32.661   5.528
 4512POPC   PO459664  40.588  33.195   5.379
 4512POPC   GL159665  40.519  33.149   5.795
 4512POPC   GL259666  40.833  32.997   5.932
 4512POPC   C1A59667  40.460  33.233   6.235
 4512POPC   D2A59668  40.750  33.034   6.524
 4512POPC   C3A59669  40.605  32.979   6.956
 4512POPC   C4A59670  40.754  32.975   7.382
 4512POPC   C1B59671  40.999  32.657   6.222
 4512POPC   C2B59672  41.157  32.724   6.627
 4512POPC   C3B59673  41.100  32.841   7.017
 4512POPC   C4B59674  41.263  32.933   7.389
 4513POPC   NC359675  12.246   6.399   5.380
 4513POPC   PO459676  11.822   6.788   5.033
 4513POPC   GL159677  11.931   6.833   5.554
 4513POPC   GL259678  11.930   6.504   5.785
 4513POPC   C1A59679  12.023   6.953   6.039
 4513POPC   D2A59680  11.916   6.748   6.474
 4513POPC   C3A59681  11.934   6.448   6.817
 4513POPC   C4A59682  12.003   6.366   7.252
 4513POPC   C1B59683  12.286   6.532   6.146
 4513POPC   C2B59684  12.427   6.770   6.551
 4513POPC   C3B59685  12.357   6.700   7.008
 4513POPC   C4B59686  12.404   6.570   7.469
 4514POPC   NC359687  35.920  44.429   5.352
 4514POPC   PO459688  36.327  44.768   5.143
 4514POPC   GL159689  36.337  44.560   5.636
 4514POPC   GL259690  36.030  44.448   5.830
 4514POPC   C1A59691  36.296  44.749   6.116
 4514POPC   D2A59692  36.200  44.574   6.534
 4514POPC   C3A59693  36.229  44.858   6.862
 4514POPC   C4A59694  36.339  44.632   7.218
 4514POPC   C1B59695  35.825  44.563   6.203
 4514POPC   C2B59696  35.725  44.782   6.589
 4514POPC   C3B59697  35.798  44.587   6.960
 4514POPC   C4B59698  35.837  44.398   7.342
 4515POPC   NC359699  38.209  28.549   5.468
 4515POPC   PO459700  38.521  27.915   5.355
 4515POPC   GL159701  38.539  28.229   5.717
 4515POPC   GL259702  38.247  28.317   5.940
 4515POPC   C1A59703  38.782  28.295   6.115
 4515POPC   D2A59704  38.788  28.478   6.542
 4515POPC   C3A59705  38.526  28.290   6.847
 4515POPC   C4A59706  38.520  28.308   7.290
 4515POPC   C1B59707  38.344  28.622   6.308
 4515POPC   C2B59708  38.208  28.698   6.769
 4515POPC   C3B59709  38.287  28.754   7.233
 4515POPC   C4B59710  38.424  28.677   7.672
 4516POPC   NC359711  17.023  14.157   5.464
 4516POPC   PO459712  16.942  13.400   5.408
 4516POPC   GL159713  16.801  13.570   5.822
 4516POPC   GL259714  16.978  13.881   5.880
 4516POPC   C1A59715  16.689  13.739   6.265
 4516POPC   D2A59716  16.891  13.635   6.669
 4516POPC   C3A59717  16.682  13.766   7.051
 4516POPC   C4A59718  16.661  13.347   7.191
 4516POPC   C1B59719  17.105  14.056   6.289
 4516POPC   C2B59720  16.898  14.127   6.699
 4516POPC   C3B59721  17.113  14.128   7.050
 4516POPC   C4B59722  17.183  13.705   7.166
 4517POPC   NC359723  14.970  41.901   5.453
 4517POPC   PO459724  15.233  41.154   5.574
 4517POPC   GL159725  15.086  41.310   5.969
 4517POPC   GL259726  14.989  41.639   5.892
 4517POPC   C1A59727  15.333  41.606   6.290
 4517POPC   D2A59728  15.624  41.763   6.649
 4517POPC   C3A59729  15.413  41.693   7.078
 4517POPC   C4A59730  15.444  41.446   7.487
 4517POPC   C1B59731  14.813  41.616   6.330
 4517POPC   C2B59732  15.032  41.473   6.726
 4517POPC   C3B59733  14.976  41.448   7.157
 4517POPC   C4B59734  15.041  41.777   7.490
 4518POPC   NC359735  32.359  36.805   5.247
 4518POPC   PO459736  32.196  37.462   5.404
 4518POPC   GL159737  32.225  37.083   5.694
 4518POPC   GL259738  32.499  37.084   5.874
 4518POPC   C1A59739  32.085  36.888   6.118
 4518POPC   D2A59740  31.862  36.914   6.520
 4518POPC   C3A59741  31.968  36.968   6.950
 4518POPC   C4A59742  31.932  37.208   7.322
 4518POPC   C1B59743  32.515  36.658   5.971
 4518POPC   C2B59744  32.572  36.589   6.425
 4518POPC   C3B59745  32.493  36.679   6.866
 4518POPC   C4B59746  32.423  36.950   7.208
 4519POPC   NC359747  17.413   6.345   5.282
 4519POPC   PO459748  17.202   5.791   5.520
 4519POPC   GL159749  17.252   5.882   5.892
 4519POPC   GL259750  17.567   5.929   5.952
 4519POPC   C1A59751  17.308   5.634   6.260
 4519POPC   D2A59752  17.544   5.605   6.626
 4519POPC   C3A59753  17.248   5.663   6.978
 4519POPC   C4A59754  17.288   5.851   7.382
 4519POPC   C1B59755  17.761   5.962   6.317
 4519POPC   C2B59756  17.788   6.061   6.747
 4519POPC   C3B59757  17.726   5.842   7.110
 4519POPC   C4B59758  17.752   5.926   7.551
 4520POPC   NC359759  43.289  31.338   5.645
 4520POPC   PO459760  43.182  30.698   5.395
 4520POPC   GL159761  43.057  30.524   5.743
 4520POPC   GL259762  42.916  30.824   5.838
 4520POPC   C1A59763  43.134  30.503   6.171
 4520POPC   D2A59764  42.862  30.519   6.482
 4520POPC   C3A59765  43.022  30.688   6.851
 4520POPC   C4A59766  43.195  30.702   7.248
 4520POPC   C1B59767  42.649  30.873   6.150
 4520POPC   C2B59768  42.640  30.990   6.551
 4520POPC   C3B59769  42.718  31.107   6.943
 4520POPC   C4B59770  42.662  30.775   7.238
 4521POPC   NC359771  15.786  20.864   5.318
 4521POPC   PO459772  16.182  20.284   5.314
 4521POPC   GL159773  16.041  20.347   5.729
 4521POPC   GL259774  16.333  20.430   5.909
 4521POPC   C1A59775  15.921  20.289   6.168
 4521POPC   D2A59776  15.825  20.507   6.548
 4521POPC   C3A59777  15.616  20.367   6.897
 4521POPC   C4A59778  15.707  20.404   7.278
 4521POPC   C1B59779  16.276  20.670   6.297
 4521POPC   C2B59780  16.236  20.751   6.762
 4521POPC   C3B59781  16.030  20.768   7.169
 4521POPC   C4B59782  16.200  20.900   7.576
 4522POPC   NC359783  39.894  35.984   5.161
 4522POPC   PO459784  40.413  36.042   5.522
 4522POPC   GL159785  39.962  35.957   5.712
 4522POPC   GL259786  39.702  36.200   5.808
 4522POPC   C1A59787  39.793  35.819   6.154
 4522POPC   D2A59788  39.889  35.910   6.609
 4522POPC   C3A59789  39.842  35.798   7.062
 4522POPC   C4A59790  39.936  36.000   7.466
 4522POPC   C1B59791  39.899  36.310   6.237
 4522POPC   C2B59792  39.891  36.410   6.687
 4522POPC   C3B59793  40.011  36.368   7.126
 4522POPC   C4B59794  40.155  36.452   7.597
 4523POPC   NC359795   7.492  33.185   5.461
 4523POPC   PO459796   6.930  32.956   5.347
 4523POPC   GL159797   7.158  33.041   5.814
 4523POPC   GL259798   7.526  33.014   5.926
 4523POPC   C1A59799   7.169  33.092   6.278
 4523POPC   D2A59800   7.160  33.307   6.678
 4523POPC   C3A59801   7.273  33.050   7.040
 4523POPC   C4A59802   7.102  32.917   7.469
 4523POPC   C1B59803   7.851  33.041   6.234
 4523POPC   C2B59804   8.031  32.960   6.639
 4523POPC   C3B59805   7.874  32.906   7.050
 4523POPC   C4B59806   7.610  32.956   7.419
 4524POPC   NC359807  42.822  21.502   5.495
 4524POPC   PO459808  42.087  21.585   5.375
 4524POPC   GL159809  42.187  21.328   5.756
 4524POPC   GL259810  42.431  21.074   5.693
 4524POPC   C1A59811  42.132  21.072   6.152
 4524POPC   D2A59812  41.966  21.056   6.570
 4524POPC   C3A59813  42.153  21.318   6.897
 4524POPC   C4A59814  41.974  21.341   7.308
 4524POPC   C1B59815  42.598  21.269   6.109
 4524POPC   C2B59816  42.581  21.404   6.519
 4524POPC   C3B59817  42.680  21.553   6.909
 4524POPC   C4B59818  42.437  21.560   7.298
 4525POPC   NC359819  10.993   3.644   5.630
 4525POPC   PO459820  10.427   3.330   5.341
 4525POPC   GL159821  10.484   3.460   5.765
 4525POPC   GL259822  10.484   3.830   5.791
 4525POPC   C1A59823  10.291   3.346   6.164
 4525POPC   D2A59824  10.322   3.496   6.581
 4525POPC   C3A59825  10.697   3.572   6.795
 4525POPC   C4A59826  10.596   3.548   7.205
 4525POPC   C1B59827  10.606   3.800   6.231
 4525POPC   C2B59828  10.436   3.991   6.594
 4525POPC   C3B59829  10.238   3.868   6.955
 4525POPC   C4B59830  10.329   4.005   7.355
 4526POPC   NC359831   0.261   6.511   5.146
 4526POPC   PO459832   0.652   7.045   5.071
 4526POPC   GL159833   0.474   6.786   5.552
 4526POPC   GL259834   0.595   6.441   5.722
 4526POPC   C1A59835   0.259   6.721   5.968
 4526POPC   D2A59836   0.233   6.867   6.418
 4526POPC   C3A59837   0.193   6.569   6.758
 4526POPC   C4A59838   0.315   6.620   7.160
 4526POPC   C1B59839   0.714   6.494   6.150
 4526POPC   C2B59840   0.641   6.335   6.562
 4526POPC   C3B59841   0.943   6.280   6.874
 4526POPC   C4B59842   0.968   6.458   7.309
 4527POPC   NC359843  41.794  36.952   5.531
 4527POPC   PO459844  41.258  36.522   5.428
 4527POPC   GL159845  41.408  36.736   5.810
 4527POPC   GL259846  41.279  37.075   5.868
 4527POPC   C1A59847  41.615  36.781   6.226
 4527POPC   D2A59848  41.501  36.895   6.655
 4527POPC   C3A59849  41.771  37.061   6.993
 4527POPC   C4A59850  42.016  36.881   7.342
 4527POPC   C1B59851  41.100  37.195   6.232
 4527POPC   C2B59852  41.009  37.064   6.649
 4527POPC   C3B59853  41.244  37.113   7.032
 4527POPC   C4B59854  41.439  36.877   7.339
 4528POPC   NC359855   1.835  14.741   5.407
 4528POPC   PO459856   2.302  14.258   5.389
 4528POPC   GL159857   2.099  14.443   5.757
 4528POPC   GL259858   1.789  14.321   5.824
 4528POPC   C1A59859   1.929  14.671   6.137
 4528POPC   D2A59860   2.108  14.640   6.494
 4528POPC   C3A59861   1.934  14.735   6.881
 4528POPC   C4A59862   1.998  14.396   7.156
 4528POPC   C1B59863   1.605  14.027   6.098
 4528POPC   C2B59864   1.724  13.901   6.503
 4528POPC   C3B59865   1.575  14.041   6.898
 4528POPC   C4B59866   1.614  14.051   7.325
 4529POPC   NC359867   6.490  10.908   5.258
 4529POPC   PO459868   6.718  11.543   5.365
 4529POPC   GL159869   6.643  11.238   5.697
 4529POPC   GL259870   6.926  11.003   5.735
 4529POPC   C1A59871   6.572  11.204   6.138
 4529POPC   D2A59872   6.469  11.398   6.544
 4529POPC   C3A59873   6.670  11.287   6.917
 4529POPC   C4A59874   6.513  11.275   7.310
 4529POPC   C1B59875   6.970  10.894   6.186
 4529POPC   C2B59876   6.754  10.898   6.608
 4529POPC   C3B59877   6.830  10.845   7.094
 4529POPC   C4B59878   6.951  11.075   7.482
 4530POPC   NC359879  41.137  25.100   5.045
 4530POPC   PO459880  40.909  25.651   5.269
 4530POPC   GL159881  40.698  25.438   5.633
 4530POPC   GL259882  40.892  25.140   5.730
 4530POPC   C1A59883  40.553  25.385   6.088
 4530POPC   D2A59884  40.332  25.335   6.498
 4530POPC   C3A59885  40.633  25.340   6.814
 4530POPC   C4A59886  40.784  25.278   7.215
 4530POPC   C1B59887  41.111  25.111   6.153
 4530POPC   C2B59888  41.187  25.158   6.602
 4530POPC   C3B59889  41.044  24.885   6.908
 4530POPC   C4B59890  40.861  24.767   7.309
 4531POPC   NC359891  44.473   7.783   5.387
 4531POPC   PO459892  44.800   7.115   5.403
 4531POPC   GL159893  44.765   7.421   5.709
 4531POPC   GL259894  44.902   7.748   5.707
 4531POPC   C1A59895  44.846   7.368   6.154
 4531POPC   D2A59896  44.626   7.228   6.517
 4531POPC   C3A59897  44.709   7.455   6.890
 4531POPC   C4A59898  44.481   7.408   7.242
 4531POPC   C1B59899  44.534   7.750   6.023
 4531POPC   C2B59900  44.566   7.749   6.457
 4531POPC   C3B59901  44.516   7.936   6.842
 4531POPC   C4B59902  44.247   7.853   7.145
 4532POPC   NC359903  21.269  19.760   5.391
 4532POPC   PO459904  21.714  19.327   5.505
 4532POPC   GL159905  21.481  19.673   5.868
 4532POPC   GL259906  21.251  19.987   5.840
 4532POPC   C1A59907  21.286  19.837   6.329
 4532POPC   D2A59908  21.143  19.771   6.796
 4532POPC   C3A59909  21.394  19.540   7.162
 4532POPC   C4A59910  21.209  19.332   7.576
 4532POPC   C1B59911  21.601  20.166   6.076
 4532POPC   C2B59912  21.556  20.266   6.525
 4532POPC   C3B59913  21.485  20.117   6.969
 4532POPC   C4B59914  21.669  20.185   7.389
 4533POPC   NC359915   2.380  31.670   5.212
 4533POPC   PO459916   1.801  31.279   5.252
 4533POPC   GL159917   1.810  31.234   5.707
 4533POPC   GL259918   1.678  31.494   5.863
 4533POPC   C1A59919   2.045  31.215   6.099
 4533POPC   D2A59920   2.281  31.306   6.469
 4533POPC   C3A59921   1.957  31.386   6.759
 4533POPC   C4A59922   1.909  31.343   7.184
 4533POPC   C1B59923   1.914  31.707   6.227
 4533POPC   C2B59924   2.197  31.813   6.596
 4533POPC   C3B59925   2.129  31.771   7.048
 4533POPC   C4B59926   2.163  31.637   7.500
 4534POPC   NC359927  17.090  29.163   5.477
 4534POPC   PO459928  17.788  29.004   5.564
 4534POPC   GL159929  17.643  29.316   5.889
 4534POPC   GL259930  17.292  29.416   5.887
 4534POPC   C1A59931  17.655  29.456   6.324
 4534POPC   D2A59932  17.813  29.179   6.621
 4534POPC   C3A59933  17.702  29.133   7.031
 4534POPC   C4A59934  17.718  28.754   7.166
 4534POPC   C1B59935  17.217  29.210   6.267
 4534POPC   C2B59936  17.309  29.211   6.703
 4534POPC   C3B59937  17.183  29.246   7.117
 4534POPC   C4B59938  16.888  29.140   7.457
 4535POPC   NC359939  33.891  21.431   5.412
 4535POPC   PO459940  33.350  21.827   5.489
 4535POPC   GL159941  33.711  21.697   5.823
 4535POPC   GL259942  33.770  21.335   5.905
 4535POPC   C1A59943  33.883  21.658   6.279
 4535POPC   D2A59944  33.738  21.585   6.727
 4535POPC   C3A59945  34.008  21.445   7.081
 4535POPC   C4A59946  34.091  21.018   7.223
 4535POPC   C1B59947  33.717  21.181   6.355
 4535POPC   C2B59948  33.783  21.058   6.804
 4535POPC   C3B59949  33.588  21.181   7.197
 4535POPC   C4B59950  33.486  21.162   7.641
 4536POPC   NC359951  37.070  12.965   5.442
 4536POPC   PO459952  36.715  12.487   5.538
 4536POPC   GL159953  36.709  12.830   5.866
 4536POPC   GL259954  36.964  13.084   5.918
 4536POPC   C1A59955  36.679  12.931   6.330
 4536POPC   D2A59956  36.771  12.677   6.711
 4536POPC   C3A59957  36.863  12.881   7.145
 4536POPC   C4A59958  36.767  12.800   7.599
 4536POPC   C1B59959  37.182  13.011   6.297
 4536POPC   C2B59960  37.063  13.122   6.709
 4536POPC   C3B59961  37.264  13.218   7.092
 4536POPC   C4B59962  37.122  13.196   7.507
 4537POPC   NC359963  34.294   1.484   5.237
 4537POPC   PO459964  34.661   0.969   5.403
 4537POPC   GL159965  34.670   1.286   5.772
 4537POPC   GL259966  34.348   1.518   5.762
 4537POPC   C1A59967  34.626   1.192   6.221
 4537POPC   D2A59968  34.247   1.224   6.490
 4537POPC   C3A59969  34.242   0.968   6.867
 4537POPC   C4A59970  34.580   0.952   7.150
 4537POPC   C1B59971  34.537   1.689   6.127
 4537POPC   C2B59972  34.607   1.610   6.552
 4537POPC   C3B59973  34.514   1.445   6.945
 4537POPC   C4B59974  34.860   1.364   7.232
 4538POPC   NC359975  13.814   1.916   5.418
 4538POPC   PO459976  13.252   1.773   5.444
 4538POPC   GL159977  13.391   1.823   5.812
 4538POPC   GL259978  13.224   2.091   5.868
 4538POPC   C1A59979  13.702   1.758   6.112
 4538POPC   D2A59980  13.889   1.804   6.525
 4538POPC   C3A59981  13.674   2.079   6.792
 4538POPC   C4A59982  13.832   2.085   7.192
 4538POPC   C1B59983  13.396   2.173   6.264
 4538POPC   C2B59984  13.192   2.505   6.500
 4538POPC   C3B59985  13.001   2.450   6.899
 4538POPC   C4B59986  13.248   2.168   7.164
 4539POPC   NC359987  13.645  27.584   5.439
 4539POPC   PO459988  13.989  27.079   5.393
 4539POPC   GL159989  13.796  27.181   5.802
 4539POPC   GL259990  13.829  27.539   5.921
 4539POPC   C1A59991  13.392  27.249   6.027
 4539POPC   D2A59992  13.249  27.328   6.464
 4539POPC   C3A59993  13.537  27.532   6.768
 4539POPC   C4A59994  13.706  27.335   7.128
 4539POPC   C1B59995  13.777  27.368   6.334
 4539POPC   C2B59996  14.038  27.375   6.721
 4539POPC   C3B59997  13.988  27.736   7.009
 4539POPC   C4B59998  13.687  27.817   7.363
 4540POPC   NC359999  30.395   5.162   5.546
 4540POPC   PO460000  30.590   4.663   5.153
 4540POPC   GL160001  30.718   4.763   5.618
 4540POPC   GL260002  30.884   5.110   5.697
 4540POPC   C1A60003  30.602   4.831   6.087
 4540POPC   D2A60004  30.587   4.677   6.523
 4540POPC   C3A60005  30.521   4.967   6.885
 4540POPC   C4A60006  30.460   4.970   7.307
 4540POPC   C1B60007  31.016   5.131   6.117
 4540POPC   C2B60008  30.816   5.142   6.498
 4540POPC   C3B60009  30.999   5.261   6.859
 4540POPC   C4B60010  30.751   5.404   7.176
 4541POPC   NC360011   1.392  28.428   5.446
 4541POPC   PO460012   0.857  28.820   5.280
 4541POPC   GL160013   0.892  28.542   5.733
 4541POPC   GL260014   0.973  28.180   5.722
 4541POPC   C1A60015   1.177  28.508   6.142
 4541POPC   D2A60016   1.490  28.625   6.460
 4541POPC   C3A60017   1.472  28.473   6.905
 4541POPC   C4A60018   1.209  28.405   7.289
 4541POPC   C1B60019   1.074  28.010   6.165
 4541POPC   C2B60020   1.242  28.175   6.531
 4541POPC   C3B60021   1.163  28.051   6.932
 4541POPC   C4B60022   1.093  27.822   7.309
 4542POPC   NC360023  30.470  39.428   5.174
 4542POPC   PO460024  30.745  38.893   5.552
 4542POPC   GL160025  30.538  39.183   5.857
 4542POPC   GL260026  30.442  39.546   5.752
 4542POPC   C1A60027  30.518  39.113   6.303
 4542POPC   D2A60028  30.873  39.024   6.566
 4542POPC   C3A60029  30.726  38.983   6.975
 4542POPC   C4A60030  30.769  38.789   7.359
 4542POPC   C1B60031  30.556  39.627   6.223
 4542POPC   C2B60032  30.607  39.461   6.681
 4542POPC   C3B60033  30.851  39.454   7.073
 4542POPC   C4B60034  30.862  39.584   7.504
 4543POPC   NC360035  18.376  42.010   5.392
 4543POPC   PO460036  17.983  42.594   5.222
 4543POPC   GL160037  18.188  42.414   5.660
 4543POPC   GL260038  18.004  42.132   5.786
 4543POPC   C1A60039  18.369  42.339   6.120
 4543POPC   D2A60040  18.507  42.088   6.521
 4543POPC   C3A60041  18.363  42.198   6.940
 4543POPC   C4A60042  18.312  42.281   7.400
 4543POPC   C1B60043  17.873  42.238   6.233
 4543POPC   C2B60044  17.883  42.330   6.685
 4543POPC   C3B60045  17.886  42.225   7.106
 4543POPC   C4B60046  18.045  41.860   7.222
 4544POPC   NC360047   1.386  26.625   5.409
 4544POPC   PO460048   1.026  27.165   5.488
 4544POPC   GL160049   1.096  26.874   5.779
 4544POPC   GL260050   0.815  26.699   5.683
 4544POPC   C1A60051   1.194  26.895   6.201
 4544POPC   D2A60052   1.329  26.756   6.597
 4544POPC   C3A60053   1.244  26.973   6.976
 4544POPC   C4A60054   1.424  26.744   7.286
 4544POPC   C1B60055   0.836  26.528   6.088
 4544POPC   C2B60056   0.852  26.644   6.503
 4544POPC   C3B60057   0.975  26.505   6.904
 4544POPC   C4B60058   0.875  26.707   7.245
 4545POPC   NC360059  37.615   2.912   5.330
 4545POPC   PO460060  37.842   2.267   5.385
 4545POPC   GL160061  37.494   2.461   5.662
 4545POPC   GL260062  37.412   2.812   5.780
 4545POPC   C1A60063  37.418   2.436   6.119
 4545POPC   D2A60064  37.416   2.738   6.467
 4545POPC   C3A60065  37.796   2.644   6.715
 4545POPC   C4A60066  37.802   2.447   7.098
 4545POPC   C1B60067  37.752   2.839   6.068
 4545POPC   C2B60068  37.870   3.049   6.432
 4545POPC   C3B60069  37.611   3.149   6.766
 4545POPC   C4B60070  37.662   2.941   7.120
 4546POPC   NC360071   5.512  16.839   5.371
 4546POPC   PO460072   6.199  16.658   5.239
 4546POPC   GL160073   5.943  16.475   5.643
 4546POPC   GL260074   5.605  16.298   5.719
 4546POPC   C1A60075   5.791  16.552   6.119
 4546POPC   D2A60076   5.766  16.645   6.600
 4546POPC   C3A60077   5.810  17.083   6.807
 4546POPC   C4A60078   5.885  17.231   7.248
 4546POPC   C1B60079   5.426  16.161   6.164
 4546POPC   C2B60080   5.340  16.319   6.626
 4546POPC   C3B60081   5.588  16.370   6.995
 4546POPC   C4B60082   5.843  16.708   7.161
 4547POPC   NC360083  44.023  15.705   5.397
 4547POPC   PO460084  44.106  16.360   5.473
 4547POPC   GL160085  44.003  15.996   5.807
 4547POPC   GL260086  43.707  15.769   5.798
 4547POPC   C1A60087  44.041  15.738   6.198
 4547POPC   D2A60088  43.923  15.885   6.607
 4547POPC   C3A60089  43.914  15.692   7.009
 4547POPC   C4A60090  43.852  15.964   7.343
 4547POPC   C1B60091  43.552  15.929   6.197
 4547POPC   C2B60092  43.421  15.711   6.581
 4547POPC   C3B60093  43.434  15.842   7.008
 4547POPC   C4B60094  43.445  15.620   7.400
 4548POPC   NC360095  38.568  43.012   5.210
 4548POPC   PO460096  38.173  43.471   5.104
 4548POPC   GL160097  38.352  43.258   5.609
 4548POPC   GL260098  38.532  42.999   5.811
 4548POPC   C1A60099  38.249  43.298   6.100
 4548POPC   D2A60100  38.426  43.175   6.531
 4548POPC   C3A60101  38.265  42.956   6.929
 4548POPC   C4A60102  38.431  42.914   7.379
 4548POPC   C1B60103  38.808  43.041   6.191
 4548POPC   C2B60104  39.010  43.090   6.619
 4548POPC   C3B60105  38.750  43.113   7.020
 4548POPC   C4B60106  38.745  43.304   7.469
 4549POPC   NC360107   2.036   0.876   5.505
 4549POPC   PO460108   1.618   1.263   5.624
 4549POPC   GL160109   1.823   1.066   5.941
 4549POPC   GL260110   2.113   1.266   5.861
 4549POPC   C1A60111   1.813   1.195   6.363
 4549POPC   D2A60112   1.678   1.425   6.714
 4549POPC   C3A60113   1.799   1.179   7.027
 4549POPC   C4A60114   2.128   1.367   7.194
 4549POPC   C1B60115   2.311   1.400   6.224
 4549POPC   C2B60116   2.236   1.410   6.658
 4549POPC   C3B60117   2.558   1.366   6.946
 4549POPC   C4B60118   2.592   1.103   7.282
 4550POPC   NC360119  17.284  22.785   5.250
 4550POPC   PO460120  17.790  23.141   5.532
 4550POPC   GL160121  17.648  22.844   5.826
 4550POPC   GL260122  17.287  22.797   5.789
 4550POPC   C1A60123  17.649  22.893   6.269
 4550POPC   D2A60124  17.488  23.119   6.659
 4550POPC   C3A60125  17.660  23.020   7.078
 4550POPC   C4A60126  17.786  23.246   7.475
 4550POPC   C1B60127  17.145  22.796   6.229
 4550POPC   C2B60128  17.340  22.632   6.598
 4550POPC   C3B60129  17.243  22.551   6.986
 4550POPC   C4B60130  17.218  22.844   7.287
 4551POPC   NC360131  23.015  36.257   5.419
 4551POPC   PO460132  23.495  35.752   5.363
 4551POPC   GL160133  23.240  35.885   5.715
 4551POPC   GL260134  22.853  35.913   5.745
 4551POPC   C1A60135  23.189  36.096   6.110
 4551POPC   D2A60136  23.042  35.957   6.508
 4551POPC   C3A60137  23.112  36.175   6.860
 4551POPC   C4A60138  23.089  36.133   7.273
 4551POPC   C1B60139  22.670  35.945   6.174
 4551POPC   C2B60140  22.550  36.025   6.627
 4551POPC   C3B60141  22.633  36.233   7.029
 4551POPC   C4B60142  22.886  36.597   7.190
 4552POPC   NC360143   3.258   0.323   4.998
 4552POPC   PO460144   3.890   0.254   5.255
 4552POPC   GL160145   3.811   0.495   5.707
 4552POPC   GL260146   3.799   0.265   6.024
 4552POPC   C1A60147   3.667   0.748   6.093
 4552POPC   D2A60148   3.570   0.549   6.473
 4552POPC   C3A60149   3.762   0.655   6.869
 4552POPC   C4A60150   3.751   0.355   7.250
 4552POPC   C1B60151   3.335   0.210   6.136
 4552POPC   C2B60152   3.141   0.287   6.521
 4552POPC   C3B60153   3.328   0.377   6.927
 4552POPC   C4B60154   3.194   0.130   7.262
 4553POPC   NC360155  35.031   1.281   5.395
 4553POPC   PO460156  35.464   0.801   5.338
 4553POPC   GL160157  35.388   1.056   5.733
 4553POPC   GL260158  35.657   1.298   5.894
 4553POPC   C1A60159  35.135   1.069   6.123
 4553POPC   D2A60160  35.016   1.155   6.579
 4553POPC   C3A60161  35.310   1.011   6.902
 4553POPC   C4A60162  35.184   0.944   7.325
 4553POPC   C1B60163  35.657   1.556   6.313
 4553POPC   C2B60164  35.741   1.598   6.803
 4553POPC   C3B60165  35.757   1.527   7.301
 4553POPC   C4B60166  35.904   1.331   7.729
 4554POPC   NC360167  29.014   4.035   5.374
 4554POPC   PO460168  29.250   4.683   5.566
 4554POPC   GL160169  29.234   4.319   5.802
 4554POPC   GL260170  28.884   4.161   5.855
 4554POPC   C1A60171  29.202   4.362   6.237
 4554POPC   D2A60172  28.882   4.428   6.537
 4554POPC   C3A60173  29.053   4.329   6.925
 4554POPC   C4A60174  29.065   4.582   7.286
 4554POPC   C1B60175  28.890   3.953   6.269
 4554POPC   C2B60176  29.276   3.899   6.495
 4554POPC   C3B60177  29.452   3.938   6.898
 4554POPC   C4B60178  29.356   4.144   7.299
 4555POPC   NC360179  33.909  40.549   5.426
 4555POPC   PO460180  33.665  41.113   5.546
 4555POPC   GL160181  33.779  40.769   5.850
 4555POPC   GL260182  33.473  40.613   5.941
 4555POPC   C1A60183  34.011  40.547   6.227
 4555POPC   D2A60184  34.023  40.307   6.637
 4555POPC   C3A60185  33.879  40.566   6.979
 4555POPC   C4A60186  33.470  40.624   7.166
 4555POPC   C1B60187  33.650  40.938   6.290
 4555POPC   C2B60188  33.699  41.193   6.685
 4555POPC   C3B60189  33.555  41.131   7.108
 4555POPC   C4B60190  33.589  41.021   7.548
 4556POPC   NC360191  28.670   0.526   5.606
 4556POPC   PO460192  29.223   0.228   5.288
 4556POPC   GL160193  29.106   0.299   5.731
 4556POPC   GL260194  29.189   0.631   5.926
 4556POPC   C1A60195  29.131   0.159   6.150
 4556POPC   D2A60196  29.027   0.442   6.451
 4556POPC   C3A60197  28.951   0.339   6.864
 4556POPC   C4A60198  29.179   0.507   7.181
 4556POPC   C1B60199  28.948   0.896   6.244
 4556POPC   C2B60200  28.847   0.851   6.711
 4556POPC   C3B60201  28.791   0.852   7.162
 4556POPC   C4B60202  28.673   0.844   7.608
 4557POPC   NC360203  21.580  25.869   5.168
 4557POPC   PO460204  20.983  25.974   5.468
 4557POPC   GL160205  21.200  26.114   5.812
 4557POPC   GL260206  21.531  26.045   5.682
 4557POPC   C1A60207  21.337  25.993   6.234
 4557POPC   D2A60208  21.510  25.923   6.646
 4557POPC   C3A60209  21.270  25.721   6.947
 4557POPC   C4A60210  21.058  25.998   7.242
 4557POPC   C1B60211  21.608  26.370   6.029
 4557POPC   C2B60212  21.699  26.369   6.469
 4557POPC   C3B60213  21.656  26.374   6.913
 4557POPC   C4B60214  21.610  26.058   7.214
 4558POPC   NC360215  16.601   7.857   5.136
 4558POPC   PO460216  16.178   8.204   5.469
 4558POPC   GL160217  16.370   8.047   5.896
 4558POPC   GL260218  16.774   8.030   5.924
 4558POPC   C1A60219  16.519   8.094   6.354
 4558POPC   D2A60220  16.656   8.005   6.776
 4558POPC   C3A60221  16.478   8.121   7.161
 4558POPC   C4A60222  16.524   8.015   7.607
 4558POPC   C1B60223  17.014   8.139   6.348
 4558POPC   C2B60224  17.081   8.281   6.784
 4558POPC   C3B60225  16.955   8.322   7.216
 4558POPC   C4B60226  17.125   8.530   7.591
 4559POPC   NC360227  17.116   4.094   5.520
 4559POPC   PO460228  16.759   4.639   5.418
 4559POPC   GL160229  16.681   4.371   5.772
 4559POPC   GL260230  16.361   4.176   5.819
 4559POPC   C1A60231  16.829   4.327   6.168
 4559POPC   D2A60232  16.672   4.255   6.566
 4559POPC   C3A60233  16.795   4.385   6.962
 4559POPC   C4A60234  16.946   4.170   7.320
 4559POPC   C1B60235  16.552   3.899   6.147
 4559POPC   C2B60236  16.753   3.757   6.536
 4559POPC   C3B60237  16.666   3.893   6.944
 4559POPC   C4B60238  16.555   3.800   7.324
 4560POPC   NC360239  43.167  12.984   5.483
 4560POPC   PO460240  43.401  12.362   5.711
 4560POPC   GL160241  43.188  12.681   5.947
 4560POPC   GL260242  43.339  13.016   5.950
 4560POPC   C1A60243  43.323  12.760   6.376
 4560POPC   D2A60244  43.447  13.046   6.669
 4560POPC   C3A60245  43.287  12.850   7.025
 4560POPC   C4A60246  43.064  12.742   7.395
 4560POPC   C1B60247  43.079  13.230   6.226
 4560POPC   C2B60248  42.650  13.282   6.434
 4560POPC   C3B60249  42.611  13.118   6.833
 4560POPC   C4B60250  42.914  13.162   7.158
 4561POPC   NC360251  39.568  15.426   5.383
 4561POPC   PO460252  39.104  14.978   5.493
 4561POPC   GL160253  39.260  15.280   5.801
 4561POPC   GL260254  38.931  15.412   5.890
 4561POPC   C1A60255  39.293  15.412   6.245
 4561POPC   D2A60256  38.981  15.274   6.557
 4561POPC   C3A60257  39.073  15.327   6.991
 4561POPC   C4A60258  39.477  15.428   7.120
 4561POPC   C1B60259  38.952  14.982   6.143
 4561POPC   C2B60260  38.997  14.775   6.614
 4561POPC   C3B60261  38.979  14.836   7.103
 4561POPC   C4B60262  38.678  14.750   7.468
 4562POPC   NC360263  27.995  30.068   5.153
 4562POPC   PO460264  28.581  29.866   5.317
 4562POPC   GL160265  28.330  29.790   5.734
 4562POPC   GL260266  28.625  29.791   5.981
 4562POPC   C1A60267  28.140  29.923   6.139
 4562POPC   D2A60268  28.048  30.006   6.582
 4562POPC   C3A60269  28.398  29.932   6.859
 4562POPC   C4A60270  28.392  29.974   7.288
 4562POPC   C1B60271  28.549  30.239   6.186
 4562POPC   C2B60272  28.429  30.402   6.620
 4562POPC   C3B60273  28.584  30.386   7.072
 4562POPC   C4B60274  28.873  30.163   7.389
 4563POPC   NC360275  44.144   2.996   5.634
 4563POPC   PO460276  43.747   2.491   5.472
 4563POPC   GL160277  43.873   2.616   5.885
 4563POPC   GL260278  44.212   2.530   5.841
 4563POPC   C1A60279  43.809   2.901   6.257
 4563POPC   D2A60280  43.772   3.051   6.695
 4563POPC   C3A60281  43.663   2.824   7.071
 4563POPC   C4A60282  43.625   2.961   7.503
 4563POPC   C1B60283  44.344   2.712   6.205
 4563POPC   C2B60284  44.136   2.663   6.595
 4563POPC   C3B60285  44.167   2.816   7.010
 4563POPC   C4B60286  44.015   2.604   7.410
 4564POPC   NC360287  39.758  22.673   5.397
 4564POPC   PO460288  39.125  22.820   5.341
 4564POPC   GL160289  39.347  22.852   5.782
 4564POPC   GL260290  39.649  23.060   5.804
 4564POPC   C1A60291  39.431  22.944   6.259
 4564POPC   D2A60292  39.155  22.897   6.608
 4564POPC   C3A60293  39.242  22.851   7.044
 4564POPC   C4A60294  39.153  22.625   7.417
 4564POPC   C1B60295  39.504  23.406   6.075
 4564POPC   C2B60296  39.311  23.437   6.486
 4564POPC   C3B60297  39.407  23.328   6.905
 4564POPC   C4B60298  39.220  23.315   7.306
 4565POPC   NC360299  35.153  30.960   5.288
 4565POPC   PO460300  35.698  30.597   5.399
 4565POPC   GL160301  35.532  30.548   5.804
 4565POPC   GL260302  35.508  30.896   5.838
 4565POPC   C1A60303  35.562  30.369   6.232
 4565POPC   D2A60304  35.307  30.410   6.629
 4565POPC   C3A60305  35.493  30.500   7.023
 4565POPC   C4A60306  35.907  30.392   7.076
 4565POPC   C1B60307  35.361  30.841   6.311
 4565POPC   C2B60308  35.229  30.894   6.756
 4565POPC   C3B60309  35.213  30.938   7.199
 4565POPC   C4B60310  35.388  31.088   7.593
 4566POPC   NC360311  32.888  43.433   5.404
 4566POPC   PO460312  33.442  43.305   5.685
 4566POPC   GL160313  33.112  43.218   5.913
 4566POPC   GL260314  32.797  43.133   5.791
 4566POPC   C1A60315  32.944  43.459   6.236
 4566POPC   D2A60316  32.939  43.674   6.629
 4566POPC   C3A60317  33.057  43.442   6.966
 4566POPC   C4A60318  33.275  43.251   7.274
 4566POPC   C1B60319  32.746  42.985   6.199
 4566POPC   C2B60320  32.949  43.063   6.575
 4566POPC   C3B60321  32.971  42.917   6.977
 4566POPC   C4B60322  32.848  42.736   7.346
 4567POPC   NC360323  22.894  25.642   5.217
 4567POPC   PO460324  22.907  26.212   5.519
 4567POPC   GL160325  22.859  26.060   5.932
 4567POPC   GL260326  22.622  25.873   5.816
 4567POPC   C1A60327  23.079  25.983   6.333
 4567POPC   D2A60328  23.062  25.701   6.700
 4567POPC   C3A60329  23.115  25.963   7.053
 4567POPC   C4A60330  23.024  26.428   7.095
 4567POPC   C1B60331  22.390  25.938   6.169
 4567POPC   C2B60332  22.595  25.927   6.526
 4567POPC   C3B60333  22.651  26.121   6.873
 4567POPC   C4B60334  22.635  25.921   7.237
 4568POPC   NC360335  27.182  41.539   5.420
 4568POPC   PO460336  27.569  41.044   5.319
 4568POPC   GL160337  27.501  41.293   5.741
 4568POPC   GL260338  27.141  41.262   5.835
 4568POPC   C1A60339  27.668  41.570   6.118
 4568POPC   D2A60340  27.778  41.832   6.523
 4568POPC   C3A60341  27.734  41.699   6.983
 4568POPC   C4A60342  27.975  41.414   7.299
 4568POPC   C1B60343  27.276  41.226   6.248
 4568POPC   C2B60344  27.602  41.275   6.545
 4568POPC   C3B60345  27.627  41.178   6.963
 4568POPC   C4B60346  27.419  41.392   7.255
 4569POPC   NC360347  28.832  37.967   5.493
 4569POPC   PO460348  28.424  37.490   5.677
 4569POPC   GL160349  28.396  37.893   5.886
 4569POPC   GL260350  28.696  38.073   5.970
 4569POPC   C1A60351  28.157  37.932   6.277
 4569POPC   D2A60352  28.292  37.799   6.700
 4569POPC   C3A60353  28.075  37.775   7.046
 4569POPC   C4A60354  27.934  38.140   7.249
 4569POPC   C1B60355  28.662  37.821   6.342
 4569POPC   C2B60356  28.694  37.503   6.695
 4569POPC   C3B60357  28.550  37.537   7.142
 4569POPC   C4B60358  28.689  37.526   7.605
 4570POPC   NC360359  44.156  10.077   5.509
 4570POPC   PO460360  43.645   9.599   5.243
 4570POPC   GL160361  43.632   9.569   5.698
 4570POPC   GL260362  43.961   9.654   5.698
 4570POPC   C1A60363  43.751   9.691   6.144
 4570POPC   D2A60364  43.852   9.913   6.507
 4570POPC   C3A60365  43.854   9.674   6.890
 4570POPC   C4A60366  43.786   9.787   7.323
 4570POPC   C1B60367  44.170   9.389   5.994
 4570POPC   C2B60368  44.199   9.470   6.410
 4570POPC   C3B60369  44.355   9.385   6.798
 4570POPC   C4B60370  44.276   9.489   7.222
 4571POPC   NC360371  42.879  41.605   5.337
 4571POPC   PO460372  42.384  41.185   5.421
 4571POPC   GL160373  42.320  41.468   5.816
 4571POPC   GL260374  42.070  41.758   5.914
 4571POPC   C1A60375  42.420  41.527   6.258
 4571POPC   D2A60376  42.609  41.375   6.644
 4571POPC   C3A60377  42.498  41.571   7.054
 4571POPC   C4A60378  42.804  41.821   7.313
 4571POPC   C1B60379  41.909  41.440   6.209
 4571POPC   C2B60380  42.056  41.491   6.618
 4571POPC   C3B60381  41.845  41.491   6.992
 4571POPC   C4B60382  42.017  41.319   7.344
 4572POPC   NC360383  34.398   7.445   5.524
 4572POPC   PO460384  35.034   7.303   5.667
 4572POPC   GL160385  34.768   7.474   5.962
 4572POPC   GL260386  34.545   7.238   5.945
 4572POPC   C1A60387  34.740   7.405   6.412
 4572POPC   D2A60388  34.727   7.699   6.761
 4572POPC   C3A60389  34.626   7.547   7.163
 4572POPC   C4A60390  34.801   7.174   7.387
 4572POPC   C1B60391  34.244   7.388   6.201
 4572POPC   C2B60392  34.258   7.291   6.616
 4572POPC   C3B60393  34.060   7.050   6.905
 4572POPC   C4B60394  34.225   7.251   7.240
 4573POPC   NC360395  16.655  26.376   5.494
 4573POPC   PO460396  16.930  25.792   5.450
 4573POPC   GL160397  16.743  25.932   5.801
 4573POPC   GL260398  17.040  26.111   5.870
 4573POPC   C1A60399  16.784  25.886   6.243
 4573POPC   D2A60400  16.924  26.025   6.623
 4573POPC   C3A60401  16.646  25.940   7.007
 4573POPC   C4A60402  16.555  25.940   7.462
 4573POPC   C1B60403  17.273  26.233   6.213
 4573POPC   C2B60404  17.241  26.450   6.603
 4573POPC   C3B60405  17.035  26.336   6.999
 4573POPC   C4B60406  17.143  25.889   7.070
 4574POPC   NC360407  42.268  14.224   5.412
 4574POPC   PO460408  42.137  14.781   5.236
 4574POPC   GL160409  42.371  14.655   5.683
 4574POPC   GL260410  42.203  14.373   5.881
 4574POPC   C1A60411  42.584  14.605   6.113
 4574POPC   D2A60412  42.438  14.660   6.536
 4574POPC   C3A60413  42.556  14.476   6.940
 4574POPC   C4A60414  42.459  14.576   7.368
 4574POPC   C1B60415  42.128  14.275   6.311
 4574POPC   C2B60416  42.088  14.284   6.750
 4574POPC   C3B60417  42.046  14.347   7.172
 4574POPC   C4B60418  42.194  14.169   7.553
 4575POPC   NC360419  44.135  11.092   5.426
 4575POPC   PO460420  43.618  11.026   5.868
 4575POPC   GL160421  44.005  11.229   5.898
 4575POPC   GL260422  44.236  10.962   5.940
 4575POPC   C1A60423  44.057  11.356   6.289
 4575POPC   D2A60424  43.725  11.334   6.596
 4575POPC   C3A60425  43.874  11.352   6.985
 4575POPC   C4A60426  44.293  11.303   7.113
 4575POPC   C1B60427  44.018  10.841   6.348
 4575POPC   C2B60428  43.962  10.874   6.787
 4575POPC   C3B60429  43.948  10.895   7.239
 4575POPC   C4B60430  44.085  10.856   7.650
 4576POPC   NC360431  12.284  37.746   5.343
 4576POPC   PO460432  11.681  37.626   5.479
 4576POPC   GL160433  11.975  37.750   5.791
 4576POPC   GL260434  12.336  37.872   5.835
 4576POPC   C1A60435  11.921  37.820   6.224
 4576POPC   D2A60436  12.013  38.054   6.564
 4576POPC   C3A60437  12.119  37.783   6.883
 4576POPC   C4A60438  11.871  37.698   7.211
 4576POPC   C1B60439  12.277  37.482   6.108
 4576POPC   C2B60440  12.189  37.403   6.530
 4576POPC   C3B60441  12.152  37.251   6.944
 4576POPC   C4B60442  12.276  37.393   7.307
 4577POPC   NC360443  14.300   3.414   5.449
 4577POPC   PO460444  14.283   4.032   5.747
 4577POPC   GL160445  14.355   3.603   5.940
 4577POPC   GL260446  14.089   3.315   5.898
 4577POPC   C1A60447  14.659   3.514   6.287
 4577POPC   D2A60448  14.510   3.416   6.724
 4577POPC   C3A60449  14.607   3.714   7.010
 4577POPC   C4A60450  14.447   3.734   7.422
 4577POPC   C1B60451  13.942   3.494   6.281
 4577POPC   C2B60452  13.942   3.803   6.621
 4577POPC   C3B60453  14.091   3.675   7.031
 4577POPC   C4B60454  13.966   3.470   7.396
 4578POPC   NC360455  20.363  19.524   5.530
 4578POPC   PO460456  20.570  18.978   5.184
 4578POPC   GL160457  20.586  19.028   5.662
 4578POPC   GL260458  20.352  18.810   5.812
 4578POPC   C1A60459  20.621  19.075   6.153
 4578POPC   D2A60460  20.425  19.145   6.573
 4578POPC   C3A60461  20.583  19.014   6.977
 4578POPC   C4A60462  20.908  19.078   7.258
 4578POPC   C1B60463  20.373  18.635   6.257
 4578POPC   C2B60464  20.259  18.670   6.693
 4578POPC   C3B60465  20.253  18.664   7.134
 4578POPC   C4B60466  20.389  18.921   7.487
 4579POPC   NC360467  40.254  21.800   5.161
 4579POPC   PO460468  39.766  22.228   5.336
 4579POPC   GL160469  40.004  22.307   5.758
 4579POPC   GL260470  39.798  22.144   5.994
 4579POPC   C1A60471  40.253  22.047   6.133
 4579POPC   D2A60472  40.427  21.983   6.540
 4579POPC   C3A60473  40.128  21.999   6.882
 4579POPC   C4A60474  40.299  22.109   7.282
 4579POPC   C1B60475  39.711  22.527   6.152
 4579POPC   C2B60476  39.586  22.534   6.585
 4579POPC   C3B60477  39.781  22.434   6.994
 4579POPC   C4B60478  39.651  22.724   7.328
 4580POPC   NC360479  19.556  20.768   5.401
 4580POPC   PO460480  20.276  20.756   5.232
 4580POPC   GL160481  20.185  20.500   5.637
 4580POPC   GL260482  19.854  20.595   5.779
 4580POPC   C1A60483  20.190  20.502   6.130
 4580POPC   D2A60484  19.988  20.675   6.508
 4580POPC   C3A60485  19.851  20.575   6.932
 4580POPC   C4A60486  20.006  20.688   7.362
 4580POPC   C1B60487  19.677  20.850   6.150
 4580POPC   C2B60488  19.553  20.935   6.626
 4580POPC   C3B60489  19.332  20.674   6.942
 4580POPC   C4B60490  19.512  20.431   7.305
 4581POPC   NC360491  25.371  24.663   5.286
 4581POPC   PO460492  24.805  24.513   5.614
 4581POPC   GL160493  25.167  24.732   5.824
 4581POPC   GL260494  25.511  24.917   5.713
 4581POPC   C1A60495  25.165  24.555   6.254
 4581POPC   D2A60496  25.022  24.252   6.607
 4581POPC   C3A60497  25.227  24.378   7.014
 4581POPC   C4A60498  25.339  24.551   7.424
 4581POPC   C1B60499  25.564  24.903   6.179
 4581POPC   C2B60500  25.483  24.718   6.615
 4581POPC   C3B60501  25.552  24.846   7.029
 4581POPC   C4B60502  25.168  25.004   7.130
 4582POPC   NC360503  20.354  27.788   5.491
 4582POPC   PO460504  20.950  27.570   5.457
 4582POPC   GL160505  20.741  27.730   5.832
 4582POPC   GL260506  20.604  27.421   5.930
 4582POPC   C1A60507  20.446  27.836   6.194
 4582POPC   D2A60508  20.599  27.790   6.626
 4582POPC   C3A60509  20.398  27.580   6.962
 4582POPC   C4A60510  20.448  27.872   7.295
 4582POPC   C1B60511  20.855  27.464   6.306
 4582POPC   C2B60512  20.871  27.338   6.744
 4582POPC   C3B60513  20.886  27.617   7.097
 4582POPC   C4B60514  20.792  27.576   7.526
 4583POPC   NC360515  32.748  29.366   5.687
 4583POPC   PO460516  33.471  29.481   5.516
 4583POPC   GL160517  33.328  29.194   5.858
 4583POPC   GL260518  33.559  28.932   5.989
 4583POPC   C1A60519  33.089  29.104   6.241
 4583POPC   D2A60520  32.711  28.989   6.521
 4583POPC   C3A60521  32.750  29.106   6.970
 4583POPC   C4A60522  32.930  29.440   7.247
 4583POPC   C1B60523  33.501  28.828   6.416
 4583POPC   C2B60524  33.199  28.949   6.742
 4583POPC   C3B60525  33.312  29.118   7.132
 4583POPC   C4B60526  33.579  29.041   7.492
 4584POPC   NC360527  31.766  35.224   5.330
 4584POPC   PO460528  31.288  34.829   5.428
 4584POPC   GL160529  31.451  35.126   5.741
 4584POPC   GL260530  31.502  35.488   5.697
 4584POPC   C1A60531  31.528  35.106   6.188
 4584POPC   D2A60532  31.319  35.009   6.602
 4584POPC   C3A60533  31.339  35.297   6.963
 4584POPC   C4A60534  31.425  35.322   7.421
 4584POPC   C1B60535  31.575  35.610   6.139
 4584POPC   C2B60536  31.680  35.441   6.577
 4584POPC   C3B60537  31.748  35.585   7.010
 4584POPC   C4B60538  31.564  35.802   7.349
 4585POPC   NC360539   7.657  41.638   5.231
 4585POPC   PO460540   7.019  41.443   5.303
 4585POPC   GL160541   7.331  41.580   5.670
 4585POPC   GL260542   7.674  41.660   5.865
 4585POPC   C1A60543   7.248  41.525   6.121
 4585POPC   D2A60544   7.460  41.558   6.516
 4585POPC   C3A60545   7.356  41.601   6.925
 4585POPC   C4A60546   7.580  41.835   7.209
 4585POPC   C1B60547   7.732  41.318   6.172
 4585POPC   C2B60548   7.875  41.289   6.628
 4585POPC   C3B60549   7.830  41.426   7.076
 4585POPC   C4B60550   7.743  41.467   7.531
 4586POPC   NC360551  23.998  12.549   5.383
 4586POPC   PO460552  23.468  12.996   5.272
 4586POPC   GL160553  23.817  13.032   5.580
 4586POPC   GL260554  23.706  12.762   5.763
 4586POPC   C1A60555  23.886  13.136   6.056
 4586POPC   D2A60556  23.677  13.238   6.483
 4586POPC   C3A60557  23.801  12.976   6.838
 4586POPC   C4A60558  23.534  12.679   7.073
 4586POPC   C1B60559  23.916  12.616   6.142
 4586POPC   C2B60560  23.793  12.531   6.578
 4586POPC   C3B60561  24.006  12.496   6.968
 4586POPC   C4B60562  23.895  12.188   7.231
 4587POPC   NC360563  40.072  15.538   5.552
 4587POPC   PO460564  39.775  14.993   5.314
 4587POPC   GL160565  39.719  15.048   5.738
 4587POPC   GL260566  40.045  15.005   5.803
 4587POPC   C1A60567  39.793  15.243   6.168
 4587POPC   D2A60568  40.124  15.344   6.479
 4587POPC   C3A60569  39.963  15.309   6.892
 4587POPC   C4A60570  39.819  15.041   7.207
 4587POPC   C1B60571  40.265  14.927   6.202
 4587POPC   C2B60572  40.335  14.880   6.658
 4587POPC   C3B60573  40.305  14.953   7.107
 4587POPC   C4B60574  40.191  14.904   7.577
 4588POPC   NC360575  39.191   3.109   5.440
 4588POPC   PO460576  39.496   3.684   5.203
 4588POPC   GL160577  39.277   3.597   5.660
 4588POPC   GL260578  39.164   3.315   5.887
 4588POPC   C1A60579  39.094   3.818   6.061
 4588POPC   D2A60580  39.194   3.876   6.548
 4588POPC   C3A60581  39.063   3.643   6.954
 4588POPC   C4A60582  38.783   3.573   7.348
 4588POPC   C1B60583  39.355   3.430   6.269
 4588POPC   C2B60584  39.186   3.258   6.624
 4588POPC   C3B60585  39.383   3.223   7.007
 4588POPC   C4B60586  39.112   3.189   7.333
 4589POPC   NC360587  23.219   1.341   5.432
 4589POPC   PO460588  22.579   1.154   5.526
 4589POPC   GL160589  22.905   1.243   5.891
 4589POPC   GL260590  23.208   1.017   5.949
 4589POPC   C1A60591  22.887   1.244   6.377
 4589POPC   D2A60592  23.099   1.182   6.799
 4589POPC   C3A60593  22.766   1.261   7.084
 4589POPC   C4A60594  22.434   1.587   7.079
 4589POPC   C1B60595  23.375   1.254   6.336
 4589POPC   C2B60596  23.308   1.616   6.597
 4589POPC   C3B60597  23.409   1.554   7.025
 4589POPC   C4B60598  23.193   1.397   7.341
 4590POPC   NC360599   7.514   5.808   5.129
 4590POPC   PO460600   7.806   5.694   5.751
 4590POPC   GL160601   7.361   5.800   5.872
 4590POPC   GL260602   7.217   5.487   5.880
 4590POPC   C1A60603   7.059   5.826   6.217
 4590POPC   D2A60604   6.957   5.596   6.586
 4590POPC   C3A60605   7.023   5.813   6.957
 4590POPC   C4A60606   7.274   5.611   7.222
 4590POPC   C1B60607   7.441   5.514   6.320
 4590POPC   C2B60608   7.497   5.659   6.768
 4590POPC   C3B60609   7.663   5.939   7.122
 4590POPC   C4B60610   7.937   5.998   7.504
 4591POPC   NC360611  34.757  27.866   5.398
 4591POPC   PO460612  34.650  27.291   5.322
 4591POPC   GL160613  34.642  27.457   5.783
 4591POPC   GL260614  34.576  27.817   5.870
 4591POPC   C1A60615  34.383  27.489   6.200
 4591POPC   D2A60616  34.281  27.684   6.603
 4591POPC   C3A60617  34.551  27.616   6.926
 4591POPC   C4A60618  34.497  27.258   7.149
 4591POPC   C1B60619  34.419  28.036   6.271
 4591POPC   C2B60620  34.509  28.129   6.748
 4591POPC   C3B60621  34.340  28.023   7.193
 4591POPC   C4B60622  34.342  27.953   7.685
 4592POPC   NC360623  35.848  14.308   5.380
 4592POPC   PO460624  36.365  14.116   5.412
 4592POPC   GL160625  36.160  14.221   5.817
 4592POPC   GL260626  36.022  14.543   5.832
 4592POPC   C1A60627  36.138  14.282   6.292
 4592POPC   D2A60628  36.249  14.563   6.667
 4592POPC   C3A60629  36.372  14.403   7.097
 4592POPC   C4A60630  36.199  14.384   7.521
 4592POPC   C1B60631  35.867  14.712   6.238
 4592POPC   C2B60632  35.739  14.545   6.646
 4592POPC   C3B60633  35.883  14.594   7.103
 4592POPC   C4B60634  35.751  14.653   7.550
 4593POPC   NC360635  10.260  29.254   4.882
 4593POPC   PO460636  10.527  29.269   5.379
 4593POPC   GL160637  10.543  29.057   5.817
 4593POPC   GL260638  10.206  28.969   5.939
 4593POPC   C1A60639  10.566  29.119   6.302
 4593POPC   D2A60640  10.506  28.935   6.747
 4593POPC   C3A60641  10.811  29.024   7.094
 4593POPC   C4A60642  11.127  28.827   7.366
 4593POPC   C1B60643  10.258  28.704   6.335
 4593POPC   C2B60644  10.161  28.529   6.759
 4593POPC   C3B60645  10.040  28.674   7.159
 4593POPC   C4B60646  10.190  29.092   7.224
 4594POPC   NC360647  34.269   6.595   5.392
 4594POPC   PO460648  34.936   6.347   5.390
 4594POPC   GL160649  34.622   6.391   5.730
 4594POPC   GL260650  34.572   6.735   5.853
 4594POPC   C1A60651  34.623   6.393   6.201
 4594POPC   D2A60652  34.865   6.446   6.579
 4594POPC   C3A60653  34.789   6.443   7.002
 4594POPC   C4A60654  34.470   6.339   7.280
 4594POPC   C1B60655  34.504   6.911   6.316
 4594POPC   C2B60656  34.496   6.809   6.742
 4594POPC   C3B60657  34.466   6.829   7.172
 4594POPC   C4B60658  34.392   6.911   7.626
 4595POPC   NC360659  13.846  40.267   5.449
 4595POPC   PO460660  13.233  40.146   5.653
 4595POPC   GL160661  13.504  39.874   5.856
 4595POPC   GL260662  13.825  39.749   5.762
 4595POPC   C1A60663  13.556  39.927   6.265
 4595POPC   D2A60664  13.304  39.919   6.605
 4595POPC   C3A60665  13.544  39.929   6.929
 4595POPC   C4A60666  13.513  39.826   7.315
 4595POPC   C1B60667  14.046  39.819   6.177
 4595POPC   C2B60668  13.947  39.962   6.602
 4595POPC   C3B60669  14.055  39.917   7.045
 4595POPC   C4B60670  13.994  39.711   7.441
 4596POPC   NC360671   0.073  39.417   5.708
 4596POPC   PO460672   0.384  38.884   5.400
 4596POPC   GL160673   0.484  39.101   5.771
 4596POPC   GL260674   0.601  39.433   5.691
 4596POPC   C1A60675   0.414  39.178   6.213
 4596POPC   D2A60676   0.223  39.044   6.577
 4596POPC   C3A60677   0.296  39.337   6.883
 4596POPC   C4A60678   0.578  39.412   7.202
 4596POPC   C1B60679   0.789  39.507   6.110
 4596POPC   C2B60680   0.702  39.453   6.554
 4596POPC   C3B60681   0.922  39.611   6.901
 4596POPC   C4B60682   1.055  39.664   7.331
 4597POPC   NC360683   3.695  38.767   5.295
 4597POPC   PO460684   3.241  38.251   5.378
 4597POPC   GL160685   3.484  38.251   5.764
 4597POPC   GL260686   3.403  38.574   5.862
 4597POPC   C1A60687   3.624  38.234   6.224
 4597POPC   D2A60688   3.633  38.493   6.630
 4597POPC   C3A60689   3.782  38.303   7.014
 4597POPC   C4A60690   3.555  38.052   7.276
 4597POPC   C1B60691   3.170  38.451   6.233
 4597POPC   C2B60692   3.153  38.644   6.638
 4597POPC   C3B60693   3.308  38.536   7.073
 4597POPC   C4B60694   3.507  38.524   7.487
 4598POPC   NC360695  19.908  21.703   5.445
 4598POPC   PO460696  19.644  22.286   5.469
 4598POPC   GL160697  19.891  22.102   5.779
 4598POPC   GL260698  19.571  22.119   5.955
 4598POPC   C1A60699  19.967  21.980   6.210
 4598POPC   D2A60700  19.755  22.076   6.591
 4598POPC   C3A60701  19.850  21.882   6.999
 4598POPC   C4A60702  19.728  21.899   7.444
 4598POPC   C1B60703  19.835  22.455   6.153
 4598POPC   C2B60704  19.965  22.559   6.552
 4598POPC   C3B60705  19.998  22.407   6.953
 4598POPC   C4B60706  19.935  22.558   7.366
 4599POPC   NC360707  22.740  17.087   5.480
 4599POPC   PO460708  22.157  17.385   5.430
 4599POPC   GL160709  22.099  17.374   5.837
 4599POPC   GL260710  22.454  17.338   5.875
 4599POPC   C1A60711  21.860  17.378   6.221
 4599POPC   D2A60712  21.902  17.542   6.629
 4599POPC   C3A60713  21.959  17.414   7.065
 4599POPC   C4A60714  22.157  17.437   7.498
 4599POPC   C1B60715  22.322  17.596   6.237
 4599POPC   C2B60716  22.412  17.615   6.667
 4599POPC   C3B60717  22.455  17.518   7.094
 4599POPC   C4B60718  22.633  17.285   7.452
 4600POPC   NC360719   1.772  14.010   5.412
 4600POPC   PO460720   1.885  13.416   5.451
 4600POPC   GL160721   2.166  13.539   5.784
 4600POPC   GL260722   2.030  13.868   5.854
 4600POPC   C1A60723   2.270  13.465   6.223
 4600POPC   D2A60724   2.165  13.615   6.647
 4600POPC   C3A60725   2.188  13.365   7.031
 4600POPC   C4A60726   2.037  13.425   7.465
 4600POPC   C1B60727   2.100  14.165   6.235
 4600POPC   C2B60728   2.136  14.151   6.708
 4600POPC   C3B60729   2.047  13.888   7.091
 4600POPC   C4B60730   2.037  13.905   7.564
 4601POPC   NC360731  43.557  13.743   5.534
 4601POPC   PO460732  44.170  13.568   5.517
 4601POPC   GL160733  43.948  13.499   5.896
 4601POPC   GL260734  43.561  13.476   5.957
 4601POPC   C1A60735  43.923  13.678   6.284
 4601POPC   D2A60736  43.777  13.984   6.526
 4601POPC   C3A60737  43.888  13.937   6.934
 4601POPC   C4A60738  43.687  13.716   7.258
 4601POPC   C1B60739  43.458  13.527   6.397
 4601POPC   C2B60740  43.703  13.480   6.767
 4601POPC   C3B60741  43.676  13.198   7.121
 4601POPC   C4B60742  43.344  13.164   7.436
 4602POPC   NC360743  44.764  10.347   5.292
 4602POPC   PO460744  44.162  10.455   5.254
 4602POPC   GL160745  44.478  10.606   5.620
 4602POPC   GL260746  44.576  10.286   5.757
 4602POPC   C1A60747  44.699  10.765   6.028
 4602POPC   D2A60748  44.525  10.769   6.491
 4602POPC   C3A60749  44.732  10.724   6.914
 4602POPC   C4A60750  44.505  10.848   7.309
 4602POPC   C1B60751  44.763  10.136   6.120
 4602POPC   C2B60752  44.670  10.283   6.525
 4602POPC   C3B60753  44.678  10.219   6.956
 4602POPC   C4B60754  44.590  10.202   7.392
 4603POPC   NC360755  42.150  25.537   5.474
 4603POPC   PO460756  42.337  24.903   5.310
 4603POPC   GL160757  42.292  25.103   5.727
 4603POPC   GL260758  42.099  24.887   5.927
 4603POPC   C1A60759  42.488  25.100   6.166
 4603POPC   D2A60760  42.620  25.443   6.394
 4603POPC   C3A60761  42.514  25.445   6.828
 4603POPC   C4A60762  42.086  25.541   7.038
 4603POPC   C1B60763  42.013  25.309   6.115
 4603POPC   C2B60764  42.091  25.418   6.538
 4603POPC   C3B60765  42.142  25.077   6.882
 4603POPC   C4B60766  42.283  24.893   7.307
 4604POPC   NC360767  21.719   3.042   5.541
 4604POPC   PO460768  21.340   2.483   5.435
 4604POPC   GL160769  21.419   2.672   5.832
 4604POPC   GL260770  21.292   2.991   5.855
 4604POPC   C1A60771  21.453   2.680   6.291
 4604POPC   D2A60772  21.475   2.936   6.678
 4604POPC   C3A60773  21.674   2.679   7.004
 4604POPC   C4A60774  21.513   2.460   7.365
 4604POPC   C1B60775  21.191   3.137   6.223
 4604POPC   C2B60776  20.904   3.160   6.565
 4604POPC   C3B60777  21.096   3.137   6.973
 4604POPC   C4B60778  21.397   2.979   7.293
 4605POPC   NC360779  43.450  32.295   5.406
 4605POPC   PO460780  44.109  32.152   5.233
 4605POPC   GL160781  43.903  32.253   5.644
 4605POPC   GL260782  43.778  32.623   5.708
 4605POPC   C1A60783  43.894  32.302   6.098
 4605POPC   D2A60784  44.214  32.442   6.388
 4605POPC   C3A60785  44.092  32.440   6.822
 4605POPC   C4A60786  44.252  32.315   7.219
 4605POPC   C1B60787  43.464  32.586   6.076
 4605POPC   C2B60788  43.317  32.565   6.511
 4605POPC   C3B60789  43.466  32.479   6.927
 4605POPC   C4B60790  43.777  32.447   7.238
 4606POPC   NC360791  15.059  24.289   5.430
 4606POPC   PO460792  14.778  24.878   5.712
 4606POPC   GL160793  15.087  24.545   5.930
 4606POPC   GL260794  15.300  24.207   5.873
 4606POPC   C1A60795  15.394  24.484   6.303
 4606POPC   D2A60796  15.494  24.443   6.757
 4606POPC   C3A60797  15.083  24.501   6.897
 4606POPC   C4A60798  14.833  24.848   7.075
 4606POPC   C1B60799  15.027  24.093   6.231
 4606POPC   C2B60800  14.982  23.866   6.626
 4606POPC   C3B60801  15.045  24.007   7.028
 4606POPC   C4B60802  15.412  24.121   7.240
 4607POPC   NC360803  37.725  33.453   5.483
 4607POPC   PO460804  37.785  34.092   5.397
 4607POPC   GL160805  37.601  33.987   5.784
 4607POPC   GL260806  37.417  33.674   5.822
 4607POPC   C1A60807  37.682  33.885   6.210
 4607POPC   D2A60808  37.930  33.769   6.559
 4607POPC   C3A60809  37.807  33.907   6.953
 4607POPC   C4A60810  37.847  33.629   7.314
 4607POPC   C1B60811  37.200  33.774   6.221
 4607POPC   C2B60812  37.285  33.765   6.664
 4607POPC   C3B60813  37.121  33.867   7.051
 4607POPC   C4B60814  37.448  33.947   7.320
 4608POPC   NC360815  22.229  28.175   5.390
 4608POPC   PO460816  21.962  28.827   5.607
 4608POPC   GL160817  22.159  28.469   5.839
 4608POPC   GL260818  22.034  28.111   5.845
 4608POPC   C1A60819  22.154  28.380   6.292
 4608POPC   D2A60820  22.326  28.630   6.656
 4608POPC   C3A60821  22.419  28.420   7.045
 4608POPC   C4A60822  22.454  28.527   7.476
 4608POPC   C1B60823  21.684  28.136   6.105
 4608POPC   C2B60824  21.721  28.233   6.526
 4608POPC   C3B60825  21.937  28.347   6.863
 4608POPC   C4B60826  22.044  28.111   7.207
 4609POPC   NC360827  42.374  36.624   5.325
 4609POPC   PO460828  42.102  37.295   5.447
 4609POPC   GL160829  42.294  37.187   5.814
 4609POPC   GL260830  42.486  36.919   5.739
 4609POPC   C1A60831  42.296  36.977   6.212
 4609POPC   D2A60832  42.024  36.892   6.548
 4609POPC   C3A60833  42.248  37.103   6.838
 4609POPC   C4A60834  42.465  37.090   7.176
 4609POPC   C1B60835  42.669  36.627   6.063
 4609POPC   C2B60836  42.527  36.451   6.419
 4609POPC   C3B60837  42.421  36.623   6.813
 4609POPC   C4B60838  42.402  36.530   7.255
 4610POPC   NC360839  32.065  19.994   5.494
 4610POPC   PO460840  32.525  19.665   5.407
 4610POPC   GL160841  32.487  19.763   5.835
 4610POPC   GL260842  32.164  19.601   5.870
 4610POPC   C1A60843  32.322  19.858   6.283
 4610POPC   D2A60844  32.211  19.720   6.729
 4610POPC   C3A60845  32.339  19.970   7.115
 4610POPC   C4A60846  32.261  20.060   7.584
 4610POPC   C1B60847  32.434  19.347   6.170
 4610POPC   C2B60848  32.608  19.360   6.619
 4610POPC   C3B60849  32.393  19.348   7.038
 4610POPC   C4B60850  32.119  19.200   7.416
 4611POPC   NC360851  26.458   4.285   5.349
 4611POPC   PO460852  27.008   4.678   5.448
 4611POPC   GL160853  26.730   4.514   5.770
 4611POPC   GL260854  26.800   4.155   5.759
 4611POPC   C1A60855  26.829   4.431   6.219
 4611POPC   D2A60856  26.666   4.277   6.607
 4611POPC   C3A60857  26.760   4.511   7.012
 4611POPC   C4A60858  26.814   4.431   7.455
 4611POPC   C1B60859  26.991   3.940   6.137
 4611POPC   C2B60860  27.079   3.949   6.584
 4611POPC   C3B60861  27.095   4.139   6.988
 4611POPC   C4B60862  27.152   4.019   7.413
 4612POPC   NC360863  44.707   9.243   5.539
 4612POPC   PO460864  44.614   9.905   5.398
 4612POPC   GL160865  44.712   9.724   5.778
 4612POPC   GL260866  44.398   9.826   5.888
 4612POPC   C1A60867  44.695   9.590   6.220
 4612POPC   D2A60868  44.791   9.797   6.584
 4612POPC   C3A60869  44.692   9.729   7.030
 4612POPC   C4A60870   0.015   9.873   7.268
 4612POPC   C1B60871  44.315   9.958   6.286
 4612POPC   C2B60872  44.314   9.898   6.724
 4612POPC   C3B60873  44.217   9.988   7.129
 4612POPC   C4B60874  44.183   9.941   7.589
 4613POPC   NC360875  41.248  24.804   5.548
 4613POPC   PO460876  41.499  25.327   5.212
 4613POPC   GL160877  41.397  25.354   5.669
 4613POPC   GL260878  41.677  25.111   5.708
 4613POPC   C1A60879  41.520  25.481   6.121
 4613POPC   D2A60880  41.460  25.639   6.557
 4613POPC   C3A60881  41.575  25.403   6.931
 4613POPC   C4A60882  41.310  25.186   7.214
 4613POPC   C1B60883  41.611  24.967   6.123
 4613POPC   C2B60884  41.692  25.100   6.533
 4613POPC   C3B60885  41.648  24.893   6.947
 4613POPC   C4B60886  41.745  24.963   7.403
 4614POPC   NC360887   6.737  33.260   5.640
 4614POPC   PO460888   6.596  33.818   5.227
 4614POPC   GL160889   6.559  33.933   5.647
 4614POPC   GL260890   6.883  33.843   5.721
 4614POPC   C1A60891   6.525  33.921   6.117
 4614POPC   D2A60892   6.270  33.667   6.436
 4614POPC   C3A60893   6.333  33.717   6.882
 4614POPC   C4A60894   6.571  33.793   7.254
 4614POPC   C1B60895   6.995  33.659   6.122
 4614POPC   C2B60896   6.796  33.713   6.503
 4614POPC   C3B60897   6.937  33.754   6.894
 4614POPC   C4B60898   6.942  33.422   7.138
 4615POPC   NC360899  24.507  29.592   5.441
 4615POPC   PO460900  24.438  28.899   5.530
 4615POPC   GL160901  24.371  29.059   5.925
 4615POPC   GL260902  24.599  29.349   5.897
 4615POPC   C1A60903  24.533  28.904   6.324
 4615POPC   D2A60904  24.875  28.933   6.631
 4615POPC   C3A60905  24.748  29.028   7.084
 4615POPC   C4A60906  24.348  29.241   7.240
 4615POPC   C1B60907  24.694  29.414   6.343
 4615POPC   C2B60908  24.586  29.667   6.696
 4615POPC   C3B60909  24.692  29.634   7.138
 4615POPC   C4B60910  24.777  29.360   7.515
 4616POPC   NC360911  31.938   8.938   5.366
 4616POPC   PO460912  32.568   9.050   5.521
 4616POPC   GL160913  32.286   9.140   5.817
 4616POPC   GL260914  32.146   8.804   5.869
 4616POPC   C1A60915  32.224   9.149   6.248
 4616POPC   D2A60916  32.182   8.824   6.547
 4616POPC   C3A60917  32.227   9.045   6.920
 4616POPC   C4A60918  32.143   8.980   7.319
 4616POPC   C1B60919  32.527   8.729   6.176
 4616POPC   C2B60920  32.638   8.579   6.607
 4616POPC   C3B60921  32.645   8.781   7.016
 4616POPC   C4B60922  32.666   8.895   7.459
 4617POPC   NC360923  29.328  17.785   5.408
 4617POPC   PO460924  29.027  17.208   5.225
 4617POPC   GL160925  29.245  17.369   5.696
 4617POPC   GL260926  29.209  17.650   5.883
 4617POPC   C1A60927  29.146  17.264   6.196
 4617POPC   D2A60928  29.002  17.145   6.661
 4617POPC   C3A60929  29.223  17.359   7.004
 4617POPC   C4A60930  29.105  17.539   7.381
 4617POPC   C1B60931  29.018  17.786   6.275
 4617POPC   C2B60932  28.958  17.696   6.722
 4617POPC   C3B60933  28.832  17.882   7.120
 4617POPC   C4B60934  29.051  18.036   7.518
 4618POPC   NC360935   5.430  34.075   5.438
 4618POPC   PO460936   4.768  33.713   5.426
 4618POPC   GL160937   5.067  33.775   5.755
 4618POPC   GL260938   5.057  33.447   5.872
 4618POPC   C1A60939   5.246  33.828   6.191
 4618POPC   D2A60940   5.354  33.754   6.637
 4618POPC   C3A60941   5.132  33.993   6.979
 4618POPC   C4A60942   5.249  34.011   7.427
 4618POPC   C1B60943   4.899  33.444   6.277
 4618POPC   C2B60944   4.858  33.617   6.661
 4618POPC   C3B60945   4.970  33.530   7.064
 4618POPC   C4B60946   4.846  33.721   7.447
 4619POPC   NC360947  28.098  11.990   5.608
 4619POPC   PO460948  28.605  12.344   5.479
 4619POPC   GL160949  28.545  12.156   5.848
 4619POPC   GL260950  28.265  12.372   5.897
 4619POPC   C1A60951  28.389  12.004   6.248
 4619POPC   D2A60952  28.440  11.796   6.647
 4619POPC   C3A60953  28.512  12.085   7.005
 4619POPC   C4A60954  28.840  11.971   7.298
 4619POPC   C1B60955  28.065  12.413   6.277
 4619POPC   C2B60956  28.124  12.198   6.667
 4619POPC   C3B60957  28.022  11.842   6.948
 4619POPC   C4B60958  28.101  11.903   7.389
 4620POPC   NC360959  42.507  38.377   5.429
 4620POPC   PO460960  41.829  38.273   5.366
 4620POPC   GL160961  42.057  38.444   5.771
 4620POPC   GL260962  42.358  38.629   5.830
 4620POPC   C1A60963  42.191  38.333   6.237
 4620POPC   D2A60964  42.553  38.371   6.572
 4620POPC   C3A60965  42.369  38.381   7.003
 4620POPC   C4A60966  42.043  38.082   7.161
 4620POPC   C1B60967  42.273  38.830   6.210
 4620POPC   C2B60968  42.130  38.696   6.610
 4620POPC   C3B60969  42.225  38.882   6.964
 4620POPC   C4B60970  42.329  38.795   7.333
 4621POPC   NC360971  14.203  43.569   5.611
 4621POPC   PO460972  14.521  43.029   5.347
 4621POPC   GL160973  14.527  43.196   5.739
 4621POPC   GL260974  14.160  43.093   5.782
 4621POPC   C1A60975  14.466  43.104   6.180
 4621POPC   D2A60976  14.554  43.258   6.564
 4621POPC   C3A60977  14.396  43.122   6.891
 4621POPC   C4A60978  14.515  43.072   7.297
 4621POPC   C1B60979  13.949  43.233   6.196
 4621POPC   C2B60980  13.888  43.020   6.611
 4621POPC   C3B60981  13.960  42.966   7.061
 4621POPC   C4B60982  14.061  43.143   7.484
 4622POPC   NC360983  26.513  22.718   5.458
 4622POPC   PO460984  26.575  23.286   5.557
 4622POPC   GL160985  26.716  23.021   5.904
 4622POPC   GL260986  27.062  22.956   5.894
 4622POPC   C1A60987  26.802  22.808   6.315
 4622POPC   D2A60988  26.910  22.881   6.759
 4622POPC   C3A60989  26.572  22.999   7.065
 4622POPC   C4A60990  26.374  22.778   7.439
 4622POPC   C1B60991  27.025  23.262   6.262
 4622POPC   C2B60992  26.962  23.396   6.683
 4622POPC   C3B60993  27.034  23.225   7.113
 4622POPC   C4B60994  27.200  23.211   7.571
 4623POPC   NC360995  39.763  35.030   5.329
 4623POPC   PO460996  40.242  34.618   5.152
 4623POPC   GL160997  40.222  34.641   5.689
 4623POPC   GL260998  40.252  34.280   5.873
 4623POPC   C1A60999  40.256  34.717   6.180
 4623POPC   D2A61000  40.394  34.586   6.622
 4623POPC   C3A61001  40.334  34.814   7.036
 4623POPC   C4A61002  40.254  34.610   7.439
 4623POPC   C1B61003  39.853  34.339   6.148
 4623POPC   C2B61004  39.703  34.364   6.606
 4623POPC   C3B61005  39.936  34.403   7.017
 4623POPC   C4B61006  39.966  34.153   7.389
 4624POPC   NC361007  27.911  27.633   5.377
 4624POPC   PO461008  27.323  27.358   5.310
 4624POPC   GL161009  27.455  27.533   5.750
 4624POPC   GL261010  27.818  27.558   5.874
 4624POPC   C1A61011  27.406  27.597   6.228
 4624POPC   D2A61012  27.285  27.805   6.631
 4624POPC   C3A61013  27.606  27.883   6.942
 4624POPC   C4A61014  27.551  27.992   7.351
 4624POPC   C1B61015  27.845  27.342   6.288
 4624POPC   C2B61016  27.593  27.381   6.701
 4624POPC   C3B61017  27.430  27.451   7.122
 4624POPC   C4B61018  27.795  27.480   7.369
 4625POPC   NC361019  30.272  32.900   5.427
 4625POPC   PO461020  29.619  32.815   5.521
 4625POPC   GL161021  29.977  32.849   5.845
 4625POPC   GL261022  30.194  32.567   5.851
 4625POPC   C1A61023  30.245  33.036   6.199
 4625POPC   D2A61024  30.355  32.908   6.632
 4625POPC   C3A61025  30.206  33.085   7.014
 4625POPC   C4A61026  30.083  32.893   7.412
 4625POPC   C1B61027  30.009  32.590   6.300
 4625POPC   C2B61028  29.931  32.649   6.789
 4625POPC   C3B61029  29.708  32.971   7.077
 4625POPC   C4B61030  29.309  33.080   7.302
 4626POPC   NC361031  11.575  42.834   5.480
 4626POPC   PO461032  11.264  42.147   5.416
 4626POPC   GL161033  11.375  42.204   5.808
 4626POPC   GL261034  11.217  42.536   5.854
 4626POPC   C1A61035  11.561  41.977   6.148
 4626POPC   D2A61036  11.673  42.081   6.559
 4626POPC   C3A61037  11.407  42.022   6.971
 4626POPC   C4A61038  11.563  42.162   7.395
 4626POPC   C1B61039  11.456  42.503   6.242
 4626POPC   C2B61040  11.306  42.427   6.669
 4626POPC   C3B61041  11.368  42.543   7.105
 4626POPC   C4B61042  11.007  42.726   7.342
 4627POPC   NC361043  44.145  29.601   5.392
 4627POPC   PO461044  43.849  30.245   5.212
 4627POPC   GL161045  43.823  30.035   5.684
 4627POPC   GL261046  43.691  29.687   5.792
 4627POPC   C1A61047  43.915  29.988   6.167
 4627POPC   D2A61048  44.151  29.786   6.537
 4627POPC   C3A61049  44.190  29.977   6.959
 4627POPC   C4A61050  43.889  30.116   7.246
 4627POPC   C1B61051  43.491  29.614   6.223
 4627POPC   C2B61052  43.377  29.688   6.684
 4627POPC   C3B61053  43.558  29.767   7.091
 4627POPC   C4B61054  43.646  29.656   7.518
 4628POPC   NC361055  10.108  38.857   5.506
 4628POPC   PO461056   9.953  38.303   5.655
 4628POPC   GL161057   9.809  38.665   5.878
 4628POPC   GL261058  10.103  38.835   6.017
 4628POPC   C1A61059   9.578  38.685   6.254
 4628POPC   D2A61060   9.705  38.614   6.680
 4628POPC   C3A61061   9.505  38.274   6.899
 4628POPC   C4A61062   9.621  38.228   7.323
 4628POPC   C1B61063  10.054  38.490   6.298
 4628POPC   C2B61064   9.936  38.162   6.560
 4628POPC   C3B61065  10.001  38.164   6.985
 4628POPC   C4B61066  10.023  38.547   7.235
 4629POPC   NC361067  19.950  41.959   5.370
 4629POPC   PO461068  20.189  41.377   5.360
 4629POPC   GL161069  19.910  41.532   5.721
 4629POPC   GL261070  20.140  41.772   5.816
 4629POPC   C1A61071  19.745  41.696   6.151
 4629POPC   D2A61072  19.902  41.786   6.594
 4629POPC   C3A61073  19.673  41.904   6.986
 4629POPC   C4A61074  19.524  41.784   7.432
 4629POPC   C1B61075  20.291  41.683   6.236
 4629POPC   C2B61076  20.415  41.558   6.635
 4629POPC   C3B61077  20.206  41.401   6.969
 4629POPC   C4B61078  19.930  41.564   7.255
 4630POPC   NC361079   2.700  15.440   5.386
 4630POPC   PO461080   2.883  14.925   5.158
 4630POPC   GL161081   2.685  14.971   5.647
 4630POPC   GL261082   2.558  15.233   5.832
 4630POPC   C1A61083   2.902  14.921   6.112
 4630POPC   D2A61084   3.042  14.846   6.595
 4630POPC   C3A61085   2.788  15.046   6.970
 4630POPC   C4A61086   2.618  15.149   7.423
 4630POPC   C1B61087   2.655  15.356   6.254
 4630POPC   C2B61088   2.502  15.399   6.666
 4630POPC   C3B61089   2.607  15.527   7.074
 4630POPC   C4B61090   2.689  15.649   7.487
 4631POPC   NC361091  36.883  29.601   5.564
 4631POPC   PO461092  36.593  30.210   5.471
 4631POPC   GL161093  36.735  30.065   5.821
 4631POPC   GL261094  37.088  30.055   5.721
 4631POPC   C1A61095  36.558  29.974   6.216
 4631POPC   D2A61096  36.657  30.116   6.606
 4631POPC   C3A61097  36.852  30.031   6.967
 4631POPC   C4A61098  36.603  29.800   7.240
 4631POPC   C1B61099  37.095  29.882   6.134
 4631POPC   C2B61100  37.146  29.952   6.540
 4631POPC   C3B61101  37.325  29.794   6.888
 4631POPC   C4B61102  37.146  29.724   7.252
 4632POPC   NC361103  24.598  44.730   5.434
 4632POPC   PO461104  23.982  44.397   5.524
 4632POPC   GL161105  24.290  44.384   5.818
 4632POPC   GL261106  24.343  44.731   5.879
 4632POPC   C1A61107  24.383  44.215   6.233
 4632POPC   D2A61108  24.406  44.284   6.690
 4632POPC   C3A61109  24.046  44.378   6.992
 4632POPC   C4A61110  24.022  44.765   7.195
 4632POPC   C1B61111  24.689  44.642   6.114
 4632POPC   C2B61112  24.778  44.698   6.534
 4632POPC   C3B61113  24.805  44.473   6.929
 4632POPC   C4B61114  25.010  44.194   7.203
 4633POPC   NC361115  10.130  41.839   5.589
 4633POPC   PO461116  10.685  41.468   5.583
 4633POPC   GL161117  10.386  41.506   5.889
 4633POPC   GL261118  10.384  41.862   6.046
 4633POPC   C1A61119  10.383  41.392   6.290
 4633POPC   D2A61120  10.318  41.695   6.599
 4633POPC   C3A61121  10.471  41.524   6.955
 4633POPC   C4A61122  10.463  41.628   7.384
 4633POPC   C1B61123  10.765  41.733   6.282
 4633POPC   C2B61124  10.920  41.582   6.702
 4633POPC   C3B61125  10.882  41.783   7.155
 4633POPC   C4B61126  10.833  41.789   7.679
 4634POPC   NC361127  42.377  28.033   5.553
 4634POPC   PO461128  41.878  28.594   5.601
 4634POPC   GL161129  42.202  28.400   5.867
 4634POPC   GL261130  42.171  28.029   6.003
 4634POPC   C1A61131  42.358  28.581   6.247
 4634POPC   D2A61132  42.309  28.743   6.671
 4634POPC   C3A61133  42.562  28.518   6.985
 4634POPC   C4A61134  42.386  28.324   7.327
 4634POPC   C1B61135  42.548  28.115   6.197
 4634POPC   C2B61136  42.421  28.176   6.623
 4634POPC   C3B61137  42.542  27.945   6.986
 4634POPC   C4B61138  42.738  27.956   7.389
 4635POPC   NC361139  44.058   2.674   5.183
 4635POPC   PO461140  44.059   1.968   5.316
 4635POPC   GL161141  43.944   2.107   5.758
 4635POPC   GL261142  44.205   1.973   5.888
 4635POPC   C1A61143  43.744   1.915   6.152
 4635POPC   D2A61144  43.967   1.687   6.498
 4635POPC   C3A61145  43.892   1.846   6.930
 4635POPC   C4A61146  43.569   2.087   7.163
 4635POPC   C1B61147  44.139   2.235   6.246
 4635POPC   C2B61148  43.847   2.219   6.568
 4635POPC   C3B61149  43.940   2.360   6.962
 4635POPC   C4B61150  44.242   2.140   7.200
 4636POPC   NC361151  28.257   3.929   5.606
 4636POPC   PO461152  28.550   4.480   5.405
 4636POPC   GL161153  28.308   4.433   5.782
 4636POPC   GL261154  28.398   4.167   6.024
 4636POPC   C1A61155  28.275   4.639   6.188
 4636POPC   D2A61156  28.358   4.495   6.622
 4636POPC   C3A61157  28.559   4.156   6.849
 4636POPC   C4A61158  28.590   4.447   7.180
 4636POPC   C1B61159  28.051   4.182   6.316
 4636POPC   C2B61160  28.055   4.083   6.735
 4636POPC   C3B61161  28.091   4.304   7.105
 4636POPC   C4B61162  28.336   4.022   7.311
 4637POPC   NC361163   0.390  26.727   5.363
 4637POPC   PO461164   0.336  27.356   5.387
 4637POPC   GL161165   0.373  27.017   5.779
 4637POPC   GL261166   0.346  26.620   5.860
 4637POPC   C1A61167   0.564  26.958   6.197
 4637POPC   D2A61168   0.623  27.119   6.629
 4637POPC   C3A61169   0.349  26.973   6.969
 4637POPC   C4A61170   0.387  26.901   7.355
 4637POPC   C1B61171   0.377  26.454   6.296
 4637POPC   C2B61172   0.425  26.533   6.750
 4637POPC   C3B61173   0.416  26.436   7.192
 4637POPC   C4B61174   0.528  26.503   7.652
 4638POPC   NC361175   8.363  20.584   5.375
 4638POPC   PO461176   7.763  20.545   5.226
 4638POPC   GL161177   8.008  20.482   5.708
 4638POPC   GL261178   8.403  20.486   5.859
 4638POPC   C1A61179   8.036  20.767   6.076
 4638POPC   D2A61180   7.793  20.962   6.390
 4638POPC   C3A61181   7.849  20.852   6.826
 4638POPC   C4A61182   8.147  20.724   7.144
 4638POPC   C1B61183   8.357  20.369   6.287
 4638POPC   C2B61184   8.347  20.477   6.738
 4638POPC   C3B61185   8.321  20.235   7.136
 4638POPC   C4B61186   8.635  20.208   7.462
 4639POPC   NC361187   0.365  43.368   5.377
 4639POPC   PO461188   0.260  42.686   5.237
 4639POPC   GL161189   0.352  42.959   5.685
 4639POPC   GL261190   0.240  43.317   5.865
 4639POPC   C1A61191   0.413  42.959   6.155
 4639POPC   D2A61192   0.514  43.199   6.534
 4639POPC   C3A61193   0.418  43.071   6.949
 4639POPC   C4A61194   0.460  42.892   7.339
 4639POPC   C1B61195   0.110  43.470   6.300
 4639POPC   C2B61196   0.281  43.619   6.708
 4639POPC   C3B61197   0.331  43.573   7.140
 4639POPC   C4B61198   0.417  43.398   7.553
 4640POPC   NC361199  17.532  26.836   5.090
 4640POPC   PO461200  17.141  26.442   5.493
 4640POPC   GL161201  17.426  26.535   5.801
 4640POPC   GL261202  17.667  26.794   5.638
 4640POPC   C1A61203  17.337  26.745   6.189
 4640POPC   D2A61204  17.245  27.005   6.541
 4640POPC   C3A61205  17.263  26.845   6.936
 4640POPC   C4A61206  17.183  27.141   7.228
 4640POPC   C1B61207  17.798  26.953   6.032
 4640POPC   C2B61208  17.752  26.826   6.479
 4640POPC   C3B61209  17.754  26.970   6.892
 4640POPC   C4B61210  17.650  26.748   7.283
 4641POPC   NC361211   0.926   6.010   5.428
 4641POPC   PO461212   1.467   5.678   5.643
 4641POPC   GL161213   1.273   6.033   5.920
 4641POPC   GL261214   0.939   6.079   5.913
 4641POPC   C1A61215   1.044   6.047   6.392
 4641POPC   D2A61216   1.350   6.029   6.669
 4641POPC   C3A61217   1.420   5.755   6.961
 4641POPC   C4A61218   1.502   5.782   7.363
 4641POPC   C1B61219   0.973   5.645   6.116
 4641POPC   C2B61220   0.816   5.590   6.528
 4641POPC   C3B61221   0.902   5.596   6.953
 4641POPC   C4B61222   1.003   5.916   7.231
 4642POPC   NC361223  15.531  25.920   5.478
 4642POPC   PO461224  16.226  26.155   5.464
 4642POPC   GL161225  16.038  25.924   5.760
 4642POPC   GL261226  15.781  26.179   5.862
 4642POPC   C1A61227  16.248  25.911   6.159
 4642POPC   D2A61228  16.395  25.786   6.561
 4642POPC   C3A61229  16.168  26.045   6.859
 4642POPC   C4A61230  16.080  25.999   7.276
 4642POPC   C1B61231  15.683  25.819   6.121
 4642POPC   C2B61232  15.862  25.768   6.524
 4642POPC   C3B61233  15.774  25.733   6.958
 4642POPC   C4B61234  15.652  25.757   7.394
 4643POPC   NC361235  30.971   7.523   5.453
 4643POPC   PO461236  31.435   7.057   5.412
 4643POPC   GL161237  31.461   7.210   5.818
 4643POPC   GL261238  31.160   7.419   5.924
 4643POPC   C1A61239  31.538   7.289   6.248
 4643POPC   D2A61240  31.237   7.395   6.581
 4643POPC   C3A61241  31.473   7.424   6.963
 4643POPC   C4A61242  31.810   7.716   7.122
 4643POPC   C1B61243  31.102   7.028   6.171
 4643POPC   C2B61244  31.318   6.904   6.539
 4643POPC   C3B61245  31.152   6.979   6.948
 4643POPC   C4B61246  31.319   7.022   7.363
 4644POPC   NC361247  13.278  25.909   5.389
 4644POPC   PO461248  12.767  25.561   5.295
 4644POPC   GL161249  12.886  25.660   5.723
 4644POPC   GL261250  12.916  26.011   5.759
 4644POPC   C1A61251  12.815  25.597   6.187
 4644POPC   D2A61252  12.702  25.832   6.584
 4644POPC   C3A61253  12.892  25.830   7.017
 4644POPC   C4A61254  12.684  25.979   7.432
 4644POPC   C1B61255  13.161  25.975   6.166
 4644POPC   C2B61256  13.214  26.010   6.629
 4644POPC   C3B61257  13.232  26.297   7.005
 4644POPC   C4B61258  12.952  26.411   7.368
 4645POPC   NC361259  42.579  14.945   5.308
 4645POPC   PO461260  42.155  15.538   5.155
 4645POPC   GL161261  42.197  15.183   5.585
 4645POPC   GL261262  41.950  15.243   5.920
 4645POPC   C1A61263  42.408  15.075   6.014
 4645POPC   D2A61264  42.535  15.186   6.479
 4645POPC   C3A61265  42.441  15.036   6.901
 4645POPC   C4A61266  42.564  15.389   7.150
 4645POPC   C1B61267  42.028  15.239   6.394
 4645POPC   C2B61268  42.090  15.400   6.856
 4645POPC   C3B61269  42.089  15.252   7.306
 4645POPC   C4B61270  41.937  15.191   7.746
 4646POPC   NC361271  24.479  39.063   5.291
 4646POPC   PO461272  24.674  39.567   5.491
 4646POPC   GL161273  24.401  39.305   5.772
 4646POPC   GL261274  24.593  39.013   5.844
 4646POPC   C1A61275  24.198  39.149   6.171
 4646POPC   D2A61276  24.058  38.982   6.611
 4646POPC   C3A61277  24.329  39.115   6.974
 4646POPC   C4A61278  24.370  39.149   7.449
 4646POPC   C1B61279  24.698  39.231   6.270
 4646POPC   C2B61280  24.775  39.329   6.741
 4646POPC   C3B61281  24.802  39.191   7.177
 4646POPC   C4B61282  24.965  38.925   7.534
 4647POPC   NC361283  22.617  30.007   5.371
 4647POPC   PO461284  23.182  29.728   5.192
 4647POPC   GL161285  23.049  30.002   5.623
 4647POPC   GL261286  23.029  30.360   5.701
 4647POPC   C1A61287  23.073  30.019   6.108
 4647POPC   D2A61288  22.992  29.878   6.550
 4647POPC   C3A61289  23.189  29.858   6.916
 4647POPC   C4A61290  22.964  29.860   7.311
 4647POPC   C1B61291  22.760  30.444   6.096
 4647POPC   C2B61292  22.807  30.356   6.548
 4647POPC   C3B61293  22.689  30.119   6.936
 4647POPC   C4B61294  22.518  30.105   7.395
 4648POPC   NC361295  29.674   4.624   5.746
 4648POPC   PO461296  29.470   4.088   5.390
 4648POPC   GL161297  29.722   4.085   5.773
 4648POPC   GL261298  30.042   4.253   5.793
 4648POPC   C1A61299  29.668   4.163   6.210
 4648POPC   D2A61300  29.622   4.369   6.625
 4648POPC   C3A61301  29.843   4.229   7.001
 4648POPC   C4A61302  29.750   4.431   7.344
 4648POPC   C1B61303  30.159   4.477   6.216
 4648POPC   C2B61304  30.205   4.382   6.676
 4648POPC   C3B61305  30.278   4.480   7.132
 4648POPC   C4B61306  30.320   4.571   7.593
 4649POPC   NC361307  30.176   3.130   5.344
 4649POPC   PO461308  30.236   3.816   5.225
 4649POPC   GL161309  30.200   3.715   5.696
 4649POPC   GL261310  30.366   3.359   5.770
 4649POPC   C1A61311  29.989   3.777   6.118
 4649POPC   D2A61312  29.941   3.945   6.568
 4649POPC   C3A61313  29.911   3.705   6.936
 4649POPC   C4A61314  29.709   3.768   7.317
 4649POPC   C1B61315  30.434   3.533   6.169
 4649POPC   C2B61316  30.164   3.488   6.513
 4649POPC   C3B61317  30.205   3.268   6.874
 4649POPC   C4B61318  30.073   3.365   7.271
 4650POPC   NC361319  11.858   8.066   5.286
 4650POPC   PO461320  12.405   8.351   5.171
 4650POPC   GL161321  12.121   8.236   5.659
 4650POPC   GL261322  12.087   7.885   5.777
 4650POPC   C1A61323  12.235   8.183   6.181
 4650POPC   D2A61324  12.519   8.094   6.531
 4650POPC   C3A61325  12.351   8.349   6.845
 4650POPC   C4A61326  12.244   8.321   7.269
 4650POPC   C1B61327  11.817   7.907   6.190
 4650POPC   C2B61328  11.966   7.992   6.655
 4650POPC   C3B61329  11.924   7.941   7.136
 4650POPC   C4B61330  11.801   7.992   7.594
 4651POPC   NC361331  27.113   1.041   5.316
 4651POPC   PO461332  26.465   1.311   5.370
 4651POPC   GL161333  26.683   1.320   5.751
 4651POPC   GL261334  26.907   1.034   5.791
 4651POPC   C1A61335  26.769   1.348   6.215
 4651POPC   D2A61336  26.564   1.177   6.590
 4651POPC   C3A61337  26.568   1.374   6.982
 4651POPC   C4A61338  26.884   1.485   7.203
 4651POPC   C1B61339  27.148   0.983   6.192
 4651POPC   C2B61340  27.095   1.163   6.614
 4651POPC   C3B61341  26.901   0.969   6.970
 4651POPC   C4B61342  27.090   0.744   7.332
 4652POPC   NC361343  40.552   7.907   5.436
 4652POPC   PO461344  40.998   8.478   5.391
 4652POPC   GL161345  40.905   8.320   5.826
 4652POPC   GL261346  40.935   7.986   5.854
 4652POPC   C1A61347  40.868   8.321   6.302
 4652POPC   D2A61348  40.867   8.566   6.707
 4652POPC   C3A61349  40.848   8.372   7.119
 4652POPC   C4A61350  40.799   8.173   7.526
 4652POPC   C1B61351  40.708   7.838   6.255
 4652POPC   C2B61352  40.821   7.914   6.697
 4652POPC   C3B61353  40.624   7.883   7.116
 4652POPC   C4B61354  40.394   7.863   7.529
 4653POPC   NC361355  22.689  32.175   5.560
 4653POPC   PO461356  23.338  32.176   5.360
 4653POPC   GL161357  23.116  32.190   5.817
 4653POPC   GL261358  23.106  31.835   5.906
 4653POPC   C1A61359  22.864  32.437   6.170
 4653POPC   D2A61360  22.762  32.617   6.614
 4653POPC   C3A61361  22.740  32.490   7.112
 4653POPC   C4A61362  22.939  32.469   7.586
 4653POPC   C1B61363  22.964  31.965   6.319
 4653POPC   C2B61364  23.150  32.248   6.649
 4653POPC   C3B61365  23.212  32.340   7.086
 4653POPC   C4B61366  23.042  32.034   7.351
 4654POPC   NC361367  41.016   6.574   5.586
 4654POPC   PO461368  40.401   6.587   5.451
 4654POPC   GL161369  40.602   6.543   5.857
 4654POPC   GL261370  40.552   6.873   5.922
 4654POPC   C1A61371  40.812   6.381   6.224
 4654POPC   D2A61372  40.739   6.555   6.617
 4654POPC   C3A61373  40.944   6.355   6.880
 4654POPC   C4A61374  41.081   6.306   7.259
 4654POPC   C1B61375  40.923   6.875   6.236
 4654POPC   C2B61376  41.162   6.817   6.616
 4654POPC   C3B61377  41.118   6.807   7.050
 4654POPC   C4B61378  40.725   6.674   7.206
 4655POPC   NC361379  18.716  24.468   5.499
 4655POPC   PO461380  19.353  24.356   5.331
 4655POPC   GL161381  19.328  24.411   5.799
 4655POPC   GL261382  19.343  24.782   5.867
 4655POPC   C1A61383  19.053  24.290   6.222
 4655POPC   D2A61384  18.704  24.494   6.506
 4655POPC   C3A61385  18.815  24.544   6.943
 4655POPC   C4A61386  18.991  24.313   7.280
 4655POPC   C1B61387  19.480  24.549   6.267
 4655POPC   C2B61388  19.359  24.434   6.681
 4655POPC   C3B61389  19.292  24.811   6.891
 4655POPC   C4B61390  19.328  24.997   7.286
 4656POPC   NC361391  23.141  38.483   5.317
 4656POPC   PO461392  22.529  38.790   5.499
 4656POPC   GL161393  22.843  38.598   5.760
 4656POPC   GL261394  23.150  38.770   5.786
 4656POPC   C1A61395  22.937  38.529   6.203
 4656POPC   D2A61396  22.725  38.318   6.550
 4656POPC   C3A61397  22.795  38.493   6.952
 4656POPC   C4A61398  22.904  38.524   7.374
 4656POPC   C1B61399  23.179  39.006   6.195
 4656POPC   C2B61400  22.987  38.887   6.617
 4656POPC   C3B61401  23.091  38.910   7.055
 4656POPC   C4B61402  23.327  38.806   7.407
 4657POPC   NC361403  27.959   2.984   5.470
 4657POPC   PO461404  28.636   2.742   5.431
 4657POPC   GL161405  28.373   2.826   5.793
 4657POPC   GL261406  28.125   2.604   5.888
 4657POPC   C1A61407  28.460   2.813   6.243
 4657POPC   D2A61408  28.343   2.651   6.658
 4657POPC   C3A61409  28.407   2.855   7.096
 4657POPC   C4A61410  28.720   2.856   7.440
 4657POPC   C1B61411  27.873   2.568   6.234
 4657POPC   C2B61412  27.876   2.438   6.661
 4657POPC   C3B61413  28.127   2.433   7.055
 4657POPC   C4B61414  28.057   2.403   7.509
 4658POPC   NC361415  20.326  21.101   5.553
 4658POPC   PO461416  19.638  21.287   5.458
 4658POPC   GL161417  19.539  21.572   5.793
 4658POPC   GL261418  19.893  21.526   5.928
 4658POPC   C1A61419  19.527  21.692   6.225
 4658POPC   D2A61420  19.690  21.420   6.488
 4658POPC   C3A61421  19.501  21.513   6.834
 4658POPC   C4A61422  19.628  21.441   7.242
 4658POPC   C1B61423  20.095  21.205   6.212
 4658POPC   C2B61424  20.115  21.138   6.661
 4658POPC   C3B61425  19.946  21.092   7.056
 4658POPC   C4B61426  19.994  21.163   7.528
 4659POPC   NC361427  12.318   5.576   5.555
 4659POPC   PO461428  11.849   6.099   5.338
 4659POPC   GL161429  12.017   5.977   5.706
 4659POPC   GL261430  12.370   6.053   5.749
 4659POPC   C1A61431  12.006   5.885   6.129
 4659POPC   D2A61432  12.109   6.068   6.520
 4659POPC   C3A61433  11.941   5.898   6.904
 4659POPC   C4A61434  11.838   5.728   7.280
 4659POPC   C1B61435  12.500   6.069   6.171
 4659POPC   C2B61436  12.593   6.274   6.554
 4659POPC   C3B61437  12.385   6.191   6.938
 4659POPC   C4B61438  12.302   5.961   7.300
 4660POPC   NC361439   8.781   0.637   5.372
 4660POPC   PO461440   9.415   0.342   5.494
 4660POPC   GL161441   9.077   0.433   5.776
 4660POPC   GL261442   8.735   0.248   5.750
 4660POPC   C1A61443   9.024   0.759   6.086
 4660POPC   D2A61444   8.911   0.894   6.506
 4660POPC   C3A61445   9.095   0.751   6.904
 4660POPC   C4A61446   8.888   0.438   7.148
 4660POPC   C1B61447   8.822   0.302   6.205
 4660POPC   C2B61448   8.936   0.314   6.639
 4660POPC   C3B61449   8.901  44.957   6.925
 4660POPC   C4B61450   8.630   0.023   7.274
 4661POPC   NC361451  19.160  21.379   5.434
 4661POPC   PO461452  19.072  20.737   5.446
 4661POPC   GL161453  19.296  21.046   5.780
 4661POPC   GL261454  18.965  21.200   5.862
 4661POPC   C1A61455  19.297  21.180   6.240
 4661POPC   D2A61456  19.049  21.199   6.626
 4661POPC   C3A61457  19.187  21.177   7.057
 4661POPC   C4A61458  19.054  20.960   7.437
 4661POPC   C1B61459  19.040  21.605   6.073
 4661POPC   C2B61460  19.079  21.700   6.498
 4661POPC   C3B61461  18.987  21.666   6.920
 4661POPC   C4B61462  19.289  21.824   7.188
 4662POPC   NC361463  18.786  25.952   5.507
 4662POPC   PO461464  19.397  26.087   5.478
 4662POPC   GL161465  19.174  26.042   5.878
 4662POPC   GL261466  18.875  26.242   5.930
 4662POPC   C1A61467  19.148  26.033   6.340
 4662POPC   D2A61468  19.375  26.236   6.672
 4662POPC   C3A61469  19.098  26.162   6.992
 4662POPC   C4A61470  19.198  25.839   7.278
 4662POPC   C1B61471  18.696  25.862   6.168
 4662POPC   C2B61472  18.658  25.624   6.579
 4662POPC   C3B61473  18.773  25.749   7.010
 4662POPC   C4B61474  18.750  26.017   7.414
 4663POPC   NC361475  25.258   8.300   5.488
 4663POPC   PO461476  25.793   8.008   5.482
 4663POPC   GL161477  25.516   7.973   5.837
 4663POPC   GL261478  25.166   7.861   5.768
 4663POPC   C1A61479  25.301   8.182   6.179
 4663POPC   D2A61480  25.397   8.237   6.607
 4663POPC   C3A61481  25.361   8.503   6.954
 4663POPC   C4A61482  25.029   8.431   7.286
 4663POPC   C1B61483  25.187   7.657   6.208
 4663POPC   C2B61484  25.315   7.717   6.658
 4663POPC   C3B61485  25.183   8.013   7.012
 4663POPC   C4B61486  25.027   7.946   7.442
 4664POPC   NC361487  10.034  42.542   5.166
 4664POPC   PO461488   9.497  42.746   5.562
 4664POPC   GL161489   9.677  42.501   5.920
 4664POPC   GL261490   9.789  42.162   5.821
 4664POPC   C1A61491  10.031  42.439   6.219
 4664POPC   D2A61492  10.094  42.188   6.600
 4664POPC   C3A61493   9.970  42.420   6.994
 4664POPC   C4A61494   9.975  42.830   7.186
 4664POPC   C1B61495   9.661  42.078   6.262
 4664POPC   C2B61496   9.604  42.362   6.604
 4664POPC   C3B61497   9.464  42.356   7.036
 4664POPC   C4B61498   9.655  42.144   7.353
 4665POPC   NC361499  21.295  20.900   5.408
 4665POPC   PO461500  21.309  20.234   5.395
 4665POPC   GL161501  21.407  20.495   5.738
 4665POPC   GL261502  21.119  20.647   5.836
 4665POPC   C1A61503  21.493  20.683   6.174
 4665POPC   D2A61504  21.291  20.696   6.609
 4665POPC   C3A61505  21.540  20.621   7.008
 4665POPC   C4A61506  21.471  20.658   7.486
 4665POPC   C1B61507  21.136  20.334   6.195
 4665POPC   C2B61508  21.050  20.248   6.622
 4665POPC   C3B61509  21.058  20.416   7.031
 4665POPC   C4B61510  21.173  20.254   7.394
 4666POPC   NC361511  29.266  39.818   5.439
 4666POPC   PO461512  28.848  40.274   5.212
 4666POPC   GL161513  29.134  40.378   5.633
 4666POPC   GL261514  29.361  40.114   5.832
 4666POPC   C1A61515  29.098  40.413   6.119
 4666POPC   D2A61516  28.987  40.120   6.467
 4666POPC   C3A61517  28.963  40.204   6.928
 4666POPC   C4A61518  28.843  40.306   7.370
 4666POPC   C1B61519  29.322  39.791   6.180
 4666POPC   C2B61520  29.215  39.669   6.625
 4666POPC   C3B61521  29.303  39.641   7.070
 4666POPC   C4B61522  29.186  39.951   7.376
 4667POPC   NC361523  12.253   1.863   5.209
 4667POPC   PO461524  11.670   2.127   5.252
 4667POPC   GL161525  11.965   2.059   5.660
 4667POPC   GL261526  12.280   1.807   5.717
 4667POPC   C1A61527  12.046   2.051   6.143
 4667POPC   D2A61528  11.759   1.928   6.503
 4667POPC   C3A61529  11.923   1.816   6.924
 4667POPC   C4A61530  11.937   1.822   7.399
 4667POPC   C1B61531  12.409   1.694   6.127
 4667POPC   C2B61532  12.375   1.868   6.535
 4667POPC   C3B61533  12.417   1.677   6.923
 4667POPC   C4B61534  12.449   1.793   7.359
 4668POPC   NC361535  25.108  43.877   5.331
 4668POPC   PO461536  24.979  44.467   5.529
 4668POPC   GL161537  25.288  44.121   5.744
 4668POPC   GL261538  25.484  43.757   5.680
 4668POPC   C1A61539  25.258  43.898   6.125
 4668POPC   D2A61540  25.225  43.559   6.399
 4668POPC   C3A61541  25.201  43.748   6.770
 4668POPC   C4A61542  25.191  43.700   7.183
 4668POPC   C1B61543  25.685  43.628   6.093
 4668POPC   C2B61544  25.647  43.852   6.510
 4668POPC   C3B61545  25.669  43.846   6.968
 4668POPC   C4B61546  25.517  44.101   7.322
 4669POPC   NC361547  41.578   0.941   5.450
 4669POPC   PO461548  40.954   1.097   5.151
 4669POPC   GL161549  41.222   1.355   5.603
 4669POPC   GL261550  41.562   1.304   5.802
 4669POPC   C1A61551  41.207   1.246   6.146
 4669POPC   D2A61552  41.487   1.087   6.536
 4669POPC   C3A61553  41.301   1.109   6.970
 4669POPC   C4A61554  41.351   1.278   7.410
 4669POPC   C1B61555  41.612   1.502   6.243
 4669POPC   C2B61556  41.286   1.537   6.602
 4669POPC   C3B61557  41.412   1.601   7.021
 4669POPC   C4B61558  41.775   1.638   7.270
 4670POPC   NC361559  21.312   0.450   5.180
 4670POPC   PO461560  20.604   0.517   5.197
 4670POPC   GL161561  20.768   0.453   5.642
 4670POPC   GL261562  20.733   0.099   5.826
 4670POPC   C1A61563  20.740   0.530   6.106
 4670POPC   D2A61564  20.552   0.449   6.525
 4670POPC   C3A61565  20.789   0.550   6.893
 4670POPC   C4A61566  20.514   0.589   7.223
 4670POPC   C1B61567  20.695   0.025   6.298
 4670POPC   C2B61568  20.848   0.052   6.770
 4670POPC   C3B61569  20.734   0.111   7.234
 4670POPC   C4B61570  20.926   0.195   7.705
 4671POPC   NC361571  22.287  38.367   5.426
 4671POPC   PO461572  21.947  38.895   5.448
 4671POPC   GL161573  22.115  38.620   5.838
 4671POPC   GL261574  21.940  38.328   5.933
 4671POPC   C1A61575  22.399  38.552   6.226
 4671POPC   D2A61576  22.347  38.647   6.714
 4671POPC   C3A61577  22.307  38.325   7.064
 4671POPC   C4A61578  22.532  37.967   7.235
 4671POPC   C1B61579  21.921  38.536   6.373
 4671POPC   C2B61580  21.869  38.481   6.816
 4671POPC   C3B61581  21.813  38.192   7.158
 4671POPC   C4B61582  21.965  38.247   7.602
 4672POPC   NC361583  22.596   3.246   5.511
 4672POPC   PO461584  23.292   3.334   5.495
 4672POPC   GL161585  23.020   3.475   5.818
 4672POPC   GL261586  22.686   3.647   5.807
 4672POPC   C1A61587  22.915   3.377   6.226
 4672POPC   D2A61588  23.132   3.365   6.607
 4672POPC   C3A61589  23.177   3.660   6.951
 4672POPC   C4A61590  23.086   3.363   7.276
 4672POPC   C1B61591  22.592   3.761   6.233
 4672POPC   C2B61592  22.730   3.686   6.675
 4672POPC   C3B61593  22.688   3.625   7.136
 4672POPC   C4B61594  22.664   3.668   7.623
 4673POPC   NC361595  20.697   0.981   5.381
 4673POPC   PO461596  20.776   1.670   5.291
 4673POPC   GL161597  20.695   1.428   5.680
 4673POPC   GL261598  20.376   1.358   5.714
 4673POPC   C1A61599  20.623   1.413   6.153
 4673POPC   D2A61600  20.492   1.456   6.579
 4673POPC   C3A61601  20.685   1.425   6.999
 4673POPC   C4A61602  20.396   1.469   7.352
 4673POPC   C1B61603  20.415   0.971   5.987
 4673POPC   C2B61604  20.588   0.951   6.412
 4673POPC   C3B61605  20.519   0.974   6.852
 4673POPC   C4B61606  20.807   0.992   7.231
 4674POPC   NC361607  21.984  31.673   5.440
 4674POPC   PO461608  22.593  31.776   5.783
 4674POPC   GL161609  22.315  31.438   5.920
 4674POPC   GL261610  21.947  31.392   5.867
 4674POPC   C1A61611  22.243  31.276   6.325
 4674POPC   D2A61612  22.112  31.124   6.724
 4674POPC   C3A61613  22.251  31.446   7.045
 4674POPC   C4A61614  22.602  31.763   7.129
 4674POPC   C1B61615  21.951  31.721   6.175
 4674POPC   C2B61616  21.859  31.567   6.597
 4674POPC   C3B61617  21.736  31.354   6.992
 4674POPC   C4B61618  21.896  31.389   7.409
 4675POPC   NC361619  33.752  37.539   5.340
 4675POPC   PO461620  33.941  38.097   5.389
 4675POPC   GL161621  33.947  37.826   5.747
 4675POPC   GL261622  34.124  37.499   5.759
 4675POPC   C1A61623  33.683  37.611   6.053
 4675POPC   D2A61624  33.557  37.728   6.494
 4675POPC   C3A61625  33.635  37.436   6.819
 4675POPC   C4A61626  33.686  37.513   7.241
 4675POPC   C1B61627  34.180  37.687   6.194
 4675POPC   C2B61628  34.076  37.745   6.634
 4675POPC   C3B61629  34.178  37.647   7.080
 4675POPC   C4B61630  34.262  37.742   7.524
 4676POPC   NC361631  24.588  15.384   5.057
 4676POPC   PO461632  24.336  14.807   5.290
 4676POPC   GL161633  24.484  15.039   5.712
 4676POPC   GL261634  24.646  15.375   5.622
 4676POPC   C1A61635  24.361  15.077   6.181
 4676POPC   D2A61636  24.169  15.150   6.622
 4676POPC   C3A61637  24.370  15.305   6.997
 4676POPC   C4A61638  24.267  15.336   7.452
 4676POPC   C1B61639  24.791  15.352   6.054
 4676POPC   C2B61640  24.669  15.371   6.496
 4676POPC   C3B61641  24.866  15.382   6.880
 4676POPC   C4B61642  25.058  15.608   7.220
 4677POPC   NC361643  20.639  28.795   5.346
 4677POPC   PO461644  20.519  28.192   5.362
 4677POPC   GL161645  20.350  28.215   5.774
 4677POPC   GL261646  20.667  28.238   5.865
 4677POPC   C1A61647  20.334  28.350   6.222
 4677POPC   D2A61648  20.217  28.150   6.597
 4677POPC   C3A61649  20.350  28.365   6.994
 4677POPC   C4A61650  20.690  28.700   7.016
 4677POPC   C1B61651  20.876  28.103   6.230
 4677POPC   C2B61652  20.719  28.300   6.599
 4677POPC   C3B61653  20.858  28.154   6.976
 4677POPC   C4B61654  20.916  28.071   7.393
 4678POPC   NC361655   0.741   3.192   5.536
 4678POPC   PO461656   0.255   3.662   5.285
 4678POPC   GL161657   0.365   3.538   5.716
 4678POPC   GL261658   0.733   3.648   5.764
 4678POPC   C1A61659   0.169   3.632   6.151
 4678POPC   D2A61660   0.026   3.688   6.612
 4678POPC   C3A61661   0.314   3.598   6.979
 4678POPC   C4A61662   0.340   3.806   7.394
 4678POPC   C1B61663   0.649   3.473   6.165
 4678POPC   C2B61664   0.687   3.539   6.598
 4678POPC   C3B61665   0.760   3.293   6.963
 4678POPC   C4B61666   0.704   3.458   7.313
 4679POPC   NC361667  43.305  14.701   5.399
 4679POPC   PO461668  42.694  14.401   5.364
 4679POPC   GL161669  42.961  14.455   5.697
 4679POPC   GL261670  42.891  14.786   5.743
 4679POPC   C1A61671  43.056  14.381   6.141
 4679POPC   D2A61672  42.873  14.323   6.550
 4679POPC   C3A61673  43.095  14.389   6.919
 4679POPC   C4A61674  42.946  14.448   7.340
 4679POPC   C1B61675  43.279  14.823   6.016
 4679POPC   C2B61676  43.444  14.677   6.389
 4679POPC   C3B61677  43.423  14.847   6.785
 4679POPC   C4B61678  43.337  14.749   7.192
 4680POPC   NC361679  43.241  24.400   5.045
 4680POPC   PO461680  43.028  24.941   5.379
 4680POPC   GL161681  43.150  24.675   5.719
 4680POPC   GL261682  42.969  24.336   5.647
 4680POPC   C1A61683  43.012  24.542   6.145
 4680POPC   D2A61684  43.219  24.317   6.489
 4680POPC   C3A61685  43.045  24.350   6.914
 4680POPC   C4A61686  43.075  24.652   7.244
 4680POPC   C1B61687  43.064  24.046   6.013
 4680POPC   C2B61688  43.016  23.860   6.432
 4680POPC   C3B61689  43.240  23.883   6.830
 4680POPC   C4B61690  43.345  24.064   7.234
 4681POPC   NC361691  20.137  17.629   5.510
 4681POPC   PO461692  19.502  17.511   5.358
 4681POPC   GL161693  19.736  17.418   5.749
 4681POPC   GL261694  19.669  17.724   5.931
 4681POPC   C1A61695  19.854  17.282   6.179
 4681POPC   D2A61696  19.755  17.492   6.538
 4681POPC   C3A61697  20.012  17.435   6.899
 4681POPC   C4A61698  20.269  17.683   7.184
 4681POPC   C1B61699  19.378  17.400   6.132
 4681POPC   C2B61700  19.303  17.215   6.542
 4681POPC   C3B61701  19.461  17.363   6.938
 4681POPC   C4B61702  19.608  17.111   7.204
 4682POPC   NC361703  16.208  32.510   4.964
 4682POPC   PO461704  16.534  32.037   5.295
 4682POPC   GL161705  16.332  32.322   5.692
 4682POPC   GL261706  15.993  32.467   5.745
 4682POPC   C1A61707  16.308  32.449   6.158
 4682POPC   D2A61708  16.188  32.188   6.547
 4682POPC   C3A61709  16.241  32.354   6.977
 4682POPC   C4A61710  16.063  32.308   7.407
 4682POPC   C1B61711  15.859  32.211   6.124
 4682POPC   C2B61712  15.653  32.190   6.537
 4682POPC   C3B61713  15.736  32.261   6.998
 4682POPC   C4B61714  15.556  32.394   7.413
 4683POPC   NC361715   0.873  42.995   5.437
 4683POPC   PO461716   1.435  43.498   5.570
 4683POPC   GL161717   1.184  43.137   5.849
 4683POPC   GL261718   0.796  43.170   5.909
 4683POPC   C1A61719   1.340  42.945   6.268
 4683POPC   D2A61720   1.533  43.124   6.682
 4683POPC   C3A61721   1.438  42.921   7.071
 4683POPC   C4A61722   1.319  42.929   7.527
 4683POPC   C1B61723   0.968  43.279   6.318
 4683POPC   C2B61724   1.026  43.054   6.696
 4683POPC   C3B61725   0.928  42.947   7.102
 4683POPC   C4B61726   0.883  43.160   7.457
 4684POPC   NC361727  10.966  36.780   5.509
 4684POPC   PO461728  11.618  36.678   5.383
 4684POPC   GL161729  11.375  36.881   5.784
 4684POPC   GL261730  11.017  37.029   5.911
 4684POPC   C1A61731  11.439  36.968   6.204
 4684POPC   D2A61732  11.591  36.729   6.508
 4684POPC   C3A61733  11.420  36.849   6.916
 4684POPC   C4A61734  11.606  36.776   7.302
 4684POPC   C1B61735  10.982  36.740   6.195
 4684POPC   C2B61736  11.023  36.829   6.590
 4684POPC   C3B61737  10.850  36.846   6.988
 4684POPC   C4B61738  11.079  36.832   7.336
 4685POPC   NC361739  40.711  40.342   5.260
 4685POPC   PO461740  41.115  39.725   5.165
 4685POPC   GL161741  40.783  39.890   5.548
 4685POPC   GL261742  40.683  40.229   5.741
 4685POPC   C1A61743  40.678  39.818   6.018
 4685POPC   D2A61744  40.907  39.918   6.403
 4685POPC   C3A61745  40.744  40.082   6.782
 4685POPC   C4A61746  40.857  39.976   7.199
 4685POPC   C1B61747  40.683  40.361   6.178
 4685POPC   C2B61748  40.871  40.555   6.563
 4685POPC   C3B61749  40.955  40.519   7.009
 4685POPC   C4B61750  40.777  40.418   7.399
 4686POPC   NC361751  12.745  40.795   5.244
 4686POPC   PO461752  11.986  40.784   5.264
 4686POPC   GL161753  12.042  40.923   5.693
 4686POPC   GL261754  12.137  40.604   5.850
 4686POPC   C1A61755  11.944  40.982   6.132
 4686POPC   D2A61756  12.043  40.683   6.468
 4686POPC   C3A61757  12.062  40.841   6.902
 4686POPC   C4A61758  12.139  41.082   7.276
 4686POPC   C1B61759  12.426  40.458   6.168
 4686POPC   C2B61760  12.378  40.322   6.636
 4686POPC   C3B61761  12.163  40.365   7.038
 4686POPC   C4B61762  12.202  40.606   7.414
 4687POPC   NC361763  41.305  17.638   5.408
 4687POPC   PO461764  41.916  18.041   5.448
 4687POPC   GL161765  41.645  17.780   5.764
 4687POPC   GL261766  41.447  17.444   5.880
 4687POPC   C1A61767  41.409  17.849   6.164
 4687POPC   D2A61768  41.344  17.569   6.481
 4687POPC   C3A61769  41.282  17.668   6.877
 4687POPC   C4A61770  41.540  17.507   7.162
 4687POPC   C1B61771  41.651  17.237   6.251
 4687POPC   C2B61772  41.679  17.246   6.725
 4687POPC   C3B61773  41.832  17.074   7.123
 4687POPC   C4B61774  41.982  17.149   7.556
 4688POPC   NC361775  39.806  39.149   5.092
 4688POPC   PO461776  40.280  39.268   5.519
 4688POPC   GL161777  40.027  39.059   5.813
 4688POPC   GL261778  39.671  39.120   5.717
 4688POPC   C1A61779  40.097  39.008   6.256
 4688POPC   D2A61780  39.999  39.310   6.555
 4688POPC   C3A61781  40.076  39.183   6.961
 4688POPC   C4A61782  40.163  39.531   7.174
 4688POPC   C1B61783  39.662  39.294   6.128
 4688POPC   C2B61784  39.483  39.268   6.567
 4688POPC   C3B61785  39.599  39.351   7.029
 4688POPC   C4B61786  39.600  39.143   7.463
 4689POPC   NC361787  39.365  23.953   5.150
 4689POPC   PO461788  39.060  24.551   5.354
 4689POPC   GL161789  39.203  24.558   5.783
 4689POPC   GL261790  39.486  24.354   5.734
 4689POPC   C1A61791  39.151  24.320   6.165
 4689POPC   D2A61792  38.877  24.360   6.508
 4689POPC   C3A61793  39.040  24.499   6.857
 4689POPC   C4A61794  39.060  24.222   7.150
 4689POPC   C1B61795  39.645  24.482   6.154
 4689POPC   C2B61796  39.483  24.578   6.579
 4689POPC   C3B61797  39.509  24.568   7.047
 4689POPC   C4B61798  39.541  24.445   7.471
 4690POPC   NC361799  17.626   2.180   5.451
 4690POPC   PO461800  16.970   1.903   5.533
 4690POPC   GL161801  17.274   1.722   5.813
 4690POPC   GL261802  17.545   1.943   5.862
 4690POPC   C1A61803  17.440   1.640   6.220
 4690POPC   D2A61804  17.467   1.975   6.499
 4690POPC   C3A61805  17.355   1.962   6.882
 4690POPC   C4A61806  17.379   1.832   7.286
 4690POPC   C1B61807  17.850   1.956   6.167
 4690POPC   C2B61808  17.954   2.122   6.567
 4690POPC   C3B61809  17.703   2.381   6.845
 4690POPC   C4B61810  17.570   2.297   7.282
 4691POPC   NC361811  10.330  19.362   5.500
 4691POPC   PO461812  10.638  18.816   5.426
 4691POPC   GL161813  10.622  19.078   5.819
 4691POPC   GL261814  10.915  19.231   5.934
 4691POPC   C1A61815  10.479  19.204   6.254
 4691POPC   D2A61816  10.431  19.401   6.680
 4691POPC   C3A61817  10.754  19.350   7.004
 4691POPC   C4A61818  10.696  19.290   7.467
 4691POPC   C1B61819  10.869  18.888   6.261
 4691POPC   C2B61820  10.657  18.924   6.692
 4691POPC   C3B61821  10.757  18.863   7.151
 4691POPC   C4B61822  10.736  18.777   7.610
 4692POPC   NC361823  40.178   5.321   5.148
 4692POPC   PO461824  39.719   5.157   5.575
 4692POPC   GL161825  39.993   5.144   5.871
 4692POPC   GL261826  40.221   5.350   5.692
 4692POPC   C1A61827  39.902   5.206   6.304
 4692POPC   D2A61828  39.979   5.420   6.685
 4692POPC   C3A61829  39.817   5.161   7.009
 4692POPC   C4A61830  39.473   5.018   7.280
 4692POPC   C1B61831  40.371   5.329   6.167
 4692POPC   C2B61832  40.409   5.099   6.559
 4692POPC   C3B61833  40.398   5.240   6.991
 4692POPC   C4B61834  40.193   5.425   7.336
 4693POPC   NC361835   0.838   9.141   5.553
 4693POPC   PO461836   0.122   9.070   5.610
 4693POPC   GL161837   0.461   9.075   5.898
 4693POPC   GL261838   0.618   8.773   5.840
 4693POPC   C1A61839   0.589   9.103   6.316
 4693POPC   D2A61840   0.327   9.144   6.668
 4693POPC   C3A61841   0.450   8.990   7.048
 4693POPC   C4A61842   0.849   9.148   7.127
 4693POPC   C1B61843   0.708   8.600   6.239
 4693POPC   C2B61844   0.621   8.692   6.656
 4693POPC   C3B61845   0.783   8.596   7.057
 4693POPC   C4B61846   0.739   8.796   7.479
 4694POPC   NC361847  43.298   2.474   5.527
 4694POPC   PO461848  42.889   2.967   5.279
 4694POPC   GL161849  43.019   2.880   5.712
 4694POPC   GL261850  43.389   2.862   5.840
 4694POPC   C1A61851  42.921   2.662   6.105
 4694POPC   D2A61852  43.018   2.616   6.535
 4694POPC   C3A61853  42.818   2.827   6.882
 4694POPC   C4A61854  42.967   2.816   7.307
 4694POPC   C1B61855  43.429   2.547   6.192
 4694POPC   C2B61856  43.527   2.604   6.622
 4694POPC   C3B61857  43.268   2.499   6.968
 4694POPC   C4B61858  43.376   2.519   7.365
 4695POPC   NC361859  19.680  25.517   5.356
 4695POPC   PO461860  20.026  25.015   5.665
 4695POPC   GL161861  19.893  25.361   5.811
 4695POPC   GL261862  19.560  25.262   5.802
 4695POPC   C1A61863  20.012  25.580   6.171
 4695POPC   D2A61864  20.251  25.366   6.495
 4695POPC   C3A61865  20.087  25.444   6.884
 4695POPC   C4A61866  20.006  25.288   7.294
 4695POPC   C1B61867  19.517  25.452   6.182
 4695POPC   C2B61868  19.701  25.367   6.563
 4695POPC   C3B61869  19.633  25.218   6.956
 4695POPC   C4B61870  19.515  25.454   7.316
 4696POPC   NC361871  34.745  39.818   5.409
 4696POPC   PO461872  34.283  40.302   5.548
 4696POPC   GL161873  34.441  39.979   5.825
 4696POPC   GL261874  34.738  40.134   5.872
 4696POPC   C1A61875  34.579  39.801   6.257
 4696POPC   D2A61876  34.668  39.688   6.717
 4696POPC   C3A61877  34.682  39.882   7.112
 4696POPC   C4A61878  34.450  39.884   7.507
 4696POPC   C1B61879  34.517  40.309   6.233
 4696POPC   C2B61880  34.526  40.182   6.662
 4696POPC   C3B61881  34.597  40.378   7.042
 4696POPC   C4B61882  34.694  40.315   7.487
 4697POPC   NC361883  37.499  36.698   5.465
 4697POPC   PO461884  37.983  37.204   5.251
 4697POPC   GL161885  37.918  36.977   5.669
 4697POPC   GL261886  37.973  36.614   5.786
 4697POPC   C1A61887  37.948  37.042   6.124
 4697POPC   D2A61888  37.949  36.793   6.487
 4697POPC   C3A61889  37.737  36.937   6.875
 4697POPC   C4A61890  37.922  37.093   7.274
 4697POPC   C1B61891  37.637  36.579   6.106
 4697POPC   C2B61892  37.485  36.597   6.532
 4697POPC   C3B61893  37.615  36.417   6.909
 4697POPC   C4B61894  37.905  36.582   7.213
 4698POPC   NC361895   9.333  36.325   5.379
 4698POPC   PO461896   9.874  35.883   5.485
 4698POPC   GL161897   9.981  36.114   5.892
 4698POPC   GL261898   9.670  36.189   5.962
 4698POPC   C1A61899   9.945  36.055   6.377
 4698POPC   D2A61900   9.941  36.288   6.783
 4698POPC   C3A61901   9.784  36.157   7.182
 4698POPC   C4A61902   9.958  36.080   7.596
 4698POPC   C1B61903   9.490  36.341   6.362
 4698POPC   C2B61904   9.424  36.443   6.804
 4698POPC   C3B61905   9.275  36.158   7.112
 4698POPC   C4B61906   9.244  36.091   7.553
 4699POPC   NC361907  19.817  32.727   5.391
 4699POPC   PO461908  19.556  33.251   5.208
 4699POPC   GL161909  19.626  33.105   5.658
 4699POPC   GL261910  19.949  32.942   5.831
 4699POPC   C1A61911  19.521  32.977   6.094
 4699POPC   D2A61912  19.700  33.074   6.496
 4699POPC   C3A61913  19.563  32.975   6.921
 4699POPC   C4A61914  19.680  33.170   7.255
 4699POPC   C1B61915  19.986  32.740   6.236
 4699POPC   C2B61916  19.896  32.665   6.708
 4699POPC   C3B61917  20.055  32.845   7.114
 4699POPC   C4B61918  20.167  32.832   7.607
 4700POPC   NC361919  37.101   0.139   5.448
 4700POPC   PO461920  36.928   0.802   5.321
 4700POPC   GL161921  36.902   0.508   5.715
 4700POPC   GL261922  37.198   0.590   5.923
 4700POPC   C1A61923  36.753   0.446   6.159
 4700POPC   D2A61924  36.971   0.509   6.552
 4700POPC   C3A61925  36.812   0.599   6.969
 4700POPC   C4A61926  37.198   0.560   7.232
 4700POPC   C1B61927  37.201   0.184   6.137
 4700POPC   C2B61928  36.989  44.981   6.488
 4700POPC   C3B61929  36.952   0.102   6.911
 4700POPC   C4B61930  36.563   0.159   7.140
 4701POPC   NC361931  40.224  25.240   5.429
 4701POPC   PO461932  39.532  25.431   5.313
 4701POPC   GL161933  39.819  25.341   5.705
 4701POPC   GL261934  39.850  25.642   5.840
 4701POPC   C1A61935  40.079  25.114   6.098
 4701POPC   D2A61936  39.940  24.987   6.566
 4701POPC   C3A61937  40.115  25.197   6.951
 4701POPC   C4A61938  40.309  25.557   7.177
 4701POPC   C1B61939  40.102  25.654   6.156
 4701POPC   C2B61940  39.960  25.708   6.557
 4701POPC   C3B61941  39.818  25.605   6.949
 4701POPC   C4B61942  39.790  25.752   7.314
 4702POPC   NC361943  25.735  27.125   5.227
 4702POPC   PO461944  25.202  27.506   5.259
 4702POPC   GL161945  25.350  27.614   5.731
 4702POPC   GL261946  25.043  27.432   5.891
 4702POPC   C1A61947  25.345  27.748   6.195
 4702POPC   D2A61948  25.188  27.897   6.633
 4702POPC   C3A61949  25.362  27.676   7.010
 4702POPC   C4A61950  25.312  27.539   7.447
 4702POPC   C1B61951  24.836  27.281   6.274
 4702POPC   C2B61952  24.916  27.288   6.736
 4702POPC   C3B61953  24.907  27.446   7.149
 4702POPC   C4B61954  24.953  27.896   7.333
 4703POPC   NC361955  25.263  39.180   5.566
 4703POPC   PO461956  25.414  39.785   5.486
 4703POPC   GL161957  25.369  39.550   5.891
 4703POPC   GL261958  25.516  39.189   5.996
 4703POPC   C1A61959  25.155  39.445   6.263
 4703POPC   D2A61960  25.274  39.304   6.645
 4703POPC   C3A61961  25.227  39.439   7.027
 4703POPC   C4A61962  25.226  39.368   7.404
 4703POPC   C1B61963  25.237  38.942   6.272
 4703POPC   C2B61964  25.335  38.805   6.711
 4703POPC   C3B61965  25.268  38.943   7.133
 4703POPC   C4B61966  25.488  38.996   7.583
 4704POPC   NC361967  31.803  37.427   5.176
 4704POPC   PO461968  32.070  37.954   5.578
 4704POPC   GL161969  32.187  37.809   5.947
 4704POPC   GL261970  32.404  37.573   5.860
 4704POPC   C1A61971  32.491  37.845   6.283
 4704POPC   D2A61972  32.584  37.666   6.673
 4704POPC   C3A61973  32.462  37.997   6.970
 4704POPC   C4A61974  32.171  37.813   7.248
 4704POPC   C1B61975  32.248  37.361   6.247
 4704POPC   C2B61976  32.369  37.164   6.641
 4704POPC   C3B61977  32.295  37.388   7.020
 4704POPC   C4B61978  32.364  37.391   7.509
 4705POPC   NC361979   3.052  13.090   5.503
 4705POPC   PO461980   2.485  12.673   5.394
 4705POPC   GL161981   2.575  12.873   5.781
 4705POPC   GL261982   2.893  12.893   5.948
 4705POPC   C1A61983   2.423  12.802   6.183
 4705POPC   D2A61984   2.661  12.895   6.519
 4705POPC   C3A61985   2.556  13.021   6.898
 4705POPC   C4A61986   2.846  12.927   7.207
 4705POPC   C1B61987   3.090  13.115   6.307
 4705POPC   C2B61988   3.080  13.100   6.764
 4705POPC   C3B61989   3.217  13.302   7.132
 4705POPC   C4B61990   2.992  13.375   7.520
 4706POPC   NC361991  42.789  15.811   5.531
 4706POPC   PO461992  43.559  15.909   5.322
 4706POPC   GL161993  43.243  16.018   5.711
 4706POPC   GL261994  43.162  15.730   5.890
 4706POPC   C1A61995  43.064  16.148   6.164
 4706POPC   D2A61996  43.230  16.187   6.623
 4706POPC   C3A61997  43.018  16.219   7.048
 4706POPC   C4A61998  43.202  16.056   7.435
 4706POPC   C1B61999  42.841  15.625   6.205
 4706POPC   C2B62000  42.805  15.646   6.642
 4706POPC   C3B62001  42.955  15.701   7.034
 4706POPC   C4B62002  42.737  15.851   7.360
 4707POPC   NC362003   5.600  31.127   5.380
 4707POPC   PO462004   6.050  31.522   5.723
 4707POPC   GL162005   5.900  31.292   6.005
 4707POPC   GL262006   5.538  31.318   5.898
 4707POPC   C1A62007   5.885  31.409   6.435
 4707POPC   D2A62008   5.805  31.628   6.820
 4707POPC   C3A62009   5.853  31.346   7.156
 4707POPC   C4A62010   6.164  31.061   7.339
 4707POPC   C1B62011   5.348  31.656   6.161
 4707POPC   C2B62012   5.391  31.878   6.552
 4707POPC   C3B62013   5.341  31.766   7.001
 4707POPC   C4B62014   5.690  31.832   7.301
 4708POPC   NC362015   7.074  18.682   5.458
 4708POPC   PO462016   7.455  18.120   5.531
 4708POPC   GL162017   7.453  18.467   5.847
 4708POPC   GL262018   7.112  18.572   5.954
 4708POPC   C1A62019   7.599  18.433   6.268
 4708POPC   D2A62020   7.437  18.227   6.667
 4708POPC   C3A62021   7.418  18.089   7.099
 4708POPC   C4A62022   7.557  18.234   7.528
 4708POPC   C1B62023   7.085  18.474   6.397
 4708POPC   C2B62024   7.052  18.547   6.825
 4708POPC   C3B62025   7.352  18.590   7.158
 4708POPC   C4B62026   7.304  18.665   7.625
 4709POPC   NC362027  44.953  20.167   5.527
 4709POPC   PO462028  44.483  20.716   5.394
 4709POPC   GL162029  44.598  20.849   5.815
 4709POPC   GL262030  44.728  20.504   5.845
 4709POPC   C1A62031  44.569  20.713   6.264
 4709POPC   D2A62032  44.830  20.770   6.607
 4709POPC   C3A62033  44.743  20.621   6.996
 4709POPC   C4A62034  44.360  20.635   7.216
 4709POPC   C1B62035   0.017  20.459   6.220
 4709POPC   C2B62036   0.147  20.338   6.654
 4709POPC   C3B62037  44.972  20.128   7.011
 4709POPC   C4B62038  44.752  20.239   7.383
 4710POPC   NC362039   5.002  20.328   5.644
 4710POPC   PO462040   5.153  19.766   5.301
 4710POPC   GL162041   5.160  19.670   5.773
 4710POPC   GL262042   5.003  19.936   5.947
 4710POPC   C1A62043   5.151  19.555   6.240
 4710POPC   D2A62044   5.277  19.713   6.667
 4710POPC   C3A62045   5.305  19.436   7.029
 4710POPC   C4A62046   5.306  19.573   7.450
 4710POPC   C1B62047   4.752  19.951   6.318
 4710POPC   C2B62048   4.752  19.778   6.720
 4710POPC   C3B62049   4.986  19.842   7.095
 4710POPC   C4B62050   5.357  20.029   7.133
 4711POPC   NC362051  41.449  28.393   5.465
 4711POPC   PO462052  41.212  27.880   5.819
 4711POPC   GL162053  41.406  28.216   5.959
 4711POPC   GL262054  41.719  28.155   5.826
 4711POPC   C1A62055  41.317  28.527   6.279
 4711POPC   D2A62056  41.106  28.659   6.648
 4711POPC   C3A62057  41.339  28.422   6.942
 4711POPC   C4A62058  41.640  28.622   7.149
 4711POPC   C1B62059  41.827  28.384   6.232
 4711POPC   C2B62060  41.829  28.534   6.658
 4711POPC   C3B62061  41.996  28.295   6.989
 4711POPC   C4B62062  41.865  28.292   7.431
 4712POPC   NC362063  29.849  27.822   5.367
 4712POPC   PO462064  30.367  27.477   5.569
 4712POPC   GL162065  30.001  27.620   5.870
 4712POPC   GL262066  29.644  27.765   5.854
 4712POPC   C1A62067  29.952  27.883   6.281
 4712POPC   D2A62068  30.129  27.988   6.723
 4712POPC   C3A62069  30.000  27.761   7.097
 4712POPC   C4A62070  29.855  27.424   7.373
 4712POPC   C1B62071  29.635  27.453   6.201
 4712POPC   C2B62072  29.406  27.346   6.567
 4712POPC   C3B62073  29.549  27.523   6.941
 4712POPC   C4B62074  29.506  27.923   7.144
 4713POPC   NC362075  10.026  13.204   5.380
 4713POPC   PO462076   9.583  12.750   5.433
 4713POPC   GL162077   9.617  12.855   5.818
 4713POPC   GL262078   9.928  12.729   5.911
 4713POPC   C1A62079   9.492  12.684   6.209
 4713POPC   D2A62080   9.367  12.870   6.598
 4713POPC   C3A62081   9.428  12.726   7.039
 4713POPC   C4A62082   9.734  12.612   7.371
 4713POPC   C1B62083   9.958  12.795   6.389
 4713POPC   C2B62084   9.878  12.770   6.834
 4713POPC   C3B62085  10.161  12.776   7.181
 4713POPC   C4B62086  10.430  12.813   7.543
 4714POPC   NC362087   9.539  21.615   5.539
 4714POPC   PO462088  10.042  21.136   5.482
 4714POPC   GL162089   9.735  21.257   5.845
 4714POPC   GL262090   9.393  21.126   5.862
 4714POPC   C1A62091   9.725  21.301   6.311
 4714POPC   D2A62092  10.000  21.223   6.680
 4714POPC   C3A62093   9.932  21.381   7.072
 4714POPC   C4A62094   9.977  21.234   7.496
 4714POPC   C1B62095   9.298  21.030   6.293
 4714POPC   C2B62096   9.511  21.005   6.715
 4714POPC   C3B62097   9.564  21.033   7.162
 4714POPC   C4B62098   9.491  21.167   7.574
 4715POPC   NC362099  10.100  34.751   5.097
 4715POPC   PO462100   9.686  34.295   5.282
 4715POPC   GL162101   9.656  34.392   5.720
 4715POPC   GL262102   9.620  34.740   5.731
 4715POPC   C1A62103   9.705  34.348   6.177
 4715POPC   D2A62104   9.891  34.373   6.599
 4715POPC   C3A62105   9.798  34.172   7.008
 4715POPC   C4A62106   9.919  34.403   7.400
 4715POPC   C1B62107   9.573  34.860   6.161
 4715POPC   C2B62108   9.731  34.872   6.588
 4715POPC   C3B62109   9.742  34.692   7.008
 4715POPC   C4B62110   9.430  34.471   7.287
 4716POPC   NC362111  44.039  28.636   5.169
 4716POPC   PO462112  43.810  29.272   5.442
 4716POPC   GL162113  44.079  29.236   5.795
 4716POPC   GL262114  44.176  28.893   5.916
 4716POPC   C1A62115  43.985  29.433   6.190
 4716POPC   D2A62116  43.784  29.367   6.586
 4716POPC   C3A62117  43.977  29.481   6.961
 4716POPC   C4A62118  43.806  29.208   7.255
 4716POPC   C1B62119  44.387  29.129   6.212
 4716POPC   C2B62120  44.333  29.307   6.608
 4716POPC   C3B62121  44.216  29.011   6.927
 4716POPC   C4B62122  44.256  28.983   7.347
 4717POPC   NC362123  35.104  42.349   5.474
 4717POPC   PO462124  35.800  42.306   5.519
 4717POPC   GL162125  35.462  42.421   5.855
 4717POPC   GL262126  35.117  42.215   5.940
 4717POPC   C1A62127  35.586  42.449   6.279
 4717POPC   D2A62128  35.450  42.348   6.702
 4717POPC   C3A62129  35.496  42.606   7.054
 4717POPC   C4A62130  35.448  42.314   7.468
 4717POPC   C1B62131  35.085  42.358   6.342
 4717POPC   C2B62132  34.931  42.199   6.718
 4717POPC   C3B62133  35.082  42.337   7.118
 4717POPC   C4B62134  34.959  42.426   7.587
 4718POPC   NC362135  13.035   9.229   5.064
 4718POPC   PO462136  12.845   9.810   5.405
 4718POPC   GL162137  12.835   9.826   5.828
 4718POPC   GL262138  13.070   9.570   5.853
 4718POPC   C1A62139  12.612   9.994   6.171
 4718POPC   D2A62140  12.644  10.135   6.599
 4718POPC   C3A62141  12.520   9.854   6.903
 4718POPC   C4A62142  12.780   9.708   7.214
 4718POPC   C1B62143  12.999   9.664   6.305
 4718POPC   C2B62144  13.029   9.807   6.744
 4718POPC   C3B62145  13.272   9.680   7.108
 4718POPC   C4B62146  13.104   9.440   7.479
 4719POPC   NC362147  43.189   9.875   5.318
 4719POPC   PO462148  43.697  10.080   5.557
 4719POPC   GL162149  43.298  10.008   5.802
 4719POPC   GL262150  42.895  10.009   5.712
 4719POPC   C1A62151  43.285   9.883   6.225
 4719POPC   D2A62152  43.369  10.022   6.621
 4719POPC   C3A62153  43.340   9.824   7.012
 4719POPC   C4A62154  43.304   9.816   7.466
 4719POPC   C1B62155  42.805   9.846   6.098
 4719POPC   C2B62156  42.917   9.578   6.426
 4719POPC   C3B62157  42.920   9.471   6.828
 4719POPC   C4B62158  42.837   9.800   7.139
 4720POPC   NC362159  42.960  14.021   5.348
 4720POPC   PO462160  43.176  13.462   5.543
 4720POPC   GL162161  43.055  13.675   5.910
 4720POPC   GL262162  43.150  13.984   5.822
 4720POPC   C1A62163  42.943  13.714   6.359
 4720POPC   D2A62164  43.063  13.412   6.709
 4720POPC   C3A62165  43.257  13.524   7.072
 4720POPC   C4A62166  42.994  13.599   7.452
 4720POPC   C1B62167  43.396  13.990   6.180
 4720POPC   C2B62168  43.274  13.990   6.618
 4720POPC   C3B62169  42.933  13.900   6.902
 4720POPC   C4B62170  43.199  14.001   7.240
 4721POPC   NC362171   7.562  16.189   5.337
 4721POPC   PO462172   6.945  16.015   5.414
 4721POPC   GL162173   7.120  15.805   5.805
 4721POPC   GL262174   7.492  15.888   5.842
 4721POPC   C1A62175   7.252  15.725   6.267
 4721POPC   D2A62176   7.445  16.001   6.582
 4721POPC   C3A62177   7.260  16.062   6.937
 4721POPC   C4A62178   7.171  15.685   7.088
 4721POPC   C1B62179   7.790  15.824   6.257
 4721POPC   C2B62180   7.946  15.978   6.709
 4721POPC   C3B62181   7.799  16.080   7.167
 4721POPC   C4B62182   7.792  16.240   7.608
 4722POPC   NC362183  41.102  16.190   5.456
 4722POPC   PO462184  40.655  15.710   5.485
 4722POPC   GL162185  40.822  15.937   5.821
 4722POPC   GL262186  40.686  16.250   5.783
 4722POPC   C1A62187  41.050  15.965   6.203
 4722POPC   D2A62188  40.932  16.107   6.657
 4722POPC   C3A62189  40.671  15.824   6.922
 4722POPC   C4A62190  40.756  15.641   7.336
 4722POPC   C1B62191  40.770  16.392   6.213
 4722POPC   C2B62192  40.540  16.424   6.582
 4722POPC   C3B62193  40.593  16.329   6.993
 4722POPC   C4B62194  40.561  16.110   7.370
 4723POPC   NC362195  40.494  28.620   5.494
 4723POPC   PO462196  41.041  28.191   5.290
 4723POPC   GL162197  40.889  28.279   5.729
 4723POPC   GL262198  40.695  27.991   5.870
 4723POPC   C1A62199  40.795  28.423   6.182
 4723POPC   D2A62200  40.591  28.514   6.613
 4723POPC   C3A62201  40.812  28.398   7.010
 4723POPC   C4A62202  41.055  28.540   7.353
 4723POPC   C1B62203  40.451  28.025   6.278
 4723POPC   C2B62204  40.285  27.884   6.688
 4723POPC   C3B62205  40.366  28.154   7.031
 4723POPC   C4B62206  40.411  28.225   7.460
 4724POPC   NC362207  30.911  33.668   5.386
 4724POPC   PO462208  30.815  34.403   5.535
 4724POPC   GL162209  30.920  34.030   5.825
 4724POPC   GL262210  30.871  33.655   5.892
 4724POPC   C1A62211  30.887  33.948   6.306
 4724POPC   D2A62212  30.736  33.782   6.709
 4724POPC   C3A62213  30.717  33.991   7.112
 4724POPC   C4A62214  30.835  33.831   7.506
 4724POPC   C1B62215  30.598  33.473   6.227
 4724POPC   C2B62216  30.392  33.419   6.636
 4724POPC   C3B62217  30.412  33.565   7.084
 4724POPC   C4B62218  30.260  33.373   7.462
 4725POPC   NC362219  19.614  23.307   5.413
 4725POPC   PO462220  19.868  23.817   5.185
 4725POPC   GL162221  19.868  23.646   5.711
 4725POPC   GL262222  19.569  23.572   5.827
 4725POPC   C1A62223  19.896  23.820   6.137
 4725POPC   D2A62224  20.054  23.800   6.535
 4725POPC   C3A62225  19.775  23.931   6.840
 4725POPC   C4A62226  19.915  23.999   7.249
 4725POPC   C1B62227  19.671  23.346   6.155
 4725POPC   C2B62228  19.620  23.506   6.548
 4725POPC   C3B62229  19.821  23.435   6.941
 4725POPC   C4B62230  19.669  23.562   7.345
 4726POPC   NC362231  41.924  36.010   5.519
 4726POPC   PO462232  42.455  36.200   5.130
 4726POPC   GL162233  42.390  36.198   5.632
 4726POPC   GL262234  42.292  36.451   5.810
 4726POPC   C1A62235  42.337  36.055   6.117
 4726POPC   D2A62236  42.466  35.975   6.574
 4726POPC   C3A62237  42.290  36.120   6.958
 4726POPC   C4A62238  42.137  35.930   7.329
 4726POPC   C1B62239  42.077  36.517   6.174
 4726POPC   C2B62240  42.038  36.354   6.569
 4726POPC   C3B62241  41.938  36.547   6.949
 4726POPC   C4B62242  41.903  36.372   7.350
 4727POPC   NC362243  10.281  22.612   5.492
 4727POPC   PO462244  10.611  23.289   5.452
 4727POPC   GL162245  10.452  23.080   5.783
 4727POPC   GL262246  10.122  23.088   5.727
 4727POPC   C1A62247  10.579  23.049   6.223
 4727POPC   D2A62248  10.416  22.748   6.547
 4727POPC   C3A62249  10.639  22.804   6.922
 4727POPC   C4A62250  10.533  22.924   7.311
 4727POPC   C1B62251  10.078  22.975   6.158
 4727POPC   C2B62252  10.180  23.221   6.525
 4727POPC   C3B62253  10.229  23.115   6.927
 4727POPC   C4B62254  10.075  22.767   7.143
 4728POPC   NC362255  32.338   7.914   5.524
 4728POPC   PO462256  31.950   8.470   5.420
 4728POPC   GL162257  32.082   8.288   5.808
 4728POPC   GL262258  32.430   8.329   5.867
 4728POPC   C1A62259  32.124   8.396   6.255
 4728POPC   D2A62260  32.221   8.228   6.660
 4728POPC   C3A62261  32.191   8.529   6.967
 4728POPC   C4A62262  32.391   8.493   7.337
 4728POPC   C1B62263  32.493   8.023   6.228
 4728POPC   C2B62264  32.407   7.721   6.581
 4728POPC   C3B62265  32.410   7.850   7.038
 4728POPC   C4B62266  32.627   7.976   7.414
 4729POPC   NC362267  39.651  28.532   5.096
 4729POPC   PO462268  39.141  28.379   5.516
 4729POPC   GL162269  39.415  28.354   5.824
 4729POPC   GL262270  39.470  28.694   5.891
 4729POPC   C1A62271  39.371  28.361   6.278
 4729POPC   D2A62272  39.296  28.188   6.684
 4729POPC   C3A62273  39.037  28.371   6.993
 4729POPC   C4A62274  38.769  28.700   7.067
 4729POPC   C1B62275  39.743  28.730   6.269
 4729POPC   C2B62276  39.675  28.536   6.669
 4729POPC   C3B62277  39.536  28.464   7.076
 4729POPC   C4B62278  39.280  28.697   7.313
 4730POPC   NC362279   3.820  34.240   5.726
 4730POPC   PO462280   4.334  34.587   5.470
 4730POPC   GL162281   4.191  34.597   5.878
 4730POPC   GL262282   3.890  34.810   5.868
 4730POPC   C1A62283   4.420  34.533   6.274
 4730POPC   D2A62284   4.451  34.822   6.612
 4730POPC   C3A62285   4.516  34.645   7.026
 4730POPC   C4A62286   4.284  34.314   7.182
 4730POPC   C1B62287   3.968  34.760   6.317
 4730POPC   C2B62288   4.038  34.526   6.714
 4730POPC   C3B62289   4.015  34.738   7.100
 4730POPC   C4B62290   3.815  34.732   7.494
 4731POPC   NC362291  17.897   0.563   5.432
 4731POPC   PO462292  17.240   0.318   5.525
 4731POPC   GL162293  17.285   0.666   5.833
 4731POPC   GL262294  17.648   0.788   5.847
 4731POPC   C1A62295  17.319   0.590   6.289
 4731POPC   D2A62296  17.482   0.541   6.712
 4731POPC   C3A62297  17.226   0.430   7.064
 4731POPC   C4A62298  17.386   0.356   7.487
 4731POPC   C1B62299  17.820   0.581   6.229
 4731POPC   C2B62300  17.766   0.182   6.479
 4731POPC   C3B62301  17.824   0.234   6.956
 4731POPC   C4B62302  17.745   0.615   7.165
 4732POPC   NC362303  11.391   5.472   5.697
 4732POPC   PO462304  11.232   4.900   5.351
 4732POPC   GL162305  11.158   5.010   5.784
 4732POPC   GL262306  10.921   5.282   5.842
 4732POPC   C1A62307  11.463   5.002   6.153
 4732POPC   D2A62308  11.510   5.143   6.584
 4732POPC   C3A62309  11.317   4.869   6.879
 4732POPC   C4A62310  11.512   4.877   7.257
 4732POPC   C1B62311  11.005   5.224   6.283
 4732POPC   C2B62312  10.881   5.414   6.668
 4732POPC   C3B62313  10.996   5.290   7.049
 4732POPC   C4B62314  10.865   4.887   7.172
 4733POPC   NC362315  21.641  33.304   5.381
 4733POPC   PO462316  21.014  33.036   5.273
 4733POPC   GL162317  21.243  33.142   5.661
 4733POPC   GL262318  21.430  32.847   5.728
 4733POPC   C1A62319  21.466  33.203   6.085
 4733POPC   D2A62320  21.364  33.303   6.520
 4733POPC   C3A62321  21.466  33.018   6.850
 4733POPC   C4A62322  21.465  33.048   7.287
 4733POPC   C1B62323  21.592  32.678   6.111
 4733POPC   C2B62324  21.778  32.689   6.530
 4733POPC   C3B62325  21.853  32.539   6.945
 4733POPC   C4B62326  21.701  32.624   7.335
 4734POPC   NC362327  14.115   9.884   5.453
 4734POPC   PO462328  14.755   9.654   5.391
 4734POPC   GL162329  14.455   9.639   5.792
 4734POPC   GL262330  14.083   9.582   5.869
 4734POPC   C1A62331  14.354   9.863   6.193
 4734POPC   D2A62332  14.340  10.060   6.587
 4734POPC   C3A62333  14.511   9.894   6.940
 4734POPC   C4A62334  14.462   9.915   7.381
 4734POPC   C1B62335  14.181   9.384   6.250
 4734POPC   C2B62336  14.186   9.566   6.661
 4734POPC   C3B62337  14.273   9.472   7.098
 4734POPC   C4B62338  14.048   9.509   7.464
 4735POPC   NC362339  33.910  29.640   5.437
 4735POPC   PO462340  33.976  30.286   5.336
 4735POPC   GL162341  33.952  30.066   5.736
 4735POPC   GL262342  33.614  29.962   5.760
 4735POPC   C1A62343  34.001  29.733   6.082
 4735POPC   D2A62344  34.071  29.490   6.510
 4735POPC   C3A62345  34.092  29.691   6.923
 4735POPC   C4A62346  33.836  29.829   7.293
 4735POPC   C1B62347  33.702  30.169   6.168
 4735POPC   C2B62348  33.801  29.928   6.504
 4735POPC   C3B62349  33.602  29.811   6.835
 4735POPC   C4B62350  33.756  30.220   6.968
 4736POPC   NC362351   4.345  41.667   5.313
 4736POPC   PO462352   3.757  41.408   5.219
 4736POPC   GL162353   4.200  41.355   5.656
 4736POPC   GL262354   4.536  41.228   5.861
 4736POPC   C1A62355   4.333  41.627   6.080
 4736POPC   D2A62356   4.496  41.497   6.528
 4736POPC   C3A62357   4.257  41.683   6.897
 4736POPC   C4A62358   4.272  41.900   7.329
 4736POPC   C1B62359   4.195  41.155   6.214
 4736POPC   C2B62360   4.042  41.229   6.655
 4736POPC   C3B62361   4.277  41.160   7.030
 4736POPC   C4B62362   4.629  41.391   7.210
 4737POPC   NC362363  13.243  20.473   5.667
 4737POPC   PO462364  13.872  20.650   5.553
 4737POPC   GL162365  13.674  20.619   5.895
 4737POPC   GL262366  13.667  20.245   5.871
 4737POPC   C1A62367  13.508  20.794   6.283
 4737POPC   D2A62368  13.584  20.635   6.702
 4737POPC   C3A62369  13.406  20.766   7.055
 4737POPC   C4A62370  13.736  20.745   7.346
 4737POPC   C1B62371  13.659  20.305   6.304
 4737POPC   C2B62372  13.964  20.310   6.650
 4737POPC   C3B62373  13.937  20.300   7.106
 4737POPC   C4B62374  13.685  20.262   7.515
 4738POPC   NC362375  29.647   6.378   5.595
 4738POPC   PO462376  29.081   6.494   5.200
 4738POPC   GL162377  29.202   6.636   5.652
 4738POPC   GL262378  29.366   6.926   5.708
 4738POPC   C1A62379  29.166   6.610   6.128
 4738POPC   D2A62380  28.948   6.746   6.512
 4738POPC   C3A62381  29.151   6.634   6.909
 4738POPC   C4A62382  29.272   6.771   7.327
 4738POPC   C1B62383  29.515   7.084   6.113
 4738POPC   C2B62384  29.447   6.912   6.517
 4738POPC   C3B62385  29.391   7.083   6.925
 4738POPC   C4B62386  29.697   7.103   7.243
 4739POPC   NC362387  22.331   0.752   5.457
 4739POPC   PO462388  21.855   0.286   5.694
 4739POPC   GL162389  22.191   0.366   5.973
 4739POPC   GL262390  22.350   0.668   5.961
 4739POPC   C1A62391  22.114   0.351   6.427
 4739POPC   D2A62392  21.775   0.201   6.701
 4739POPC   C3A62393  21.966   0.158   7.114
 4739POPC   C4A62394  22.418   0.194   7.312
 4739POPC   C1B62395  21.976   0.800   6.193
 4739POPC   C2B62396  22.072   0.872   6.609
 4739POPC   C3B62397  22.271   0.604   6.916
 4739POPC   C4B62398  22.117   0.624   7.324
 4740POPC   NC362399  43.145  39.235   5.434
 4740POPC   PO462400  43.245  38.615   5.444
 4740POPC   GL162401  43.262  38.951   5.852
 4740POPC   GL262402  43.312  39.356   5.898
 4740POPC   C1A62403  43.252  39.055   6.295
 4740POPC   D2A62404  43.397  39.355   6.610
 4740POPC   C3A62405  43.234  39.137   6.969
 4740POPC   C4A62406  43.158  38.860   7.299
 4740POPC   C1B62407  42.985  39.486   6.220
 4740POPC   C2B62408  42.883  39.350   6.656
 4740POPC   C3B62409  42.925  39.534   7.091
 4740POPC   C4B62410  43.106  39.383   7.504
 4741POPC   NC362411  15.715  20.100   5.364
 4741POPC   PO462412  15.228  19.642   5.513
 4741POPC   GL162413  15.475  19.790   5.858
 4741POPC   GL262414  15.194  19.746   6.062
 4741POPC   C1A62415  15.462  20.110   6.241
 4741POPC   D2A62416  15.249  20.241   6.571
 4741POPC   C3A62417  15.336  19.942   6.877
 4741POPC   C4A62418  15.409  20.007   7.304
 4741POPC   C1B62419  15.047  19.722   6.506
 4741POPC   C2B62420  14.670  19.620   6.728
 4741POPC   C3B62421  14.633  19.563   7.099
 4741POPC   C4B62422  14.933  19.841   7.146
 4742POPC   NC362423  42.350  18.453   5.649
 4742POPC   PO462424  42.479  17.808   5.728
 4742POPC   GL162425  42.336  18.061   6.049
 4742POPC   GL262426  42.660  18.212   6.027
 4742POPC   C1A62427  42.301  18.341   6.419
 4742POPC   D2A62428  41.928  18.448   6.699
 4742POPC   C3A62429  42.047  18.429   7.125
 4742POPC   C4A62430  42.222  18.069   7.362
 4742POPC   C1B62431  42.834  18.512   6.293
 4742POPC   C2B62432  42.721  18.525   6.704
 4742POPC   C3B62433  42.537  18.274   7.015
 4742POPC   C4B62434  42.571  18.420   7.464
 4743POPC   NC362435  11.354   4.398   5.357
 4743POPC   PO462436  11.349   3.715   5.304
 4743POPC   GL162437  11.382   3.992   5.734
 4743POPC   GL262438  11.247   4.341   5.843
 4743POPC   C1A62439  11.305   4.034   6.231
 4743POPC   D2A62440  11.335   4.312   6.624
 4743POPC   C3A62441  11.312   4.036   7.015
 4743POPC   C4A62442  11.324   4.053   7.472
 4743POPC   C1B62443  11.087   4.652   6.137
 4743POPC   C2B62444  10.924   4.752   6.540
 4743POPC   C3B62445  10.905   4.479   6.872
 4743POPC   C4B62446  11.182   4.480   7.232
 4744POPC   NC362447   9.452   9.903   5.268
 4744POPC   PO462448   8.873   9.556   5.347
 4744POPC   GL162449   9.052   9.572   5.769
 4744POPC   GL262450   8.800   9.820   5.833
 4744POPC   C1A62451   9.116   9.714   6.215
 4744POPC   D2A62452   9.145  10.030   6.570
 4744POPC   C3A62453   8.940   9.881   6.915
 4744POPC   C4A62454   9.056   9.984   7.313
 4744POPC   C1B62455   8.623   9.545   6.134
 4744POPC   C2B62456   8.530   9.446   6.560
 4744POPC   C3B62457   8.717   9.423   6.994
 4744POPC   C4B62458   9.114   9.475   7.216
 4745POPC   NC362459  31.210  11.484   5.468
 4745POPC   PO462460  31.874  11.136   5.482
 4745POPC   GL162461  31.633  11.295   5.789
 4745POPC   GL262462  31.823  11.569   5.887
 4745POPC   C1A62463  31.583  11.200   6.236
 4745POPC   D2A62464  31.798  11.259   6.637
 4745POPC   C3A62465  31.610  11.108   7.019
 4745POPC   C4A62466  31.694  10.777   7.267
 4745POPC   C1B62467  31.467  11.696   6.102
 4745POPC   C2B62468  31.522  11.679   6.521
 4745POPC   C3B62469  31.774  11.723   6.897
 4745POPC   C4B62470  31.639  11.633   7.308
 4746POPC   NC362471  42.565   5.215   5.310
 4746POPC   PO462472  41.958   4.872   5.218
 4746POPC   GL162473  42.006   5.077   5.676
 4746POPC   GL262474  42.340   5.187   5.757
 4746POPC   C1A62475  42.040   4.976   6.148
 4746POPC   D2A62476  42.345   4.985   6.470
 4746POPC   C3A62477  42.210   5.101   6.864
 4746POPC   C4A62478  42.038   4.785   7.147
 4746POPC   C1B62479  42.634   5.216   6.116
 4746POPC   C2B62480  42.766   5.235   6.578
 4746POPC   C3B62481  42.660   5.372   7.005
 4746POPC   C4B62482  42.613   5.398   7.495
 4747POPC   NC362483  37.263  41.579   5.465
 4747POPC   PO462484  36.634  41.428   5.394
 4747POPC   GL162485  36.864  41.401   5.789
 4747POPC   GL262486  37.159  41.589   5.936
 4747POPC   C1A62487  36.770  41.508   6.225
 4747POPC   D2A62488  36.592  41.383   6.587
 4747POPC   C3A62489  36.737  41.565   6.968
 4747POPC   C4A62490  37.026  41.239   7.116
 4747POPC   C1B62491  37.154  41.911   6.209
 4747POPC   C2B62492  37.053  41.795   6.612
 4747POPC   C3B62493  37.254  41.707   7.001
 4747POPC   C4B62494  37.436  41.892   7.347
 4748POPC   NC362495  15.415   1.604   5.420
 4748POPC   PO462496  15.041   2.031   5.064
 4748POPC   GL162497  15.107   2.154   5.567
 4748POPC   GL262498  15.160   1.855   5.805
 4748POPC   C1A62499  15.063   2.300   6.066
 4748POPC   D2A62500  14.961   2.084   6.492
 4748POPC   C3A62501  15.203   1.862   6.812
 4748POPC   C4A62502  15.013   2.068   7.175
 4748POPC   C1B62503  15.382   1.967   6.225
 4748POPC   C2B62504  15.572   2.312   6.441
 4748POPC   C3B62505  15.394   2.343   6.836
 4748POPC   C4B62506  15.522   2.112   7.176
 4749POPC   NC362507  16.555  17.094   5.566
 4749POPC   PO462508  17.072  16.707   5.257
 4749POPC   GL162509  16.913  16.775   5.725
 4749POPC   GL262510  16.700  16.523   5.926
 4749POPC   C1A62511  16.905  16.960   6.145
 4749POPC   D2A62512  17.008  16.765   6.532
 4749POPC   C3A62513  16.794  16.886   6.907
 4749POPC   C4A62514  16.960  16.814   7.303
 4749POPC   C1B62515  16.605  16.470   6.353
 4749POPC   C2B62516  16.750  16.367   6.753
 4749POPC   C3B62517  16.637  16.446   7.164
 4749POPC   C4B62518  16.462  16.827   7.341
 4750POPC   NC362519  10.721   5.981   5.266
 4750POPC   PO462520  10.073   5.756   5.261
 4750POPC   GL162521  10.310   5.895   5.646
 4750POPC   GL262522  10.647   5.766   5.734
 4750POPC   C1A62523  10.363   5.962   6.135
 4750POPC   D2A62524  10.389   6.191   6.560
 4750POPC   C3A62525  10.479   5.953   6.935
 4750POPC   C4A62526  10.318   5.926   7.338
 4750POPC   C1B62527  10.812   5.689   6.151
 4750POPC   C2B62528  10.838   5.919   6.530
 4750POPC   C3B62529  10.984   5.848   6.941
 4750POPC   C4B62530  10.796   5.684   7.314
 4751POPC   NC362531  43.511   6.838   5.532
 4751POPC   PO462532  42.923   6.406   5.440
 4751POPC   GL162533  43.134   6.583   5.795
 4751POPC   GL262534  43.433   6.353   5.776
 4751POPC   C1A62535  43.031   6.798   6.213
 4751POPC   D2A62536  42.830   6.867   6.639
 4751POPC   C3A62537  42.935   6.643   7.033
 4751POPC   C4A62538  42.992   6.210   7.263
 4751POPC   C1B62539  43.448   6.513   6.196
 4751POPC   C2B62540  43.254   6.502   6.593
 4751POPC   C3B62541  43.385   6.410   6.995
 4751POPC   C4B62542  43.425   6.715   7.307
 4752POPC   NC362543  24.853   5.152   5.680
 4752POPC   PO462544  24.268   4.992   5.396
 4752POPC   GL162545  24.409   4.992   5.826
 4752POPC   GL262546  24.330   5.339   5.861
 4752POPC   C1A62547  24.601   4.993   6.272
 4752POPC   D2A62548  24.368   5.046   6.668
 4752POPC   C3A62549  24.594   4.997   7.055
 4752POPC   C4A62550  24.788   5.042   7.468
 4752POPC   C1B62551  24.031   5.457   6.220
 4752POPC   C2B62552  23.914   5.312   6.661
 4752POPC   C3B62553  24.162   5.306   7.065
 4752POPC   C4B62554  24.578   5.501   7.146
 4753POPC   NC362555   0.135   1.510   5.514
 4753POPC   PO462556  44.620   1.089   5.417
 4753POPC   GL162557  44.824   1.202   5.806
 4753POPC   GL262558  44.974   1.515   6.003
 4753POPC   C1A62559  44.760   1.088   6.213
 4753POPC   D2A62560   0.035   1.054   6.542
 4753POPC   C3A62561  44.767   1.160   6.848
 4753POPC   C4A62562  44.658   1.130   7.247
 4753POPC   C1B62563  44.847   1.536   6.455
 4753POPC   C2B62564  44.435   1.511   6.665
 4753POPC   C3B62565  44.460   1.580   7.079
 4753POPC   C4B62566  44.897   1.575   7.225
 4754POPC   NC362567  31.089  12.799   5.367
 4754POPC   PO462568  30.509  13.124   5.459
 4754POPC   GL162569  30.557  12.712   5.707
 4754POPC   GL262570  30.884  12.671   5.816
 4754POPC   C1A62571  30.455  12.440   6.082
 4754POPC   D2A62572  30.499  12.384   6.548
 4754POPC   C3A62573  30.793  12.652   6.814
 4754POPC   C4A62574  30.912  12.706   7.277
 4754POPC   C1B62575  30.791  12.784   6.264
 4754POPC   C2B62576  30.748  13.123   6.594
 4754POPC   C3B62577  30.878  13.140   7.031
 4754POPC   C4B62578  31.184  13.174   7.391
 4755POPC   NC362579  26.390  41.735   5.254
 4755POPC   PO462580  26.790  41.263   5.449
 4755POPC   GL162581  26.549  41.565   5.716
 4755POPC   GL262582  26.816  41.628   5.937
 4755POPC   C1A62583  26.367  41.687   6.138
 4755POPC   D2A62584  26.501  41.432   6.471
 4755POPC   C3A62585  26.692  41.624   6.822
 4755POPC   C4A62586  26.562  41.574   7.249
 4755POPC   C1B62587  27.182  41.733   6.167
 4755POPC   C2B62588  27.280  41.674   6.604
 4755POPC   C3B62589  27.157  41.744   7.025
 4755POPC   C4B62590  27.009  41.672   7.436
 4756POPC   NC362591  39.956  39.631   5.507
 4756POPC   PO462592  40.276  40.226   5.375
 4756POPC   GL162593  40.226  40.010   5.772
 4756POPC   GL262594  39.890  39.999   5.869
 4756POPC   C1A62595  40.269  40.038   6.232
 4756POPC   D2A62596  40.013  40.092   6.590
 4756POPC   C3A62597  40.263  39.992   6.917
 4756POPC   C4A62598  40.355  40.068   7.315
 4756POPC   C1B62599  39.827  39.755   6.240
 4756POPC   C2B62600  39.627  39.755   6.659
 4756POPC   C3B62601  39.799  39.853   7.068
 4756POPC   C4B62602  39.775  39.621   7.470
 4757POPC   NC362603  22.274   3.712   5.049
 4757POPC   PO462604  22.207   3.713   5.619
 4757POPC   GL162605  22.204   3.413   5.891
 4757POPC   GL262606  22.045   3.091   5.951
 4757POPC   C1A62607  22.179   3.469   6.323
 4757POPC   D2A62608  22.234   3.760   6.612
 4757POPC   C3A62609  22.165   3.606   6.976
 4757POPC   C4A62610  22.265   3.823   7.306
 4757POPC   C1B62611  22.475   3.096   6.161
 4757POPC   C2B62612  22.598   3.188   6.582
 4757POPC   C3B62613  22.448   3.179   6.992
 4757POPC   C4B62614  22.362   3.309   7.416
 4758POPC   NC362615   7.439   7.164   5.188
 4758POPC   PO462616   7.578   7.812   5.399
 4758POPC   GL162617   7.429   7.617   5.770
 4758POPC   GL262618   7.306   7.281   5.673
 4758POPC   C1A62619   7.592   7.493   6.176
 4758POPC   D2A62620   7.492   7.709   6.556
 4758POPC   C3A62621   7.540   7.440   6.895
 4758POPC   C4A62622   7.604   7.634   7.283
 4758POPC   C1B62623   7.136   7.269   6.066
 4758POPC   C2B62624   7.213   7.276   6.499
 4758POPC   C3B62625   7.059   7.183   6.894
 4758POPC   C4B62626   7.200   7.297   7.278
 4759POPC   NC362627  12.644   7.962   5.352
 4759POPC   PO462628  13.296   8.203   5.430
 4759POPC   GL162629  13.052   8.055   5.804
 4759POPC   GL262630  12.735   7.812   5.821
 4759POPC   C1A62631  13.008   8.214   6.229
 4759POPC   D2A62632  12.906   8.477   6.589
 4759POPC   C3A62633  12.845   8.239   6.946
 4759POPC   C4A62634  13.045   8.027   7.242
 4759POPC   C1B62635  12.799   7.731   6.231
 4759POPC   C2B62636  12.995   7.866   6.607
 4759POPC   C3B62637  12.798   7.702   6.966
 4759POPC   C4B62638  12.420   7.874   7.054
 4760POPC   NC362639  40.943  13.988   5.408
 4760POPC   PO462640  40.749  14.721   5.376
 4760POPC   GL162641  40.891  14.425   5.693
 4760POPC   GL262642  40.613  14.203   5.728
 4760POPC   C1A62643  41.028  14.480   6.123
 4760POPC   D2A62644  41.017  14.764   6.501
 4760POPC   C3A62645  41.115  14.475   6.843
 4760POPC   C4A62646  41.103  14.767   7.168
 4760POPC   C1B62647  40.506  14.484   6.068
 4760POPC   C2B62648  40.621  14.456   6.503
 4760POPC   C3B62649  40.648  14.609   6.929
 4760POPC   C4B62650  40.801  14.348   7.230
 4761POPC   NC362651   8.357   3.132   5.384
 4761POPC   PO462652   8.092   3.687   5.189
 4761POPC   GL162653   8.092   3.545   5.604
 4761POPC   GL262654   7.911   3.819   5.679
 4761POPC   C1A62655   8.258   3.616   6.038
 4761POPC   D2A62656   8.289   3.359   6.432
 4761POPC   C3A62657   8.273   3.536   6.838
 4761POPC   C4A62658   8.177   3.616   7.262
 4761POPC   C1B62659   7.765   3.733   6.060
 4761POPC   C2B62660   7.928   3.753   6.465
 4761POPC   C3B62661   7.785   3.658   6.871
 4761POPC   C4B62662   7.881   3.264   7.081
 4762POPC   NC362663   1.824   9.303   5.515
 4762POPC   PO462664   1.989   8.810   5.063
 4762POPC   GL162665   1.965   8.839   5.595
 4762POPC   GL262666   2.259   8.853   5.810
 4762POPC   C1A62667   1.812   8.845   6.070
 4762POPC   D2A62668   1.735   8.962   6.542
 4762POPC   C3A62669   1.920   8.796   6.933
 4762POPC   C4A62670   1.670   8.594   7.256
 4762POPC   C1B62671   2.181   9.186   6.175
 4762POPC   C2B62672   2.257   9.304   6.628
 4762POPC   C3B62673   2.223   9.198   7.095
 4762POPC   C4B62674   2.234   9.380   7.511
 4763POPC   NC362675   3.300  16.107   5.022
 4763POPC   PO462676   2.778  15.905   5.327
 4763POPC   GL162677   2.638  15.972   5.734
 4763POPC   GL262678   2.879  16.238   5.747
 4763POPC   C1A62679   2.657  15.885   6.201
 4763POPC   D2A62680   2.763  15.871   6.665
 4763POPC   C3A62681   2.515  16.031   7.035
 4763POPC   C4A62682   2.709  16.148   7.480
 4763POPC   C1B62683   2.990  16.276   6.184
 4763POPC   C2B62684   2.849  16.416   6.582
 4763POPC   C3B62685   2.934  16.298   6.998
 4763POPC   C4B62686   3.006  15.873   7.130
 4764POPC   NC362687  14.182  33.984   5.231
 4764POPC   PO462688  14.460  33.388   5.468
 4764POPC   GL162689  14.483  33.706   5.831
 4764POPC   GL262690  14.813  33.831   5.943
 4764POPC   C1A62691  14.328  33.875   6.224
 4764POPC   D2A62692  14.043  33.967   6.590
 4764POPC   C3A62693  14.166  33.954   7.030
 4764POPC   C4A62694  14.455  34.247   7.157
 4764POPC   C1B62695  14.788  34.067   6.318
 4764POPC   C2B62696  14.575  33.976   6.707
 4764POPC   C3B62697  14.623  33.748   7.114
 4764POPC   C4B62698  14.684  33.520   7.510
 4765POPC   NC362699  34.623  32.325   5.180
 4765POPC   PO462700  34.207  31.860   5.427
 4765POPC   GL162701  34.466  32.045   5.783
 4765POPC   GL262702  34.688  32.327   5.717
 4765POPC   C1A62703  34.416  32.211   6.244
 4765POPC   D2A62704  34.395  32.289   6.731
 4765POPC   C3A62705  34.694  32.112   7.013
 4765POPC   C4A62706  34.735  32.003   7.438
 4765POPC   C1B62707  34.784  32.562   6.118
 4765POPC   C2B62708  34.845  32.421   6.538
 4765POPC   C3B62709  34.797  32.614   6.947
 4765POPC   C4B62710  34.625  32.573   7.365
 4766POPC   NC362711   5.528   1.453   5.664
 4766POPC   PO462712   4.970   1.514   5.389
 4766POPC   GL162713   5.042   1.396   5.792
 4766POPC   GL262714   5.144   1.084   5.763
 4766POPC   C1A62715   5.143   1.346   6.238
 4766POPC   D2A62716   5.129   1.152   6.657
 4766POPC   C3A62717   5.305   1.349   7.053
 4766POPC   C4A62718   5.013   1.569   7.346
 4766POPC   C1B62719   5.006   0.831   6.143
 4766POPC   C2B62720   5.008   0.658   6.579
 4766POPC   C3B62721   4.958   0.797   7.017
 4766POPC   C4B62722   4.995   1.045   7.350
 4767POPC   NC362723  28.169  22.697   5.584
 4767POPC   PO462724  28.694  23.066   5.400
 4767POPC   GL162725  28.528  23.172   5.805
 4767POPC   GL262726  28.540  22.831   5.903
 4767POPC   C1A62727  28.349  23.212   6.248
 4767POPC   D2A62728  28.226  23.404   6.676
 4767POPC   C3A62729  28.416  23.205   7.048
 4767POPC   C4A62730  28.162  22.864   7.215
 4767POPC   C1B62731  28.531  22.722   6.330
 4767POPC   C2B62732  28.404  22.771   6.761
 4767POPC   C3B62733  28.660  22.675   7.117
 4767POPC   C4B62734  28.828  22.256   7.217
 4768POPC   NC362735   2.690  44.299   5.358
 4768POPC   PO462736   2.496  44.871   5.351
 4768POPC   GL162737   2.733  44.681   5.734
 4768POPC   GL262738   3.057  44.471   5.796
 4768POPC   C1A62739   2.873  44.883   6.137
 4768POPC   D2A62740   2.704   0.033   6.533
 4768POPC   C3A62741   2.669  44.706   6.818
 4768POPC   C4A62742   2.563  44.618   7.228
 4768POPC   C1B62743   3.221  44.522   6.235
 4768POPC   C2B62744   3.158  44.736   6.646
 4768POPC   C3B62745   3.087  44.635   7.100
 4768POPC   C4B62746   3.360  44.637   7.443
 4769POPC   NC362747  17.060   3.000   5.372
 4769POPC   PO462748  17.570   2.630   5.530
 4769POPC   GL162749  17.244   2.687   5.781
 4769POPC   GL262750  17.148   2.340   5.750
 4769POPC   C1A62751  17.177   2.839   6.210
 4769POPC   D2A62752  17.475   2.706   6.512
 4769POPC   C3A62753  17.640   2.907   6.865
 4769POPC   C4A62754  17.552   2.792   7.249
 4769POPC   C1B62755  17.319   2.326   6.152
 4769POPC   C2B62756  17.115   2.342   6.550
 4769POPC   C3B62757  17.195   2.443   6.952
 4769POPC   C4B62758  17.104   2.577   7.344
 4770POPC   NC362759  33.426  30.878   5.596
 4770POPC   PO462760  32.897  30.392   5.364
 4770POPC   GL162761  32.848  30.472   5.851
 4770POPC   GL262762  32.977  30.814   5.907
 4770POPC   C1A62763  33.093  30.506   6.306
 4770POPC   D2A62764  33.519  30.504   6.567
 4770POPC   C3A62765  33.478  30.656   6.994
 4770POPC   C4A62766  33.044  30.650   7.140
 4770POPC   C1B62767  33.070  31.028   6.325
 4770POPC   C2B62768  32.913  30.983   6.746
 4770POPC   C3B62769  32.593  30.665   6.893
 4770POPC   C4B62770  32.592  30.480   7.311
 4771POPC   NC362771  33.902   5.603   5.385
 4771POPC   PO462772  33.429   6.238   5.530
 4771POPC   GL162773  33.643   6.130   5.916
 4771POPC   GL262774  33.839   5.824   5.876
 4771POPC   C1A62775  33.798   6.253   6.312
 4771POPC   D2A62776  33.594   6.271   6.686
 4771POPC   C3A62777  33.538   5.937   6.981
 4771POPC   C4A62778  33.413   6.095   7.376
 4771POPC   C1B62779  33.800   5.761   6.331
 4771POPC   C2B62780  34.001   5.952   6.739
 4771POPC   C3B62781  34.004   5.756   7.190
 4771POPC   C4B62782  34.224   5.716   7.629
 4772POPC   NC362783   1.497  23.703   5.323
 4772POPC   PO462784   2.130  23.621   5.232
 4772POPC   GL162785   2.088  23.606   5.687
 4772POPC   GL262786   1.779  23.415   5.752
 4772POPC   C1A62787   1.908  23.768   6.135
 4772POPC   D2A62788   1.796  23.654   6.606
 4772POPC   C3A62789   1.824  23.877   7.032
 4772POPC   C4A62790   1.994  24.213   7.307
 4772POPC   C1B62791   1.633  23.326   6.199
 4772POPC   C2B62792   1.733  23.147   6.620
 4772POPC   C3B62793   1.788  23.314   7.035
 4772POPC   C4B62794   2.125  23.513   7.263
 4773POPC   NC362795   2.856  39.551   5.655
 4773POPC   PO462796   2.692  40.085   5.256
 4773POPC   GL162797   2.829  40.112   5.722
 4773POPC   GL262798   3.108  40.336   5.776
 4773POPC   C1A62799   2.800  39.933   6.182
 4773POPC   D2A62800   2.804  39.666   6.562
 4773POPC   C3A62801   2.568  39.799   6.891
 4773POPC   C4A62802   2.646  39.957   7.290
 4773POPC   C1B62803   2.929  40.420   6.199
 4773POPC   C2B62804   2.588  40.319   6.509
 4773POPC   C3B62805   2.542  40.336   6.964
 4773POPC   C4B62806   2.937  40.374   7.217
 4774POPC   NC362807  40.944  27.747   5.468
 4774POPC   PO462808  40.324  27.470   5.229
 4774POPC   GL162809  40.503  27.493   5.708
 4774POPC   GL262810  40.834  27.350   5.765
 4774POPC   C1A62811  40.695  27.579   6.170
 4774POPC   D2A62812  40.984  27.731   6.475
 4774POPC   C3A62813  40.790  27.899   6.843
 4774POPC   C4A62814  40.628  27.736   7.223
 4774POPC   C1B62815  41.063  27.212   6.124
 4774POPC   C2B62816  41.125  27.242   6.567
 4774POPC   C3B62817  40.894  27.375   6.930
 4774POPC   C4B62818  40.960  27.185   7.326
 4775POPC   NC362819  13.499  38.808   5.529
 4775POPC   PO462820  13.688  38.176   5.537
 4775POPC   GL162821  13.431  38.378   5.835
 4775POPC   GL262822  13.710  38.624   5.948
 4775POPC   C1A62823  13.314  38.508   6.248
 4775POPC   D2A62824  13.560  38.633   6.605
 4775POPC   C3A62825  13.632  38.293   6.861
 4775POPC   C4A62826  13.387  38.102   7.144
 4775POPC   C1B62827  13.499  38.980   6.186
 4775POPC   C2B62828  13.261  39.044   6.584
 4775POPC   C3B62829  13.398  39.000   7.009
 4775POPC   C4B62830  13.630  38.681   7.211
 4776POPC   NC362831   4.541  40.273   5.453
 4776POPC   PO462832   3.987  39.832   5.369
 4776POPC   GL162833   4.198  39.968   5.756
 4776POPC   GL262834   4.166  40.326   5.796
 4776POPC   C1A62835   4.165  40.038   6.220
 4776POPC   D2A62836   4.145  39.873   6.636
 4776POPC   C3A62837   4.060  40.162   6.955
 4776POPC   C4A62838   4.206  40.092   7.356
 4776POPC   C1B62839   4.545  40.337   6.123
 4776POPC   C2B62840   4.569  40.180   6.547
 4776POPC   C3B62841   4.576  40.047   6.972
 4776POPC   C4B62842   4.669  40.328   7.315
 4777POPC   NC362843  31.489  28.485   5.301
 4777POPC   PO462844  31.057  28.276   5.764
 4777POPC   GL162845  31.463  28.511   5.819
 4777POPC   GL262846  31.773  28.309   5.774
 4777POPC   C1A62847  31.634  28.535   6.229
 4777POPC   D2A62848  31.366  28.553   6.575
 4777POPC   C3A62849  31.427  28.372   6.986
 4777POPC   C4A62850  31.223  28.589   7.261
 4777POPC   C1B62851  31.803  28.046   6.185
 4777POPC   C2B62852  31.716  28.125   6.646
 4777POPC   C3B62853  31.837  28.044   7.113
 4777POPC   C4B62854  31.950  28.179   7.572
 4778POPC   NC362855  43.649  38.731   5.611
 4778POPC   PO462856  44.343  38.534   5.417
 4778POPC   GL162857  44.049  38.464   5.817
 4778POPC   GL262858  43.704  38.314   5.897
 4778POPC   C1A62859  44.052  38.343   6.276
 4778POPC   D2A62860  43.819  38.478   6.654
 4778POPC   C3A62861  43.917  38.281   7.022
 4778POPC   C4A62862  43.986  38.403   7.413
 4778POPC   C1B62863  43.610  38.657   6.225
 4778POPC   C2B62864  43.705  38.961   6.523
 4778POPC   C3B62865  43.722  38.909   6.948
 4778POPC   C4B62866  43.655  38.759   7.358
 4779POPC   NC362867  39.385  13.126   5.393
 4779POPC   PO462868  39.989  13.338   5.448
 4779POPC   GL162869  39.716  13.132   5.807
 4779POPC   GL262870  39.352  13.259   5.887
 4779POPC   C1A62871  39.580  12.936   6.215
 4779POPC   D2A62872  39.724  13.026   6.640
 4779POPC   C3A62873  39.550  12.881   7.031
 4779POPC   C4A62874  39.488  12.672   7.437
 4779POPC   C1B62875  39.257  13.308   6.336
 4779POPC   C2B62876  39.212  13.005   6.654
 4779POPC   C3B62877  39.040  13.046   7.057
 4779POPC   C4B62878  38.903  13.349   7.371
 4780POPC   NC362879  14.705  12.387   5.421
 4780POPC   PO462880  14.307  11.872   5.382
 4780POPC   GL162881  14.346  12.029   5.803
 4780POPC   GL262882  14.015  12.133   5.864
 4780POPC   C1A62883  14.280  11.862   6.263
 4780POPC   D2A62884  14.551  11.825   6.671
 4780POPC   C3A62885  14.341  11.929   7.089
 4780POPC   C4A62886  14.558  12.003   7.488
 4780POPC   C1B62887  14.167  12.353   6.228
 4780POPC   C2B62888  14.177  12.193   6.647
 4780POPC   C3B62889  14.092  12.372   7.028
 4780POPC   C4B62890  14.441  12.444   7.277
 4781POPC   NC362891   7.282  44.431   5.457
 4781POPC   PO462892   7.473   0.036   5.618
 4781POPC   GL162893   7.507  44.681   5.842
 4781POPC   GL262894   7.164  44.684   5.874
 4781POPC   C1A62895   7.501  44.540   6.264
 4781POPC   D2A62896   7.423  44.371   6.660
 4781POPC   C3A62897   7.558  44.728   6.867
 4781POPC   C4A62898   7.739  44.727   7.244
 4781POPC   C1B62899   7.065  44.331   6.097
 4781POPC   C2B62900   6.939  44.399   6.486
 4781POPC   C3B62901   6.952  44.354   6.930
 4781POPC   C4B62902   7.242  44.533   7.204
 4782POPC   NC362903  36.742   1.652   5.518
 4782POPC   PO462904  37.090   2.215   5.412
 4782POPC   GL162905  36.816   2.157   5.759
 4782POPC   GL262906  36.485   2.033   5.727
 4782POPC   C1A62907  36.859   1.919   6.166
 4782POPC   D2A62908  37.054   2.057   6.560
 4782POPC   C3A62909  36.905   1.941   6.969
 4782POPC   C4A62910  37.032   2.037   7.377
 4782POPC   C1B62911  36.483   2.247   6.152
 4782POPC   C2B62912  36.509   2.124   6.611
 4782POPC   C3B62913  36.551   2.324   7.040
 4782POPC   C4B62914  36.547   2.154   7.490
 4783POPC   NC362915   7.898   8.299   5.295
 4783POPC   PO462916   8.422   7.908   5.558
 4783POPC   GL162917   8.292   8.196   5.788
 4783POPC   GL262918   7.951   8.128   5.774
 4783POPC   C1A62919   8.368   8.246   6.190
 4783POPC   D2A62920   8.075   8.030   6.410
 4783POPC   C3A62921   8.050   8.248   6.774
 4783POPC   C4A62922   8.155   8.074   7.095
 4783POPC   C1B62923   7.897   8.440   6.119
 4783POPC   C2B62924   8.182   8.688   6.413
 4783POPC   C3B62925   8.261   8.696   6.875
 4783POPC   C4B62926   8.200   8.524   7.309
 4784POPC   NC362927  29.168  13.246   5.299
 4784POPC   PO462928  29.560  12.810   5.479
 4784POPC   GL162929  29.366  13.000   5.819
 4784POPC   GL262930  29.287  12.664   5.902
 4784POPC   C1A62931  29.461  13.061   6.265
 4784POPC   D2A62932  29.165  13.121   6.595
 4784POPC   C3A62933  29.162  12.977   6.971
 4784POPC   C4A62934  29.236  13.297   7.258
 4784POPC   C1B62935  29.072  12.741   6.252
 4784POPC   C2B62936  28.871  12.706   6.629
 4784POPC   C3B62937  28.696  12.750   7.026
 4784POPC   C4B62938  28.840  12.978   7.365
 4785POPC   NC362939   0.029  27.696   5.355
 4785POPC   PO462940  44.385  27.462   5.391
 4785POPC   GL162941  44.598  27.367   5.761
 4785POPC   GL262942  44.963  27.363   5.778
 4785POPC   C1A62943  44.551  27.410   6.170
 4785POPC   D2A62944  44.806  27.443   6.512
 4785POPC   C3A62945  44.581  27.500   6.892
 4785POPC   C4A62946  44.675  27.712   7.256
 4785POPC   C1B62947  44.917  27.765   6.045
 4785POPC   C2B62948  44.852  27.948   6.468
 4785POPC   C3B62949   0.010  27.826   6.879
 4785POPC   C4B62950   0.209  27.994   7.253
 4786POPC   NC362951  29.896  19.406   5.563
 4786POPC   PO462952  30.025  18.823   5.511
 4786POPC   GL162953  30.167  18.805   5.921
 4786POPC   GL262954  30.098  19.144   5.951
 4786POPC   C1A62955  29.975  18.872   6.365
 4786POPC   D2A62956  29.993  19.156   6.756
 4786POPC   C3A62957  29.704  19.128   7.098
 4786POPC   C4A62958  29.790  19.093   7.523
 4786POPC   C1B62959  30.208  19.352   6.318
 4786POPC   C2B62960  30.219  19.649   6.668
 4786POPC   C3B62961  30.327  19.639   7.047
 4786POPC   C4B62962  30.186  19.288   7.259
 4787POPC   NC362963  15.480  23.332   5.285
 4787POPC   PO462964  16.072  23.023   5.362
 4787POPC   GL162965  15.945  22.817   5.746
 4787POPC   GL262966  16.280  22.795   5.799
 4787POPC   C1A62967  15.701  22.791   6.115
 4787POPC   D2A62968  15.605  22.665   6.523
 4787POPC   C3A62969  15.818  22.828   6.857
 4787POPC   C4A62970  15.703  22.852   7.284
 4787POPC   C1B62971  16.197  22.718   6.201
 4787POPC   C2B62972  16.134  23.002   6.493
 4787POPC   C3B62973  16.316  22.925   6.861
 4787POPC   C4B62974  16.188  22.671   7.188
 4788POPC   NC362975  33.983  39.173   5.347
 4788POPC   PO462976  33.623  39.587   5.705
 4788POPC   GL162977  33.891  39.313   5.879
 4788POPC   GL262978  33.607  39.244   6.090
 4788POPC   C1A62979  34.043  39.390   6.300
 4788POPC   D2A62980  33.870  39.444   6.743
 4788POPC   C3A62981  33.878  39.103   7.009
 4788POPC   C4A62982  33.563  38.894   7.260
 4788POPC   C1B62983  33.566  39.641   6.356
 4788POPC   C2B62984  33.422  39.689   6.784
 4788POPC   C3B62985  33.434  39.363   7.118
 4788POPC   C4B62986  33.411  39.289   7.611
 4789POPC   NC362987  35.396  36.327   5.096
 4789POPC   PO462988  34.987  35.916   5.406
 4789POPC   GL162989  35.162  36.070   5.799
 4789POPC   GL262990  35.160  36.386   5.707
 4789POPC   C1A62991  35.313  36.094   6.255
 4789POPC   D2A62992  35.449  36.208   6.680
 4789POPC   C3A62993  35.194  36.067   7.073
 4789POPC   C4A62994  35.006  35.726   7.394
 4789POPC   C1B62995  35.313  36.580   6.104
 4789POPC   C2B62996  35.191  36.677   6.528
 4789POPC   C3B62997  35.303  36.593   6.970
 4789POPC   C4B62998  35.443  36.460   7.363
 4790POPC   NC362999  34.759  29.446   5.434
 4790POPC   PO463000  35.093  28.827   5.329
 4790POPC   GL163001  34.873  29.002   5.748
 4790POPC   GL263002  34.825  29.353   5.921
 4790POPC   C1A63003  34.559  28.984   6.126
 4790POPC   D2A63004  34.488  29.188   6.509
 4790POPC   C3A63005  34.474  28.992   6.897
 4790POPC   C4A63006  34.275  29.237   7.171
 4790POPC   C1B63007  34.984  29.231   6.336
 4790POPC   C2B63008  34.924  29.206   6.798
 4790POPC   C3B63009  34.841  29.219   7.254
 4790POPC   C4B63010  34.910  29.138   7.736
 4791POPC   NC363011  18.322  43.829   5.305
 4791POPC   PO463012  17.743  43.796   5.663
 4791POPC   GL163013  18.182  43.806   5.829
 4791POPC   GL263014  18.238  43.481   5.956
 4791POPC   C1A63015  18.490  43.906   6.207
 4791POPC   D2A63016  18.710  43.799   6.622
 4791POPC   C3A63017  18.415  43.902   6.979
 4791POPC   C4A63018  18.482  44.117   7.379
 4791POPC   C1B63019  18.036  43.701   6.323
 4791POPC   C2B63020  17.938  44.007   6.668
 4791POPC   C3B63021  17.811  43.892   7.082
 4791POPC   C4B63022  18.114  43.755   7.399
 4792POPC   NC363023   8.794  22.277   5.475
 4792POPC   PO463024   9.383  21.942   5.256
 4792POPC   GL163025   9.198  21.962   5.742
 4792POPC   GL263026   8.840  21.845   5.814
 4792POPC   C1A63027   9.290  22.090   6.203
 4792POPC   D2A63028   9.445  22.349   6.588
 4792POPC   C3A63029   9.259  22.261   6.998
 4792POPC   C4A63030   9.314  22.428   7.385
 4792POPC   C1B63031   8.789  22.164   6.124
 4792POPC   C2B63032   8.896  22.189   6.551
 4792POPC   C3B63033   8.832  21.949   6.917
 4792POPC   C4B63034   8.785  22.151   7.269
 4793POPC   NC363035  10.033  30.452   5.332
 4793POPC   PO463036   9.619  30.814   5.373
 4793POPC   GL163037   9.582  30.712   5.826
 4793POPC   GL263038   9.426  30.411   5.910
 4793POPC   C1A63039   9.782  30.619   6.279
 4793POPC   D2A63040   9.739  30.500   6.749
 4793POPC   C3A63041   9.944  30.783   7.093
 4793POPC   C4A63042  10.151  30.979   7.473
 4793POPC   C1B63043   9.284  30.693   6.272
 4793POPC   C2B63044   9.278  30.751   6.750
 4793POPC   C3B63045   9.456  30.660   7.162
 4793POPC   C4B63046   9.460  30.291   7.421
 4794POPC   NC363047   9.958  25.137   5.267
 4794POPC   PO463048   9.456  24.844   5.543
 4794POPC   GL163049   9.734  25.091   5.829
 4794POPC   GL263050   9.875  25.411   5.694
 4794POPC   C1A63051   9.694  25.146   6.303
 4794POPC   D2A63052   9.999  25.244   6.632
 4794POPC   C3A63053   9.966  25.053   7.037
 4794POPC   C4A63054  10.026  25.247   7.409
 4794POPC   C1B63055  10.008  25.504   6.141
 4794POPC   C2B63056   9.879  25.720   6.558
 4794POPC   C3B63057   9.973  25.613   7.024
 4794POPC   C4B63058   9.784  25.796   7.431
 4795POPC   NC363059  34.352  38.335   5.415
 4795POPC   PO463060  34.824  37.784   5.332
 4795POPC   GL163061  34.662  37.541   5.688
 4795POPC   GL263062  34.521  37.840   5.813
 4795POPC   C1A63063  34.677  37.490   6.166
 4795POPC   D2A63064  34.454  37.405   6.576
 4795POPC   C3A63065  34.672  37.473   6.956
 4795POPC   C4A63066  34.730  37.649   7.374
 4795POPC   C1B63067  34.564  38.042   6.236
 4795POPC   C2B63068  34.586  37.915   6.688
 4795POPC   C3B63069  34.663  38.071   7.114
 4795POPC   C4B63070  34.624  38.094   7.607
 4796POPC   NC363071  32.658  33.192   5.233
 4796POPC   PO463072  32.052  33.112   5.383
 4796POPC   GL163073  32.247  33.068   5.760
 4796POPC   GL263074  32.445  32.790   5.711
 4796POPC   C1A63075  32.079  33.032   6.197
 4796POPC   D2A63076  32.320  33.182   6.555
 4796POPC   C3A63077  32.176  33.112   6.970
 4796POPC   C4A63078  32.143  33.180   7.414
 4796POPC   C1B63079  32.569  32.891   6.132
 4796POPC   C2B63080  32.749  32.901   6.543
 4796POPC   C3B63081  32.715  32.713   6.970
 4796POPC   C4B63082  32.368  32.752   7.281
 4797POPC   NC363083  21.424  18.234   5.380
 4797POPC   PO463084  20.848  18.339   5.450
 4797POPC   GL163085  21.140  18.280   5.804
 4797POPC   GL263086  20.995  18.078   6.071
 4797POPC   C1A63087  21.428  18.310   6.143
 4797POPC   D2A63088  21.203  18.347   6.497
 4797POPC   C3A63089  21.373  18.208   6.860
 4797POPC   C4A63090  21.200  18.366   7.233
 4797POPC   C1B63091  21.266  17.839   6.313
 4797POPC   C2B63092  21.395  17.679   6.695
 4797POPC   C3B63093  21.684  17.823   6.997
 4797POPC   C4B63094  21.673  18.146   7.292
 4798POPC   NC363095  13.872  21.107   5.460
 4798POPC   PO463096  13.249  21.184   5.425
 4798POPC   GL163097  13.528  21.345   5.803
 4798POPC   GL263098  13.814  21.565   5.685
 4798POPC   C1A63099  13.635  21.309   6.279
 4798POPC   D2A63100  13.454  21.134   6.680
 4798POPC   C3A63101  13.681  21.210   7.082
 4798POPC   C4A63102  13.603  21.495   7.431
 4798POPC   C1B63103  13.855  21.736   6.100
 4798POPC   C2B63104  13.783  21.773   6.541
 4798POPC   C3B63105  13.902  21.676   6.968
 4798POPC   C4B63106  14.094  21.462   7.318
 4799POPC   NC363107   1.698  35.630   5.463
 4799POPC   PO463108   2.291  35.197   5.590
 4799POPC   GL163109   1.911  35.251   5.815
 4799POPC   GL263110   1.983  35.602   5.898
 4799POPC   C1A63111   1.787  35.259   6.255
 4799POPC   D2A63112   2.038  35.546   6.551
 4799POPC   C3A63113   2.121  35.414   6.979
 4799POPC   C4A63114   1.941  35.036   7.175
 4799POPC   C1B63115   1.669  35.768   6.219
 4799POPC   C2B63116   1.518  35.537   6.600
 4799POPC   C3B63117   1.610  35.493   7.024
 4799POPC   C4B63118   1.676  35.868   7.261
 4800POPC   NC363119  19.996  44.195   5.538
 4800POPC   PO463120  19.493  43.680   5.527
 4800POPC   GL163121  19.882  43.728   5.784
 4800POPC   GL263122  20.033  43.404   5.897
 4800POPC   C1A63123  19.969  43.972   6.179
 4800POPC   D2A63124  20.125  44.042   6.598
 4800POPC   C3A63125  20.078  43.765   6.952
 4800POPC   C4A63126  20.118  44.033   7.293
 4800POPC   C1B63127  19.694  43.527   6.215
 4800POPC   C2B63128  19.694  43.786   6.608
 4800POPC   C3B63129  19.581  43.698   7.047
 4800POPC   C4B63130  19.832  43.632   7.425
 4801POPC   NC363131   9.142   2.144   5.329
 4801POPC   PO463132   8.773   1.676   5.538
 4801POPC   GL163133   8.912   1.673   5.936
 4801POPC   GL263134   9.069   1.986   5.869
 4801POPC   C1A63135   8.854   1.840   6.363
 4801POPC   D2A63136   8.793   2.245   6.565
 4801POPC   C3A63137   9.026   2.388   6.942
 4801POPC   C4A63138   8.889   2.216   7.300
 4801POPC   C1B63139   9.341   1.833   6.213
 4801POPC   C2B63140   9.352   1.689   6.614
 4801POPC   C3B63141   9.180   1.895   6.948
 4801POPC   C4B63142   9.072   1.748   7.337
 4802POPC   NC363143  37.762  43.544   4.879
 4802POPC   PO463144  37.851  43.316   5.527
 4802POPC   GL163145  37.759  43.132   5.886
 4802POPC   GL263146  38.024  42.871   5.923
 4802POPC   C1A63147  37.729  43.275   6.302
 4802POPC   D2A63148  37.485  43.395   6.652
 4802POPC   C3A63149  37.657  43.294   7.018
 4802POPC   C4A63150  37.452  43.115   7.350
 4802POPC   C1B63151  37.672  42.743   6.214
 4802POPC   C2B63152  37.577  42.707   6.663
 4802POPC   C3B63153  37.678  42.737   7.103
 4802POPC   C4B63154  37.947  43.015   7.338
 4803POPC   NC363155  29.155  44.792   5.131
 4803POPC   PO463156  28.987  44.288   5.534
 4803POPC   GL163157  28.874  44.639   5.743
 4803POPC   GL263158  29.205  44.786   5.730
 4803POPC   C1A63159  28.690  44.863   6.100
 4803POPC   D2A63160  28.668   0.078   6.496
 4803POPC   C3A63161  28.700  44.867   6.879
 4803POPC   C4A63162  28.947  44.939   7.200
 4803POPC   C1B63163  29.176  44.645   6.179
 4803POPC   C2B63164  29.170  44.815   6.618
 4803POPC   C3B63165  29.194  44.554   6.991
 4803POPC   C4B63166  29.267  44.576   7.438
 4804POPC   NC363167  43.114  40.242   5.436
 4804POPC   PO463168  42.797  39.580   5.345
 4804POPC   GL163169  42.958  39.776   5.730
 4804POPC   GL263170  42.755  40.087   5.782
 4804POPC   C1A63171  43.115  39.980   6.124
 4804POPC   D2A63172  42.885  40.179   6.462
 4804POPC   C3A63173  43.134  40.245   6.825
 4804POPC   C4A63174  43.181  39.988   7.151
 4804POPC   C1B63175  42.568  40.364   6.091
 4804POPC   C2B63176  42.471  40.516   6.483
 4804POPC   C3B63177  42.637  40.408   6.873
 4804POPC   C4B63178  42.748  40.264   7.260
 4805POPC   NC363179  36.636   3.319   5.577
 4805POPC   PO463180  37.241   3.173   5.166
 4805POPC   GL163181  37.260   3.292   5.662
 4805POPC   GL263182  37.017   3.525   5.859
 4805POPC   C1A63183  37.200   3.159   6.155
 4805POPC   D2A63184  37.225   3.448   6.570
 4805POPC   C3A63185  36.999   3.371   6.956
 4805POPC   C4A63186  36.845   3.304   7.382
 4805POPC   C1B63187  36.800   3.495   6.285
 4805POPC   C2B63188  36.576   3.456   6.690
 4805POPC   C3B63189  36.571   3.661   7.099
 4805POPC   C4B63190  36.603   4.132   7.130
 4806POPC   NC363191  27.766  23.774   5.305
 4806POPC   PO463192  27.168  23.906   5.331
 4806POPC   GL163193  27.462  23.934   5.733
 4806POPC   GL263194  27.689  23.626   5.795
 4806POPC   C1A63195  27.672  23.946   6.174
 4806POPC   D2A63196  27.783  23.703   6.581
 4806POPC   C3A63197  27.634  23.851   6.966
 4806POPC   C4A63198  27.797  23.968   7.373
 4806POPC   C1B63199  27.494  23.470   6.212
 4806POPC   C2B63200  27.456  23.323   6.674
 4806POPC   C3B63201  27.520  23.373   7.133
 4806POPC   C4B63202  27.737  23.125   7.459
 4807POPC   NC363203  14.525  34.599   5.507
 4807POPC   PO463204  14.644  34.010   5.441
 4807POPC   GL163205  14.524  34.244   5.873
 4807POPC   GL263206  14.789  34.462   5.932
 4807POPC   C1A63207  14.300  34.372   6.290
 4807POPC   D2A63208  14.016  34.497   6.633
 4807POPC   C3A63209  14.139  34.706   7.030
 4807POPC   C4A63210  14.207  34.586   7.466
 4807POPC   C1B63211  14.751  34.587   6.360
 4807POPC   C2B63212  14.532  34.548   6.742
 4807POPC   C3B63213  14.625  34.722   7.177
 4807POPC   C4B63214  14.565  34.917   7.603
 4808POPC   NC363215  14.502  16.439   5.472
 4808POPC   PO463216  14.822  15.827   5.578
 4808POPC   GL163217  14.427  15.984   5.692
 4808POPC   GL263218  14.230  15.738   5.848
 4808POPC   C1A63219  14.368  16.210   6.081
 4808POPC   D2A63220  14.382  16.172   6.531
 4808POPC   C3A63221  14.315  16.229   6.970
 4808POPC   C4A63222  14.662  16.194   7.245
 4808POPC   C1B63223  14.402  15.721   6.293
 4808POPC   C2B63224  14.224  15.733   6.745
 4808POPC   C3B63225  14.323  15.753   7.186
 4808POPC   C4B63226  14.327  15.404   7.511
 4809POPC   NC363227  13.390   3.052   5.376
 4809POPC   PO463228  13.704   2.376   5.349
 4809POPC   GL163229  13.550   2.440   5.703
 4809POPC   GL263230  13.748   2.204   5.848
 4809POPC   C1A63231  13.508   2.644   6.095
 4809POPC   D2A63232  13.714   2.599   6.497
 4809POPC   C3A63233  13.523   2.568   6.901
 4809POPC   C4A63234  13.662   2.808   7.223
 4809POPC   C1B63235  13.946   2.220   6.226
 4809POPC   C2B63236  14.108   2.303   6.620
 4809POPC   C3B63237  14.043   2.513   6.987
 4809POPC   C4B63238  14.053   2.555   7.438
 4810POPC   NC363239  12.823  37.237   5.320
 4810POPC   PO463240  12.740  37.893   5.393
 4810POPC   GL163241  12.921  37.615   5.677
 4810POPC   GL263242  12.603  37.446   5.724
 4810POPC   C1A63243  13.053  37.755   6.087
 4810POPC   D2A63244  12.830  37.740   6.504
 4810POPC   C3A63245  13.034  37.740   6.933
 4810POPC   C4A63246  13.000  37.908   7.394
 4810POPC   C1B63247  12.769  37.349   6.150
 4810POPC   C2B63248  12.668  37.212   6.555
 4810POPC   C3B63249  12.591  37.484   6.893
 4810POPC   C4B63250  12.765  37.480   7.288
 4811POPC   NC363251  40.977  10.083   5.322
 4811POPC   PO463252  41.389   9.499   5.358
 4811POPC   GL163253  41.156   9.729   5.658
 4811POPC   GL263254  40.777   9.741   5.700
 4811POPC   C1A63255  41.114   9.771   6.119
 4811POPC   D2A63256  40.992   9.535   6.521
 4811POPC   C3A63257  40.989   9.694   6.964
 4811POPC   C4A63258  41.151   9.489   7.343
 4811POPC   C1B63259  40.607   9.692   6.183
 4811POPC   C2B63260  40.519   9.644   6.680
 4811POPC   C3B63261  40.489   9.723   7.150
 4811POPC   C4B63262  40.372   9.656   7.602
 4812POPC   NC363263  29.429  21.609   5.332
 4812POPC   PO463264  29.132  22.203   5.324
 4812POPC   GL163265  29.201  22.005   5.709
 4812POPC   GL263266  29.070  22.311   5.839
 4812POPC   C1A63267  29.278  21.956   6.166
 4812POPC   D2A63268  29.056  22.000   6.592
 4812POPC   C3A63269  29.111  21.863   7.044
 4812POPC   C4A63270  29.133  21.947   7.501
 4812POPC   C1B63271  28.973  22.456   6.246
 4812POPC   C2B63272  29.105  22.500   6.677
 4812POPC   C3B63273  29.273  22.436   7.085
 4812POPC   C4B63274  29.069  22.662   7.443
 4813POPC   NC363275  26.316  27.830   5.457
 4813POPC   PO463276  25.824  27.329   5.625
 4813POPC   GL163277  26.065  27.618   5.864
 4813POPC   GL263278  25.823  27.862   5.771
 4813POPC   C1A63279  26.265  27.721   6.284
 4813POPC   D2A63280  26.240  27.866   6.735
 4813POPC   C3A63281  26.255  27.632   7.116
 4813POPC   C4A63282  26.442  27.253   7.191
 4813POPC   C1B63283  25.810  28.000   6.169
 4813POPC   C2B63284  25.712  27.872   6.579
 4813POPC   C3B63285  25.818  27.974   6.997
 4813POPC   C4B63286  25.789  27.678   7.331
 4814POPC   NC363287  18.559  22.083   5.322
 4814POPC   PO463288  17.945  22.331   5.279
 4814POPC   GL163289  18.198  22.306   5.698
 4814POPC   GL263290  17.878  22.375   5.838
 4814POPC   C1A63291  18.233  22.108   6.154
 4814POPC   D2A63292  18.165  21.946   6.605
 4814POPC   C3A63293  18.439  21.837   6.990
 4814POPC   C4A63294  18.400  22.065   7.406
 4814POPC   C1B63295  18.072  22.591   6.151
 4814POPC   C2B63296  18.335  22.468   6.519
 4814POPC   C3B63297  18.342  22.359   6.953
 4814POPC   C4B63298  18.562  22.567   7.302
 4815POPC   NC363299  12.556  24.194   5.395
 4815POPC   PO463300  13.044  24.509   5.064
 4815POPC   GL163301  13.074  24.526   5.579
 4815POPC   GL263302  12.962  24.254   5.734
 4815POPC   C1A63303  13.091  24.629   6.090
 4815POPC   D2A63304  12.913  24.497   6.522
 4815POPC   C3A63305  13.027  24.698   6.904
 4815POPC   C4A63306  13.229  24.760   7.303
 4815POPC   C1B63307  12.720  24.247   6.116
 4815POPC   C2B63308  12.612  24.051   6.535
 4815POPC   C3B63309  12.833  24.143   6.932
 4815POPC   C4B63310  12.851  24.361   7.304
 4816POPC   NC363311  11.847  34.388   5.485
 4816POPC   PO463312  12.453  34.140   5.542
 4816POPC   GL163313  12.227  34.402   5.848
 4816POPC   GL263314  12.347  34.737   5.787
 4816POPC   C1A63315  12.202  34.559   6.273
 4816POPC   D2A63316  11.952  34.529   6.655
 4816POPC   C3A63317  12.066  34.427   7.097
 4816POPC   C4A63318  12.010  34.299   7.538
 4816POPC   C1B63319  12.427  34.997   6.153
 4816POPC   C2B63320  12.306  34.952   6.596
 4816POPC   C3B63321  12.413  34.823   7.036
 4816POPC   C4B63322  12.196  34.859   7.419
 4817POPC   NC363323  10.753  25.593   5.404
 4817POPC   PO463324  10.405  25.043   5.388
 4817POPC   GL163325  10.404  25.346   5.722
 4817POPC   GL263326  10.521  25.061   5.890
 4817POPC   C1A63327  10.527  25.488   6.173
 4817POPC   D2A63328  10.368  25.619   6.609
 4817POPC   C3A63329  10.500  25.452   7.017
 4817POPC   C4A63330  10.532  25.277   7.443
 4817POPC   C1B63331  10.266  25.047   6.241
 4817POPC   C2B63332  10.348  24.886   6.657
 4817POPC   C3B63333  10.492  24.943   7.064
 4817POPC   C4B63334  10.326  24.815   7.440
 4818POPC   NC363335  28.503   0.549   5.073
 4818POPC   PO463336  28.352   0.865   5.633
 4818POPC   GL163337  28.271   0.556   5.903
 4818POPC   GL263338  28.072   0.279   5.769
 4818POPC   C1A63339  28.522   0.560   6.287
 4818POPC   D2A63340  28.360   0.704   6.642
 4818POPC   C3A63341  28.459   0.506   6.975
 4818POPC   C4A63342  28.296   0.604   7.357
 4818POPC   C1B63343  28.254   0.141   6.190
 4818POPC   C2B63344  28.181   0.188   6.658
 4818POPC   C3B63345  28.271   0.051   7.124
 4818POPC   C4B63346  28.292   0.135   7.578
 4819POPC   NC363347  13.109  40.580   5.562
 4819POPC   PO463348  12.807  41.245   5.351
 4819POPC   GL163349  12.560  41.081   5.700
 4819POPC   GL263350  12.657  40.724   5.781
 4819POPC   C1A63351  12.589  41.019   6.162
 4819POPC   D2A63352  12.572  40.773   6.527
 4819POPC   C3A63353  12.815  40.696   6.848
 4819POPC   C4A63354  12.613  40.843   7.214
 4819POPC   C1B63355  12.938  40.652   6.172
 4819POPC   C2B63356  13.264  40.842   6.465
 4819POPC   C3B63357  13.350  40.689   6.886
 4819POPC   C4B63358  13.085  40.628   7.274
 4820POPC   NC363359  21.493  42.030   5.618
 4820POPC   PO463360  21.532  41.418   5.341
 4820POPC   GL163361  21.361  41.510   5.743
 4820POPC   GL263362  21.656  41.598   5.840
 4820POPC   C1A63363  21.305  41.716   6.182
 4820POPC   D2A63364  21.286  41.549   6.586
 4820POPC   C3A63365  21.463  41.667   6.974
 4820POPC   C4A63366  21.344  41.707   7.390
 4820POPC   C1B63367  21.673  41.353   6.263
 4820POPC   C2B63368  21.683  41.249   6.739
 4820POPC   C3B63369  21.726  41.283   7.208
 4820POPC   C4B63370  21.533  41.270   7.600
 4821POPC   NC363371  41.009   7.251   5.378
 4821POPC   PO463372  40.453   7.488   5.608
 4821POPC   GL163373  40.842   7.509   5.797
 4821POPC   GL263374  40.915   7.209   5.871
 4821POPC   C1A63375  41.105   7.550   6.197
 4821POPC   D2A63376  41.039   7.322   6.595
 4821POPC   C3A63377  41.079   7.544   6.987
 4821POPC   C4A63378  41.154   7.974   7.120
 4821POPC   C1B63379  40.632   7.316   6.239
 4821POPC   C2B63380  40.549   7.367   6.682
 4821POPC   C3B63381  40.744   7.142   7.005
 4821POPC   C4B63382  41.005   7.176   7.404
 4822POPC   NC363383  16.247   6.139   5.002
 4822POPC   PO463384  15.804   5.732   5.295
 4822POPC   GL163385  15.942   5.673   5.757
 4822POPC   GL263386  16.137   5.436   5.891
 4822POPC   C1A63387  15.943   5.761   6.245
 4822POPC   D2A63388  15.939   6.159   6.531
 4822POPC   C3A63389  15.961   6.098   6.989
 4822POPC   C4A63390  15.988   6.120   7.450
 4822POPC   C1B63391  16.428   5.468   6.234
 4822POPC   C2B63392  16.382   5.602   6.653
 4822POPC   C3B63393  16.071   5.598   6.957
 4822POPC   C4B63394  16.289   5.766   7.254
 4823POPC   NC363395  15.546   5.307   5.391
 4823POPC   PO463396  15.041   4.786   5.515
 4823POPC   GL163397  15.230   5.167   5.753
 4823POPC   GL263398  15.043   5.388   5.901
 4823POPC   C1A63399  15.507   5.314   6.117
 4823POPC   D2A63400  15.458   5.154   6.561
 4823POPC   C3A63401  15.438   5.127   7.027
 4823POPC   C4A63402  15.444   5.533   7.245
 4823POPC   C1B63403  15.034   5.113   6.242
 4823POPC   C2B63404  15.013   4.888   6.616
 4823POPC   C3B63405  14.859   5.002   6.992
 4823POPC   C4B63406  14.643   5.105   7.352
 4824POPC   NC363407  39.865  40.360   5.505
 4824POPC   PO463408  39.961  40.933   5.214
 4824POPC   GL163409  40.010  40.828   5.666
 4824POPC   GL263410  40.253  40.543   5.790
 4824POPC   C1A63411  39.924  40.954   6.098
 4824POPC   D2A63412  39.977  41.145   6.500
 4824POPC   C3A63413  40.139  40.906   6.846
 4824POPC   C4A63414  39.956  40.985   7.230
 4824POPC   C1B63415  39.982  40.447   6.141
 4824POPC   C2B63416  39.860  40.602   6.519
 4824POPC   C3B63417  39.887  40.452   6.958
 4824POPC   C4B63418  40.073  40.507   7.361
 4825POPC   NC363419  39.203  16.253   5.342
 4825POPC   PO463420  39.672  15.786   5.651
 4825POPC   GL163421  39.275  15.887   5.853
 4825POPC   GL263422  39.135  16.236   5.834
 4825POPC   C1A63423  39.326  15.937   6.293
 4825POPC   D2A63424  39.255  15.700   6.689
 4825POPC   C3A63425  39.226  15.895   7.102
 4825POPC   C4A63426  39.468  15.835   7.476
 4825POPC   C1B63427  38.924  16.253   6.220
 4825POPC   C2B63428  38.979  16.124   6.625
 4825POPC   C3B63429  38.810  16.194   6.982
 4825POPC   C4B63430  38.990  16.335   7.351
 4826POPC   NC363431  21.730  39.592   5.075
 4826POPC   PO463432  21.327  39.587   5.612
 4826POPC   GL163433  21.384  39.226   5.850
 4826POPC   GL263434  21.743  39.241   5.803
 4826POPC   C1A63435  21.239  39.203   6.311
 4826POPC   D2A63436  21.146  39.035   6.739
 4826POPC   C3A63437  21.253  39.209   7.148
 4826POPC   C4A63438  21.428  39.021   7.513
 4826POPC   C1B63439  21.615  39.531   6.187
 4826POPC   C2B63440  21.452  39.559   6.627
 4826POPC   C3B63441  21.668  39.473   7.017
 4826POPC   C4B63442  21.555  39.519   7.436
 4827POPC   NC363443  11.850   0.937   5.380
 4827POPC   PO463444  12.334   1.430   5.358
 4827POPC   GL163445  12.123   1.274   5.715
 4827POPC   GL263446  12.226   0.937   5.739
 4827POPC   C1A63447  12.193   1.229   6.163
 4827POPC   D2A63448  12.046   1.495   6.470
 4827POPC   C3A63449  12.048   1.316   6.837
 4827POPC   C4A63450  12.149   1.382   7.225
 4827POPC   C1B63451  11.889   0.826   6.085
 4827POPC   C2B63452  11.882   0.902   6.564
 4827POPC   C3B63453  11.993   0.867   7.054
 4827POPC   C4B63454  11.845   1.062   7.482
 4828POPC   NC363455   7.445  20.226   5.203
 4828POPC   PO463456   7.509  19.587   5.361
 4828POPC   GL163457   7.490  19.504   5.803
 4828POPC   GL263458   7.776  19.323   5.876
 4828POPC   C1A63459   7.366  19.757   6.185
 4828POPC   D2A63460   7.351  20.115   6.474
 4828POPC   C3A63461   7.380  19.967   6.893
 4828POPC   C4A63462   7.557  19.953   7.292
 4828POPC   C1B63463   7.620  19.321   6.296
 4828POPC   C2B63464   7.428  19.498   6.652
 4828POPC   C3B63465   7.608  19.490   7.049
 4828POPC   C4B63466   7.548  19.497   7.514
 4829POPC   NC363467  41.086  34.279   5.519
 4829POPC   PO463468  41.534  34.798   5.562
 4829POPC   GL163469  41.482  34.470   5.823
 4829POPC   GL263470  41.626  34.704   6.059
 4829POPC   C1A63471  41.332  34.328   6.234
 4829POPC   D2A63472  41.503  34.562   6.548
 4829POPC   C3A63473  41.328  34.492   6.928
 4829POPC   C4A63474  41.517  34.670   7.284
 4829POPC   C1B63475  41.406  35.053   6.264
 4829POPC   C2B63476  41.327  35.054   6.701
 4829POPC   C3B63477  41.627  35.097   7.034
 4829POPC   C4B63478  41.710  35.114   7.500
 4830POPC   NC363479  38.346  30.439   5.480
 4830POPC   PO463480  38.103  29.784   5.400
 4830POPC   GL163481  38.076  29.911   5.818
 4830POPC   GL263482  38.089  30.254   5.888
 4830POPC   C1A63483  38.338  29.778   6.197
 4830POPC   D2A63484  38.543  29.557   6.574
 4830POPC   C3A63485  38.404  29.722   6.978
 4830POPC   C4A63486  38.492  29.671   7.406
 4830POPC   C1B63487  38.427  30.287   6.173
 4830POPC   C2B63488  38.617  30.083   6.531
 4830POPC   C3B63489  38.611  30.212   6.928
 4830POPC   C4B63490  38.426  30.147   7.269
 4831POPC   NC363491   4.636  13.710   5.362
 4831POPC   PO463492   4.122  14.085   5.504
 4831POPC   GL163493   4.353  13.873   5.859
 4831POPC   GL263494   4.416  13.510   5.817
 4831POPC   C1A63495   4.358  13.718   6.299
 4831POPC   D2A63496   4.035  13.626   6.599
 4831POPC   C3A63497   4.286  13.703   6.936
 4831POPC   C4A63498   4.389  13.602   7.338
 4831POPC   C1B63499   4.679  13.341   6.159
 4831POPC   C2B63500   4.865  13.394   6.522
 4831POPC   C3B63501   4.839  13.410   6.930
 4831POPC   C4B63502   4.659  13.166   7.204
 4832POPC   NC363503   5.876  15.578   5.338
 4832POPC   PO463504   5.937  14.961   5.251
 4832POPC   GL163505   5.965  15.070   5.707
 4832POPC   GL263506   6.210  14.852   5.845
 4832POPC   C1A63507   5.807  15.166   6.151
 4832POPC   D2A63508   5.942  15.409   6.531
 4832POPC   C3A63509   5.743  15.318   6.910
 4832POPC   C4A63510   5.748  15.332   7.345
 4832POPC   C1B63511   6.129  14.761   6.280
 4832POPC   C2B63512   6.241  14.743   6.712
 4832POPC   C3B63513   6.068  14.949   7.082
 4832POPC   C4B63514   6.270  15.258   7.337
 4833POPC   NC363515  30.494   6.108   5.613
 4833POPC   PO463516  30.826   6.666   5.369
 4833POPC   GL163517  30.676   6.559   5.789
 4833POPC   GL263518  30.892   6.359   5.847
 4833POPC   C1A63519  30.588   6.499   6.237
 4833POPC   D2A63520  30.836   6.717   6.535
 4833POPC   C3A63521  30.695   6.701   6.957
 4833POPC   C4A63522  30.920   6.707   7.343
 4833POPC   C1B63523  30.885   6.106   6.225
 4833POPC   C2B63524  30.765   6.206   6.659
 4833POPC   C3B63525  30.913   6.266   7.090
 4833POPC   C4B63526  30.744   6.276   7.543
 4834POPC   NC363527   5.145  15.992   5.562
 4834POPC   PO463528   4.607  15.845   5.148
 4834POPC   GL163529   4.667  15.957   5.671
 4834POPC   GL263530   4.803  15.714   5.850
 4834POPC   C1A63531   4.853  16.079   6.164
 4834POPC   D2A63532   5.081  15.897   6.522
 4834POPC   C3A63533   5.023  16.023   6.955
 4834POPC   C4A63534   5.307  16.119   7.329
 4834POPC   C1B63535   5.168  15.581   6.120
 4834POPC   C2B63536   5.435  15.528   6.514
 4834POPC   C3B63537   5.417  15.715   6.941
 4834POPC   C4B63538   5.283  15.603   7.363
 4835POPC   NC363539   0.127  35.433   5.171
 4835POPC   PO463540   0.706  35.324   5.474
 4835POPC   GL163541   0.536  35.519   5.850
 4835POPC   GL263542   0.235  35.601   5.673
 4835POPC   C1A63543   0.536  35.574   6.320
 4835POPC   D2A63544   0.399  35.778   6.680
 4835POPC   C3A63545   0.662  35.610   6.958
 4835POPC   C4A63546   0.705  35.302   7.224
 4835POPC   C1B63547   0.057  35.561   6.103
 4835POPC   C2B63548   0.086  35.358   6.542
 4835POPC   C3B63549   0.204  35.412   7.011
 4835POPC   C4B63550   0.043  35.569   7.428
 4836POPC   NC363551  40.734   1.425   5.410
 4836POPC   PO463552  41.149   0.872   5.636
 4836POPC   GL163553  40.812   1.127   5.832
 4836POPC   GL263554  40.843   1.522   5.902
 4836POPC   C1A63555  40.739   1.035   6.246
 4836POPC   D2A63556  40.974   1.063   6.588
 4836POPC   C3A63557  40.735   0.946   6.932
 4836POPC   C4A63558  40.870   1.047   7.321
 4836POPC   C1B63559  40.811   1.529   6.335
 4836POPC   C2B63560  40.558   1.355   6.656
 4836POPC   C3B63561  40.634   1.437   7.094
 4836POPC   C4B63562  40.903   1.552   7.447
 4837POPC   NC363563  13.073   6.187   5.495
 4837POPC   PO463564  12.604   6.748   5.431
 4837POPC   GL163565  12.715   6.448   5.783
 4837POPC   GL263566  12.990   6.655   5.849
 4837POPC   C1A63567  12.964   6.258   6.163
 4837POPC   D2A63568  13.139   6.406   6.565
 4837POPC   C3A63569  12.871   6.614   6.829
 4837POPC   C4A63570  12.776   6.363   7.199
 4837POPC   C1B63571  12.869   6.767   6.264
 4837POPC   C2B63572  13.203   6.918   6.520
 4837POPC   C3B63573  13.413   6.759   6.855
 4837POPC   C4B63574  13.215   6.626   7.213
 4838POPC   NC363575   6.803  15.571   5.441
 4838POPC   PO463576   6.242  15.911   5.324
 4838POPC   GL163577   6.517  15.923   5.729
 4838POPC   GL263578   6.761  16.190   5.835
 4838POPC   C1A63579   6.543  15.906   6.199
 4838POPC   D2A63580   6.250  15.820   6.535
 4838POPC   C3A63581   6.321  15.559   6.901
 4838POPC   C4A63582   6.322  15.807   7.283
 4838POPC   C1B63583   7.046  16.172   6.169
 4838POPC   C2B63584   6.912  16.008   6.555
 4838POPC   C3B63585   6.644  15.992   6.900
 4838POPC   C4B63586   6.830  16.009   7.289
 4839POPC   NC363587  31.881   7.265   5.458
 4839POPC   PO463588  32.521   7.479   5.390
 4839POPC   GL163589  32.331   7.285   5.752
 4839POPC   GL263590  32.314   7.607   5.933
 4839POPC   C1A63591  32.072   7.200   6.171
 4839POPC   D2A63592  31.865   7.192   6.635
 4839POPC   C3A63593  31.901   7.207   7.121
 4839POPC   C4A63594  32.134   7.355   7.472
 4839POPC   C1B63595  32.564   7.352   6.210
 4839POPC   C2B63596  32.489   7.167   6.596
 4839POPC   C3B63597  32.348   7.355   6.969
 4839POPC   C4B63598  32.613   7.465   7.320
 4840POPC   NC363599  15.677  12.891   5.507
 4840POPC   PO463600  16.410  12.884   5.462
 4840POPC   GL163601  16.078  12.911   5.861
 4840POPC   GL263602  15.891  13.266   5.817
 4840POPC   C1A63603  15.859  12.724   6.295
 4840POPC   D2A63604  15.647  12.625   6.729
 4840POPC   C3A63605  15.926  12.719   7.082
 4840POPC   C4A63606  16.215  13.067   7.180
 4840POPC   C1B63607  15.883  13.237   6.269
 4840POPC   C2B63608  15.911  13.088   6.679
 4840POPC   C3B63609  15.725  13.234   7.007
 4840POPC   C4B63610  15.677  13.062   7.359
 4841POPC   NC363611  24.133  25.951   5.395
 4841POPC   PO463612  24.737  26.285   5.332
 4841POPC   GL163613  24.481  26.134   5.732
 4841POPC   GL263614  24.433  25.751   5.800
 4841POPC   C1A63615  24.406  26.269   6.181
 4841POPC   D2A63616  24.580  26.183   6.609
 4841POPC   C3A63617  24.362  26.187   7.029
 4841POPC   C4A63618  24.553  26.201   7.443
 4841POPC   C1B63619  24.556  25.770   6.272
 4841POPC   C2B63620  24.494  25.614   6.729
 4841POPC   C3B63621  24.480  25.680   7.206
 4841POPC   C4B63622  24.287  25.781   7.623
 4842POPC   NC363623  44.041   4.551   5.497
 4842POPC   PO463624  43.945   5.195   5.500
 4842POPC   GL163625  43.783   4.986   5.835
 4842POPC   GL263626  43.961   4.741   5.983
 4842POPC   C1A63627  43.628   5.084   6.236
 4842POPC   D2A63628  43.826   4.887   6.566
 4842POPC   C3A63629  43.615   4.984   6.896
 4842POPC   C4A63630  43.557   5.016   7.294
 4842POPC   C1B63631  44.121   5.156   6.192
 4842POPC   C2B63632  44.026   5.387   6.545
 4842POPC   C3B63633  44.054   5.244   6.963
 4842POPC   C4B63634  44.032   4.827   7.137
 4843POPC   NC363635  39.642  23.433   5.439
 4843POPC   PO463636  39.064  23.564   5.192
 4843POPC   GL163637  39.163  23.536   5.633
 4843POPC   GL263638  39.380  23.817   5.678
 4843POPC   C1A63639  39.048  23.634   6.074
 4843POPC   D2A63640  39.081  23.898   6.463
 4843POPC   C3A63641  39.060  23.724   6.890
 4843POPC   C4A63642  38.968  23.757   7.340
 4843POPC   C1B63643  39.528  23.941   6.068
 4843POPC   C2B63644  39.673  24.058   6.455
 4843POPC   C3B63645  39.432  24.105   6.813
 4843POPC   C4B63646  39.438  23.905   7.211
 4844POPC   NC363647  38.209  36.030   5.416
 4844POPC   PO463648  38.868  36.161   5.301
 4844POPC   GL163649  38.663  36.021   5.689
 4844POPC   GL263650  38.442  36.326   5.789
 4844POPC   C1A63651  38.758  36.056   6.146
 4844POPC   D2A63652  38.938  35.968   6.573
 4844POPC   C3A63653  38.639  35.903   6.923
 4844POPC   C4A63654  38.582  35.764   7.363
 4844POPC   C1B63655  38.301  36.439   6.229
 4844POPC   C2B63656  38.185  36.380   6.684
 4844POPC   C3B63657  38.270  36.208   7.119
 4844POPC   C4B63658  38.146  36.302   7.564
 4845POPC   NC363659  41.912  34.628   5.392
 4845POPC   PO463660  42.474  34.382   5.284
 4845POPC   GL163661  42.410  34.563   5.729
 4845POPC   GL263662  42.120  34.813   5.806
 4845POPC   C1A63663  42.594  34.488   6.156
 4845POPC   D2A63664  42.510  34.629   6.552
 4845POPC   C3A63665  42.359  34.608   6.950
 4845POPC   C4A63666  42.500  34.701   7.365
 4845POPC   C1B63667  42.091  34.584   6.201
 4845POPC   C2B63668  41.980  34.694   6.605
 4845POPC   C3B63669  41.860  34.452   6.941
 4845POPC   C4B63670  42.093  34.300   7.321
 4846POPC   NC363671  10.618  37.396   5.460
 4846POPC   PO463672  10.892  37.967   5.734
 4846POPC   GL163673  10.534  37.663   5.913
 4846POPC   GL263674  10.426  37.266   5.896
 4846POPC   C1A63675  10.618  37.618   6.354
 4846POPC   D2A63676  11.005  37.731   6.612
 4846POPC   C3A63677  10.968  38.003   6.970
 4846POPC   C4A63678  10.808  37.997   7.397
 4846POPC   C1B63679  10.636  37.107   6.257
 4846POPC   C2B63680  10.757  37.253   6.676
 4846POPC   C3B63681  10.701  37.506   7.006
 4846POPC   C4B63682  10.726  37.229   7.340
 4847POPC   NC363683  43.055  31.527   5.154
 4847POPC   PO463684  43.436  31.776   5.665
 4847POPC   GL163685  43.026  31.680   5.911
 4847POPC   GL263686  42.879  31.319   5.963
 4847POPC   C1A63687  43.085  31.584   6.348
 4847POPC   D2A63688  43.223  31.601   6.762
 4847POPC   C3A63689  42.990  31.590   7.134
 4847POPC   C4A63690  43.330  31.548   7.429
 4847POPC   C1B63691  43.130  31.052   6.251
 4847POPC   C2B63692  43.367  31.105   6.617
 4847POPC   C3B63693  43.227  31.156   7.012
 4847POPC   C4B63694  42.978  31.130   7.410
 4848POPC   NC363695  39.527  43.246   5.052
 4848POPC   PO463696  38.892  43.333   5.214
 4848POPC   GL163697  38.998  43.185   5.690
 4848POPC   GL263698  39.035  43.486   5.891
 4848POPC   C1A63699  39.316  43.058   6.094
 4848POPC   D2A63700  39.613  43.137   6.507
 4848POPC   C3A63701  39.528  42.963   6.960
 4848POPC   C4A63702  39.412  42.608   7.324
 4848POPC   C1B63703  39.168  43.489   6.317
 4848POPC   C2B63704  39.411  43.596   6.667
 4848POPC   C3B63705  39.361  43.466   7.062
 4848POPC   C4B63706  39.182  43.137   7.270
 4849POPC   NC363707  41.820   4.610   5.587
 4849POPC   PO463708  41.307   4.193   5.465
 4849POPC   GL163709  41.530   4.190   5.856
 4849POPC   GL263710  41.709   3.853   5.872
 4849POPC   C1A63711  41.488   4.544   6.175
 4849POPC   D2A63712  41.157   4.615   6.490
 4849POPC   C3A63713  41.197   4.577   6.957
 4849POPC   C4A63714  41.520   4.706   7.263
 4849POPC   C1B63715  41.628   3.901   6.292
 4849POPC   C2B63716  41.594   4.247   6.561
 4849POPC   C3B63717  41.711   4.422   6.894
 4849POPC   C4B63718  41.503   4.204   7.212
 4850POPC   NC363719  26.208   5.918   5.337
 4850POPC   PO463720  25.550   5.963   5.467
 4850POPC   GL163721  25.804   5.756   5.778
 4850POPC   GL263722  26.181   5.647   5.765
 4850POPC   C1A63723  25.948   5.919   6.168
 4850POPC   D2A63724  26.187   5.892   6.550
 4850POPC   C3A63725  26.049   6.036   6.956
 4850POPC   C4A63726  26.348   6.134   7.285
 4850POPC   C1B63727  26.159   5.461   6.176
 4850POPC   C2B63728  25.872   5.470   6.559
 4850POPC   C3B63729  25.853   5.509   7.026
 4850POPC   C4B63730  26.008   5.565   7.481
 4851POPC   NC363731  17.393  23.326   5.673
 4851POPC   PO463732  17.524  23.941   5.449
 4851POPC   GL163733  17.335  23.840   5.813
 4851POPC   GL263734  17.658  23.688   5.931
 4851POPC   C1A63735  17.267  23.772   6.250
 4851POPC   D2A63736  17.532  23.622   6.576
 4851POPC   C3A63737  17.374  23.764   6.957
 4851POPC   C4A63738  17.376  23.467   7.295
 4851POPC   C1B63739  17.831  23.385   6.233
 4851POPC   C2B63740  17.979  23.321   6.674
 4851POPC   C3B63741  17.819  23.507   7.011
 4851POPC   C4B63742  17.768  23.801   7.311
 4852POPC   NC363743  27.776   7.978   5.487
 4852POPC   PO463744  27.527   8.594   5.439
 4852POPC   GL163745  27.618   8.320   5.821
 4852POPC   GL263746  27.421   7.947   5.849
 4852POPC   C1A63747  27.575   8.236   6.257
 4852POPC   D2A63748  27.530   8.482   6.619
 4852POPC   C3A63749  27.697   8.367   7.014
 4852POPC   C4A63750  27.962   8.064   7.173
 4852POPC   C1B63751  27.310   7.769   6.266
 4852POPC   C2B63752  27.189   8.082   6.565
 4852POPC   C3B63753  27.199   8.203   6.982
 4852POPC   C4B63754  27.472   7.974   7.268
 4853POPC   NC363755  11.997  22.788   5.669
 4853POPC   PO463756  11.499  22.895   5.216
 4853POPC   GL163757  11.470  22.845   5.693
 4853POPC   GL263758  11.155  23.000   5.840
 4853POPC   C1A63759  11.592  22.963   6.148
 4853POPC   D2A63760  11.716  22.697   6.505
 4853POPC   C3A63761  11.591  22.831   6.918
 4853POPC   C4A63762  11.584  22.951   7.334
 4853POPC   C1B63763  11.102  23.002   6.319
 4853POPC   C2B63764  11.104  22.955   6.774
 4853POPC   C3B63765  11.054  22.873   7.227
 4853POPC   C4B63766  10.859  22.769   7.653
 4854POPC   NC363767  18.745  28.113   5.439
 4854POPC   PO463768  18.023  28.070   5.494
 4854POPC   GL163769  18.184  28.317   5.862
 4854POPC   GL263770  18.541  28.367   5.861
 4854POPC   C1A63771  18.118  28.583   6.268
 4854POPC   D2A63772  18.010  28.700   6.732
 4854POPC   C3A63773  18.267  28.485   7.026
 4854POPC   C4A63774  18.277  28.041   7.125
 4854POPC   C1B63775  18.453  28.161   6.264
 4854POPC   C2B63776  18.485  27.915   6.638
 4854POPC   C3B63777  18.753  28.038   6.930
 4854POPC   C4B63778  18.758  28.444   7.160
 4855POPC   NC363779  43.219  17.117   5.569
 4855POPC   PO463780  43.404  17.707   5.361
 4855POPC   GL163781  43.289  17.659   5.811
 4855POPC   GL263782  42.988  17.427   5.895
 4855POPC   C1A63783  43.368  17.530   6.237
 4855POPC   D2A63784  43.654  17.481   6.582
 4855POPC   C3A63785  43.402  17.398   6.955
 4855POPC   C4A63786  43.230  17.665   7.278
 4855POPC   C1B63787  42.835  17.584   6.265
 4855POPC   C2B63788  42.996  17.590   6.674
 4855POPC   C3B63789  42.858  17.436   7.044
 4855POPC   C4B63790  42.844  17.382   7.475
 4856POPC   NC363791  17.275  41.504   5.537
 4856POPC   PO463792  17.912  41.748   5.419
 4856POPC   GL163793  17.654  41.750   5.857
 4856POPC   GL263794  17.266  41.732   5.988
 4856POPC   C1A63795  17.640  41.768   6.332
 4856POPC   D2A63796  17.375  41.672   6.713
 4856POPC   C3A63797  17.658  41.549   7.070
 4856POPC   C4A63798  17.743  41.605   7.528
 4856POPC   C1B63799  17.047  41.377   6.246
 4856POPC   C2B63800  17.010  41.166   6.666
 4856POPC   C3B63801  17.236  41.238   7.068
 4856POPC   C4B63802  17.240  41.554   7.412
 4857POPC   NC363803  27.907   0.848   5.443
 4857POPC   PO463804  27.541   0.304   5.467
 4857POPC   GL163805  27.531   0.373   5.877
 4857POPC   GL263806  27.746   0.654   5.896
 4857POPC   C1A63807  27.452   0.562   6.310
 4857POPC   D2A63808  27.287   0.684   6.715
 4857POPC   C3A63809  27.415   0.453   7.063
 4857POPC   C4A63810  27.453   0.025   7.134
 4857POPC   C1B63811  27.971   0.617   6.289
 4857POPC   C2B63812  27.828   0.588   6.682
 4857POPC   C3B63813  27.923   0.430   7.049
 4857POPC   C4B63814  27.776   0.687   7.390
 4858POPC   NC363815  39.635   2.678   5.308
 4858POPC   PO463816  39.033   2.799   5.148
 4858POPC   GL163817  39.079   2.634   5.599
 4858POPC   GL263818  39.364   2.745   5.745
 4858POPC   C1A63819  39.052   2.615   6.108
 4858POPC   D2A63820  39.170   2.693   6.569
 4858POPC   C3A63821  39.012   2.385   6.932
 4858POPC   C4A63822  39.022   2.342   7.386
 4858POPC   C1B63823  39.473   2.942   6.154
 4858POPC   C2B63824  39.666   3.063   6.563
 4858POPC   C3B63825  39.613   2.752   6.878
 4858POPC   C4B63826  39.293   2.727   7.183
 4859POPC   NC363827  42.116  28.958   5.369
 4859POPC   PO463828  42.541  28.439   5.404
 4859POPC   GL163829  42.487  28.826   5.714
 4859POPC   GL263830  42.776  29.054   5.747
 4859POPC   C1A63831  42.341  29.090   6.107
 4859POPC   D2A63832  42.056  29.215   6.489
 4859POPC   C3A63833  41.999  29.087   6.933
 4859POPC   C4A63834  42.140  28.741   7.187
 4859POPC   C1B63835  42.777  29.395   6.055
 4859POPC   C2B63836  42.579  29.507   6.454
 4859POPC   C3B63837  42.444  29.404   6.890
 4859POPC   C4B63838  42.698  29.448   7.267
 4860POPC   NC363839  31.030  42.735   5.519
 4860POPC   PO463840  30.478  42.248   5.454
 4860POPC   GL163841  30.750  42.364   5.786
 4860POPC   GL263842  30.649  42.683   5.851
 4860POPC   C1A63843  30.818  42.369   6.245
 4860POPC   D2A63844  30.604  42.095   6.554
 4860POPC   C3A63845  30.706  42.235   6.944
 4860POPC   C4A63846  31.093  42.498   7.034
 4860POPC   C1B63847  30.410  42.700   6.232
 4860POPC   C2B63848  30.471  42.593   6.652
 4860POPC   C3B63849  30.352  42.658   7.068
 4860POPC   C4B63850  30.470  42.666   7.508
 4861POPC   NC363851   1.487  10.828   5.522
 4861POPC   PO463852   1.065  10.368   5.598
 4861POPC   GL163853   1.289  10.480   5.919
 4861POPC   GL263854   1.143  10.810   5.900
 4861POPC   C1A63855   1.274  10.211   6.291
 4861POPC   D2A63856   1.094   9.972   6.639
 4861POPC   C3A63857   1.277  10.275   6.882
 4861POPC   C4A63858   1.488  10.487   7.157
 4861POPC   C1B63859   1.423  10.831   6.268
 4861POPC   C2B63860   1.419  10.759   6.714
 4861POPC   C3B63861   1.090  10.797   7.010
 4861POPC   C4B63862   0.923  11.041   7.339
 4862POPC   NC363863  25.407   0.272   5.467
 4862POPC   PO463864  25.003   0.892   5.472
 4862POPC   GL163865  25.052   0.545   5.773
 4862POPC   GL263866  25.398   0.553   5.895
 4862POPC   C1A63867  24.978   0.624   6.210
 4862POPC   D2A63868  25.146   0.841   6.578
 4862POPC   C3A63869  25.061   0.709   7.000
 4862POPC   C4A63870  25.338   0.752   7.379
 4862POPC   C1B63871  25.416   0.376   6.315
 4862POPC   C2B63872  25.656   0.109   6.601
 4862POPC   C3B63873  25.563   0.020   7.012
 4862POPC   C4B63874  25.197   0.258   7.197
 4863POPC   NC363875   0.949  42.222   5.451
 4863POPC   PO463876   1.253  42.785   5.293
 4863POPC   GL163877   1.244  42.606   5.726
 4863POPC   GL263878   1.393  42.257   5.735
 4863POPC   C1A63879   1.074  42.509   6.157
 4863POPC   D2A63880   0.982  42.273   6.535
 4863POPC   C3A63881   1.176  42.541   6.820
 4863POPC   C4A63882   1.233  42.493   7.241
 4863POPC   C1B63883   1.311  42.061   6.153
 4863POPC   C2B63884   1.477  42.158   6.566
 4863POPC   C3B63885   1.290  42.048   6.947
 4863POPC   C4B63886   1.217  41.885   7.342
 4864POPC   NC363887  40.681  34.642   5.248
 4864POPC   PO463888  41.280  34.776   4.983
 4864POPC   GL163889  41.053  34.775   5.540
 4864POPC   GL263890  40.719  34.700   5.750
 4864POPC   C1A63891  41.098  34.730   6.039
 4864POPC   D2A63892  41.026  34.680   6.479
 4864POPC   C3A63893  40.830  34.796   6.849
 4864POPC   C4A63894  40.974  34.674   7.259
 4864POPC   C1B63895  40.699  34.412   6.167
 4864POPC   C2B63896  40.795  34.260   6.627
 4864POPC   C3B63897  40.620  34.345   7.078
 4864POPC   C4B63898  40.461  34.152   7.469
 4865POPC   NC363899  38.066   0.473   5.294
 4865POPC   PO463900  37.452   0.474   5.504
 4865POPC   GL163901  37.644   0.285   5.827
 4865POPC   GL263902  37.940   0.133   5.688
 4865POPC   C1A63903  37.785   0.488   6.201
 4865POPC   D2A63904  37.976   0.533   6.619
 4865POPC   C3A63905  37.648   0.453   6.948
 4865POPC   C4A63906  37.686   0.442   7.397
 4865POPC   C1B63907  38.106   0.085   6.109
 4865POPC   C2B63908  38.175   0.012   6.569
 4865POPC   C3B63909  38.068   0.165   6.995
 4865POPC   C4B63910  37.969   0.023   7.425
 4866POPC   NC363911   6.481   5.881   5.467
 4866POPC   PO463912   7.203   6.047   5.372
 4866POPC   GL163913   6.895   5.989   5.740
 4866POPC   GL263914   6.724   5.674   5.872
 4866POPC   C1A63915   6.684   6.176   6.098
 4866POPC   D2A63916   6.788   6.103   6.537
 4866POPC   C3A63917   6.697   6.214   6.935
 4866POPC   C4A63918   6.866   6.172   7.354
 4866POPC   C1B63919   6.545   5.720   6.304
 4866POPC   C2B63920   6.453   5.778   6.763
 4866POPC   C3B63921   6.584   5.752   7.212
 4866POPC   C4B63922   6.454   5.782   7.644
 4867POPC   NC363923  41.927  30.806   5.345
 4867POPC   PO463924  41.291  30.844   5.572
 4867POPC   GL163925  41.547  30.516   5.756
 4867POPC   GL263926  41.843  30.658   5.814
 4867POPC   C1A63927  41.660  30.352   6.166
 4867POPC   D2A63928  41.836  30.574   6.510
 4867POPC   C3A63929  41.553  30.578   6.844
 4867POPC   C4A63930  41.618  30.571   7.280
 4867POPC   C1B63931  41.586  30.867   6.175
 4867POPC   C2B63932  41.618  31.038   6.630
 4867POPC   C3B63933  41.802  30.986   7.061
 4867POPC   C4B63934  41.711  30.991   7.546
 4868POPC   NC363935  41.989  32.915   5.130
 4868POPC   PO463936  41.418  32.644   5.363
 4868POPC   GL163937  41.694  32.804   5.684
 4868POPC   GL263938  41.485  33.041   5.851
 4868POPC   C1A63939  41.827  32.800   6.143
 4868POPC   D2A63940  41.612  32.932   6.533
 4868POPC   C3A63941  41.637  32.698   6.909
 4868POPC   C4A63942  41.905  32.881   7.239
 4868POPC   C1B63943  41.241  33.123   6.233
 4868POPC   C2B63944  41.202  33.246   6.668
 4868POPC   C3B63945  41.484  33.189   7.008
 4868POPC   C4B63946  41.533  33.347   7.438
 4869POPC   NC363947  34.347   4.946   5.593
 4869POPC   PO463948  33.824   5.155   5.272
 4869POPC   GL163949  33.810   4.999   5.713
 4869POPC   GL263950  33.722   5.298   5.884
 4869POPC   C1A63951  33.844   4.815   6.152
 4869POPC   D2A63952  33.804   4.984   6.573
 4869POPC   C3A63953  33.804   4.768   6.929
 4869POPC   C4A63954  33.886   4.812   7.332
 4869POPC   C1B63955  34.041   5.310   6.242
 4869POPC   C2B63956  33.959   5.444   6.704
 4869POPC   C3B63957  33.779   5.273   7.080
 4869POPC   C4B63958  33.983   5.293   7.475
 4870POPC   NC363959  41.588  37.930   5.565
 4870POPC   PO463960  41.541  37.339   5.156
 4870POPC   GL163961  41.614  37.407   5.653
 4870POPC   GL263962  41.378  37.587   5.878
 4870POPC   C1A63963  41.667  37.279   6.149
 4870POPC   D2A63964  41.426  37.444   6.538
 4870POPC   C3A63965  41.563  37.544   6.969
 4870POPC   C4A63966  41.345  37.505   7.359
 4870POPC   C1B63967  41.693  37.780   6.192
 4870POPC   C2B63968  41.700  37.921   6.610
 4870POPC   C3B63969  41.389  38.044   6.894
 4870POPC   C4B63970  41.545  38.168   7.278
 4871POPC   NC363971  14.926  42.884   5.524
 4871POPC   PO463972  15.248  42.343   5.361
 4871POPC   GL163973  15.208  42.264   5.785
 4871POPC   GL263974  15.278  42.620   5.811
 4871POPC   C1A63975  15.027  42.088   6.186
 4871POPC   D2A63976  15.149  41.950   6.625
 4871POPC   C3A63977  15.015  42.098   7.033
 4871POPC   C4A63978  15.226  42.230   7.429
 4871POPC   C1B63979  15.172  42.585   6.238
 4871POPC   C2B63980  14.997  42.480   6.643
 4871POPC   C3B63981  15.249  42.589   7.032
 4871POPC   C4B63982  15.413  42.690   7.467
 4872POPC   NC363983  19.856  41.074   5.454
 4872POPC   PO463984  20.040  40.390   5.424
 4872POPC   GL163985  20.010  40.672   5.784
 4872POPC   GL263986  19.670  40.766   5.848
 4872POPC   C1A63987  19.997  40.840   6.226
 4872POPC   D2A63988  19.637  40.853   6.529
 4872POPC   C3A63989  19.760  40.542   6.824
 4872POPC   C4A63990  19.988  40.592   7.161
 4872POPC   C1B63991  19.633  41.179   6.082
 4872POPC   C2B63992  19.884  41.305   6.456
 4872POPC   C3B63993  19.711  41.293   6.876
 4872POPC   C4B63994  19.584  40.935   7.102
 4873POPC   NC363995  30.159  40.137   5.382
 4873POPC   PO463996  29.740  39.629   5.333
 4873POPC   GL163997  29.806  39.837   5.779
 4873POPC   GL263998  30.150  39.999   5.876
 4873POPC   C1A63999  29.799  39.989   6.239
 4873POPC   D2A64000  29.705  39.843   6.675
 4873POPC   C3A64001  29.482  40.114   6.963
 4873POPC   C4A64002  29.572  40.284   7.366
 4873POPC   C1B64003  30.209  40.397   6.169
 4873POPC   C2B64004  30.115  40.552   6.626
 4873POPC   C3B64005  30.012  40.200   6.933
 4873POPC   C4B64006  30.244  39.939   7.196
 4874POPC   NC364007  11.403  11.593   5.443
 4874POPC   PO464008  11.164  12.233   5.339
 4874POPC   GL164009  11.317  12.027   5.736
 4874POPC   GL264010  11.074  11.740   5.791
 4874POPC   C1A64011  11.565  12.115   6.156
 4874POPC   D2A64012  11.593  12.312   6.571
 4874POPC   C3A64013  11.442  12.132   6.959
 4874POPC   C4A64014  11.045  12.238   7.177
 4874POPC   C1B64015  11.399  11.645   6.090
 4874POPC   C2B64016  11.617  11.709   6.484
 4874POPC   C3B64017  11.465  11.591   6.888
 4874POPC   C4B64018  11.330  11.753   7.279
 4875POPC   NC364019   8.781  35.730   5.345
 4875POPC   PO464020   8.875  36.435   5.302
 4875POPC   GL164021   8.912  36.230   5.711
 4875POPC   GL264022   9.204  36.373   5.877
 4875POPC   C1A64023   8.970  35.941   6.089
 4875POPC   D2A64024   9.073  35.835   6.534
 4875POPC   C3A64025   8.825  35.842   6.890
 4875POPC   C4A64026   8.790  36.083   7.248
 4875POPC   C1B64027   9.180  36.695   6.170
 4875POPC   C2B64028   8.957  36.724   6.561
 4875POPC   C3B64029   8.913  36.535   6.974
 4875POPC   C4B64030   9.174  36.627   7.329
 4876POPC   NC364031  17.721  31.196   5.353
 4876POPC   PO464032  17.356  30.541   5.208
 4876POPC   GL164033  17.648  30.709   5.591
 4876POPC   GL264034  17.469  30.990   5.771
 4876POPC   C1A64035  17.790  30.709   6.075
 4876POPC   D2A64036  17.805  30.897   6.534
 4876POPC   C3A64037  17.572  30.717   6.884
 4876POPC   C4A64038  17.656  30.473   7.263
 4876POPC   C1B64039  17.526  31.172   6.212
 4876POPC   C2B64040  17.431  31.213   6.671
 4876POPC   C3B64041  17.389  31.153   7.106
 4876POPC   C4B64042  17.262  30.788   7.308
 4877POPC   NC364043  24.085   4.542   5.486
 4877POPC   PO464044  23.837   3.941   5.615
 4877POPC   GL164045  24.006   4.237   5.922
 4877POPC   GL264046  23.869   4.539   6.004
 4877POPC   C1A64047  24.034   4.304   6.410
 4877POPC   D2A64048  23.724   4.306   6.722
 4877POPC   C3A64049  23.826   4.225   7.136
 4877POPC   C4A64050  23.520   4.155   7.449
 4877POPC   C1B64051  23.530   4.601   6.325
 4877POPC   C2B64052  23.282   4.599   6.733
 4877POPC   C3B64053  23.479   4.592   7.166
 4877POPC   C4B64054  23.433   4.742   7.618
 4878POPC   NC364055  38.793  44.496   5.587
 4878POPC   PO464056  38.188  44.817   5.336
 4878POPC   GL164057  38.281  44.613   5.734
 4878POPC   GL264058  37.950  44.635   5.833
 4878POPC   C1A64059  38.499  44.579   6.157
 4878POPC   D2A64060  38.383  44.465   6.598
 4878POPC   C3A64061  38.681  44.516   6.929
 4878POPC   C4A64062  38.699  44.724   7.341
 4878POPC   C1B64063  38.013  44.620   6.262
 4878POPC   C2B64064  37.886  44.591   6.664
 4878POPC   C3B64065  38.114  44.639   7.070
 4878POPC   C4B64066  38.236  44.600   7.529
 4879POPC   NC364067  14.877  19.955   5.477
 4879POPC   PO464068  14.399  19.511   5.235
 4879POPC   GL164069  14.395  19.574   5.732
 4879POPC   GL264070  14.739  19.627   5.869
 4879POPC   C1A64071  14.254  19.867   6.107
 4879POPC   D2A64072  14.321  19.966   6.578
 4879POPC   C3A64073  14.163  19.778   7.043
 4879POPC   C4A64074  14.293  19.483   7.472
 4879POPC   C1B64075  14.752  20.007   6.194
 4879POPC   C2B64076  14.749  20.232   6.633
 4879POPC   C3B64077  14.532  20.125   7.022
 4879POPC   C4B64078  14.504  19.933   7.427
 4880POPC   NC364079  25.963   7.632   5.251
 4880POPC   PO464080  26.207   7.055   5.067
 4880POPC   GL164081  25.974   7.299   5.605
 4880POPC   GL264082  26.071   7.643   5.747
 4880POPC   C1A64083  26.064   7.243   6.099
 4880POPC   D2A64084  26.066   6.977   6.485
 4880POPC   C3A64085  26.160   7.187   6.880
 4880POPC   C4A64086  26.045   7.279   7.285
 4880POPC   C1B64087  25.983   7.752   6.181
 4880POPC   C2B64088  25.823   7.500   6.516
 4880POPC   C3B64089  25.833   7.601   6.933
 4880POPC   C4B64090  26.189   7.762   7.074
 4881POPC   NC364091  43.632  23.002   5.395
 4881POPC   PO464092  44.033  22.523   5.043
 4881POPC   GL164093  44.044  22.623   5.581
 4881POPC   GL264094  44.022  22.977   5.739
 4881POPC   C1A64095  44.030  22.585   6.059
 4881POPC   D2A64096  44.140  22.886   6.410
 4881POPC   C3A64097  44.004  22.806   6.846
 4881POPC   C4A64098  44.085  22.885   7.299
 4881POPC   C1B64099  43.760  23.137   6.120
 4881POPC   C2B64100  43.691  23.110   6.578
 4881POPC   C3B64101  43.770  23.215   7.036
 4881POPC   C4B64102  43.745  23.195   7.498
 4882POPC   NC364103   4.989   3.749   5.551
 4882POPC   PO464104   5.568   3.348   5.512
 4882POPC   GL164105   5.391   3.550   5.870
 4882POPC   GL264106   5.034   3.434   5.955
 4882POPC   C1A64107   5.358   3.575   6.325
 4882POPC   D2A64108   5.063   3.616   6.646
 4882POPC   C3A64109   5.179   3.423   7.009
 4882POPC   C4A64110   5.516   3.480   7.308
 4882POPC   C1B64111   4.792   3.731   6.226
 4882POPC   C2B64112   4.540   3.785   6.615
 4882POPC   C3B64113   4.741   3.731   7.021
 4882POPC   C4B64114   5.053   3.789   7.351
 4883POPC   NC364115  39.830   4.701   5.560
 4883POPC   PO464116  39.677   4.052   5.610
 4883POPC   GL164117  39.969   4.297   5.845
 4883POPC   GL264118  39.754   4.530   6.053
 4883POPC   C1A64119  40.239   4.431   6.192
 4883POPC   D2A64120  40.277   4.243   6.609
 4883POPC   C3A64121  40.118   4.414   6.998
 4883POPC   C4A64122  40.199   4.512   7.443
 4883POPC   C1B64123  39.836   4.115   6.302
 4883POPC   C2B64124  39.708   3.749   6.540
 4883POPC   C3B64125  39.543   3.776   6.948
 4883POPC   C4B64126  39.615   4.057   7.278
 4884POPC   NC364127  41.898  44.076   5.792
 4884POPC   PO464128  42.199  43.467   5.586
 4884POPC   GL164129  42.516  43.664   5.845
 4884POPC   GL264130  42.414  44.005   5.807
 4884POPC   C1A64131  42.646  43.758   6.265
 4884POPC   D2A64132  42.442  43.554   6.644
 4884POPC   C3A64133  42.499  43.658   7.072
 4884POPC   C4A64134  42.165  43.846   7.312
 4884POPC   C1B64135  42.450  44.259   6.176
 4884POPC   C2B64136  42.526  44.172   6.593
 4884POPC   C3B64137  42.463  44.163   7.013
 4884POPC   C4B64138  42.528  44.165   7.471
 4885POPC   NC364139  39.231   4.033   5.402
 4885POPC   PO464140  39.361   4.667   5.526
 4885POPC   GL164141  39.320   4.366   5.803
 4885POPC   GL264142  39.006   4.297   5.850
 4885POPC   C1A64143  39.343   4.262   6.225
 4885POPC   D2A64144  39.532   4.451   6.572
 4885POPC   C3A64145  39.340   4.284   6.920
 4885POPC   C4A64146  39.231   4.482   7.296
 4885POPC   C1B64147  38.926   4.613   6.166
 4885POPC   C2B64148  38.734   4.632   6.587
 4885POPC   C3B64149  38.835   4.412   6.951
 4885POPC   C4B64150  38.968   4.054   7.225
 4886POPC   NC364151  35.239  19.004   5.342
 4886POPC   PO464152  35.044  18.538   5.580
 4886POPC   GL164153  35.306  18.855   5.843
 4886POPC   GL264154  35.383  19.205   5.787
 4886POPC   C1A64155  35.455  18.980   6.276
 4886POPC   D2A64156  35.300  18.874   6.696
 4886POPC   C3A64157  35.417  19.148   7.047
 4886POPC   C4A64158  35.441  19.077   7.488
 4886POPC   C1B64159  35.077  19.271   6.121
 4886POPC   C2B64160  35.165  19.343   6.564
 4886POPC   C3B64161  34.955  19.335   6.964
 4886POPC   C4B64162  34.997  19.353   7.417
 4887POPC   NC364163   5.129  14.831   5.409
 4887POPC   PO464164   4.954  15.492   5.410
 4887POPC   GL164165   5.032  15.216   5.741
 4887POPC   GL264166   4.713  15.234   5.830
 4887POPC   C1A64167   5.229  15.062   6.146
 4887POPC   D2A64168   5.048  15.166   6.548
 4887POPC   C3A64169   5.201  15.245   6.960
 4887POPC   C4A64170   5.249  15.093   7.377
 4887POPC   C1B64171   4.659  15.366   6.266
 4887POPC   C2B64172   4.725  15.566   6.701
 4887POPC   C3B64173   4.798  15.606   7.162
 4887POPC   C4B64174   4.840  15.452   7.595
 4888POPC   NC364175  24.575  40.976   5.347
 4888POPC   PO464176  24.761  40.519   5.675
 4888POPC   GL164177  24.418  40.608   5.949
 4888POPC   GL264178  24.086  40.456   5.918
 4888POPC   C1A64179  24.509  40.845   6.331
 4888POPC   D2A64180  24.763  40.815   6.717
 4888POPC   C3A64181  24.581  41.026   7.059
 4888POPC   C4A64182  24.459  40.935   7.481
 4888POPC   C1B64183  24.112  40.363   6.339
 4888POPC   C2B64184  24.355  40.489   6.693
 4888POPC   C3B64185  24.346  40.551   7.138
 4888POPC   C4B64186  24.186  40.541   7.574
 4889POPC   NC364187   6.910   0.358   5.500
 4889POPC   PO464188   6.420   0.797   5.465
 4889POPC   GL164189   6.606   0.610   5.821
 4889POPC   GL264190   6.362   0.529   5.995
 4889POPC   C1A64191   6.858   0.469   6.177
 4889POPC   D2A64192   6.847   0.256   6.572
 4889POPC   C3A64193   6.700   0.499   6.919
 4889POPC   C4A64194   6.884   0.312   7.251
 4889POPC   C1B64195   6.407   0.521   6.457
 4889POPC   C2B64196   6.341   0.168   6.717
 4889POPC   C3B64197   6.425   0.138   7.165
 4889POPC   C4B64198   6.504   0.403   7.572
 4890POPC   NC364199  38.036  21.032   5.425
 4890POPC   PO464200  37.547  20.527   5.460
 4890POPC   GL164201  37.756  20.504   5.874
 4890POPC   GL264202  37.971  20.798   5.916
 4890POPC   C1A64203  37.842  20.413   6.324
 4890POPC   D2A64204  37.985  20.658   6.695
 4890POPC   C3A64205  37.795  20.585   7.069
 4890POPC   C4A64206  37.370  20.496   7.170
 4890POPC   C1B64207  37.686  20.896   6.288
 4890POPC   C2B64208  37.464  20.798   6.698
 4890POPC   C3B64209  37.515  21.003   7.111
 4890POPC   C4B64210  37.730  21.035   7.491
 4891POPC   NC364211  14.680  43.496   5.288
 4891POPC   PO464212  14.129  43.916   5.311
 4891POPC   GL164213  14.394  44.045   5.683
 4891POPC   GL264214  14.617  43.759   5.859
 4891POPC   C1A64215  14.361  44.126   6.140
 4891POPC   D2A64216  14.657  43.992   6.487
 4891POPC   C3A64217  14.426  43.816   6.843
 4891POPC   C4A64218  14.198  44.018   7.183
 4891POPC   C1B64219  14.353  43.621   6.261
 4891POPC   C2B64220  14.097  43.482   6.637
 4891POPC   C3B64221  14.103  43.482   7.092
 4891POPC   C4B64222  14.443  43.601   7.330
 4892POPC   NC364223  24.573   9.228   5.331
 4892POPC   PO464224  24.959   8.663   5.562
 4892POPC   GL164225  24.719   8.983   5.742
 4892POPC   GL264226  24.410   8.957   5.806
 4892POPC   C1A64227  24.697   9.148   6.155
 4892POPC   D2A64228  24.785   8.926   6.510
 4892POPC   C3A64229  24.630   9.077   6.893
 4892POPC   C4A64230  24.244   9.247   6.978
 4892POPC   C1B64231  24.444   8.704   6.186
 4892POPC   C2B64232  24.363   8.680   6.651
 4892POPC   C3B64233  24.270   8.737   7.097
 4892POPC   C4B64234  24.290   8.516   7.507
 4893POPC   NC364235  16.465  23.294   5.431
 4893POPC   PO464236  16.879  22.734   5.466
 4893POPC   GL164237  16.771  22.853   5.893
 4893POPC   GL264238  16.667  23.182   5.888
 4893POPC   C1A64239  16.642  22.935   6.350
 4893POPC   D2A64240  16.810  22.701   6.713
 4893POPC   C3A64241  16.729  22.811   7.147
 4893POPC   C4A64242  16.471  22.963   7.488
 4893POPC   C1B64243  16.973  23.315   6.211
 4893POPC   C2B64244  17.022  23.493   6.638
 4893POPC   C3B64245  17.035  23.230   6.998
 4893POPC   C4B64246  16.895  23.220   7.446
 4894POPC   NC364247   6.087   9.542   5.477
 4894POPC   PO464248   5.581  10.029   5.418
 4894POPC   GL164249   5.816   9.852   5.772
 4894POPC   GL264250   6.141  10.013   5.813
 4894POPC   C1A64251   5.973   9.676   6.175
 4894POPC   D2A64252   5.921   9.824   6.590
 4894POPC   C3A64253   5.784   9.577   6.922
 4894POPC   C4A64254   5.625   9.777   7.266
 4894POPC   C1B64255   6.367  10.064   6.233
 4894POPC   C2B64256   6.310  10.129   6.696
 4894POPC   C3B64257   6.134   9.944   7.084
 4894POPC   C4B64258   6.058   9.881   7.531
 4895POPC   NC364259   0.980  24.780   5.066
 4895POPC   PO464260   0.393  24.540   5.283
 4895POPC   GL164261   0.345  24.499   5.746
 4895POPC   GL264262   0.295  24.809   5.918
 4895POPC   C1A64263   0.323  24.388   6.223
 4895POPC   D2A64264   0.381  24.141   6.595
 4895POPC   C3A64265   0.510  24.216   6.992
 4895POPC   C4A64266   0.354  24.371   7.327
 4895POPC   C1B64267   0.542  24.846   6.317
 4895POPC   C2B64268   0.485  24.665   6.736
 4895POPC   C3B64269   0.232  24.798   7.096
 4895POPC   C4B64270   0.184  24.824   7.562
 4896POPC   NC364271   2.169  27.993   5.499
 4896POPC   PO464272   1.868  28.675   5.452
 4896POPC   GL164273   2.047  28.419   5.783
 4896POPC   GL264274   1.762  28.220   5.732
 4896POPC   C1A64275   2.042  28.529   6.230
 4896POPC   D2A64276   1.958  28.763   6.581
 4896POPC   C3A64277   2.017  28.518   6.886
 4896POPC   C4A64278   2.201  28.534   7.235
 4896POPC   C1B64279   1.615  28.232   6.136
 4896POPC   C2B64280   1.775  28.183   6.555
 4896POPC   C3B64281   1.811  28.063   6.985
 4896POPC   C4B64282   1.567  28.064   7.340
 4897POPC   NC364283   2.006  16.994   5.411
 4897POPC   PO464284   2.231  17.646   5.406
 4897POPC   GL164285   2.121  17.402   5.788
 4897POPC   GL264286   1.785  17.220   5.833
 4897POPC   C1A64287   1.921  17.519   6.199
 4897POPC   D2A64288   1.746  17.632   6.575
 4897POPC   C3A64289   2.076  17.595   6.858
 4897POPC   C4A64290   2.140  17.285   7.093
 4897POPC   C1B64291   1.676  17.069   6.299
 4897POPC   C2B64292   1.656  17.165   6.767
 4897POPC   C3B64293   1.620  17.518   7.083
 4897POPC   C4B64294   1.714  17.571   7.517
 4898POPC   NC364295  10.059  43.760   5.306
 4898POPC   PO464296  10.683  43.668   5.288
 4898POPC   GL164297  10.512  43.704   5.704
 4898POPC   GL264298  10.866  43.631   5.807
 4898POPC   C1A64299  10.462  43.878   6.144
 4898POPC   D2A64300  10.539  44.141   6.536
 4898POPC   C3A64301  10.374  43.971   6.940
 4898POPC   C4A64302  10.298  43.553   7.036
 4898POPC   C1B64303  10.971  43.750   6.239
 4898POPC   C2B64304  10.754  43.638   6.635
 4898POPC   C3B64305  10.853  43.787   7.044
 4898POPC   C4B64306  10.714  44.102   7.316
 4899POPC   NC364307  23.109  43.743   5.310
 4899POPC   PO464308  23.193  42.975   5.304
 4899POPC   GL164309  22.890  42.928   5.638
 4899POPC   GL264310  22.904  43.270   5.741
 4899POPC   C1A64311  22.839  42.917   6.085
 4899POPC   D2A64312  22.771  43.162   6.444
 4899POPC   C3A64313  22.906  42.925   6.830
 4899POPC   C4A64314  22.888  43.010   7.269
 4899POPC   C1B64315  23.198  43.301   6.134
 4899POPC   C2B64316  23.225  43.283   6.612
 4899POPC   C3B64317  23.294  43.259   7.096
 4899POPC   C4B64318  23.249  43.374   7.579
 4900POPC   NC364319  21.637  28.816   5.290
 4900POPC   PO464320  21.559  28.224   5.301
 4900POPC   GL164321  21.484  28.489   5.719
 4900POPC   GL264322  21.121  28.446   5.793
 4900POPC   C1A64323  21.398  28.552   6.221
 4900POPC   D2A64324  21.229  28.276   6.581
 4900POPC   C3A64325  21.446  28.221   6.991
 4900POPC   C4A64326  21.666  28.472   7.300
 4900POPC   C1B64327  20.870  28.616   6.180
 4900POPC   C2B64328  21.027  28.731   6.599
 4900POPC   C3B64329  21.356  28.707   6.903
 4900POPC   C4B64330  21.121  28.536   7.253
 4901POPC   NC364331  20.147  39.917   5.350
 4901POPC   PO464332  19.503  39.921   5.494
 4901POPC   GL164333  19.613  40.006   5.918
 4901POPC   GL264334  19.923  40.166   5.865
 4901POPC   C1A64335  19.843  39.893   6.327
 4901POPC   D2A64336  20.091  40.169   6.607
 4901POPC   C3A64337  19.978  40.100   7.028
 4901POPC   C4A64338  19.762  39.791   7.279
 4901POPC   C1B64339  19.755  40.387   6.241
 4901POPC   C2B64340  19.508  40.178   6.587
 4901POPC   C3B64341  19.438  40.136   7.040
 4901POPC   C4B64342  19.444  40.108   7.525
 4902POPC   NC364343   2.052  42.131   5.436
 4902POPC   PO464344   1.924  42.703   5.663
 4902POPC   GL164345   2.104  42.438   5.934
 4902POPC   GL264346   1.869  42.167   5.948
 4902POPC   C1A64347   2.140  42.548   6.374
 4902POPC   D2A64348   2.325  42.637   6.801
 4902POPC   C3A64349   2.141  42.388   7.105
 4902POPC   C4A64350   2.123  42.294   7.508
 4902POPC   C1B64351   1.613  42.486   6.178
 4902POPC   C2B64352   1.650  42.649   6.582
 4902POPC   C3B64353   1.664  42.457   6.967
 4902POPC   C4B64354   1.654  42.170   7.306
 4903POPC   NC364355   5.242  33.459   5.387
 4903POPC   PO464356   5.179  32.827   5.208
 4903POPC   GL164357   5.123  32.984   5.654
 4903POPC   GL264358   4.797  32.885   5.811
 4903POPC   C1A64359   5.178  33.004   6.133
 4903POPC   D2A64360   5.381  33.288   6.402
 4903POPC   C3A64361   5.353  33.185   6.839
 4903POPC   C4A64362   5.314  33.243   7.270
 4903POPC   C1B64363   4.693  32.972   6.264
 4903POPC   C2B64364   4.657  33.123   6.705
 4903POPC   C3B64365   4.890  33.022   7.077
 4903POPC   C4B64366   4.868  32.747   7.483
 4904POPC   NC364367  37.533  31.694   5.286
 4904POPC   PO464368  37.966  31.223   5.482
 4904POPC   GL164369  37.838  31.633   5.702
 4904POPC   GL264370  37.622  31.471   5.904
 4904POPC   C1A64371  37.910  31.768   6.173
 4904POPC   D2A64372  37.900  31.363   6.426
 4904POPC   C3A64373  37.897  31.361   6.894
 4904POPC   C4A64374  37.790  31.414   7.366
 4904POPC   C1B64375  37.404  31.277   6.238
 4904POPC   C2B64376  37.453  31.182   6.669
 4904POPC   C3B64377  37.392  31.406   7.026
 4904POPC   C4B64378  37.290  31.215   7.367
 4905POPC   NC364379   6.423   4.181   5.422
 4905POPC   PO464380   6.906   4.576   5.488
 4905POPC   GL164381   6.639   4.438   5.846
 4905POPC   GL264382   6.655   4.091   5.861
 4905POPC   C1A64383   6.525   4.305   6.299
 4905POPC   D2A64384   6.432   4.131   6.707
 4905POPC   C3A64385   6.557   4.385   7.080
 4905POPC   C4A64386   6.546   4.410   7.567
 4905POPC   C1B64387   6.844   3.899   6.194
 4905POPC   C2B64388   6.892   3.916   6.609
 4905POPC   C3B64389   6.772   3.908   7.041
 4905POPC   C4B64390   6.386   3.961   7.303
 4906POPC   NC364391  16.925  17.882   5.406
 4906POPC   PO464392  16.698  18.578   5.348
 4906POPC   GL164393  16.663  18.396   5.758
 4906POPC   GL264394  17.006  18.281   5.708
 4906POPC   C1A64395  16.538  18.250   6.204
 4906POPC   D2A64396  16.705  18.080   6.639
 4906POPC   C3A64397  16.423  18.040   7.041
 4906POPC   C4A64398  16.509  18.191   7.473
 4906POPC   C1B64399  17.048  18.271   6.160
 4906POPC   C2B64400  17.270  18.093   6.533
 4906POPC   C3B64401  17.189  17.854   6.903
 4906POPC   C4B64402  16.900  18.076   7.158
 4907POPC   NC364403   7.637   1.764   5.515
 4907POPC   PO464404   8.059   2.177   5.078
 4907POPC   GL164405   8.251   1.972   5.556
 4907POPC   GL264406   8.048   1.801   5.779
 4907POPC   C1A64407   8.426   1.975   6.045
 4907POPC   D2A64408   8.337   1.778   6.482
 4907POPC   C3A64409   8.406   2.052   6.854
 4907POPC   C4A64410   8.378   2.031   7.291
 4907POPC   C1B64411   7.907   1.909   6.200
 4907POPC   C2B64412   7.738   1.750   6.572
 4907POPC   C3B64413   7.982   1.752   6.947
 4907POPC   C4B64414   7.877   1.943   7.328
 4908POPC   NC364415  41.643  21.716   5.454
 4908POPC   PO464416  41.201  22.264   5.418
 4908POPC   GL164417  41.308  22.237   5.848
 4908POPC   GL264418  41.262  22.568   5.991
 4908POPC   C1A64419  41.645  22.238   6.155
 4908POPC   D2A64420  41.536  22.205   6.587
 4908POPC   C3A64421  41.517  21.891   6.891
 4908POPC   C4A64422  41.104  21.756   7.027
 4908POPC   C1B64423  41.493  22.688   6.373
 4908POPC   C2B64424  41.516  22.637   6.820
 4908POPC   C3B64425  41.475  22.345   7.143
 4908POPC   C4B64426  41.834  22.177   7.356
 4909POPC   NC364427  32.664  44.033   5.572
 4909POPC   PO464428  33.250  43.730   5.328
 4909POPC   GL164429  33.021  43.759   5.822
 4909POPC   GL264430  33.094  44.064   6.044
 4909POPC   C1A64431  32.678  43.898   6.241
 4909POPC   D2A64432  32.764  44.159   6.681
 4909POPC   C3A64433  32.808  43.911   7.086
 4909POPC   C4A64434  33.039  43.680   7.434
 4909POPC   C1B64435  33.365  43.864   6.358
 4909POPC   C2B64436  33.552  44.038   6.728
 4909POPC   C3B64437  33.367  44.032   7.151
 4909POPC   C4B64438  33.516  43.923   7.563
 4910POPC   NC364439  40.929  15.301   5.484
 4910POPC   PO464440  40.267  15.158   5.316
 4910POPC   GL164441  40.532  15.067   5.696
 4910POPC   GL264442  40.558  15.380   5.877
 4910POPC   C1A64443  40.767  14.947   6.076
 4910POPC   D2A64444  40.686  15.184   6.468
 4910POPC   C3A64445  40.881  15.135   6.881
 4910POPC   C4A64446  40.729  15.097   7.329
 4910POPC   C1B64447  40.956  15.458   6.128
 4910POPC   C2B64448  41.008  15.596   6.561
 4910POPC   C3B64449  41.172  15.636   6.966
 4910POPC   C4B64450  41.177  15.334   7.277
 4911POPC   NC364451   9.224  34.326   5.325
 4911POPC   PO464452   8.645  34.631   5.344
 4911POPC   GL164453   8.730  34.670   5.758
 4911POPC   GL264454   9.093  34.695   5.739
 4911POPC   C1A64455   8.708  34.469   6.148
 4911POPC   D2A64456   8.848  34.608   6.543
 4911POPC   C3A64457   8.894  34.402   6.943
 4911POPC   C4A64458   8.915  34.567   7.358
 4911POPC   C1B64459   9.051  34.880   6.139
 4911POPC   C2B64460   9.201  34.987   6.522
 4911POPC   C3B64461   9.261  34.751   6.850
 4911POPC   C4B64462   9.235  34.923   7.217
 4912POPC   NC364463  29.214  35.685   5.309
 4912POPC   PO464464  28.932  35.098   5.445
 4912POPC   GL164465  29.254  35.312   5.739
 4912POPC   GL264466  29.307  35.664   5.820
 4912POPC   C1A64467  29.323  35.322   6.223
 4912POPC   D2A64468  29.460  35.376   6.693
 4912POPC   C3A64469  29.451  35.104   7.099
 4912POPC   C4A64470  29.189  35.101   7.490
 4912POPC   C1B64471  29.063  35.776   6.213
 4912POPC   C2B64472  29.047  35.706   6.694
 4912POPC   C3B64473  29.123  35.479   7.092
 4912POPC   C4B64474  29.285  35.600   7.493
 4913POPC   NC364475  34.672  40.565   5.568
 4913POPC   PO464476  34.420  41.166   5.604
 4913POPC   GL164477  34.810  40.972   5.872
 4913POPC   GL264478  35.090  40.670   5.835
 4913POPC   C1A64479  34.767  40.774   6.307
 4913POPC   D2A64480  34.417  40.682   6.607
 4913POPC   C3A64481  34.457  40.876   7.011
 4913POPC   C4A64482  34.361  40.672   7.389
 4913POPC   C1B64483  35.146  40.420   6.237
 4913POPC   C2B64484  35.002  40.462   6.700
 4913POPC   C3B64485  35.083  40.475   7.150
 4913POPC   C4B64486  34.855  40.802   7.346
 4914POPC   NC364487  10.594   7.062   5.426
 4914POPC   PO464488  10.522   6.385   5.331
 4914POPC   GL164489  10.604   6.588   5.763
 4914POPC   GL264490  10.807   6.902   5.859
 4914POPC   C1A64491  10.660   6.471   6.215
 4914POPC   D2A64492  10.861   6.451   6.647
 4914POPC   C3A64493  10.569   6.432   7.020
 4914POPC   C4A64494  10.515   6.362   7.462
 4914POPC   C1B64495  10.586   6.985   6.266
 4914POPC   C2B64496  10.453   6.763   6.611
 4914POPC   C3B64497  10.293   6.871   6.995
 4914POPC   C4B64498  10.446   6.971   7.360
 4915POPC   NC364499  37.334   0.965   5.457
 4915POPC   PO464500  37.925   0.907   5.216
 4915POPC   GL164501  37.886   1.102   5.675
 4915POPC   GL264502  37.602   1.329   5.734
 4915POPC   C1A64503  37.935   1.311   6.117
 4915POPC   D2A64504  38.005   1.270   6.581
 4915POPC   C3A64505  37.974   1.539   6.935
 4915POPC   C4A64506  37.922   1.376   7.310
 4915POPC   C1B64507  37.521   0.976   6.070
 4915POPC   C2B64508  37.466   0.797   6.492
 4915POPC   C3B64509  37.692   0.953   6.850
 4915POPC   C4B64510  37.585   0.938   7.252
 4916POPC   NC364511  34.294   4.172   5.580
 4916POPC   PO464512  34.697   4.683   5.400
 4916POPC   GL164513  34.767   4.410   5.761
 4916POPC   GL264514  34.497   4.543   5.897
 4916POPC   C1A64515  34.722   4.196   6.177
 4916POPC   D2A64516  34.564   4.060   6.538
 4916POPC   C3A64517  34.554   4.296   6.921
 4916POPC   C4A64518  34.864   4.339   7.293
 4916POPC   C1B64519  34.251   4.434   6.257
 4916POPC   C2B64520  34.225   4.700   6.595
 4916POPC   C3B64521  34.325   4.800   7.000
 4916POPC   C4B64522  34.365   4.528   7.321
 4917POPC   NC364523  22.015  37.343   5.404
 4917POPC   PO464524  22.249  37.935   5.232
 4917POPC   GL164525  22.226  37.925   5.686
 4917POPC   GL264526  22.296  37.612   5.791
 4917POPC   C1A64527  22.326  37.999   6.146
 4917POPC   D2A64528  22.230  38.148   6.575
 4917POPC   C3A64529  22.128  37.845   6.912
 4917POPC   C4A64530  22.046  37.811   7.352
 4917POPC   C1B64531  22.068  37.523   6.198
 4917POPC   C2B64532  21.964  37.364   6.646
 4917POPC   C3B64533  22.127  37.353   7.086
 4917POPC   C4B64534  22.386  37.467   7.442
 4918POPC   NC364535   0.643  28.408   5.298
 4918POPC   PO464536   0.117  28.829   5.559
 4918POPC   GL164537   0.128  28.396   5.761
 4918POPC   GL264538   0.460  28.300   5.777
 4918POPC   C1A64539   0.197  28.264   6.203
 4918POPC   D2A64540   0.370  28.576   6.512
 4918POPC   C3A64541   0.272  28.399   6.919
 4918POPC   C4A64542   0.406  28.514   7.327
 4918POPC   C1B64543   0.693  28.353   6.162
 4918POPC   C2B64544   0.725  28.216   6.590
 4918POPC   C3B64545   0.779  28.378   7.019
 4918POPC   C4B64546   0.764  28.172   7.449
 4919POPC   NC364547  21.405  34.015   5.395
 4919POPC   PO464548  20.833  33.665   5.363
 4919POPC   GL164549  21.036  33.605   5.780
 4919POPC   GL264550  21.419  33.636   5.797
 4919POPC   C1A64551  21.145  33.675   6.232
 4919POPC   D2A64552  21.422  34.005   6.428
 4919POPC   C3A64553  21.404  34.081   6.862
 4919POPC   C4A64554  21.219  33.909   7.216
 4919POPC   C1B64555  21.707  33.640   6.211
 4919POPC   C2B64556  21.697  33.687   6.698
 4919POPC   C3B64557  21.610  33.498   7.098
 4919POPC   C4B64558  21.815  33.333   7.494
 4920POPC   NC364559  34.521  11.176   5.328
 4920POPC   PO464560  34.277  11.640   5.689
 4920POPC   GL164561  34.272  11.214   5.883
 4920POPC   GL264562  34.610  11.075   5.906
 4920POPC   C1A64563  34.301  11.097   6.328
 4920POPC   D2A64564  34.374  11.260   6.799
 4920POPC   C3A64565  34.263  10.992   7.178
 4920POPC   C4A64566  34.340  11.113   7.663
 4920POPC   C1B64567  34.804  11.103   6.354
 4920POPC   C2B64568  34.850  11.049   6.822
 4920POPC   C3B64569  34.736  11.145   7.263
 4920POPC   C4B64570  34.858  11.114   7.720
 4921POPC   NC364571   6.666  22.875   5.255
 4921POPC   PO464572   6.346  23.178   5.385
 4921POPC   GL164573   6.586  23.140   5.767
 4921POPC   GL264574   6.794  22.845   5.814
 4921POPC   C1A64575   6.625  23.132   6.239
 4921POPC   D2A64576   6.756  22.980   6.663
 4921POPC   C3A64577   6.588  23.054   7.077
 4921POPC   C4A64578   6.490  23.343   7.412
 4921POPC   C1B64579   6.918  22.694   6.258
 4921POPC   C2B64580   6.888  22.488   6.698
 4921POPC   C3B64581   6.818  22.554   7.165
 4921POPC   C4B64582   6.696  22.525   7.622
 4922POPC   NC364583  29.688  12.369   5.416
 4922POPC   PO464584  30.117  11.826   5.279
 4922POPC   GL164585  29.993  11.933   5.694
 4922POPC   GL264586  29.985  12.267   5.825
 4922POPC   C1A64587  29.935  11.904   6.145
 4922POPC   D2A64588  30.001  12.228   6.437
 4922POPC   C3A64589  29.730  12.138   6.773
 4922POPC   C4A64590  29.933  11.885   7.091
 4922POPC   C1B64591  29.591  12.330   6.134
 4922POPC   C2B64592  29.313  12.404   6.554
 4922POPC   C3B64593  29.457  12.542   6.971
 4922POPC   C4B64594  29.761  12.350   7.246
 4923POPC   NC364595  31.249  16.597   5.355
 4923POPC   PO464596  31.780  16.542   5.481
 4923POPC   GL164597  31.455  16.516   5.823
 4923POPC   GL264598  31.276  16.819   5.883
 4923POPC   C1A64599  31.374  16.475   6.280
 4923POPC   D2A64600  31.494  16.405   6.737
 4923POPC   C3A64601  31.477  16.768   7.003
 4923POPC   C4A64602  31.180  16.940   7.303
 4923POPC   C1B64603  31.272  16.996   6.332
 4923POPC   C2B64604  31.219  17.141   6.785
 4923POPC   C3B64605  31.502  17.291   7.138
 4923POPC   C4B64606  31.884  17.264   7.400
 4924POPC   NC364607  20.655  33.252   5.540
 4924POPC   PO464608  20.295  33.673   5.089
 4924POPC   GL164609  20.323  33.641   5.556
 4924POPC   GL264610  20.099  33.372   5.598
 4924POPC   C1A64611  20.560  33.754   5.980
 4924POPC   D2A64612  20.704  33.934   6.402
 4924POPC   C3A64613  20.817  33.921   6.876
 4924POPC   C4A64614  20.496  34.031   7.197
 4924POPC   C1B64615  20.269  33.316   6.037
 4924POPC   C2B64616  20.526  33.434   6.398
 4924POPC   C3B64617  20.409  33.630   6.790
 4924POPC   C4B64618  20.612  33.530   7.182
 4925POPC   NC364619  33.215  32.370   5.345
 4925POPC   PO464620  32.608  32.006   5.455
 4925POPC   GL164621  32.745  32.355   5.761
 4925POPC   GL264622  33.112  32.322   5.836
 4925POPC   C1A64623  32.869  32.495   6.225
 4925POPC   D2A64624  33.203  32.316   6.483
 4925POPC   C3A64625  33.274  32.479   6.913
 4925POPC   C4A64626  33.037  32.397   7.269
 4925POPC   C1B64627  32.881  32.002   6.100
 4925POPC   C2B64628  32.721  32.008   6.479
 4925POPC   C3B64629  32.875  32.133   6.854
 4925POPC   C4B64630  32.830  31.887   7.211
 4926POPC   NC364631  13.272  35.287   5.549
 4926POPC   PO464632  13.802  35.179   5.184
 4926POPC   GL164633  13.769  35.223   5.684
 4926POPC   GL264634  13.590  35.556   5.841
 4926POPC   C1A64635  13.581  35.169   6.147
 4926POPC   D2A64636  13.669  35.420   6.542
 4926POPC   C3A64637  13.609  35.258   6.970
 4926POPC   C4A64638  13.847  35.049   7.277
 4926POPC   C1B64639  13.259  35.577   6.226
 4926POPC   C2B64640  13.225  35.658   6.710
 4926POPC   C3B64641  13.528  35.781   7.072
 4926POPC   C4B64642  13.588  35.892   7.548
 4927POPC   NC364643   8.207  42.437   4.989
 4927POPC   PO464644   8.416  41.963   5.242
 4927POPC   GL164645   8.352  42.173   5.696
 4927POPC   GL264646   7.982  42.129   5.858
 4927POPC   C1A64647   8.376  42.222   6.179
 4927POPC   D2A64648   8.221  42.131   6.605
 4927POPC   C3A64649   8.301  42.388   6.962
 4927POPC   C4A64650   8.254  42.719   7.264
 4927POPC   C1B64651   7.848  42.298   6.253
 4927POPC   C2B64652   7.825  42.511   6.628
 4927POPC   C3B64653   7.777  42.275   6.981
 4927POPC   C4B64654   7.908  42.384   7.345
 4928POPC   NC364655  28.805   6.332   5.580
 4928POPC   PO464656  28.496   5.884   5.208
 4928POPC   GL164657  28.438   5.736   5.641
 4928POPC   GL264658  28.715   5.630   5.842
 4928POPC   C1A64659  28.217   5.782   6.045
 4928POPC   D2A64660  28.254   6.058   6.407
 4928POPC   C3A64661  28.110   5.984   6.826
 4928POPC   C4A64662  28.387   5.893   7.187
 4928POPC   C1B64663  28.723   5.850   6.263
 4928POPC   C2B64664  28.584   5.791   6.692
 4928POPC   C3B64665  28.290   5.481   6.871
 4928POPC   C4B64666  28.324   5.369   7.318
 4929POPC   NC364667   7.778  21.607   5.475
 4929POPC   PO464668   7.156  21.285   5.341
 4929POPC   GL164669   7.450  21.309   5.731
 4929POPC   GL264670   7.544  20.992   5.886
 4929POPC   C1A64671   7.730  21.411   6.102
 4929POPC   D2A64672   7.678  21.443   6.534
 4929POPC   C3A64673   7.601  21.505   6.949
 4929POPC   C4A64674   7.290  21.738   7.190
 4929POPC   C1B64675   7.324  21.128   6.283
 4929POPC   C2B64676   7.388  21.079   6.742
 4929POPC   C3B64677   7.212  21.226   7.128
 4929POPC   C4B64678   7.099  21.038   7.487
 4930POPC   NC364679  16.727  15.416   5.399
 4930POPC   PO464680  16.369  14.862   5.405
 4930POPC   GL164681  16.510  15.174   5.784
 4930POPC   GL264682  16.860  15.111   5.807
 4930POPC   C1A64683  16.631  15.407   6.213
 4930POPC   D2A64684  16.491  15.232   6.648
 4930POPC   C3A64685  16.472  15.198   7.146
 4930POPC   C4A64686  16.296  14.948   7.513
 4930POPC   C1B64687  17.106  15.141   6.169
 4930POPC   C2B64688  16.994  15.253   6.549
 4930POPC   C3B64689  16.894  15.416   6.905
 4930POPC   C4B64690  16.972  15.173   7.240
 4931POPC   NC364691  39.502  44.460   5.077
 4931POPC   PO464692  39.003  44.907   5.422
 4931POPC   GL164693  39.229  44.699   5.749
 4931POPC   GL264694  39.484  44.426   5.618
 4931POPC   C1A64695  39.062  44.725   6.195
 4931POPC   D2A64696  39.210  44.916   6.590
 4931POPC   C3A64697  39.174  44.785   7.035
 4931POPC   C4A64698  39.559  44.854   7.283
 4931POPC   C1B64699  39.393  44.344   6.070
 4931POPC   C2B64700  39.338  44.328   6.533
 4931POPC   C3B64701  39.498  44.358   6.972
 4931POPC   C4B64702  39.390  44.386   7.416
 4932POPC   NC364703  40.865   4.896   5.499
 4932POPC   PO464704  40.601   5.573   5.351
 4932POPC   GL164705  40.727   5.311   5.770
 4932POPC   GL264706  40.532   4.980   5.865
 4932POPC   C1A64707  40.862   5.365   6.212
 4932POPC   D2A64708  40.679   5.537   6.610
 4932POPC   C3A64709  40.906   5.431   6.973
 4932POPC   C4A64710  40.774   5.350   7.359
 4932POPC   C1B64711  40.776   4.861   6.230
 4932POPC   C2B64712  40.927   5.051   6.624
 4932POPC   C3B64713  40.810   4.941   7.028
 4932POPC   C4B64714  40.987   4.870   7.391
 4933POPC   NC364715   7.575  31.258   5.312
 4933POPC   PO464716   6.918  31.120   5.460
 4933POPC   GL164717   7.260  31.309   5.736
 4933POPC   GL264718   7.548  31.542   5.736
 4933POPC   C1A64719   7.248  31.494   6.142
 4933POPC   D2A64720   7.171  31.586   6.543
 4933POPC   C3A64721   7.359  31.429   6.889
 4933POPC   C4A64722   7.452  31.582   7.283
 4933POPC   C1B64723   7.744  31.415   6.150
 4933POPC   C2B64724   7.777  31.436   6.596
 4933POPC   C3B64725   7.827  31.301   7.036
 4933POPC   C4B64726   7.849  31.280   7.495
 4934POPC   NC364727  44.956  21.893   5.547
 4934POPC   PO464728  44.500  22.343   5.557
 4934POPC   GL164729  44.515  21.984   5.790
 4934POPC   GL264730  44.230  21.915   5.932
 4934POPC   C1A64731  44.696  21.901   6.173
 4934POPC   D2A64732  44.707  22.112   6.542
 4934POPC   C3A64733  44.754  21.914   6.939
 4934POPC   C4A64734  44.813  22.145   7.318
 4934POPC   C1B64735  44.217  22.129   6.300
 4934POPC   C2B64736  44.086  22.051   6.726
 4934POPC   C3B64737  44.316  22.146   7.057
 4934POPC   C4B64738  44.400  22.488   7.343
 4935POPC   NC364739  42.511  11.457   5.432
 4935POPC   PO464740  42.204  10.896   5.127
 4935POPC   GL164741  42.192  11.043   5.635
 4935POPC   GL264742  42.110  11.411   5.755
 4935POPC   C1A64743  42.383  11.127   6.101
 4935POPC   D2A64744  42.285  11.069   6.538
 4935POPC   C3A64745  42.544  11.191   6.876
 4935POPC   C4A64746  42.440  11.076   7.295
 4935POPC   C1B64747  42.044  11.456   6.232
 4935POPC   C2B64748  42.198  11.614   6.644
 4935POPC   C3B64749  42.213  11.522   7.071
 4935POPC   C4B64750  41.935  11.258   7.229
 4936POPC   NC364751  29.333  41.477   5.337
 4936POPC   PO464752  28.672  41.230   5.443
 4936POPC   GL164753  28.972  41.496   5.716
 4936POPC   GL264754  29.299  41.333   5.821
 4936POPC   C1A64755  29.110  41.703   6.126
 4936POPC   D2A64756  29.034  41.541   6.556
 4936POPC   C3A64757  28.902  41.752   6.928
 4936POPC   C4A64758  29.122  41.569   7.263
 4936POPC   C1B64759  29.527  41.380   6.202
 4936POPC   C2B64760  29.668  41.407   6.615
 4936POPC   C3B64761  29.547  41.260   7.001
 4936POPC   C4B64762  29.580  41.377   7.384
 4937POPC   NC364763  41.886  23.592   5.140
 4937POPC   PO464764  41.393  23.863   5.442
 4937POPC   GL164765  41.510  23.668   5.829
 4937POPC   GL264766  41.662  23.942   6.027
 4937POPC   C1A64767  41.499  23.551   6.278
 4937POPC   D2A64768  41.616  23.728   6.667
 4937POPC   C3A64769  41.667  23.523   7.018
 4937POPC   C4A64770  41.604  23.662   7.436
 4937POPC   C1B64771  41.544  24.140   6.386
 4937POPC   C2B64772  41.788  24.218   6.734
 4937POPC   C3B64773  41.741  24.025   7.106
 4937POPC   C4B64774  41.946  24.045   7.534
 4938POPC   NC364775  22.244  15.274   5.223
 4938POPC   PO464776  22.763  14.817   5.349
 4938POPC   GL164777  22.360  15.052   5.689
 4938POPC   GL264778  22.129  15.367   5.703
 4938POPC   C1A64779  22.060  15.047   6.069
 4938POPC   D2A64780  22.135  14.840   6.435
 4938POPC   C3A64781  22.053  14.959   6.883
 4938POPC   C4A64782  22.046  14.977   7.368
 4938POPC   C1B64783  21.968  15.537   6.101
 4938POPC   C2B64784  22.034  15.340   6.521
 4938POPC   C3B64785  22.222  15.451   6.929
 4938POPC   C4B64786  22.160  15.646   7.339
 4939POPC   NC364787  37.529  16.421   5.388
 4939POPC   PO464788  38.003  16.006   5.287
 4939POPC   GL164789  37.824  16.126   5.721
 4939POPC   GL264790  37.935  15.889   5.938
 4939POPC   C1A64791  37.574  16.192   6.180
 4939POPC   D2A64792  37.695  16.168   6.673
 4939POPC   C3A64793  37.424  16.084   7.040
 4939POPC   C4A64794  37.299  15.721   7.287
 4939POPC   C1B64795  38.043  16.087   6.325
 4939POPC   C2B64796  38.026  15.750   6.650
 4939POPC   C3B64797  37.816  15.735   7.041
 4939POPC   C4B64798  37.898  16.130   7.147
 4940POPC   NC364799  19.587  40.371   5.522
 4940POPC   PO464800  19.400  40.957   5.437
 4940POPC   GL164801  19.190  40.949   5.835
 4940POPC   GL264802  19.197  40.567   5.846
 4940POPC   C1A64803  19.167  41.040   6.306
 4940POPC   D2A64804  19.208  41.154   6.759
 4940POPC   C3A64805  19.073  40.917   7.134
 4940POPC   C4A64806  19.343  40.554   7.309
 4940POPC   C1B64807  19.273  40.547   6.312
 4940POPC   C2B64808  19.260  40.587   6.786
 4940POPC   C3B64809  18.900  40.456   7.052
 4940POPC   C4B64810  18.552  40.734   7.216
 4941POPC   NC364811   4.932   6.617   4.981
 4941POPC   PO464812   5.207   6.580   5.573
 4941POPC   GL164813   5.255   6.508   5.941
 4941POPC   GL264814   4.907   6.396   5.967
 4941POPC   C1A64815   5.288   6.324   6.316
 4941POPC   D2A64816   5.103   6.472   6.594
 4941POPC   C3A64817   5.327   6.721   6.874
 4941POPC   C4A64818   5.284   6.597   7.287
 4941POPC   C1B64819   4.721   6.614   6.275
 4941POPC   C2B64820   4.612   6.460   6.675
 4941POPC   C3B64821   4.846   6.541   7.037
 4941POPC   C4B64822   4.772   6.783   7.413
 4942POPC   NC364823   2.187  38.674   5.025
 4942POPC   PO464824   1.627  38.538   5.384
 4942POPC   GL164825   1.737  38.464   5.855
 4942POPC   GL264826   2.124  38.408   5.924
 4942POPC   C1A64827   1.830  38.561   6.319
 4942POPC   D2A64828   2.162  38.388   6.614
 4942POPC   C3A64829   1.981  38.281   7.011
 4942POPC   C4A64830   1.637  38.406   7.280
 4942POPC   C1B64831   2.255  38.780   6.225
 4942POPC   C2B64832   2.213  38.901   6.679
 4942POPC   C3B64833   2.350  38.827   7.114
 4942POPC   C4B64834   2.362  38.668   7.568
 4943POPC   NC364835  13.890   8.909   5.472
 4943POPC   PO464836  13.293   8.840   5.235
 4943POPC   GL164837  13.440   8.980   5.690
 4943POPC   GL264838  13.138   9.042   5.835
 4943POPC   C1A64839  13.803   9.057   6.062
 4943POPC   D2A64840  14.072   8.915   6.426
 4943POPC   C3A64841  14.005   9.096   6.846
 4943POPC   C4A64842  13.900   8.964   7.270
 4943POPC   C1B64843  13.335   8.821   6.190
 4943POPC   C2B64844  13.328   8.762   6.634
 4943POPC   C3B64845  13.148   8.779   7.035
 4943POPC   C4B64846  13.297   8.991   7.424
 4944POPC   NC364847   2.250  34.805   5.341
 4944POPC   PO464848   1.794  34.344   5.470
 4944POPC   GL164849   1.815  34.385   5.878
 4944POPC   GL264850   2.135  34.563   5.828
 4944POPC   C1A64851   1.807  34.680   6.245
 4944POPC   D2A64852   1.877  34.866   6.661
 4944POPC   C3A64853   1.782  34.557   7.004
 4944POPC   C4A64854   2.043  34.566   7.359
 4944POPC   C1B64855   2.168  34.307   6.233
 4944POPC   C2B64856   2.164  34.402   6.690
 4944POPC   C3B64857   2.304  34.220   7.093
 4944POPC   C4B64858   2.402  34.282   7.583
 4945POPC   NC364859  13.385   0.553   5.517
 4945POPC   PO464860  12.802   0.282   5.377
 4945POPC   GL164861  12.925   0.484   5.763
 4945POPC   GL264862  12.725   0.776   5.795
 4945POPC   C1A64863  12.852   0.444   6.224
 4945POPC   D2A64864  12.589   0.329   6.579
 4945POPC   C3A64865  12.583   0.490   7.016
 4945POPC   C4A64866  12.993   0.337   7.210
 4945POPC   C1B64867  12.991   0.914   6.098
 4945POPC   C2B64868  12.861   0.905   6.501
 4945POPC   C3B64869  12.993   0.657   6.796
 4945POPC   C4B64870  12.964   0.848   7.191
 4946POPC   NC364871   4.989   6.960   5.711
 4946POPC   PO464872   5.225   7.579   5.533
 4946POPC   GL164873   5.185   7.397   5.910
 4946POPC   GL264874   5.412   7.118   5.988
 4946POPC   C1A64875   4.976   7.306   6.290
 4946POPC   D2A64876   5.225   7.322   6.643
 4946POPC   C3A64877   5.009   7.560   6.893
 4946POPC   C4A64878   4.992   7.571   7.318
 4946POPC   C1B64879   5.236   6.874   6.333
 4946POPC   C2B64880   4.889   6.926   6.652
 4946POPC   C3B64881   4.965   7.084   7.058
 4946POPC   C4B64882   5.206   7.086   7.432
 4947POPC   NC364883  30.826  37.790   5.362
 4947POPC   PO464884  30.251  38.181   5.383
 4947POPC   GL164885  30.469  37.878   5.723
 4947POPC   GL264886  30.715  37.562   5.809
 4947POPC   C1A64887  30.516  37.861   6.176
 4947POPC   D2A64888  30.734  37.781   6.576
 4947POPC   C3A64889  30.678  37.905   7.012
 4947POPC   C4A64890  30.647  37.785   7.445
 4947POPC   C1B64891  30.997  37.538   6.210
 4947POPC   C2B64892  31.171  37.533   6.687
 4947POPC   C3B64893  31.051  37.508   7.168
 4947POPC   C4B64894  31.096  37.666   7.621
 4948POPC   NC364895  14.040   0.106   5.666
 4948POPC   PO464896  13.737   0.484   5.196
 4948POPC   GL164897  13.535   0.106   5.644
 4948POPC   GL264898  13.716   0.144   6.018
 4948POPC   C1A64899  13.238   0.117   6.071
 4948POPC   D2A64900  13.143   0.159   6.544
 4948POPC   C3A64901  13.435   0.367   6.831
 4948POPC   C4A64902  13.552   0.524   7.229
 4948POPC   C1B64903  13.697   0.422   6.354
 4948POPC   C2B64904  13.891   0.602   6.708
 4948POPC   C3B64905  13.976   0.286   6.971
 4948POPC   C4B64906  13.900   0.162   7.364
 4949POPC   NC364907  40.475  42.149   5.344
 4949POPC   PO464908  41.155  42.440   5.368
 4949POPC   GL164909  40.856  42.321   5.667
 4949POPC   GL264910  40.840  42.649   5.754
 4949POPC   C1A64911  40.646  42.262   6.062
 4949POPC   D2A64912  40.759  42.191   6.490
 4949POPC   C3A64913  40.642  42.339   6.910
 4949POPC   C4A64914  40.706  42.198   7.321
 4949POPC   C1B64915  41.019  42.589   6.173
 4949POPC   C2B64916  41.344  42.568   6.517
 4949POPC   C3B64917  41.356  42.712   6.962
 4949POPC   C4B64918  40.965  42.643   7.225
 4950POPC   NC364919  31.531   0.829   5.347
 4950POPC   PO464920  31.965   0.270   5.381
 4950POPC   GL164921  31.695   0.437   5.708
 4950POPC   GL264922  31.803   0.788   5.766
 4950POPC   C1A64923  31.485   0.342   6.116
 4950POPC   D2A64924  31.468   0.555   6.526
 4950POPC   C3A64925  31.462   0.381   6.938
 4950POPC   C4A64926  31.140   0.105   7.128
 4950POPC   C1B64927  31.599   0.879   6.124
 4950POPC   C2B64928  31.733   0.998   6.527
 4950POPC   C3B64929  31.537   0.899   6.904
 4950POPC   C4B64930  31.468   0.789   7.298
 4951POPC   NC364931   8.688  21.283   5.497
 4951POPC   PO464932   7.966  21.175   5.482
 4951POPC   GL164933   8.247  21.291   5.781
 4951POPC   GL264934   8.157  21.613   5.874
 4951POPC   C1A64935   8.377  21.185   6.178
 4951POPC   D2A64936   8.161  21.299   6.531
 4951POPC   C3A64937   8.253  21.209   6.955
 4951POPC   C4A64938   7.907  21.206   7.223
 4951POPC   C1B64939   8.460  21.705   6.223
 4951POPC   C2B64940   8.563  21.578   6.667
 4951POPC   C3B64941   8.400  21.692   7.082
 4951POPC   C4B64942   8.218  21.791   7.494
 4952POPC   NC364943  34.409   1.997   5.536
 4952POPC   PO464944  34.949   2.348   5.643
 4952POPC   GL164945  34.660   2.151   5.958
 4952POPC   GL264946  34.240   2.109   5.977
 4952POPC   C1A64947  34.831   2.054   6.350
 4952POPC   D2A64948  34.959   2.171   6.731
 4952POPC   C3A64949  34.856   1.841   6.977
 4952POPC   C4A64950  34.700   1.839   7.354
 4952POPC   C1B64951  34.331   2.151   6.360
 4952POPC   C2B64952  34.445   2.052   6.731
 4952POPC   C3B64953  34.272   1.941   7.109
 4952POPC   C4B64954  34.258   1.585   7.377
 4953POPC   NC364955  23.991  27.512   5.478
 4953POPC   PO464956  23.407  27.699   5.291
 4953POPC   GL164957  23.580  27.639   5.755
 4953POPC   GL264958  23.874  27.856   5.850
 4953POPC   C1A64959  23.812  27.438   6.155
 4953POPC   D2A64960  23.983  27.324   6.593
 4953POPC   C3A64961  23.690  27.424   6.937
 4953POPC   C4A64962  23.550  27.842   6.997
 4953POPC   C1B64963  24.104  27.864   6.246
 4953POPC   C2B64964  23.998  27.835   6.698
 4953POPC   C3B64965  24.057  27.732   7.125
 4953POPC   C4B64966  24.076  27.364   7.402
 4954POPC   NC364967   2.461  33.180   5.113
 4954POPC   PO464968   2.059  32.847   5.577
 4954POPC   GL164969   1.750  32.903   5.887
 4954POPC   GL264970   2.003  33.144   6.045
 4954POPC   C1A64971   1.625  32.962   6.322
 4954POPC   D2A64972   1.932  33.177   6.573
 4954POPC   C3A64973   1.886  33.050   7.002
 4954POPC   C4A64974   1.784  33.051   7.473
 4954POPC   C1B64975   2.314  32.835   6.238
 4954POPC   C2B64976   2.582  32.757   6.591
 4954POPC   C3B64977   2.418  32.793   7.003
 4954POPC   C4B64978   2.256  33.081   7.328
 4955POPC   NC364979  39.473  29.860   5.207
 4955POPC   PO464980  40.107  29.694   5.462
 4955POPC   GL164981  40.037  29.918   5.847
 4955POPC   GL264982  39.964  30.248   5.745
 4955POPC   C1A64983  40.121  29.905   6.294
 4955POPC   D2A64984  39.956  29.798   6.712
 4955POPC   C3A64985  40.180  29.958   7.069
 4955POPC   C4A64986  40.354  29.967   7.468
 4955POPC   C1B64987  39.763  30.271   6.148
 4955POPC   C2B64988  39.939  30.294   6.579
 4955POPC   C3B64989  39.764  30.245   6.977
 4955POPC   C4B64990  39.907  30.322   7.397
 4956POPC   NC364991   2.236  36.512   5.394
 4956POPC   PO464992   1.825  36.007   5.234
 4956POPC   GL164993   1.845  36.066   5.710
 4956POPC   GL264994   1.864  36.399   5.778
 4956POPC   C1A64995   2.082  36.042   6.151
 4956POPC   D2A64996   1.885  36.025   6.603
 4956POPC   C3A64997   2.112  35.963   7.007
 4956POPC   C4A64998   2.103  36.146   7.446
 4956POPC   C1B64999   1.686  36.357   6.220
 4956POPC   C2B65000   1.636  36.461   6.687
 4956POPC   C3B65001   1.797  36.384   7.110
 4956POPC   C4B65002   1.632  36.284   7.553
 4957POPC   NC365003  22.632  39.235   5.317
 4957POPC   PO465004  23.254  38.989   5.321
 4957POPC   GL165005  23.043  39.263   5.689
 4957POPC   GL265006  22.769  39.119   5.808
 4957POPC   C1A65007  22.957  39.491   6.101
 4957POPC   D2A65008  22.902  39.394   6.541
 4957POPC   C3A65009  22.887  39.494   6.990
 4957POPC   C4A65010  22.803  39.313   7.393
 4957POPC   C1B65011  22.672  39.007   6.215
 4957POPC   C2B65012  22.486  39.116   6.575
 4957POPC   C3B65013  22.608  39.036   6.970
 4957POPC   C4B65014  22.443  38.780   7.259
 4958POPC   NC365015   2.023  23.169   5.326
 4958POPC   PO465016   1.756  22.599   5.484
 4958POPC   GL165017   1.959  22.910   5.773
 4958POPC   GL265018   2.223  23.096   5.783
 4958POPC   C1A65019   1.958  22.924   6.212
 4958POPC   D2A65020   2.144  22.837   6.561
 4958POPC   C3A65021   1.937  22.732   6.917
 4958POPC   C4A65022   2.028  22.924   7.296
 4958POPC   C1B65023   2.175  23.350   6.108
 4958POPC   C2B65024   2.199  23.353   6.524
 4958POPC   C3B65025   2.260  23.173   6.906
 4958POPC   C4B65026   2.498  23.154   7.238
 4959POPC   NC365027  26.584   2.416   5.450
 4959POPC   PO465028  26.760   3.079   5.555
 4959POPC   GL165029  26.726   2.765   5.852
 4959POPC   GL265030  26.968   2.487   5.847
 4959POPC   C1A65031  26.798   2.697   6.292
 4959POPC   D2A65032  27.038   2.522   6.614
 4959POPC   C3A65033  26.927   2.771   6.956
 4959POPC   C4A65034  26.728   2.723   7.325
 4959POPC   C1B65035  26.630   2.248   6.091
 4959POPC   C2B65036  26.639   2.180   6.528
 4959POPC   C3B65037  26.615   2.371   6.904
 4959POPC   C4B65038  26.360   2.360   7.224
 4960POPC   NC365039  31.300  38.235   5.482
 4960POPC   PO465040  31.730  38.737   5.506
 4960POPC   GL165041  31.514  38.589   5.899
 4960POPC   GL265042  31.153  38.482   5.880
 4960POPC   C1A65043  31.519  38.285   6.251
 4960POPC   D2A65044  31.628  38.119   6.673
 4960POPC   C3A65045  31.493  38.375   7.026
 4960POPC   C4A65046  31.655  38.393   7.438
 4960POPC   C1B65047  31.084  38.593   6.267
 4960POPC   C2B65048  31.283  38.595   6.615
 4960POPC   C3B65049  31.189  38.786   6.964
 4960POPC   C4B65050  31.225  38.631   7.384
 4961POPC   NC365051   5.491  18.528   5.538
 4961POPC   PO465052   4.888  18.133   5.468
 4961POPC   GL165053   5.094  18.314   5.802
 4961POPC   GL265054   5.375  18.085   5.772
 4961POPC   C1A65055   4.966  18.423   6.235
 4961POPC   D2A65056   4.931  18.210   6.655
 4961POPC   C3A65057   4.881  18.465   6.998
 4961POPC   C4A65058   5.024  18.547   7.432
 4961POPC   C1B65059   5.472  18.358   6.167
 4961POPC   C2B65060   5.462  18.204   6.602
 4961POPC   C3B65061   5.387  18.426   6.994
 4961POPC   C4B65062   5.541  18.567   7.396
 4962POPC   NC365063   6.485  32.627   5.388
 4962POPC   PO465064   6.887  32.120   5.451
 4962POPC   GL165065   6.586  32.208   5.724
 4962POPC   GL265066   6.532  31.891   5.880
 4962POPC   C1A65067   6.444  32.416   6.085
 4962POPC   D2A65068   6.385  32.305   6.508
 4962POPC   C3A65069   6.649  32.430   6.836
 4962POPC   C4A65070   6.569  32.391   7.246
 4962POPC   C1B65071   6.820  32.074   6.195
 4962POPC   C2B65072   6.867  32.000   6.646
 4962POPC   C3B65073   6.548  31.943   6.993
 4962POPC   C4B65074   6.627  31.937   7.454
 4963POPC   NC365075   4.154  20.537   5.372
 4963POPC   PO465076   4.886  20.637   5.326
 4963POPC   GL165077   4.539  20.574   5.751
 4963POPC   GL265078   4.168  20.709   5.829
 4963POPC   C1A65079   4.326  20.368   6.164
 4963POPC   D2A65080   4.424  20.267   6.610
 4963POPC   C3A65081   4.599  20.671   6.780
 4963POPC   C4A65082   4.638  20.880   7.195
 4963POPC   C1B65083   3.887  20.695   6.176
 4963POPC   C2B65084   4.038  20.650   6.584
 4963POPC   C3B65085   3.901  20.548   6.975
 4963POPC   C4B65086   4.084  20.806   7.289
 4964POPC   NC365087   2.593   3.155   5.444
 4964POPC   PO465088   2.849   3.661   5.239
 4964POPC   GL165089   2.851   3.547   5.704
 4964POPC   GL265090   3.062   3.292   5.847
 4964POPC   C1A65091   2.643   3.623   6.121
 4964POPC   D2A65092   2.579   3.443   6.533
 4964POPC   C3A65093   2.726   3.600   6.923
 4964POPC   C4A65094   2.516   3.697   7.277
 4964POPC   C1B65095   2.903   3.169   6.234
 4964POPC   C2B65096   3.053   3.303   6.626
 4964POPC   C3B65097   3.099   3.239   7.046
 4964POPC   C4B65098   2.882   3.372   7.417
 4965POPC   NC365099   4.292  43.410   5.505
 4965POPC   PO465100   3.903  42.936   5.560
 4965POPC   GL165101   4.180  42.948   5.885
 4965POPC   GL265102   4.156  43.300   5.976
 4965POPC   C1A65103   4.290  42.915   6.327
 4965POPC   D2A65104   4.020  42.963   6.686
 4965POPC   C3A65105   4.176  43.003   7.095
 4965POPC   C4A65106   4.134  43.354   7.352
 4965POPC   C1B65107   4.608  43.218   6.071
 4965POPC   C2B65108   4.678  43.263   6.483
 4965POPC   C3B65109   4.545  43.283   6.867
 4965POPC   C4B65110   4.633  43.262   7.271
 4966POPC   NC365111   5.140  17.714   5.422
 4966POPC   PO465112   4.544  17.459   5.415
 4966POPC   GL165113   4.755  17.538   5.821
 4966POPC   GL265114   4.903  17.834   5.874
 4966POPC   C1A65115   5.047  17.441   6.215
 4966POPC   D2A65116   5.320  17.278   6.584
 4966POPC   C3A65117   5.090  17.324   6.984
 4966POPC   C4A65118   4.704  17.350   7.265
 4966POPC   C1B65119   5.175  17.937   6.226
 4966POPC   C2B65120   5.187  17.770   6.634
 4966POPC   C3B65121   5.256  17.930   7.032
 4966POPC   C4B65122   5.132  17.658   7.344
 4967POPC   NC365123  43.652  23.997   5.296
 4967POPC   PO465124  44.008  23.435   5.449
 4967POPC   GL165125  43.915  23.796   5.725
 4967POPC   GL265126  44.021  24.145   5.633
 4967POPC   C1A65127  43.857  23.708   6.164
 4967POPC   D2A65128  43.949  23.556   6.565
 4967POPC   C3A65129  43.733  23.712   6.909
 4967POPC   C4A65130  43.958  23.642   7.311
 4967POPC   C1B65131  44.121  24.151   6.076
 4967POPC   C2B65132  44.238  23.991   6.488
 4967POPC   C3B65133  44.186  23.920   6.918
 4967POPC   C4B65134  43.909  24.134   7.213
 4968POPC   NC365135   6.678  41.751   5.401
 4968POPC   PO465136   6.745  41.053   5.500
 4968POPC   GL165137   6.549  41.311   5.784
 4968POPC   GL265138   6.839  41.482   5.811
 4968POPC   C1A65139   6.358  41.422   6.190
 4968POPC   D2A65140   6.508  41.652   6.572
 4968POPC   C3A65141   6.478  41.456   6.989
 4968POPC   C4A65142   6.389  41.179   7.370
 4968POPC   C1B65143   6.792  41.794   6.141
 4968POPC   C2B65144   7.024  41.820   6.530
 4968POPC   C3B65145   6.879  41.788   6.950
 4968POPC   C4B65146   7.084  41.796   7.335
 4969POPC   NC365147   4.254  33.365   5.511
 4969POPC   PO465148   4.423  32.749   5.430
 4969POPC   GL165149   4.249  32.903   5.796
 4969POPC   GL265150   3.892  32.811   5.878
 4969POPC   C1A65151   4.245  32.765   6.212
 4969POPC   D2A65152   4.155  32.946   6.589
 4969POPC   C3A65153   4.168  32.709   6.949
 4969POPC   C4A65154   4.437  32.859   7.211
 4969POPC   C1B65155   3.909  33.191   6.174
 4969POPC   C2B65156   3.852  33.359   6.626
 4969POPC   C3B65157   4.057  33.223   7.032
 4969POPC   C4B65158   4.042  33.256   7.504
 4970POPC   NC365159   9.164  32.345   5.496
 4970POPC   PO465160   9.732  32.061   5.484
 4970POPC   GL165161   9.734  32.439   5.771
 4970POPC   GL265162   9.427  32.598   5.858
 4970POPC   C1A65163   9.789  32.547   6.218
 4970POPC   D2A65164   9.709  32.326   6.587
 4970POPC   C3A65165   9.751  32.503   6.973
 4970POPC   C4A65166  10.117  32.658   7.237
 4970POPC   C1B65167   9.398  32.205   6.149
 4970POPC   C2B65168   9.268  32.087   6.605
 4970POPC   C3B65169   9.407  32.098   7.063
 4970POPC   C4B65170   9.537  31.836   7.456
 4971POPC   NC365171  25.590  29.794   5.410
 4971POPC   PO465172  26.074  30.325   5.412
 4971POPC   GL165173  25.934  30.137   5.794
 4971POPC   GL265174  25.898  29.755   5.819
 4971POPC   C1A65175  26.098  30.055   6.205
 4971POPC   D2A65176  26.422  29.982   6.497
 4971POPC   C3A65177  26.119  30.052   6.814
 4971POPC   C4A65178  26.026  30.111   7.219
 4971POPC   C1B65179  25.915  29.580   6.242
 4971POPC   C2B65180  26.108  29.586   6.646
 4971POPC   C3B65181  25.897  29.630   7.070
 4971POPC   C4B65182  25.603  29.827   7.369
 4972POPC   NC365183  38.925  14.004   5.520
 4972POPC   PO465184  39.099  13.468   5.428
 4972POPC   GL165185  39.352  13.748   5.706
 4972POPC   GL265186  39.682  13.639   5.834
 4972POPC   C1A65187  39.247  13.792   6.154
 4972POPC   D2A65188  39.300  13.919   6.597
 4972POPC   C3A65189  39.109  13.693   6.972
 4972POPC   C4A65190  39.003  13.862   7.412
 4972POPC   C1B65191  39.748  13.766   6.215
 4972POPC   C2B65192  39.648  13.544   6.585
 4972POPC   C3B65193  39.605  13.415   6.999
 4972POPC   C4B65194  39.471  13.693   7.328
 4973POPC   NC365195  41.050   5.624   5.532
 4973POPC   PO465196  41.702   5.834   5.369
 4973POPC   GL165197  41.516   5.716   5.762
 4973POPC   GL265198  41.270   5.937   5.915
 4973POPC   C1A65199  41.747   5.839   6.151
 4973POPC   D2A65200  41.570   5.901   6.561
 4973POPC   C3A65201  41.741   6.013   6.943
 4973POPC   C4A65202  41.522   6.106   7.333
 4973POPC   C1B65203  41.307   5.589   6.223
 4973POPC   C2B65204  41.293   5.455   6.643
 4973POPC   C3B65205  41.360   5.692   7.025
 4973POPC   C4B65206  41.710   5.657   7.325
 4974POPC   NC365207  26.072   1.449   5.157
 4974POPC   PO465208  25.862   0.885   5.451
 4974POPC   GL165209  26.138   1.143   5.730
 4974POPC   GL265210  26.113   1.503   5.683
 4974POPC   C1A65211  26.201   1.233   6.180
 4974POPC   D2A65212  25.928   1.112   6.551
 4974POPC   C3A65213  26.195   1.026   6.933
 4974POPC   C4A65214  26.137   1.072   7.404
 4974POPC   C1B65215  25.861   1.629   6.005
 4974POPC   C2B65216  25.981   1.654   6.411
 4974POPC   C3B65217  26.107   1.504   6.795
 4974POPC   C4B65218  26.122   1.530   7.213
 4975POPC   NC365219  27.628  25.610   5.600
 4975POPC   PO465220  27.527  24.883   5.477
 4975POPC   GL165221  27.662  25.127   5.776
 4975POPC   GL265222  27.334  25.271   5.875
 4975POPC   C1A65223  27.714  25.069   6.210
 4975POPC   D2A65224  27.914  25.199   6.577
 4975POPC   C3A65225  27.626  25.239   6.865
 4975POPC   C4A65226  27.514  25.028   7.184
 4975POPC   C1B65227  27.134  25.442   6.275
 4975POPC   C2B65228  27.220  25.502   6.726
 4975POPC   C3B65229  27.280  25.472   7.208
 4975POPC   C4B65230  27.199  25.629   7.633
 4976POPC   NC365231  17.482  15.544   5.457
 4976POPC   PO465232  17.310  16.189   5.592
 4976POPC   GL165233  17.364  15.836   5.848
 4976POPC   GL265234  17.125  15.548   5.821
 4976POPC   C1A65235  17.607  15.863   6.197
 4976POPC   D2A65236  17.655  16.049   6.578
 4976POPC   C3A65237  17.859  16.020   6.970
 4976POPC   C4A65238  17.601  15.983   7.318
 4976POPC   C1B65239  17.102  15.655   6.237
 4976POPC   C2B65240  17.426  15.516   6.511
 4976POPC   C3B65241  17.468  15.684   6.885
 4976POPC   C4B65242  17.188  15.717   7.198
 4977POPC   NC365243   6.391  12.841   5.265
 4977POPC   PO465244   7.038  13.040   5.561
 4977POPC   GL165245   6.852  13.072   5.923
 4977POPC   GL265246   6.746  12.731   5.913
 4977POPC   C1A65247   6.753  13.210   6.328
 4977POPC   D2A65248   6.940  13.133   6.725
 4977POPC   C3A65249   6.689  13.093   7.084
 4977POPC   C4A65250   6.242  13.112   7.128
 4977POPC   C1B65251   6.569  12.716   6.301
 4977POPC   C2B65252   6.530  12.825   6.686
 4977POPC   C3B65253   6.390  12.640   7.035
 4977POPC   C4B65254   6.572  12.403   7.347
 4978POPC   NC365255   3.736   5.591   5.695
 4978POPC   PO465256   3.389   5.831   5.223
 4978POPC   GL165257   3.667   6.067   5.669
 4978POPC   GL265258   3.544   5.908   6.040
 4978POPC   C1A65259   3.768   6.341   6.058
 4978POPC   D2A65260   3.585   6.369   6.512
 4978POPC   C3A65261   3.435   6.051   6.844
 4978POPC   C4A65262   3.395   6.138   7.283
 4978POPC   C1B65263   3.498   5.505   6.303
 4978POPC   C2B65264   3.539   5.444   6.727
 4978POPC   C3B65265   3.752   5.629   7.021
 4978POPC   C4B65266   4.052   5.399   7.243
 4979POPC   NC365267  44.924  29.263   5.347
 4979POPC   PO465268  44.346  28.894   5.441
 4979POPC   GL165269  44.669  29.075   5.776
 4979POPC   GL265270  44.730  29.457   5.763
 4979POPC   C1A65271  44.842  28.871   6.206
 4979POPC   D2A65272  44.609  28.881   6.627
 4979POPC   C3A65273  44.723  28.805   7.079
 4979POPC   C4A65274  44.744  28.883   7.542
 4979POPC   C1B65275  44.819  29.375   6.167
 4979POPC   C2B65276  44.999  29.275   6.543
 4979POPC   C3B65277  44.829  29.272   6.903
 4979POPC   C4B65278  44.478  29.376   7.121
 4980POPC   NC365279   3.052  37.119   5.318
 4980POPC   PO465280   3.642  36.723   5.416
 4980POPC   GL165281   3.622  36.968   5.773
 4980POPC   GL265282   3.292  37.021   5.765
 4980POPC   C1A65283   3.713  37.043   6.207
 4980POPC   D2A65284   3.561  36.922   6.615
 4980POPC   C3A65285   3.676  37.144   6.985
 4980POPC   C4A65286   3.682  37.308   7.407
 4980POPC   C1B65287   3.142  37.028   6.184
 4980POPC   C2B65288   3.093  36.727   6.510
 4980POPC   C3B65289   3.110  36.917   6.921
 4980POPC   C4B65290   3.362  36.884   7.273
 4981POPC   NC365291  33.445   2.007   5.320
 4981POPC   PO465292  34.075   2.312   5.485
 4981POPC   GL165293  33.778   2.159   5.707
 4981POPC   GL265294  33.895   1.813   5.725
 4981POPC   C1A65295  33.676   2.076   6.135
 4981POPC   D2A65296  33.860   2.126   6.542
 4981POPC   C3A65297  33.618   2.242   6.904
 4981POPC   C4A65298  33.626   2.175   7.340
 4981POPC   C1B65299  34.032   1.696   6.191
 4981POPC   C2B65300  34.080   1.675   6.670
 4981POPC   C3B65301  33.805   1.764   7.036
 4981POPC   C4B65302  33.720   1.645   7.451
 4982POPC   NC365303   6.976   5.014   5.412
 4982POPC   PO465304   6.484   5.377   5.508
 4982POPC   GL165305   6.612   4.954   5.759
 4982POPC   GL265306   6.823   5.161   5.874
 4982POPC   C1A65307   6.722   4.787   6.212
 4982POPC   D2A65308   6.538   4.749   6.629
 4982POPC   C3A65309   6.741   4.846   7.041
 4982POPC   C4A65310   6.403   4.854   7.353
 4982POPC   C1B65311   6.476   5.231   6.169
 4982POPC   C2B65312   6.551   5.264   6.596
 4982POPC   C3B65313   6.480   5.289   7.023
 4982POPC   C4B65314   6.849   5.313   7.258
 4983POPC   NC365315  40.139  20.912   5.302
 4983POPC   PO465316  39.568  20.543   5.380
 4983POPC   GL165317  39.793  20.382   5.808
 4983POPC   GL265318  40.176  20.413   5.865
 4983POPC   C1A65319  39.685  20.424   6.258
 4983POPC   D2A65320  39.737  20.824   6.480
 4983POPC   C3A65321  39.996  20.986   6.820
 4983POPC   C4A65322  39.970  20.865   7.266
 4983POPC   C1B65323  40.174  20.569   6.318
 4983POPC   C2B65324  39.992  20.467   6.739
 4983POPC   C3B65325  40.222  20.457   7.119
 4983POPC   C4B65326  40.144  20.385   7.573
 4984POPC   NC365327   9.768   4.709   5.431
 4984POPC   PO465328   9.491   5.368   5.474
 4984POPC   GL165329   9.641   5.066   5.788
 4984POPC   GL265330   9.991   5.008   5.826
 4984POPC   C1A65331   9.726   5.178   6.226
 4984POPC   D2A65332  10.046   5.226   6.516
 4984POPC   C3A65333   9.918   5.418   6.859
 4984POPC   C4A65334   9.594   5.254   7.139
 4984POPC   C1B65335  10.136   4.829   6.187
 4984POPC   C2B65336   9.994   4.722   6.576
 4984POPC   C3B65337   9.891   4.897   6.923
 4984POPC   C4B65338   9.701   4.767   7.285
 4985POPC   NC365339  10.684  44.130   5.389
 4985POPC   PO465340  10.442  44.743   5.249
 4985POPC   GL165341  10.527  44.543   5.684
 4985POPC   GL265342  10.575  44.829   5.935
 4985POPC   C1A65343  10.350  44.392   6.094
 4985POPC   D2A65344  10.388  44.635   6.476
 4985POPC   C3A65345  10.265  44.464   6.854
 4985POPC   C4A65346  10.347  44.496   7.268
 4985POPC   C1B65347  10.839  44.534   6.176
 4985POPC   C2B65348  10.906  44.562   6.605
 4985POPC   C3B65349  10.759  44.722   7.006
 4985POPC   C4B65350  10.833  44.578   7.441
 4986POPC   NC365351  26.082   8.564   5.592
 4986POPC   PO465352  25.931   9.264   5.486
 4986POPC   GL165353  26.051   9.060   5.879
 4986POPC   GL265354  25.745   8.925   5.855
 4986POPC   C1A65355  26.006   8.771   6.292
 4986POPC   D2A65356  25.915   8.556   6.706
 4986POPC   C3A65357  26.246   8.709   7.023
 4986POPC   C4A65358  26.233   8.658   7.485
 4986POPC   C1B65359  25.685   9.154   6.257
 4986POPC   C2B65360  25.734   9.024   6.689
 4986POPC   C3B65361  25.876   9.049   7.109
 4986POPC   C4B65362  25.669   9.162   7.477
 4987POPC   NC365363  15.772   2.072   5.330
 4987POPC   PO465364  15.830   1.489   5.196
 4987POPC   GL165365  15.949   1.839   5.712
 4987POPC   GL265366  15.663   1.913   5.821
 4987POPC   C1A65367  16.090   2.154   6.006
 4987POPC   D2A65368  16.126   2.144   6.465
 4987POPC   C3A65369  15.927   2.247   6.864
 4987POPC   C4A65370  15.975   1.911   7.205
 4987POPC   C1B65371  15.838   1.776   6.250
 4987POPC   C2B65372  15.773   1.769   6.719
 4987POPC   C3B65373  15.591   1.571   7.118
 4987POPC   C4B65374  15.710   1.452   7.568
 4988POPC   NC365375   6.662  20.764   5.315
 4988POPC   PO465376   6.285  20.333   5.661
 4988POPC   GL165377   6.683  20.480   5.825
 4988POPC   GL265378   6.731  20.834   5.855
 4988POPC   C1A65379   6.781  20.443   6.286
 4988POPC   D2A65380   6.511  20.630   6.598
 4988POPC   C3A65381   6.517  20.689   7.020
 4988POPC   C4A65382   6.898  20.648   7.246
 4988POPC   C1B65383   6.819  20.952   6.318
 4988POPC   C2B65384   6.892  20.953   6.794
 4988POPC   C3B65385   6.699  21.144   7.196
 4988POPC   C4B65386   6.614  21.140   7.663
 4989POPC   NC365387  29.389  30.868   5.376
 4989POPC   PO465388  28.782  31.142   5.570
 4989POPC   GL165389  29.089  30.849   5.840
 4989POPC   GL265390  29.457  30.680   5.826
 4989POPC   C1A65391  28.990  30.650   6.241
 4989POPC   D2A65392  28.963  30.436   6.652
 4989POPC   C3A65393  28.953  30.729   6.996
 4989POPC   C4A65394  28.837  30.674   7.445
 4989POPC   C1B65395  29.474  30.855   6.219
 4989POPC   C2B65396  29.352  30.778   6.616
 4989POPC   C3B65397  29.490  30.750   6.988
 4989POPC   C4B65398  29.297  30.869   7.337
 4990POPC   NC365399  12.416  36.761   5.238
 4990POPC   PO465400  12.213  36.091   5.277
 4990POPC   GL165401  12.267  36.100   5.728
 4990POPC   GL265402  12.512  36.386   5.767
 4990POPC   C1A65403  11.968  35.987   6.086
 4990POPC   D2A65404  11.773  36.211   6.432
 4990POPC   C3A65405  11.909  36.019   6.827
 4990POPC   C4A65406  12.002  35.731   7.178
 4990POPC   C1B65407  12.269  36.455   6.150
 4990POPC   C2B65408  12.247  36.373   6.591
 4990POPC   C3B65409  12.347  36.437   7.014
 4990POPC   C4B65410  11.958  36.353   7.240
 4991POPC   NC365411  27.210  30.146   5.439
 4991POPC   PO465412  27.843  29.770   5.495
 4991POPC   GL165413  27.759  29.659   5.900
 4991POPC   GL265414  27.997  29.442   5.991
 4991POPC   C1A65415  27.632  29.924   6.242
 4991POPC   D2A65416  27.440  30.126   6.583
 4991POPC   C3A65417  27.659  30.111   6.982
 4991POPC   C4A65418  27.292  30.095   7.228
 4991POPC   C1B65419  27.935  29.530   6.422
 4991POPC   C2B65420  27.630  29.689   6.701
 4991POPC   C3B65421  27.498  29.650   7.116
 4991POPC   C4B65422  27.726  29.814   7.460
 4992POPC   NC365423  42.587   0.721   5.498
 4992POPC   PO465424  43.276   0.458   5.531
 4992POPC   GL165425  42.904   0.456   5.828
 4992POPC   GL265426  42.791   0.813   5.948
 4992POPC   C1A65427  42.902   0.209   6.232
 4992POPC   D2A65428  42.934   0.324   6.684
 4992POPC   C3A65429  43.283   0.270   6.953
 4992POPC   C4A65430  43.177   0.314   7.355
 4992POPC   C1B65431  43.171   0.769   6.199
 4992POPC   C2B65432  43.323   0.694   6.637
 4992POPC   C3B65433  43.114   0.751   7.063
 4992POPC   C4B65434  43.182   0.821   7.511
 4993POPC   NC365435  43.556  21.261   5.584
 4993POPC   PO465436  44.124  21.642   5.508
 4993POPC   GL165437  43.969  21.404   5.868
 4993POPC   GL265438  44.144  21.105   5.953
 4993POPC   C1A65439  43.758  21.271   6.263
 4993POPC   D2A65440  43.966  21.365   6.666
 4993POPC   C3A65441  43.690  21.356   7.005
 4993POPC   C4A65442  43.488  21.383   7.392
 4993POPC   C1B65443  44.238  21.060   6.364
 4993POPC   C2B65444  44.222  20.860   6.752
 4993POPC   C3B65445  44.156  21.121   7.104
 4993POPC   C4B65446  44.016  21.441   7.392
 4994POPC   NC365447   9.381  44.886   5.525
 4994POPC   PO465448   8.769  44.773   5.448
 4994POPC   GL165449   9.010  44.648   5.816
 4994POPC   GL265450   9.108  44.944   5.957
 4994POPC   C1A65451   8.945  44.399   6.192
 4994POPC   D2A65452   8.707  44.489   6.582
 4994POPC   C3A65453   8.898  44.439   6.990
 4994POPC   C4A65454   8.731  44.538   7.392
 4994POPC   C1B65455   9.018  44.854   6.383
 4994POPC   C2B65456   9.249  44.560   6.645
 4994POPC   C3B65457   9.364  44.680   7.085
 4994POPC   C4B65458   9.109  44.866   7.451
 4995POPC   NC365459  37.219  35.935   5.312
 4995POPC   PO465460  37.836  36.334   5.371
 4995POPC   GL165461  37.726  36.157   5.702
 4995POPC   GL265462  37.399  36.213   5.788
 4995POPC   C1A65463  37.922  36.145   6.072
 4995POPC   D2A65464  37.735  36.161   6.462
 4995POPC   C3A65465  37.909  35.970   6.820
 4995POPC   C4A65466  37.802  36.075   7.244
 4995POPC   C1B65467  37.499  35.857   6.086
 4995POPC   C2B65468  37.552  35.684   6.531
 4995POPC   C3B65469  37.449  35.795   6.957
 4995POPC   C4B65470  37.300  35.794   7.372
 4996POPC   NC365471  33.212  30.065   5.472
 4996POPC   PO465472  32.565  29.751   5.523
 4996POPC   GL165473  32.827  29.951   5.767
 4996POPC   GL265474  33.120  29.703   5.822
 4996POPC   C1A65475  32.918  30.038   6.154
 4996POPC   D2A65476  32.768  29.774   6.497
 4996POPC   C3A65477  32.981  29.793   6.881
 4996POPC   C4A65478  32.844  30.024   7.250
 4996POPC   C1B65479  33.363  29.778   6.191
 4996POPC   C2B65480  33.273  30.061   6.519
 4996POPC   C3B65481  33.231  30.224   6.918
 4996POPC   C4B65482  33.346  29.971   7.238
 4997POPC   NC365483  26.840  26.050   5.386
 4997POPC   PO465484  27.089  26.639   5.294
 4997POPC   GL165485  26.818  26.484   5.693
 4997POPC   GL265486  26.586  26.157   5.812
 4997POPC   C1A65487  26.860  26.405   6.153
 4997POPC   D2A65488  26.965  26.371   6.586
 4997POPC   C3A65489  26.728  26.241   6.939
 4997POPC   C4A65490  26.946  26.297   7.293
 4997POPC   C1B65491  26.702  25.912   6.201
 4997POPC   C2B65492  26.820  25.839   6.619
 4997POPC   C3B65493  26.991  25.833   7.020
 4997POPC   C4B65494  26.793  25.822   7.380
 4998POPC   NC365495  26.931  28.676   5.719
 4998POPC   PO465496  26.728  28.130   5.471
 4998POPC   GL165497  26.678  28.254   5.869
 4998POPC   GL265498  27.037  28.227   5.959
 4998POPC   C1A65499  26.714  28.437   6.294
 4998POPC   D2A65500  26.546  28.254   6.637
 4998POPC   C3A65501  26.712  28.372   7.015
 4998POPC   C4A65502  27.078  28.267   7.157
 4998POPC   C1B65503  27.211  28.533   6.285
 4998POPC   C2B65504  27.085  28.573   6.697
 4998POPC   C3B65505  27.008  28.797   7.053
 4998POPC   C4B65506  26.976  28.684   7.484
 4999POPC   NC365507  22.547  31.432   5.470
 4999POPC   PO465508  23.186  31.208   5.335
 4999POPC   GL165509  23.035  31.346   5.734
 4999POPC   GL265510  23.375  31.376   5.888
 4999POPC   C1A65511  22.962  31.397   6.189
 4999POPC   D2A65512  23.010  31.345   6.630
 4999POPC   C3A65513  22.628  31.198   6.766
 4999POPC   C4A65514  22.568  31.060   7.165
 4999POPC   C1B65515  23.440  31.403   6.372
 4999POPC   C2B65516  23.348  31.767   6.565
 4999POPC   C3B65517  23.098  31.793   6.912
 4999POPC   C4B65518  23.010  31.416   7.144
 5000POPC   NC365519   2.086  12.391   5.397
 5000POPC   PO465520   1.535  11.956   5.395
 5000POPC   GL165521   1.821  12.000   5.774
 5000POPC   GL265522   2.089  12.237   5.870
 5000POPC   C1A65523   1.951  11.934   6.231
 5000POPC   D2A65524   1.693  12.014   6.559
 5000POPC   C3A65525   1.845  12.055   6.909
 5000POPC   C4A65526   1.883  12.247   7.278
 5000POPC   C1B65527   2.392  12.252   6.196
 5000POPC   C2B65528   2.474  12.066   6.582
 5000POPC   C3B65529   2.341  12.165   6.994
 5000POPC   C4B65530   2.181  11.819   7.217
 5001POPC   NC365531  29.246  20.924   5.467
 5001POPC   PO465532  29.000  21.510   5.530
 5001POPC   GL165533  29.341  21.522   5.841
 5001POPC   GL265534  29.264  21.198   5.935
 5001POPC   C1A65535  29.508  21.502   6.290
 5001POPC   D2A65536  29.439  21.627   6.737
 5001POPC   C3A65537  29.329  21.307   7.098
 5001POPC   C4A65538  29.344  21.005   7.477
 5001POPC   C1B65539  29.003  21.505   6.235
 5001POPC   C2B65540  28.959  21.492   6.693
 5001POPC   C3B65541  28.812  21.398   7.096
 5001POPC   C4B65542  28.917  21.321   7.506
 5002POPC   NC365543  15.994  30.047   5.376
 5002POPC   PO465544  15.541  29.744   5.460
 5002POPC   GL165545  15.900  29.762   5.799
 5002POPC   GL265546  16.227  29.685   5.670
 5002POPC   C1A65547  16.092  29.956   6.219
 5002POPC   D2A65548  16.247  30.100   6.684
 5002POPC   C3A65549  16.023  30.037   7.113
 5002POPC   C4A65550  15.696  30.049   7.470
 5002POPC   C1B65551  16.415  29.590   6.057
 5002POPC   C2B65552  16.379  29.620   6.522
 5002POPC   C3B65553  16.366  29.674   6.982
 5002POPC   C4B65554  16.399  29.796   7.427
 5003POPC   NC365555  36.244  27.059   5.499
 5003POPC   PO465556  36.009  26.456   5.444
 5003POPC   GL165557  36.282  26.637   5.833
 5003POPC   GL265558  36.350  27.030   5.981
 5003POPC   C1A65559  36.318  26.652   6.303
 5003POPC   D2A65560  36.205  26.820   6.719
 5003POPC   C3A65561  36.248  26.590   7.109
 5003POPC   C4A65562  35.905  26.346   7.298
 5003POPC   C1B65563  36.489  27.151   6.408
 5003POPC   C2B65564  36.307  27.307   6.799
 5003POPC   C3B65565  36.194  27.103   7.194
 5003POPC   C4B65566  36.013  26.823   7.520
 5004POPC   NC365567  36.339  20.396   5.462
 5004POPC   PO465568  35.868  20.964   5.372
 5004POPC   GL165569  36.061  20.762   5.727
 5004POPC   GL265570  35.942  20.466   5.781
 5004POPC   C1A65571  36.238  20.634   6.165
 5004POPC   D2A65572  36.385  20.765   6.568
 5004POPC   C3A65573  36.152  20.733   6.959
 5004POPC   C4A65574  36.318  20.450   7.274
 5004POPC   C1B65575  35.819  20.344   6.206
 5004POPC   C2B65576  35.902  20.426   6.651
 5004POPC   C3B65577  35.792  20.393   7.111
 5004POPC   C4B65578  35.907  20.319   7.560
 5005POPC   NC365579  18.782   4.342   5.565
 5005POPC   PO465580  19.427   4.381   5.469
 5005POPC   GL165581  19.219   4.152   5.780
 5005POPC   GL265582  19.179   4.487   5.923
 5005POPC   C1A65583  19.012   4.069   6.192
 5005POPC   D2A65584  18.948   4.290   6.566
 5005POPC   C3A65585  19.088   4.088   6.942
 5005POPC   C4A65586  18.848   4.242   7.250
 5005POPC   C1B65587  18.808   4.593   6.163
 5005POPC   C2B65588  18.842   4.798   6.539
 5005POPC   C3B65589  18.997   4.637   6.943
 5005POPC   C4B65590  19.305   4.444   7.250
 5006POPC   NC365591  44.913   3.928   5.115
 5006POPC   PO465592   0.254   4.339   5.490
 5006POPC   GL165593   0.561   4.307   5.828
 5006POPC   GL265594   0.692   4.652   5.769
 5006POPC   C1A65595   0.396   4.139   6.214
 5006POPC   D2A65596   0.137   4.281   6.542
 5006POPC   C3A65597   0.289   4.119   6.914
 5006POPC   C4A65598   0.169   4.281   7.296
 5006POPC   C1B65599   0.422   4.646   6.147
 5006POPC   C2B65600   0.565   4.608   6.546
 5006POPC   C3B65601   0.676   4.468   6.911
 5006POPC   C4B65602   0.595   4.542   7.314
 5007POPC   NC365603  17.914   1.261   5.401
 5007POPC   PO465604  18.546   1.582   5.349
 5007POPC   GL165605  18.357   1.354   5.707
 5007POPC   GL265606  18.659   1.426   5.857
 5007POPC   C1A65607  18.342   1.120   6.123
 5007POPC   D2A65608  18.314   0.984   6.554
 5007POPC   C3A65609  17.977   1.112   6.800
 5007POPC   C4A65610  18.020   1.212   7.194
 5007POPC   C1B65611  18.716   1.488   6.259
 5007POPC   C2B65612  18.735   1.292   6.646
 5007POPC   C3B65613  18.486   1.203   7.009
 5007POPC   C4B65614  18.416   1.041   7.445
 5008POPC   NC365615   7.626   2.637   5.619
 5008POPC   PO465616   7.096   2.356   5.265
 5008POPC   GL165617   7.105   2.575   5.709
 5008POPC   GL265618   7.229   2.954   5.755
 5008POPC   C1A65619   7.259   2.636   6.169
 5008POPC   D2A65620   7.675   2.782   6.386
 5008POPC   C3A65621   7.746   2.809   6.865
 5008POPC   C4A65622   7.526   2.539   7.201
 5008POPC   C1B65623   7.306   3.145   6.188
 5008POPC   C2B65624   7.083   2.938   6.555
 5008POPC   C3B65625   7.119   2.791   6.980
 5008POPC   C4B65626   6.980   2.959   7.391
 5009POPC   NC365627  13.582  34.780   5.301
 5009POPC   PO465628  14.104  34.430   5.427
 5009POPC   GL165629  13.887  34.708   5.736
 5009POPC   GL265630  13.514  34.787   5.806
 5009POPC   C1A65631  13.852  34.714   6.198
 5009POPC   D2A65632  13.665  34.905   6.574
 5009POPC   C3A65633  13.633  34.720   6.953
 5009POPC   C4A65634  13.806  34.312   7.050
 5009POPC   C1B65635  13.287  34.756   6.203
 5009POPC   C2B65636  13.225  34.626   6.633
 5009POPC   C3B65637  13.309  34.337   6.981
 5009POPC   C4B65638  13.293  34.345   7.452
 5010POPC   NC365639   7.945   5.182   5.232
 5010POPC   PO465640   8.546   5.149   5.616
 5010POPC   GL165641   8.421   4.786   5.916
 5010POPC   GL265642   8.048   4.803   6.032
 5010POPC   C1A65643   8.352   4.562   6.335
 5010POPC   D2A65644   7.979   4.773   6.559
 5010POPC   C3A65645   8.146   5.076   6.864
 5010POPC   C4A65646   8.160   4.975   7.285
 5010POPC   C1B65647   8.318   5.089   6.325
 5010POPC   C2B65648   8.602   5.318   6.591
 5010POPC   C3B65649   8.673   5.543   6.964
 5010POPC   C4B65650   8.440   5.403   7.286
 5011POPC   NC365651   2.122  18.882   5.387
 5011POPC   PO465652   1.678  19.391   5.247
 5011POPC   GL165653   1.936  19.282   5.663
 5011POPC   GL265654   2.213  19.050   5.840
 5011POPC   C1A65655   1.843  19.228   6.126
 5011POPC   D2A65656   1.796  18.880   6.419
 5011POPC   C3A65657   1.657  19.012   6.841
 5011POPC   C4A65658   1.672  18.858   7.274
 5011POPC   C1B65659   2.315  18.951   6.263
 5011POPC   C2B65660   2.205  18.957   6.705
 5011POPC   C3B65661   2.141  18.976   7.105
 5011POPC   C4B65662   2.466  19.178   7.344
 5012POPC   NC365663   3.941   8.335   5.422
 5012POPC   PO465664   4.418   7.862   5.380
 5012POPC   GL165665   4.089   7.906   5.723
 5012POPC   GL265666   4.156   8.256   5.863
 5012POPC   C1A65667   4.065   7.878   6.189
 5012POPC   D2A65668   4.314   7.961   6.575
 5012POPC   C3A65669   4.175   8.063   7.009
 5012POPC   C4A65670   4.277   8.215   7.449
 5012POPC   C1B65671   4.015   8.431   6.240
 5012POPC   C2B65672   4.118   8.459   6.668
 5012POPC   C3B65673   3.955   8.540   7.076
 5012POPC   C4B65674   4.244   8.760   7.367
 5013POPC   NC365675  22.017  27.247   5.567
 5013POPC   PO465676  22.422  27.746   5.460
 5013POPC   GL165677  22.236  27.621   5.833
 5013POPC   GL265678  22.456  27.307   5.839
 5013POPC   C1A65679  22.002  27.740   6.217
 5013POPC   D2A65680  21.735  27.710   6.579
 5013POPC   C3A65681  21.932  27.664   6.977
 5013POPC   C4A65682  22.110  27.619   7.397
 5013POPC   C1B65683  22.454  27.462   6.251
 5013POPC   C2B65684  22.255  27.477   6.624
 5013POPC   C3B65685  22.354  27.311   7.008
 5013POPC   C4B65686  22.766  27.296   7.118
 5014POPC   NC365687  33.311   3.622   5.403
 5014POPC   PO465688  32.785   3.230   5.403
 5014POPC   GL165689  33.077   3.256   5.787
 5014POPC   GL265690  33.111   3.620   5.901
 5014POPC   C1A65691  32.965   3.266   6.235
 5014POPC   D2A65692  32.876   3.634   6.466
 5014POPC   C3A65693  33.162   3.649   6.800
 5014POPC   C4A65694  33.090   3.430   7.173
 5014POPC   C1B65695  33.360   3.847   6.235
 5014POPC   C2B65696  33.559   3.971   6.621
 5014POPC   C3B65697  33.502   3.939   7.054
 5014POPC   C4B65698  33.234   3.883   7.356
 5015POPC   NC365699   9.970   3.450   5.366
 5015POPC   PO465700   9.304   3.668   5.527
 5015POPC   GL165701   9.615   3.473   5.810
 5015POPC   GL265702   9.979   3.604   5.842
 5015POPC   C1A65703   9.762   3.355   6.242
 5015POPC   D2A65704   9.944   3.164   6.630
 5015POPC   C3A65705   9.937   3.383   7.026
 5015POPC   C4A65706   9.567   3.295   7.264
 5015POPC   C1B65707  10.072   3.819   6.228
 5015POPC   C2B65708   9.866   3.708   6.613
 5015POPC   C3B65709   9.704   3.919   6.940
 5015POPC   C4B65710   9.840   3.845   7.299
 5016POPC   NC365711  31.065  35.838   5.345
 5016POPC   PO465712  31.141  36.499   5.445
 5016POPC   GL165713  30.862  36.348   5.779
 5016POPC   GL265714  30.854  35.969   5.806
 5016POPC   C1A65715  30.720  36.341   6.229
 5016POPC   D2A65716  30.559  36.185   6.639
 5016POPC   C3A65717  30.753  36.210   7.056
 5016POPC   C4A65718  30.649  35.974   7.430
 5016POPC   C1B65719  30.993  35.891   6.262
 5016POPC   C2B65720  30.949  35.856   6.732
 5016POPC   C3B65721  30.527  35.771   6.960
 5016POPC   C4B65722  30.178  35.650   7.213
 5017POPC   NC365723  40.418  31.846   5.405
 5017POPC   PO465724  40.729  31.229   5.541
 5017POPC   GL165725  40.494  31.498   5.815
 5017POPC   GL265726  40.564  31.853   5.894
 5017POPC   C1A65727  40.429  31.433   6.251
 5017POPC   D2A65728  40.754  31.276   6.533
 5017POPC   C3A65729  40.715  31.424   6.944
 5017POPC   C4A65730  40.412  31.688   7.088
 5017POPC   C1B65731  40.889  31.678   6.185
 5017POPC   C2B65732  41.154  31.746   6.544
 5017POPC   C3B65733  41.338  31.814   6.950
 5017POPC   C4B65734  41.082  31.632   7.247
 5018POPC   NC365735  26.493  43.308   5.675
 5018POPC   PO465736  25.928  43.207   5.410
 5018POPC   GL165737  25.941  43.199   5.843
 5018POPC   GL265738  25.963  42.871   5.825
 5018POPC   C1A65739  25.746  43.127   6.258
 5018POPC   D2A65740  25.638  43.363   6.642
 5018POPC   C3A65741  25.979  43.440   6.890
 5018POPC   C4A65742  25.995  43.284   7.288
 5018POPC   C1B65743  26.240  42.794   6.138
 5018POPC   C2B65744  26.155  42.666   6.557
 5018POPC   C3B65745  26.128  42.939   6.915
 5018POPC   C4B65746  26.323  42.868   7.308
 5019POPC   NC365747  32.601  40.787   5.375
 5019POPC   PO465748  31.982  40.840   5.380
 5019POPC   GL165749  32.197  40.907   5.772
 5019POPC   GL265750  32.381  40.622   5.827
 5019POPC   C1A65751  32.149  40.904   6.243
 5019POPC   D2A65752  32.352  40.943   6.667
 5019POPC   C3A65753  32.094  40.913   7.044
 5019POPC   C4A65754  31.850  40.884   7.442
 5019POPC   C1B65755  32.571  40.613   6.247
 5019POPC   C2B65756  32.445  40.386   6.621
 5019POPC   C3B65757  32.412  40.513   7.039
 5019POPC   C4B65758  32.601  40.909   7.151
 5020POPC   NC365759  15.058   2.772   5.336
 5020POPC   PO465760  15.495   3.325   5.533
 5020POPC   GL165761  15.369   2.884   5.772
 5020POPC   GL265762  14.996   2.751   5.830
 5020POPC   C1A65763  15.347   2.770   6.239
 5020POPC   D2A65764  15.371   3.132   6.563
 5020POPC   C3A65765  15.300   3.033   7.017
 5020POPC   C4A65766  15.426   2.656   7.256
 5020POPC   C1B65767  14.772   2.698   6.198
 5020POPC   C2B65768  14.972   2.589   6.599
 5020POPC   C3B65769  14.985   2.571   7.052
 5020POPC   C4B65770  14.894   2.508   7.500
 5021POPC   NC365771  27.934  10.341   5.579
 5021POPC   PO465772  28.503  10.694   5.374
 5021POPC   GL165773  28.343  10.602   5.776
 5021POPC   GL265774  28.454  10.279   5.789
 5021POPC   C1A65775  28.167  10.441   6.187
 5021POPC   D2A65776  28.373  10.317   6.566
 5021POPC   C3A65777  28.177  10.423   6.920
 5021POPC   C4A65778  28.204  10.583   7.318
 5021POPC   C1B65779  28.673  10.473   6.171
 5021POPC   C2B65780  28.871  10.465   6.595
 5021POPC   C3B65781  28.686  10.506   7.009
 5021POPC   C4B65782  28.735  10.667   7.442
 5022POPC   NC365783  18.614  18.636   5.346
 5022POPC   PO465784  18.944  17.989   5.398
 5022POPC   GL165785  19.071  18.271   5.749
 5022POPC   GL265786  19.388  18.482   5.702
 5022POPC   C1A65787  18.913  18.326   6.171
 5022POPC   D2A65788  18.847  18.113   6.566
 5022POPC   C3A65789  18.817  18.377   6.939
 5022POPC   C4A65790  18.882  18.297   7.384
 5022POPC   C1B65791  19.461  18.345   6.105
 5022POPC   C2B65792  19.302  18.370   6.518
 5022POPC   C3B65793  19.359  18.341   6.947
 5022POPC   C4B65794  19.364  18.375   7.357
 5023POPC   NC365795   6.337   1.380   5.566
 5023POPC   PO465796   6.942   1.613   5.711
 5023POPC   GL165797   6.937   1.280   5.973
 5023POPC   GL265798   6.703   1.104   5.807
 5023POPC   C1A65799   6.862   1.329   6.418
 5023POPC   D2A65800   6.478   1.491   6.651
 5023POPC   C3A65801   6.594   1.542   7.071
 5023POPC   C4A65802   6.777   1.209   7.304
 5023POPC   C1B65803   6.591   0.941   6.222
 5023POPC   C2B65804   6.617   0.958   6.687
 5023POPC   C3B65805   6.384   0.993   7.083
 5023POPC   C4B65806   6.429   0.913   7.545
 5024POPC   NC365807   8.812  12.243   5.579
 5024POPC   PO465808   9.192  11.881   5.137
 5024POPC   GL165809   9.114  11.836   5.661
 5024POPC   GL265810   8.757  11.800   5.808
 5024POPC   C1A65811   9.129  11.904   6.162
 5024POPC   D2A65812   8.923  12.011   6.585
 5024POPC   C3A65813   9.022  11.870   6.984
 5024POPC   C4A65814   9.181  11.961   7.390
 5024POPC   C1B65815   8.608  12.007   6.197
 5024POPC   C2B65816   8.370  11.994   6.606
 5024POPC   C3B65817   8.496  12.153   6.991
 5024POPC   C4B65818   8.673  11.971   7.347
 5025POPC   NC365819  44.046  14.480   5.332
 5025POPC   PO465820  43.399  14.190   5.419
 5025POPC   GL165821  43.478  14.395   5.801
 5025POPC   GL265822  43.717  14.671   5.732
 5025POPC   C1A65823  43.777  14.362   6.138
 5025POPC   D2A65824  43.904  14.487   6.541
 5025POPC   C3A65825  43.599  14.375   6.813
 5025POPC   C4A65826  43.595  14.290   7.209
 5025POPC   C1B65827  44.134  14.729   5.983
 5025POPC   C2B65828  44.337  14.730   6.410
 5025POPC   C3B65829  44.226  14.727   6.884
 5025POPC   C4B65830  43.849  14.741   7.130
 5026POPC   NC365831  20.700  33.343   5.044
 5026POPC   PO465832  20.309  32.904   5.456
 5026POPC   GL165833  20.497  32.834   5.822
 5026POPC   GL265834  20.841  32.836   5.755
 5026POPC   C1A65835  20.500  32.925   6.252
 5026POPC   D2A65836  20.218  33.056   6.572
 5026POPC   C3A65837  20.442  33.127   6.915
 5026POPC   C4A65838  20.551  32.980   7.300
 5026POPC   C1B65839  20.962  33.109   6.136
 5026POPC   C2B65840  20.884  33.072   6.605
 5026POPC   C3B65841  20.979  33.140   7.056
 5026POPC   C4B65842  21.029  32.928   7.468
 5027POPC   NC365843  35.246  43.693   5.379
 5027POPC   PO465844  34.897  44.288   5.357
 5027POPC   GL165845  35.033  43.971   5.746
 5027POPC   GL265846  35.413  43.828   5.840
 5027POPC   C1A65847  35.004  43.861   6.197
 5027POPC   D2A65848  35.298  43.852   6.550
 5027POPC   C3A65849  35.174  43.683   6.947
 5027POPC   C4A65850  34.887  43.708   7.291
 5027POPC   C1B65851  35.716  43.787   6.224
 5027POPC   C2B65852  35.829  43.929   6.665
 5027POPC   C3B65853  35.627  44.002   7.083
 5027POPC   C4B65854  35.416  43.730   7.426
 5028POPC   NC365855   1.388  24.756   5.605
 5028POPC   PO465856   1.300  24.176   5.286
 5028POPC   GL165857   1.101  24.324   5.666
 5028POPC   GL265858   0.851  24.614   5.581
 5028POPC   C1A65859   1.228  24.299   6.133
 5028POPC   D2A65860   1.346  24.524   6.537
 5028POPC   C3A65861   1.476  24.363   6.969
 5028POPC   C4A65862   1.260  24.496   7.344
 5028POPC   C1B65863   0.774  24.494   6.016
 5028POPC   C2B65864   0.832  24.406   6.454
 5028POPC   C3B65865   0.971  24.382   6.879
 5028POPC   C4B65866   0.786  24.624   7.188
 5029POPC   NC365867  30.876  41.997   5.380
 5029POPC   PO465868  30.828  41.372   5.424
 5029POPC   GL165869  30.911  41.492   5.810
 5029POPC   GL265870  31.145  41.803   5.768
 5029POPC   C1A65871  30.584  41.381   6.129
 5029POPC   D2A65872  30.628  41.194   6.532
 5029POPC   C3A65873  30.498  41.325   6.965
 5029POPC   C4A65874  30.525  41.331   7.422
 5029POPC   C1B65875  30.782  41.891   6.067
 5029POPC   C2B65876  30.891  41.662   6.423
 5029POPC   C3B65877  30.879  41.647   6.833
 5029POPC   C4B65878  30.716  41.784   7.221
 5030POPC   NC365879  35.263  37.955   5.352
 5030POPC   PO465880  35.352  37.318   5.434
 5030POPC   GL165881  35.487  37.607   5.717
 5030POPC   GL265882  35.147  37.695   5.802
 5030POPC   C1A65883  35.512  37.555   6.186
 5030POPC   D2A65884  35.504  37.667   6.629
 5030POPC   C3A65885  35.134  37.675   6.851
 5030POPC   C4A65886  35.165  37.457   7.208
 5030POPC   C1B65887  35.383  38.030   6.035
 5030POPC   C2B65888  35.492  38.189   6.482
 5030POPC   C3B65889  35.464  38.072   6.946
 5030POPC   C4B65890  35.535  37.800   7.323
 5031POPC   NC365891   3.077  14.715   5.509
 5031POPC   PO465892   3.702  14.555   5.413
 5031POPC   GL165893   3.750  14.404   5.843
 5031POPC   GL265894   3.398  14.387   5.804
 5031POPC   C1A65895   3.722  14.418   6.339
 5031POPC   D2A65896   3.775  14.616   6.777
 5031POPC   C3A65897   3.814  14.416   7.213
 5031POPC   C4A65898   3.710  14.181   7.621
 5031POPC   C1B65899   3.250  14.541   6.203
 5031POPC   C2B65900   3.297  14.382   6.646
 5031POPC   C3B65901   3.328  14.608   7.060
 5031POPC   C4B65902   3.371  14.529   7.511
 5032POPC   NC365903  13.724  15.946   5.093
 5032POPC   PO465904  14.070  16.323   5.345
 5032POPC   GL165905  13.942  16.163   5.780
 5032POPC   GL265906  13.720  15.883   5.769
 5032POPC   C1A65907  13.955  15.971   6.246
 5032POPC   D2A65908  13.881  16.130   6.683
 5032POPC   C3A65909  13.875  15.983   7.111
 5032POPC   C4A65910  13.635  16.128   7.492
 5032POPC   C1B65911  13.456  15.955   6.164
 5032POPC   C2B65912  13.426  15.877   6.632
 5032POPC   C3B65913  13.381  15.952   7.076
 5032POPC   C4B65914  13.432  15.670   7.465
 5033POPC   NC365915   5.119  35.697   5.360
 5033POPC   PO465916   5.299  35.113   5.619
 5033POPC   GL165917   5.193  35.269   6.026
 5033POPC   GL265918   4.956  35.529   5.891
 5033POPC   C1A65919   5.383  35.309   6.439
 5033POPC   D2A65920   4.961  35.256   6.545
 5033POPC   C3A65921   4.866  34.989   6.844
 5033POPC   C4A65922   4.876  34.969   7.254
 5033POPC   C1B65923   5.070  35.699   6.305
 5033POPC   C2B65924   5.215  35.715   6.733
 5033POPC   C3B65925   5.063  35.433   7.004
 5033POPC   C4B65926   4.627  35.421   7.069
 5034POPC   NC365927  11.394  23.287   5.442
 5034POPC   PO465928  11.176  23.927   5.434
 5034POPC   GL165929  11.190  23.724   5.845
 5034POPC   GL265930  11.409  23.453   5.928
 5034POPC   C1A65931  11.306  23.846   6.290
 5034POPC   D2A65932  11.406  24.162   6.611
 5034POPC   C3A65933  11.386  23.989   7.029
 5034POPC   C4A65934  11.049  23.728   7.174
 5034POPC   C1B65935  11.670  23.472   6.302
 5034POPC   C2B65936  11.522  23.237   6.624
 5034POPC   C3B65937  11.369  23.302   7.038
 5034POPC   C4B65938  11.606  23.479   7.312
 5035POPC   NC365939  11.352  21.626   5.513
 5035POPC   PO465940  10.967  21.042   5.495
 5035POPC   GL165941  11.143  21.275   5.833
 5035POPC   GL265942  11.488  21.242   5.967
 5035POPC   C1A65943  11.149  21.595   6.163
 5035POPC   D2A65944  11.406  21.652   6.527
 5035POPC   C3A65945  11.264  21.478   6.912
 5035POPC   C4A65946  11.305  21.597   7.325
 5035POPC   C1B65947  11.818  21.112   6.276
 5035POPC   C2B65948  11.940  20.971   6.695
 5035POPC   C3B65949  11.647  21.004   7.059
 5035POPC   C4B65950  11.233  21.084   7.285
 5036POPC   NC365951   3.118  18.966   5.351
 5036POPC   PO465952   2.484  19.188   5.413
 5036POPC   GL165953   2.746  19.089   5.758
 5036POPC   GL265954   2.792  18.732   5.771
 5036POPC   C1A65955   2.834  19.045   6.207
 5036POPC   D2A65956   2.647  19.188   6.583
 5036POPC   C3A65957   2.735  19.001   6.957
 5036POPC   C4A65958   3.061  19.179   7.201
 5036POPC   C1B65959   2.786  18.534   6.184
 5036POPC   C2B65960   2.628  18.641   6.596
 5036POPC   C3B65961   2.394  18.558   6.979
 5036POPC   C4B65962   2.348  18.679   7.446
 5037POPC   NC365963  34.810   2.782   5.619
 5037POPC   PO465964  34.242   3.008   5.265
 5037POPC   GL165965  34.300   2.853   5.701
 5037POPC   GL265966  34.396   2.563   5.832
 5037POPC   C1A65967  34.293   2.972   6.141
 5037POPC   D2A65968  34.511   3.021   6.536
 5037POPC   C3A65969  34.213   2.929   6.884
 5037POPC   C4A65970  34.445   2.806   7.220
 5037POPC   C1B65971  34.629   2.573   6.263
 5037POPC   C2B65972  34.610   2.557   6.738
 5037POPC   C3B65973  34.618   2.319   7.122
 5037POPC   C4B65974  34.502   2.263   7.560
 5038POPC   NC365975   8.469   1.404   5.320
 5038POPC   PO465976   7.842   1.323   5.443
 5038POPC   GL165977   8.121   1.123   5.710
 5038POPC   GL265978   8.327   1.389   5.807
 5038POPC   C1A65979   8.189   0.999   6.168
 5038POPC   D2A65980   8.419   1.015   6.557
 5038POPC   C3A65981   8.353   1.256   6.936
 5038POPC   C4A65982   8.257   1.084   7.338
 5038POPC   C1B65983   7.946   1.420   6.113
 5038POPC   C2B65984   8.029   1.344   6.554
 5038POPC   C3B65985   7.824   1.258   6.967
 5038POPC   C4B65986   7.537   1.546   7.165
 5039POPC   NC365987  39.591  19.224   5.012
 5039POPC   PO465988  39.036  19.109   5.323
 5039POPC   GL165989  38.996  18.941   5.743
 5039POPC   GL265990  39.076  19.290   5.835
 5039POPC   C1A65991  39.152  18.931   6.192
 5039POPC   D2A65992  39.026  19.033   6.622
 5039POPC   C3A65993  39.028  18.681   6.893
 5039POPC   C4A65994  39.292  18.824   7.138
 5039POPC   C1B65995  39.415  19.390   6.138
 5039POPC   C2B65996  39.413  19.578   6.559
 5039POPC   C3B65997  39.344  19.343   6.936
 5039POPC   C4B65998  39.389  19.274   7.353
 5040POPC   NC365999   3.720  12.346   5.468
 5040POPC   PO466000   3.154  11.932   5.344
 5040POPC   GL166001   3.314  12.160   5.781
 5040POPC   GL266002   3.695  12.068   5.915
 5040POPC   C1A66003   3.340  12.177   6.262
 5040POPC   D2A66004   3.512  12.164   6.698
 5040POPC   C3A66005   3.229  12.166   7.058
 5040POPC   C4A66006   3.148  11.847   7.348
 5040POPC   C1B66007   3.816  11.896   6.349
 5040POPC   C2B66008   3.663  11.662   6.720
 5040POPC   C3B66009   3.613  11.808   7.130
 5040POPC   C4B66010   3.814  11.777   7.514
 5041POPC   NC366011  41.773  20.848   5.646
 5041POPC   PO466012  41.113  20.587   5.455
 5041POPC   GL166013  41.412  20.422   5.765
 5041POPC   GL266014  41.783  20.389   5.827
 5041POPC   C1A66015  41.389  20.382   6.189
 5041POPC   D2A66016  41.478  20.274   6.582
 5041POPC   C3A66017  41.175  20.415   6.868
 5041POPC   C4A66018  41.308  20.416   7.283
 5041POPC   C1B66019  41.859  20.588   6.277
 5041POPC   C2B66020  41.907  20.576   6.750
 5041POPC   C3B66021  41.777  20.670   7.187
 5041POPC   C4B66022  41.941  20.904   7.587
 5042POPC   NC366023  21.675  35.110   5.246
 5042POPC   PO466024  21.107  35.263   5.356
 5042POPC   GL166025  21.388  35.247   5.696
 5042POPC   GL266026  21.173  35.443   5.904
 5042POPC   C1A66027  21.575  35.229   6.139
 5042POPC   D2A66028  21.424  35.068   6.521
 5042POPC   C3A66029  21.505  35.273   6.917
 5042POPC   C4A66030  21.296  35.209   7.288
 5042POPC   C1B66031  21.017  35.129   6.223
 5042POPC   C2B66032  20.928  34.889   6.655
 5042POPC   C3B66033  20.832  35.043   7.115
 5042POPC   C4B66034  20.840  35.448   7.404
 5043POPC   NC366035  10.020  16.655   5.486
 5043POPC   PO466036  10.506  16.812   5.661
 5043POPC   GL166037  10.123  16.773   5.973
 5043POPC   GL266038   9.823  16.515   5.948
 5043POPC   C1A66039   9.815  16.873   6.312
 5043POPC   D2A66040   9.578  16.695   6.659
 5043POPC   C3A66041   9.593  16.873   7.086
 5043POPC   C4A66042   9.769  17.300   7.176
 5043POPC   C1B66043   9.429  16.419   6.215
 5043POPC   C2B66044   9.229  16.336   6.633
 5043POPC   C3B66045   9.476  16.350   7.018
 5043POPC   C4B66046   9.451  16.471   7.453
 5044POPC   NC366047  36.320  40.284   5.461
 5044POPC   PO466048  35.868  39.762   5.324
 5044POPC   GL166049  35.960  39.959   5.732
 5044POPC   GL266050  36.199  39.737   5.838
 5044POPC   C1A66051  36.096  40.157   6.154
 5044POPC   D2A66052  36.170  40.383   6.576
 5044POPC   C3A66053  36.282  40.122   6.945
 5044POPC   C4A66054  36.097  40.115   7.376
 5044POPC   C1B66055  36.422  39.734   6.206
 5044POPC   C2B66056  36.524  39.760   6.622
 5044POPC   C3B66057  36.505  39.512   6.962
 5044POPC   C4B66058  36.515  39.768   7.279
 5045POPC   NC366059  24.877  41.636   5.374
 5045POPC   PO466060  24.239  41.323   5.358
 5045POPC   GL166061  24.520  41.385   5.704
 5045POPC   GL266062  24.644  41.710   5.813
 5045POPC   C1A66063  24.514  41.373   6.162
 5045POPC   D2A66064  24.714  41.291   6.536
 5045POPC   C3A66065  24.620  41.517   6.927
 5045POPC   C4A66066  24.468  41.438   7.381
 5045POPC   C1B66067  24.721  41.877   6.199
 5045POPC   C2B66068  24.911  41.757   6.559
 5045POPC   C3B66069  24.960  41.911   6.958
 5045POPC   C4B66070  24.672  41.902   7.280
 5046POPC   NC366071  34.146  35.628   5.116
 5046POPC   PO466072  34.685  35.221   5.328
 5046POPC   GL166073  34.733  35.137   5.776
 5046POPC   GL266074  34.421  34.954   5.874
 5046POPC   C1A66075  34.809  35.309   6.208
 5046POPC   D2A66076  34.866  35.608   6.595
 5046POPC   C3A66077  34.730  35.461   7.029
 5046POPC   C4A66078  34.577  35.028   7.183
 5046POPC   C1B66079  34.301  35.201   6.267
 5046POPC   C2B66080  34.390  35.223   6.719
 5046POPC   C3B66081  34.226  35.388   7.106
 5046POPC   C4B66082  34.246  35.194   7.537
 5047POPC   NC366083  36.331  38.832   5.344
 5047POPC   PO466084  35.875  38.390   5.472
 5047POPC   GL166085  36.183  38.509   5.756
 5047POPC   GL266086  36.521  38.348   5.759
 5047POPC   C1A66087  36.079  38.748   6.132
 5047POPC   D2A66088  36.263  38.834   6.547
 5047POPC   C3A66089  36.133  38.625   6.961
 5047POPC   C4A66090  36.242  38.658   7.445
 5047POPC   C1B66091  36.384  38.350   6.209
 5047POPC   C2B66092  36.024  38.331   6.531
 5047POPC   C3B66093  35.984  38.128   6.956
 5047POPC   C4B66094  36.316  38.199   7.261
 5048POPC   NC366095  23.434  17.559   5.495
 5048POPC   PO466096  24.010  17.387   5.471
 5048POPC   GL166097  23.804  17.510   5.860
 5048POPC   GL266098  23.528  17.287   5.922
 5048POPC   C1A66099  23.727  17.579   6.316
 5048POPC   D2A66100  23.748  17.382   6.735
 5048POPC   C3A66101  24.009  17.513   7.098
 5048POPC   C4A66102  24.218  17.734   7.468
 5048POPC   C1B66103  23.370  17.178   6.334
 5048POPC   C2B66104  23.437  16.974   6.744
 5048POPC   C3B66105  23.582  17.144   7.165
 5048POPC   C4B66106  23.452  17.280   7.609
 5049POPC   NC366107  42.852  34.775   5.362
 5049POPC   PO466108  43.429  34.545   5.531
 5049POPC   GL166109  43.230  34.301   5.819
 5049POPC   GL266110  42.943  34.520   5.795
 5049POPC   C1A66111  43.099  34.319   6.246
 5049POPC   D2A66112  43.008  34.638   6.561
 5049POPC   C3A66113  42.840  34.429   6.917
 5049POPC   C4A66114  43.119  34.270   7.228
 5049POPC   C1B66115  42.921  34.899   6.088
 5049POPC   C2B66116  42.811  35.119   6.491
 5049POPC   C3B66117  42.734  34.973   6.917
 5049POPC   C4B66118  42.997  34.783   7.233
 5050POPC   NC366119  28.797  17.196   5.631
 5050POPC   PO466120  28.314  16.905   5.317
 5050POPC   GL166121  28.418  16.825   5.749
 5050POPC   GL266122  28.296  16.512   5.698
 5050POPC   C1A66123  28.497  16.898   6.209
 5050POPC   D2A66124  28.477  17.010   6.654
 5050POPC   C3A66125  28.670  16.832   6.981
 5050POPC   C4A66126  28.640  16.639   7.369
 5050POPC   C1B66127  28.180  16.474   6.104
 5050POPC   C2B66128  28.105  16.675   6.485
 5050POPC   C3B66129  28.205  16.576   6.897
 5050POPC   C4B66130  28.152  16.801   7.271
 5051POPC   NC366131  39.053  41.665   5.409
 5051POPC   PO466132  39.583  41.193   5.562
 5051POPC   GL166133  39.465  41.572   5.847
 5051POPC   GL266134  39.128  41.737   5.888
 5051POPC   C1A66135  39.350  41.576   6.306
 5051POPC   D2A66136  39.571  41.553   6.681
 5051POPC   C3A66137  39.330  41.634   7.006
 5051POPC   C4A66138  39.406  41.889   7.290
 5051POPC   C1B66139  38.873  41.876   6.190
 5051POPC   C2B66140  38.861  41.708   6.573
 5051POPC   C3B66141  38.862  41.817   6.969
 5051POPC   C4B66142  38.924  41.766   7.359
 5052POPC   NC366143  24.617   6.767   5.302
 5052POPC   PO466144  25.287   6.748   5.313
 5052POPC   GL166145  25.247   6.608   5.763
 5052POPC   GL266146  25.530   6.376   5.784
 5052POPC   C1A66147  25.227   6.612   6.228
 5052POPC   D2A66148  25.474   6.691   6.590
 5052POPC   C3A66149  25.295   6.728   7.012
 5052POPC   C4A66150  24.892   6.655   7.225
 5052POPC   C1B66151  25.484   6.142   6.153
 5052POPC   C2B66152  25.642   6.016   6.561
 5052POPC   C3B66153  25.593   6.292   6.904
 5052POPC   C4B66154  25.788   6.364   7.283
 5053POPC   NC366155  36.995  28.228   4.893
 5053POPC   PO466156  36.895  28.732   5.409
 5053POPC   GL166157  36.955  28.498   5.779
 5053POPC   GL266158  37.122  28.191   5.716
 5053POPC   C1A66159  37.053  28.560   6.222
 5053POPC   D2A66160  37.193  28.369   6.592
 5053POPC   C3A66161  37.031  28.564   6.962
 5053POPC   C4A66162  36.686  28.474   7.251
 5053POPC   C1B66163  36.875  28.102   6.096
 5053POPC   C2B66164  36.637  28.075   6.447
 5053POPC   C3B66165  36.786  28.093   6.854
 5053POPC   C4B66166  36.580  27.990   7.229
 5054POPC   NC366167  12.691   0.727   5.300
 5054POPC   PO466168  12.064   0.523   5.415
 5054POPC   GL166169  12.175   0.447   5.851
 5054POPC   GL266170  11.834   0.307   5.903
 5054POPC   C1A66171  12.399   0.727   6.192
 5054POPC   D2A66172  12.370   0.787   6.633
 5054POPC   C3A66173  12.109   0.449   6.775
 5054POPC   C4A66174  12.088   0.237   7.145
 5054POPC   C1B66175  11.797   0.357   6.363
 5054POPC   C2B66176  11.689   0.064   6.720
 5054POPC   C3B66177  11.724  44.900   7.166
 5054POPC   C4B66178  11.765   0.177   7.559
 5055POPC   NC366179  26.597  30.923   5.577
 5055POPC   PO466180  26.707  31.559   5.356
 5055POPC   GL166181  26.780  31.368   5.767
 5055POPC   GL266182  27.091  31.204   5.801
 5055POPC   C1A66183  26.661  31.242   6.202
 5055POPC   D2A66184  26.729  31.166   6.657
 5055POPC   C3A66185  26.896  31.277   7.053
 5055POPC   C4A66186  26.658  31.609   7.247
 5055POPC   C1B66187  27.093  31.503   6.198
 5055POPC   C2B66188  27.175  31.533   6.679
 5055POPC   C3B66189  27.151  31.712   7.126
 5055POPC   C4B66190  27.019  31.750   7.598
 5056POPC   NC366191   6.572  16.326   5.385
 5056POPC   PO466192   6.834  17.009   5.430
 5056POPC   GL166193   6.776  16.729   5.788
 5056POPC   GL266194   6.428  16.584   5.830
 5056POPC   C1A66195   6.740  16.905   6.211
 5056POPC   D2A66196   6.503  16.784   6.584
 5056POPC   C3A66197   6.670  16.925   6.956
 5056POPC   C4A66198   6.297  16.938   7.159
 5056POPC   C1B66199   6.604  16.422   6.237
 5056POPC   C2B66200   6.936  16.522   6.536
 5056POPC   C3B66201   6.918  16.447   6.963
 5056POPC   C4B66202   6.528  16.460   7.184
 5057POPC   NC366203  25.995  38.675   5.482
 5057POPC   PO466204  26.335  38.260   5.608
 5057POPC   GL166205  26.133  38.524   5.972
 5057POPC   GL266206  25.846  38.770   5.953
 5057POPC   C1A66207  26.223  38.736   6.381
 5057POPC   D2A66208  26.227  39.022   6.773
 5057POPC   C3A66209  26.162  38.816   7.196
 5057POPC   C4A66210  26.344  38.804   7.648
 5057POPC   C1B66211  25.723  38.834   6.351
 5057POPC   C2B66212  25.845  38.690   6.745
 5057POPC   C3B66213  25.671  38.650   7.124
 5057POPC   C4B66214  25.346  38.527   7.432
 5058POPC   NC366215   1.885  21.197   5.576
 5058POPC   PO466216   1.541  21.752   5.416
 5058POPC   GL166217   1.934  21.696   5.687
 5058POPC   GL266218   1.808  21.508   5.985
 5058POPC   C1A66219   2.262  21.659   6.072
 5058POPC   D2A66220   2.222  21.430   6.491
 5058POPC   C3A66221   2.117  21.628   6.906
 5058POPC   C4A66222   2.141  21.435   7.312
 5058POPC   C1B66223   1.469  21.699   6.210
 5058POPC   C2B66224   1.420  21.623   6.637
 5058POPC   C3B66225   1.675  21.368   6.889
 5058POPC   C4B66226   1.659  21.564   7.256
 5059POPC   NC366227  32.601   1.584   5.463
 5059POPC   PO466228  32.055   1.079   5.407
 5059POPC   GL166229  32.269   1.055   5.765
 5059POPC   GL266230  32.287   1.402   5.834
 5059POPC   C1A66231  32.133   1.010   6.189
 5059POPC   D2A66232  32.251   0.983   6.631
 5059POPC   C3A66233  32.144   1.231   6.991
 5059POPC   C4A66234  32.078   1.131   7.446
 5059POPC   C1B66235  32.472   1.579   6.210
 5059POPC   C2B66236  32.522   1.492   6.663
 5059POPC   C3B66237  32.513   1.569   7.114
 5059POPC   C4B66238  32.342   1.584   7.551
 5060POPC   NC366239   3.694  39.485   5.553
 5060POPC   PO466240   3.330  39.025   5.179
 5060POPC   GL166241   3.497  39.046   5.690
 5060POPC   GL266242   3.722  39.006   5.922
 5060POPC   C1A66243   3.434  39.344   6.134
 5060POPC   D2A66244   3.511  39.467   6.578
 5060POPC   C3A66245   3.263  39.666   6.889
 5060POPC   C4A66246   3.393  39.449   7.289
 5060POPC   C1B66247   3.534  38.876   6.306
 5060POPC   C2B66248   3.815  39.048   6.601
 5060POPC   C3B66249   3.844  39.259   6.994
 5060POPC   C4B66250   3.710  38.979   7.297
 5061POPC   NC366251   0.331  18.847   5.410
 5061POPC   PO466252   0.936  18.944   5.363
 5061POPC   GL166253   0.619  19.166   5.701
 5061POPC   GL266254   0.224  19.242   5.722
 5061POPC   C1A66255   0.467  19.202   6.157
 5061POPC   D2A66256   0.344  18.988   6.546
 5061POPC   C3A66257   0.507  19.198   6.923
 5061POPC   C4A66258   0.470  19.124   7.369
 5061POPC   C1B66259   0.056  18.904   6.068
 5061POPC   C2B66260  44.903  18.691   6.467
 5061POPC   C3B66261   0.010  18.773   6.893
 5061POPC   C4B66262  44.855  18.660   7.300
 5062POPC   NC366263  42.986  19.682   5.389
 5062POPC   PO466264  43.029  20.347   5.429
 5062POPC   GL166265  43.123  20.111   5.828
 5062POPC   GL266266  42.970  19.755   5.889
 5062POPC   C1A66267  43.122  20.025   6.280
 5062POPC   D2A66268  43.340  19.894   6.624
 5062POPC   C3A66269  43.198  19.878   7.001
 5062POPC   C4A66270  43.146  20.081   7.368
 5062POPC   C1B66271  43.176  19.499   6.234
 5062POPC   C2B66272  43.247  19.377   6.673
 5062POPC   C3B66273  43.243  19.377   7.119
 5062POPC   C4B66274  42.983  19.591   7.373
 5063POPC   NC366275   2.548   4.696   5.507
 5063POPC   PO466276   2.794   4.052   5.587
 5063POPC   GL166277   2.691   4.343   5.872
 5063POPC   GL266278   2.998   4.443   5.846
 5063POPC   C1A66279   2.496   4.258   6.269
 5063POPC   D2A66280   2.503   3.948   6.586
 5063POPC   C3A66281   2.532   4.123   6.975
 5063POPC   C4A66282   2.859   4.061   7.213
 5063POPC   C1B66283   3.009   4.164   6.236
 5063POPC   C2B66284   2.882   4.306   6.643
 5063POPC   C3B66285   2.998   4.537   7.004
 5063POPC   C4B66286   3.223   4.398   7.306
 5064POPC   NC366287  38.029  19.337   5.561
 5064POPC   PO466288  38.429  19.886   5.489
 5064POPC   GL166289  38.564  19.899   5.878
 5064POPC   GL266290  38.258  19.723   5.960
 5064POPC   C1A66291  38.638  19.826   6.313
 5064POPC   D2A66292  38.397  19.779   6.678
 5064POPC   C3A66293  38.626  19.908   7.050
 5064POPC   C4A66294  38.589  19.838   7.511
 5064POPC   C1B66295  38.211  20.080   6.242
 5064POPC   C2B66296  38.316  20.290   6.602
 5064POPC   C3B66297  38.221  20.286   7.012
 5064POPC   C4B66298  38.138  19.868   7.126
 5065POPC   NC366299  12.027  41.258   5.286
 5065POPC   PO466300  12.248  41.844   5.405
 5065POPC   GL166301  12.203  41.545   5.735
 5065POPC   GL266302  11.908  41.431   5.783
 5065POPC   C1A66303  12.277  41.413   6.156
 5065POPC   D2A66304  12.243  41.153   6.520
 5065POPC   C3A66305  12.427  41.277   6.891
 5065POPC   C4A66306  12.281  41.607   7.148
 5065POPC   C1B66307  11.768  41.471   6.210
 5065POPC   C2B66308  11.986  41.584   6.593
 5065POPC   C3B66309  11.896  41.831   6.922
 5065POPC   C4B66310  11.720  41.699   7.231
 5066POPC   NC366311   5.137  28.599   5.326
 5066POPC   PO466312   5.402  28.108   5.340
 5066POPC   GL166313   5.269  28.284   5.774
 5066POPC   GL266314   5.066  28.599   5.841
 5066POPC   C1A66315   5.241  28.166   6.241
 5066POPC   D2A66316   5.210  28.356   6.698
 5066POPC   C3A66317   5.349  28.145   7.116
 5066POPC   C4A66318   5.365  28.099   7.599
 5066POPC   C1B66319   4.981  28.626   6.287
 5066POPC   C2B66320   5.075  28.878   6.663
 5066POPC   C3B66321   5.070  28.723   7.083
 5066POPC   C4B66322   4.675  28.632   7.259
 5067POPC   NC366323   0.436  25.036   5.483
 5067POPC   PO466324   0.253  25.818   5.441
 5067POPC   GL166325   0.444  25.498   5.685
 5067POPC   GL266326   0.140  25.313   5.829
 5067POPC   C1A66327   0.571  25.380   6.107
 5067POPC   D2A66328   0.740  25.302   6.498
 5067POPC   C3A66329   0.582  25.585   6.826
 5067POPC   C4A66330   0.398  25.764   7.225
 5067POPC   C1B66331   0.117  25.133   6.271
 5067POPC   C2B66332   0.301  25.145   6.695
 5067POPC   C3B66333   0.652  25.096   6.986
 5067POPC   C4B66334   0.388  25.266   7.274
 5068POPC   NC366335  26.643  40.108   5.490
 5068POPC   PO466336  27.185  40.310   5.547
 5068POPC   GL166337  27.019  40.146   5.937
 5068POPC   GL266338  26.802  39.857   5.900
 5068POPC   C1A66339  26.994  40.140   6.397
 5068POPC   D2A66340  26.921  40.333   6.792
 5068POPC   C3A66341  26.965  40.036   7.166
 5068POPC   C4A66342  27.190  39.869   7.557
 5068POPC   C1B66343  26.542  40.097   6.173
 5068POPC   C2B66344  26.424  39.951   6.586
 5068POPC   C3B66345  26.434  39.890   7.039
 5068POPC   C4B66346  26.395  40.097   7.433
 5069POPC   NC366347   6.047  37.071   5.432
 5069POPC   PO466348   6.085  36.342   5.379
 5069POPC   GL166349   6.033  36.657   5.763
 5069POPC   GL266350   5.668  36.718   5.816
 5069POPC   C1A66351   6.102  36.863   6.208
 5069POPC   D2A66352   5.894  36.892   6.646
 5069POPC   C3A66353   5.987  37.059   7.076
 5069POPC   C4A66354   5.898  36.821   7.481
 5069POPC   C1B66355   5.625  36.609   6.263
 5069POPC   C2B66356   5.403  36.695   6.673
 5069POPC   C3B66357   5.569  36.721   7.098
 5069POPC   C4B66358   5.378  36.781   7.526
 5070POPC   NC366359   7.721  36.729   5.352
 5070POPC   PO466360   7.065  36.533   5.322
 5070POPC   GL166361   7.358  36.733   5.693
 5070POPC   GL266362   7.657  36.543   5.824
 5070POPC   C1A66363   7.560  36.971   6.075
 5070POPC   D2A66364   7.611  36.822   6.501
 5070POPC   C3A66365   7.413  37.063   6.829
 5070POPC   C4A66366   7.553  37.049   7.245
 5070POPC   C1B66367   7.316  36.529   6.168
 5070POPC   C2B66368   7.160  36.584   6.592
 5070POPC   C3B66369   7.433  36.567   6.962
 5070POPC   C4B66370   7.363  36.598   7.436
 5071POPC   NC366371  16.485  25.623   5.446
 5071POPC   PO466372  16.880  24.980   5.467
 5071POPC   GL166373  16.836  25.322   5.724
 5071POPC   GL266374  16.523  25.265   5.824
 5071POPC   C1A66375  16.865  25.381   6.198
 5071POPC   D2A66376  17.060  25.536   6.610
 5071POPC   C3A66377  16.840  25.451   7.010
 5071POPC   C4A66378  16.924  25.593   7.429
 5071POPC   C1B66379  16.413  25.115   6.235
 5071POPC   C2B66380  16.564  25.188   6.668
 5071POPC   C3B66381  16.375  25.063   7.093
 5071POPC   C4B66382  16.687  25.135   7.408
 5072POPC   NC366383  12.565   3.042   5.669
 5072POPC   PO466384  13.034   2.733   5.270
 5072POPC   GL166385  13.127   2.737   5.728
 5072POPC   GL266386  12.927   2.502   5.877
 5072POPC   C1A66387  13.071   2.921   6.178
 5072POPC   D2A66388  12.900   2.912   6.619
 5072POPC   C3A66389  13.170   2.941   6.997
 5072POPC   C4A66390  13.181   2.646   7.341
 5072POPC   C1B66391  12.630   2.641   6.217
 5072POPC   C2B66392  12.462   2.632   6.628
 5072POPC   C3B66393  12.484   2.895   6.940
 5072POPC   C4B66394  12.698   2.724   7.237
 5073POPC   NC366395  20.781  17.926   5.643
 5073POPC   PO466396  20.474  17.305   5.465
 5073POPC   GL166397  20.502  17.558   5.874
 5073POPC   GL266398  20.180  17.662   6.039
 5073POPC   C1A66399  20.677  17.715   6.287
 5073POPC   D2A66400  20.551  17.629   6.720
 5073POPC   C3A66401  20.911  17.530   6.997
 5073POPC   C4A66402  20.939  17.578   7.467
 5073POPC   C1B66403  20.348  17.321   6.298
 5073POPC   C2B66404  20.400  17.088   6.669
 5073POPC   C3B66405  20.499  17.248   7.067
 5073POPC   C4B66406  20.504  17.346   7.516
 5074POPC   NC366407   0.267  14.893   5.474
 5074POPC   PO466408   0.556  15.443   5.377
 5074POPC   GL166409   0.359  15.319   5.792
 5074POPC   GL266410   0.120  15.496   6.006
 5074POPC   C1A66411   0.294  15.025   6.171
 5074POPC   D2A66412   0.573  14.917   6.543
 5074POPC   C3A66413   0.558  15.198   6.921
 5074POPC   C4A66414   0.289  15.018   7.214
 5074POPC   C1B66415   0.184  15.475   6.447
 5074POPC   C2B66416   0.064  15.328   6.854
 5074POPC   C3B66417   0.152  15.549   7.231
 5074POPC   C4B66418   0.188  15.510   7.709
 5075POPC   NC366419  38.087  40.006   5.440
 5075POPC   PO466420  37.473  40.271   5.266
 5075POPC   GL166421  37.547  40.037   5.663
 5075POPC   GL266422  37.306  40.282   5.788
 5075POPC   C1A66423  37.805  39.886   6.052
 5075POPC   D2A66424  37.922  39.613   6.419
 5075POPC   C3A66425  37.855  39.692   6.868
 5075POPC   C4A66426  37.910  39.820   7.325
 5075POPC   C1B66427  37.320  39.999   6.135
 5075POPC   C2B66428  37.463  39.825   6.512
 5075POPC   C3B66429  37.423  39.975   6.901
 5075POPC   C4B66430  37.424  40.191   7.256
 5076POPC   NC366431  17.240  24.299   5.500
 5076POPC   PO466432  17.730  24.826   5.435
 5076POPC   GL166433  17.602  24.562   5.782
 5076POPC   GL266434  17.265  24.732   5.751
 5076POPC   C1A66435  17.510  24.228   6.133
 5076POPC   D2A66436  17.633  24.103   6.576
 5076POPC   C3A66437  17.626  24.234   7.028
 5076POPC   C4A66438  17.795  24.603   7.255
 5076POPC   C1B66439  17.280  24.675   6.166
 5076POPC   C2B66440  17.387  24.567   6.568
 5076POPC   C3B66441  17.206  24.516   6.963
 5076POPC   C4B66442  17.310  24.503   7.394
 5077POPC   NC366443  43.993   9.282   5.369
 5077POPC   PO466444  43.528   8.871   5.485
 5077POPC   GL166445  43.820   9.038   5.794
 5077POPC   GL266446  44.049   8.752   5.858
 5077POPC   C1A66447  43.757   9.181   6.232
 5077POPC   D2A66448  43.864   9.185   6.680
 5077POPC   C3A66449  43.671   8.869   6.952
 5077POPC   C4A66450  43.660   8.829   7.392
 5077POPC   C1B66451  44.222   8.927   6.267
 5077POPC   C2B66452  44.301   8.839   6.729
 5077POPC   C3B66453  44.149   8.737   7.165
 5077POPC   C4B66454  44.099   8.967   7.565
 5078POPC   NC366455  43.429  30.298   5.442
 5078POPC   PO466456  42.981  29.829   5.484
 5078POPC   GL166457  43.142  29.787   5.889
 5078POPC   GL266458  43.355  30.094   5.924
 5078POPC   C1A66459  43.001  29.840   6.322
 5078POPC   D2A66460  43.021  30.088   6.708
 5078POPC   C3A66461  43.001  29.815   7.037
 5078POPC   C4A66462  43.159  29.842   7.433
 5078POPC   C1B66463  43.441  30.105   6.366
 5078POPC   C2B66464  43.657  30.136   6.749
 5078POPC   C3B66465  43.371  30.254   7.072
 5078POPC   C4B66466  42.929  30.281   7.234
 5079POPC   NC366467  26.545   9.093   5.671
 5079POPC   PO466468  26.813   8.632   5.361
 5079POPC   GL166469  26.932   8.839   5.867
 5079POPC   GL266470  27.083   9.139   5.959
 5079POPC   C1A66471  26.772   8.951   6.330
 5079POPC   D2A66472  26.393   8.997   6.598
 5079POPC   C3A66473  26.402   9.234   6.987
 5079POPC   C4A66474  26.549   9.039   7.370
 5079POPC   C1B66475  27.267   8.807   6.271
 5079POPC   C2B66476  27.113   8.754   6.676
 5079POPC   C3B66477  26.834   8.915   6.948
 5079POPC   C4B66478  27.089   9.063   7.249
 5080POPC   NC366479   0.592   4.020   5.427
 5080POPC   PO466480   1.205   4.409   5.463
 5080POPC   GL166481   1.082   4.320   5.836
 5080POPC   GL266482   1.402   4.306   5.968
 5080POPC   C1A66483   0.935   4.498   6.198
 5080POPC   D2A66484   1.091   4.572   6.583
 5080POPC   C3A66485   1.190   4.242   6.835
 5080POPC   C4A66486   1.084   4.411   7.203
 5080POPC   C1B66487   1.348   4.041   6.340
 5080POPC   C2B66488   1.578   3.883   6.699
 5080POPC   C3B66489   1.661   4.135   7.056
 5080POPC   C4B66490   1.586   4.448   7.355
 5081POPC   NC366491  19.436  30.568   5.463
 5081POPC   PO466492  18.874  31.057   5.441
 5081POPC   GL166493  19.118  30.859   5.750
 5081POPC   GL266494  19.447  31.011   5.765
 5081POPC   C1A66495  19.134  30.573   6.112
 5081POPC   D2A66496  18.939  30.649   6.507
 5081POPC   C3A66497  18.977  30.400   6.883
 5081POPC   C4A66498  19.022  30.498   7.325
 5081POPC   C1B66499  19.582  30.856   6.188
 5081POPC   C2B66500  19.476  30.578   6.559
 5081POPC   C3B66501  19.424  30.640   7.016
 5081POPC   C4B66502  19.547  30.880   7.382
 5082POPC   NC366503  39.574  37.549   5.554
 5082POPC   PO466504  40.195  37.495   5.450
 5082POPC   GL166505  40.084  37.762   5.774
 5082POPC   GL266506  39.947  37.504   5.924
 5082POPC   C1A66507  40.009  37.924   6.196
 5082POPC   D2A66508  39.864  37.701   6.553
 5082POPC   C3A66509  40.025  37.799   6.962
 5082POPC   C4A66510  39.828  37.992   7.305
 5082POPC   C1B66511  40.202  37.408   6.286
 5082POPC   C2B66512  40.314  37.286   6.694
 5082POPC   C3B66513  40.238  37.316   7.120
 5082POPC   C4B66514  40.111  37.602   7.440
 5083POPC   NC366515  14.556   1.103   5.528
 5083POPC   PO466516  14.616   0.437   5.398
 5083POPC   GL166517  14.771   0.728   5.812
 5083POPC   GL266518  14.797   1.131   5.961
 5083POPC   C1A66519  14.640   0.772   6.252
 5083POPC   D2A66520  14.609   1.078   6.569
 5083POPC   C3A66521  14.315   1.011   6.890
 5083POPC   C4A66522  14.536   1.264   7.153
 5083POPC   C1B66523  14.453   1.384   6.174
 5083POPC   C2B66524  14.222   1.424   6.586
 5083POPC   C3B66525  14.083   1.467   7.021
 5083POPC   C4B66526  14.092   1.686   7.423
 5084POPC   NC366527  39.061  34.404   5.572
 5084POPC   PO466528  39.691  34.597   5.488
 5084POPC   GL166529  39.418  34.646   5.849
 5084POPC   GL266530  39.096  34.860   5.801
 5084POPC   C1A66531  39.216  34.438   6.232
 5084POPC   D2A66532  39.169  34.180   6.625
 5084POPC   C3A66533  39.144  34.459   6.986
 5084POPC   C4A66534  39.490  34.618   7.256
 5084POPC   C1B66535  39.276  34.956   6.206
 5084POPC   C2B66536  39.218  34.835   6.616
 5084POPC   C3B66537  39.238  35.026   7.002
 5084POPC   C4B66538  39.027  34.848   7.313
 5085POPC   NC366539  19.722  28.984   5.361
 5085POPC   PO466540  20.275  29.197   5.582
 5085POPC   GL166541  19.933  29.068   5.864
 5085POPC   GL266542  19.578  29.045   5.857
 5085POPC   C1A66543  19.820  29.043   6.313
 5085POPC   D2A66544  20.105  29.152   6.585
 5085POPC   C3A66545  20.167  28.966   7.003
 5085POPC   C4A66546  20.044  29.119   7.425
 5085POPC   C1B66547  19.443  29.362   6.234
 5085POPC   C2B66548  19.677  29.502   6.582
 5085POPC   C3B66549  19.692  29.204   6.865
 5085POPC   C4B66550  19.497  29.083   7.226
 5086POPC   NC366551  23.816  30.897   5.140
 5086POPC   PO466552  23.584  30.447   5.615
 5086POPC   GL166553  23.638  30.870   5.765
 5086POPC   GL266554  23.935  30.785   5.988
 5086POPC   C1A66555  23.481  30.960   6.150
 5086POPC   D2A66556  23.613  30.742   6.473
 5086POPC   C3A66557  23.421  30.782   6.851
 5086POPC   C4A66558  23.494  30.633   7.257
 5086POPC   C1B66559  24.044  30.494   6.333
 5086POPC   C2B66560  23.937  30.536   6.801
 5086POPC   C3B66561  23.968  30.826   7.155
 5086POPC   C4B66562  24.049  30.778   7.610
 5087POPC   NC366563  43.287   9.294   5.414
 5087POPC   PO466564  42.727   8.799   5.398
 5087POPC   GL166565  42.984   8.989   5.713
 5087POPC   GL266566  42.854   9.288   5.901
 5087POPC   C1A66567  43.105   8.874   6.152
 5087POPC   D2A66568  43.216   9.061   6.580
 5087POPC   C3A66569  43.123   8.911   7.026
 5087POPC   C4A66570  42.813   8.767   7.339
 5087POPC   C1B66571  43.274   9.377   6.115
 5087POPC   C2B66572  43.463   9.509   6.542
 5087POPC   C3B66573  43.426   9.335   6.962
 5087POPC   C4B66574  43.089   9.369   7.289
 5088POPC   NC366575  28.950  24.969   5.503
 5088POPC   PO466576  28.955  25.616   5.506
 5088POPC   GL166577  28.830  25.351   5.879
 5088POPC   GL266578  28.715  24.980   5.953
 5088POPC   C1A66579  28.948  25.409   6.304
 5088POPC   D2A66580  29.276  25.413   6.584
 5088POPC   C3A66581  29.085  25.496   6.963
 5088POPC   C4A66582  28.959  25.142   7.199
 5088POPC   C1B66583  29.105  24.928   6.176
 5088POPC   C2B66584  29.313  24.859   6.575
 5088POPC   C3B66585  29.409  25.067   6.959
 5088POPC   C4B66586  29.571  25.148   7.383
 5089POPC   NC366587  13.991  32.047   5.336
 5089POPC   PO466588  14.243  32.514   5.467
 5089POPC   GL166589  14.197  32.366   5.902
 5089POPC   GL266590  13.938  32.103   5.856
 5089POPC   C1A66591  14.379  32.363   6.351
 5089POPC   D2A66592  14.280  32.363   6.816
 5089POPC   C3A66593  14.581  32.291   7.148
 5089POPC   C4A66594  14.616  32.105   7.594
 5089POPC   C1B66595  14.222  31.906   6.159
 5089POPC   C2B66596  14.354  31.891   6.597
 5089POPC   C3B66597  14.225  31.901   7.032
 5089POPC   C4B66598  14.295  31.727   7.445
 5090POPC   NC366599  20.532  34.025   5.270
 5090POPC   PO466600  20.560  34.617   5.479
 5090POPC   GL166601  20.756  34.450   5.835
 5090POPC   GL266602  20.918  34.130   5.680
 5090POPC   C1A66603  20.675  34.507   6.300
 5090POPC   D2A66604  20.537  34.327   6.729
 5090POPC   C3A66605  20.564  34.585   7.104
 5090POPC   C4A66606  20.606  34.650   7.548
 5090POPC   C1B66607  21.073  34.173   6.107
 5090POPC   C2B66608  21.028  34.280   6.566
 5090POPC   C3B66609  21.019  34.401   6.976
 5090POPC   C4B66610  20.901  34.281   7.371
 5091POPC   NC366611  37.694  40.704   5.290
 5091POPC   PO466612  37.346  41.171   5.683
 5091POPC   GL166613  37.583  40.808   5.873
 5091POPC   GL266614  37.769  40.501   5.743
 5091POPC   C1A66615  37.917  40.886   6.207
 5091POPC   D2A66616  38.086  41.126   6.612
 5091POPC   C3A66617  37.924  40.989   7.040
 5091POPC   C4A66618  37.634  40.947   7.438
 5091POPC   C1B66619  37.691  40.383   6.168
 5091POPC   C2B66620  37.831  40.148   6.530
 5091POPC   C3B66621  37.891  40.201   6.977
 5091POPC   C4B66622  37.826  40.520   7.250
 5092POPC   NC366623  15.703  44.517   5.531
 5092POPC   PO466624  16.240  44.905   5.492
 5092POPC   GL166625  16.171  44.985   5.915
 5092POPC   GL266626  15.908  44.744   5.940
 5092POPC   C1A66627  16.272  44.806   6.338
 5092POPC   D2A66628  16.439  44.435   6.530
 5092POPC   C3A66629  16.204  44.294   6.877
 5092POPC   C4A66630  16.255  44.367   7.296
 5092POPC   C1B66631  15.646  44.626   6.284
 5092POPC   C2B66632  15.870  44.655   6.668
 5092POPC   C3B66633  15.965  44.735   7.074
 5092POPC   C4B66634  15.659  44.866   7.356
 5093POPC   NC366635  32.475  30.195   5.458
 5093POPC   PO466636  31.914  29.695   5.460
 5093POPC   GL166637  32.154  29.959   5.777
 5093POPC   GL266638  31.910  30.189   5.891
 5093POPC   C1A66639  32.408  30.087   6.183
 5093POPC   D2A66640  32.683  30.282   6.531
 5093POPC   C3A66641  32.520  30.107   6.890
 5093POPC   C4A66642  32.516  29.679   7.061
 5093POPC   C1B66643  31.937  29.866   6.219
 5093POPC   C2B66644  32.159  29.869   6.608
 5093POPC   C3B66645  32.020  29.788   7.024
 5093POPC   C4B66646  32.129  29.590   7.402
 5094POPC   NC366647   3.510   2.683   5.345
 5094POPC   PO466648   3.701   3.359   5.333
 5094POPC   GL166649   3.590   3.133   5.768
 5094POPC   GL266650   3.376   2.858   5.805
 5094POPC   C1A66651   3.411   3.151   6.236
 5094POPC   D2A66652   3.424   2.975   6.701
 5094POPC   C3A66653   3.489   2.956   7.188
 5094POPC   C4A66654   3.415   2.576   7.467
 5094POPC   C1B66655   3.617   2.693   6.166
 5094POPC   C2B66656   3.536   2.458   6.562
 5094POPC   C3B66657   3.668   2.515   6.991
 5094POPC   C4B66658   3.910   2.702   7.337
 5095POPC   NC366659  13.044   6.949   5.429
 5095POPC   PO466660  12.782   7.476   5.301
 5095POPC   GL166661  12.908   7.344   5.713
 5095POPC   GL266662  13.179   7.561   5.719
 5095POPC   C1A66663  13.026   7.252   6.151
 5095POPC   D2A66664  12.973   7.359   6.606
 5095POPC   C3A66665  13.062   7.121   6.993
 5095POPC   C4A66666  12.757   6.895   7.241
 5095POPC   C1B66667  13.292   7.687   6.135
 5095POPC   C2B66668  13.425   7.566   6.535
 5095POPC   C3B66669  13.305   7.669   6.957
 5095POPC   C4B66670  13.177   7.513   7.341
 5096POPC   NC366671   6.113  39.395   5.337
 5096POPC   PO466672   5.606  38.823   5.390
 5096POPC   GL166673   5.645  39.059   5.788
 5096POPC   GL266674   5.998  39.208   5.788
 5096POPC   C1A66675   5.770  39.174   6.236
 5096POPC   D2A66676   5.821  39.582   6.462
 5096POPC   C3A66677   5.655  39.557   6.870
 5096POPC   C4A66678   5.758  39.361   7.231
 5096POPC   C1B66679   6.208  39.498   6.081
 5096POPC   C2B66680   6.330  39.416   6.509
 5096POPC   C3B66681   6.120  39.245   6.851
 5096POPC   C4B66682   6.279  39.348   7.228
 5097POPC   NC366683   4.856  32.537   5.387
 5097POPC   PO466684   5.330  31.972   5.569
 5097POPC   GL166685   5.051  32.215   5.833
 5097POPC   GL266686   5.179  32.524   5.835
 5097POPC   C1A66687   4.974  32.036   6.240
 5097POPC   D2A66688   4.924  32.202   6.638
 5097POPC   C3A66689   4.788  31.982   6.998
 5097POPC   C4A66690   5.083  32.161   7.254
 5097POPC   C1B66691   5.000  32.552   6.252
 5097POPC   C2B66692   5.069  32.771   6.655
 5097POPC   C3B66693   5.219  32.643   7.102
 5097POPC   C4B66694   5.306  32.517   7.563
 5098POPC   NC366695  38.570   5.493   5.103
 5098POPC   PO466696  38.396   4.889   5.388
 5098POPC   GL166697  38.580   5.017   5.766
 5098POPC   GL266698  38.707   5.261   5.641
 5098POPC   C1A66699  38.544   4.955   6.208
 5098POPC   D2A66700  38.395   5.027   6.656
 5098POPC   C3A66701  38.476   4.935   7.111
 5098POPC   C4A66702  38.227   5.158   7.502
 5098POPC   C1B66703  38.934   5.233   6.072
 5098POPC   C2B66704  38.953   5.074   6.487
 5098POPC   C3B66705  38.841   5.255   6.878
 5098POPC   C4B66706  38.664   5.365   7.305
 5099POPC   NC366707   9.978  42.825   5.652
 5099POPC   PO466708   9.718  43.478   5.467
 5099POPC   GL166709   9.773  43.255   5.845
 5099POPC   GL266710  10.125  43.327   5.780
 5099POPC   C1A66711   9.923  43.029   6.250
 5099POPC   D2A66712  10.007  42.786   6.625
 5099POPC   C3A66713   9.608  42.816   6.840
 5099POPC   C4A66714   9.482  42.955   7.232
 5099POPC   C1B66715  10.086  43.514   6.169
 5099POPC   C2B66716   9.787  43.471   6.483
 5099POPC   C3B66717   9.875  43.255   6.850
 5099POPC   C4B66718   9.799  43.379   7.234
 5100POPC   NC366719  32.425  12.488   5.364
 5100POPC   PO466720  32.250  13.098   5.452
 5100POPC   GL166721  32.324  12.935   5.874
 5100POPC   GL266722  32.388  12.596   5.862
 5100POPC   C1A66723  32.248  12.828   6.321
 5100POPC   D2A66724  31.973  12.986   6.630
 5100POPC   C3A66725  32.244  12.996   6.951
 5100POPC   C4A66726  32.597  12.891   7.197
 5100POPC   C1B66727  32.033  12.419   6.103
 5100POPC   C2B66728  32.080  12.367   6.553
 5100POPC   C3B66729  32.008  12.248   6.989
 5100POPC   C4B66730  32.106  12.605   7.258
 5101POPC   NC366731  27.099   5.850   5.279
 5101POPC   PO466732  26.542   6.113   5.605
 5101POPC   GL166733  26.904   5.955   5.775
 5101POPC   GL266734  26.745   5.648   5.846
 5101POPC   C1A66735  26.976   6.012   6.209
 5101POPC   D2A66736  26.652   6.121   6.470
 5101POPC   C3A66737  26.657   5.893   6.809
 5101POPC   C4A66738  26.830   5.929   7.200
 5101POPC   C1B66739  26.654   5.590   6.313
 5101POPC   C2B66740  26.412   5.435   6.696
 5101POPC   C3B66741  26.356   5.635   7.122
 5101POPC   C4B66742  26.496   5.721   7.593
 5102POPC   NC366743  24.600  10.825   5.547
 5102POPC   PO466744  24.884  11.411   5.430
 5102POPC   GL166745  24.812  11.587   5.825
 5102POPC   GL266746  24.576  11.318   5.904
 5102POPC   C1A66747  24.792  11.597   6.296
 5102POPC   D2A66748  24.574  11.565   6.697
 5102POPC   C3A66749  24.733  11.397   7.102
 5102POPC   C4A66750  24.478  11.540   7.427
 5102POPC   C1B66751  24.535  11.149   6.350
 5102POPC   C2B66752  24.418  11.088   6.813
 5102POPC   C3B66753  24.243  11.086   7.253
 5102POPC   C4B66754  24.191  10.766   7.620
 5103POPC   NC366755  26.624  12.985   5.503
 5103POPC   PO466756  27.126  12.576   5.257
 5103POPC   GL166757  27.107  12.767   5.758
 5103POPC   GL266758  27.014  13.082   5.877
 5103POPC   C1A66759  26.990  12.692   6.281
 5103POPC   D2A66760  27.043  12.630   6.811
 5103POPC   C3A66761  26.745  12.698   7.211
 5103POPC   C4A66762  26.614  12.606   7.723
 5103POPC   C1B66763  26.651  13.140   6.167
 5103POPC   C2B66764  26.507  13.210   6.613
 5103POPC   C3B66765  26.794  13.189   6.970
 5103POPC   C4B66766  27.106  13.060   7.234
 5104POPC   NC366767  28.231   2.324   5.475
 5104POPC   PO466768  28.678   1.767   5.350
 5104POPC   GL166769  28.503   1.975   5.772
 5104POPC   GL266770  28.611   2.356   5.830
 5104POPC   C1A66771  28.452   1.788   6.215
 5104POPC   D2A66772  28.704   1.710   6.606
 5104POPC   C3A66773  28.530   1.707   6.998
 5104POPC   C4A66774  28.641   1.690   7.437
 5104POPC   C1B66775  28.389   2.306   6.223
 5104POPC   C2B66776  28.298   2.099   6.623
 5104POPC   C3B66777  28.579   2.222   6.901
 5104POPC   C4B66778  28.582   2.391   7.295
 5105POPC   NC366779   2.888   1.149   5.059
 5105POPC   PO466780   2.246   1.280   5.350
 5105POPC   GL166781   2.586   1.221   5.666
 5105POPC   GL266782   2.658   1.547   5.856
 5105POPC   C1A66783   2.751   1.095   6.085
 5105POPC   D2A66784   2.710   1.216   6.495
 5105POPC   C3A66785   2.881   0.987   6.837
 5105POPC   C4A66786   2.986   0.775   7.201
 5105POPC   C1B66787   3.006   1.537   6.172
 5105POPC   C2B66788   3.186   1.405   6.606
 5105POPC   C3B66789   3.070   1.444   7.065
 5105POPC   C4B66790   2.967   1.830   7.297
 5106POPC   NC366791  17.675  30.198   5.394
 5106POPC   PO466792  17.220  29.624   5.430
 5106POPC   GL166793  17.369  29.899   5.734
 5106POPC   GL266794  17.683  29.802   5.758
 5106POPC   C1A66795  17.321  29.830   6.188
 5106POPC   D2A66796  17.244  29.698   6.602
 5106POPC   C3A66797  17.384  29.711   7.008
 5106POPC   C4A66798  17.291  30.057   7.239
 5106POPC   C1B66799  17.746  30.076   6.084
 5106POPC   C2B66800  17.746  29.939   6.503
 5106POPC   C3B66801  17.753  30.126   6.893
 5106POPC   C4B66802  17.795  29.979   7.284
 5107POPC   NC366803   3.816  36.293   5.418
 5107POPC   PO466804   3.215  35.980   5.411
 5107POPC   GL166805   3.453  36.139   5.747
 5107POPC   GL266806   3.389  36.473   5.768
 5107POPC   C1A66807   3.666  36.144   6.131
 5107POPC   D2A66808   3.699  35.873   6.481
 5107POPC   C3A66809   3.546  35.986   6.868
 5107POPC   C4A66810   3.833  35.999   7.195
 5107POPC   C1B66811   3.452  36.613   6.165
 5107POPC   C2B66812   3.504  36.404   6.559
 5107POPC   C3B66813   3.335  36.462   6.974
 5107POPC   C4B66814   3.343  36.359   7.399
 5108POPC   NC366815  10.016  10.727   5.324
 5108POPC   PO466816  10.643  10.642   5.270
 5108POPC   GL166817  10.576  10.471   5.723
 5108POPC   GL266818  10.293  10.644   5.778
 5108POPC   C1A66819  10.418  10.361   6.171
 5108POPC   D2A66820  10.236  10.428   6.620
 5108POPC   C3A66821  10.545  10.376   6.949
 5108POPC   C4A66822  10.954  10.392   7.199
 5108POPC   C1B66823  10.144  10.801   6.208
 5108POPC   C2B66824  10.234  10.969   6.623
 5108POPC   C3B66825  10.233  10.783   7.033
 5108POPC   C4B66826  10.538  10.677   7.359
 5109POPC   NC366827   6.045   6.383   5.303
 5109POPC   PO466828   5.649   6.860   5.178
 5109POPC   GL166829   5.691   6.718   5.662
 5109POPC   GL266830   5.811   6.382   5.757
 5109POPC   C1A66831   5.692   6.691   6.148
 5109POPC   D2A66832   6.013   6.693   6.489
 5109POPC   C3A66833   5.891   6.741   6.956
 5109POPC   C4A66834   6.044   6.999   7.290
 5109POPC   C1B66835   6.183   6.417   6.043
 5109POPC   C2B66836   6.292   6.241   6.443
 5109POPC   C3B66837   6.212   6.349   6.865
 5109POPC   C4B66838   6.238   6.112   7.243
 5110POPC   NC366839  35.087  35.453   5.392
 5110POPC   PO466840  35.709  35.824   5.369
 5110POPC   GL166841  35.416  35.636   5.735
 5110POPC   GL266842  35.353  35.273   5.797
 5110POPC   C1A66843  35.231  35.598   6.172
 5110POPC   D2A66844  35.438  35.644   6.572
 5110POPC   C3A66845  35.248  35.537   6.964
 5110POPC   C4A66846  35.445  35.489   7.365
 5110POPC   C1B66847  35.306  35.055   6.180
 5110POPC   C2B66848  35.164  35.183   6.563
 5110POPC   C3B66849  35.026  35.049   6.925
 5110POPC   C4B66850  35.290  35.028   7.242
 5111POPC   NC366851  21.892  15.712   5.357
 5111POPC   PO466852  21.249  15.835   5.294
 5111POPC   GL166853  21.359  15.770   5.704
 5111POPC   GL266854  21.132  16.023   5.785
 5111POPC   C1A66855  21.535  15.847   6.130
 5111POPC   D2A66856  21.687  15.702   6.536
 5111POPC   C3A66857  21.479  15.872   6.899
 5111POPC   C4A66858  21.485  16.072   7.312
 5111POPC   C1B66859  21.016  15.767   6.108
 5111POPC   C2B66860  21.186  15.635   6.496
 5111POPC   C3B66861  21.044  15.609   6.947
 5111POPC   C4B66862  21.107  15.736   7.369
 5112POPC   NC366863  17.210  11.971   5.486
 5112POPC   PO466864  16.506  11.890   5.500
 5112POPC   GL166865  16.582  11.825   5.890
 5112POPC   GL266866  16.833  12.116   5.874
 5112POPC   C1A66867  16.406  11.946   6.276
 5112POPC   D2A66868  16.572  12.242   6.574
 5112POPC   C3A66869  16.520  12.115   7.004
 5112POPC   C4A66870  16.766  12.324   7.282
 5112POPC   C1B66871  16.908  11.924   6.276
 5112POPC   C2B66872  16.871  11.763   6.690
 5112POPC   C3B66873  17.021  11.815   7.104
 5112POPC   C4B66874  16.919  11.895   7.514
 5113POPC   NC366875  14.203  24.176   5.397
 5113POPC   PO466876  14.704  24.524   5.269
 5113POPC   GL166877  14.513  24.452   5.711
 5113POPC   GL266878  14.680  24.187   5.816
 5113POPC   C1A66879  14.583  24.470   6.217
 5113POPC   D2A66880  14.688  24.267   6.626
 5113POPC   C3A66881  14.628  24.355   7.095
 5113POPC   C4A66882  14.290  24.631   7.262
 5113POPC   C1B66883  14.216  24.174   6.035
 5113POPC   C2B66884  14.163  24.104   6.459
 5113POPC   C3B66885  14.185  24.305   6.837
 5113POPC   C4B66886  14.170  24.132   7.221
 5114POPC   NC366887  43.232  27.549   5.364
 5114POPC   PO466888  42.789  28.002   5.144
 5114POPC   GL166889  42.853  27.899   5.659
 5114POPC   GL266890  42.951  27.542   5.774
 5114POPC   C1A66891  43.037  27.902   6.132
 5114POPC   D2A66892  43.348  27.805   6.505
 5114POPC   C3A66893  43.166  27.647   6.912
 5114POPC   C4A66894  43.211  27.731   7.363
 5114POPC   C1B66895  42.839  27.321   6.166
 5114POPC   C2B66896  43.007  27.267   6.579
 5114POPC   C3B66897  42.846  27.222   6.995
 5114POPC   C4B66898  42.904  27.328   7.432
 5115POPC   NC366899  22.465  13.658   5.406
 5115POPC   PO466900  23.132  13.893   5.253
 5115POPC   GL166901  22.885  13.833   5.666
 5115POPC   GL266902  22.896  13.510   5.851
 5115POPC   C1A66903  22.882  13.909   6.155
 5115POPC   D2A66904  22.830  13.770   6.596
 5115POPC   C3A66905  22.990  13.602   6.945
 5115POPC   C4A66906  23.220  13.718   7.279
 5115POPC   C1B66907  22.725  13.399   6.259
 5115POPC   C2B66908  22.515  13.387   6.703
 5115POPC   C3B66909  22.656  13.297   7.150
 5115POPC   C4B66910  22.801  13.431   7.607
 5116POPC   NC366911  43.589  34.870   5.115
 5116POPC   PO466912  43.939  35.274   5.552
 5116POPC   GL166913  44.143  35.247   5.872
 5116POPC   GL266914  44.396  35.013   5.757
 5116POPC   C1A66915  43.903  35.356   6.246
 5116POPC   D2A66916  44.035  35.520   6.640
 5116POPC   C3A66917  43.722  35.402   6.919
 5116POPC   C4A66918  43.719  35.592   7.298
 5116POPC   C1B66919  44.324  34.862   6.158
 5116POPC   C2B66920  44.180  35.011   6.535
 5116POPC   C3B66921  44.318  35.093   6.920
 5116POPC   C4B66922  44.186  35.418   7.182
 5117POPC   NC366923  18.995  15.798   5.443
 5117POPC   PO466924  19.425  16.311   5.579
 5117POPC   GL166925  19.123  16.116   5.843
 5117POPC   GL266926  19.264  15.780   5.875
 5117POPC   C1A66927  18.909  15.932   6.217
 5117POPC   D2A66928  18.877  15.713   6.621
 5117POPC   C3A66929  18.819  16.017   6.977
 5117POPC   C4A66930  18.827  16.066   7.440
 5117POPC   C1B66931  19.504  15.573   6.204
 5117POPC   C2B66932  19.369  15.321   6.562
 5117POPC   C3B66933  19.210  15.441   6.902
 5117POPC   C4B66934  18.988  15.630   7.236
 5118POPC   NC366935  38.184   6.866   5.479
 5118POPC   PO466936  37.677   6.442   5.424
 5118POPC   GL166937  37.716   6.348   5.866
 5118POPC   GL266938  38.040   6.186   5.841
 5118POPC   C1A66939  37.589   6.504   6.318
 5118POPC   D2A66940  37.564   6.737   6.737
 5118POPC   C3A66941  37.503   6.558   7.174
 5118POPC   C4A66942  37.431   6.585   7.667
 5118POPC   C1B66943  38.105   6.439   6.214
 5118POPC   C2B66944  38.004   6.481   6.645
 5118POPC   C3B66945  37.996   6.729   7.026
 5118POPC   C4B66946  38.276   6.690   7.341
 5119POPC   NC366947  44.308   5.436   5.617
 5119POPC   PO466948  44.933   5.276   5.628
 5119POPC   GL166949  44.707   5.065   5.950
 5119POPC   GL266950  44.394   4.954   5.823
 5119POPC   C1A66951  44.730   5.088   6.400
 5119POPC   D2A66952  44.930   5.332   6.717
 5119POPC   C3A66953  44.973   5.209   7.105
 5119POPC   C4A66954  44.943   4.783   7.209
 5119POPC   C1B66955  44.391   4.738   6.244
 5119POPC   C2B66956  44.321   4.947   6.646
 5119POPC   C3B66957  44.519   5.039   7.005
 5119POPC   C4B66958  44.540   5.392   7.314
 5120POPC   NC366959  32.919   9.277   5.341
 5120POPC   PO466960  32.811   9.911   5.422
 5120POPC   GL166961  32.776   9.594   5.730
 5120POPC   GL266962  33.133   9.539   5.757
 5120POPC   C1A66963  32.861   9.699   6.152
 5120POPC   D2A66964  33.062   9.866   6.506
 5120POPC   C3A66965  32.814   9.744   6.849
 5120POPC   C4A66966  32.910   9.662   7.275
 5120POPC   C1B66967  33.230   9.329   6.148
 5120POPC   C2B66968  33.090   9.354   6.557
 5120POPC   C3B66969  33.292   9.501   6.958
 5120POPC   C4B66970  33.508   9.458   7.390
 5121POPC   NC366971  28.760   3.149   5.674
 5121POPC   PO466972  28.156   3.470   5.514
 5121POPC   GL166973  28.278   3.563   5.950
 5121POPC   GL266974  28.646   3.651   5.931
 5121POPC   C1A66975  28.371   3.778   6.354
 5121POPC   D2A66976  28.554   3.632   6.714
 5121POPC   C3A66977  28.233   3.613   6.996
 5121POPC   C4A66978  28.129   3.267   7.246
 5121POPC   C1B66979  28.574   3.314   6.279
 5121POPC   C2B66980  28.664   3.077   6.665
 5121POPC   C3B66981  28.736   3.252   7.076
 5121POPC   C4B66982  28.641   3.616   7.291
 5122POPC   NC366983  43.639  19.066   5.172
 5122POPC   PO466984  44.238  19.252   5.377
 5122POPC   GL166985  44.004  19.107   5.719
 5122POPC   GL266986  43.635  19.107   5.687
 5122POPC   C1A66987  44.044  18.994   6.152
 5122POPC   D2A66988  43.938  18.973   6.578
 5122POPC   C3A66989  44.077  18.853   7.002
 5122POPC   C4A66990  44.188  19.119   7.382
 5122POPC   C1B66991  43.530  18.980   6.111
 5122POPC   C2B66992  43.436  18.921   6.550
 5122POPC   C3B66993  43.625  19.098   6.948
 5122POPC   C4B66994  43.712  18.984   7.387
 5123POPC   NC366995  31.476   9.985   5.328
 5123POPC   PO466996  30.919   9.613   5.319
 5123POPC   GL166997  31.127   9.798   5.716
 5123POPC   GL266998  31.470   9.672   5.736
 5123POPC   C1A66999  31.281   9.794   6.177
 5123POPC   D2A67000  31.417   9.574   6.555
 5123POPC   C3A67001  31.184   9.739   6.893
 5123POPC   C4A67002  31.180  10.108   7.171
 5123POPC   C1B67003  31.739   9.581   6.124
 5123POPC   C2B67004  31.951   9.669   6.517
 5123POPC   C3B67005  31.786   9.536   6.931
 5123POPC   C4B67006  31.610   9.822   7.218
 5124POPC   NC367007  23.730  32.429   5.312
 5124POPC   PO467008  23.906  31.858   5.577
 5124POPC   GL167009  23.584  32.017   5.809
 5124POPC   GL267010  23.609  32.372   5.807
 5124POPC   C1A67011  23.455  32.122   6.217
 5124POPC   D2A67012  23.722  32.133   6.558
 5124POPC   C3A67013  23.578  32.017   6.958
 5124POPC   C4A67014  23.632  32.220   7.360
 5124POPC   C1B67015  23.784  32.538   6.214
 5124POPC   C2B67016  24.040  32.530   6.605
 5124POPC   C3B67017  24.013  32.299   7.006
 5124POPC   C4B67018  24.203  32.135   7.413
 5125POPC   NC367019  16.088   7.016   5.309
 5125POPC   PO467020  15.647   7.469   5.380
 5125POPC   GL167021  15.927   7.496   5.752
 5125POPC   GL267022  16.188   7.263   5.785
 5125POPC   C1A67023  15.907   7.546   6.204
 5125POPC   D2A67024  15.937   7.526   6.649
 5125POPC   C3A67025  15.623   7.675   6.883
 5125POPC   C4A67026  15.640   7.804   7.286
 5125POPC   C1B67027  16.322   7.169   6.260
 5125POPC   C2B67028  16.273   7.118   6.746
 5125POPC   C3B67029  16.218   7.093   7.243
 5125POPC   C4B67030  16.336   6.970   7.705
 5126POPC   NC367031  30.293  31.052   4.991
 5126POPC   PO467032  29.841  30.715   5.426
 5126POPC   GL167033  30.133  30.678   5.759
 5126POPC   GL267034  30.034  30.354   5.943
 5126POPC   C1A67035  30.098  30.796   6.193
 5126POPC   D2A67036  29.868  30.710   6.572
 5126POPC   C3A67037  30.138  30.714   6.932
 5126POPC   C4A67038  30.241  30.439   7.280
 5126POPC   C1B67039  29.621  30.337   6.169
 5126POPC   C2B67040  29.480  30.278   6.599
 5126POPC   C3B67041  29.788  30.339   6.924
 5126POPC   C4B67042  29.731  30.464   7.329
 5127POPC   NC367043   5.173  14.038   5.389
 5127POPC   PO467044   5.458  14.600   5.618
 5127POPC   GL167045   5.133  14.511   5.830
 5127POPC   GL267046   5.146  14.190   5.869
 5127POPC   C1A67047   5.138  14.519   6.276
 5127POPC   D2A67048   5.015  14.276   6.594
 5127POPC   C3A67049   5.177  14.506   6.907
 5127POPC   C4A67050   5.009  14.649   7.294
 5127POPC   C1B67051   5.364  14.052   6.203
 5127POPC   C2B67052   5.510  14.160   6.611
 5127POPC   C3B67053   5.397  14.053   7.026
 5127POPC   C4B67054   5.459  14.383   7.318
 5128POPC   NC367055   2.107  11.613   5.529
 5128POPC   PO467056   1.952  10.913   5.559
 5128POPC   GL167057   1.915  11.250   5.851
 5128POPC   GL267058   1.651  11.475   5.694
 5128POPC   C1A67059   2.084  11.417   6.272
 5128POPC   D2A67060   2.165  11.613   6.710
 5128POPC   C3A67061   2.153  11.318   7.083
 5128POPC   C4A67062   2.160  11.427   7.562
 5128POPC   C1B67063   1.483  11.343   6.111
 5128POPC   C2B67064   1.652  11.226   6.527
 5128POPC   C3B67065   1.699  11.443   6.914
 5128POPC   C4B67066   1.723  11.320   7.347
 5129POPC   NC367067  15.733  17.628   5.366
 5129POPC   PO467068  16.161  17.113   5.317
 5129POPC   GL167069  16.134  17.417   5.673
 5129POPC   GL267070  16.198  17.784   5.742
 5129POPC   C1A67071  16.016  17.432   6.098
 5129POPC   D2A67072  15.987  17.356   6.545
 5129POPC   C3A67073  15.706  17.560   6.825
 5129POPC   C4A67074  15.693  17.450   7.239
 5129POPC   C1B67075  16.391  17.770   6.176
 5129POPC   C2B67076  16.291  17.761   6.613
 5129POPC   C3B67077  16.179  17.586   7.023
 5129POPC   C4B67078  16.143  17.615   7.477
 5130POPC   NC367079  34.033  36.602   5.549
 5130POPC   PO467080  34.666  36.759   5.400
 5130POPC   GL167081  34.557  36.985   5.774
 5130POPC   GL267082  34.471  36.652   5.903
 5130POPC   C1A67083  34.467  37.025   6.224
 5130POPC   D2A67084  34.502  36.713   6.544
 5130POPC   C3A67085  34.507  36.939   6.914
 5130POPC   C4A67086  34.860  37.034   7.146
 5130POPC   C1B67087  34.101  36.667   6.199
 5130POPC   C2B67088  33.986  36.555   6.620
 5130POPC   C3B67089  34.088  36.605   7.031
 5130POPC   C4B67090  34.453  36.552   7.246
 5131POPC   NC367091  34.115   8.144   5.415
 5131POPC   PO467092  33.673   7.720   5.387
 5131POPC   GL167093  33.688   8.067   5.703
 5131POPC   GL267094  33.343   8.215   5.745
 5131POPC   C1A67095  33.753   8.289   6.096
 5131POPC   D2A67096  34.036   8.197   6.422
 5131POPC   C3A67097  33.942   8.226   6.859
 5131POPC   C4A67098  34.096   8.202   7.272
 5131POPC   C1B67099  33.400   7.944   6.114
 5131POPC   C2B67100  33.560   8.058   6.525
 5131POPC   C3B67101  33.447   8.021   6.954
 5131POPC   C4B67102  33.645   8.002   7.339
 5132POPC   NC367103  32.696  42.452   5.355
 5132POPC   PO467104  32.231  42.046   5.640
 5132POPC   GL167105  32.113  42.287   5.948
 5132POPC   GL267106  32.321  42.514   5.808
 5132POPC   C1A67107  31.899  42.500   6.252
 5132POPC   D2A67108  32.061  42.577   6.656
 5132POPC   C3A67109  32.432  42.355   6.737
 5132POPC   C4A67110  32.209  42.103   7.009
 5132POPC   C1B67111  32.432  42.571   6.251
 5132POPC   C2B67112  32.468  42.865   6.600
 5132POPC   C3B67113  32.450  42.852   7.017
 5132POPC   C4B67114  32.423  42.490   7.238
 5133POPC   NC367115  10.482  21.846   5.491
 5133POPC   PO467116  10.675  22.435   5.229
 5133POPC   GL167117  10.643  22.325   5.727
 5133POPC   GL267118  10.792  22.024   5.874
 5133POPC   C1A67119  10.747  22.458   6.205
 5133POPC   D2A67120  10.773  22.356   6.689
 5133POPC   C3A67121  10.372  22.379   6.965
 5133POPC   C4A67122  10.385  22.433   7.408
 5133POPC   C1B67123  10.492  22.002   6.205
 5133POPC   C2B67124  10.436  21.984   6.650
 5133POPC   C3B67125  10.601  21.936   7.085
 5133POPC   C4B67126  10.780  21.884   7.514
 5134POPC   NC367127   3.666   0.033   5.596
 5134POPC   PO467128   3.783  44.392   5.379
 5134POPC   GL167129   3.599  44.488   5.809
 5134POPC   GL267130   3.504  44.172   5.990
 5134POPC   C1A67131   3.667  44.775   6.186
 5134POPC   D2A67132   3.585   0.036   6.558
 5134POPC   C3A67133   3.565  44.904   6.982
 5134POPC   C4A67134   3.856  44.843   7.311
 5134POPC   C1B67135   3.824  44.281   6.263
 5134POPC   C2B67136   3.632  44.490   6.602
 5134POPC   C3B67137   3.522  44.400   6.974
 5134POPC   C4B67138   3.815  44.306   7.265
 5135POPC   NC367139  30.203   0.918   5.528
 5135POPC   PO467140  29.763   1.372   5.462
 5135POPC   GL167141  29.900   1.175   5.833
 5135POPC   GL267142  29.741   0.843   5.797
 5135POPC   C1A67143  29.908   1.290   6.253
 5135POPC   D2A67144  29.589   1.399   6.553
 5135POPC   C3A67145  29.781   1.530   6.922
 5135POPC   C4A67146  29.894   1.520   7.339
 5135POPC   C1B67147  29.958   0.783   6.208
 5135POPC   C2B67148  29.868   0.914   6.650
 5135POPC   C3B67149  29.837   1.034   7.094
 5135POPC   C4B67150  30.197   1.116   7.362
 5136POPC   NC367151   9.333  43.208   5.488
 5136POPC   PO467152   8.752  42.891   5.404
 5136POPC   GL167153   8.958  42.976   5.756
 5136POPC   GL267154   8.930  43.298   5.810
 5136POPC   C1A67155   9.091  42.965   6.166
 5136POPC   D2A67156   8.863  42.998   6.525
 5136POPC   C3A67157   9.095  42.903   6.892
 5136POPC   C4A67158   8.968  43.019   7.296
 5136POPC   C1B67159   8.762  43.390   6.182
 5136POPC   C2B67160   8.757  43.557   6.575
 5136POPC   C3B67161   8.855  43.372   6.923
 5136POPC   C4B67162   8.883  43.533   7.326
 5137POPC   NC367163   3.660  14.021   5.485
 5137POPC   PO467164   3.443  13.354   5.446
 5137POPC   GL167165   3.479  13.633   5.799
 5137POPC   GL267166   3.205  13.892   5.773
 5137POPC   C1A67167   3.661  13.559   6.212
 5137POPC   D2A67168   3.446  13.421   6.598
 5137POPC   C3A67169   3.699  13.459   6.984
 5137POPC   C4A67170   3.844  13.861   7.172
 5137POPC   C1B67171   3.399  14.027   6.162
 5137POPC   C2B67172   3.592  13.935   6.553
 5137POPC   C3B67173   3.361  13.841   6.902
 5137POPC   C4B67174   3.387  14.126   7.200
 5138POPC   NC367175  30.440  38.565   5.093
 5138POPC   PO467176  29.895  38.656   5.507
 5138POPC   GL167177  29.965  38.537   5.886
 5138POPC   GL267178  30.158  38.249   5.894
 5138POPC   C1A67179  29.774  38.600   6.224
 5138POPC   D2A67180  29.726  38.451   6.605
 5138POPC   C3A67181  29.810  38.739   6.919
 5138POPC   C4A67182  29.911  38.502   7.252
 5138POPC   C1B67183  30.100  38.190   6.317
 5138POPC   C2B67184  30.336  38.090   6.656
 5138POPC   C3B67185  30.240  38.161   7.044
 5138POPC   C4B67186  30.229  38.073   7.452
 5139POPC   NC367187  35.262   2.014   5.503
 5139POPC   PO467188  34.698   1.648   5.392
 5139POPC   GL167189  34.938   1.754   5.795
 5139POPC   GL267190  35.182   1.522   5.840
 5139POPC   C1A67191  35.289   1.962   6.138
 5139POPC   D2A67192  35.337   2.348   6.423
 5139POPC   C3A67193  35.434   2.300   6.892
 5139POPC   C4A67194  35.121   2.212   7.227
 5139POPC   C1B67195  35.024   1.553   6.254
 5139POPC   C2B67196  35.221   1.715   6.614
 5139POPC   C3B67197  35.288   1.548   7.025
 5139POPC   C4B67198  35.198   1.734   7.401
 5140POPC   NC367199   6.162  31.052   5.601
 5140POPC   PO467200   5.938  30.736   5.114
 5140POPC   GL167201   5.937  30.612   5.649
 5140POPC   GL267202   5.713  30.839   5.838
 5140POPC   C1A67203   6.067  30.679   6.156
 5140POPC   D2A67204   6.222  30.509   6.568
 5140POPC   C3A67205   6.142  30.695   6.977
 5140POPC   C4A67206   6.021  30.577   7.441
 5140POPC   C1B67207   5.654  30.963   6.298
 5140POPC   C2B67208   5.770  31.018   6.753
 5140POPC   C3B67209   5.700  30.867   7.172
 5140POPC   C4B67210   5.717  30.962   7.621
 5141POPC   NC367211   0.706  35.779   5.418
 5141POPC   PO467212   0.295  36.317   5.439
 5141POPC   GL167213   0.457  36.080   5.763
 5141POPC   GL267214   0.848  36.172   5.706
 5141POPC   C1A67215   0.291  36.009   6.196
 5141POPC   D2A67216   0.024  36.122   6.555
 5141POPC   C3A67217   0.258  36.241   6.923
 5141POPC   C4A67218   0.350  35.918   7.216
 5141POPC   C1B67219   0.799  35.950   6.100
 5141POPC   C2B67220   0.760  36.111   6.523
 5141POPC   C3B67221   0.808  36.110   6.972
 5141POPC   C4B67222   0.691  36.270   7.374
 5142POPC   NC367223  31.730  33.477   5.475
 5142POPC   PO467224  31.299  33.935   5.293
 5142POPC   GL167225  31.354  33.755   5.732
 5142POPC   GL267226  31.659  33.756   5.918
 5142POPC   C1A67227  31.273  33.634   6.212
 5142POPC   D2A67228  31.261  33.779   6.664
 5142POPC   C3A67229  31.075  33.591   7.062
 5142POPC   C4A67230  31.250  33.543   7.498
 5142POPC   C1B67231  31.701  33.909   6.334
 5142POPC   C2B67232  31.766  33.682   6.706
 5142POPC   C3B67233  31.567  33.709   7.104
 5142POPC   C4B67234  31.618  33.913   7.483
 5143POPC   NC367235  26.189  16.997   5.343
 5143POPC   PO467236  25.826  17.391   5.468
 5143POPC   GL167237  26.043  17.362   5.876
 5143POPC   GL267238  26.373  17.516   5.822
 5143POPC   C1A67239  25.980  17.321   6.367
 5143POPC   D2A67240  26.119  17.290   6.821
 5143POPC   C3A67241  25.843  17.360   7.205
 5143POPC   C4A67242  25.873  17.226   7.653
 5143POPC   C1B67243  26.177  17.760   6.183
 5143POPC   C2B67244  26.086  17.791   6.641
 5143POPC   C3B67245  26.183  17.731   7.103
 5143POPC   C4B67246  26.190  17.629   7.563
 5144POPC   NC367247  18.082  41.371   5.228
 5144POPC   PO467248  18.625  41.450   5.385
 5144POPC   GL167249  18.408  41.669   5.770
 5144POPC   GL267250  18.589  41.986   5.843
 5144POPC   C1A67251  18.190  41.830   6.169
 5144POPC   D2A67252  18.063  41.853   6.636
 5144POPC   C3A67253  18.354  41.608   6.896
 5144POPC   C4A67254  18.307  41.402   7.322
 5144POPC   C1B67255  18.855  41.923   6.187
 5144POPC   C2B67256  18.902  41.710   6.572
 5144POPC   C3B67257  18.800  41.883   6.946
 5144POPC   C4B67258  18.545  41.852   7.296
 5145POPC   NC367259  42.047  23.015   5.548
 5145POPC   PO467260  42.623  22.605   5.452
 5145POPC   GL167261  42.439  22.805   5.772
 5145POPC   GL267262  42.443  23.165   5.799
 5145POPC   C1A67263  42.533  22.798   6.162
 5145POPC   D2A67264  42.685  22.908   6.524
 5145POPC   C3A67265  42.478  22.778   6.851
 5145POPC   C4A67266  42.421  22.813   7.282
 5145POPC   C1B67267  42.224  23.193   6.174
 5145POPC   C2B67268  42.310  23.273   6.604
 5145POPC   C3B67269  42.215  23.221   7.030
 5145POPC   C4B67270  42.422  23.325   7.416
 5146POPC   NC367271  40.822  30.769   5.476
 5146POPC   PO467272  40.850  30.060   5.461
 5146POPC   GL167273  40.700  30.380   5.792
 5146POPC   GL267274  41.029  30.473   5.859
 5146POPC   C1A67275  40.677  30.708   6.142
 5146POPC   D2A67276  40.836  30.732   6.571
 5146POPC   C3A67277  40.577  30.926   6.897
 5146POPC   C4A67278  40.621  30.780   7.291
 5146POPC   C1B67279  41.177  30.442   6.283
 5146POPC   C2B67280  41.117  30.267   6.710
 5146POPC   C3B67281  41.110  30.469   7.117
 5146POPC   C4B67282  41.210  30.909   7.244
 5147POPC   NC367283  23.191  15.026   5.422
 5147POPC   PO467284  22.603  15.432   5.472
 5147POPC   GL167285  22.841  15.392   5.877
 5147POPC   GL267286  22.867  15.077   5.813
 5147POPC   C1A67287  22.973  15.263   6.316
 5147POPC   D2A67288  23.105  15.160   6.753
 5147POPC   C3A67289  22.868  15.353   7.089
 5147POPC   C4A67290  22.882  15.362   7.560
 5147POPC   C1B67291  22.562  14.999   6.156
 5147POPC   C2B67292  22.523  15.132   6.590
 5147POPC   C3B67293  22.571  14.912   6.959
 5147POPC   C4B67294  22.542  15.044   7.345
 5148POPC   NC367295  13.431  24.204   5.369
 5148POPC   PO467296  13.975  24.532   5.227
 5148POPC   GL167297  13.838  24.356   5.714
 5148POPC   GL267298  13.487  24.405   5.836
 5148POPC   C1A67299  13.779  24.445   6.229
 5148POPC   D2A67300  13.435  24.610   6.537
 5148POPC   C3A67301  13.598  24.712   6.936
 5148POPC   C4A67302  13.812  24.476   7.201
 5148POPC   C1B67303  13.295  24.204   6.229
 5148POPC   C2B67304  13.274  24.146   6.679
 5148POPC   C3B67305  13.325  24.305   7.096
 5148POPC   C4B67306  13.274  24.242   7.553
 5149POPC   NC367307  44.763  19.398   5.422
 5149POPC   PO467308  44.451  19.990   5.522
 5149POPC   GL167309  44.694  19.799   5.822
 5149POPC   GL267310  44.882  20.029   6.012
 5149POPC   C1A67311  44.638  19.695   6.275
 5149POPC   D2A67312  44.736  19.982   6.581
 5149POPC   C3A67313  44.630  19.727   6.936
 5149POPC   C4A67314  44.831  19.721   7.324
 5149POPC   C1B67315  44.476  20.202   6.181
 5149POPC   C2B67316  44.331  20.378   6.581
 5149POPC   C3B67317  44.446  20.204   6.961
 5149POPC   C4B67318  44.262  20.125   7.357
 5150POPC   NC367319   5.443   2.901   5.547
 5150POPC   PO467320   4.824   2.659   5.398
 5150POPC   GL167321   5.042   2.635   5.789
 5150POPC   GL267322   5.328   2.425   5.744
 5150POPC   C1A67323   5.135   2.912   6.143
 5150POPC   D2A67324   5.044   3.114   6.537
 5150POPC   C3A67325   5.219   2.920   6.900
 5150POPC   C4A67326   5.144   3.015   7.316
 5150POPC   C1B67327   5.463   2.406   6.136
 5150POPC   C2B67328   5.417   2.650   6.501
 5150POPC   C3B67329   5.402   2.427   6.893
 5150POPC   C4B67330   5.505   2.431   7.298
 5151POPC   NC367331  27.453   1.968   5.472
 5151POPC   PO467332  28.130   1.880   5.423
 5151POPC   GL167333  27.909   2.072   5.803
 5151POPC   GL267334  27.584   1.914   5.956
 5151POPC   C1A67335  27.947   2.072   6.254
 5151POPC   D2A67336  27.768   1.881   6.601
 5151POPC   C3A67337  27.864   2.029   6.980
 5151POPC   C4A67338  27.628   2.362   7.227
 5151POPC   C1B67339  27.441   2.201   6.298
 5151POPC   C2B67340  27.415   2.218   6.760
 5151POPC   C3B67341  27.394   1.899   7.074
 5151POPC   C4B67342  27.323   1.624   7.399
 5152POPC   NC367343  22.392  42.145   5.475
 5152POPC   PO467344  22.382  42.781   5.335
 5152POPC   GL167345  22.189  42.571   5.760
 5152POPC   GL267346  22.024  42.222   5.841
 5152POPC   C1A67347  22.027  42.590   6.211
 5152POPC   D2A67348  22.185  42.468   6.620
 5152POPC   C3A67349  22.006  42.530   7.006
 5152POPC   C4A67350  21.732  42.526   7.347
 5152POPC   C1B67351  22.339  42.125   6.110
 5152POPC   C2B67352  22.458  42.057   6.503
 5152POPC   C3B67353  22.263  42.044   6.879
 5152POPC   C4B67354  22.410  42.044   7.246
 5153POPC   NC367355  25.945  16.083   5.425
 5153POPC   PO467356  26.424  15.687   5.561
 5153POPC   GL167357  26.129  15.819   5.825
 5153POPC   GL267358  26.245  16.150   5.842
 5153POPC   C1A67359  25.968  15.870   6.231
 5153POPC   D2A67360  26.247  15.944   6.555
 5153POPC   C3A67361  26.259  15.703   6.914
 5153POPC   C4A67362  26.161  15.813   7.329
 5153POPC   C1B67363  26.224  16.354   6.222
 5153POPC   C2B67364  26.343  16.462   6.637
 5153POPC   C3B67365  26.274  16.212   7.000
 5153POPC   C4B67366  26.248  16.338   7.421
 5154POPC   NC367367  28.815   4.872   5.494
 5154POPC   PO467368  29.336   5.352   5.314
 5154POPC   GL167369  29.382   5.147   5.737
 5154POPC   GL267370  29.020   5.161   5.852
 5154POPC   C1A67371  29.372   5.032   6.201
 5154POPC   D2A67372  29.231   5.100   6.642
 5154POPC   C3A67373  29.401   4.790   6.960
 5154POPC   C4A67374  29.485   4.867   7.417
 5154POPC   C1B67375  28.847   5.044   6.261
 5154POPC   C2B67376  28.758   5.316   6.612
 5154POPC   C3B67377  28.765   5.338   7.023
 5154POPC   C4B67378  29.076   5.102   7.211
 5155POPC   NC367379  14.143  42.716   5.354
 5155POPC   PO467380  14.500  42.164   5.455
 5155POPC   GL167381  14.325  42.353   5.777
 5155POPC   GL267382  14.500  42.677   5.750
 5155POPC   C1A67383  14.486  42.173   6.163
 5155POPC   D2A67384  14.671  42.083   6.546
 5155POPC   C3A67385  14.542  42.293   6.883
 5155POPC   C4A67386  14.562  42.154   7.281
 5155POPC   C1B67387  14.669  42.634   6.171
 5155POPC   C2B67388  14.551  42.733   6.582
 5155POPC   C3B67389  14.751  42.765   6.976
 5155POPC   C4B67390  14.850  42.560   7.360
 5156POPC   NC367391  18.239  26.225   5.342
 5156POPC   PO467392  18.535  25.598   5.343
 5156POPC   GL167393  18.365  25.747   5.754
 5156POPC   GL267394  18.384  26.093   5.805
 5156POPC   C1A67395  18.182  25.776   6.192
 5156POPC   D2A67396  17.974  25.836   6.610
 5156POPC   C3A67397  18.074  26.097   6.969
 5156POPC   C4A67398  18.320  25.852   7.215
 5156POPC   C1B67399  18.343  26.258   6.185
 5156POPC   C2B67400  18.434  26.098   6.576
 5156POPC   C3B67401  18.573  26.214   6.961
 5156POPC   C4B67402  18.453  26.414   7.322
 5157POPC   NC367403  18.552  31.377   5.304
 5157POPC   PO467404  17.971  31.723   5.510
 5157POPC   GL167405  18.263  31.603   5.863
 5157POPC   GL267406  18.363  31.283   5.811
 5157POPC   C1A67407  18.417  31.500   6.276
 5157POPC   D2A67408  18.361  31.737   6.615
 5157POPC   C3A67409  18.287  31.584   7.008
 5157POPC   C4A67410  18.638  31.416   7.214
 5157POPC   C1B67411  18.140  31.086   6.191
 5157POPC   C2B67412  18.294  30.969   6.642
 5157POPC   C3B67413  18.155  31.065   7.084
 5157POPC   C4B67414  17.820  31.158   7.418
 5158POPC   NC367415  27.405  12.961   5.261
 5158POPC   PO467416  27.898  12.526   5.583
 5158POPC   GL167417  27.617  12.695   5.897
 5158POPC   GL267418  27.534  13.053   5.818
 5158POPC   C1A67419  27.565  12.528   6.314
 5158POPC   D2A67420  27.832  12.652   6.671
 5158POPC   C3A67421  27.562  12.851   6.914
 5158POPC   C4A67422  27.396  12.628   7.238
 5158POPC   C1B67423  27.722  13.083   6.256
 5158POPC   C2B67424  27.868  13.243   6.668
 5158POPC   C3B67425  27.911  13.212   7.098
 5158POPC   C4B67426  27.591  13.119   7.342
 5159POPC   NC367427   0.259  30.713   5.382
 5159POPC   PO467428   0.971  30.761   5.541
 5159POPC   GL167429   0.618  30.544   5.797
 5159POPC   GL267430   0.242  30.407   5.780
 5159POPC   C1A67431   0.503  30.481   6.234
 5159POPC   D2A67432   0.275  30.720   6.541
 5159POPC   C3A67433   0.499  30.777   6.927
 5159POPC   C4A67434   0.171  30.861   7.177
 5159POPC   C1B67435   0.109  30.163   6.150
 5159POPC   C2B67436  44.972  30.285   6.558
 5159POPC   C3B67437   0.140  30.411   6.946
 5159POPC   C4B67438   0.502  30.249   7.171
 5160POPC   NC367439  13.872   4.921   5.173
 5160POPC   PO467440  13.487   4.484   5.556
 5160POPC   GL167441  13.570   4.282   5.898
 5160POPC   GL267442  13.230   4.140   5.874
 5160POPC   C1A67443  13.851   4.226   6.258
 5160POPC   D2A67444  14.003   4.347   6.689
 5160POPC   C3A67445  13.828   4.112   7.028
 5160POPC   C4A67446  13.580   4.210   7.399
 5160POPC   C1B67447  13.286   4.233   6.302
 5160POPC   C2B67448  13.510   4.161   6.630
 5160POPC   C3B67449  13.319   4.144   6.961
 5160POPC   C4B67450  13.119   4.370   7.203
 5161POPC   NC367451  44.970  18.177   5.565
 5161POPC   PO467452  44.256  18.168   5.442
 5161POPC   GL167453  44.498  18.278   5.765
 5161POPC   GL267454  44.652  18.564   5.754
 5161POPC   C1A67455  44.733  18.282   6.178
 5161POPC   D2A67456  44.865  18.136   6.573
 5161POPC   C3A67457   0.003  18.267   6.954
 5161POPC   C4A67458  44.838  18.122   7.299
 5161POPC   C1B67459  44.331  18.582   6.120
 5161POPC   C2B67460  44.362  18.677   6.573
 5161POPC   C3B67461  44.502  18.499   6.957
 5161POPC   C4B67462  44.370  18.652   7.367
 5162POPC   NC367463  41.786  26.405   5.561
 5162POPC   PO467464  41.567  26.981   5.564
 5162POPC   GL167465  41.464  26.807   5.923
 5162POPC   GL267466  41.383  26.461   5.918
 5162POPC   C1A67467  41.312  26.800   6.330
 5162POPC   D2A67468  41.177  26.605   6.708
 5162POPC   C3A67469  41.286  26.951   6.976
 5162POPC   C4A67470  41.648  27.034   7.209
 5162POPC   C1B67471  41.657  26.422   6.241
 5162POPC   C2B67472  41.709  26.652   6.638
 5162POPC   C3B67473  41.619  26.550   7.049
 5162POPC   C4B67474  41.824  26.265   7.306
 5163POPC   NC367475  27.906  16.705   5.395
 5163POPC   PO467476  27.308  16.704   5.142
 5163POPC   GL167477  27.449  16.524   5.620
 5163POPC   GL267478  27.773  16.371   5.788
 5163POPC   C1A67479  27.572  16.740   6.057
 5163POPC   D2A67480  27.749  17.021   6.407
 5163POPC   C3A67481  27.765  16.860   6.862
 5163POPC   C4A67482  27.607  16.885   7.299
 5163POPC   C1B67483  27.708  16.285   6.243
 5163POPC   C2B67484  27.726  16.384   6.689
 5163POPC   C3B67485  27.762  16.427   7.145
 5163POPC   C4B67486  27.445  16.384   7.464
 5164POPC   NC367487  22.193  24.227   5.348
 5164POPC   PO467488  22.372  23.571   5.425
 5164POPC   GL167489  22.208  23.799   5.804
 5164POPC   GL267490  21.877  23.925   5.919
 5164POPC   C1A67491  22.165  23.668   6.257
 5164POPC   D2A67492  22.225  23.459   6.663
 5164POPC   C3A67493  22.018  23.581   7.034
 5164POPC   C4A67494  22.231  23.641   7.420
 5164POPC   C1B67495  21.803  24.042   6.320
 5164POPC   C2B67496  22.014  23.984   6.712
 5164POPC   C3B67497  22.134  24.089   7.145
 5164POPC   C4B67498  21.980  24.045   7.581
 5165POPC   NC367499  28.590  17.195   5.080
 5165POPC   PO467500  28.809  17.661   5.556
 5165POPC   GL167501  28.681  17.563   5.957
 5165POPC   GL267502  28.396  17.323   5.933
 5165POPC   C1A67503  28.674  17.401   6.364
 5165POPC   D2A67504  28.479  17.538   6.740
 5165POPC   C3A67505  28.676  17.362   7.069
 5165POPC   C4A67506  28.516  17.140   7.422
 5165POPC   C1B67507  28.176  17.296   6.353
 5165POPC   C2B67508  28.060  17.263   6.812
 5165POPC   C3B67509  28.138  17.410   7.244
 5165POPC   C4B67510  28.134  17.620   7.671
 5166POPC   NC367511  28.564  41.695   5.376
 5166POPC   PO467512  27.849  41.556   5.447
 5166POPC   GL167513  28.146  41.748   5.718
 5166POPC   GL267514  28.414  41.485   5.819
 5166POPC   C1A67515  28.192  41.776   6.184
 5166POPC   D2A67516  28.539  41.719   6.506
 5166POPC   C3A67517  28.421  41.510   6.896
 5166POPC   C4A67518  28.447  41.683   7.292
 5166POPC   C1B67519  28.712  41.342   6.168
 5166POPC   C2B67520  28.706  41.135   6.603
 5166POPC   C3B67521  28.824  41.217   7.034
 5166POPC   C4B67522  28.735  41.302   7.482
 5167POPC   NC367523  24.274  31.610   5.494
 5167POPC   PO467524  24.873  31.450   5.252
 5167POPC   GL167525  24.716  31.314   5.739
 5167POPC   GL267526  24.510  31.539   5.925
 5167POPC   C1A67527  24.855  31.384   6.249
 5167POPC   D2A67528  24.909  31.251   6.720
 5167POPC   C3A67529  24.761  31.555   7.022
 5167POPC   C4A67530  24.381  31.661   7.231
 5167POPC   C1B67531  24.271  31.567   6.300
 5167POPC   C2B67532  24.306  31.434   6.713
 5167POPC   C3B67533  24.445  31.132   6.981
 5167POPC   C4B67534  24.754  31.079   7.260
 5168POPC   NC367535  39.445  26.774   5.333
 5168POPC   PO467536  38.794  26.806   5.337
 5168POPC   GL167537  39.083  26.622   5.688
 5168POPC   GL267538  39.460  26.632   5.818
 5168POPC   C1A67539  39.072  26.717   6.133
 5168POPC   D2A67540  39.024  26.868   6.539
 5168POPC   C3A67541  38.870  26.634   6.889
 5168POPC   C4A67542  39.058  26.633   7.309
 5168POPC   C1B67543  39.564  27.033   6.041
 5168POPC   C2B67544  39.513  27.105   6.506
 5168POPC   C3B67545  39.444  26.811   6.861
 5168POPC   C4B67546  39.570  26.915   7.258
 5169POPC   NC367547  26.053   6.604   5.014
 5169POPC   PO467548  26.312   6.969   5.575
 5169POPC   GL167549  26.018   6.627   5.746
 5169POPC   GL267550  26.056   6.243   5.755
 5169POPC   C1A67551  25.818   6.564   6.170
 5169POPC   D2A67552  25.948   6.451   6.589
 5169POPC   C3A67553  25.837   6.771   6.933
 5169POPC   C4A67554  25.662   6.842   7.358
 5169POPC   C1B67555  26.273   6.319   6.177
 5169POPC   C2B67556  26.441   6.587   6.521
 5169POPC   C3B67557  26.310   6.542   6.951
 5169POPC   C4B67558  26.159   6.706   7.326
 5170POPC   NC367559  13.558   7.807   5.421
 5170POPC   PO467560  13.732   7.148   5.312
 5170POPC   GL167561  13.632   7.319   5.699
 5170POPC   GL267562  13.365   7.082   5.791
 5170POPC   C1A67563  13.788   7.611   6.048
 5170POPC   D2A67564  13.941   7.521   6.459
 5170POPC   C3A67565  13.814   7.682   6.862
 5170POPC   C4A67566  13.688   7.570   7.282
 5170POPC   C1B67567  13.521   7.194   6.183
 5170POPC   C2B67568  13.682   7.100   6.551
 5170POPC   C3B67569  13.560   7.238   6.915
 5170POPC   C4B67570  13.571   7.035   7.271
 5171POPC   NC367571  27.249  11.566   5.587
 5171POPC   PO467572  27.536  11.046   5.293
 5171POPC   GL167573  27.622  11.230   5.763
 5171POPC   GL267574  27.384  11.313   5.999
 5171POPC   C1A67575  27.833  11.340   6.171
 5171POPC   D2A67576  27.633  11.151   6.513
 5171POPC   C3A67577  27.696  11.318   6.898
 5171POPC   C4A67578  28.052  11.325   7.117
 5171POPC   C1B67579  27.350  10.873   6.172
 5171POPC   C2B67580  27.361  10.734   6.636
 5171POPC   C3B67581  27.310  10.964   7.038
 5171POPC   C4B67582  27.311  11.374   7.248
 5172POPC   NC367583  33.353  42.150   5.324
 5172POPC   PO467584  33.080  42.747   5.409
 5172POPC   GL167585  33.020  42.394   5.731
 5172POPC   GL267586  32.804  42.628   5.851
 5172POPC   C1A67587  32.893  42.279   6.188
 5172POPC   D2A67588  32.932  42.543   6.559
 5172POPC   C3A67589  32.968  42.296   6.937
 5172POPC   C4A67590  32.838  42.183   7.360
 5172POPC   C1B67591  33.181  42.734   6.105
 5172POPC   C2B67592  33.492  42.668   6.430
 5172POPC   C3B67593  33.415  42.609   6.873
 5172POPC   C4B67594  33.345  42.753   7.303
 5173POPC   NC367595   2.608  43.559   5.412
 5173POPC   PO467596   3.023  44.039   5.524
 5173POPC   GL167597   2.739  43.876   5.796
 5173POPC   GL267598   2.635  44.179   5.870
 5173POPC   C1A67599   2.614  43.772   6.222
 5173POPC   D2A67600   2.819  43.731   6.628
 5173POPC   C3A67601   2.607  43.713   7.021
 5173POPC   C4A67602   2.827  43.814   7.415
 5173POPC   C1B67603   2.690  44.381   6.249
 5173POPC   C2B67604   2.586  44.229   6.658
 5173POPC   C3B67605   2.773  44.196   7.079
 5173POPC   C4B67606   2.872  44.340   7.537
 5174POPC   NC367607   3.428   6.933   5.355
 5174POPC   PO467608   3.654   6.327   5.237
 5174POPC   GL167609   3.465   6.533   5.663
 5174POPC   GL267610   3.708   6.808   5.783
 5174POPC   C1A67611   3.353   6.645   6.126
 5174POPC   D2A67612   3.302   6.812   6.570
 5174POPC   C3A67613   3.437   6.593   6.965
 5174POPC   C4A67614   3.425   6.638   7.444
 5174POPC   C1B67615   3.901   6.815   6.213
 5174POPC   C2B67616   3.818   6.841   6.659
 5174POPC   C3B67617   3.840   6.843   7.115
 5174POPC   C4B67618   3.925   6.556   7.399
 5175POPC   NC367619  17.618  17.258   5.415
 5175POPC   PO467620  17.359  17.834   5.254
 5175POPC   GL167621  17.520  17.720   5.640
 5175POPC   GL267622  17.421  17.999   5.840
 5175POPC   C1A67623  17.474  17.502   6.038
 5175POPC   D2A67624  17.409  17.596   6.477
 5175POPC   C3A67625  17.584  17.377   6.825
 5175POPC   C4A67626  17.553  17.432   7.257
 5175POPC   C1B67627  17.676  17.986   6.221
 5175POPC   C2B67628  17.841  17.837   6.617
 5175POPC   C3B67629  17.709  17.859   7.041
 5175POPC   C4B67630  17.735  17.866   7.485
 5176POPC   NC367631  18.711  42.830   5.464
 5176POPC   PO467632  19.311  43.141   5.261
 5176POPC   GL167633  19.131  43.114   5.696
 5176POPC   GL267634  19.299  43.383   5.883
 5176POPC   C1A67635  19.018  43.043   6.152
 5176POPC   D2A67636  18.891  43.188   6.584
 5176POPC   C3A67637  18.864  42.872   6.926
 5176POPC   C4A67638  19.190  42.625   7.148
 5176POPC   C1B67639  19.163  43.572   6.263
 5176POPC   C2B67640  19.322  43.466   6.654
 5176POPC   C3B67641  19.307  43.135   6.916
 5176POPC   C4B67642  18.939  43.343   7.100
 5177POPC   NC367643  11.670   5.669   5.220
 5177POPC   PO467644  11.018   5.583   5.425
 5177POPC   GL167645  11.159   5.947   5.743
 5177POPC   GL267646  11.512   6.151   5.758
 5177POPC   C1A67647  11.250   5.980   6.202
 5177POPC   D2A67648  11.307   5.629   6.502
 5177POPC   C3A67649  11.448   5.622   6.940
 5177POPC   C4A67650  11.334   5.812   7.330
 5177POPC   C1B67651  11.673   6.285   6.198
 5177POPC   C2B67652  11.556   6.126   6.638
 5177POPC   C3B67653  11.558   6.190   7.110
 5177POPC   C4B67654  11.717   6.095   7.588
 5178POPC   NC367655  40.794  21.051   5.610
 5178POPC   PO467656  40.459  21.651   5.557
 5178POPC   GL167657  40.619  21.428   5.904
 5178POPC   GL267658  40.934  21.253   6.050
 5178POPC   C1A67659  40.539  21.531   6.293
 5178POPC   D2A67660  40.773  21.591   6.636
 5178POPC   C3A67661  40.504  21.673   6.953
 5178POPC   C4A67662  40.673  21.723   7.326
 5178POPC   C1B67663  40.595  21.021   6.282
 5178POPC   C2B67664  40.483  21.164   6.709
 5178POPC   C3B67665  40.775  21.268   7.065
 5178POPC   C4B67666  40.663  21.233   7.507
 5179POPC   NC367667  13.030   4.611   5.536
 5179POPC   PO467668  12.752   4.102   5.200
 5179POPC   GL167669  12.715   4.248   5.691
 5179POPC   GL267670  12.694   4.583   5.920
 5179POPC   C1A67671  12.802   4.172   6.148
 5179POPC   D2A67672  12.750   4.406   6.510
 5179POPC   C3A67673  12.760   4.243   6.875
 5179POPC   C4A67674  12.667   4.085   7.237
 5179POPC   C1B67675  13.056   4.669   6.207
 5179POPC   C2B67676  13.211   4.632   6.632
 5179POPC   C3B67677  12.903   4.763   6.871
 5179POPC   C4B67678  12.661   4.635   7.211
 5180POPC   NC367679  40.395   2.180   5.256
 5180POPC   PO467680  40.937   1.861   5.512
 5180POPC   GL167681  40.826   2.055   5.915
 5180POPC   GL267682  40.643   2.366   5.853
 5180POPC   C1A67683  40.692   2.029   6.357
 5180POPC   D2A67684  40.779   1.832   6.749
 5180POPC   C3A67685  40.565   1.959   7.112
 5180POPC   C4A67686  40.739   2.038   7.500
 5180POPC   C1B67687  40.888   2.475   6.242
 5180POPC   C2B67688  40.900   2.397   6.704
 5180POPC   C3B67689  40.874   2.416   7.168
 5180POPC   C4B67690  40.928   2.488   7.635
 5181POPC   NC367691  41.123  42.900   5.374
 5181POPC   PO467692  40.719  43.406   5.295
 5181POPC   GL167693  40.686  43.142   5.665
 5181POPC   GL267694  40.407  42.925   5.755
 5181POPC   C1A67695  40.880  43.094   6.067
 5181POPC   D2A67696  41.022  42.977   6.479
 5181POPC   C3A67697  41.003  43.076   6.882
 5181POPC   C4A67698  40.762  43.117   7.259
 5181POPC   C1B67699  40.498  42.764   6.116
 5181POPC   C2B67700  40.566  42.664   6.495
 5181POPC   C3B67701  40.552  42.855   6.856
 5181POPC   C4B67702  40.421  42.732   7.228
 5182POPC   NC367703  22.544  39.998   5.423
 5182POPC   PO467704  21.882  40.043   5.125
 5182POPC   GL167705  22.113  40.262   5.551
 5182POPC   GL267706  22.115  40.048   5.788
 5182POPC   C1A67707  22.394  40.372   6.011
 5182POPC   D2A67708  22.323  40.133   6.436
 5182POPC   C3A67709  22.357  40.329   6.858
 5182POPC   C4A67710  22.302  40.142   7.257
 5182POPC   C1B67711  21.922  39.949   6.153
 5182POPC   C2B67712  21.920  39.783   6.532
 5182POPC   C3B67713  22.039  39.836   6.942
 5182POPC   C4B67714  21.828  39.928   7.318
 5183POPC   NC367715  25.181  40.534   5.451
 5183POPC   PO467716  25.042  41.179   5.339
 5183POPC   GL167717  25.091  40.976   5.790
 5183POPC   GL267718  25.330  40.688   5.919
 5183POPC   C1A67719  25.052  40.930   6.285
 5183POPC   D2A67720  25.256  40.694   6.664
 5183POPC   C3A67721  25.234  40.804   7.120
 5183POPC   C4A67722  25.447  41.208   7.250
 5183POPC   C1B67723  25.143  40.374   6.261
 5183POPC   C2B67724  24.910  40.296   6.668
 5183POPC   C3B67725  25.012  40.303   7.144
 5183POPC   C4B67726  25.323  40.399   7.493
 5184POPC   NC367727   7.027   8.442   5.518
 5184POPC   PO467728   7.293   9.127   5.532
 5184POPC   GL167729   7.386   8.997   5.895
 5184POPC   GL267730   7.519   8.687   5.792
 5184POPC   C1A67731   7.152   9.025   6.243
 5184POPC   D2A67732   7.099   8.957   6.634
 5184POPC   C3A67733   7.449   9.059   6.837
 5184POPC   C4A67734   7.311   9.057   7.224
 5184POPC   C1B67735   7.355   8.465   6.143
 5184POPC   C2B67736   7.139   8.220   6.491
 5184POPC   C3B67737   7.302   8.506   6.816
 5184POPC   C4B67738   7.371   8.529   7.259
 5185POPC   NC367739   6.915   9.401   5.606
 5185POPC   PO467740   6.462   9.840   5.466
 5185POPC   GL167741   6.653   9.852   5.825
 5185POPC   GL267742   6.993   9.891   5.804
 5185POPC   C1A67743   6.611   9.589   6.169
 5185POPC   D2A67744   6.401   9.639   6.541
 5185POPC   C3A67745   6.549   9.623   6.954
 5185POPC   C4A67746   6.242   9.465   7.243
 5185POPC   C1B67747   6.945   9.984   6.234
 5185POPC   C2B67748   6.804   9.957   6.631
 5185POPC   C3B67749   6.961   9.970   7.031
 5185POPC   C4B67750   7.001   9.646   7.315
 5186POPC   NC367751  30.358  38.616   5.590
 5186POPC   PO467752  30.865  38.256   5.362
 5186POPC   GL167753  30.672  38.330   5.851
 5186POPC   GL267754  30.660  38.677   5.998
 5186POPC   C1A67755  30.663  38.305   6.335
 5186POPC   D2A67756  30.744  38.548   6.676
 5186POPC   C3A67757  30.887  38.379   7.036
 5186POPC   C4A67758  30.690  38.289   7.415
 5186POPC   C1B67759  30.307  38.645   6.263
 5186POPC   C2B67760  30.225  38.577   6.675
 5186POPC   C3B67761  30.386  38.627   7.075
 5186POPC   C4B67762  30.318  38.627   7.516
 5187POPC   NC367763  29.701  24.562   5.383
 5187POPC   PO467764  30.241  24.549   5.500
 5187POPC   GL167765  29.914  24.534   5.848
 5187POPC   GL267766  29.630  24.305   5.828
 5187POPC   C1A67767  29.686  24.673   6.235
 5187POPC   D2A67768  29.689  24.517   6.678
 5187POPC   C3A67769  29.749  24.711   7.099
 5187POPC   C4A67770  29.892  24.763   7.532
 5187POPC   C1B67771  29.654  24.155   6.261
 5187POPC   C2B67772  29.464  24.072   6.668
 5187POPC   C3B67773  29.640  24.110   7.077
 5187POPC   C4B67774  29.575  24.357   7.426
 5188POPC   NC367775  44.167   1.171   5.363
 5188POPC   PO467776  43.569   1.414   5.580
 5188POPC   GL167777  43.881   1.158   5.810
 5188POPC   GL267778  44.273   1.217   5.847
 5188POPC   C1A67779  43.908   1.171   6.250
 5188POPC   D2A67780  43.789   0.987   6.625
 5188POPC   C3A67781  43.819   1.332   6.855
 5188POPC   C4A67782  43.981   1.450   7.233
 5188POPC   C1B67783  44.298   0.871   6.117
 5188POPC   C2B67784  44.320   1.020   6.541
 5188POPC   C3B67785  44.244   1.104   6.956
 5188POPC   C4B67786  44.082   0.962   7.352
 5189POPC   NC367787  43.520  10.611   5.677
 5189POPC   PO467788  42.995  10.313   5.263
 5189POPC   GL167789  43.040  10.484   5.685
 5189POPC   GL267790  43.078  10.817   5.820
 5189POPC   C1A67791  43.056  10.337   6.121
 5189POPC   D2A67792  43.154  10.503   6.524
 5189POPC   C3A67793  43.086  10.306   6.918
 5189POPC   C4A67794  42.919  10.276   7.295
 5189POPC   C1B67795  42.753  10.752   6.150
 5189POPC   C2B67796  42.736  10.812   6.582
 5189POPC   C3B67797  42.800  10.743   7.023
 5189POPC   C4B67798  42.849  10.777   7.481
 5190POPC   NC367799  30.349   9.183   5.080
 5190POPC   PO467800  30.610   8.713   5.489
 5190POPC   GL167801  30.576   8.967   5.845
 5190POPC   GL267802  30.273   9.110   5.954
 5190POPC   C1A67803  30.670   9.149   6.244
 5190POPC   D2A67804  30.880   9.183   6.592
 5190POPC   C3A67805  30.687   9.105   6.929
 5190POPC   C4A67806  30.816   9.131   7.329
 5190POPC   C1B67807  30.449   8.710   6.251
 5190POPC   C2B67808  30.600   8.640   6.679
 5190POPC   C3B67809  30.787   8.641   7.111
 5190POPC   C4B67810  30.913   8.683   7.556
 5191POPC   NC367811  16.233  40.001   5.464
 5191POPC   PO467812  15.812  40.354   5.419
 5191POPC   GL167813  15.835  40.118   5.823
 5191POPC   GL267814  16.067  39.871   5.913
 5191POPC   C1A67815  15.719  40.004   6.261
 5191POPC   D2A67816  15.880  39.922   6.685
 5191POPC   C3A67817  15.689  40.019   7.099
 5191POPC   C4A67818  15.506  40.251   7.456
 5191POPC   C1B67819  16.246  39.971   6.287
 5191POPC   C2B67820  16.355  39.759   6.694
 5191POPC   C3B67821  16.168  39.800   7.113
 5191POPC   C4B67822  15.945  39.857   7.524
 5192POPC   NC367823  17.492  32.001   5.186
 5192POPC   PO467824  17.346  32.385   5.762
 5192POPC   GL167825  17.542  32.298   6.102
 5192POPC   GL267826  17.829  32.449   6.014
 5192POPC   C1A67827  17.538  32.209   6.517
 5192POPC   D2A67828  17.230  32.305   6.767
 5192POPC   C3A67829  17.197  32.130   7.147
 5192POPC   C4A67830  17.061  32.401   7.485
 5192POPC   C1B67831  17.962  32.044   6.290
 5192POPC   C2B67832  17.916  31.912   6.748
 5192POPC   C3B67833  17.708  32.175   7.023
 5192POPC   C4B67834  17.551  32.459   7.293
 5193POPC   NC367835  15.998  15.955   5.412
 5193POPC   PO467836  16.400  16.599   5.522
 5193POPC   GL167837  16.114  16.391   5.799
 5193POPC   GL267838  16.327  16.117   5.793
 5193POPC   C1A67839  16.157  16.235   6.251
 5193POPC   D2A67840  16.302  16.122   6.664
 5193POPC   C3A67841  15.945  15.945   6.853
 5193POPC   C4A67842  15.712  15.980   7.213
 5193POPC   C1B67843  16.170  15.736   6.040
 5193POPC   C2B67844  16.206  15.626   6.485
 5193POPC   C3B67845  16.371  15.649   6.905
 5193POPC   C4B67846  16.286  15.891   7.290
 5194POPC   NC367847  11.528  12.516   5.287
 5194POPC   PO467848  12.150  12.387   5.398
 5194POPC   GL167849  11.923  12.086   5.700
 5194POPC   GL267850  11.725  12.377   5.760
 5194POPC   C1A67851  12.025  11.856   6.129
 5194POPC   D2A67852  12.396  11.833   6.460
 5194POPC   C3A67853  12.246  11.909   6.908
 5194POPC   C4A67854  11.883  11.768   7.107
 5194POPC   C1B67855  12.047  12.373   6.117
 5194POPC   C2B67856  12.094  12.236   6.547
 5194POPC   C3B67857  11.935  12.311   6.986
 5194POPC   C4B67858  11.935  12.593   7.352
 5195POPC   NC367859  43.059   0.040   5.446
 5195POPC   PO467860  42.943  44.418   5.182
 5195POPC   GL167861  42.987  44.507   5.637
 5195POPC   GL267862  42.844  44.277   5.855
 5195POPC   C1A67863  43.214  44.595   6.026
 5195POPC   D2A67864  43.286  44.588   6.477
 5195POPC   C3A67865  43.132  44.800   6.827
 5195POPC   C4A67866  43.211  44.804   7.263
 5195POPC   C1B67867  42.966  44.209   6.313
 5195POPC   C2B67868  42.979  44.311   6.791
 5195POPC   C3B67869  42.812  44.497   7.174
 5195POPC   C4B67870  42.801  44.582   7.619
 5196POPC   NC367871  11.186  20.640   5.491
 5196POPC   PO467872  10.522  20.469   5.346
 5196POPC   GL167873  10.475  20.636   5.754
 5196POPC   GL267874  10.800  20.666   5.861
 5196POPC   C1A67875  10.269  20.627   6.145
 5196POPC   D2A67876  10.308  20.552   6.599
 5196POPC   C3A67877  10.352  20.544   7.059
 5196POPC   C4A67878  10.390  20.613   7.514
 5196POPC   C1B67879  10.743  20.692   6.330
 5196POPC   C2B67880  10.798  20.621   6.799
 5196POPC   C3B67881  10.774  20.842   7.221
 5196POPC   C4B67882  10.852  20.797   7.683
 5197POPC   NC367883   1.555  22.190   5.558
 5197POPC   PO467884   2.070  22.318   5.092
 5197POPC   GL167885   2.055  22.202   5.625
 5197POPC   GL267886   1.976  22.436   5.911
 5197POPC   C1A67887   1.883  21.995   6.073
 5197POPC   D2A67888   1.895  21.837   6.471
 5197POPC   C3A67889   1.844  22.108   6.802
 5197POPC   C4A67890   1.846  22.022   7.199
 5197POPC   C1B67891   1.954  22.405   6.379
 5197POPC   C2B67892   2.269  22.369   6.723
 5197POPC   C3B67893   2.202  22.372   7.183
 5197POPC   C4B67894   1.858  22.441   7.511
 5198POPC   NC367895   6.168  30.301   5.304
 5198POPC   PO467896   5.563  29.830   5.312
 5198POPC   GL167897   5.786  30.113   5.650
 5198POPC   GL267898   6.170  30.119   5.762
 5198POPC   C1A67899   5.829  30.221   6.115
 5198POPC   D2A67900   6.070  30.031   6.482
 5198POPC   C3A67901   6.002  30.189   6.911
 5198POPC   C4A67902   5.826  30.128   7.302
 5198POPC   C1B67903   6.394  30.275   6.128
 5198POPC   C2B67904   6.586  30.127   6.504
 5198POPC   C3B67905   6.456  29.937   6.875
 5198POPC   C4B67906   6.229  29.816   7.235
 5199POPC   NC367907  27.236  10.588   5.241
 5199POPC   PO467908  27.517  10.122   5.629
 5199POPC   GL167909  27.523  10.454   5.885
 5199POPC   GL267910  27.509  10.735   5.703
 5199POPC   C1A67911  27.642  10.456   6.294
 5199POPC   D2A67912  27.856  10.211   6.575
 5199POPC   C3A67913  27.692  10.289   6.985
 5199POPC   C4A67914  27.884  10.172   7.379
 5199POPC   C1B67915  27.855  10.846   6.041
 5199POPC   C2B67916  27.980  10.779   6.518
 5199POPC   C3B67917  27.832  10.822   6.951
 5199POPC   C4B67918  27.655  10.655   7.329
 5200POPC   NC367919  15.400  16.747   5.291
 5200POPC   PO467920  14.775  16.823   5.512
 5200POPC   GL167921  15.176  16.794   5.790
 5200POPC   GL267922  15.480  16.584   5.791
 5200POPC   C1A67923  15.289  16.750   6.264
 5200POPC   D2A67924  15.331  16.678   6.742
 5200POPC   C3A67925  15.152  16.925   7.136
 5200POPC   C4A67926  14.857  17.091   7.468
 5200POPC   C1B67927  15.751  16.522   6.163
 5200POPC   C2B67928  15.836  16.433   6.637
 5200POPC   C3B67929  15.661  16.491   7.070
 5200POPC   C4B67930  15.188  16.420   7.187
 5201POPC   NC367931  35.793  37.193   5.403
 5201POPC   PO467932  36.425  37.046   5.458
 5201POPC   GL167933  36.115  37.096   5.789
 5201POPC   GL267934  35.820  36.829   5.811
 5201POPC   C1A67935  36.069  37.029   6.216
 5201POPC   D2A67936  36.170  36.832   6.578
 5201POPC   C3A67937  36.170  37.100   6.921
 5201POPC   C4A67938  36.255  36.883   7.265
 5201POPC   C1B67939  35.801  36.601   6.240
 5201POPC   C2B67940  35.676  36.747   6.670
 5201POPC   C3B67941  35.793  36.740   7.096
 5201POPC   C4B67942  35.940  36.488   7.455
 5202POPC   NC367943   3.031  42.456   5.342
 5202POPC   PO467944   2.419  42.390   5.343
 5202POPC   GL167945   2.603  42.506   5.765
 5202POPC   GL267946   2.974  42.475   5.857
 5202POPC   C1A67947   2.574  42.301   6.175
 5202POPC   D2A67948   2.380  42.150   6.600
 5202POPC   C3A67949   2.618  42.228   6.991
 5202POPC   C4A67950   3.012  42.132   7.151
 5202POPC   C1B67951   3.120  42.278   6.269
 5202POPC   C2B67952   3.221  42.358   6.716
 5202POPC   C3B67953   3.348  42.544   7.076
 5202POPC   C4B67954   3.109  42.542   7.438
 5203POPC   NC367955   7.019  30.542   5.529
 5203POPC   PO467956   7.642  30.752   5.188
 5203POPC   GL167957   7.547  30.746   5.701
 5203POPC   GL267958   7.255  30.830   5.896
 5203POPC   C1A67959   7.561  30.531   6.150
 5203POPC   D2A67960   7.380  30.563   6.570
 5203POPC   C3A67961   7.639  30.552   6.995
 5203POPC   C4A67962   7.414  30.487   7.393
 5203POPC   C1B67963   7.457  31.017   6.293
 5203POPC   C2B67964   7.595  30.983   6.730
 5203POPC   C3B67965   7.456  30.995   7.185
 5203POPC   C4B67966   7.047  31.134   7.224
 5204POPC   NC367967  39.847  32.226   5.368
 5204POPC   PO467968  40.521  32.235   5.196
 5204POPC   GL167969  40.244  32.222   5.678
 5204POPC   GL267970  39.884  32.099   5.842
 5204POPC   C1A67971  40.212  32.309   6.138
 5204POPC   D2A67972  40.143  32.416   6.595
 5204POPC   C3A67973  40.301  32.166   6.932
 5204POPC   C4A67974  40.261  32.072   7.374
 5204POPC   C1B67975  39.730  32.208   6.266
 5204POPC   C2B67976  39.800  32.057   6.674
 5204POPC   C3B67977  39.707  32.229   7.065
 5204POPC   C4B67978  39.819  32.273   7.483
 5205POPC   NC367979  39.012  36.397   4.934
 5205POPC   PO467980  39.443  36.047   5.277
 5205POPC   GL167981  39.204  36.139   5.690
 5205POPC   GL267982  38.966  36.423   5.780
 5205POPC   C1A67983  39.286  36.023   6.128
 5205POPC   D2A67984  39.399  35.775   6.482
 5205POPC   C3A67985  39.371  35.927   6.882
 5205POPC   C4A67986  39.056  35.942   7.209
 5205POPC   C1B67987  39.145  36.507   6.191
 5205POPC   C2B67988  39.343  36.334   6.553
 5205POPC   C3B67989  39.087  36.357   6.921
 5205POPC   C4B67990  39.103  36.604   7.288
 5206POPC   NC367991   1.098  44.746   5.591
 5206POPC   PO467992   0.944   0.411   5.410
 5206POPC   GL167993   1.001   0.498   5.805
 5206POPC   GL267994   1.218   0.211   5.801
 5206POPC   C1A67995   0.979   0.451   6.238
 5206POPC   D2A67996   1.068   0.656   6.618
 5206POPC   C3A67997   0.902   0.526   7.025
 5206POPC   C4A67998   0.892   0.766   7.414
 5206POPC   C1B67999   1.467   0.354   6.090
 5206POPC   C2B68000   1.481   0.340   6.500
 5206POPC   C3B68001   1.368   0.368   6.912
 5206POPC   C4B68002   1.332   0.482   7.318
 5207POPC   NC368003  37.201  39.834   5.315
 5207POPC   PO468004  36.591  39.919   5.579
 5207POPC   GL168005  36.942  39.848   5.797
 5207POPC   GL268006  36.850  40.136   5.981
 5207POPC   C1A68007  36.936  39.683   6.217
 5207POPC   D2A68008  36.984  39.952   6.578
 5207POPC   C3A68009  36.964  39.747   6.968
 5207POPC   C4A68010  37.028  39.890   7.389
 5207POPC   C1B68011  36.602  40.221   6.333
 5207POPC   C2B68012  36.677  40.379   6.741
 5207POPC   C3B68013  36.772  40.258   7.164
 5207POPC   C4B68014  36.577  40.167   7.594
 5208POPC   NC368015  25.936  40.396   5.396
 5208POPC   PO468016  26.298  39.811   5.443
 5208POPC   GL168017  26.208  40.082   5.778
 5208POPC   GL268018  25.884  40.046   5.750
 5208POPC   C1A68019  26.064  39.955   6.196
 5208POPC   D2A68020  25.844  39.937   6.511
 5208POPC   C3A68021  25.990  40.083   6.855
 5208POPC   C4A68022  25.942  39.957   7.246
 5208POPC   C1B68023  25.784  40.379   6.049
 5208POPC   C2B68024  25.625  40.385   6.454
 5208POPC   C3B68025  25.436  40.234   6.812
 5208POPC   C4B68026  25.664  40.356   7.131
 5209POPC   NC368027  11.511  33.421   5.522
 5209POPC   PO468028  12.190  33.261   5.476
 5209POPC   GL168029  12.184  33.190   5.914
 5209POPC   GL268030  11.880  33.075   5.900
 5209POPC   C1A68031  12.057  33.159   6.386
 5209POPC   D2A68032  11.996  33.326   6.809
 5209POPC   C3A68033  12.198  33.149   7.175
 5209POPC   C4A68034  12.153  33.263   7.651
 5209POPC   C1B68035  11.700  32.812   6.237
 5209POPC   C2B68036  11.674  32.914   6.660
 5209POPC   C3B68037  11.838  32.788   7.037
 5209POPC   C4B68038  11.935  32.827   7.500
 5210POPC   NC368039  20.237   5.107   5.399
 5210POPC   PO468040  19.659   5.304   5.395
 5210POPC   GL168041  19.841   5.144   5.762
 5210POPC   GL268042  19.715   4.824   5.889
 5210POPC   C1A68043  19.873   5.163   6.218
 5210POPC   D2A68044  19.861   4.851   6.525
 5210POPC   C3A68045  19.803   5.044   6.925
 5210POPC   C4A68046  20.104   5.058   7.261
 5210POPC   C1B68047  19.425   4.858   6.238
 5210POPC   C2B68048  19.340   4.942   6.683
 5210POPC   C3B68049  19.348   4.944   7.159
 5210POPC   C4B68050  19.500   4.962   7.598
 5211POPC   NC368051   0.726  20.044   5.516
 5211POPC   PO468052   0.121  19.712   5.463
 5211POPC   GL168053   0.323  19.884   5.813
 5211POPC   GL268054   0.535  19.647   5.880
 5211POPC   C1A68055   0.436  19.997   6.269
 5211POPC   D2A68056   0.678  19.908   6.689
 5211POPC   C3A68057   0.527  20.162   7.052
 5211POPC   C4A68058   0.293  20.040   7.407
 5211POPC   C1B68059   0.132  19.581   6.158
 5211POPC   C2B68060   0.047  19.567   6.611
 5211POPC   C3B68061   0.246  19.680   7.009
 5211POPC   C4B68062   0.649  19.649   7.196
 5212POPC   NC368063  26.890  44.984   5.132
 5212POPC   PO468064  26.596  44.470   5.553
 5212POPC   GL168065  26.872  44.730   5.772
 5212POPC   GL268066  26.770   0.030   5.938
 5212POPC   C1A68067  26.984  44.645   6.204
 5212POPC   D2A68068  26.764  44.505   6.574
 5212POPC   C3A68069  26.949  44.405   6.956
 5212POPC   C4A68070  26.787  44.422   7.385
 5212POPC   C1B68071  26.540  44.896   6.289
 5212POPC   C2B68072  26.578  44.965   6.726
 5212POPC   C3B68073  26.465  44.680   7.035
 5212POPC   C4B68074  26.474  44.826   7.433
 5213POPC   NC368075   0.700  31.573   5.432
 5213POPC   PO468076   0.094  31.230   5.436
 5213POPC   GL168077   0.326  31.317   5.765
 5213POPC   GL268078   0.595  31.085   5.688
 5213POPC   C1A68079   0.308  31.469   6.192
 5213POPC   D2A68080   0.551  31.612   6.530
 5213POPC   C3A68081   0.355  31.708   6.911
 5213POPC   C4A68082   0.580  31.694   7.272
 5213POPC   C1B68083   0.462  30.979   6.121
 5213POPC   C2B68084   0.648  31.094   6.529
 5213POPC   C3B68085   0.628  31.279   6.944
 5213POPC   C4B68086   0.532  31.178   7.348
 5214POPC   NC368087   8.324  33.437   5.229
 5214POPC   PO468088   8.200  34.066   5.329
 5214POPC   GL168089   8.146  33.766   5.658
 5214POPC   GL268090   8.485  33.676   5.706
 5214POPC   C1A68091   8.049  33.688   6.121
 5214POPC   D2A68092   7.824  33.821   6.508
 5214POPC   C3A68093   7.991  33.777   6.949
 5214POPC   C4A68094   8.180  34.052   7.269
 5214POPC   C1B68095   8.518  33.918   6.112
 5214POPC   C2B68096   8.588  33.787   6.547
 5214POPC   C3B68097   8.498  33.750   7.002
 5214POPC   C4B68098   8.438  33.665   7.467
 5215POPC   NC368099   7.613   2.064   5.006
 5215POPC   PO468100   7.751   2.197   5.641
 5215POPC   GL168101   7.463   2.237   5.911
 5215POPC   GL268102   7.257   2.028   5.757
 5215POPC   C1A68103   7.538   2.252   6.331
 5215POPC   D2A68104   7.503   2.411   6.705
 5215POPC   C3A68105   7.547   2.058   6.946
 5215POPC   C4A68106   7.365   2.009   7.328
 5215POPC   C1B68107   7.405   1.798   6.154
 5215POPC   C2B68108   7.234   1.662   6.542
 5215POPC   C3B68109   7.093   1.731   6.958
 5215POPC   C4B68110   7.062   1.604   7.403
 5216POPC   NC368111  31.970  43.114   5.167
 5216POPC   PO468112  31.386  43.046   5.485
 5216POPC   GL168113  31.393  42.973   5.899
 5216POPC   GL268114  31.518  43.291   5.905
 5216POPC   C1A68115  31.486  43.041   6.347
 5216POPC   D2A68116  31.696  42.915   6.716
 5216POPC   C3A68117  31.439  42.884   7.078
 5216POPC   C4A68118  31.431  42.980   7.499
 5216POPC   C1B68119  31.678  43.507   6.225
 5216POPC   C2B68120  31.552  43.601   6.588
 5216POPC   C3B68121  31.550  43.370   6.921
 5216POPC   C4B68122  31.703  43.388   7.298
 5217POPC   NC368123  38.536  27.173   5.457
 5217POPC   PO468124  38.264  26.484   5.511
 5217POPC   GL168125  38.565  26.669   5.827
 5217POPC   GL268126  38.737  26.992   5.874
 5217POPC   C1A68127  38.576  26.657   6.275
 5217POPC   D2A68128  38.220  26.720   6.509
 5217POPC   C3A68129  38.224  26.754   6.942
 5217POPC   C4A68130  38.037  26.573   7.279
 5217POPC   C1B68131  38.662  27.155   6.286
 5217POPC   C2B68132  38.564  27.063   6.715
 5217POPC   C3B68133  38.648  27.025   7.154
 5217POPC   C4B68134  38.772  26.939   7.617
 5218POPC   NC368135  39.045  28.839   5.510
 5218POPC   PO468136  39.258  29.503   5.395
 5218POPC   GL168137  39.296  29.212   5.762
 5218POPC   GL268138  38.924  29.212   5.832
 5218POPC   C1A68139  39.308  29.032   6.211
 5218POPC   D2A68140  39.209  28.767   6.573
 5218POPC   C3A68141  39.408  28.959   6.890
 5218POPC   C4A68142  39.439  29.359   7.140
 5218POPC   C1B68143  39.034  29.453   6.192
 5218POPC   C2B68144  39.054  29.286   6.627
 5218POPC   C3B68145  38.976  29.164   7.054
 5218POPC   C4B68146  38.920  29.409   7.393
 5219POPC   NC368147  19.983  44.879   5.295
 5219POPC   PO468148  19.565  44.446   5.521
 5219POPC   GL168149  19.734  44.797   5.736
 5219POPC   GL268150  20.060  44.704   5.829
 5219POPC   C1A68151  19.740  44.995   6.135
 5219POPC   D2A68152  19.623  44.815   6.543
 5219POPC   C3A68153  19.825  44.942   6.940
 5219POPC   C4A68154  19.729  44.993   7.403
 5219POPC   C1B68155  19.779  44.476   6.155
 5219POPC   C2B68156  19.674  44.307   6.560
 5219POPC   C3B68157  19.775  44.197   6.959
 5219POPC   C4B68158  19.874  44.524   7.241
 5220POPC   NC368159   9.237   1.514   5.527
 5220POPC   PO468160   8.797   1.091   5.258
 5220POPC   GL168161   8.866   1.183   5.726
 5220POPC   GL268162   8.609   0.953   5.830
 5220POPC   C1A68163   9.147   1.266   6.158
 5220POPC   D2A68164   9.359   1.149   6.576
 5220POPC   C3A68165   9.160   1.313   6.951
 5220POPC   C4A68166   9.162   1.241   7.380
 5220POPC   C1B68167   8.638   1.283   6.182
 5220POPC   C2B68168   8.792   1.393   6.596
 5220POPC   C3B68169   8.718   1.630   6.974
 5220POPC   C4B68170   8.596   1.482   7.389
 5221POPC   NC368171  28.882   3.069   5.145
 5221POPC   PO468172  29.422   2.803   5.206
 5221POPC   GL168173  29.354   3.054   5.583
 5221POPC   GL268174  29.121   2.796   5.694
 5221POPC   C1A68175  29.355   3.075   6.069
 5221POPC   D2A68176  29.245   2.899   6.500
 5221POPC   C3A68177  29.352   2.772   6.936
 5221POPC   C4A68178  29.172   3.036   7.259
 5221POPC   C1B68179  29.023   2.603   6.112
 5221POPC   C2B68180  28.822   2.566   6.521
 5221POPC   C3B68181  28.857   2.670   6.950
 5221POPC   C4B68182  29.088   2.502   7.299
 5222POPC   NC368183  11.218   8.589   5.300
 5222POPC   PO468184  11.187   9.253   5.408
 5222POPC   GL168185  11.042   8.999   5.716
 5222POPC   GL268186  11.370   8.804   5.750
 5222POPC   C1A68187  10.916   9.168   6.109
 5222POPC   D2A68188  11.163   9.201   6.470
 5222POPC   C3A68189  11.072   8.984   6.849
 5222POPC   C4A68190  11.012   9.089   7.273
 5222POPC   C1B68191  11.503   8.894   6.168
 5222POPC   C2B68192  11.441   8.717   6.586
 5222POPC   C3B68193  11.500   8.790   7.025
 5222POPC   C4B68194  11.700   9.064   7.297
 5223POPC   NC368195   3.832   5.909   5.129
 5223POPC   PO468196   4.318   6.153   5.407
 5223POPC   GL168197   4.345   6.016   5.812
 5223POPC   GL268198   4.681   5.902   5.853
 5223POPC   C1A68199   4.082   5.946   6.180
 5223POPC   D2A68200   3.807   5.878   6.526
 5223POPC   C3A68201   3.929   6.089   6.902
 5223POPC   C4A68202   4.189   5.899   7.184
 5223POPC   C1B68203   4.571   6.099   6.265
 5223POPC   C2B68204   4.397   5.994   6.682
 5223POPC   C3B68205   4.657   6.056   7.068
 5223POPC   C4B68206   4.587   5.946   7.513
 5224POPC   NC368207  33.665  29.030   5.495
 5224POPC   PO468208  34.238  29.327   5.471
 5224POPC   GL168209  33.936  29.291   5.832
 5224POPC   GL268210  34.045  28.952   5.844
 5224POPC   C1A68211  33.667  29.367   6.219
 5224POPC   D2A68212  33.571  29.297   6.671
 5224POPC   C3A68213  33.774  29.342   7.093
 5224POPC   C4A68214  33.934  29.396   7.535
 5224POPC   C1B68215  34.029  29.010   6.290
 5224POPC   C2B68216  33.987  28.984   6.732
 5224POPC   C3B68217  33.937  28.845   7.160
 5224POPC   C4B68218  34.080  28.904   7.577
 5225POPC   NC368219  21.148  15.371   5.367
 5225POPC   PO468220  21.803  15.093   5.405
 5225POPC   GL168221  21.581  15.226   5.812
 5225POPC   GL268222  21.273  15.017   5.939
 5225POPC   C1A68223  21.551  15.283   6.276
 5225POPC   D2A68224  21.410  15.245   6.717
 5225POPC   C3A68225  21.614  15.135   7.093
 5225POPC   C4A68226  21.645  15.535   7.270
 5225POPC   C1B68227  21.196  14.906   6.395
 5225POPC   C2B68228  21.343  14.755   6.821
 5225POPC   C3B68229  21.235  14.764   7.268
 5225POPC   C4B68230  21.081  14.849   7.741
 5226POPC   NC368231   9.745   7.345   5.407
 5226POPC   PO468232  10.249   6.983   5.727
 5226POPC   GL168233   9.925   7.261   5.914
 5226POPC   GL268234   9.570   7.221   5.883
 5226POPC   C1A68235   9.789   7.459   6.309
 5226POPC   D2A68236   9.828   7.487   6.754
 5226POPC   C3A68237   9.829   7.103   6.932
 5226POPC   C4A68238   9.947   7.039   7.336
 5226POPC   C1B68239   9.307   7.178   6.244
 5226POPC   C2B68240   9.343   7.150   6.681
 5226POPC   C3B68241   9.387   7.421   7.002
 5226POPC   C4B68242   9.686   7.472   7.293
 5227POPC   NC368243  17.594  21.858   5.454
 5227POPC   PO468244  17.708  21.202   5.271
 5227POPC   GL168245  17.489  21.372   5.647
 5227POPC   GL268246  17.800  21.406   5.749
 5227POPC   C1A68247  17.418  21.472   6.109
 5227POPC   D2A68248  17.298  21.279   6.522
 5227POPC   C3A68249  17.538  21.381   6.899
 5227POPC   C4A68250  17.663  21.642   7.245
 5227POPC   C1B68251  17.908  21.129   6.084
 5227POPC   C2B68252  17.770  21.017   6.478
 5227POPC   C3B68253  17.918  21.018   6.872
 5227POPC   C4B68254  17.851  21.174   7.300
 5228POPC   NC368255  12.274  33.713   5.530
 5228POPC   PO468256  11.627  33.960   5.495
 5228POPC   GL168257  11.907  33.975   5.825
 5228POPC   GL268258  11.855  33.608   5.865
 5228POPC   C1A68259  12.019  34.088   6.262
 5228POPC   D2A68260  11.888  33.777   6.574
 5228POPC   C3A68261  12.035  33.893   6.970
 5228POPC   C4A68262  12.022  33.613   7.293
 5228POPC   C1B68263  12.166  33.620   6.186
 5228POPC   C2B68264  12.387  33.809   6.577
 5228POPC   C3B68265  12.440  33.575   6.975
 5228POPC   C4B68266  12.555  33.451   7.410
 5229POPC   NC368267  30.038  44.993   5.556
 5229POPC   PO468268  29.812  44.431   5.422
 5229POPC   GL168269  29.953  44.570   5.836
 5229POPC   GL268270  29.608  44.485   5.905
 5229POPC   C1A68271  30.202  44.669   6.236
 5229POPC   D2A68272  30.063  44.686   6.667
 5229POPC   C3A68273  30.220  44.770   7.071
 5229POPC   C4A68274  30.010  44.525   7.392
 5229POPC   C1B68275  29.692  44.592   6.306
 5229POPC   C2B68276  29.615  44.417   6.704
 5229POPC   C3B68277  29.684  44.706   7.046
 5229POPC   C4B68278  29.436   0.057   7.133
 5230POPC   NC368279  34.890  28.467   5.551
 5230POPC   PO468280  34.386  28.131   5.456
 5230POPC   GL168281  34.494  28.324   5.849
 5230POPC   GL268282  34.452  28.646   5.781
 5230POPC   C1A68283  34.615  28.500   6.282
 5230POPC   D2A68284  34.835  28.771   6.562
 5230POPC   C3A68285  34.854  28.650   7.007
 5230POPC   C4A68286  34.747  28.331   7.343
 5230POPC   C1B68287  34.130  28.528   6.138
 5230POPC   C2B68288  34.164  28.494   6.599
 5230POPC   C3B68289  34.331  28.523   7.046
 5230POPC   C4B68290  34.265  28.433   7.505
 5231POPC   NC368291   3.553  43.232   5.413
 5231POPC   PO468292   3.423  42.623   5.163
 5231POPC   GL168293   3.370  42.770   5.640
 5231POPC   GL268294   3.281  43.124   5.825
 5231POPC   C1A68295   3.335  42.729   6.123
 5231POPC   D2A68296   3.216  42.837   6.549
 5231POPC   C3A68297   3.530  42.982   6.839
 5231POPC   C4A68298   3.684  43.060   7.261
 5231POPC   C1B68299   3.431  43.280   6.239
 5231POPC   C2B68300   3.677  43.434   6.618
 5231POPC   C3B68301   3.494  43.482   7.018
 5231POPC   C4B68302   3.064  43.504   7.091
 5232POPC   NC368303  23.363   7.924   5.344
 5232POPC   PO468304  23.745   7.439   5.334
 5232POPC   GL168305  23.988   7.496   5.758
 5232POPC   GL268306  24.052   7.144   5.783
 5232POPC   C1A68307  24.100   7.662   6.227
 5232POPC   D2A68308  23.913   7.763   6.673
 5232POPC   C3A68309  23.934   7.597   7.126
 5232POPC   C4A68310  23.802   7.627   7.581
 5232POPC   C1B68311  23.799   7.265   6.162
 5232POPC   C2B68312  23.995   7.253   6.571
 5232POPC   C3B68313  23.991   7.084   6.987
 5232POPC   C4B68314  23.719   7.148   7.323
 5233POPC   NC368315  32.355   9.958   5.498
 5233POPC   PO468316  31.855   9.698   5.135
 5233POPC   GL168317  31.972   9.661   5.624
 5233POPC   GL268318  31.889   9.972   5.809
 5233POPC   C1A68319  32.246   9.618   6.043
 5233POPC   D2A68320  32.479   9.581   6.459
 5233POPC   C3A68321  32.331   9.534   6.884
 5233POPC   C4A68322  32.474   9.374   7.287
 5233POPC   C1B68323  32.106  10.106   6.194
 5233POPC   C2B68324  31.975  10.224   6.606
 5233POPC   C3B68325  32.063   9.966   6.962
 5233POPC   C4B68326  32.456   9.912   7.234
 5234POPC   NC368327   0.233  16.494   5.442
 5234POPC   PO468328   0.578  16.986   5.604
 5234POPC   GL168329   0.494  16.636   5.863
 5234POPC   GL268330   0.629  16.319   5.744
 5234POPC   C1A68331   0.260  16.464   6.193
 5234POPC   D2A68332   0.219  16.736   6.548
 5234POPC   C3A68333   0.108  16.590   6.948
 5234POPC   C4A68334   0.044  16.903   7.256
 5234POPC   C1B68335   0.782  16.341   6.175
 5234POPC   C2B68336   0.720  16.620   6.500
 5234POPC   C3B68337   0.643  16.577   6.914
 5234POPC   C4B68338   0.556  16.672   7.298
 5235POPC   NC368339  13.922  23.331   5.449
 5235POPC   PO468340  13.803  23.934   5.368
 5235POPC   GL168341  13.558  23.679   5.655
 5235POPC   GL268342  13.313  23.887   5.791
 5235POPC   C1A68343  13.552  23.484   6.097
 5235POPC   D2A68344  13.639  23.379   6.551
 5235POPC   C3A68345  13.629  23.562   6.986
 5235POPC   C4A68346  13.677  23.498   7.436
 5235POPC   C1B68347  13.699  23.971   6.053
 5235POPC   C2B68348  13.684  23.903   6.487
 5235POPC   C3B68349  13.744  24.052   6.912
 5235POPC   C4B68350  13.682  24.005   7.366
 5236POPC   NC368351  44.644  16.240   5.453
 5236POPC   PO468352  44.493  15.560   5.404
 5236POPC   GL168353  44.477  15.834   5.724
 5236POPC   GL268354  44.808  15.874   5.835
 5236POPC   C1A68355  44.405  16.087   6.107
 5236POPC   D2A68356  44.484  16.006   6.539
 5236POPC   C3A68357  44.373  15.874   6.929
 5236POPC   C4A68358  44.363  16.071   7.341
 5236POPC   C1B68359  44.903  15.913   6.286
 5236POPC   C2B68360   0.020  15.896   6.754
 5236POPC   C3B68361  44.840  15.959   7.180
 5236POPC   C4B68362  44.729  15.693   7.558
 5237POPC   NC368363  20.299   3.466   5.534
 5237POPC   PO468364  19.655   3.618   5.296
 5237POPC   GL168365  19.830   3.667   5.678
 5237POPC   GL268366  19.830   3.320   5.745
 5237POPC   C1A68367  19.994   3.702   6.095
 5237POPC   D2A68368  19.852   3.795   6.521
 5237POPC   C3A68369  20.116   3.929   6.862
 5237POPC   C4A68370  19.884   3.695   7.164
 5237POPC   C1B68371  19.841   3.227   6.213
 5237POPC   C2B68372  19.734   3.249   6.678
 5237POPC   C3B68373  19.910   3.182   7.116
 5237POPC   C4B68374  20.193   2.983   7.443
 5238POPC   NC368375   7.344  37.872   5.533
 5238POPC   PO468376   7.617  37.200   5.461
 5238POPC   GL168377   7.486  37.440   5.816
 5238POPC   GL268378   7.179  37.251   5.861
 5238POPC   C1A68379   7.600  37.770   6.150
 5238POPC   D2A68380   7.490  38.064   6.485
 5238POPC   C3A68381   7.538  37.819   6.846
 5238POPC   C4A68382   7.361  37.831   7.252
 5238POPC   C1B68383   7.106  37.575   6.165
 5238POPC   C2B68384   7.043  37.790   6.553
 5238POPC   C3B68385   7.069  37.565   6.934
 5238POPC   C4B68386   7.085  37.272   7.263
 5239POPC   NC368387  19.676  24.742   5.441
 5239POPC   PO468388  20.091  24.131   5.529
 5239POPC   GL168389  19.870  24.289   5.908
 5239POPC   GL268390  19.837  24.633   5.925
 5239POPC   C1A68391  19.945  24.315   6.361
 5239POPC   D2A68392  20.122  24.300   6.772
 5239POPC   C3A68393  19.772  24.430   7.004
 5239POPC   C4A68394  19.447  24.495   7.240
 5239POPC   C1B68395  19.759  24.970   6.237
 5239POPC   C2B68396  19.757  24.830   6.641
 5239POPC   C3B68397  20.036  24.873   6.969
 5239POPC   C4B68398  19.827  24.827   7.347
 5240POPC   NC368399  18.294  15.692   5.492
 5240POPC   PO468400  18.693  16.180   5.412
 5240POPC   GL168401  18.616  15.985   5.777
 5240POPC   GL268402  18.285  16.149   5.782
 5240POPC   C1A68403  18.428  15.793   6.143
 5240POPC   D2A68404  18.437  15.964   6.557
 5240POPC   C3A68405  18.412  15.717   6.914
 5240POPC   C4A68406  18.234  15.855   7.280
 5240POPC   C1B68407  18.437  16.308   6.165
 5240POPC   C2B68408  18.527  16.464   6.583
 5240POPC   C3B68409  18.380  16.277   6.982
 5240POPC   C4B68410  18.425  16.399   7.393
 5241POPC   NC368411   4.687   9.566   5.724
 5241POPC   PO468412   4.172   9.780   5.399
 5241POPC   GL168413   4.162   9.981   5.804
 5241POPC   GL268414   4.497   9.989   5.931
 5241POPC   C1A68415   4.139   9.762   6.236
 5241POPC   D2A68416   4.295   9.523   6.610
 5241POPC   C3A68417   4.091   9.692   6.962
 5241POPC   C4A68418   3.841   9.690   7.330
 5241POPC   C1B68419   4.660   9.804   6.318
 5241POPC   C2B68420   4.861   9.837   6.706
 5241POPC   C3B68421   4.615   9.636   6.998
 5241POPC   C4B68422   4.411   9.687   7.399
 5242POPC   NC368423  25.107  13.835   5.083
 5242POPC   PO468424  25.573  13.628   5.515
 5242POPC   GL168425  25.479  13.562   5.965
 5242POPC   GL268426  25.159  13.405   5.961
 5242POPC   C1A68427  25.303  13.801   6.334
 5242POPC   D2A68428  25.016  13.771   6.708
 5242POPC   C3A68429  25.147  13.632   7.148
 5242POPC   C4A68430  25.320  13.736   7.574
 5242POPC   C1B68431  25.153  13.305   6.396
 5242POPC   C2B68432  25.427  13.207   6.755
 5242POPC   C3B68433  25.320  13.110   7.170
 5242POPC   C4B68434  25.252  13.212   7.595
 5243POPC   NC368435  24.161   2.878   5.200
 5243POPC   PO468436  24.548   2.385   5.305
 5243POPC   GL168437  24.551   2.643   5.693
 5243POPC   GL268438  24.741   2.331   5.794
 5243POPC   C1A68439  24.436   2.937   6.092
 5243POPC   D2A68440  24.602   3.046   6.539
 5243POPC   C3A68441  24.386   3.138   6.947
 5243POPC   C4A68442  24.590   3.056   7.314
 5243POPC   C1B68443  24.376   2.424   6.104
 5243POPC   C2B68444  24.430   2.568   6.521
 5243POPC   C3B68445  24.323   2.648   6.940
 5243POPC   C4B68446  24.223   2.692   7.355
 5244POPC   NC368447  15.444  12.110   5.729
 5244POPC   PO468448  14.872  11.974   5.277
 5244POPC   GL168449  15.005  11.825   5.703
 5244POPC   GL268450  14.917  12.122   5.836
 5244POPC   C1A68451  15.107  11.813   6.208
 5244POPC   D2A68452  15.111  11.689   6.682
 5244POPC   C3A68453  15.249  12.035   6.989
 5244POPC   C4A68454  15.456  12.432   7.199
 5244POPC   C1B68455  14.658  12.205   6.194
 5244POPC   C2B68456  14.652  12.367   6.617
 5244POPC   C3B68457  14.771  12.201   6.996
 5244POPC   C4B68458  14.981  12.317   7.391
 5245POPC   NC368459  27.010  10.109   5.578
 5245POPC   PO468460  26.769  10.710   5.322
 5245POPC   GL168461  26.708  10.676   5.783
 5245POPC   GL268462  27.020  10.561   5.872
 5245POPC   C1A68463  26.762  10.760   6.280
 5245POPC   D2A68464  26.602  10.771   6.701
 5245POPC   C3A68465  26.937  10.592   6.937
 5245POPC   C4A68466  27.154  10.529   7.309
 5245POPC   C1B68467  26.787  10.269   6.188
 5245POPC   C2B68468  26.759  10.159   6.662
 5245POPC   C3B68469  26.533  10.306   7.075
 5245POPC   C4B68470  26.515  10.304   7.557
 5246POPC   NC368471  40.359  23.465   5.385
 5246POPC   PO468472  39.792  23.869   5.356
 5246POPC   GL168473  39.995  23.664   5.717
 5246POPC   GL268474  40.316  23.788   5.818
 5246POPC   C1A68475  39.946  23.638   6.147
 5246POPC   D2A68476  40.084  23.729   6.525
 5246POPC   C3A68477  39.781  23.714   6.846
 5246POPC   C4A68478  39.748  23.519   7.233
 5246POPC   C1B68479  40.431  23.456   6.168
 5246POPC   C2B68480  40.319  23.288   6.613
 5246POPC   C3B68481  40.243  23.495   7.004
 5246POPC   C4B68482  40.430  23.461   7.404
 5247POPC   NC368483  37.932  26.066   5.459
 5247POPC   PO468484  37.305  26.256   5.653
 5247POPC   GL168485  37.573  25.969   5.835
 5247POPC   GL268486  37.397  25.702   5.983
 5247POPC   C1A68487  37.889  26.015   6.139
 5247POPC   D2A68488  37.920  26.295   6.480
 5247POPC   C3A68489  37.907  26.153   6.880
 5247POPC   C4A68490  37.908  26.090   7.290
 5247POPC   C1B68491  37.401  26.055   6.308
 5247POPC   C2B68492  37.410  26.214   6.728
 5247POPC   C3B68493  37.419  26.009   7.127
 5247POPC   C4B68494  37.288  25.669   7.402
 5248POPC   NC368495  35.789  33.447   5.521
 5248POPC   PO468496  36.461  33.514   5.305
 5248POPC   GL168497  36.288  33.563   5.703
 5248POPC   GL268498  36.102  33.876   5.607
 5248POPC   C1A68499  36.157  33.382   6.117
 5248POPC   D2A68500  36.000  33.519   6.536
 5248POPC   C3A68501  36.256  33.638   6.871
 5248POPC   C4A68502  36.301  33.467   7.269
 5248POPC   C1B68503  36.085  33.915   6.059
 5248POPC   C2B68504  35.872  34.027   6.444
 5248POPC   C3B68505  35.951  34.098   6.874
 5248POPC   C4B68506  36.008  33.902   7.266
 5249POPC   NC368507  41.399  40.486   5.479
 5249POPC   PO468508  41.756  41.011   5.641
 5249POPC   GL168509  41.541  40.693   5.931
 5249POPC   GL268510  41.682  40.334   5.922
 5249POPC   C1A68511  41.487  40.758   6.392
 5249POPC   D2A68512  41.787  41.056   6.593
 5249POPC   C3A68513  41.772  40.967   7.002
 5249POPC   C4A68514  41.417  40.746   7.141
 5249POPC   C1B68515  41.562  40.221   6.348
 5249POPC   C2B68516  41.269  40.166   6.718
 5249POPC   C3B68517  41.350  40.233   7.164
 5249POPC   C4B68518  41.657  40.446   7.482
 5250POPC   NC368519  10.478  26.609   5.191
 5250POPC   PO468520  10.633  26.010   5.280
 5250POPC   GL168521  10.449  25.898   5.732
 5250POPC   GL268522  10.495  26.215   5.884
 5250POPC   C1A68523  10.243  25.947   6.212
 5250POPC   D2A68524  10.353  26.159   6.622
 5250POPC   C3A68525  10.387  25.960   7.056
 5250POPC   C4A68526  10.276  25.721   7.434
 5250POPC   C1B68527  10.753  25.952   6.188
 5250POPC   C2B68528  10.867  25.658   6.533
 5250POPC   C3B68529  10.907  25.776   6.959
 5250POPC   C4B68530  10.835  26.215   7.102
 5251POPC   NC368531  11.998  22.906   5.162
 5251POPC   PO468532  12.643  23.050   5.442
 5251POPC   GL168533  12.470  22.818   5.829
 5251POPC   GL268534  12.307  23.145   5.862
 5251POPC   C1A68535  12.189  22.732   6.253
 5251POPC   D2A68536  12.188  22.458   6.599
 5251POPC   C3A68537  12.032  22.592   6.954
 5251POPC   C4A68538  12.016  22.697   7.365
 5251POPC   C1B68539  12.156  23.237   6.264
 5251POPC   C2B68540  12.027  23.085   6.670
 5251POPC   C3B68541  12.019  23.133   7.118
 5251POPC   C4B68542  11.939  23.226   7.591
 5252POPC   NC368543   1.399  16.616   5.569
 5252POPC   PO468544   1.991  16.531   5.406
 5252POPC   GL168545   2.107  16.683   5.806
 5252POPC   GL268546   1.776  16.732   5.916
 5252POPC   C1A68547   2.192  17.008   6.121
 5252POPC   D2A68548   2.142  17.165   6.546
 5252POPC   C3A68549   2.042  16.833   6.852
 5252POPC   C4A68550   2.200  16.824   7.267
 5252POPC   C1B68551   1.959  16.557   6.289
 5252POPC   C2B68552   2.056  16.312   6.682
 5252POPC   C3B68553   1.982  16.311   7.121
 5252POPC   C4B68554   2.260  16.357   7.461
 5253POPC   NC368555   8.111  41.762   5.531
 5253POPC   PO468556   8.408  41.188   5.420
 5253POPC   GL168557   8.352  41.414   5.828
 5253POPC   GL268558   8.321  41.749   5.988
 5253POPC   C1A68559   8.218  41.345   6.249
 5253POPC   D2A68560   8.335  41.619   6.552
 5253POPC   C3A68561   8.315  41.455   6.925
 5253POPC   C4A68562   8.607  41.493   7.228
 5253POPC   C1B68563   7.935  41.791   6.286
 5253POPC   C2B68564   7.876  41.798   6.748
 5253POPC   C3B68565   8.097  41.888   7.155
 5253POPC   C4B68566   7.905  41.945   7.575
 5254POPC   NC368567  17.503  16.591   5.459
 5254POPC   PO468568  17.143  17.179   5.489
 5254POPC   GL168569  17.347  17.015   5.844
 5254POPC   GL268570  17.682  16.977   5.842
 5254POPC   C1A68571  17.308  16.638   6.112
 5254POPC   D2A68572  17.464  16.500   6.516
 5254POPC   C3A68573  17.315  16.618   6.927
 5254POPC   C4A68574  17.423  16.949   7.187
 5254POPC   C1B68575  17.696  16.931   6.295
 5254POPC   C2B68576  17.750  16.874   6.753
 5254POPC   C3B68577  17.904  17.048   7.139
 5254POPC   C4B68578  17.729  17.080   7.590
 5255POPC   NC368579  29.515  43.343   5.591
 5255POPC   PO468580  28.980  42.857   5.456
 5255POPC   GL168581  29.214  42.975   5.803
 5255POPC   GL268582  28.939  42.900   6.010
 5255POPC   C1A68583  29.285  43.206   6.217
 5255POPC   D2A68584  29.139  43.294   6.643
 5255POPC   C3A68585  29.354  43.328   7.039
 5255POPC   C4A68586  29.270  43.176   7.492
 5255POPC   C1B68587  28.747  43.213   6.306
 5255POPC   C2B68588  28.636  43.336   6.738
 5255POPC   C3B68589  28.845  43.184   7.113
 5255POPC   C4B68590  28.764  43.187   7.547
 5256POPC   NC368591  29.753   2.666   5.479
 5256POPC   PO468592  29.880   3.307   5.638
 5256POPC   GL168593  29.819   2.965   5.874
 5256POPC   GL268594  30.155   2.835   5.777
 5256POPC   C1A68595  29.641   2.666   6.200
 5256POPC   D2A68596  29.723   2.558   6.648
 5256POPC   C3A68597  30.111   2.634   6.849
 5256POPC   C4A68598  30.249   2.409   7.204
 5256POPC   C1B68599  30.203   3.061   6.180
 5256POPC   C2B68600  29.822   3.111   6.397
 5256POPC   C3B68601  29.751   3.049   6.808
 5256POPC   C4B68602  29.835   2.890   7.198
 5257POPC   NC368603  23.854   9.441   5.445
 5257POPC   PO468604  24.206   8.920   5.340
 5257POPC   GL168605  23.917   8.973   5.744
 5257POPC   GL268606  23.794   9.275   5.910
 5257POPC   C1A68607  23.973   8.926   6.239
 5257POPC   D2A68608  23.877   8.799   6.704
 5257POPC   C3A68609  23.830   8.983   7.107
 5257POPC   C4A68610  23.676   8.906   7.478
 5257POPC   C1B68611  23.597   9.269   6.322
 5257POPC   C2B68612  23.671   9.319   6.769
 5257POPC   C3B68613  23.441   9.297   7.176
 5257POPC   C4B68614  23.233   9.259   7.577
 5258POPC   NC368615  38.034  18.337   5.452
 5258POPC   PO468616  38.723  18.214   5.232
 5258POPC   GL168617  38.539  18.394   5.626
 5258POPC   GL268618  38.385  18.087   5.725
 5258POPC   C1A68619  38.727  18.480   6.061
 5258POPC   D2A68620  38.706  18.219   6.470
 5258POPC   C3A68621  38.650  18.341   6.931
 5258POPC   C4A68622  38.497  18.475   7.340
 5258POPC   C1B68623  38.259  18.293   6.103
 5258POPC   C2B68624  38.224  18.400   6.527
 5258POPC   C3B68625  38.178  18.548   6.934
 5258POPC   C4B68626  38.016  18.365   7.302
 5259POPC   NC368627  13.901  43.627   5.020
 5259POPC   PO468628  13.394  43.810   5.406
 5259POPC   GL168629  13.571  43.869   5.786
 5259POPC   GL268630  13.411  44.187   5.848
 5259POPC   C1A68631  13.850  43.780   6.151
 5259POPC   D2A68632  14.031  43.985   6.538
 5259POPC   C3A68633  13.807  43.842   6.898
 5259POPC   C4A68634  13.562  43.904   7.246
 5259POPC   C1B68635  13.295  43.942   6.192
 5259POPC   C2B68636  13.441  43.980   6.580
 5259POPC   C3B68637  13.282  44.215   6.892
 5259POPC   C4B68638  13.347  44.398   7.264
 5260POPC   NC368639  42.081  20.107   5.360
 5260POPC   PO468640  42.502  19.626   5.395
 5260POPC   GL168641  42.449  19.816   5.806
 5260POPC   GL268642  42.093  19.817   5.808
 5260POPC   C1A68643  42.629  19.908   6.239
 5260POPC   D2A68644  42.850  19.716   6.608
 5260POPC   C3A68645  42.688  19.880   7.024
 5260POPC   C4A68646  42.322  20.109   7.158
 5260POPC   C1B68647  42.179  19.670   6.246
 5260POPC   C2B68648  42.333  19.741   6.664
 5260POPC   C3B68649  42.105  19.690   7.020
 5260POPC   C4B68650  42.115  19.777   7.478
 5261POPC   NC368651  28.911  22.633   5.422
 5261POPC   PO468652  29.569  22.756   5.506
 5261POPC   GL168653  29.306  22.771   5.890
 5261POPC   GL268654  29.022  22.951   5.810
 5261POPC   C1A68655  29.284  22.875   6.357
 5261POPC   D2A68656  29.353  23.112   6.737
 5261POPC   C3A68657  29.402  22.932   7.132
 5261POPC   C4A68658  29.280  23.154   7.510
 5261POPC   C1B68659  28.858  23.102   6.209
 5261POPC   C2B68660  28.861  22.966   6.652
 5261POPC   C3B68661  28.928  23.100   7.067
 5261POPC   C4B68662  28.764  23.104   7.467
 5262POPC   NC368663   4.561  16.632   5.392
 5262POPC   PO468664   5.236  16.452   5.413
 5262POPC   GL168665   5.045  16.425   5.833
 5262POPC   GL268666   4.653  16.435   5.866
 5262POPC   C1A68667   5.195  16.614   6.229
 5262POPC   D2A68668   5.102  16.796   6.640
 5262POPC   C3A68669   5.357  16.902   7.005
 5262POPC   C4A68670   5.038  16.963   7.378
 5262POPC   C1B68671   4.676  16.544   6.322
 5262POPC   C2B68672   4.732  16.438   6.770
 5262POPC   C3B68673   5.052  16.507   7.100
 5262POPC   C4B68674   4.980  16.470   7.586
 5263POPC   NC368675  33.136  41.386   5.400
 5263POPC   PO468676  32.896  42.033   5.244
 5263POPC   GL168677  32.959  41.874   5.718
 5263POPC   GL268678  32.980  41.505   5.849
 5263POPC   C1A68679  33.150  41.833   6.168
 5263POPC   D2A68680  33.009  41.779   6.584
 5263POPC   C3A68681  33.201  41.479   6.836
 5263POPC   C4A68682  33.151  41.784   7.171
 5263POPC   C1B68683  32.802  41.433   6.262
 5263POPC   C2B68684  32.742  41.287   6.692
 5263POPC   C3B68685  32.816  41.358   7.143
 5263POPC   C4B68686  33.180  41.324   7.390
 5264POPC   NC368687  26.785  23.680   5.479
 5264POPC   PO468688  26.724  24.331   5.413
 5264POPC   GL168689  26.948  24.061   5.767
 5264POPC   GL268690  26.636  24.021   5.900
 5264POPC   C1A68691  27.040  23.766   6.162
 5264POPC   D2A68692  27.282  23.795   6.573
 5264POPC   C3A68693  27.134  23.743   7.033
 5264POPC   C4A68694  26.913  23.601   7.406
 5264POPC   C1B68695  26.735  24.138   6.314
 5264POPC   C2B68696  26.795  23.924   6.701
 5264POPC   C3B68697  26.614  23.599   6.980
 5264POPC   C4B68698  26.319  23.646   7.314
 5265POPC   NC368699  44.468  38.177   5.737
 5265POPC   PO468700  44.282  37.630   5.366
 5265POPC   GL168701  44.668  37.657   5.612
 5265POPC   GL268702  44.497  37.612   5.880
 5265POPC   C1A68703  44.964  37.773   6.005
 5265POPC   D2A68704   0.004  37.728   6.495
 5265POPC   C3A68705  44.667  37.893   6.791
 5265POPC   C4A68706  44.393  37.759   7.140
 5265POPC   C1B68707  44.527  37.753   6.293
 5265POPC   C2B68708  44.554  37.439   6.592
 5265POPC   C3B68709  44.359  37.231   6.879
 5265POPC   C4B68710  44.385  37.262   7.267
 5266POPC   NC368711  37.101  23.477   5.439
 5266POPC   PO468712  36.824  22.883   5.476
 5266POPC   GL168713  37.088  22.882   5.832
 5266POPC   GL268714  37.004  23.205   5.883
 5266POPC   C1A68715  37.061  22.877   6.309
 5266POPC   D2A68716  36.842  22.950   6.721
 5266POPC   C3A68717  37.083  22.919   7.088
 5266POPC   C4A68718  37.375  22.833   7.445
 5266POPC   C1B68719  37.111  23.404   6.262
 5266POPC   C2B68720  37.255  23.259   6.648
 5266POPC   C3B68721  37.224  23.420   7.036
 5266POPC   C4B68722  36.850  23.675   7.147
 5267POPC   NC368723   2.829  18.372   5.411
 5267POPC   PO468724   3.363  18.031   5.364
 5267POPC   GL168725   3.082  18.064   5.788
 5267POPC   GL268726   2.693  18.149   5.829
 5267POPC   C1A68727   2.918  18.002   6.253
 5267POPC   D2A68728   3.016  18.300   6.593
 5267POPC   C3A68729   2.832  18.323   6.991
 5267POPC   C4A68730   2.997  18.334   7.437
 5267POPC   C1B68731   2.431  18.167   6.199
 5267POPC   C2B68732   2.544  18.098   6.609
 5267POPC   C3B68733   2.394  17.985   6.979
 5267POPC   C4B68734   2.445  18.196   7.341
 5268POPC   NC368735  29.394  16.639   5.060
 5268POPC   PO468736  29.512  16.959   5.662
 5268POPC   GL168737  29.106  16.827   5.843
 5268POPC   GL268738  28.874  16.613   5.623
 5268POPC   C1A68739  28.993  16.779   6.288
 5268POPC   D2A68740  29.034  16.612   6.699
 5268POPC   C3A68741  29.218  16.824   7.031
 5268POPC   C4A68742  28.991  17.037   7.323
 5268POPC   C1B68743  28.701  16.451   6.037
 5268POPC   C2B68744  28.580  16.466   6.499
 5268POPC   C3B68745  28.649  16.310   6.935
 5268POPC   C4B68746  29.042  16.344   7.154
 5269POPC   NC368747  16.464  13.354   5.458
 5269POPC   PO468748  15.935  13.727   5.424
 5269POPC   GL168749  15.963  13.832   5.839
 5269POPC   GL268750  16.328  13.782   5.843
 5269POPC   C1A68751  15.726  13.765   6.224
 5269POPC   D2A68752  15.584  13.523   6.579
 5269POPC   C3A68753  15.687  13.737   6.939
 5269POPC   C4A68754  15.824  13.650   7.330
 5269POPC   C1B68755  16.344  13.389   6.111
 5269POPC   C2B68756  16.358  13.331   6.585
 5269POPC   C3B68757  16.195  13.544   6.973
 5269POPC   C4B68758  16.198  13.988   7.152
 5270POPC   NC368759   3.298  10.750   5.440
 5270POPC   PO468760   3.716  10.293   5.424
 5270POPC   GL168761   3.619  10.505   5.799
 5270POPC   GL268762   3.925  10.649   5.776
 5270POPC   C1A68763   3.414  10.440   6.224
 5270POPC   D2A68764   3.124  10.405   6.568
 5270POPC   C3A68765   3.383  10.568   6.901
 5270POPC   C4A68766   3.604  10.448   7.259
 5270POPC   C1B68767   3.974  10.609   6.232
 5270POPC   C2B68768   3.847  10.515   6.661
 5270POPC   C3B68769   3.921  10.186   6.960
 5270POPC   C4B68770   4.031  10.162   7.378
 5271POPC   NC368771   4.668  12.030   5.444
 5271POPC   PO468772   3.987  11.862   5.517
 5271POPC   GL168773   4.323  12.033   5.819
 5271POPC   GL268774   4.489  12.401   5.776
 5271POPC   C1A68775   4.456  11.890   6.237
 5271POPC   D2A68776   4.296  12.098   6.593
 5271POPC   C3A68777   4.094  11.947   6.971
 5271POPC   C4A68778   4.285  11.846   7.365
 5271POPC   C1B68779   4.698  12.403   6.205
 5271POPC   C2B68780   4.787  12.297   6.651
 5271POPC   C3B68781   4.510  12.281   7.019
 5271POPC   C4B68782   4.499  12.273   7.441
 5272POPC   NC368783  44.314  38.094   5.222
 5272POPC   PO468784  44.865  38.357   5.576
 5272POPC   GL168785  44.822  38.489   5.958
 5272POPC   GL268786  44.513  38.659   5.918
 5272POPC   C1A68787  44.804  38.222   6.343
 5272POPC   D2A68788   0.068  38.202   6.701
 5272POPC   C3A68789  44.864  38.258   7.112
 5272POPC   C4A68790  44.431  38.303   7.200
 5272POPC   C1B68791  44.593  38.705   6.351
 5272POPC   C2B68792  44.621  38.555   6.768
 5272POPC   C3B68793  44.711  38.771   7.157
 5272POPC   C4B68794  44.500  38.889   7.560
 5273POPC   NC368795   0.786  15.835   5.452
 5273POPC   PO468796   0.100  16.049   5.455
 5273POPC   GL168797   0.381  15.873   5.804
 5273POPC   GL268798   0.758  15.854   5.947
 5273POPC   C1A68799   0.386  15.953   6.271
 5273POPC   D2A68800   0.394  16.232   6.637
 5273POPC   C3A68801   0.336  16.145   7.096
 5273POPC   C4A68802   0.224  15.964   7.522
 5273POPC   C1B68803   0.851  15.862   6.394
 5273POPC   C2B68804   0.590  15.690   6.716
 5273POPC   C3B68805   0.687  15.785   7.121
 5273POPC   C4B68806   0.856  16.186   7.214
 5274POPC   NC368807  18.190  21.153   5.339
 5274POPC   PO468808  18.086  21.759   5.230
 5274POPC   GL168809  18.271  21.791   5.667
 5274POPC   GL268810  17.963  21.874   5.805
 5274POPC   C1A68811  18.509  21.672   6.073
 5274POPC   D2A68812  18.401  21.336   6.403
 5274POPC   C3A68813  18.570  21.329   6.827
 5274POPC   C4A68814  18.358  21.126   7.152
 5274POPC   C1B68815  18.005  21.632   6.164
 5274POPC   C2B68816  17.901  21.498   6.554
 5274POPC   C3B68817  18.061  21.508   6.954
 5274POPC   C4B68818  18.202  21.580   7.389
 5275POPC   NC368819  14.586  21.621   5.534
 5275POPC   PO468820  14.077  22.002   5.258
 5275POPC   GL168821  14.179  21.941   5.721
 5275POPC   GL268822  14.505  22.056   5.778
 5275POPC   C1A68823  14.236  22.064   6.195
 5275POPC   D2A68824  14.400  21.910   6.605
 5275POPC   C3A68825  14.298  22.000   7.074
 5275POPC   C4A68826  14.140  21.940   7.511
 5275POPC   C1B68827  14.724  22.380   6.006
 5275POPC   C2B68828  14.838  22.403   6.429
 5275POPC   C3B68829  14.638  22.311   6.820
 5275POPC   C4B68830  14.713  22.478   7.205
 5276POPC   NC368831  29.329  42.440   5.440
 5276POPC   PO468832  28.991  41.872   5.333
 5276POPC   GL168833  29.058  42.083   5.767
 5276POPC   GL268834  29.358  42.268   5.916
 5276POPC   C1A68835  28.913  42.317   6.168
 5276POPC   D2A68836  28.792  42.188   6.601
 5276POPC   C3A68837  29.114  42.244   6.911
 5276POPC   C4A68838  29.120  42.069   7.321
 5276POPC   C1B68839  29.351  42.641   6.187
 5276POPC   C2B68840  29.409  42.847   6.585
 5276POPC   C3B68841  29.199  42.836   6.959
 5276POPC   C4B68842  29.174  42.580   7.299
 5277POPC   NC368843   9.009   5.356   5.505
 5277POPC   PO468844   9.256   4.666   5.526
 5277POPC   GL168845   9.108   4.981   5.853
 5277POPC   GL268846   9.236   5.252   6.013
 5277POPC   C1A68847   8.828   5.029   6.219
 5277POPC   D2A68848   8.868   4.851   6.637
 5277POPC   C3A68849   8.669   4.995   7.019
 5277POPC   C4A68850   8.892   5.208   7.338
 5277POPC   C1B68851   9.337   4.841   6.269
 5277POPC   C2B68852   9.442   4.724   6.694
 5277POPC   C3B68853   9.222   4.870   7.070
 5277POPC   C4B68854   9.276   4.941   7.511
 5278POPC   NC368855  39.026  30.666   5.206
 5278POPC   PO468856  39.540  31.008   5.507
 5278POPC   GL168857  39.342  30.825   5.848
 5278POPC   GL268858  39.097  30.576   5.714
 5278POPC   C1A68859  39.289  30.797   6.269
 5278POPC   D2A68860  39.030  30.861   6.595
 5278POPC   C3A68861  39.172  30.721   6.955
 5278POPC   C4A68862  39.149  30.914   7.328
 5278POPC   C1B68863  39.237  30.349   6.072
 5278POPC   C2B68864  39.087  30.341   6.492
 5278POPC   C3B68865  39.117  30.206   6.909
 5278POPC   C4B68866  38.954  30.404   7.291
 5279POPC   NC368867  32.417   2.429   5.214
 5279POPC   PO468868  32.213   1.882   5.584
 5279POPC   GL168869  32.388   2.063   5.823
 5279POPC   GL268870  32.656   2.172   5.619
 5279POPC   C1A68871  32.244   2.099   6.235
 5279POPC   D2A68872  32.029   2.167   6.609
 5279POPC   C3A68873  32.120   1.804   6.836
 5279POPC   C4A68874  31.984   1.660   7.204
 5279POPC   C1B68875  32.742   2.250   6.093
 5279POPC   C2B68876  32.689   1.980   6.491
 5279POPC   C3B68877  32.593   2.069   6.920
 5279POPC   C4B68878  32.344   2.013   7.279
 5280POPC   NC368879  21.210  23.653   5.206
 5280POPC   PO468880  21.768  23.981   5.442
 5280POPC   GL168881  21.501  23.672   5.656
 5280POPC   GL268882  21.211  23.832   5.814
 5280POPC   C1A68883  21.543  23.504   6.096
 5280POPC   D2A68884  21.733  23.578   6.516
 5280POPC   C3A68885  21.521  23.538   6.894
 5280POPC   C4A68886  21.235  23.692   7.185
 5280POPC   C1B68887  21.300  24.019   6.246
 5280POPC   C2B68888  21.445  24.014   6.687
 5280POPC   C3B68889  21.629  24.003   7.096
 5280POPC   C4B68890  21.465  24.068   7.536
 5281POPC   NC368891  31.777   2.874   5.218
 5281POPC   PO468892  31.349   2.408   5.458
 5281POPC   GL168893  31.513   2.493   5.839
 5281POPC   GL268894  31.650   2.826   5.734
 5281POPC   C1A68895  31.541   2.446   6.301
 5281POPC   D2A68896  31.326   2.596   6.677
 5281POPC   C3A68897  31.460   2.533   7.128
 5281POPC   C4A68898  31.220   2.685   7.492
 5281POPC   C1B68899  31.468   2.935   6.144
 5281POPC   C2B68900  31.628   2.982   6.562
 5281POPC   C3B68901  31.398   3.028   6.960
 5281POPC   C4B68902  31.661   3.096   7.298
 5282POPC   NC368903   3.366  31.830   5.272
 5282POPC   PO468904   3.383  32.501   5.352
 5282POPC   GL168905   3.619  32.378   5.744
 5282POPC   GL268906   3.731  32.014   5.755
 5282POPC   C1A68907   3.609  32.488   6.190
 5282POPC   D2A68908   3.456  32.313   6.564
 5282POPC   C3A68909   3.740  32.326   6.898
 5282POPC   C4A68910   3.645  32.501   7.262
 5282POPC   C1B68911   3.582  31.966   6.221
 5282POPC   C2B68912   3.604  31.843   6.701
 5282POPC   C3B68913   3.521  31.952   7.180
 5282POPC   C4B68914   3.426  31.948   7.655
 5283POPC   NC368915  14.090  41.923   5.402
 5283POPC   PO468916  14.701  41.508   5.423
 5283POPC   GL168917  14.485  41.478   5.858
 5283POPC   GL268918  14.122  41.508   5.786
 5283POPC   C1A68919  14.211  41.284   6.264
 5283POPC   D2A68920  14.172  41.511   6.663
 5283POPC   C3A68921  14.553  41.698   6.870
 5283POPC   C4A68922  14.567  41.664   7.325
 5283POPC   C1B68923  14.193  41.769   6.178
 5283POPC   C2B68924  14.163  42.033   6.555
 5283POPC   C3B68925  14.135  41.968   6.984
 5283POPC   C4B68926  14.058  41.580   7.172
 5284POPC   NC368927  26.329  27.107   5.644
 5284POPC   PO468928  25.729  26.740   5.479
 5284POPC   GL168929  25.986  26.776   5.763
 5284POPC   GL268930  26.299  26.589   5.773
 5284POPC   C1A68931  25.929  26.723   6.165
 5284POPC   D2A68932  25.782  26.994   6.475
 5284POPC   C3A68933  25.796  26.887   6.888
 5284POPC   C4A68934  25.903  27.186   7.200
 5284POPC   C1B68935  26.449  26.716   6.203
 5284POPC   C2B68936  26.210  26.714   6.604
 5284POPC   C3B68937  26.288  26.787   7.042
 5284POPC   C4B68938  26.480  26.520   7.332
 5285POPC   NC368939  12.240   8.719   5.395
 5285POPC   PO468940  12.600   8.285   5.695
 5285POPC   GL168941  12.286   8.631   5.905
 5285POPC   GL268942  11.923   8.714   5.794
 5285POPC   C1A68943  12.177   9.012   6.143
 5285POPC   D2A68944  12.180   9.236   6.531
 5285POPC   C3A68945  11.995   8.998   6.865
 5285POPC   C4A68946  12.181   8.853   7.220
 5285POPC   C1B68947  11.821   8.479   6.152
 5285POPC   C2B68948  11.964   8.538   6.554
 5285POPC   C3B68949  11.836   8.417   6.950
 5285POPC   C4B68950  11.805   8.559   7.369
 5286POPC   NC368951   7.550  20.934   5.365
 5286POPC   PO468952   7.011  20.435   5.275
 5286POPC   GL168953   7.176  20.668   5.624
 5286POPC   GL268954   7.500  20.509   5.708
 5286POPC   C1A68955   7.190  20.667   6.084
 5286POPC   D2A68956   7.412  20.631   6.478
 5286POPC   C3A68957   7.305  20.587   6.911
 5286POPC   C4A68958   7.509  20.827   7.229
 5286POPC   C1B68959   7.706  20.361   6.145
 5286POPC   C2B68960   7.833  20.358   6.625
 5286POPC   C3B68961   7.761  20.388   7.103
 5286POPC   C4B68962   7.776  20.325   7.581
 5287POPC   NC368963  14.807   5.978   5.428
 5287POPC   PO468964  14.201   6.143   5.477
 5287POPC   GL168965  14.453   6.113   5.790
 5287POPC   GL268966  14.251   5.896   5.986
 5287POPC   C1A68967  14.652   6.158   6.153
 5287POPC   D2A68968  14.713   5.947   6.531
 5287POPC   C3A68969  14.591   6.148   6.888
 5287POPC   C4A68970  14.634   6.033   7.290
 5287POPC   C1B68971  14.223   5.639   6.351
 5287POPC   C2B68972  14.299   5.734   6.758
 5287POPC   C3B68973  14.224   5.792   7.143
 5287POPC   C4B68974  14.195   5.455   7.334
 5288POPC   NC368975  11.720  41.937   5.405
 5288POPC   PO468976  12.059  42.592   5.432
 5288POPC   GL168977  12.162  42.393   5.823
 5288POPC   GL268978  12.019  42.069   5.803
 5288POPC   C1A68979  11.998  42.387   6.253
 5288POPC   D2A68980  11.806  42.591   6.618
 5288POPC   C3A68981  11.856  42.359   6.996
 5288POPC   C4A68982  12.193  42.520   7.241
 5288POPC   C1B68983  12.088  41.886   6.185
 5288POPC   C2B68984  12.233  42.038   6.587
 5288POPC   C3B68985  12.341  42.093   7.017
 5288POPC   C4B68986  12.065  42.028   7.392
 5289POPC   NC368987  35.385   7.579   5.609
 5289POPC   PO468988  35.689   6.899   5.585
 5289POPC   GL168989  35.438   6.974   5.943
 5289POPC   GL268990  35.592   7.274   5.954
 5289POPC   C1A68991  35.342   7.145   6.365
 5289POPC   D2A68992  35.486   7.015   6.761
 5289POPC   C3A68993  35.374   7.262   7.075
 5289POPC   C4A68994  35.137   7.603   7.133
 5289POPC   C1B68995  35.569   7.602   6.283
 5289POPC   C2B68996  35.496   7.632   6.733
 5289POPC   C3B68997  35.642   7.728   7.168
 5289POPC   C4B68998  35.882   7.739   7.568
 5290POPC   NC368999   9.730  26.571   5.353
 5290POPC   PO469000   9.443  26.928   5.712
 5290POPC   GL169001   9.863  26.834   5.925
 5290POPC   GL269002   9.903  26.486   5.898
 5290POPC   C1A69003  10.075  27.043   6.276
 5290POPC   D2A69004  10.040  27.257   6.706
 5290POPC   C3A69005   9.873  27.018   7.056
 5290POPC   C4A69006   9.706  26.713   7.352
 5290POPC   C1B69007   9.751  26.609   6.362
 5290POPC   C2B69008   9.675  26.568   6.849
 5290POPC   C3B69009   9.546  26.268   7.228
 5290POPC   C4B69010   9.602  26.185   7.686
 5291POPC   NC369011  44.430  26.998   5.445
 5291POPC   PO469012  44.931  26.523   5.391
 5291POPC   GL169013  44.875  26.820   5.725
 5291POPC   GL269014  44.570  26.868   5.927
 5291POPC   C1A69015   0.032  26.871   6.143
 5291POPC   D2A69016   0.132  27.040   6.514
 5291POPC   C3A69017  44.848  27.061   6.855
 5291POPC   C4A69018  44.893  27.022   7.287
 5291POPC   C1B69019  44.606  26.945   6.397
 5291POPC   C2B69020  44.497  26.691   6.757
 5291POPC   C3B69021  44.449  26.831   7.161
 5291POPC   C4B69022  44.401  27.263   7.328
 5292POPC   NC369023  38.643  25.363   5.482
 5292POPC   PO469024  38.278  24.873   5.294
 5292POPC   GL169025  38.547  24.949   5.736
 5292POPC   GL269026  38.317  25.284   5.856
 5292POPC   C1A69027  38.682  25.190   6.171
 5292POPC   D2A69028  38.463  25.393   6.527
 5292POPC   C3A69029  38.569  25.265   6.955
 5292POPC   C4A69030  38.273  25.069   7.235
 5292POPC   C1B69031  38.307  25.672   6.110
 5292POPC   C2B69032  38.176  25.834   6.538
 5292POPC   C3B69033  38.073  25.646   6.937
 5292POPC   C4B69034  38.328  25.589   7.279
 5293POPC   NC369035  22.071  17.828   5.523
 5293POPC   PO469036  21.839  18.445   5.369
 5293POPC   GL169037  21.822  18.349   5.811
 5293POPC   GL269038  21.682  18.040   5.787
 5293POPC   C1A69039  21.918  18.418   6.290
 5293POPC   D2A69040  21.824  18.452   6.791
 5293POPC   C3A69041  22.106  18.406   7.178
 5293POPC   C4A69042  22.431  18.271   7.497
 5293POPC   C1B69043  21.766  17.880   6.160
 5293POPC   C2B69044  21.760  18.017   6.544
 5293POPC   C3B69045  22.118  18.002   6.852
 5293POPC   C4B69046  22.126  17.898   7.300
 5294POPC   NC369047  35.809   2.736   5.611
 5294POPC   PO469048  36.287   2.282   5.335
 5294POPC   GL169049  36.104   2.359   5.812
 5294POPC   GL269050  36.218   2.690   5.947
 5294POPC   C1A69051  36.045   2.413   6.322
 5294POPC   D2A69052  36.308   2.621   6.667
 5294POPC   C3A69053  36.128   2.646   7.094
 5294POPC   C4A69054  35.749   2.544   7.354
 5294POPC   C1B69055  36.008   3.061   6.132
 5294POPC   C2B69056  35.811   3.145   6.513
 5294POPC   C3B69057  36.075   3.084   6.844
 5294POPC   C4B69058  36.415   3.169   7.091
 5295POPC   NC369059  41.117  20.117   5.457
 5295POPC   PO469060  41.730  19.710   5.409
 5295POPC   GL169061  41.584  19.921   5.778
 5295POPC   GL269062  41.266  19.799   5.848
 5295POPC   C1A69063  41.817  20.050   6.180
 5295POPC   D2A69064  41.858  19.907   6.583
 5295POPC   C3A69065  41.805  20.109   6.946
 5295POPC   C4A69066  41.668  19.814   7.226
 5295POPC   C1B69067  41.366  19.865   6.270
 5295POPC   C2B69068  41.285  19.775   6.697
 5295POPC   C3B69069  41.203  19.917   7.114
 5295POPC   C4B69070  41.241  19.580   7.466
 5296POPC   NC369071  44.650  33.291   5.377
 5296POPC   PO469072   0.044  32.735   5.280
 5296POPC   GL169073  44.940  32.976   5.656
 5296POPC   GL269074  44.621  32.981   5.797
 5296POPC   C1A69075   0.007  33.066   6.105
 5296POPC   D2A69076  44.838  32.922   6.504
 5296POPC   C3A69077  44.945  33.150   6.886
 5296POPC   C4A69078   0.137  33.179   7.305
 5296POPC   C1B69079  44.372  32.950   6.176
 5296POPC   C2B69080  44.292  32.886   6.602
 5296POPC   C3B69081  44.544  32.830   6.932
 5296POPC   C4B69082  44.570  33.131   7.237
 5297POPC   NC369083  25.594   9.068   5.236
 5297POPC   PO469084  25.049   9.445   5.454
 5297POPC   GL169085  25.245   9.560   5.846
 5297POPC   GL269086  25.585   9.425   5.835
 5297POPC   C1A69087  25.268   9.880   6.198
 5297POPC   D2A69088  25.045   9.914   6.626
 5297POPC   C3A69089  24.957   9.989   7.096
 5297POPC   C4A69090  25.033   9.766   7.513
 5297POPC   C1B69091  25.738   9.669   6.209
 5297POPC   C2B69092  25.585   9.921   6.590
 5297POPC   C3B69093  25.428   9.815   6.976
 5297POPC   C4B69094  25.543   9.636   7.360
 5298POPC   NC369095  36.495  34.755   5.540
 5298POPC   PO469096  37.078  34.629   5.321
 5298POPC   GL169097  36.990  34.720   5.746
 5298POPC   GL269098  37.317  34.772   5.815
 5298POPC   C1A69099  36.956  34.646   6.222
 5298POPC   D2A69100  36.853  34.448   6.631
 5298POPC   C3A69101  36.949  34.719   6.975
 5298POPC   C4A69102  36.834  34.728   7.420
 5298POPC   C1B69103  37.349  34.360   6.039
 5298POPC   C2B69104  37.275  34.226   6.442
 5298POPC   C3B69105  37.391  34.251   6.868
 5298POPC   C4B69106  37.190  34.381   7.262
 5299POPC   NC369107  24.523  24.159   5.451
 5299POPC   PO469108  24.843  23.621   5.270
 5299POPC   GL169109  24.656  23.652   5.730
 5299POPC   GL269110  24.424  23.891   5.863
 5299POPC   C1A69111  24.559  23.546   6.188
 5299POPC   D2A69112  24.612  23.706   6.595
 5299POPC   C3A69113  24.355  23.714   6.917
 5299POPC   C4A69114  24.565  23.654   7.281
 5299POPC   C1B69115  24.618  24.087   6.229
 5299POPC   C2B69116  24.486  24.180   6.660
 5299POPC   C3B69117  24.703  24.110   7.044
 5299POPC   C4B69118  24.725  24.102   7.491
 5300POPC   NC369119   8.619  41.613   5.435
 5300POPC   PO469120   9.050  41.144   5.351
 5300POPC   GL169121   9.126  41.442   5.822
 5300POPC   GL269122   8.822  41.572   5.928
 5300POPC   C1A69123   9.218  41.614   6.267
 5300POPC   D2A69124   9.341  41.441   6.671
 5300POPC   C3A69125   9.049  41.408   7.000
 5300POPC   C4A69126   9.083  41.542   7.446
 5300POPC   C1B69127   8.738  41.842   6.281
 5300POPC   C2B69128   8.811  41.797   6.720
 5300POPC   C3B69129   8.626  41.984   7.073
 5300POPC   C4B69130   8.738  41.905   7.490
 5301POPC   NC369131  43.769  37.564   5.368
 5301POPC   PO469132  43.894  38.245   5.365
 5301POPC   GL169133  44.012  37.918   5.734
 5301POPC   GL269134  44.008  37.519   5.801
 5301POPC   C1A69135  43.841  37.866   6.188
 5301POPC   D2A69136  43.538  38.055   6.524
 5301POPC   C3A69137  43.556  37.900   6.964
 5301POPC   C4A69138  43.505  37.599   7.308
 5301POPC   C1B69139  44.145  37.418   6.220
 5301POPC   C2B69140  44.070  37.611   6.642
 5301POPC   C3B69141  43.925  37.454   7.050
 5301POPC   C4B69142  43.985  37.502   7.501
 5302POPC   NC369143  31.111  26.446   5.259
 5302POPC   PO469144  30.682  26.699   5.494
 5302POPC   GL169145  30.736  26.899   5.910
 5302POPC   GL269146  30.703  27.253   5.904
 5302POPC   C1A69147  30.589  26.970   6.353
 5302POPC   D2A69148  30.376  26.869   6.779
 5302POPC   C3A69149  30.645  26.901   7.177
 5302POPC   C4A69150  30.533  26.983   7.623
 5302POPC   C1B69151  30.996  27.314   6.271
 5302POPC   C2B69152  31.193  27.268   6.712
 5302POPC   C3B69153  31.264  27.044   7.121
 5302POPC   C4B69154  31.056  27.054   7.542
 5303POPC   NC369155  44.178  20.369   5.446
 5303POPC   PO469156  43.846  20.902   5.586
 5303POPC   GL169157  43.849  20.503   5.821
 5303POPC   GL269158  44.181  20.582   5.929
 5303POPC   C1A69159  43.935  20.276   6.242
 5303POPC   D2A69160  43.802  20.122   6.650
 5303POPC   C3A69161  43.959  20.384   7.022
 5303POPC   C4A69162  43.946  20.478   7.507
 5303POPC   C1B69163  43.855  20.770   6.234
 5303POPC   C2B69164  43.759  20.627   6.604
 5303POPC   C3B69165  43.740  20.840   6.953
 5303POPC   C4B69166  43.751  20.947   7.346
 5304POPC   NC369167  34.335  33.325   5.054
 5304POPC   PO469168  34.532  32.772   5.325
 5304POPC   GL169169  34.535  32.817   5.759
 5304POPC   GL269170  34.224  32.625   5.769
 5304POPC   C1A69171  34.612  33.077   6.136
 5304POPC   D2A69172  34.676  33.292   6.491
 5304POPC   C3A69173  34.701  33.118   6.898
 5304POPC   C4A69174  34.485  33.098   7.300
 5304POPC   C1B69175  34.274  32.711   6.201
 5304POPC   C2B69176  34.472  32.794   6.572
 5304POPC   C3B69177  34.308  32.740   6.987
 5304POPC   C4B69178  34.144  32.719   7.439
 5305POPC   NC369179   9.209  30.981   5.439
 5305POPC   PO469180   8.637  30.675   5.245
 5305POPC   GL169181   8.746  30.776   5.649
 5305POPC   GL269182   9.011  30.539   5.634
 5305POPC   C1A69183   8.534  30.840   6.069
 5305POPC   D2A69184   8.436  30.746   6.510
 5305POPC   C3A69185   8.711  30.792   6.848
 5305POPC   C4A69186   8.595  30.910   7.257
 5305POPC   C1B69187   8.871  30.443   6.065
 5305POPC   C2B69188   8.942  30.423   6.526
 5305POPC   C3B69189   8.966  30.377   6.995
 5305POPC   C4B69190   9.001  30.623   7.361
 5306POPC   NC369191  27.344   4.548   5.732
 5306POPC   PO469192  27.847   4.143   5.546
 5306POPC   GL169193  27.804   4.348   5.902
 5306POPC   GL269194  27.866   4.713   5.841
 5306POPC   C1A69195  27.544   4.123   6.205
 5306POPC   D2A69196  27.608   3.914   6.561
 5306POPC   C3A69197  27.591   4.209   6.896
 5306POPC   C4A69198  27.632   4.180   7.314
 5306POPC   C1B69199  27.766   4.669   6.300
 5306POPC   C2B69200  27.880   4.625   6.728
 5306POPC   C3B69201  27.699   4.682   7.131
 5306POPC   C4B69202  27.282   4.547   7.266
 5307POPC   NC369203  36.799  30.546   5.247
 5307POPC   PO469204  37.394  30.787   5.260
 5307POPC   GL169205  37.094  30.811   5.644
 5307POPC   GL269206  37.214  30.543   5.853
 5307POPC   C1A69207  37.019  30.931   6.116
 5307POPC   D2A69208  36.727  30.907   6.480
 5307POPC   C3A69209  36.676  30.787   6.904
 5307POPC   C4A69210  36.850  30.498   7.184
 5307POPC   C1B69211  36.927  30.399   6.212
 5307POPC   C2B69212  37.030  30.473   6.655
 5307POPC   C3B69213  37.192  30.799   6.936
 5307POPC   C4B69214  37.278  30.725   7.351
 5308POPC   NC369215  23.102   4.698   5.403
 5308POPC   PO469216  23.331   5.340   5.401
 5308POPC   GL169217  23.141   5.094   5.736
 5308POPC   GL269218  22.821   5.138   5.873
 5308POPC   C1A69219  23.173   4.905   6.136
 5308POPC   D2A69220  22.921   5.019   6.466
 5308POPC   C3A69221  22.954   5.104   6.895
 5308POPC   C4A69222  23.177   4.988   7.230
 5308POPC   C1B69223  22.675   4.760   6.100
 5308POPC   C2B69224  22.627   4.628   6.521
 5308POPC   C3B69225  22.782   4.589   6.936
 5308POPC   C4B69226  22.650   4.843   7.277
 5309POPC   NC369227  23.694  34.450   5.296
 5309POPC   PO469228  23.458  35.005   5.384
 5309POPC   GL169229  23.497  34.836   5.833
 5309POPC   GL269230  23.631  34.486   5.801
 5309POPC   C1A69231  23.615  34.788   6.324
 5309POPC   D2A69232  23.572  34.810   6.830
 5309POPC   C3A69233  23.745  34.535   7.200
 5309POPC   C4A69234  23.741  34.604   7.684
 5309POPC   C1B69235  23.352  34.385   6.119
 5309POPC   C2B69236  23.417  34.378   6.573
 5309POPC   C3B69237  23.299  34.362   7.017
 5309POPC   C4B69238  23.326  34.364   7.473
 5310POPC   NC369239  26.986  44.174   5.588
 5310POPC   PO469240  26.557  43.667   5.397
 5310POPC   GL169241  26.627  43.840   5.828
 5310POPC   GL269242  26.954  43.864   6.011
 5310POPC   C1A69243  26.572  44.127   6.213
 5310POPC   D2A69244  26.690  43.998   6.634
 5310POPC   C3A69245  26.508  44.152   7.003
 5310POPC   C4A69246  26.620  43.943   7.372
 5310POPC   C1B69247  27.278  43.743   6.320
 5310POPC   C2B69248  27.232  43.967   6.728
 5310POPC   C3B69249  27.058  43.916   7.120
 5310POPC   C4B69250  27.149  43.980   7.566
 5311POPC   NC369251  36.017  42.720   5.458
 5311POPC   PO469252  36.663  42.427   5.402
 5311POPC   GL169253  36.367  42.437   5.746
 5311POPC   GL269254  36.242  42.101   5.820
 5311POPC   C1A69255  36.104  42.500   6.134
 5311POPC   D2A69256  35.992  42.478   6.598
 5311POPC   C3A69257  36.335  42.341   6.874
 5311POPC   C4A69258  36.380  42.421   7.302
 5311POPC   C1B69259  35.915  42.025   6.154
 5311POPC   C2B69260  35.794  41.988   6.584
 5311POPC   C3B69261  35.890  42.097   7.012
 5311POPC   C4B69262  35.892  42.438   7.303
 5312POPC   NC369263   0.071  40.859   5.634
 5312POPC   PO469264   0.667  41.011   5.402
 5312POPC   GL169265   0.561  40.677   5.746
 5312POPC   GL269266   0.337  40.798   6.039
 5312POPC   C1A69267   0.630  40.437   6.166
 5312POPC   D2A69268   0.733  40.669   6.580
 5312POPC   C3A69269   0.386  40.799   6.913
 5312POPC   C4A69270   0.622  40.716   7.280
 5312POPC   C1B69271   0.382  41.009   6.404
 5312POPC   C2B69272   0.315  41.280   6.719
 5312POPC   C3B69273   0.072  41.205   7.062
 5312POPC   C4B69274   0.107  40.904   7.394
 5313POPC   NC369275   5.569  13.369   5.481
 5313POPC   PO469276   5.057  13.626   5.189
 5313POPC   GL169277   5.170  13.636   5.682
 5313POPC   GL269278   4.863  13.779   5.812
 5313POPC   C1A69279   5.184  13.556   6.139
 5313POPC   D2A69280   5.204  13.756   6.579
 5313POPC   C3A69281   5.338  13.540   6.927
 5313POPC   C4A69282   5.186  13.524   7.348
 5313POPC   C1B69283   4.833  13.902   6.251
 5313POPC   C2B69284   4.708  13.878   6.705
 5313POPC   C3B69285   4.841  13.860   7.164
 5313POPC   C4B69286   4.801  13.675   7.626
 5314POPC   NC369287  42.740  20.700   5.442
 5314POPC   PO469288  42.081  20.586   5.417
 5314POPC   GL169289  42.293  20.346   5.762
 5314POPC   GL269290  42.650  20.334   5.811
 5314POPC   C1A69291  42.283  20.279   6.203
 5314POPC   D2A69292  42.270  20.236   6.643
 5314POPC   C3A69293  42.428  20.552   6.930
 5314POPC   C4A69294  42.250  20.572   7.343
 5314POPC   C1B69295  42.505  20.724   6.058
 5314POPC   C2B69296  42.483  20.871   6.491
 5314POPC   C3B69297  42.604  21.043   6.899
 5314POPC   C4B69298  42.391  21.051   7.304
 5315POPC   NC369299  11.015  10.439   5.453
 5315POPC   PO469300  11.624  10.723   5.431
 5315POPC   GL169301  11.350  10.636   5.814
 5315POPC   GL269302  10.998  10.803   5.818
 5315POPC   C1A69303  11.414  10.492   6.269
 5315POPC   D2A69304  11.656  10.548   6.660
 5315POPC   C3A69305  11.416  10.601   7.038
 5315POPC   C4A69306  11.686  10.796   7.320
 5315POPC   C1B69307  10.916  10.495   6.126
 5315POPC   C2B69308  10.733  10.578   6.523
 5315POPC   C3B69309  10.703  10.889   6.842
 5315POPC   C4B69310  10.964  10.906   7.185
 5316POPC   NC369311  17.656  32.052   5.677
 5316POPC   PO469312  17.399  31.540   5.231
 5316POPC   GL169313  17.519  31.539   5.690
 5316POPC   GL269314  17.817  31.354   5.829
 5316POPC   C1A69315  17.442  31.663   6.120
 5316POPC   D2A69316  17.522  31.692   6.543
 5316POPC   C3A69317  17.350  31.661   6.950
 5316POPC   C4A69318  17.277  31.589   7.366
 5316POPC   C1B69319  17.912  31.541   6.221
 5316POPC   C2B69320  17.974  31.385   6.605
 5316POPC   C3B69321  17.801  31.422   6.971
 5316POPC   C4B69322  17.768  31.734   7.244
 5317POPC   NC369323   0.620  34.606   5.442
 5317POPC   PO469324   0.094  34.341   5.797
 5317POPC   GL169325   0.412  34.609   5.920
 5317POPC   GL269326   0.320  34.969   5.791
 5317POPC   C1A69327   0.615  34.617   6.334
 5317POPC   D2A69328   0.878  34.696   6.687
 5317POPC   C3A69329   0.672  34.425   6.946
 5317POPC   C4A69330   0.238  34.419   7.139
 5317POPC   C1B69331   0.551  35.093   6.185
 5317POPC   C2B69332   0.532  35.103   6.671
 5317POPC   C3B69333   0.471  34.878   7.094
 5317POPC   C4B69334   0.624  34.948   7.561
 5318POPC   NC369335   6.922  42.892   5.390
 5318POPC   PO469336   6.441  43.335   5.359
 5318POPC   GL169337   6.589  43.130   5.769
 5318POPC   GL269338   6.962  43.192   5.847
 5318POPC   C1A69339   6.625  43.170   6.242
 5318POPC   D2A69340   6.355  43.177   6.607
 5318POPC   C3A69341   6.501  42.948   6.938
 5318POPC   C4A69342   6.488  42.991   7.392
 5318POPC   C1B69343   7.116  43.075   6.289
 5318POPC   C2B69344   6.980  43.022   6.733
 5318POPC   C3B69345   6.948  43.012   7.179
 5318POPC   C4B69346   6.927  43.073   7.637
 5319POPC   NC369347  19.304  32.135   5.578
 5319POPC   PO469348  19.975  32.294   5.428
 5319POPC   GL169349  19.927  32.343   5.849
 5319POPC   GL269350  19.767  32.006   5.842
 5319POPC   C1A69351  19.958  32.203   6.287
 5319POPC   D2A69352  19.768  32.186   6.679
 5319POPC   C3A69353  20.127  32.224   6.938
 5319POPC   C4A69354  20.185  32.408   7.331
 5319POPC   C1B69355  19.505  31.943   6.210
 5319POPC   C2B69356  19.557  31.740   6.610
 5319POPC   C3B69357  19.457  31.935   7.018
 5319POPC   C4B69358  19.748  32.135   7.279
 5320POPC   NC369359  19.406  18.031   5.430
 5320POPC   PO469360  19.810  18.489   5.387
 5320POPC   GL169361  19.832  18.204   5.769
 5320POPC   GL269362  20.069  18.397   5.914
 5320POPC   C1A69363  19.887  18.063   6.249
 5320POPC   D2A69364  20.094  17.887   6.635
 5320POPC   C3A69365  19.895  17.999   7.040
 5320POPC   C4A69366  19.862  18.351   7.311
 5320POPC   C1B69367  19.864  18.592   6.287
 5320POPC   C2B69368  19.792  18.453   6.700
 5320POPC   C3B69369  19.718  18.748   7.031
 5320POPC   C4B69370  19.892  18.858   7.418
 5321POPC   NC369371   2.241  25.230   5.385
 5321POPC   PO469372   1.645  25.097   5.466
 5321POPC   GL169373   1.903  25.398   5.747
 5321POPC   GL269374   2.031  25.151   5.968
 5321POPC   C1A69375   1.958  25.614   6.174
 5321POPC   D2A69376   1.985  25.358   6.539
 5321POPC   C3A69377   1.962  25.443   6.958
 5321POPC   C4A69378   1.972  25.208   7.333
 5321POPC   C1B69379   2.160  24.910   6.372
 5321POPC   C2B69380   2.170  24.886   6.875
 5321POPC   C3B69381   2.108  24.716   7.300
 5321POPC   C4B69382   1.988  24.871   7.750
 5322POPC   NC369383  29.426   0.611   5.453
 5322POPC   PO469384  30.124   0.458   5.530
 5322POPC   GL169385  29.928   0.367   5.892
 5322POPC   GL269386  29.603   0.287   5.836
 5322POPC   C1A69387  29.923   0.122   6.248
 5322POPC   D2A69388  29.953   0.392   6.574
 5322POPC   C3A69389  30.184   0.259   6.868
 5322POPC   C4A69390  30.221   0.618   7.087
 5322POPC   C1B69391  29.536   0.476   6.259
 5322POPC   C2B69392  29.466   0.364   6.706
 5322POPC   C3B69393  29.681   0.521   7.071
 5322POPC   C4B69394  29.560   0.384   7.506
 5323POPC   NC369395  25.334  27.157   5.554
 5323POPC   PO469396  25.367  26.594   5.075
 5323POPC   GL169397  25.311  26.549   5.649
 5323POPC   GL269398  25.161  26.784   5.835
 5323POPC   C1A69399  25.424  26.401   6.123
 5323POPC   D2A69400  25.686  26.472   6.526
 5323POPC   C3A69401  25.494  26.467   6.921
 5323POPC   C4A69402  25.232  26.665   7.165
 5323POPC   C1B69403  25.345  26.898   6.227
 5323POPC   C2B69404  25.310  26.896   6.686
 5323POPC   C3B69405  25.354  27.147   7.079
 5323POPC   C4B69406  25.126  27.087   7.464
 5324POPC   NC369407  13.954  26.636   5.518
 5324POPC   PO469408  13.484  26.241   5.598
 5324POPC   GL169409  13.739  26.474   5.953
 5324POPC   GL269410  14.124  26.430   5.956
 5324POPC   C1A69411  13.680  26.859   6.232
 5324POPC   D2A69412  13.680  27.014   6.674
 5324POPC   C3A69413  13.597  26.700   6.969
 5324POPC   C4A69414  13.322  26.743   7.304
 5324POPC   C1B69415  14.060  26.535   6.389
 5324POPC   C2B69416  14.123  26.785   6.772
 5324POPC   C3B69417  13.991  26.931   7.179
 5324POPC   C4B69418  13.801  26.576   7.429
 5325POPC   NC369419  33.512  44.213   5.397
 5325POPC   PO469420  34.138  43.969   5.412
 5325POPC   GL169421  33.865  44.022   5.800
 5325POPC   GL269422  33.540  43.887   5.880
 5325POPC   C1A69423  33.883  44.032   6.268
 5325POPC   D2A69424  34.101  43.827   6.591
 5325POPC   C3A69425  33.977  43.883   6.998
 5325POPC   C4A69426  33.874  44.175   7.266
 5325POPC   C1B69427  33.760  43.559   6.172
 5325POPC   C2B69428  33.721  43.493   6.594
 5325POPC   C3B69429  33.554  43.576   6.970
 5325POPC   C4B69430  33.714  43.532   7.343
 5326POPC   NC369431  22.979  33.089   5.278
 5326POPC   PO469432  22.522  32.726   5.538
 5326POPC   GL169433  22.802  33.013   5.806
 5326POPC   GL269434  23.125  33.210   5.804
 5326POPC   C1A69435  22.922  32.953   6.226
 5326POPC   D2A69436  22.956  33.095   6.619
 5326POPC   C3A69437  23.124  32.828   6.900
 5326POPC   C4A69438  23.056  32.855   7.293
 5326POPC   C1B69439  23.116  33.415   6.224
 5326POPC   C2B69440  23.208  33.526   6.645
 5326POPC   C3B69441  23.150  33.340   7.057
 5326POPC   C4B69442  23.159  33.554   7.469
 5327POPC   NC369443  27.089  31.000   5.143
 5327POPC   PO469444  26.525  30.658   5.214
 5327POPC   GL169445  26.684  30.441   5.673
 5327POPC   GL269446  26.923  30.703   5.927
 5327POPC   C1A69447  26.585  30.384   6.130
 5327POPC   D2A69448  26.664  30.735   6.417
 5327POPC   C3A69449  26.844  30.716   6.861
 5327POPC   C4A69450  26.867  30.492   7.222
 5327POPC   C1B69451  27.097  30.995   6.286
 5327POPC   C2B69452  27.244  31.024   6.714
 5327POPC   C3B69453  27.260  30.929   7.160
 5327POPC   C4B69454  26.994  30.887   7.520
 5328POPC   NC369455  43.707   0.222   5.465
 5328POPC   PO469456  43.832   0.855   5.367
 5328POPC   GL169457  43.783   0.648   5.757
 5328POPC   GL269458  44.103   0.458   5.796
 5328POPC   C1A69459  43.819   0.656   6.206
 5328POPC   D2A69460  44.106   0.550   6.546
 5328POPC   C3A69461  43.926   0.614   6.968
 5328POPC   C4A69462  44.106   0.448   7.347
 5328POPC   C1B69463  44.059   0.105   6.093
 5328POPC   C2B69464  43.984   0.010   6.534
 5328POPC   C3B69465  44.137   0.081   6.945
 5328POPC   C4B69466  43.752   0.136   7.131
 5329POPC   NC369467  27.805  42.907   5.393
 5329POPC   PO469468  27.518  43.511   5.172
 5329POPC   GL169469  27.711  43.364   5.616
 5329POPC   GL269470  27.455  43.397   5.852
 5329POPC   C1A69471  27.780  43.079   6.056
 5329POPC   D2A69472  27.878  42.916   6.469
 5329POPC   C3A69473  27.838  43.057   6.899
 5329POPC   C4A69474  27.739  42.823   7.295
 5329POPC   C1B69475  27.275  43.138   6.170
 5329POPC   C2B69476  27.401  43.056   6.569
 5329POPC   C3B69477  27.384  43.300   6.904
 5329POPC   C4B69478  27.329  43.183   7.312
 5330POPC   NC369479  15.819   2.992   5.484
 5330POPC   PO469480  15.574   2.393   5.587
 5330POPC   GL169481  15.844   2.668   5.906
 5330POPC   GL269482  16.173   2.899   5.850
 5330POPC   C1A69483  15.865   2.811   6.352
 5330POPC   D2A69484  15.667   2.760   6.761
 5330POPC   C3A69485  15.905   2.748   7.136
 5330POPC   C4A69486  16.265   2.496   7.174
 5330POPC   C1B69487  16.309   2.590   6.174
 5330POPC   C2B69488  16.281   2.610   6.625
 5330POPC   C3B69489  16.290   2.951   6.889
 5330POPC   C4B69490  16.321   3.003   7.341
 5331POPC   NC369491  38.576  39.135   5.318
 5331POPC   PO469492  38.939  39.564   5.439
 5331POPC   GL169493  38.680  39.427   5.814
 5331POPC   GL269494  38.451  39.152   5.817
 5331POPC   C1A69495  38.379  39.471   6.194
 5331POPC   D2A69496  38.271  39.283   6.587
 5331POPC   C3A69497  38.594  39.364   6.852
 5331POPC   C4A69498  38.634  39.292   7.260
 5331POPC   C1B69499  38.670  39.031   6.213
 5331POPC   C2B69500  38.573  38.858   6.625
 5331POPC   C3B69501  38.382  38.902   7.041
 5331POPC   C4B69502  38.231  38.866   7.479
 5332POPC   NC369503  42.291  12.503   5.492
 5332POPC   PO469504  42.137  11.852   5.413
 5332POPC   GL169505  42.417  11.872   5.769
 5332POPC   GL269506  42.530  12.217   5.837
 5332POPC   C1A69507  42.385  11.853   6.218
 5332POPC   D2A69508  42.159  12.135   6.518
 5332POPC   C3A69509  42.320  12.260   6.932
 5332POPC   C4A69510  42.358  11.964   7.267
 5332POPC   C1B69511  42.564  12.326   6.265
 5332POPC   C2B69512  42.729  12.097   6.666
 5332POPC   C3B69513  42.798  12.183   7.143
 5332POPC   C4B69514  42.557  12.408   7.485
 5333POPC   NC369515  28.853   2.196   5.383
 5333POPC   PO469516  29.231   1.742   5.645
 5333POPC   GL169517  29.005   2.032   5.856
 5333POPC   GL269518  29.212   2.294   5.739
 5333POPC   C1A69519  28.891   2.094   6.287
 5333POPC   D2A69520  29.195   1.812   6.493
 5333POPC   C3A69521  29.292   1.693   6.911
 5333POPC   C4A69522  29.541   1.884   7.233
 5333POPC   C1B69523  29.395   2.204   6.149
 5333POPC   C2B69524  29.285   2.356   6.532
 5333POPC   C3B69525  29.267   2.214   6.922
 5333POPC   C4B69526  28.954   1.989   7.148
 5334POPC   NC369527  33.752   9.020   5.426
 5334POPC   PO469528  34.174   8.579   5.286
 5334POPC   GL169529  33.936   8.566   5.696
 5334POPC   GL269530  33.577   8.676   5.780
 5334POPC   C1A69531  33.988   8.722   6.142
 5334POPC   D2A69532  33.765   8.606   6.533
 5334POPC   C3A69533  33.932   8.765   6.929
 5334POPC   C4A69534  34.021   8.691   7.384
 5334POPC   C1B69535  33.510   8.896   6.191
 5334POPC   C2B69536  33.529   9.065   6.618
 5334POPC   C3B69537  33.517   9.026   7.068
 5334POPC   C4B69538  33.593   8.942   7.496
 5335POPC   NC369539  27.918  11.307   5.375
 5335POPC   PO469540  28.431  11.684   5.499
 5335POPC   GL169541  28.174  11.492   5.794
 5335POPC   GL269542  28.243  11.129   5.748
 5335POPC   C1A69543  28.308  11.472   6.224
 5335POPC   D2A69544  28.188  11.257   6.604
 5335POPC   C3A69545  28.533  11.353   6.892
 5335POPC   C4A69546  28.467  11.621   7.208
 5335POPC   C1B69547  28.354  10.945   6.158
 5335POPC   C2B69548  28.494  10.819   6.562
 5335POPC   C3B69549  28.346  10.901   6.965
 5335POPC   C4B69550  28.449  11.098   7.358
 5336POPC   NC369551  21.859  29.690   5.061
 5336POPC   PO469552  21.346  29.810   5.518
 5336POPC   GL169553  21.239  29.977   5.863
 5336POPC   GL269554  21.499  29.740   6.004
 5336POPC   C1A69555  21.343  30.179   6.216
 5336POPC   D2A69556  21.635  30.169   6.538
 5336POPC   C3A69557  21.410  30.122   6.901
 5336POPC   C4A69558  21.451  30.282   7.288
 5336POPC   C1B69559  21.140  29.650   6.239
 5336POPC   C2B69560  21.259  29.659   6.645
 5336POPC   C3B69561  21.354  29.625   7.068
 5336POPC   C4B69562  21.262  29.837   7.448
 5337POPC   NC369563  23.274  13.432   5.312
 5337POPC   PO469564  23.954  13.703   5.448
 5337POPC   GL169565  23.685  13.522   5.742
 5337POPC   GL269566  23.372  13.700   5.787
 5337POPC   C1A69567  23.787  13.623   6.154
 5337POPC   D2A69568  23.954  13.683   6.557
 5337POPC   C3A69569  23.821  13.479   6.932
 5337POPC   C4A69570  24.049  13.411   7.274
 5337POPC   C1B69571  23.350  13.814   6.276
 5337POPC   C2B69572  23.441  13.729   6.700
 5337POPC   C3B69573  23.612  13.946   7.052
 5337POPC   C4B69574  23.728  13.777   7.425
 5338POPC   NC369575   2.442  30.246   5.472
 5338POPC   PO469576   2.690  30.971   5.591
 5338POPC   GL169577   2.675  30.589   5.823
 5338POPC   GL269578   2.970  30.606   6.006
 5338POPC   C1A69579   2.473  30.355   6.124
 5338POPC   D2A69580   2.394  30.248   6.554
 5338POPC   C3A69581   2.574  30.486   6.900
 5338POPC   C4A69582   2.623  30.416   7.355
 5338POPC   C1B69583   2.856  30.568   6.404
 5338POPC   C2B69584   3.116  30.588   6.731
 5338POPC   C3B69585   3.066  30.376   7.090
 5338POPC   C4B69586   2.916  30.777   7.193
 5339POPC   NC369587  36.407  28.847   5.414
 5339POPC   PO469588  35.932  28.383   5.299
 5339POPC   GL169589  36.172  28.465   5.712
 5339POPC   GL269590  36.463  28.235   5.755
 5339POPC   C1A69591  36.037  28.479   6.160
 5339POPC   D2A69592  36.035  28.642   6.595
 5339POPC   C3A69593  35.816  28.370   6.913
 5339POPC   C4A69594  36.039  28.070   7.192
 5339POPC   C1B69595  36.544  28.498   6.123
 5339POPC   C2B69596  36.591  28.569   6.572
 5339POPC   C3B69597  36.358  28.372   6.890
 5339POPC   C4B69598  36.165  28.548   7.228
 5340POPC   NC369599  32.552  37.969   5.556
 5340POPC   PO469600  33.176  37.643   5.318
 5340POPC   GL169601  33.254  37.467   5.741
 5340POPC   GL269602  32.901  37.404   5.786
 5340POPC   C1A69603  33.188  37.634   6.160
 5340POPC   D2A69604  32.988  37.938   6.441
 5340POPC   C3A69605  33.013  37.848   6.861
 5340POPC   C4A69606  33.193  37.575   7.147
 5340POPC   C1B69607  32.756  37.402   6.225
 5340POPC   C2B69608  32.999  37.327   6.599
 5340POPC   C3B69609  32.800  37.277   6.989
 5340POPC   C4B69610  32.693  37.635   7.219
 5341POPC   NC369611  16.431  27.323   5.388
 5341POPC   PO469612  17.156  27.317   5.390
 5341POPC   GL169613  16.919  27.593   5.709
 5341POPC   GL269614  16.732  27.371   5.878
 5341POPC   C1A69615  17.034  27.744   6.136
 5341POPC   D2A69616  17.176  27.541   6.526
 5341POPC   C3A69617  16.968  27.560   6.943
 5341POPC   C4A69618  16.769  27.430   7.340
 5341POPC   C1B69619  16.648  27.438   6.322
 5341POPC   C2B69620  16.654  27.212   6.725
 5341POPC   C3B69621  16.382  27.198   7.093
 5341POPC   C4B69622  16.351  27.187   7.524
 5342POPC   NC369623  23.380  39.453   5.359
 5342POPC   PO469624  24.050  39.198   5.352
 5342POPC   GL169625  23.861  39.262   5.784
 5342POPC   GL269626  23.537  39.106   5.748
 5342POPC   C1A69627  23.700  39.083   6.238
 5342POPC   D2A69628  23.508  38.870   6.611
 5342POPC   C3A69629  23.643  38.994   7.032
 5342POPC   C4A69630  23.925  39.283   7.216
 5342POPC   C1B69631  23.445  39.462   6.009
 5342POPC   C2B69632  23.395  39.453   6.434
 5342POPC   C3B69633  23.321  39.313   6.828
 5342POPC   C4B69634  23.308  39.322   7.279
 5343POPC   NC369635  25.649  13.180   5.609
 5343POPC   PO469636  25.352  12.604   5.351
 5343POPC   GL169637  25.089  12.642   5.753
 5343POPC   GL269638  25.229  12.933   5.795
 5343POPC   C1A69639  24.891  12.717   6.175
 5343POPC   D2A69640  25.115  12.816   6.581
 5343POPC   C3A69641  24.997  12.742   6.980
 5343POPC   C4A69642  25.042  12.748   7.410
 5343POPC   C1B69643  25.409  12.849   6.179
 5343POPC   C2B69644  25.625  12.730   6.569
 5343POPC   C3B69645  25.747  12.464   6.913
 5343POPC   C4B69646  25.458  12.605   7.192
 5344POPC   NC369647  36.166  35.715   5.274
 5344POPC   PO469648  36.266  35.131   5.619
 5344POPC   GL169649  36.207  35.442   5.792
 5344POPC   GL269650  35.903  35.525   5.769
 5344POPC   C1A69651  36.196  35.454   6.216
 5344POPC   D2A69652  36.089  35.479   6.613
 5344POPC   C3A69653  36.178  35.152   6.848
 5344POPC   C4A69654  36.096  35.147   7.278
 5344POPC   C1B69655  35.698  35.401   6.163
 5344POPC   C2B69656  35.683  35.155   6.550
 5344POPC   C3B69657  35.700  35.287   6.973
 5344POPC   C4B69658  35.928  35.635   7.197
 5345POPC   NC369659  41.811   3.631   5.383
 5345POPC   PO469660  41.342   3.194   5.432
 5345POPC   GL169661  41.464   3.430   5.743
 5345POPC   GL269662  41.268   3.714   5.653
 5345POPC   C1A69663  41.633   3.382   6.176
 5345POPC   D2A69664  41.778   3.517   6.574
 5345POPC   C3A69665  41.557   3.371   6.918
 5345POPC   C4A69666  41.767   3.428   7.280
 5345POPC   C1B69667  41.210   3.667   6.089
 5345POPC   C2B69668  41.238   3.663   6.524
 5345POPC   C3B69669  41.459   3.848   6.855
 5345POPC   C4B69670  41.356   3.730   7.277
 5346POPC   NC369671  28.845  43.978   5.206
 5346POPC   PO469672  28.196  44.130   5.318
 5346POPC   GL169673  28.513  43.991   5.618
 5346POPC   GL269674  28.258  43.750   5.719
 5346POPC   C1A69675  28.722  43.867   6.012
 5346POPC   D2A69676  28.549  43.701   6.395
 5346POPC   C3A69677  28.500  43.873   6.826
 5346POPC   C4A69678  28.520  43.595   7.202
 5346POPC   C1B69679  28.193  44.005   6.088
 5346POPC   C2B69680  28.063  43.846   6.509
 5346POPC   C3B69681  28.126  43.524   6.849
 5346POPC   C4B69682  28.025  43.784   7.228
 5347POPC   NC369683  24.890   2.071   5.363
 5347POPC   PO469684  24.372   1.663   5.345
 5347POPC   GL169685  24.508   1.892   5.676
 5347POPC   GL269686  24.795   1.721   5.718
 5347POPC   C1A69687  24.585   1.973   6.118
 5347POPC   D2A69688  24.299   2.063   6.481
 5347POPC   C3A69689  24.490   2.170   6.869
 5347POPC   C4A69690  24.447   1.981   7.241
 5347POPC   C1B69691  24.566   1.473   6.011
 5347POPC   C2B69692  24.558   1.591   6.440
 5347POPC   C3B69693  24.466   1.600   6.866
 5347POPC   C4B69694  24.759   1.574   7.203
 5348POPC   NC369695   7.111   7.838   5.418
 5348POPC   PO469696   7.440   8.464   5.324
 5348POPC   GL169697   7.438   8.179   5.713
 5348POPC   GL269698   7.131   8.081   5.871
 5348POPC   C1A69699   7.595   8.009   6.122
 5348POPC   D2A69700   7.627   8.227   6.517
 5348POPC   C3A69701   7.546   8.061   6.942
 5348POPC   C4A69702   7.722   8.166   7.337
 5348POPC   C1B69703   7.135   7.784   6.188
 5348POPC   C2B69704   6.967   7.718   6.600
 5348POPC   C3B69705   7.139   7.739   7.013
 5348POPC   C4B69706   7.240   7.971   7.429
 5349POPC   NC369707  30.209  35.635   5.399
 5349POPC   PO469708  29.665  35.665   5.410
 5349POPC   GL169709  29.780  35.436   5.819
 5349POPC   GL269710  30.155  35.380   5.873
 5349POPC   C1A69711  29.820  35.442   6.308
 5349POPC   D2A69712  29.901  35.643   6.745
 5349POPC   C3A69713  29.662  35.572   7.133
 5349POPC   C4A69714  29.784  35.753   7.536
 5349POPC   C1B69715  30.321  35.288   6.312
 5349POPC   C2B69716  30.294  35.322   6.785
 5349POPC   C3B69717  29.986  35.164   7.111
 5349POPC   C4B69718  30.028  34.833   7.446
 5350POPC   NC369719  22.536  44.262   5.486
 5350POPC   PO469720  22.609  43.610   5.367
 5350POPC   GL169721  22.761  43.870   5.727
 5350POPC   GL269722  23.058  43.737   5.804
 5350POPC   C1A69723  22.944  44.112   6.114
 5350POPC   D2A69724  22.927  44.302   6.514
 5350POPC   C3A69725  22.944  44.012   6.872
 5350POPC   C4A69726  22.973  44.059   7.292
 5350POPC   C1B69727  22.815  43.618   6.161
 5350POPC   C2B69728  22.722  43.676   6.557
 5350POPC   C3B69729  22.816  43.434   6.886
 5350POPC   C4B69730  22.916  43.565   7.254
 5351POPC   NC369731   3.996   4.743   5.452
 5351POPC   PO469732   4.481   4.255   5.491
 5351POPC   GL169733   4.362   4.270   5.862
 5351POPC   GL269734   4.043   4.377   5.844
 5351POPC   C1A69735   4.512   4.190   6.257
 5351POPC   D2A69736   4.347   4.252   6.627
 5351POPC   C3A69737   4.600   4.219   6.989
 5351POPC   C4A69738   4.547   3.996   7.394
 5351POPC   C1B69739   4.288   4.690   6.132
 5351POPC   C2B69740   4.326   4.828   6.558
 5351POPC   C3B69741   4.172   4.599   6.931
 5351POPC   C4B69742   4.238   4.403   7.303
 5352POPC   NC369743   7.797  22.360   5.447
 5352POPC   PO469744   8.389  22.050   5.247
 5352POPC   GL169745   8.352  22.081   5.745
 5352POPC   GL269746   7.995  22.104   5.846
 5352POPC   C1A69747   8.291  22.216   6.228
 5352POPC   D2A69748   8.419  22.064   6.629
 5352POPC   C3A69749   8.303  22.202   7.050
 5352POPC   C4A69750   8.062  22.277   7.438
 5352POPC   C1B69751   7.932  21.859   6.263
 5352POPC   C2B69752   8.025  21.766   6.702
 5352POPC   C3B69753   7.906  21.883   7.100
 5352POPC   C4B69754   7.729  21.671   7.421
 5353POPC   NC369755  41.775  43.579   5.469
 5353POPC   PO469756  41.602  42.948   5.399
 5353POPC   GL169757  41.487  43.163   5.759
 5353POPC   GL269758  41.296  42.890   5.863
 5353POPC   C1A69759  41.374  43.255   6.207
 5353POPC   D2A69760  41.532  43.044   6.567
 5353POPC   C3A69761  41.516  43.234   6.956
 5353POPC   C4A69762  41.275  43.162   7.310
 5353POPC   C1B69763  41.687  42.732   6.058
 5353POPC   C2B69764  41.967  42.787   6.407
 5353POPC   C3B69765  41.966  42.837   6.855
 5353POPC   C4B69766  41.774  42.905   7.257
 5354POPC   NC369767  31.913  18.209   5.665
 5354POPC   PO469768  32.454  18.384   5.548
 5354POPC   GL169769  32.347  18.305   5.946
 5354POPC   GL269770  32.530  18.014   5.966
 5354POPC   C1A69771  32.261  18.286   6.389
 5354POPC   D2A69772  32.546  18.217   6.749
 5354POPC   C3A69773  32.391  18.368   7.143
 5354POPC   C4A69774  32.324  18.701   7.456
 5354POPC   C1B69775  32.455  17.824   6.370
 5354POPC   C2B69776  32.177  17.864   6.730
 5354POPC   C3B69777  32.195  17.848   7.189
 5354POPC   C4B69778  32.070  17.701   7.614
 5355POPC   NC369779  44.413   2.202   5.486
 5355POPC   PO469780   0.054   1.987   5.423
 5355POPC   GL169781  44.750   1.959   5.833
 5355POPC   GL269782  44.634   2.271   5.981
 5355POPC   C1A69783  44.495   1.850   6.262
 5355POPC   D2A69784  44.333   2.014   6.684
 5355POPC   C3A69785  44.710   2.004   6.936
 5355POPC   C4A69786  44.688   2.002   7.379
 5355POPC   C1B69787  44.668   2.296   6.440
 5355POPC   C2B69788  44.999   2.418   6.739
 5355POPC   C3B69789  44.956   2.396   7.192
 5355POPC   C4B69790  44.911   2.354   7.656
 5356POPC   NC369791  15.571   0.998   5.551
 5356POPC   PO469792  14.952   1.355   5.493
 5356POPC   GL169793  15.249   1.338   5.829
 5356POPC   GL269794  15.294   1.028   5.975
 5356POPC   C1A69795  15.354   1.469   6.235
 5356POPC   D2A69796  15.420   1.394   6.648
 5356POPC   C3A69797  15.057   1.255   6.866
 5356POPC   C4A69798  15.012   1.380   7.290
 5356POPC   C1B69799  15.097   1.022   6.390
 5356POPC   C2B69800  14.965   0.739   6.747
 5356POPC   C3B69801  15.093   0.744   7.196
 5356POPC   C4B69802  15.276   1.015   7.539
 5357POPC   NC369803   5.336   5.458   5.443
 5357POPC   PO469804   4.813   5.032   5.464
 5357POPC   GL169805   5.027   5.216   5.795
 5357POPC   GL269806   4.736   5.371   5.956
 5357POPC   C1A69807   5.269   5.315   6.187
 5357POPC   D2A69808   5.425   5.403   6.643
 5357POPC   C3A69809   5.493   5.036   6.935
 5357POPC   C4A69810   5.296   4.830   7.293
 5357POPC   C1B69811   4.792   4.965   6.178
 5357POPC   C2B69812   5.117   4.926   6.487
 5357POPC   C3B69813   5.002   5.163   6.830
 5357POPC   C4B69814   4.887   5.155   7.222
 5358POPC   NC369815  13.649   0.947   5.293
 5358POPC   PO469816  14.219   1.352   5.317
 5358POPC   GL169817  13.913   1.459   5.685
 5358POPC   GL269818  13.548   1.328   5.695
 5358POPC   C1A69819  13.923   1.294   6.132
 5358POPC   D2A69820  13.787   1.097   6.532
 5358POPC   C3A69821  13.622   1.404   6.821
 5358POPC   C4A69822  13.382   1.687   7.046
 5358POPC   C1B69823  13.495   1.001   6.055
 5358POPC   C2B69824  13.360   0.777   6.450
 5358POPC   C3B69825  13.424   0.909   6.880
 5358POPC   C4B69826  13.809   0.981   7.057
 5359POPC   NC369827   3.180   6.083   5.573
 5359POPC   PO469828   2.745   5.993   5.117
 5359POPC   GL169829   2.684   6.041   5.651
 5359POPC   GL269830   2.449   6.304   5.774
 5359POPC   C1A69831   2.834   5.949   6.129
 5359POPC   D2A69832   3.082   5.845   6.533
 5359POPC   C3A69833   2.946   5.924   6.989
 5359POPC   C4A69834   2.623   5.745   7.228
 5359POPC   C1B69835   2.400   6.189   6.204
 5359POPC   C2B69836   2.596   6.099   6.609
 5359POPC   C3B69837   2.452   6.194   7.024
 5359POPC   C4B69838   2.604   6.215   7.441
 5360POPC   NC369839  16.078   8.648   5.508
 5360POPC   PO469840  16.035   9.266   5.306
 5360POPC   GL169841  16.105   9.138   5.756
 5360POPC   GL269842  15.994   8.831   5.987
 5360POPC   C1A69843  16.038   9.292   6.203
 5360POPC   D2A69844  15.872   8.996   6.510
 5360POPC   C3A69845  16.046   9.011   6.925
 5360POPC   C4A69846  15.954   9.215   7.312
 5360POPC   C1B69847  16.237   8.541   6.274
 5360POPC   C2B69848  16.397   8.451   6.712
 5360POPC   C3B69849  16.252   8.580   7.126
 5360POPC   C4B69850  16.085   8.728   7.522
 5361POPC   NC369851   8.233  13.680   5.181
 5361POPC   PO469852   8.720  13.252   5.367
 5361POPC   GL169853   8.350  13.138   5.716
 5361POPC   GL269854   7.936  13.188   5.709
 5361POPC   C1A69855   8.324  13.278   6.190
 5361POPC   D2A69856   8.540  13.279   6.623
 5361POPC   C3A69857   8.413  13.430   7.043
 5361POPC   C4A69858   8.231  13.800   7.199
 5361POPC   C1B69859   7.804  13.307   6.164
 5361POPC   C2B69860   7.957  13.369   6.596
 5361POPC   C3B69861   7.886  13.409   7.035
 5361POPC   C4B69862   8.053  13.333   7.444
 5362POPC   NC369863   8.611  19.748   5.522
 5362POPC   PO469864   9.140  19.882   5.030
 5362POPC   GL169865   9.027  20.076   5.495
 5362POPC   GL269866   9.106  19.827   5.728
 5362POPC   C1A69867   8.829  20.193   6.003
 5362POPC   D2A69868   8.822  20.256   6.522
 5362POPC   C3A69869   8.785  20.037   6.993
 5362POPC   C4A69870   8.943  19.835   7.427
 5362POPC   C1B69871   8.948  19.725   6.175
 5362POPC   C2B69872   8.817  19.701   6.624
 5362POPC   C3B69873   8.843  19.483   7.054
 5362POPC   C4B69874   9.093  19.351   7.441
 5363POPC   NC369875  34.203  33.144   5.570
 5363POPC   PO469876  33.582  32.750   5.511
 5363POPC   GL169877  33.787  32.930   5.853
 5363POPC   GL269878  33.808  33.292   5.865
 5363POPC   C1A69879  33.625  33.021   6.253
 5363POPC   D2A69880  33.786  33.001   6.654
 5363POPC   C3A69881  33.544  33.059   6.980
 5363POPC   C4A69882  33.614  32.722   7.264
 5363POPC   C1B69883  34.113  33.225   6.251
 5363POPC   C2B69884  34.222  33.251   6.718
 5363POPC   C3B69885  34.018  33.128   7.125
 5363POPC   C4B69886  33.996  33.188   7.555
 5364POPC   NC369887  14.715  44.407   5.424
 5364POPC   PO469888  14.345  44.888   5.406
 5364POPC   GL169889  14.564  44.771   5.766
 5364POPC   GL269890  14.309  44.549   5.795
 5364POPC   C1A69891  14.649  44.553   6.178
 5364POPC   D2A69892  14.752  44.639   6.623
 5364POPC   C3A69893  14.599  44.333   6.888
 5364POPC   C4A69894  14.393  44.503   7.200
 5364POPC   C1B69895  14.121  44.604   6.208
 5364POPC   C2B69896  14.191  44.527   6.647
 5364POPC   C3B69897  14.003  44.773   6.988
 5364POPC   C4B69898  13.992  44.672   7.433
 5365POPC   NC369899  25.854  39.663   5.422
 5365POPC   PO469900  25.691  39.020   5.519
 5365POPC   GL169901  25.982  39.245   5.796
 5365POPC   GL269902  25.877  39.569   5.938
 5365POPC   C1A69903  26.061  39.201   6.249
 5365POPC   D2A69904  26.142  39.523   6.562
 5365POPC   C3A69905  26.063  39.525   6.983
 5365POPC   C4A69906  26.342  39.296   7.230
 5365POPC   C1B69907  25.668  39.492   6.355
 5365POPC   C2B69908  25.754  39.201   6.703
 5365POPC   C3B69909  25.718  39.174   7.128
 5365POPC   C4B69910  25.694  39.537   7.364
 5366POPC   NC369911  16.943  22.257   5.494
 5366POPC   PO469912  16.301  22.146   5.517
 5366POPC   GL169913  16.558  22.355   5.837
 5366POPC   GL269914  16.765  22.062   5.922
 5366POPC   C1A69915  16.740  22.436   6.261
 5366POPC   D2A69916  16.730  22.138   6.606
 5366POPC   C3A69917  16.760  22.283   7.032
 5366POPC   C4A69918  16.766  21.996   7.414
 5366POPC   C1B69919  17.091  22.035   6.238
 5366POPC   C2B69920  17.252  22.134   6.645
 5366POPC   C3B69921  17.199  22.035   7.081
 5366POPC   C4B69922  17.092  22.362   7.432
 5367POPC   NC369923  33.693   7.240   5.342
 5367POPC   PO469924  34.209   6.997   5.614
 5367POPC   GL169925  33.881   7.218   5.844
 5367POPC   GL269926  33.957   7.560   5.767
 5367POPC   C1A69927  33.572   7.474   6.115
 5367POPC   D2A69928  33.373   7.598   6.552
 5367POPC   C3A69929  33.654   7.568   6.939
 5367POPC   C4A69930  33.721   7.262   7.227
 5367POPC   C1B69931  33.934   7.803   6.123
 5367POPC   C2B69932  33.953   7.708   6.546
 5367POPC   C3B69933  34.169   7.730   6.941
 5367POPC   C4B69934  34.076   7.713   7.378
 5368POPC   NC369935  24.108  41.796   5.397
 5368POPC   PO469936  23.476  41.476   5.452
 5368POPC   GL169937  23.668  41.423   5.867
 5368POPC   GL269938  24.012  41.500   5.805
 5368POPC   C1A69939  23.647  41.682   6.294
 5368POPC   D2A69940  23.823  41.797   6.735
 5368POPC   C3A69941  23.652  41.548   7.117
 5368POPC   C4A69942  23.503  41.562   7.564
 5368POPC   C1B69943  24.022  41.347   6.236
 5368POPC   C2B69944  24.209  41.199   6.624
 5368POPC   C3B69945  24.133  41.443   6.994
 5368POPC   C4B69946  24.067  41.760   7.319
 5369POPC   NC369947  13.029   3.726   5.107
 5369POPC   PO469948  12.973   3.190   5.545
 5369POPC   GL169949  12.761   3.468   5.839
 5369POPC   GL269950  12.888   3.773   5.741
 5369POPC   C1A69951  12.660   3.365   6.280
 5369POPC   D2A69952  12.934   3.416   6.650
 5369POPC   C3A69953  12.788   3.280   7.064
 5369POPC   C4A69954  12.938   3.095   7.477
 5369POPC   C1B69955  13.028   3.727   6.195
 5369POPC   C2B69956  13.021   3.912   6.603
 5369POPC   C3B69957  13.032   3.748   7.049
 5369POPC   C4B69958  13.120   3.931   7.458
 5370POPC   NC369959  42.332  27.893   5.015
 5370POPC   PO469960  42.158  27.624   5.620
 5370POPC   GL169961  42.462  27.602   5.894
 5370POPC   GL269962  42.517  27.244   5.775
 5370POPC   C1A69963  42.400  27.652   6.329
 5370POPC   D2A69964  42.040  27.503   6.547
 5370POPC   C3A69965  42.068  27.812   6.844
 5370POPC   C4A69966  42.137  27.896   7.301
 5370POPC   C1B69967  42.300  27.190   6.170
 5370POPC   C2B69968  42.478  27.211   6.590
 5370POPC   C3B69969  42.350  27.400   6.950
 5370POPC   C4B69970  42.467  27.527   7.323
 5371POPC   NC369971  43.932  36.367   5.419
 5371POPC   PO469972  43.771  37.087   5.403
 5371POPC   GL169973  43.962  36.861   5.761
 5371POPC   GL269974  44.276  36.995   5.906
 5371POPC   C1A69975  43.871  36.892   6.212
 5371POPC   D2A69976  43.970  37.098   6.575
 5371POPC   C3A69977  43.723  37.005   6.865
 5371POPC   C4A69978  43.732  36.885   7.230
 5371POPC   C1B69979  44.250  36.567   6.129
 5371POPC   C2B69980  44.108  36.537   6.548
 5371POPC   C3B69981  44.162  36.746   6.935
 5371POPC   C4B69982  44.128  36.562   7.326
 5372POPC   NC369983  31.285   5.600   5.380
 5372POPC   PO469984  30.859   6.094   5.310
 5372POPC   GL169985  31.146   5.952   5.712
 5372POPC   GL269986  31.376   6.213   5.792
 5372POPC   C1A69987  31.336   5.912   6.179
 5372POPC   D2A69988  31.222   5.934   6.613
 5372POPC   C3A69989  31.409   5.570   6.790
 5372POPC   C4A69990  31.706   5.539   7.106
 5372POPC   C1B69991  31.692   6.264   6.168
 5372POPC   C2B69992  31.727   6.075   6.607
 5372POPC   C3B69993  31.537   6.057   7.032
 5372POPC   C4B69994  31.671   6.264   7.423
 5373POPC   NC369995  10.227   8.508   5.406
 5373POPC   PO469996  10.808   8.228   5.341
 5373POPC   GL169997  10.528   8.245   5.729
 5373POPC   GL269998  10.398   7.941   5.892
 5373POPC   C1A69999  10.623   8.320   6.161
 5373POPC   D2A70000  10.438   8.360   6.567
 5373POPC   C3A70001  10.591   8.057   6.862
 5373POPC   C4A70002  10.686   8.218   7.251
 5373POPC   C1B70003  10.181   7.964   6.280
 5373POPC   C2B70004  10.076   7.951   6.708
 5373POPC   C3B70005  10.145   8.154   7.114
 5373POPC   C4B70006  10.293   7.939   7.475
 5374POPC   NC370007  39.247  37.186   5.089
 5374POPC   PO470008  39.263  37.849   5.366
 5374POPC   GL170009  39.297  37.883   5.814
 5374POPC   GL270010  39.197  37.565   5.937
 5374POPC   C1A70011  39.496  37.859   6.212
 5374POPC   D2A70012  39.309  37.971   6.566
 5374POPC   C3A70013  39.514  37.857   6.893
 5374POPC   C4A70014  39.330  37.964   7.200
 5374POPC   C1B70015  39.113  37.525   6.322
 5374POPC   C2B70016  39.308  37.425   6.680
 5374POPC   C3B70017  39.119  37.526   7.049
 5374POPC   C4B70018  38.698  37.524   7.138
 5375POPC   NC370019   0.234  17.300   5.604
 5375POPC   PO470020   0.869  17.525   5.409
 5375POPC   GL170021   0.627  17.630   5.782
 5375POPC   GL270022   0.791  17.356   5.913
 5375POPC   C1A70023   0.400  17.701   6.221
 5375POPC   D2A70024   0.302  17.907   6.660
 5375POPC   C3A70025   0.360  17.649   7.060
 5375POPC   C4A70026   0.389  17.631   7.530
 5375POPC   C1B70027   0.484  17.195   6.223
 5375POPC   C2B70028   0.658  17.160   6.618
 5375POPC   C3B70029   0.758  17.081   7.012
 5375POPC   C4B70030   0.456  17.182   7.328
 5376POPC   NC370031   1.514  36.359   5.314
 5376POPC   PO470032   1.233  35.769   5.486
 5376POPC   GL170033   1.346  36.021   5.841
 5376POPC   GL270034   1.335  36.389   5.799
 5376POPC   C1A70035   1.234  36.138   6.270
 5376POPC   D2A70036   1.373  36.020   6.656
 5376POPC   C3A70037   1.320  36.215   7.040
 5376POPC   C4A70038   1.174  36.128   7.456
 5376POPC   C1B70039   1.253  36.635   6.193
 5376POPC   C2B70040   1.084  36.525   6.613
 5376POPC   C3B70041   1.011  36.621   7.050
 5376POPC   C4B70042   1.416  36.694   7.259
 5377POPC   NC370043   9.252  37.195   5.469
 5377POPC   PO470044   8.607  37.353   5.429
 5377POPC   GL170045   8.799  37.108   5.767
 5377POPC   GL270046   8.968  36.797   5.702
 5377POPC   C1A70047   8.950  37.144   6.196
 5377POPC   D2A70048   9.146  37.217   6.614
 5377POPC   C3A70049   9.014  37.065   7.048
 5377POPC   C4A70050   8.983  37.080   7.531
 5377POPC   C1B70051   8.684  36.647   6.048
 5377POPC   C2B70052   8.445  36.632   6.458
 5377POPC   C3B70053   8.439  36.757   6.912
 5377POPC   C4B70054   8.607  36.800   7.338
 5378POPC   NC370055  35.177   3.635   5.547
 5378POPC   PO470056  35.572   3.092   5.400
 5378POPC   GL170057  35.679   3.302   5.784
 5378POPC   GL270058  35.599   3.673   5.848
 5378POPC   C1A70059  35.460   3.294   6.174
 5378POPC   D2A70060  35.173   3.320   6.517
 5378POPC   C3A70061  35.313   3.610   6.809
 5378POPC   C4A70062  35.467   3.397   7.188
 5378POPC   C1B70063  35.466   3.812   6.282
 5378POPC   C2B70064  35.181   4.100   6.526
 5378POPC   C3B70065  34.956   3.981   6.898
 5378POPC   C4B70066  35.209   3.908   7.250
 5379POPC   NC370067  29.523  16.511   5.590
 5379POPC   PO470068  29.029  16.208   5.260
 5379POPC   GL170069  28.970  16.083   5.705
 5379POPC   GL270070  29.178  16.310   5.916
 5379POPC   C1A70071  28.911  15.967   6.168
 5379POPC   D2A70072  28.971  16.120   6.592
 5379POPC   C3A70073  29.148  15.882   6.926
 5379POPC   C4A70074  29.084  15.671   7.303
 5379POPC   C1B70075  29.338  16.388   6.343
 5379POPC   C2B70076  29.448  16.331   6.813
 5379POPC   C3B70077  29.630  16.042   7.141
 5379POPC   C4B70078  29.862  16.161   7.539
 5380POPC   NC370079   5.962  21.702   5.043
 5380POPC   PO470080   5.932  21.211   5.339
 5380POPC   GL170081   5.751  21.195   5.773
 5380POPC   GL270082   6.037  21.130   5.954
 5380POPC   C1A70083   5.739  21.387   6.250
 5380POPC   D2A70084   5.971  21.167   6.612
 5380POPC   C3A70085   6.054  21.386   7.021
 5380POPC   C4A70086   6.347  21.502   7.378
 5380POPC   C1B70087   5.705  20.890   6.210
 5380POPC   C2B70088   5.566  20.849   6.663
 5380POPC   C3B70089   5.755  20.958   7.072
 5380POPC   C4B70090   5.739  20.829   7.502
 5381POPC   NC370091   9.935   9.905   5.708
 5381POPC   PO470092   9.557   9.454   5.416
 5381POPC   GL170093   9.571   9.611   5.870
 5381POPC   GL270094   9.399   9.963   5.798
 5381POPC   C1A70095   9.921   9.618   6.267
 5381POPC   D2A70096  10.079   9.908   6.587
 5381POPC   C3A70097   9.931   9.789   6.975
 5381POPC   C4A70098   9.629   9.541   7.215
 5381POPC   C1B70099   9.542   9.968   6.229
 5381POPC   C2B70100   9.545   9.727   6.617
 5381POPC   C3B70101   9.442   9.931   6.990
 5381POPC   C4B70102   9.595  10.027   7.419
 5382POPC   NC370103  17.787   6.702   5.580
 5382POPC   PO470104  17.129   6.714   5.255
 5382POPC   GL170105  17.289   6.664   5.717
 5382POPC   GL270106  17.439   6.391   5.805
 5382POPC   C1A70107  17.273   6.790   6.169
 5382POPC   D2A70108  17.145   6.624   6.601
 5382POPC   C3A70109  17.256   6.789   7.044
 5382POPC   C4A70110  17.609   6.818   7.397
 5382POPC   C1B70111  17.279   6.275   6.208
 5382POPC   C2B70112  17.298   6.045   6.578
 5382POPC   C3B70113  17.319   6.175   6.980
 5382POPC   C4B70114  17.542   6.322   7.307
 5383POPC   NC370115   8.460   6.033   5.334
 5383POPC   PO470116   7.949   5.637   5.115
 5383POPC   GL170117   8.276   5.630   5.568
 5383POPC   GL270118   8.254   5.945   5.781
 5383POPC   C1A70119   8.431   5.605   6.091
 5383POPC   D2A70120   8.494   5.818   6.527
 5383POPC   C3A70121   8.188   5.633   6.846
 5383POPC   C4A70122   7.967   5.544   7.240
 5383POPC   C1B70123   8.221   6.182   6.151
 5383POPC   C2B70124   8.461   6.353   6.491
 5383POPC   C3B70125   8.538   6.204   6.912
 5383POPC   C4B70126   8.383   5.908   7.253
 5384POPC   NC370127   5.295  39.905   5.456
 5384POPC   PO470128   4.972  40.412   5.512
 5384POPC   GL170129   4.880  40.128   5.820
 5384POPC   GL270130   4.869  39.782   5.753
 5384POPC   C1A70131   4.978  40.008   6.234
 5384POPC   D2A70132   5.264  39.713   6.421
 5384POPC   C3A70133   5.194  39.782   6.830
 5384POPC   C4A70134   5.076  40.083   7.128
 5384POPC   C1B70135   4.826  39.535   6.152
 5384POPC   C2B70136   4.736  39.693   6.581
 5384POPC   C3B70137   4.770  39.543   7.014
 5384POPC   C4B70138   4.763  39.760   7.387
 5385POPC   NC370139  39.118  22.338   5.317
 5385POPC   PO470140  39.500  21.910   5.666
 5385POPC   GL170141  39.350  22.318   5.806
 5385POPC   GL270142  38.996  22.282   5.808
 5385POPC   C1A70143  39.184  22.499   6.221
 5385POPC   D2A70144  39.005  22.390   6.630
 5385POPC   C3A70145  39.281  22.324   6.955
 5385POPC   C4A70146  39.452  22.194   7.332
 5385POPC   C1B70147  38.903  22.057   6.208
 5385POPC   C2B70148  38.660  21.994   6.594
 5385POPC   C3B70149  38.662  22.005   7.011
 5385POPC   C4B70150  38.878  22.240   7.258
 5386POPC   NC370151  34.791  21.322   4.990
 5386POPC   PO470152  34.289  21.637   5.304
 5386POPC   GL170153  34.312  21.340   5.685
 5386POPC   GL270154  34.640  21.156   5.751
 5386POPC   C1A70155  34.216  21.237   6.131
 5386POPC   D2A70156  34.174  21.329   6.587
 5386POPC   C3A70157  34.467  21.242   6.954
 5386POPC   C4A70158  34.445  21.379   7.410
 5386POPC   C1B70159  34.735  21.306   6.205
 5386POPC   C2B70160  34.905  21.323   6.658
 5386POPC   C3B70161  34.865  21.546   7.082
 5386POPC   C4B70162  34.994  21.538   7.518
 5387POPC   NC370163  31.506  31.881   5.462
 5387POPC   PO470164  31.357  32.527   5.396
 5387POPC   GL170165  31.428  32.279   5.785
 5387POPC   GL270166  31.182  31.966   5.862
 5387POPC   C1A70167  31.315  32.320   6.224
 5387POPC   D2A70168  31.247  32.469   6.623
 5387POPC   C3A70169  31.561  32.468   6.917
 5387POPC   C4A70170  31.332  32.643   7.220
 5387POPC   C1B70171  31.544  31.888   6.133
 5387POPC   C2B70172  31.574  32.049   6.565
 5387POPC   C3B70173  31.443  31.977   6.981
 5387POPC   C4B70174  31.143  32.188   7.159
 5388POPC   NC370175  13.998  11.533   5.386
 5388POPC   PO470176  13.541  11.045   5.264
 5388POPC   GL170177  13.648  11.173   5.682
 5388POPC   GL270178  13.943  11.010   5.754
 5388POPC   C1A70179  13.532  11.303   6.121
 5388POPC   D2A70180  13.726  11.510   6.490
 5388POPC   C3A70181  13.610  11.331   6.907
 5388POPC   C4A70182  13.214  11.075   7.031
 5388POPC   C1B70183  14.014  11.168   6.157
 5388POPC   C2B70184  13.879  11.005   6.538
 5388POPC   C3B70185  14.042  11.049   6.937
 5388POPC   C4B70186  13.881  11.011   7.347
 5389POPC   NC370187  20.654  29.376   5.413
 5389POPC   PO470188  20.185  28.841   5.208
 5389POPC   GL170189  20.322  28.725   5.723
 5389POPC   GL270190  20.653  28.966   5.841
 5389POPC   C1A70191  20.292  28.863   6.175
 5389POPC   D2A70192  20.545  28.879   6.531
 5389POPC   C3A70193  20.548  29.252   6.772
 5389POPC   C4A70194  20.580  29.186   7.172
 5389POPC   C1B70195  20.556  29.358   6.142
 5389POPC   C2B70196  20.690  29.650   6.480
 5389POPC   C3B70197  20.821  29.673   6.916
 5389POPC   C4B70198  20.925  29.502   7.305
 5390POPC   NC370199  30.295  16.510   4.956
 5390POPC   PO470200  30.829  16.628   5.213
 5390POPC   GL170201  30.807  16.694   5.701
 5390POPC   GL270202  30.480  16.778   5.857
 5390POPC   C1A70203  30.887  16.661   6.189
 5390POPC   D2A70204  31.054  16.654   6.644
 5390POPC   C3A70205  30.798  16.800   6.969
 5390POPC   C4A70206  30.720  16.766   7.405
 5390POPC   C1B70207  30.396  16.501   6.226
 5390POPC   C2B70208  30.596  16.411   6.642
 5390POPC   C3B70209  30.514  16.386   7.099
 5390POPC   C4B70210  30.320  16.453   7.505
 5391W        W70211  44.714  19.561   4.674
 5392W        W70212  25.989  32.551  13.925
 5393W        W70213  10.616  33.456   2.337
 5394W        W70214  40.289  38.778  11.186
 5395W        W70215  40.758  22.832  13.826
 5396W        W70216   1.755  29.127  10.623
 5397W        W70217  19.334  27.604  12.606
 5398W        W70218  21.012  32.437  12.516
 5399W        W70219  44.084  19.631   4.120
 5400W        W70220  15.876   8.504  13.857
 5401W        W70221  21.379  14.917   0.234
 5402W        W70222  24.137  40.817   1.366
 5403W        W70223  14.609   2.717  12.992
 5404W        W70224   3.567  16.722   1.239
 5405W        W70225  24.426  22.515  13.842
 5406W        W70226  17.951  30.272   3.128
 5407W        W70227   8.740  28.574  10.659
 5408W        W70228  17.167  18.781   2.193
 5409W        W70229  33.476   5.285  11.512
 5410W        W70230  16.287  12.476  12.004
 5411W        W70231  31.974  11.608   2.878
 5412W        W70232  41.982  28.943   4.588
 5413W        W70233  17.040  21.214  11.172
 5414W        W70234   1.706  42.280  11.585
 5415W        W70235  11.101  25.561   2.107
 5416W        W70236  36.431   2.047  14.971
 5417W        W70237  22.154  21.843   0.884
 5418W        W70238  20.921  44.942   3.618
 5419W        W70239  26.863  11.823  13.562
 5420W        W70240  13.601  27.931   1.346
 5421W        W70241  14.488   3.172   4.520
 5422W        W70242  19.035   7.327  13.041
 5423W        W70243   9.448   6.289  12.027
 5424W        W70244  32.982  19.161   1.905
 5425W        W70245  44.825   7.619  12.563
 5426W        W70246   5.736  39.454   3.857
 5427W        W70247  37.108  28.723   1.405
 5428W        W70248  29.522   7.240   1.502
 5429W        W70249  11.661   9.337  11.053
 5430W        W70250  21.650  12.880  14.160
 5431W        W70251  27.937  39.067  12.898
 5432W        W70252  31.466  33.551   3.394
 5433W        W70253   3.851  29.710   2.383
 5434W        W70254  28.969  41.657  12.425
 5435W        W70255  17.805  18.095   2.368
 5436W        W70256  40.024  36.186  12.398
 5437W        W70257  21.539  26.709  13.403
 5438W        W70258  29.209  42.070  10.656
 5439W        W70259   8.406  24.217  13.702
 5440W        W70260  31.690  14.508  14.329
 5441W        W70261  30.831  16.645   1.022
 5442W        W70262   8.753  22.713   3.709
 5443W        W70263  26.461  14.075  10.606
 5444W        W70264  22.514   4.241   0.467
 5445W        W70265  16.165  40.291  12.453
 5446W        W70266  22.639  14.085   5.201
 5447W        W70267  13.742  42.075  11.442
 5448W        W70268  29.606  35.711  10.252
 5449W        W70269  18.260   0.515  11.230
 5450W        W70270  37.134  16.155   0.828
 5451W        W70271   0.481  24.228   1.749
 5452W        W70272  12.478   6.279   2.316
 5453W        W70273  32.539  25.960  12.100
 5454W        W70274   3.201   2.664  14.044
 5455W        W70275  32.202  29.410  14.485
 5456W        W70276  25.911  15.827   3.757
 5457W        W70277  27.963  19.468   5.526
 5458W        W70278  39.930   0.426  11.154
 5459W        W70279  38.038  18.333  12.520
 5460W        W70280  28.756  23.273  14.595
 5461W        W70281  10.087  31.122  11.302
 5462W        W70282  39.390   8.739   4.161
 5463W        W70283   5.975   2.866   4.848
 5464W        W70284  11.236  17.992   1.343
 5465W        W70285  38.919  15.263   1.784
 5466W        W70286  10.370   7.483  14.268
 5467W        W70287  40.528   5.002   1.431
 5468W        W70288  32.397   9.309  13.381
 5469W        W70289  12.172   0.228  11.544
 5470W        W70290  27.266  28.958  14.898
 5471W        W70291  35.123   2.906  13.781
 5472W        W70292  31.979  31.987   0.232
 5473W        W70293   9.346  42.018   1.305
 5474W        W70294  12.770  12.296   0.955
 5475W        W70295  33.638   8.665   2.865
 5476W        W70296  40.836  19.108   4.506
 5477W        W70297  44.340  16.642   0.740
 5478W        W70298  25.906  31.665  10.653
 5479W        W70299  33.546   7.238   1.180
 5480W        W70300  42.934  41.805  12.463
 5481W        W70301  39.927  41.837   3.390
 5482W        W70302  27.758  10.155  11.431
 5483W        W70303  40.562  28.449  11.516
 5484W        W70304  29.338  41.996  11.137
 5485W        W70305   2.872  42.438   1.944
 5486W        W70306   3.847   5.664   3.663
 5487W        W70307   0.239  22.251   4.488
 5488W        W70308  31.854  43.874  13.199
 5489W        W70309  33.851  17.299  10.639
 5490W        W70310   5.901  39.672   3.137
 5491W        W70311  20.065   1.129   0.977
 5492W        W70312  23.309   1.950  14.452
 5493W        W70313  39.971  42.065  14.017
 5494W        W70314  15.138  17.844   2.726
 5495W        W70315  39.822  33.360   0.266
 5496W        W70316  13.649   5.486   2.343
 5497W        W70317  22.245  42.367  12.912
 5498W        W70318  27.413  18.367   1.209
 5499W        W70319   6.092  18.837  10.267
 5500W        W70320   6.019  41.396  11.653
 5501W        W70321  35.803  29.311   2.746
 5502W        W70322  19.044  37.449  11.907
 5503W        W70323  40.485  44.312   1.012
 5504W        W70324  17.244   2.438  12.734
 5505W        W70325  30.771  27.768  10.133
 5506W        W70326  36.481   5.013   3.627
 5507W        W70327  18.315  33.841   4.614
 5508W        W70328  19.763  28.938   1.065
 5509W        W70329   4.640  33.960   1.734
 5510W        W70330  36.849  43.672  10.560
 5511W        W70331  30.126  16.788   0.319
 5512W        W70332  11.132   3.214   2.299
 5513W        W70333  26.888  25.753   1.884
 5514W        W70334   6.925  43.762  13.917
 5515W        W70335  11.769  33.590   1.459
 5516W        W70336  24.455  10.354   0.838
 5517W        W70337  20.574  36.077   1.944
 5518W        W70338   3.368  24.558   1.010
 5519W        W70339  11.578   4.750  10.327
 5520W        W70340   0.192   6.727  11.428
 5521W        W70341  27.526   3.368   2.199
 5522W        W70342  26.137  12.790  10.581
 5523W        W70343  27.171  34.538  13.374
 5524W        W70344   1.419   4.695   2.859
 5525W        W70345   2.884  28.858   1.274
 5526W        W70346   4.837   0.358  11.481
 5527W        W70347  28.630   1.252   1.345
 5528W        W70348   7.768  33.395  12.518
 5529W        W70349  17.059   4.785   0.990
 5530W        W70350   7.426  12.238  13.846
 5531W        W70351  12.333   2.868   0.469
 5532W        W70352  38.330  18.022  14.288
 5533W        W70353   6.885  36.788  11.950
 5534W        W70354  40.287  41.397   4.598
 5535W        W70355  42.453  10.913   1.749
 5536W        W70356  42.374   6.408   4.384
 5537W        W70357  43.395  31.768  10.430
 5538W        W70358  30.941  18.136  13.939
 5539W        W70359   5.401  19.508  11.435
 5540W        W70360  17.542  41.803   0.863
 5541W        W70361   9.721  22.956   2.755
 5542W        W70362  19.181   6.839  12.814
 5543W        W70363   6.158  28.925  12.830
 5544W        W70364  14.162  28.624   3.614
 5545W        W70365  39.081  33.520   3.362
 5546W        W70366  35.947  30.647  13.042
 5547W        W70367  12.163   4.665   4.853
 5548W        W70368   2.350  23.397  12.225
 5549W        W70369  29.008  41.289  12.802
 5550W        W70370   1.820   4.388   1.825
 5551W        W70371  16.820   9.637   1.135
 5552W        W70372  36.397  10.909  14.126
 5553W        W70373  24.647  11.563  14.918
 5554W        W70374  29.502   5.995  12.094
 5555W        W70375   5.627  42.394  13.894
 5556W        W70376  33.848  39.050  13.177
 5557W        W70377  30.712  23.481   2.322
 5558W        W70378  13.014  31.029  14.002
 5559W        W70379  34.536  42.058  10.511
 5560W        W70380   6.704  26.035   1.925
 5561W        W70381   1.042  19.019  14.819
 5562W        W70382  34.489  14.746   4.764
 5563W        W70383  24.495   8.420   2.869
 5564W        W70384  27.740  21.544  11.443
 5565W        W70385  19.980  42.759   3.943
 5566W        W70386  36.299   3.028  11.438
 5567W        W70387  33.072   1.135   2.874
 5568W        W70388  30.694  16.513   1.520
 5569W        W70389  32.478  44.200  11.108
 5570W        W70390  13.378  10.514  14.682
 5571W        W70391  27.510   4.892   1.833
 5572W        W70392  44.372  26.227   0.822
 5573W        W70393  40.472  25.260  14.760
 5574W        W70394  34.006  26.990   2.666
 5575W        W70395  24.957  30.032   4.874
 5576W        W70396   8.753  31.538   2.970
 5577W        W70397  14.190  33.084  10.700
 5578W        W70398  14.796  13.665   0.253
 5579W        W70399   9.866  15.407   0.585
 5580W        W70400  16.323  13.194   1.107
 5581W        W70401  42.749  34.197   3.052
 5582W        W70402  35.514  10.855   1.053
 5583W        W70403  39.399   6.808   4.184
 5584W        W70404  43.511  16.670   4.173
 5585W        W70405  39.033  26.893  11.102
 5586W        W70406  16.602   3.849   4.073
 5587W        W70407   9.871  31.243  14.373
 5588W        W70408  12.607  40.406  10.733
 5589W        W70409  10.296  43.826   4.763
 5590W        W70410  43.011  10.090  12.058
 5591W        W70411  16.160   9.428  12.860
 5592W        W70412   5.288  43.024  14.402
 5593W        W70413  41.260   6.949   3.656
 5594W        W70414  24.164  41.605   1.776
 5595W        W70415  26.036  23.664   2.712
 5596W        W70416  24.656   1.908   3.276
 5597W        W70417   0.994  10.432   1.837
 5598W        W70418  26.055  27.992   3.848
 5599W        W70419  35.697  13.708  10.389
 5600W        W70420   2.667   5.574   1.021
 5601W        W70421  11.229  37.767  10.696
 5602W        W70422  33.075  21.326   0.034
 5603W        W70423   6.775  15.846  12.431
 5604W        W70424   1.984   5.042   2.213
 5605W        W70425  19.095  13.450  12.927
 5606W        W70426  41.178  20.044  14.491
 5607W        W70427  18.177  24.251  10.470
 5608W        W70428  41.108  16.741  10.643
 5609W        W70429  27.654   5.814  14.599
 5610W        W70430  32.347  40.296  10.907
 5611W        W70431  29.109  38.994   4.978
 5612W        W70432  26.153  28.016  13.499
 5613W        W70433  41.384   6.530   0.788
 5614W        W70434  14.385  37.339   0.363
 5615W        W70435  21.229   7.485  12.241
 5616W        W70436  31.682  32.746   3.245
 5617W        W70437   5.849  22.444  10.198
 5618W        W70438  27.996  29.844  12.080
 5619W        W70439  10.843  29.537   3.376
 5620W        W70440   7.611  23.395  12.032
 5621W        W70441  33.110  28.475  11.169
 5622W        W70442   0.664  41.428  13.429
 5623W        W70443   1.230  39.002  14.300
 5624W        W70444  19.581   0.871  10.681
 5625W        W70445  33.279  30.186  13.850
 5626W        W70446  10.150   0.720   4.595
 5627W        W70447  24.455  14.154  13.383
 5628W        W70448  17.290   5.504  12.919
 5629W        W70449   5.951  28.486   0.158
 5630W        W70450  28.501  19.501  13.043
 5631W        W70451  43.377  27.061   0.334
 5632W        W70452  43.200  23.541  11.482
 5633W        W70453  33.512  38.139  13.049
 5634W        W70454  34.071   1.483  13.528
 5635W        W70455  35.591  42.330  11.503
 5636W        W70456   0.285   1.980   1.304
 5637W        W70457  40.563  41.027   2.919
 5638W        W70458  12.329  34.550   2.136
 5639W        W70459  14.885  28.366   3.645
 5640W        W70460  29.638   3.322  11.203
 5641W        W70461  17.165  27.564  14.038
 5642W        W70462   8.705  19.454   4.394
 5643W        W70463  42.865  35.611  10.530
 5644W        W70464   9.207  27.534  11.458
 5645W        W70465   9.608   3.958  14.172
 5646W        W70466  19.665  12.642  12.895
 5647W        W70467   8.804  28.371   3.569
 5648W        W70468  17.503  31.216   4.240
 5649W        W70469  21.315  37.934   2.851
 5650W        W70470  17.149  43.788   1.341
 5651W        W70471  32.361   3.635  13.471
 5652W        W70472  35.318  26.581   2.663
 5653W        W70473  10.218   4.697   4.162
 5654W        W70474   8.442  10.604   1.684
 5655W        W70475  20.599  38.933   3.447
 5656W        W70476  40.930  37.027  14.224
 5657W        W70477  20.881  41.204  14.853
 5658W        W70478  43.253  14.861   3.218
 5659W        W70479  18.244  33.949  10.679
 5660W        W70480  28.159  43.867  12.570
 5661W        W70481  11.654  42.757   1.172
 5662W        W70482  39.523  42.734  13.767
 5663W        W70483  27.940  27.946   2.704
 5664W        W70484  36.897   8.696   5.051
 5665W        W70485  15.160  25.571  11.262
 5666W        W70486   4.913  32.037   0.920
 5667W        W70487  23.656  25.616   2.330
 5668W        W70488  29.067  24.164   5.167
 5669W        W70489  11.469  22.313  13.072
 5670W        W70490  10.860   1.811   4.198
 5671W        W70491  16.741  13.976   4.344
 5672W        W70492  34.930   2.169   1.274
 5673W        W70493   0.478   8.809   3.228
 5674W        W70494   8.345  35.474   2.211
 5675W        W70495   0.001  30.522  14.965
 5676W        W70496  43.778  25.619  14.845
 5677W        W70497  44.926  24.474  13.070
 5678W        W70498  12.173   7.936   3.801
 5679W        W70499  26.453  24.273  11.585
 5680W        W70500  19.501   7.049   4.542
 5681W        W70501   4.840   9.682  12.762
 5682W        W70502  27.102  15.303  12.401
 5683W        W70503  40.413  44.888   3.281
 5684W        W70504  11.682   6.614  13.373
 5685W        W70505  44.200  10.223   2.899
 5686W        W70506  34.474  10.107  11.559
 5687W        W70507   6.886  40.523   4.267
 5688W        W70508  34.052  44.433   9.970
 5689W        W70509  21.552  27.671  12.947
 5690W        W70510  18.280  14.359   2.765
 5691W        W70511   1.307  12.754   2.807
 5692W        W70512  41.770  16.691   3.466
 5693W        W70513  14.679  21.235   2.314
 5694W        W70514  12.329  40.389   2.694
 5695W        W70515  17.649  42.325   0.867
 5696W        W70516  25.687  11.210  12.481
 5697W        W70517  36.344  37.539   0.782
 5698W        W70518  15.588  13.149   0.924
 5699W        W70519  24.775   6.136  11.049
 5700W        W70520   1.821  11.832  10.661
 5701W        W70521  14.780  37.338  13.876
 5702W        W70522  24.010  36.666   9.657
 5703W        W70523  42.912  23.149   3.214
 5704W        W70524   8.942  10.795   0.891
 5705W        W70525  21.408  13.573  14.733
 5706W        W70526  16.614  32.358  12.180
 5707W        W70527  33.525  27.601   1.927
 5708W        W70528  27.058  34.263  10.376
 5709W        W70529  20.255   5.689   2.339
 5710W        W70530   9.897  41.389   2.312
 5711W        W70531  33.932  11.813   1.866
 5712W        W70532  13.352  37.555   1.500
 5713W        W70533  36.923  12.107   2.784
 5714W        W70534  42.401  38.793   0.288
 5715W        W70535  13.593  15.617  14.251
 5716W        W70536  25.035  25.509   4.119
 5717W        W70537   8.700   3.052   3.236
 5718W        W70538   6.418  41.096  12.422
 5719W        W70539  29.449  17.327   0.723
 5720W        W70540  34.508  34.422  13.878
 5721W        W70541   8.863  21.549   3.585
 5722W        W70542  43.503  26.725  12.094
 5723W        W70543  25.526   5.735  14.468
 5724W        W70544  20.144  18.789  12.087
 5725W        W70545   0.051  14.239  13.437
 5726W        W70546   9.889  23.172  13.145
 5727W        W70547  37.513  21.615  11.011
 5728W        W70548  31.136  30.010   3.254
 5729W        W70549   1.775  26.669   4.854
 5730W        W70550   4.687  34.544  12.416
 5731W        W70551  28.084   9.379  14.033
 5732W        W70552  18.140   0.244   1.489
 5733W        W70553  22.440  10.262   3.193
 5734W        W70554  36.570  18.854   3.206
 5735W        W70555  35.356  39.134   1.434
 5736W        W70556  39.062  44.237   0.108
 5737W        W70557  23.845  34.608  14.984
 5738W        W70558   6.214  11.118  14.289
 5739W        W70559  10.161   6.846  13.427
 5740W        W70560  26.174  42.827   0.927
 5741W        W70561  41.764  15.073   2.173
 5742W        W70562  36.461  21.528  12.653
 5743W        W70563   6.594  30.542   4.606
 5744W        W70564  26.055  10.709   4.636
 5745W        W70565  22.353   7.714   4.218
 5746W        W70566  32.319  36.612  10.722
 5747W        W70567  44.870  42.935  14.351
 5748W        W70568   4.243   6.190   4.319
 5749W        W70569  40.742  36.342  10.488
 5750W        W70570  35.074   6.988   3.115
 5751W        W70571  28.265  40.865  12.817
 5752W        W70572   6.336  42.781   4.696
 5753W        W70573  39.571  27.775  10.690
 5754W        W70574  25.267  42.276   2.373
 5755W        W70575  36.517  17.656  14.411
 5756W        W70576  17.721   8.922   2.047
 5757W        W70577   8.829  24.614  10.698
 5758W        W70578  39.138  44.447  12.994
 5759W        W70579   1.745  31.564  11.540
 5760W        W70580  17.073   8.459   4.610
 5761W        W70581  41.432  36.402  14.147
 5762W        W70582  20.700   8.087   4.853
 5763W        W70583  15.689   2.881  14.406
 5764W        W70584   8.275   7.652   1.154
 5765W        W70585   5.647   6.163  12.091
 5766W        W70586   4.391  15.315   3.981
 5767W        W70587  15.698  39.278   2.405
 5768W        W70588  29.533  39.231  12.516
 5769W        W70589  37.790  37.441   1.680
 5770W        W70590  43.387  32.443  12.540
 5771W        W70591  40.508   0.390   2.370
 5772W        W70592  16.590  37.269   0.871
 5773W        W70593  39.513   5.326   2.579
 5774W        W70594  15.247  24.146  11.677
 5775W        W70595  21.474   1.339   4.840
 5776W        W70596   7.896  40.431  13.428
 5777W        W70597  39.939  20.535  11.054
 5778W        W70598  25.957  21.785  12.854
 5779W        W70599  28.448  42.473  11.135
 5780W        W70600  21.643  25.889  14.894
 5781W        W70601  26.450  10.581   2.194
 5782W        W70602  26.101  21.021   0.017
 5783W        W70603  22.748  38.232  12.519
 5784W        W70604  42.763  19.198  13.047
 5785W        W70605  28.610  40.488  12.018
 5786W        W70606  28.805   2.571  13.815
 5787W        W70607  34.434  38.704   4.999
 5788W        W70608  36.911  44.961  14.361
 5789W        W70609  28.524  17.566  14.702
 5790W        W70610  13.618  34.427  12.473
 5791W        W70611  37.973  43.019  11.912
 5792W        W70612  33.572  16.108  11.644
 5793W        W70613  38.863  29.490   2.199
 5794W        W70614  14.775  40.186   0.263
 5795W        W70615   1.792  37.045  14.899
 5796W        W70616  10.841  27.694  14.369
 5797W        W70617  39.282  23.495   4.576
 5798W        W70618  10.150  28.541   1.589
 5799W        W70619  25.778  25.728  11.474
 5800W        W70620  21.528  25.602  12.924
 5801W        W70621   3.646  40.242   2.631
 5802W        W70622  35.598  17.189  12.588
 5803W        W70623  39.486  20.071   4.187
 5804W        W70624   9.581  11.205  13.009
 5805W        W70625  13.399  20.106   3.085
 5806W        W70626   6.507  21.154   2.342
 5807W        W70627  16.114  40.110   1.261
 5808W        W70628  37.698  27.605  12.924
 5809W        W70629  16.995  44.567   5.030
 5810W        W70630  23.762  11.730  12.029
 5811W        W70631   6.789  40.516   0.818
 5812W        W70632  23.196  19.721   1.784
 5813W        W70633  28.498   1.107   0.025
 5814W        W70634  35.031   9.401   3.303
 5815W        W70635  24.598  30.625   2.816
 5816W        W70636  21.186  30.764   4.533
 5817W        W70637  36.977  11.769   0.792
 5818W        W70638  17.345  12.523  11.948
 5819W        W70639  32.332  25.243   2.210
 5820W        W70640  39.821  37.379  14.022
 5821W        W70641  38.599  30.929   0.877
 5822W        W70642   9.384  31.400  14.472
 5823W        W70643   8.087  39.974  10.691
 5824W        W70644  29.860  29.826  11.682
 5825W        W70645  25.572   0.323  10.873
 5826W        W70646  39.542  27.613  13.985
 5827W        W70647  11.416  34.508   2.671
 5828W        W70648  13.066  15.251   3.164
 5829W        W70649  17.705  22.704  13.864
 5830W        W70650  39.625  32.693  11.572
 5831W        W70651   5.476  19.043  11.631
 5832W        W70652  19.831  24.764  12.551
 5833W        W70653  38.359   3.152  12.475
 5834W        W70654   0.941  13.968   0.515
 5835W        W70655  34.629  13.580  11.725
 5836W        W70656  21.634  40.616  13.046
 5837W        W70657   2.771  21.564   1.255
 5838W        W70658   0.853  12.511  12.793
 5839W        W70659  38.283  14.985  11.048
 5840W        W70660  31.932  10.176   0.751
 5841W        W70661  10.789   4.675   3.626
 5842W        W70662   2.982  14.190   4.596
 5843W        W70663  10.664   0.816  13.363
 5844W        W70664   3.988  35.092  12.476
 5845W        W70665  37.787  22.590   2.849
 5846W        W70666  18.191  37.172  12.435
 5847W        W70667   2.370   1.161   3.209
 5848W        W70668  18.126  40.238   1.643
 5849W        W70669  22.325  40.400   0.442
 5850W        W70670  23.787  28.105   4.886
 5851W        W70671  39.990  44.191   0.284
 5852W        W70672   5.932  35.625   2.377
 5853W        W70673  42.368  26.934  13.552
 5854W        W70674   3.794  38.345   3.563
 5855W        W70675  11.623  14.505   4.985
 5856W        W70676  25.124  40.502   2.623
 5857W        W70677  19.013  27.772  13.828
 5858W        W70678  42.292   2.644   0.876
 5859W        W70679  25.258  29.944   0.427
 5860W        W70680  30.883   4.034   3.642
 5861W        W70681  34.301  18.395  14.450
 5862W        W70682   6.267  29.677   1.297
 5863W        W70683   6.836  14.024   2.260
 5864W        W70684  14.308  18.693  14.873
 5865W        W70685  36.758  23.193  10.764
 5866W        W70686  31.323   5.489   4.685
 5867W        W70687  17.162  35.071   9.750
 5868W        W70688  21.117  37.291   1.647
 5869W        W70689  14.108   8.842  14.159
 5870W        W70690   4.692  34.924   2.673
 5871W        W70691  16.744  11.635   0.344
 5872W        W70692   5.349  17.270   3.213
 5873W        W70693  18.886  14.113  11.992
 5874W        W70694  15.547  43.809  13.251
 5875W        W70695  18.282   5.741  11.753
 5876W        W70696  31.170  19.602   1.837
 5877W        W70697  14.429  23.059  12.050
 5878W        W70698  16.314   0.338   4.664
 5879W        W70699  40.222  11.618   4.285
 5880W        W70700   5.352  43.886  12.595
 5881W        W70701   8.909  33.075  10.689
 5882W        W70702  38.073  31.216   3.784
 5883W        W70703  27.727  44.752  11.245
 5884W        W70704   0.375  40.086   2.356
 5885W        W70705  37.032  35.377   3.809
 5886W        W70706  36.105  21.093  13.393
 5887W        W70707  22.195  30.981  13.372
 5888W        W70708  13.338  10.265   0.642
 5889W        W70709  36.489   4.270  10.803
 5890W        W70710  35.362  24.597  12.938
 5891W        W70711  38.860  17.300  14.754
 5892W        W70712   4.620  43.081  14.708
 5893W        W70713  28.002  12.114   0.646
 5894W        W70714   6.685  23.036   3.317
 5895W        W70715  37.461  17.160  12.860
 5896W        W70716  28.959  11.418   3.725
 5897W        W70717  24.490  26.137  14.979
 5898W        W70718  44.438  31.358   1.102
 5899W        W70719  42.530   2.374   2.259
 5900W        W70720  25.410   7.446  14.056
 5901W        W70721   5.227  30.103   0.461
 5902W        W70722  19.684   0.922   4.401
 5903W        W70723  44.052  12.015  14.931
 5904W        W70724  37.544  34.632   1.317
 5905W        W70725   1.093  44.189   3.233
 5906W        W70726  23.058  31.952  12.557
 5907W        W70727  43.547  40.453   4.216
 5908W        W70728  16.055  25.456   3.302
 5909W        W70729  32.984  15.077   5.436
 5910W        W70730  17.346  12.072   1.219
 5911W        W70731  27.825  19.369   4.000
 5912W        W70732  34.099   8.345   3.100
 5913W        W70733  26.529   9.687   2.356
 5914W        W70734  39.308   0.798  14.806
 5915W        W70735  28.109  24.234  13.884
 5916W        W70736  12.695  19.550   1.363
 5917W        W70737  33.599  26.734   0.243
 5918W        W70738   7.759  20.054  11.556
 5919W        W70739  15.281   9.129  13.495
 5920W        W70740  26.524   8.327  14.230
 5921W        W70741  41.080  11.306   5.111
 5922W        W70742  10.483  17.437  13.391
 5923W        W70743   4.211  38.311  11.203
 5924W        W70744  42.302  21.780  13.882
 5925W        W70745  40.817  22.259  14.760
 5926W        W70746  28.466  18.217   0.443
 5927W        W70747  36.575  43.392   1.188
 5928W        W70748   0.717   8.295  12.660
 5929W        W70749   7.752  30.596   2.814
 5930W        W70750  12.177  40.676  12.834
 5931W        W70751  33.121   0.066  14.789
 5932W        W70752  19.550  22.329  12.308
 5933W        W70753  11.402   5.656   0.700
 5934W        W70754   5.102  13.745   4.039
 5935W        W70755  15.748  43.091  14.870
 5936W        W70756  11.441  42.835  12.053
 5937W        W70757  36.941  34.457  11.568
 5938W        W70758  13.135  16.688   1.298
 5939W        W70759  13.312  44.751  14.526
 5940W        W70760   7.819  20.461   4.090
 5941W        W70761   4.257  24.227  11.190
 5942W        W70762  24.972   0.221   3.242
 5943W        W70763  29.137  44.803  14.969
 5944W        W70764  22.547   6.996   3.354
 5945W        W70765  35.527  27.209   4.526
 5946W        W70766  13.384  28.465  13.053
 5947W        W70767   4.950  26.696   2.375
 5948W        W70768  23.214  10.308  10.721
 5949W        W70769  34.966  14.811   0.347
 5950W        W70770  41.333  39.972  14.837
 5951W        W70771  36.638   4.009   3.240
 5952W        W70772   5.699  30.818  13.387
 5953W        W70773  33.049   6.285  10.717
 5954W        W70774  22.586   3.331  11.741
 5955W        W70775  37.783  34.774   0.679
 5956W        W70776  16.027  42.361  10.253
 5957W        W70777  20.238  12.257   3.710
 5958W        W70778  21.509  39.165  14.898
 5959W        W70779  31.846  10.343   2.267
 5960W        W70780  16.203  33.106   2.459
 5961W        W70781  30.531  11.875  14.841
 5962W        W70782  34.767  37.917  12.261
 5963W        W70783   0.976  25.517   0.433
 5964W        W70784   1.568  12.076   0.807
 5965W        W70785  26.537  14.205   0.407
 5966W        W70786  42.300  20.401  12.998
 5967W        W70787  14.290  22.628  11.311
 5968W        W70788  12.916  36.855  10.474
 5969W        W70789   6.435  19.516  14.389
 5970W        W70790  27.122  32.481  12.986
 5971W        W70791   9.507  26.555   4.747
 5972W        W70792  41.468   5.358   2.736
 5973W        W70793  17.605  33.484  11.904
 5974W        W70794  36.364  34.461   3.285
 5975W        W70795   5.231   0.755  11.852
 5976W        W70796   5.219   0.758  13.282
 5977W        W70797  15.338   6.521   5.001
 5978W        W70798  38.943  22.203   3.625
 5979W        W70799   0.503  12.218   0.077
 5980W        W70800  22.067  25.598  10.682
 5981W        W70801   4.872  33.630  14.982
 5982W        W70802  18.167   3.381  11.581
 5983W        W70803  43.251  44.672  14.236
 5984W        W70804   1.265  13.280   3.574
 5985W        W70805  26.463  13.053   1.212
 5986W        W70806  14.920  23.981  14.498
 5987W        W70807   3.197  32.998   0.153
 5988W        W70808  34.963   3.783   0.514
 5989W        W70809  43.162  38.382   3.119
 5990W        W70810  24.993   3.798  13.852
 5991W        W70811  41.553  17.066   1.860
 5992W        W70812  26.525  37.532  14.548
 5993W        W70813   6.379  14.711   3.621
 5994W        W70814   2.834  24.410   0.404
 5995W        W70815  31.163   6.606   1.730
 5996W        W70816  43.520   1.940   4.109
 5997W        W70817  34.178  29.655  11.235
 5998W        W70818   6.623  21.144   0.464
 5999W        W70819   5.889  27.743   4.709
 6000W        W70820   1.222  21.534  10.980
 6001W        W70821  37.830  31.726  12.509
 6002W        W70822  27.118   6.652  10.711
 6003W        W70823  30.865  17.679  11.119
 6004W        W70824  43.871  28.901   1.366
 6005W        W70825  22.064  27.989   3.679
 6006W        W70826  41.748   4.036  13.628
 6007W        W70827  15.561  31.605   1.815
 6008W        W70828  23.721  30.995   2.783
 6009W        W70829  24.744  10.074  11.641
 6010W        W70830  33.550  41.928  10.520
 6011W        W70831  20.593   4.634  12.950
 6012W        W70832  33.606  33.656  12.972
 6013W        W70833   2.079  43.421   3.005
 6014W        W70834  15.091  36.012  12.508
 6015W        W70835  12.798  33.391   3.268
 6016W        W70836  40.397  15.760   3.398
 6017W        W70837  22.681  32.087   0.880
 6018W        W70838   0.824   0.336  10.700
 6019W        W70839  18.712  40.040   3.114
 6020W        W70840  13.079   7.145  14.688
 6021W        W70841  27.590  18.614   4.623
 6022W        W70842  13.798  20.146   3.399
 6023W        W70843  36.911  13.378  13.519
 6024W        W70844  42.948  11.789   0.990
 6025W        W70845   2.667  24.064  11.964
 6026W        W70846  39.041  13.324   3.297
 6027W        W70847  35.184   5.354  10.381
 6028W        W70848  29.673  35.247   3.798
 6029W        W70849   9.182   4.664  10.830
 6030W        W70850  33.454  13.667   1.945
 6031W        W70851  38.528  33.137  12.946
 6032W        W70852  17.755   3.440   1.775
 6033W        W70853   7.554  14.637   0.596
 6034W        W70854  31.629   7.405   0.256
 6035W        W70855   7.760  40.398   4.614
 6036W        W70856  16.225   4.849   1.934
 6037W        W70857  24.079  16.399  10.619
 6038W        W70858  38.730  22.962   4.092
 6039W        W70859  25.191   3.252  13.294
 6040W        W70860  37.134   0.737  11.573
 6041W        W70861  18.688  14.682   3.682
 6042W        W70862  29.977  13.978   1.015
 6043W        W70863  23.611  34.156   3.843
 6044W        W70864  18.779  34.612  12.492
 6045W        W70865   6.800  37.225   4.704
 6046W        W70866  37.247  35.960  11.059
 6047W        W70867  28.117  43.916  10.749
 6048W        W70868   2.241   3.373   4.332
 6049W        W70869  43.545  19.292   0.767
 6050W        W70870  10.991   3.705   1.482
 6051W        W70871  28.924  43.074  10.810
 6052W        W70872  18.685  36.429   1.174
 6053W        W70873  27.262  33.331  12.440
 6054W        W70874  11.976   9.592   0.886
 6055W        W70875  38.806  16.999  11.605
 6056W        W70876  13.333  30.010  11.201
 6057W        W70877  22.080  37.415   3.887
 6058W        W70878  39.565  14.564  10.722
 6059W        W70879   7.194  16.105   4.111
 6060W        W70880  31.135   6.005  12.039
 6061W        W70881  31.556  14.556  12.422
 6062W        W70882   1.700  16.316  10.719
 6063W        W70883  37.872  14.867   4.292
 6064W        W70884   6.782  19.923   2.271
 6065W        W70885  41.942  32.633   3.210
 6066W        W70886  35.878  42.016  11.237
 6067W        W70887  39.984  28.023   0.896
 6068W        W70888  10.120  20.599   0.393
 6069W        W70889  19.157  33.593   2.546
 6070W        W70890   0.180  25.605  12.872
 6071W        W70891   7.044   6.915   4.238
 6072W        W70892  17.069  15.281   2.173
 6073W        W70893  42.896   8.665  10.332
 6074W        W70894  11.444  37.029  12.434
 6075W        W70895  34.426  17.684   4.722
 6076W        W70896  28.182  37.815  13.690
 6077W        W70897  15.481  29.560   2.785
 6078W        W70898   5.698  25.233   2.235
 6079W        W70899  37.482   6.376  13.810
 6080W        W70900  15.591  19.260  14.809
 6081W        W70901  25.227  41.183  12.662
 6082W        W70902  23.476  23.716   2.357
 6083W        W70903  24.751  18.106   5.425
 6084W        W70904   4.646  25.925   0.798
 6085W        W70905  40.132  37.045  13.811
 6086W        W70906  23.813  30.003  13.117
 6087W        W70907  13.966  20.717  10.624
 6088W        W70908  21.913   2.976   3.986
 6089W        W70909  42.726   4.285  11.961
 6090W        W70910  37.343  42.575   2.784
 6091W        W70911   5.894  27.458  10.700
 6092W        W70912   4.051  31.477   0.026
 6093W        W70913  10.076  28.176  14.111
 6094W        W70914  40.278  41.439   9.869
 6095W        W70915  42.389  21.571   4.375
 6096W        W70916  10.842  20.824   1.418
 6097W        W70917   9.697  29.640   1.644
 6098W        W70918   5.151   7.432  13.621
 6099W        W70919  42.149   1.052  12.454
 6100W        W70920  36.019  13.911   5.066
 6101W        W70921   7.165  21.711   0.223
 6102W        W70922  26.125  38.881  13.924
 6103W        W70923  29.576  12.292   4.635
 6104W        W70924  21.717  34.944   3.638
 6105W        W70925   8.722  18.292  12.034
 6106W        W70926  16.354   1.469   3.720
 6107W        W70927  32.949  43.058   3.651
 6108W        W70928  27.115  31.668   1.810
 6109W        W70929   1.471  39.794   1.226
 6110W        W70930  34.297  31.440  14.039
 6111W        W70931  31.744   4.404  13.351
 6112W        W70932   0.147  16.374  13.156
 6113W        W70933  29.156   7.283  10.831
 6114W        W70934  32.951   0.290   1.865
 6115W        W70935  15.544  20.146  12.881
 6116W        W70936  19.781  27.591   3.908
 6117W        W70937  30.076  34.465  13.763
 6118W        W70938  31.561  11.896  11.647
 6119W        W70939   4.961   0.779  12.711
 6120W        W70940  14.250   1.225  13.400
 6121W        W70941  36.460  41.973  14.855
 6122W        W70942  44.306  14.693   1.332
 6123W        W70943  20.985  28.987  12.448
 6124W        W70944  26.751  40.338   3.611
 6125W        W70945   4.392   4.001  10.669
 6126W        W70946   3.300  10.676   3.028
 6127W        W70947   8.568  23.827  14.542
 6128W        W70948   1.000   6.866  12.549
 6129W        W70949  16.864  30.603   0.928
 6130W        W70950   1.792   9.134   2.285
 6131W        W70951  20.567  16.372   1.405
 6132W        W70952   8.777   3.399   1.724
 6133W        W70953  26.759   6.400   2.983
 6134W        W70954   6.238  35.963  13.811
 6135W        W70955  20.287  39.956  11.271
 6136W        W70956  14.583  24.470   2.328
 6137W        W70957  17.718   6.222   1.793
 6138W        W70958  12.812   2.683   0.590
 6139W        W70959  23.196   4.790   4.057
 6140W        W70960  37.767  29.546  14.461
 6141W        W70961  24.698   5.918   1.325
 6142W        W70962  27.429  29.598   1.311
 6143W        W70963  43.896  24.725  13.102
 6144W        W70964   6.265   0.454   3.137
 6145W        W70965  44.903  40.830   0.557
 6146W        W70966  27.170  28.665   0.673
 6147W        W70967   5.823  15.151   2.368
 6148W        W70968  16.534  32.601  13.243
 6149W        W70969  38.893  29.393  13.918
 6150W        W70970  36.995  32.282   0.083
 6151W        W70971   7.688  12.090   1.418
 6152W        W70972   8.196  30.101   2.324
 6153W        W70973   3.320   8.570  11.184
 6154W        W70974  29.579  32.475  11.902
 6155W        W70975  36.508  33.343   2.747
 6156W        W70976   6.199   6.410   3.956
 6157W        W70977  11.033  13.497  10.226
 6158W        W70978  29.518  35.981   0.786
 6159W        W70979  38.800   3.570   2.671
 6160W        W70980   7.680  29.659  13.429
 6161W        W70981  30.680   6.335  14.049
 6162W        W70982  18.261  29.622  13.933
 6163W        W70983  23.345  16.065  12.939
 6164W        W70984   8.877  14.555  12.719
 6165W        W70985  17.235   6.335   1.583
 6166W        W70986   3.105  22.468   4.581
 6167W        W70987  42.093   3.167   3.264
 6168W        W70988  41.792  12.492   1.899
 6169W        W70989  44.534  40.819   4.122
 6170W        W70990  42.806  35.094  10.660
 6171W        W70991  27.625  28.658   2.401
 6172W        W70992  14.502   3.892   2.998
 6173W        W70993  24.487  10.234   2.389
 6174W        W70994  15.025  16.848  13.939
 6175W        W70995  36.054  40.525   1.273
 6176W        W70996  30.293  27.867  12.522
 6177W        W70997   8.225  41.569   4.631
 6178W        W70998   9.944  22.954  11.685
 6179W        W70999  13.144  40.812  13.353
 6180W        W71000  16.471  28.517  12.882
 6181W        W71001  24.638   1.856  14.957
 6182W        W71002  14.695  39.994   3.081
 6183W        W71003  40.000  10.618  13.952
 6184W        W71004   7.341   0.534   4.111
 6185W        W71005  40.809  32.146  12.645
 6186W        W71006  43.382   7.007  13.984
 6187W        W71007   4.405  20.094  13.820
 6188W        W71008  32.490   6.289   1.267
 6189W        W71009   0.926   9.244  11.643
 6190W        W71010  39.975  26.532  14.933
 6191W        W71011  43.017  42.361   3.675
 6192W        W71012  39.375  33.998  11.833
 6193W        W71013  21.283   6.822  10.882
 6194W        W71014  30.446  33.269  11.058
 6195W        W71015   3.484  37.999   1.429
 6196W        W71016  18.627  11.310  12.641
 6197W        W71017  44.289  39.321   1.407
 6198W        W71018  34.576  25.140  11.225
 6199W        W71019  40.994  17.468   0.234
 6200W        W71020   7.223  21.061  10.775
 6201W        W71021  40.939  23.911   4.168
 6202W        W71022  26.851   0.172   4.080
 6203W        W71023  42.473  23.293   1.434
 6204W        W71024   2.523  40.363  13.065
 6205W        W71025   0.419  32.524   2.366
 6206W        W71026  18.221  24.929   0.815
 6207W        W71027   2.884  37.040   3.737
 6208W        W71028  28.906  25.593  13.306
 6209W        W71029  29.096   2.753   4.289
 6210W        W71030  31.688   1.438   4.873
 6211W        W71031   2.956  12.245  14.423
 6212W        W71032   2.310   4.936   3.302
 6213W        W71033  15.825  35.887  13.854
 6214W        W71034  22.052  26.641   4.128
 6215W        W71035  44.468   6.137  14.206
 6216W        W71036   4.483  19.676  11.646
 6217W        W71037  13.437  24.736   4.816
 6218W        W71038  20.810  23.568  10.322
 6219W        W71039  41.576   1.439   0.776
 6220W        W71040  18.717   9.624   0.068
 6221W        W71041   4.643  37.203   1.017
 6222W        W71042  16.764  15.068   4.561
 6223W        W71043  13.361  14.589  10.649
 6224W        W71044  42.424  31.042  11.580
 6225W        W71045  43.061  40.392  14.855
 6226W        W71046  19.234   7.087  11.847
 6227W        W71047  39.861  30.238   3.724
 6228W        W71048  21.655  25.655   0.358
 6229W        W71049  16.589  36.449  12.100
 6230W        W71050   9.239  12.042  11.575
 6231W        W71051   8.787   2.439  13.889
 6232W        W71052  17.133   8.113  14.772
 6233W        W71053  37.773  42.013  14.655
 6234W        W71054  24.413  14.096  12.864
 6235W        W71055  12.199  28.179   9.858
 6236W        W71056  16.572  28.147  11.282
 6237W        W71057  20.606  31.881   3.785
 6238W        W71058  27.900  33.128   1.842
 6239W        W71059   5.393  11.592   4.622
 6240W        W71060  27.218  11.152  14.566
 6241W        W71061   1.084  15.083   3.841
 6242W        W71062  16.643   2.376   1.268
 6243W        W71063   4.286  42.022   0.318
 6244W        W71064  21.993  15.203  10.825
 6245W        W71065   5.224  19.346   1.463
 6246W        W71066  41.548  34.997  13.980
 6247W        W71067  29.484   6.810  12.393
 6248W        W71068   6.730  36.486   3.689
 6249W        W71069   1.514  22.215  12.112
 6250W        W71070  21.242   0.879  10.892
 6251W        W71071  40.300  22.496   1.787
 6252W        W71072  11.123  19.194   2.839
 6253W        W71073  16.893   6.487   3.413
 6254W        W71074  32.512  44.692   1.080
 6255W        W71075   2.054  29.094   4.127
 6256W        W71076  18.981  39.373   3.706
 6257W        W71077   0.450  10.810   2.211
 6258W        W71078   1.581  40.401   3.375
 6259W        W71079  42.745  10.124  11.608
 6260W        W71080  28.472  40.456  14.501
 6261W        W71081  11.659  34.672   1.423
 6262W        W71082  25.823  11.833   5.012
 6263W        W71083  29.122  22.800  11.152
 6264W        W71084   2.823  31.305  13.066
 6265W        W71085   7.729  32.868   3.372
 6266W        W71086   2.832  22.678   3.939
 6267W        W71087   5.952   9.457   4.139
 6268W        W71088  43.523   4.675   0.478
 6269W        W71089   0.885  18.562  10.611
 6270W        W71090   5.956  30.328   2.717
 6271W        W71091  26.094   1.997   1.963
 6272W        W71092  21.117  14.212  12.026
 6273W        W71093  27.104  14.838   2.298
 6274W        W71094  10.013   9.859   5.183
 6275W        W71095  21.054  24.511  13.033
 6276W        W71096   3.606  25.529   2.783
 6277W        W71097  18.623  24.282  14.287
 6278W        W71098   9.121  11.473  10.780
 6279W        W71099  36.685   1.269   1.174
 6280W        W71100  30.103  21.027  12.969
 6281W        W71101   3.018  20.807  14.436
 6282W        W71102   2.645  44.334  11.166
 6283W        W71103   0.688  18.098  14.469
 6284W        W71104  14.789  32.567  13.287
 6285W        W71105  21.275  17.853  14.378
 6286W        W71106   1.809  24.244   1.896
 6287W        W71107  16.687  13.180   0.385
 6288W        W71108  42.746  17.078  13.878
 6289W        W71109   1.546  38.374  11.917
 6290W        W71110   8.142  28.808  12.484
 6291W        W71111  39.641  27.207   0.439
 6292W        W71112  36.589   1.785  14.552
 6293W        W71113  19.653  24.507  13.895
 6294W        W71114  20.772  17.734  12.618
 6295W        W71115   9.909  40.659   0.219
 6296W        W71116  37.214  31.011   0.402
 6297W        W71117   1.854   6.828  11.169
 6298W        W71118  29.346   1.568  14.578
 6299W        W71119  19.419  35.923   1.233
 6300W        W71120  22.684  41.569  10.874
 6301W        W71121  40.622  43.764  13.836
 6302W        W71122  34.347   1.760   0.361
 6303W        W71123   6.607  33.657  14.308
 6304W        W71124  27.176  15.187   1.170
 6305W        W71125  20.462  11.668  13.540
 6306W        W71126  40.558  26.467  12.529
 6307W        W71127  26.093   8.781   3.614
 6308W        W71128  32.995  42.133  13.847
 6309W        W71129  12.227  25.234  13.312
 6310W        W71130  13.508   4.762  12.684
 6311W        W71131  17.062  16.620   4.071
 6312W        W71132  30.858  35.053   1.245
 6313W        W71133   8.375   5.277   1.744
 6314W        W71134   4.961   6.714  12.933
 6315W        W71135   1.446  35.891   4.461
 6316W        W71136  25.720  27.413  12.971
 6317W        W71137   6.192   4.564  12.409
 6318W        W71138  16.352   5.964   1.125
 6319W        W71139  31.614  36.148  12.119
 6320W        W71140  33.851  32.004   0.719
 6321W        W71141  27.444  31.949  13.444
 6322W        W71142   2.379   5.869  10.718
 6323W        W71143  14.674  10.772  13.059
 6324W        W71144  23.459  17.542  12.984
 6325W        W71145  30.928  18.277   0.473
 6326W        W71146   5.488   7.891   0.774
 6327W        W71147  24.953   7.283  13.838
 6328W        W71148  29.524   6.000   0.379
 6329W        W71149  38.669  10.137  13.098
 6330W        W71150  11.070  35.218   0.374
 6331W        W71151  25.919  16.591   3.258
 6332W        W71152  13.145   8.476   1.124
 6333W        W71153  38.340  19.000   0.821
 6334W        W71154  25.675  37.827   1.352
 6335W        W71155  25.761  36.483  12.834
 6336W        W71156   4.355  39.494   2.299
 6337W        W71157  26.015  21.612  11.989
 6338W        W71158  44.973   5.286   3.705
 6339W        W71159  40.698  34.762  11.170
 6340W        W71160   0.893  24.992   4.087
 6341W        W71161  34.809   5.700  14.530
 6342W        W71162  32.372  21.793   0.356
 6343W        W71163  33.041  15.368   0.362
 6344W        W71164  18.597  11.004  14.956
 6345W        W71165  41.225  42.367   1.378
 6346W        W71166  26.570  12.737  12.476
 6347W        W71167  23.641   7.832  14.001
 6348W        W71168  31.877   7.131  11.561
 6349W        W71169  12.118  18.746  13.277
 6350W        W71170  25.662  37.631   0.408
 6351W        W71171   9.296  43.917   0.482
 6352W        W71172  21.618   5.280  13.490
 6353W        W71173   2.157   6.543  14.878
 6354W        W71174  20.014  16.057   3.188
 6355W        W71175  35.082  17.677   2.591
 6356W        W71176  42.723  44.223  13.386
 6357W        W71177  24.975   2.720  14.015
 6358W        W71178   7.871  42.696  11.540
 6359W        W71179  26.529  37.470  13.592
 6360W        W71180  42.154   0.182  11.593
 6361W        W71181  40.407  34.831   1.456
 6362W        W71182  44.256  31.669  10.687
 6363W        W71183  43.750   6.951  13.006
 6364W        W71184  40.029  40.371  12.402
 6365W        W71185  10.931  39.101  12.901
 6366W        W71186  21.856  17.960  10.984
 6367W        W71187  32.408  19.881  10.768
 6368W        W71188  25.274  37.464   3.301
 6369W        W71189   0.969  24.375   1.919
 6370W        W71190  26.230  37.048   2.750
 6371W        W71191  35.604  40.471   4.839
 6372W        W71192  38.902  24.121  11.038
 6373W        W71193  37.356  28.940   4.583
 6374W        W71194  40.664   7.481  14.811
 6375W        W71195   9.487   9.168   4.648
 6376W        W71196  13.843  19.335   4.620
 6377W        W71197  22.203  36.596  12.433
 6378W        W71198  39.074  21.201   1.900
 6379W        W71199   0.358  14.322   0.799
 6380W        W71200  23.524  27.648  11.605
 6381W        W71201  28.509  42.310   3.437
 6382W        W71202   7.062  27.450   3.596
 6383W        W71203   1.953   6.690  10.695
 6384W        W71204  39.803   5.865   3.965
 6385W        W71205  40.504  44.431   3.541
 6386W        W71206   5.197  12.153   0.805
 6387W        W71207  28.398  16.543   2.337
 6388W        W71208   0.451  35.388  12.903
 6389W        W71209   2.669   2.437   1.754
 6390W        W71210  13.975  32.886  10.267
 6391W        W71211  23.541  26.428  10.690
 6392W        W71212  32.976  15.289  13.932
 6393W        W71213  35.999  38.578  14.717
 6394W        W71214  43.053  38.930  11.610
 6395W        W71215  13.678  44.052   0.020
 6396W        W71216  28.013  40.586   4.221
 6397W        W71217  43.014  12.187   1.910
 6398W        W71218  21.270  24.558  14.546
 6399W        W71219  27.562  44.483   4.570
 6400W        W71220  28.652  38.049  13.802
 6401W        W71221  17.783  21.181   2.231
 6402W        W71222  31.021  43.854  11.822
 6403W        W71223   4.707  40.304   3.768
 6404W        W71224  37.496  26.941   0.773
 6405W        W71225  29.240  35.553   0.487
 6406W        W71226   8.911  39.248  11.537
 6407W        W71227  14.315  10.162  12.022
 6408W        W71228  21.577  14.327   1.365
 6409W        W71229   5.960  39.342   4.850
 6410W        W71230  20.990  29.522  11.244
 6411W        W71231  10.380  39.483  13.064
 6412W        W71232   9.441   0.417   4.152
 6413W        W71233  37.522  19.570   4.963
 6414W        W71234  31.557  39.451  10.767
 6415W        W71235  39.456   3.196   3.694
 6416W        W71236   6.692  29.493   4.430
 6417W        W71237  23.109  23.669   0.498
 6418W        W71238  31.169  30.141  13.491
 6419W        W71239  29.172  32.986   1.276
 6420W        W71240  10.913   3.911   4.065
 6421W        W71241  16.748  22.199  10.582
 6422W        W71242  15.185  25.529   2.818
 6423W        W71243  15.171   4.197   2.250
 6424W        W71244  18.807   6.888  11.585
 6425W        W71245  34.041   8.498   4.338
 6426W        W71246  17.443  15.202   2.596
 6427W        W71247  39.932  37.431   0.974
 6428W        W71248  20.547  38.910  14.080
 6429W        W71249   1.182  21.539  10.406
 6430W        W71250  19.179  33.855  10.709
 6431W        W71251  16.376  30.114  10.936
 6432W        W71252   5.659   2.146   1.832
 6433W        W71253  41.931  14.167  12.373
 6434W        W71254  24.221  26.088   1.197
 6435W        W71255  43.113  31.998  11.823
 6436W        W71256   7.464  29.436   1.808
 6437W        W71257  29.533  22.050  12.214
 6438W        W71258  42.107  24.389   3.267
 6439W        W71259   2.640  18.847   3.279
 6440W        W71260   5.204   0.154   0.507
 6441W        W71261  42.640  26.530  13.817
 6442W        W71262  11.588  24.989   0.230
 6443W        W71263  44.597  14.926   2.783
 6444W        W71264  37.903  41.584  10.607
 6445W        W71265  39.802  14.584  14.872
 6446W        W71266  14.782   7.462  13.082
 6447W        W71267   5.368   6.105   0.449
 6448W        W71268  42.402  44.030   1.746
 6449W        W71269  10.193  39.174  12.688
 6450W        W71270  37.896  23.578   2.246
 6451W        W71271   9.870  43.485   1.664
 6452W        W71272  27.683  37.096  13.795
 6453W        W71273  14.775  28.838  11.178
 6454W        W71274  15.248   9.149   0.250
 6455W        W71275  17.573  37.667   1.761
 6456W        W71276   3.337   9.260   1.847
 6457W        W71277   0.404  40.820  13.841
 6458W        W71278  41.758  17.756  12.533
 6459W        W71279   8.681  14.100   0.381
 6460W        W71280  15.763  38.259   3.335
 6461W        W71281  15.179  20.036   2.888
 6462W        W71282  26.034  41.932  10.667
 6463W        W71283  14.536  15.716  10.900
 6464W        W71284   9.222  37.318  12.098
 6465W        W71285   0.985   4.247  11.152
 6466W        W71286   2.694   9.848   3.700
 6467W        W71287  33.359   8.880  13.796
 6468W        W71288  25.745  33.600  11.061
 6469W        W71289  16.151   7.441  12.472
 6470W        W71290  43.822  16.222   4.164
 6471W        W71291  28.438  27.225   3.356
 6472W        W71292  31.675  16.214   3.238
 6473W        W71293  30.691  31.802  11.731
 6474W        W71294  25.476  16.604   0.182
 6475W        W71295  21.092  23.161  13.865
 6476W        W71296   8.859  39.117   2.891
 6477W        W71297  26.082  14.586   3.092
 6478W        W71298  18.522  41.882   0.771
 6479W        W71299   2.333  29.026   0.369
 6480W        W71300  28.792   8.429   2.881
 6481W        W71301  21.489  11.514   0.347
 6482W        W71302   7.815   9.328  12.127
 6483W        W71303  35.117  42.736  10.691
 6484W        W71304  39.288  17.757  11.144
 6485W        W71305  36.172  36.321  11.163
 6486W        W71306  20.306  25.092   3.778
 6487W        W71307  16.114  35.055  11.181
 6488W        W71308  14.135   5.830   4.752
 6489W        W71309  29.256  11.832   0.175
 6490W        W71310  22.914  20.069   9.814
 6491W        W71311   5.941  37.197   3.718
 6492W        W71312   3.430  15.611  13.975
 6493W        W71313  30.546  27.772   2.222
 6494W        W71314  40.699  31.090   2.151
 6495W        W71315   8.633   1.813   2.788
 6496W        W71316  40.862  44.223   4.184
 6497W        W71317  39.382  16.131   4.821
 6498W        W71318  29.071  20.293  11.112
 6499W        W71319  31.226  43.315  13.954
 6500W        W71320  31.139  35.713  14.392
 6501W        W71321   2.910  12.250  12.869
 6502W        W71322   5.001  17.013   0.897
 6503W        W71323  36.446  39.321  13.378
 6504W        W71324   5.673  21.588   1.320
 6505W        W71325  18.106  21.558  12.653
 6506W        W71326   5.513   6.215   2.608
 6507W        W71327   7.599  20.017   3.191
 6508W        W71328  39.085  25.465  14.901
 6509W        W71329  30.050  17.595   4.145
 6510W        W71330   8.269  35.090   2.593
 6511W        W71331  28.933  21.302  11.086
 6512W        W71332   9.664  14.830  13.833
 6513W        W71333   1.944  39.033   2.258
 6514W        W71334  13.156  43.227  12.927
 6515W        W71335  42.149  27.432   2.262
 6516W        W71336  17.337  37.826  14.718
 6517W        W71337  27.690   1.248  11.516
 6518W        W71338  38.126  14.341   4.959
 6519W        W71339  31.710  30.899   3.279
 6520W        W71340   2.040  28.558   2.196
 6521W        W71341  25.664   7.909  10.773
 6522W        W71342   2.540   7.689  12.945
 6523W        W71343  27.716  39.846  13.994
 6524W        W71344  12.153  37.327   0.971
 6525W        W71345  30.361  33.883   4.016
 6526W        W71346  26.060  17.967   5.055
 6527W        W71347  25.559  18.389  14.748
 6528W        W71348   3.766  37.898  13.560
 6529W        W71349  27.419  15.295   3.403
 6530W        W71350  16.280  32.623   2.246
 6531W        W71351  32.669  20.226  11.463
 6532W        W71352  29.092   9.106   2.364
 6533W        W71353   3.355  18.584   1.910
 6534W        W71354   2.790  21.662  12.021
 6535W        W71355   0.434  40.256  13.997
 6536W        W71356  42.840   5.968   5.036
 6537W        W71357   5.044   1.200   0.391
 6538W        W71358  33.414   2.215   4.387
 6539W        W71359  35.492   2.737   0.799
 6540W        W71360   0.824  40.855   3.363
 6541W        W71361   6.632  12.791   3.277
 6542W        W71362  15.651   3.298  11.210
 6543W        W71363  38.940  37.846  12.850
 6544W        W71364  10.239  22.107   1.427
 6545W        W71365  30.592   9.903  11.209
 6546W        W71366  35.519  26.538  14.404
 6547W        W71367  23.721   1.444   2.734
 6548W        W71368   3.219  26.805   2.309
 6549W        W71369  34.581  28.649  12.988
 6550W        W71370  16.828  42.049   1.397
 6551W        W71371  11.837   6.604   4.101
 6552W        W71372  20.471   3.429  14.386
 6553W        W71373   5.490   9.205   2.431
 6554W        W71374  22.593   4.953   3.149
 6555W        W71375   0.496   4.120  11.158
 6556W        W71376  18.519  38.458   5.181
 6557W        W71377  44.332  13.398   4.024
 6558W        W71378   4.911  21.432  13.351
 6559W        W71379  35.537  41.243  12.315
 6560W        W71380  27.104  10.369   4.619
 6561W        W71381  16.102  19.291  12.865
 6562W        W71382   4.123  44.530  12.575
 6563W        W71383  34.632  16.860   9.793
 6564W        W71384  26.139   2.358   4.105
 6565W        W71385  37.494  38.544   0.777
 6566W        W71386   7.843  41.876   2.754
 6567W        W71387  11.813  10.433  10.317
 6568W        W71388  37.746  40.984   9.808
 6569W        W71389  15.835  23.994   3.583
 6570W        W71390   7.834   6.426   2.787
 6571W        W71391   4.949  20.599  11.575
 6572W        W71392  40.349  34.414   4.698
 6573W        W71393   9.292  31.647  12.491
 6574W        W71394  34.583  33.947  11.530
 6575W        W71395  20.846  34.590  13.320
 6576W        W71396   8.285  13.328  14.559
 6577W        W71397  20.345   1.064   3.145
 6578W        W71398  40.034  27.568  10.559
 6579W        W71399  21.392  42.468   4.898
 6580W        W71400   0.220  42.214   1.406
 6581W        W71401  29.673  17.193   2.795
 6582W        W71402  23.782  10.267   9.799
 6583W        W71403  32.616  42.007   0.283
 6584W        W71404  29.644  33.380   1.309
 6585W        W71405  16.072  26.076  11.155
 6586W        W71406  10.079   6.247  11.060
 6587W        W71407  12.699  13.098   3.338
 6588W        W71408  28.861  34.996   3.759
 6589W        W71409   4.754  38.076  13.811
 6590W        W71410  30.956  35.812  11.138
 6591W        W71411  39.123   8.786   3.730
 6592W        W71412  34.597  18.295   4.162
 6593W        W71413   7.363  42.360   1.727
 6594W        W71414  11.278  38.635   4.571
 6595W        W71415  15.148  12.128   4.290
 6596W        W71416  10.584  23.808   3.784
 6597W        W71417  43.981  22.445   3.357
 6598W        W71418  10.816   8.680  12.866
 6599W        W71419  39.933  21.119   1.805
 6600W        W71420  15.608  37.839   2.361
 6601W        W71421  16.994  31.232   0.420
 6602W        W71422  30.150   7.678   2.037
 6603W        W71423  32.882  38.541   0.377
 6604W        W71424  33.584   2.520   2.007
 6605W        W71425  15.692  20.278   1.493
 6606W        W71426  33.093  37.443  14.492
 6607W        W71427  31.533   4.824  12.394
 6608W        W71428  14.296  38.779   1.299
 6609W        W71429  20.037   9.825   0.287
 6610W        W71430  18.585  24.693  12.949
 6611W        W71431  42.360  26.197  10.743
 6612W        W71432  29.173   7.697   0.016
 6613W        W71433  10.713   5.702   3.378
 6614W        W71434   7.307  15.654   1.370
 6615W        W71435  18.662  35.190   2.230
 6616W        W71436  18.693  22.706  12.949
 6617W        W71437   9.802  28.957  10.307
 6618W        W71438   7.301  28.934   2.914
 6619W        W71439   1.934  31.388  11.073
 6620W        W71440   8.682  41.316  10.341
 6621W        W71441  22.518  28.052   2.815
 6622W        W71442  35.359  42.140   4.523
 6623W        W71443  41.028  13.799   4.941
 6624W        W71444   2.895  27.563   1.292
 6625W        W71445  27.822   9.657  14.380
 6626W        W71446  16.595  14.553   2.318
 6627W        W71447  38.078  16.181   2.643
 6628W        W71448   6.956  14.160   1.457
 6629W        W71449   7.600  21.760  13.889
 6630W        W71450  33.603  18.348   3.395
 6631W        W71451  39.716  19.589  10.740
 6632W        W71452  27.510  18.843   1.381
 6633W        W71453  40.947  25.834   0.893
 6634W        W71454  31.946  35.067  11.190
 6635W        W71455  33.043  36.515   3.594
 6636W        W71456   8.394  16.040   4.606
 6637W        W71457  36.407  13.970   0.817
 6638W        W71458   2.882   1.961  11.927
 6639W        W71459  21.976  33.398   4.214
 6640W        W71460   9.926  26.083  11.132
 6641W        W71461  37.055  17.180  11.617
 6642W        W71462  31.395  11.684   3.734
 6643W        W71463  35.073   7.648  13.693
 6644W        W71464   9.187  12.899  14.354
 6645W        W71465   6.072  37.938   4.094
 6646W        W71466  14.235  23.333   4.828
 6647W        W71467   2.554  28.196  13.346
 6648W        W71468   0.182   2.800   2.302
 6649W        W71469  32.653  21.712  11.972
 6650W        W71470  26.659   5.855  11.210
 6651W        W71471  39.162  29.536  13.499
 6652W        W71472  34.356  22.747   1.677
 6653W        W71473  41.729  13.238  14.056
 6654W        W71474  37.226  17.583   2.227
 6655W        W71475  27.540  17.193  14.356
 6656W        W71476  27.256  15.214  11.039
 6657W        W71477  25.990  16.932  10.083
 6658W        W71478  20.125   6.921   5.373
 6659W        W71479  17.534  44.525  12.995
 6660W        W71480   4.489  27.522   3.629
 6661W        W71481  41.606   5.978   3.720
 6662W        W71482   6.955  43.974  12.007
 6663W        W71483   0.486  32.525  12.602
 6664W        W71484   8.298  28.918  11.344
 6665W        W71485  17.249  39.978   0.168
 6666W        W71486  34.954   3.876  12.784
 6667W        W71487   1.021  36.118   5.174
 6668W        W71488  19.281  31.215  13.125
 6669W        W71489   7.452  20.610  12.456
 6670W        W71490   4.984  23.443   1.073
 6671W        W71491   0.840   7.290   3.898
 6672W        W71492  28.596  32.577   1.814
 6673W        W71493  15.147  14.104  10.509
 6674W        W71494   2.012  29.626  11.384
 6675W        W71495  33.029  25.651   4.929
 6676W        W71496   7.701  44.774   0.866
 6677W        W71497   7.916  24.813   0.880
 6678W        W71498  39.526   1.931   4.925
 6679W        W71499  29.424  40.005   2.737
 6680W        W71500   9.231  40.317   2.412
 6681W        W71501   1.903  28.593  11.187
 6682W        W71502  18.592  39.389   1.190
 6683W        W71503  44.341  13.374   1.912
 6684W        W71504  10.241   0.827   0.767
 6685W        W71505  19.190  12.799  11.488
 6686W        W71506  14.841  15.201  10.154
 6687W        W71507  19.188  26.903  13.313
 6688W        W71508  21.490  24.265   0.053
 6689W        W71509   3.627  25.516   0.123
 6690W        W71510  42.928  35.134   2.886
 6691W        W71511   7.958  11.821  13.534
 6692W        W71512  34.410  40.386   3.674
 6693W        W71513  15.082  24.675   3.795
 6694W        W71514  36.890  35.314   0.923
 6695W        W71515  26.630   8.455  13.247
 6696W        W71516  37.771   4.836  10.462
 6697W        W71517  34.964  16.896  13.870
 6698W        W71518  15.267  31.710  13.431
 6699W        W71519  29.122   4.165  14.345
 6700W        W71520  19.186  32.186  13.067
 6701W        W71521  29.049   8.368   3.873
 6702W        W71522  44.707  38.389   3.278
 6703W        W71523  32.136  44.857  14.569
 6704W        W71524  31.804  42.928  14.879
 6705W        W71525  39.136  24.558  13.674
 6706W        W71526   2.417   4.264  11.162
 6707W        W71527  20.950  43.571   0.761
 6708W        W71528  33.918  23.043  14.244
 6709W        W71529  35.459  24.273  12.558
 6710W        W71530  28.521  16.660   1.392
 6711W        W71531  16.789   6.854   4.199
 6712W        W71532   4.046  25.467   4.889
 6713W        W71533   7.117  22.727  12.914
 6714W        W71534  24.135  24.518   2.661
 6715W        W71535  23.454  36.997   5.418
 6716W        W71536  15.985   1.253  11.927
 6717W        W71537   9.884  43.306   3.653
 6718W        W71538  40.321  24.256   3.628
 6719W        W71539  20.540   9.745  11.408
 6720W        W71540  41.275  38.843  14.892
 6721W        W71541  20.159  14.101  11.196
 6722W        W71542  41.070  21.485   1.342
 6723W        W71543  42.830  18.039   0.315
 6724W        W71544  43.267  44.167   4.171
 6725W        W71545  15.157  38.769  11.623
 6726W        W71546   2.757  10.425   4.134
 6727W        W71547  39.534  39.522   1.913
 6728W        W71548  25.773  26.596  11.593
 6729W        W71549  35.693  44.610   4.071
 6730W        W71550  23.564  43.923  13.044
 6731W        W71551  34.374  27.820   5.018
 6732W        W71552  26.545  11.887  12.021
 6733W        W71553   5.585  12.845   0.416
 6734W        W71554  21.067  24.636   1.345
 6735W        W71555  20.644  42.819  13.039
 6736W        W71556  27.221  31.584   0.925
 6737W        W71557   3.500  39.298   0.415
 6738W        W71558  28.768  26.000   5.157
 6739W        W71559  34.709  32.121  14.817
 6740W        W71560  40.492  30.176   0.427
 6741W        W71561  28.073  39.982  14.355
 6742W        W71562  36.774   3.730   1.404
 6743W        W71563  22.818  21.764   2.665
 6744W        W71564   0.760   0.945   2.756
 6745W        W71565   7.820  44.419  13.512
 6746W        W71566  36.758  25.135   2.954
 6747W        W71567  43.501   8.403  14.774
 6748W        W71568  35.494  25.935   0.034
 6749W        W71569  10.749  35.985   4.492
 6750W        W71570  25.145   9.850   3.235
 6751W        W71571  10.688  34.143   4.606
 6752W        W71572  43.231  19.255  12.016
 6753W        W71573  38.628   1.384   1.266
 6754W        W71574  44.851   9.829  11.140
 6755W        W71575  41.282  19.456   3.582
 6756W        W71576  40.989  22.482  12.841
 6757W        W71577  39.590  41.495  14.597
 6758W        W71578  31.859  21.215  12.896
 6759W        W71579  40.324  31.559  13.636
 6760W        W71580  20.203  22.744   1.885
 6761W        W71581   3.584  15.700  12.954
 6762W        W71582  42.295   5.808  10.637
 6763W        W71583  37.876  21.476  14.875
 6764W        W71584  18.857  43.643  14.981
 6765W        W71585  37.064   1.393   4.154
 6766W        W71586  32.772  40.282  11.159
 6767W        W71587  23.820  22.903  11.968
 6768W        W71588  36.827  19.906   0.917
 6769W        W71589  24.500  37.931   3.615
 6770W        W71590   9.342   9.315   1.702
 6771W        W71591  21.804  40.262   2.778
 6772W        W71592  22.392  40.080   2.796
 6773W        W71593   5.760  34.508   0.472
 6774W        W71594  15.617   7.865   4.554
 6775W        W71595  10.355   3.411  13.949
 6776W        W71596  18.110  27.714  12.168
 6777W        W71597  13.334   3.679   3.721
 6778W        W71598   1.954  11.200  12.087
 6779W        W71599  35.007  30.807  14.981
 6780W        W71600   2.854   6.618  10.579
 6781W        W71601  19.195  13.334  12.399
 6782W        W71602  24.043   4.743  13.806
 6783W        W71603  24.642  18.105   0.876
 6784W        W71604  29.089  14.373   1.273
 6785W        W71605  43.603  21.946  14.330
 6786W        W71606  40.484  42.259  13.941
 6787W        W71607   2.306   3.498   1.335
 6788W        W71608  20.982  43.485   2.636
 6789W        W71609  11.304  16.341  13.286
 6790W        W71610  27.386  22.551   0.844
 6791W        W71611  13.116  14.105   1.816
 6792W        W71612  19.620  42.931  10.840
 6793W        W71613   1.350  42.341  13.402
 6794W        W71614  11.543   1.570  14.068
 6795W        W71615  22.982  30.898  11.397
 6796W        W71616  26.733   6.633  12.179
 6797W        W71617  42.892  32.011   4.937
 6798W        W71618   5.557  40.786  13.301
 6799W        W71619  22.641  43.007  14.307
 6800W        W71620  24.378  41.466   2.648
 6801W        W71621  29.434  17.802   3.593
 6802W        W71622  15.598  16.569   4.055
 6803W        W71623   8.071   7.034   1.646
 6804W        W71624   8.571  17.797   1.507
 6805W        W71625  42.422  31.550   1.410
 6806W        W71626  31.019  32.194  11.738
 6807W        W71627  14.325  21.691   0.952
 6808W        W71628  43.941   8.674   0.802
 6809W        W71629  16.324  31.545  14.787
 6810W        W71630  27.784  15.479   2.680
 6811W        W71631  40.384  36.989   1.929
 6812W        W71632  39.482  35.489  13.538
 6813W        W71633  28.957  39.266  13.885
 6814W        W71634  21.013  32.668   1.782
 6815W        W71635  20.618  17.047  13.068
 6816W        W71636  17.252  21.269   0.811
 6817W        W71637   9.490  31.182  13.546
 6818W        W71638   1.489  37.307   4.788
 6819W        W71639  44.085   9.201  10.951
 6820W        W71640  31.925  44.074   3.101
 6821W        W71641  29.753   1.949   3.794
 6822W        W71642   9.377  20.124  10.896
 6823W        W71643  16.235   6.740   1.850
 6824W        W71644  14.599  15.071   2.562
 6825W        W71645  12.156  41.317   1.930
 6826W        W71646   9.782  35.794   4.211
 6827W        W71647   9.207  18.197  13.478
 6828W        W71648  26.918  41.786   4.538
 6829W        W71649  17.810  31.429   4.634
 6830W        W71650  35.871   6.610  12.425
 6831W        W71651  17.179  33.401  10.692
 6832W        W71652  31.570  40.439   1.800
 6833W        W71653  10.580   7.942  11.693
 6834W        W71654  16.632  15.133  10.578
 6835W        W71655  37.076   0.892   0.963
 6836W        W71656  44.888  19.505   2.189
 6837W        W71657  42.511  32.265   0.009
 6838W        W71658  14.377  14.285  11.576
 6839W        W71659  21.585  16.096  12.391
 6840W        W71660  41.825   1.993   1.212
 6841W        W71661  32.186  22.218  13.469
 6842W        W71662   5.436  35.581   0.678
 6843W        W71663  26.453  28.117   0.880
 6844W        W71664   9.262  17.571  11.523
 6845W        W71665  34.485  30.756   1.265
 6846W        W71666  15.310  24.624   0.476
 6847W        W71667   9.335  33.442  10.584
 6848W        W71668  35.556  31.667  11.479
 6849W        W71669  20.155  37.063   5.429
 6850W        W71670  27.286  14.399   3.145
 6851W        W71671   4.737  38.947  13.767
 6852W        W71672  33.622  17.601  11.653
 6853W        W71673   8.346  26.177  14.108
 6854W        W71674  40.997  21.521  13.513
 6855W        W71675   9.061  13.741   2.895
 6856W        W71676  27.210  16.706  11.989
 6857W        W71677   1.350   9.361   2.358
 6858W        W71678  26.885   1.926   1.392
 6859W        W71679  18.551  32.014  13.281
 6860W        W71680  38.811  13.189   0.644
 6861W        W71681  25.488   0.452   4.097
 6862W        W71682  16.771  21.244   4.060
 6863W        W71683  29.985  19.282  13.045
 6864W        W71684   1.351  31.909  11.568
 6865W        W71685   7.357  43.980   0.230
 6866W        W71686   7.657  21.759   3.543
 6867W        W71687  34.862  30.420   1.791
 6868W        W71688  30.860   4.400   0.276
 6869W        W71689  43.361  36.839   2.734
 6870W        W71690   2.970  43.815   1.637
 6871W        W71691  33.529  11.884   3.539
 6872W        W71692  31.907  30.191   1.645
 6873W        W71693   7.703  31.733  14.463
 6874W        W71694  18.862  28.009   1.586
 6875W        W71695   0.358   4.157   4.412
 6876W        W71696   1.134  28.376  12.529
 6877W        W71697   4.778   2.250   3.294
 6878W        W71698  11.656   3.480  14.858
 6879W        W71699  35.190  29.649   4.104
 6880W        W71700   0.964  25.281  14.256
 6881W        W71701  38.852   4.746   0.805
 6882W        W71702   7.685  26.713   3.245
 6883W        W71703   2.758  35.797  12.091
 6884W        W71704  39.826  11.109  14.858
 6885W        W71705  13.316   4.694  11.503
 6886W        W71706  16.482  18.722  14.432
 6887W        W71707  42.367  27.444  12.566
 6888W        W71708  43.067   0.979  14.018
 6889W        W71709  32.169   5.751   1.710
 6890W        W71710  12.407   7.210  10.891
 6891W        W71711  18.590  28.031   4.585
 6892W        W71712  17.723   0.223  11.456
 6893W        W71713  13.050  41.900  13.298
 6894W        W71714   1.810  23.798  12.953
 6895W        W71715  33.480  16.880   2.357
 6896W        W71716  40.130  41.733   0.862
 6897W        W71717   6.733  18.240   3.844
 6898W        W71718   2.440  19.028  13.739
 6899W        W71719  13.259  30.895   1.939
 6900W        W71720  43.786  36.485  10.691
 6901W        W71721  33.184  26.705   3.684
 6902W        W71722   8.706  28.268   4.503
 6903W        W71723   2.921  39.545  10.603
 6904W        W71724   7.106  42.382  12.616
 6905W        W71725  28.154  37.415   3.319
 6906W        W71726  20.632  42.112   3.246
 6907W        W71727  12.591  28.061   3.159
 6908W        W71728  28.862   7.661   0.891
 6909W        W71729  16.952  14.428  14.966
 6910W        W71730  43.537  34.001   1.443
 6911W        W71731  29.909  34.432   4.182
 6912W        W71732  16.297  32.612   1.374
 6913W        W71733  37.593  25.412  14.706
 6914W        W71734   5.530   7.358  11.828
 6915W        W71735  41.062   8.192   1.746
 6916W        W71736   8.093  30.034   0.984
 6917W        W71737  39.913  28.542   2.149
 6918W        W71738  34.857  19.037   4.975
 6919W        W71739   0.567  11.525  11.135
 6920W        W71740  38.868  34.999   2.622
 6921W        W71741  42.629   5.023  13.800
 6922W        W71742  16.356  23.526   4.794
 6923W        W71743  44.471   4.723  12.404
 6924W        W71744  44.146  44.929  14.599
 6925W        W71745  11.695   9.092   0.876
 6926W        W71746  23.095   7.555  11.481
 6927W        W71747   6.729   1.951  10.715
 6928W        W71748  43.501  37.797  10.735
 6929W        W71749  28.419  19.005  11.949
 6930W        W71750  12.513  39.321  13.745
 6931W        W71751  17.192  13.086   1.190
 6932W        W71752  32.446  10.368   4.030
 6933W        W71753   2.334  17.010  13.911
 6934W        W71754  19.352   3.861   4.083
 6935W        W71755   3.738  13.378  12.979
 6936W        W71756   3.848  43.300  12.615
 6937W        W71757   0.999  17.003  11.680
 6938W        W71758  24.891  18.816  10.323
 6939W        W71759   4.834  22.635   3.205
 6940W        W71760  39.897  39.151   2.332
 6941W        W71761   8.147  23.718   1.535
 6942W        W71762  12.906  29.298   4.468
 6943W        W71763   0.283   3.149   4.655
 6944W        W71764  35.963  29.392  12.943
 6945W        W71765  26.522  34.372   2.653
 6946W        W71766  10.999  42.311   4.364
 6947W        W71767  20.744  32.039  12.312
 6948W        W71768  29.962   3.304   1.647
 6949W        W71769  24.518  31.708   2.766
 6950W        W71770  22.574  39.071  10.165
 6951W        W71771  34.950  44.785   2.859
 6952W        W71772  44.412  26.475   2.303
 6953W        W71773  34.271  40.299   2.837
 6954W        W71774  12.346  23.560  11.958
 6955W        W71775  33.620  22.543  10.275
 6956W        W71776  44.389  15.720  12.930
 6957W        W71777  40.171  42.536  11.592
 6958W        W71778  12.780  39.405   0.894
 6959W        W71779   6.693  41.993  14.274
 6960W        W71780   3.859  26.778   4.582
 6961W        W71781   8.256  43.413  13.648
 6962W        W71782  20.607  42.534  12.336
 6963W        W71783  22.697  25.094  12.715
 6964W        W71784  15.333  18.959  12.497
 6965W        W71785  37.588  41.474   1.226
 6966W        W71786   6.997  23.497  14.935
 6967W        W71787   4.154   7.150   2.862
 6968W        W71788  31.925  35.425   1.051
 6969W        W71789  25.851   3.303  12.081
 6970W        W71790  24.988  19.539  12.997
 6971W        W71791   4.029  25.071  11.824
 6972W        W71792   8.167   1.711  10.612
 6973W        W71793   5.322  28.044   2.207
 6974W        W71794  18.070  16.733  14.713
 6975W        W71795  21.941  11.827  10.582
 6976W        W71796  36.296  13.603   4.078
 6977W        W71797  40.833  40.356  14.406
 6978W        W71798  24.158  17.293   1.467
 6979W        W71799  30.349  29.111  11.021
 6980W        W71800  30.773   2.232   4.570
 6981W        W71801  11.164  14.040   5.399
 6982W        W71802  13.283  12.262   1.835
 6983W        W71803   7.909  14.033  13.093
 6984W        W71804  30.997   1.699  11.558
 6985W        W71805  13.257  10.983  11.824
 6986W        W71806  39.250  32.410  14.867
 6987W        W71807  40.827  31.682  12.398
 6988W        W71808  13.476  30.563  13.357
 6989W        W71809   1.446   7.428   1.248
 6990W        W71810  24.778  24.629   4.301
 6991W        W71811  35.736  13.346  12.516
 6992W        W71812  42.874   2.770   4.244
 6993W        W71813   3.084  20.948   3.253
 6994W        W71814  35.111  44.768   3.344
 6995W        W71815  22.890  11.695  12.410
 6996W        W71816  40.672  21.859  14.373
 6997W        W71817   4.738  15.120   9.911
 6998W        W71818  16.630   9.886  14.829
 6999W        W71819  44.003  37.453  13.457
 7000W        W71820  35.515  37.090   4.420
 7001W        W71821  17.346   1.241   0.227
 7002W        W71822   9.782  10.369  14.473
 7003W        W71823  37.522  28.527   2.440
 7004W        W71824   1.004  36.470   4.615
 7005W        W71825   6.672   8.622  12.145
 7006W        W71826  29.468  37.866  11.203
 7007W        W71827  12.756  27.672   1.882
 7008W        W71828  14.327  43.051   4.502
 7009W        W71829   4.382   5.664   4.218
 7010W        W71830  23.333  40.516  13.488
 7011W        W71831   6.009  43.970   1.761
 7012W        W71832  29.622  41.756   3.295
 7013W        W71833  35.126  18.673   2.368
 7014W        W71834  29.666   9.427   0.261
 7015W        W71835  15.276  28.411   2.324
 7016W        W71836  40.464  27.189   2.134
 7017W        W71837  19.719  35.395  13.115
 7018W        W71838  22.605  24.710  10.544
 7019W        W71839   7.888  28.644   4.503
 7020W        W71840  30.400  40.014  11.114
 7021W        W71841  19.931  11.108   3.533
 7022W        W71842   1.479   3.951   0.263
 7023W        W71843   4.144   8.499  11.416
 7024W        W71844  23.097  31.385   0.661
 7025W        W71845  39.034  14.245   0.254
 7026W        W71846  23.576  35.593   2.304
 7027W        W71847  16.682  28.015   4.337
 7028W        W71848  22.955  10.615  13.174
 7029W        W71849  33.374  22.052   5.023
 7030W        W71850  38.912  24.668   3.544
 7031W        W71851  35.046   7.254   0.748
 7032W        W71852  24.857  15.931   1.234
 7033W        W71853   5.840  14.676  14.006
 7034W        W71854   2.284  21.968   4.678
 7035W        W71855  43.547  34.974  14.361
 7036W        W71856   6.964  39.274   0.281
 7037W        W71857   9.856  39.475  12.964
 7038W        W71858  42.297  24.633  14.081
 7039W        W71859  29.505   2.422  11.156
 7040W        W71860  17.741  11.266   1.646
 7041W        W71861  10.183  18.485  12.658
 7042W        W71862  18.087   9.531   1.962
 7043W        W71863  32.294  24.895   3.646
 7044W        W71864  18.611  42.502   4.125
 7045W        W71865  14.497  18.777  10.286
 7046W        W71866  15.432  36.858  10.312
 7047W        W71867  20.826  34.569   2.044
 7048W        W71868  35.822  33.799  11.060
 7049W        W71869  44.847  39.054   4.702
 7050W        W71870  39.295  42.767  14.244
 7051W        W71871  17.086  15.365  14.330
 7052W        W71872  16.310   8.744  14.071
 7053W        W71873   7.312  11.435   4.585
 7054W        W71874   7.918  36.288   2.228
 7055W        W71875   7.475  42.882  14.072
 7056W        W71876   5.402  37.519   3.220
 7057W        W71877  43.555  17.206   2.085
 7058W        W71878  10.688  44.366   4.583
 7059W        W71879  39.423  12.295   4.335
 7060W        W71880  20.530  16.800  13.531
 7061W        W71881  27.699  23.989  13.654
 7062W        W71882  37.356  42.302  11.897
 7063W        W71883   9.727  24.206   1.878
 7064W        W71884  11.620   7.679   1.350
 7065W        W71885   0.316  36.520  12.906
 7066W        W71886  25.946  40.849   0.448
 7067W        W71887  18.467   7.672   2.765
 7068W        W71888  29.345  13.316   1.962
 7069W        W71889  36.612  31.028  13.431
 7070W        W71890  31.000  14.895  14.377
 7071W        W71891  44.982  10.604  11.969
 7072W        W71892   9.306   9.126   2.184
 7073W        W71893  37.770  11.868   2.854
 7074W        W71894  44.659  16.951   1.455
 7075W        W71895  29.635   0.869  10.809
 7076W        W71896   8.791  33.005   0.040
 7077W        W71897   0.069   4.432  11.178
 7078W        W71898  20.996  18.673   5.033
 7079W        W71899  16.420  37.884  11.535
 7080W        W71900   6.354   4.859   1.805
 7081W        W71901  23.661  37.747  10.293
 7082W        W71902  17.174  33.351   4.748
 7083W        W71903  28.675  36.941   2.650
 7084W        W71904  17.800  39.405  13.887
 7085W        W71905  30.652  36.921  11.231
 7086W        W71906  37.523  44.761   3.826
 7087W        W71907  38.991   3.459   3.656
 7088W        W71908  24.584  24.449   0.880
 7089W        W71909  28.646  20.573  14.902
 7090W        W71910   4.631   9.163   1.396
 7091W        W71911  38.113  34.116   4.708
 7092W        W71912   3.365  20.980  10.783
 7093W        W71913  19.141  19.832  12.482
 7094W        W71914   2.250   1.850  13.507
 7095W        W71915  17.218  18.460   4.140
 7096W        W71916   2.848  14.183   3.322
 7097W        W71917  30.291  34.787   4.860
 7098W        W71918  21.324   1.304  13.384
 7099W        W71919  31.085  32.560   3.280
 7100W        W71920  41.126   6.662   3.217
 7101W        W71921   5.289  16.474   0.227
 7102W        W71922   4.611  30.629   3.447
 7103W        W71923  42.155  22.781   4.171
 7104W        W71924  10.423  20.990  11.048
 7105W        W71925  27.239  37.856   9.826
 7106W        W71926   3.862  23.699   3.313
 7107W        W71927  27.312  42.034   4.291
 7108W        W71928  43.948   5.828   2.209
 7109W        W71929   1.168  36.404  14.073
 7110W        W71930  40.789  20.511  11.174
 7111W        W71931  41.951  28.264  12.497
 7112W        W71932  29.919  11.435  11.991
 7113W        W71933  30.618  36.115   1.695
 7114W        W71934   4.684  30.402  11.992
 7115W        W71935  36.036  16.047  12.604
 7116W        W71936  32.893  27.406   0.360
 7117W        W71937  16.293  41.863  14.094
 7118W        W71938  10.702  14.340   2.705
 7119W        W71939  12.143  19.254  10.299
 7120W        W71940  16.766  17.760   4.488
 7121W        W71941  31.137  34.532   3.949
 7122W        W71942   0.037  29.473   4.872
 7123W        W71943  27.562  40.220  11.238
 7124W        W71944  10.197   5.247   2.748
 7125W        W71945   5.899  30.240  12.694
 7126W        W71946  33.664  19.685   4.144
 7127W        W71947  17.805  14.759   0.296
 7128W        W71948  20.990  20.989   3.623
 7129W        W71949  31.275  30.588   3.706
 7130W        W71950  44.960   2.634  12.045
 7131W        W71951   4.670  39.343   1.815
 7132W        W71952  41.356  24.563  14.911
 7133W        W71953  24.993  12.246   4.973
 7134W        W71954  15.807  29.451  11.522
 7135W        W71955  26.067  26.840   4.553
 7136W        W71956  19.261   3.212   1.754
 7137W        W71957  44.489  30.952   3.594
 7138W        W71958  37.492  24.030   4.067
 7139W        W71959   5.193  18.252  14.598
 7140W        W71960  36.147  42.978  10.760
 7141W        W71961  34.086  44.063  12.428
 7142W        W71962  22.357  12.881   2.922
 7143W        W71963  40.848   6.443   1.470
 7144W        W71964  26.600  32.408  13.021
 7145W        W71965  35.343  23.023   3.059
 7146W        W71966   5.851  14.299  14.375
 7147W        W71967  36.637  19.354   3.997
 7148W        W71968  10.629  36.850  13.386
 7149W        W71969  26.654  23.995   3.710
 7150W        W71970   8.794  19.080  12.491
 7151W        W71971  19.144   3.561   0.749
 7152W        W71972   7.668   4.003  14.331
 7153W        W71973   1.488  42.759  14.432
 7154W        W71974   1.381   1.404   3.247
 7155W        W71975  10.488  26.983   1.152
 7156W        W71976  26.136   3.338   2.256
 7157W        W71977  10.567   3.219  11.833
 7158W        W71978  43.159  40.606   0.631
 7159W        W71979  28.174  22.305   1.768
 7160W        W71980  11.683  15.816   0.166
 7161W        W71981   4.885  21.262  14.217
 7162W        W71982   0.207   1.326  14.030
 7163W        W71983  32.485  30.641  13.117
 7164W        W71984  31.999  14.584  12.696
 7165W        W71985  25.996  13.224   1.391
 7166W        W71986  33.883  37.515  11.898
 7167W        W71987  34.018  32.050   3.290
 7168W        W71988  38.970  29.502   1.273
 7169W        W71989  21.550  39.035  10.711
 7170W        W71990  37.353  25.904   0.389
 7171W        W71991  29.290  27.908   2.364
 7172W        W71992  31.352  44.903  12.465
 7173W        W71993  26.893  35.608   3.323
 7174W        W71994  11.871  32.985  11.648
 7175W        W71995   4.200  32.543   2.255
 7176W        W71996  18.453   4.269   4.092
 7177W        W71997  26.590   9.591  11.323
 7178W        W71998  42.900  33.231   2.624
 7179W        W71999  34.485   3.254  11.202
 7180W        W72000   6.423  33.571  10.748
 7181W        W72001   6.280  27.702   3.159
 7182W        W72002  20.044  19.664   5.138
 7183W        W72003  18.407  23.441   1.393
 7184W        W72004  43.634  32.990   2.256
 7185W        W72005  11.556   9.791   1.391
 7186W        W72006  16.155  22.796  13.959
 7187W        W72007   7.277  34.201  11.597
 7188W        W72008  41.486   9.066  11.330
 7189W        W72009  37.369  40.751   2.186
 7190W        W72010  37.108  11.621  11.496
 7191W        W72011  39.982  33.476   3.198
 7192W        W72012  26.139  11.761   3.685
 7193W        W72013  21.240  23.501  10.671
 7194W        W72014  22.249   0.555   0.564
 7195W        W72015  22.424   2.190   3.891
 7196W        W72016  11.676   2.492  14.217
 7197W        W72017  29.730   8.003   1.887
 7198W        W72018  10.279   3.092   1.932
 7199W        W72019  28.278   7.298   1.673
 7200W        W72020  24.191  43.062   5.083
 7201W        W72021  41.890  18.141   1.627
 7202W        W72022  34.470  33.895  13.926
 7203W        W72023  24.056  19.516   3.355
 7204W        W72024  32.058  42.259  11.557
 7205W        W72025  26.978  37.666   4.223
 7206W        W72026  14.738  37.180  14.960
 7207W        W72027  41.784   3.309  10.965
 7208W        W72028  12.677  43.083  13.117
 7209W        W72029  39.104  22.655  10.553
 7210W        W72030  13.827   1.735  13.143
 7211W        W72031   7.347  27.000   2.683
 7212W        W72032  36.509  17.963  10.767
 7213W        W72033  16.820  43.501  11.492
 7214W        W72034   1.960   9.394  10.745
 7215W        W72035  25.922  24.765  13.561
 7216W        W72036   1.772   1.769   4.790
 7217W        W72037  15.972  29.684   2.731
 7218W        W72038  38.561  21.199   2.672
 7219W        W72039  24.131  38.836   0.350
 7220W        W72040  43.360  23.087  10.806
 7221W        W72041  38.844  38.434  10.610
 7222W        W72042  18.035   0.541   4.455
 7223W        W72043  30.642  18.205   2.201
 7224W        W72044   4.040  37.567   0.264
 7225W        W72045   0.835  44.281  13.295
 7226W        W72046  43.309  22.113  12.076
 7227W        W72047  15.739  37.800  14.386
 7228W        W72048  38.439  33.701  12.841
 7229W        W72049  28.789  22.091  14.745
 7230W        W72050   9.795  12.273  14.315
 7231W        W72051  21.369   6.351   5.335
 7232W        W72052  36.436   6.275  11.920
 7233W        W72053  16.526  39.825   2.883
 7234W        W72054  40.759  33.997  10.696
 7235W        W72055  21.221  28.993  14.327
 7236W        W72056  28.739  16.185   1.353
 7237W        W72057   1.781  39.032   3.082
 7238W        W72058  42.875  13.200   1.410
 7239W        W72059  15.280   1.509  11.182
 7240W        W72060  25.179  34.429   2.421
 7241W        W72061  20.255  19.761   4.166
 7242W        W72062  24.023  42.380  12.636
 7243W        W72063  32.583  31.419   0.809
 7244W        W72064  20.149  33.547  10.605
 7245W        W72065  40.088   4.627  12.077
 7246W        W72066  25.261  27.959  11.317
 7247W        W72067  12.645  14.917   0.335
 7248W        W72068   9.216  21.038  10.586
 7249W        W72069  26.714  24.739   1.343
 7250W        W72070  42.439  43.859  11.075
 7251W        W72071  31.270  20.598   3.244
 7252W        W72072  22.252  41.810  14.358
 7253W        W72073  26.665  32.547   2.676
 7254W        W72074  12.805  30.885   1.313
 7255W        W72075  23.402   8.966  11.133
 7256W        W72076  42.901  33.884  13.896
 7257W        W72077  19.243  21.108  13.992
 7258W        W72078   9.697  17.936   4.558
 7259W        W72079  12.238  14.036   2.818
 7260W        W72080  31.666  11.225   2.599
 7261W        W72081  13.411  30.195  13.980
 7262W        W72082  38.384  40.569  13.962
 7263W        W72083  19.103   8.914   2.610
 7264W        W72084  17.250  22.523   1.423
 7265W        W72085  38.809  40.952   4.347
 7266W        W72086  22.658   1.973   2.293
 7267W        W72087  10.277   8.175  13.667
 7268W        W72088  24.920  35.996   5.484
 7269W        W72089   0.994   7.778   3.907
 7270W        W72090   5.263  13.674   0.811
 7271W        W72091   1.383  35.616   3.008
 7272W        W72092  43.372  16.106   4.558
 7273W        W72093   7.778  13.839   3.829
 7274W        W72094  11.854  11.132  11.038
 7275W        W72095   1.229  44.426   2.764
 7276W        W72096   6.590  12.647   2.414
 7277W        W72097  21.897  13.773   9.729
 7278W        W72098   5.604   1.900  14.439
 7279W        W72099  37.914  35.834   3.534
 7280W        W72100  35.504   3.712   0.738
 7281W        W72101  29.809   7.256  13.399
 7282W        W72102  43.316  13.380  11.552
 7283W        W72103  12.591  39.872  11.626
 7284W        W72104  30.844  44.365  14.739
 7285W        W72105  40.913  44.854  10.939
 7286W        W72106   8.435  30.988   0.317
 7287W        W72107   8.259  17.692   1.049
 7288W        W72108  10.459   7.748   0.033
 7289W        W72109  30.745  28.551  13.566
 7290W        W72110  34.491  21.250  12.892
 7291W        W72111  34.776  42.469  13.167
 7292W        W72112   4.604  34.663   1.254
 7293W        W72113  42.949   4.353  11.104
 7294W        W72114  26.981   9.556   1.343
 7295W        W72115  26.161  20.847  13.636
 7296W        W72116  22.802   7.478  14.965
 7297W        W72117  11.765  13.190   3.041
 7298W        W72118  42.401  32.707   3.447
 7299W        W72119  19.083  44.336   1.634
 7300W        W72120  14.004  19.818   4.573
 7301W        W72121  35.010  37.476   2.738
 7302W        W72122   2.091  12.809   5.079
 7303W        W72123  23.011   1.466   1.311
 7304W        W72124  24.163  44.299   0.087
 7305W        W72125  18.068   2.890  11.389
 7306W        W72126  42.138  25.279   5.028
 7307W        W72127   5.875  38.323  14.058
 7308W        W72128  28.987  19.553  10.922
 7309W        W72129  21.704   4.770   4.282
 7310W        W72130  42.429  33.928   2.711
 7311W        W72131  10.125   3.395   4.872
 7312W        W72132  36.795  17.180   9.939
 7313W        W72133  24.299   6.794   3.648
 7314W        W72134  17.525  25.006  13.859
 7315W        W72135  19.794  40.291   0.298
 7316W        W72136  27.851   9.167  11.590
 7317W        W72137  37.279  43.347  13.837
 7318W        W72138  13.585  44.312   3.367
 7319W        W72139  15.789  23.204   0.770
 7320W        W72140  12.760  27.192  11.499
 7321W        W72141  20.552  12.971   2.577
 7322W        W72142  34.600   0.856   4.386
 7323W        W72143   5.229  27.380  14.905
 7324W        W72144  37.443  36.615   3.616
 7325W        W72145  19.127  25.434   0.839
 7326W        W72146  29.419  24.565   0.849
 7327W        W72147  10.061  23.985   0.770
 7328W        W72148  16.809   1.839   3.235
 7329W        W72149  13.580  12.780  11.071
 7330W        W72150   2.428   3.880  11.663
 7331W        W72151  34.587   2.733   3.761
 7332W        W72152  23.951  25.591  11.980
 7333W        W72153  29.062  28.302   4.224
 7334W        W72154  29.481  13.618  12.597
 7335W        W72155   8.612  15.847  13.909
 7336W        W72156   8.967  26.651   2.494
 7337W        W72157   6.633  24.536   2.973
 7338W        W72158   5.147  39.807  12.459
 7339W        W72159  10.896   0.379  13.522
 7340W        W72160  41.653   9.472   1.210
 7341W        W72161  21.332  24.680   1.787
 7342W        W72162  17.481  35.605   1.217
 7343W        W72163  29.641  33.696   3.587
 7344W        W72164  20.079  23.593   0.706
 7345W        W72165   5.345  24.241   1.955
 7346W        W72166   0.366   0.766   4.059
 7347W        W72167  28.281  38.000  11.988
 7348W        W72168  34.072  28.514   9.726
 7349W        W72169  10.115  34.938  13.478
 7350W        W72170  39.349  27.811  13.391
 7351W        W72171  40.450   7.208   1.164
 7352W        W72172   1.878  31.897  12.131
 7353W        W72173  32.486   0.492  14.402
 7354W        W72174  40.232  35.560   0.754
 7355W        W72175   5.918  25.298  13.549
 7356W        W72176  29.480   3.877  10.739
 7357W        W72177   0.798  40.546  13.582
 7358W        W72178  28.656  31.716  13.959
 7359W        W72179  15.772   1.253  12.430
 7360W        W72180  30.511   7.203  12.379
 7361W        W72181  24.033  18.764  14.816
 7362W        W72182  15.760  42.090   3.629
 7363W        W72183   2.828  19.222   0.720
 7364W        W72184  24.086   1.830  13.125
 7365W        W72185  22.620   3.897   4.561
 7366W        W72186  43.866  39.928  14.973
 7367W        W72187  29.667  21.949   1.857
 7368W        W72188  32.521  44.253   0.743
 7369W        W72189  42.559   8.343  13.008
 7370W        W72190  24.476  20.042  14.464
 7371W        W72191  13.026  29.064  11.437
 7372W        W72192  21.619  40.873  12.587
 7373W        W72193   0.237  15.632   2.937
 7374W        W72194   2.530  21.731   2.138
 7375W        W72195  35.670  27.053   0.959
 7376W        W72196  22.665  34.452   2.202
 7377W        W72197  32.799  41.265  14.130
 7378W        W72198  32.527  31.681   3.428
 7379W        W72199  44.549   7.247  14.249
 7380W        W72200  28.954   0.925  12.924
 7381W        W72201   1.659  25.476   1.525
 7382W        W72202  23.942   6.202  10.591
 7383W        W72203   9.883   5.158   2.324
 7384W        W72204  16.272   9.060   3.072
 7385W        W72205  37.392  40.736  12.520
 7386W        W72206  28.087  29.110   4.360
 7387W        W72207  29.647   7.489  11.940
 7388W        W72208  14.068  43.056  10.767
 7389W        W72209   1.861  20.527   1.373
 7390W        W72210  29.668  43.470   1.160
 7391W        W72211   7.768  40.418   1.942
 7392W        W72212  19.731  11.777  14.035
 7393W        W72213  18.050  22.396  11.904
 7394W        W72214  39.927  39.059   0.216
 7395W        W72215  23.270  26.651   1.811
 7396W        W72216  44.901  15.055   4.755
 7397W        W72217   3.474   2.463  10.398
 7398W        W72218  11.677  33.455  11.567
 7399W        W72219  36.974  18.545   4.117
 7400W        W72220  10.871  17.648   3.229
 7401W        W72221  30.788  24.256   9.956
 7402W        W72222  30.130   3.223  11.351
 7403W        W72223  10.486  29.863  12.129
 7404W        W72224  14.242  43.047   2.718
 7405W        W72225  22.309   1.576  13.029
 7406W        W72226  33.272  23.751  14.766
 7407W        W72227  24.441  14.659  13.443
 7408W        W72228  43.832   6.554  13.338
 7409W        W72229   8.672   0.335  13.804
 7410W        W72230  13.146   5.671   2.383
 7411W        W72231  24.291   4.490   0.720
 7412W        W72232  10.755  12.604  14.501
 7413W        W72233  26.429   8.073   0.667
 7414W        W72234   1.446  16.591   2.810
 7415W        W72235  21.834   4.210   1.272
 7416W        W72236  16.723  29.213   5.107
 7417W        W72237  41.008   4.941  10.767
 7418W        W72238  37.194  20.267  13.537
 7419W        W72239   7.914  32.686  13.493
 7420W        W72240   8.696  12.211  10.756
 7421W        W72241  37.578  34.661  10.504
 7422W        W72242   0.575  17.050  12.480
 7423W        W72243  42.788  35.676  12.961
 7424W        W72244  39.719  42.775  12.920
 7425W        W72245  29.850  37.596   2.648
 7426W        W72246  42.360   0.743   4.575
 7427W        W72247  23.778   0.766   1.079
 7428W        W72248  10.918   9.865  10.620
 7429W        W72249   2.182  10.678   4.774
 7430W        W72250   9.942  28.834  13.923
 7431W        W72251  24.130   8.792   3.018
 7432W        W72252  38.789  35.348   3.541
 7433W        W72253  19.510  17.660  12.902
 7434W        W72254  30.640   6.714   3.638
 7435W        W72255  21.428  10.067   2.989
 7436W        W72256  41.505  10.323   2.347
 7437W        W72257   6.496  21.589   1.731
 7438W        W72258  43.761   2.061  11.105
 7439W        W72259  17.671  33.276   1.793
 7440W        W72260   5.700  28.576   9.789
 7441W        W72261  31.695  26.536  14.394
 7442W        W72262  12.120   2.342  14.399
 7443W        W72263  15.284  14.568   4.367
 7444W        W72264  23.930  32.882  12.472
 7445W        W72265   7.965   3.649   1.530
 7446W        W72266  26.726  41.821  14.315
 7447W        W72267  14.227  25.737  14.721
 7448W        W72268  31.731  20.222  12.247
 7449W        W72269  17.801   8.075  11.668
 7450W        W72270  11.343  10.155  10.540
 7451W        W72271  24.973  38.555  12.058
 7452W        W72272  17.076   6.984  14.438
 7453W        W72273  13.678  27.290   3.166
 7454W        W72274  22.169  31.904   0.320
 7455W        W72275  32.955   1.967   4.409
 7456W        W72276  44.851   8.640  11.723
 7457W        W72277   4.501  10.369   1.949
 7458W        W72278   1.939   0.344   0.213
 7459W        W72279  44.281  14.322   4.906
 7460W        W72280  17.541  30.579  11.086
 7461W        W72281   7.416  31.215   3.114
 7462W        W72282  25.584  43.012  14.869
 7463W        W72283   1.034  35.644  11.103
 7464W        W72284   3.799  21.123   1.199
 7465W        W72285  10.218  25.467   4.645
 7466W        W72286  28.562  19.222   3.110
 7467W        W72287  30.432  16.899   1.250
 7468W        W72288  25.578  19.307  12.971
 7469W        W72289   2.429   4.783   2.357
 7470W        W72290  42.920  40.802  12.476
 7471W        W72291  24.008  17.022   2.402
 7472W        W72292  27.396  21.205   0.307
 7473W        W72293  26.960  34.072  13.508
 7474W        W72294  27.291  39.947   2.883
 7475W        W72295   4.256  38.771  11.454
 7476W        W72296  38.678  30.426  11.981
 7477W        W72297  11.313  16.536   2.379
 7478W        W72298  30.171  28.710   0.444
 7479W        W72299  40.325   9.812   0.694
 7480W        W72300   0.487   9.889   2.168
 7481W        W72301  21.826  35.897   4.205
 7482W        W72302  33.529  26.349  14.859
 7483W        W72303  31.514  31.093  13.526
 7484W        W72304  38.040  16.217   0.807
 7485W        W72305  27.965  36.628   4.973
 7486W        W72306  42.558  36.104   9.901
 7487W        W72307   7.277  15.010  11.604
 7488W        W72308  33.594  36.227  12.469
 7489W        W72309  19.210  26.248  14.063
 7490W        W72310   9.861  27.946  12.906
 7491W        W72311  18.397  19.685   0.049
 7492W        W72312  19.209  40.288  13.342
 7493W        W72313  23.644   2.491  11.336
 7494W        W72314  32.230   6.165   2.681
 7495W        W72315  16.247  21.760  14.834
 7496W        W72316  14.266  33.631  12.381
 7497W        W72317   9.898  31.467  12.638
 7498W        W72318  40.956   0.145  13.054
 7499W        W72319   4.196  16.390  14.932
 7500W        W72320  14.364  39.009  13.785
 7501W        W72321  30.284  44.189   4.089
 7502W        W72322   0.698  25.154   2.354
 7503W        W72323   7.376  11.680   2.278
 7504W        W72324  29.198  10.298   2.809
 7505W        W72325   2.298  11.907  10.855
 7506W        W72326  42.100  29.491  14.881
 7507W        W72327   9.808   2.342  12.515
 7508W        W72328  19.690   7.544   0.677
 7509W        W72329   8.916  25.791   3.437
 7510W        W72330   9.605  37.875   0.377
 7511W        W72331  20.420   0.045   3.682
 7512W        W72332  42.494  14.881  13.008
 7513W        W72333  34.909  36.520   4.322
 7514W        W72334  11.086   0.517   2.305
 7515W        W72335  24.953  30.909   3.061
 7516W        W72336  43.808  34.098  14.345
 7517W        W72337   1.179  24.718   1.568
 7518W        W72338  26.737  28.199   1.322
 7519W        W72339  42.597  27.190   2.314
 7520W        W72340  40.314  15.147  12.945
 7521W        W72341   6.645  13.242   3.543
 7522W        W72342  16.556  44.876   4.775
 7523W        W72343  30.456   8.235  11.497
 7524W        W72344  21.715   4.318   4.038
 7525W        W72345  10.396  14.101   4.720
 7526W        W72346  33.913  13.245  10.639
 7527W        W72347   6.696   7.235   4.430
 7528W        W72348  43.937  22.313  14.689
 7529W        W72349  26.735  21.762   2.621
 7530W        W72350  14.593  26.242  14.902
 7531W        W72351  28.429  24.099   1.906
 7532W        W72352  11.930   0.085  11.106
 7533W        W72353   7.687   2.775   0.786
 7534W        W72354  38.107  25.768   1.218
 7535W        W72355   9.327  30.415   4.570
 7536W        W72356  18.433   9.061   9.838
 7537W        W72357  21.932  19.182   2.405
 7538W        W72358  36.879  19.993  13.845
 7539W        W72359  27.896  25.250  12.591
 7540W        W72360  14.402  34.566  13.114
 7541W        W72361  22.502   1.284  12.639
 7542W        W72362   6.353  24.054  11.980
 7543W        W72363  29.641  37.420   1.427
 7544W        W72364  30.038  33.936   0.042
 7545W        W72365  22.504   2.972   3.493
 7546W        W72366  38.028   8.249   1.814
 7547W        W72367  28.941  16.604   0.466
 7548W        W72368  11.419   5.134  13.337
 7549W        W72369  18.051  19.731   0.450
 7550W        W72370  18.665  10.178  13.057
 7551W        W72371  39.212  19.633  14.398
 7552W        W72372  39.097  24.523   1.416
 7553W        W72373   3.188  15.736  11.076
 7554W        W72374  14.266  16.968   9.709
 7555W        W72375   8.777  40.936   4.432
 7556W        W72376  35.076   0.913  14.734
 7557W        W72377   8.653  33.625  11.419
 7558W        W72378  40.373  29.260   1.328
 7559W        W72379  32.428  33.498   0.952
 7560W        W72380  18.340  11.909   2.676
 7561W        W72381  14.809  10.693   1.390
 7562W        W72382  18.765   7.758   3.160
 7563W        W72383  20.658   7.731  11.539
 7564W        W72384  28.756   9.392   3.039
 7565W        W72385  12.810  10.187  14.976
 7566W        W72386  29.948   5.518  11.682
 7567W        W72387  13.438  26.480  14.375
 7568W        W72388  30.530  16.037  11.899
 7569W        W72389  11.897  24.917  12.958
 7570W        W72390   4.297  24.920  12.836
 7571W        W72391  28.879  11.342  10.706
 7572W        W72392   3.255  19.801  12.017
 7573W        W72393   6.625  28.256   2.639
 7574W        W72394  40.592  20.535  14.884
 7575W        W72395  44.418  38.011  11.110
 7576W        W72396  19.667  39.109  11.946
 7577W        W72397  10.615  15.264   3.095
 7578W        W72398   8.853  11.737   3.133
 7579W        W72399  16.654  29.588  11.682
 7580W        W72400  18.697   1.575   0.244
 7581W        W72401  29.529   5.955  13.605
 7582W        W72402  27.051  31.557   2.835
 7583W        W72403  32.119  42.242  14.204
 7584W        W72404  21.062  36.076  10.536
 7585W        W72405  36.385  28.540   3.175
 7586W        W72406  12.877  39.602   3.180
 7587W        W72407  16.713  37.127  14.251
 7588W        W72408  40.279   1.270   3.099
 7589W        W72409  30.151  43.317   1.511
 7590W        W72410  22.653  38.231   4.070
 7591W        W72411  17.482  24.547  11.617
 7592W        W72412  19.093  33.399  10.460
 7593W        W72413  21.286  34.182   0.322
 7594W        W72414  10.540  40.489  13.858
 7595W        W72415  13.748  42.928   1.853
 7596W        W72416  38.034  22.686  10.215
 7597W        W72417  17.293  14.740  13.522
 7598W        W72418  34.982  22.031   0.860
 7599W        W72419  37.348  34.991   0.851
 7600W        W72420  14.555  28.953   0.755
 7601W        W72421  20.884  14.590   4.428
 7602W        W72422  34.401  30.895   0.306
 7603W        W72423   6.264  31.632   3.856
 7604W        W72424  44.162   2.060  12.050
 7605W        W72425   5.442  21.495  13.288
 7606W        W72426  19.672  19.733  12.540
 7607W        W72427  26.735  11.773   1.730
 7608W        W72428  21.098  10.974   5.048
 7609W        W72429  26.793   4.311  14.294
 7610W        W72430  39.894   8.546   2.364
 7611W        W72431   3.225  10.229  13.908
 7612W        W72432  38.857  20.623   0.727
 7613W        W72433  18.315  13.117  14.527
 7614W        W72434  44.393  26.425  11.219
 7615W        W72435  31.037  17.023   0.178
 7616W        W72436   1.077  12.851   0.422
 7617W        W72437  13.205   3.767   1.247
 7618W        W72438  26.159  17.197  11.079
 7619W        W72439  37.030  22.492   4.763
 7620W        W72440   1.881  12.090  11.107
 7621W        W72441   5.933  38.082   0.327
 7622W        W72442  33.887  31.590  10.749
 7623W        W72443  12.850  42.143  14.253
 7624W        W72444   1.177   3.566  11.832
 7625W        W72445  11.390   1.842   1.468
 7626W        W72446   4.307  23.780   3.572
 7627W        W72447  21.947  40.887   1.313
 7628W        W72448  18.675   7.759  11.561
 7629W        W72449   0.480  36.525   0.700
 7630W        W72450  27.835  25.880   4.132
 7631W        W72451   6.944  11.583   1.352
 7632W        W72452   2.384  28.458   1.214
 7633W        W72453  11.617  20.863  12.425
 7634W        W72454  21.760   3.191  13.348
 7635W        W72455  24.044  14.359  12.572
 7636W        W72456  24.027   5.266  14.831
 7637W        W72457  44.813   7.247   0.049
 7638W        W72458  30.471   8.961   3.132
 7639W        W72459   1.336  43.448  10.688
 7640W        W72460  37.491  28.311  10.546
 7641W        W72461   6.430  20.649   0.718
 7642W        W72462   4.847  32.559  14.955
 7643W        W72463   1.812  41.245  11.920
 7644W        W72464  41.673   0.706  11.218
 7645W        W72465  33.905  35.815   1.334
 7646W        W72466  15.649  28.386  13.222
 7647W        W72467  30.133  15.346   4.286
 7648W        W72468   8.455  21.289  11.198
 7649W        W72469  42.587   3.131  12.093
 7650W        W72470  26.956  27.135   0.848
 7651W        W72471  37.567  35.162   1.299
 7652W        W72472  25.464  13.740  14.633
 7653W        W72473  25.555  25.329  11.719
 7654W        W72474   7.809  44.116   2.577
 7655W        W72475   5.201  21.037  11.581
 7656W        W72476  26.673  36.478   0.553
 7657W        W72477  28.645   9.300   1.585
 7658W        W72478  22.514  20.985   3.094
 7659W        W72479  18.238  22.205   0.375
 7660W        W72480  21.695  26.954   1.410
 7661W        W72481  20.697  30.047  11.558
 7662W        W72482  33.501  32.137   4.396
 7663W        W72483  29.963  42.127   1.712
 7664W        W72484  40.052   6.262   4.843
 7665W        W72485  27.169  18.645  12.138
 7666W        W72486  43.363   2.432   0.002
 7667W        W72487   8.893  36.970  13.066
 7668W        W72488  14.415  23.126   1.261
 7669W        W72489   8.144  14.300   0.759
 7670W        W72490  14.276  36.841   0.582
 7671W        W72491   1.774  24.944  11.207
 7672W        W72492   4.895   0.734   4.576
 7673W        W72493  35.817  11.473  14.547
 7674W        W72494  43.571  19.692   4.644
 7675W        W72495  34.996  23.690  12.120
 7676W        W72496  31.474  16.066  11.622
 7677W        W72497  41.838  35.442   1.520
 7678W        W72498  15.318  20.303  10.792
 7679W        W72499   4.332  19.520   1.769
 7680W        W72500  34.923  21.296  13.974
 7681W        W72501  28.584   1.658  12.452
 7682W        W72502   8.676  32.353   1.351
 7683W        W72503  12.256  37.532  12.932
 7684W        W72504  40.979  18.262   0.727
 7685W        W72505  16.161  27.374   4.704
 7686W        W72506  34.934  37.562  14.071
 7687W        W72507  13.590  13.986  11.146
 7688W        W72508  27.141  21.718  14.658
 7689W        W72509  24.643  28.398  12.492
 7690W        W72510  35.137  39.288  11.633
 7691W        W72511   3.876   4.650   0.377
 7692W        W72512  22.738  31.683   3.183
 7693W        W72513  26.033  38.063  14.057
 7694W        W72514  44.002  24.720   2.275
 7695W        W72515   3.890  38.238  10.375
 7696W        W72516  23.814  36.608   3.702
 7697W        W72517  26.037  28.460  14.398
 7698W        W72518  22.095  12.925  10.948
 7699W        W72519  28.015  21.348   1.804
 7700W        W72520  32.196   6.744  11.624
 7701W        W72521  43.260  41.019  10.325
 7702W        W72522  36.047  44.416   4.844
 7703W        W72523  12.646   2.647  13.645
 7704W        W72524  20.818  13.571  10.743
 7705W        W72525  40.306   7.477   1.618
 7706W        W72526  10.856  20.065   0.432
 7707W        W72527   7.267  43.869   1.303
 7708W        W72528  25.082   0.868  13.070
 7709W        W72529  36.867  22.706   1.906
 7710W        W72530  33.529  23.287   3.428
 7711W        W72531  42.005  41.952   1.665
 7712W        W72532  25.727  16.096   3.363
 7713W        W72533   8.141  33.919  13.865
 7714W        W72534  12.828  35.495   4.113
 7715W        W72535  25.655   5.717   0.491
 7716W        W72536  21.377  11.381  12.422
 7717W        W72537  30.353  15.728   3.325
 7718W        W72538   9.338   8.311   1.491
 7719W        W72539  38.915  23.203  12.087
 7720W        W72540  38.380  32.657  13.203
 7721W        W72541   6.422   3.807   0.258
 7722W        W72542  18.069  12.367   0.563
 7723W        W72543  41.476   2.451  13.177
 7724W        W72544  42.017  27.205  10.781
 7725W        W72545  29.849  32.205   4.118
 7726W        W72546  10.588  15.686   2.347
 7727W        W72547  37.121  40.476  13.299
 7728W        W72548  26.558  18.866  12.945
 7729W        W72549  21.816  39.018   2.397
 7730W        W72550  40.339  32.024   1.691
 7731W        W72551  32.448  14.734  12.506
 7732W        W72552   6.882  17.753   1.761
 7733W        W72553  32.907  37.056   4.276
 7734W        W72554  10.577  16.689   1.387
 7735W        W72555  16.883  39.224   1.882
 7736W        W72556  10.369  14.120   3.821
 7737W        W72557   3.783  36.052   1.731
 7738W        W72558   1.458  30.999   3.584
 7739W        W72559  19.600   7.897   1.426
 7740W        W72560  40.797  21.016   2.257
 7741W        W72561  44.352   5.430  13.096
 7742W        W72562   6.757  33.010  13.420
 7743W        W72563  32.886  21.148  13.983
 7744W        W72564  19.660   2.450   1.298
 7745W        W72565  42.361  16.790   1.018
 7746W        W72566  24.144   5.809   2.985
 7747W        W72567  12.695  30.455  14.561
 7748W        W72568  33.522   0.975  11.590
 7749W        W72569   9.937  31.400   0.690
 7750W        W72570   0.436  14.847   2.359
 7751W        W72571  22.111  33.434   1.961
 7752W        W72572  40.466  13.319  10.346
 7753W        W72573  36.156  16.861  14.718
 7754W        W72574  23.505  31.546   2.117
 7755W        W72575  35.701  42.877   0.948
 7756W        W72576  37.560   6.141   1.971
 7757W        W72577  36.544  36.509  12.085
 7758W        W72578   7.202  12.693   4.141
 7759W        W72579  24.411  34.003   2.740
 7760W        W72580   0.630  26.968  12.526
 7761W        W72581  41.879  21.004  13.929
 7762W        W72582  37.800   6.570   4.736
 7763W        W72583  14.733  19.157   0.454
 7764W        W72584  15.290  29.479  11.573
 7765W        W72585  40.518  22.843  14.316
 7766W        W72586  42.745   7.667  11.189
 7767W        W72587  31.069  36.199   4.136
 7768W        W72588   6.175  11.294  10.336
 7769W        W72589   6.619  40.959   4.125
 7770W        W72590  21.029  33.264  12.649
 7771W        W72591  37.861  20.282  11.736
 7772W        W72592  44.602   9.289   1.051
 7773W        W72593   4.679  29.996  11.671
 7774W        W72594  24.509  40.424   0.710
 7775W        W72595   9.710   6.886   4.620
 7776W        W72596  30.211  30.069   2.380
 7777W        W72597  39.344   6.803  13.122
 7778W        W72598   6.819  20.664   3.551
 7779W        W72599  34.415  17.603   5.211
 7780W        W72600  24.156  28.709   1.167
 7781W        W72601  39.891  33.102   2.804
 7782W        W72602  29.951  38.988   1.960
 7783W        W72603  11.710  36.858   0.463
 7784W        W72604  36.169   5.760  11.938
 7785W        W72605  11.880  17.220  14.820
 7786W        W72606  20.731  21.482  11.959
 7787W        W72607  19.994   2.058  10.157
 7788W        W72608  40.578   8.398   2.452
 7789W        W72609   7.941  18.605   1.202
 7790W        W72610  21.969  23.305  11.921
 7791W        W72611  15.149  26.430   3.225
 7792W        W72612   6.286   8.793   0.453
 7793W        W72613  35.750  18.599  12.517
 7794W        W72614  18.194   0.214  12.160
 7795W        W72615  24.914  22.396  11.446
 7796W        W72616  38.469  13.838   1.764
 7797W        W72617  15.808  44.922   2.772
 7798W        W72618  38.116  36.375  12.124
 7799W        W72619  18.070   9.411  12.572
 7800W        W72620  28.065  30.665  13.334
 7801W        W72621  34.029  10.333   2.393
 7802W        W72622  33.074  40.865  13.375
 7803W        W72623  20.823   6.430  11.004
 7804W        W72624  26.110  40.334  12.463
 7805W        W72625   0.438  12.138   0.847
 7806W        W72626  44.095  21.124  14.680
 7807W        W72627   8.203  36.508   1.318
 7808W        W72628  32.277   3.252  14.527
 7809W        W72629  21.540  25.093   0.904
 7810W        W72630  26.506  15.214   0.877
 7811W        W72631  19.808  39.914  12.498
 7812W        W72632  39.825  33.910   0.991
 7813W        W72633  34.149  19.895  11.949
 7814W        W72634   2.417  13.935  14.562
 7815W        W72635  27.666  31.962  11.718
 7816W        W72636   6.780  40.016   3.522
 7817W        W72637  24.232  41.905  11.404
 7818W        W72638  30.029  21.610   1.131
 7819W        W72639  12.778   4.334  14.074
 7820W        W72640  32.030   0.723  14.539
 7821W        W72641  31.436   2.693   1.244
 7822W        W72642  24.070  11.073  14.888
 7823W        W72643  41.819  22.035  11.068
 7824W        W72644  12.755  33.879   3.115
 7825W        W72645  43.670  40.531   0.729
 7826W        W72646  28.705   8.665  11.015
 7827W        W72647  34.118  12.150  11.959
 7828W        W72648   9.082   0.770  11.599
 7829W        W72649   1.358  15.398   0.820
 7830W        W72650  39.668   3.249  12.934
 7831W        W72651  30.154  42.247   4.041
 7832W        W72652  27.466  31.876   4.984
 7833W        W72653   5.935   9.221   0.715
 7834W        W72654  38.452  42.019   3.714
 7835W        W72655   0.411  17.703  10.694
 7836W        W72656   3.623   3.326   2.227
 7837W        W72657  43.139   9.269   1.630
 7838W        W72658   5.930   7.610   4.122
 7839W        W72659  19.608  36.402   1.825
 7840W        W72660   7.371   2.330  14.835
 7841W        W72661  33.981  36.038   4.454
 7842W        W72662  30.936  37.082   9.790
 7843W        W72663  11.371  10.405   2.640
 7844W        W72664  44.759  20.445   2.244
 7845W        W72665  10.632  13.527   4.121
 7846W        W72666   8.301  25.918   4.589
 7847W        W72667   6.203   5.797  12.909
 7848W        W72668  33.489  18.256   2.886
 7849W        W72669  23.515  26.635  12.826
 7850W        W72670  28.138  21.657  12.576
 7851W        W72671  41.234   6.112  14.787
 7852W        W72672   5.198  21.600   2.248
 7853W        W72673   2.195  20.409  11.166
 7854W        W72674  41.311  44.766  13.352
 7855W        W72675  32.193  44.960   2.786
 7856W        W72676  11.756  15.427   2.626
 7857W        W72677  23.109   3.820   4.110
 7858W        W72678  26.631  32.551   1.655
 7859W        W72679  19.546   4.979  12.379
 7860W        W72680  31.754   2.715   2.769
 7861W        W72681  43.756   6.465   0.220
 7862W        W72682  18.137  42.963   3.306
 7863W        W72683  10.868  40.281  11.718
 7864W        W72684  30.139  13.441   3.379
 7865W        W72685  18.446   8.863  14.306
 7866W        W72686  14.827  11.384   3.099
 7867W        W72687  44.671  40.475   3.754
 7868W        W72688  37.520   7.926  14.406
 7869W        W72689   8.368  42.720  11.284
 7870W        W72690  19.256  33.840  11.631
 7871W        W72691  43.868  38.644   0.308
 7872W        W72692  39.471   1.310  12.125
 7873W        W72693  17.306  16.883  14.082
 7874W        W72694  26.255  32.189   2.389
 7875W        W72695  39.564  36.332  12.498
 7876W        W72696   7.230  30.129  11.543
 7877W        W72697  26.323  14.172   3.420
 7878W        W72698  18.997  21.455  11.544
 7879W        W72699  25.015  25.665  13.604
 7880W        W72700  23.905  34.616   3.262
 7881W        W72701  24.266   9.370  10.738
 7882W        W72702  27.641  20.802   5.128
 7883W        W72703   1.950  31.392  11.983
 7884W        W72704  32.141  32.156   2.623
 7885W        W72705  14.757  44.061  14.881
 7886W        W72706   9.114  21.023  13.763
 7887W        W72707  20.072  36.889  13.882
 7888W        W72708  22.556  14.073  13.475
 7889W        W72709  38.348  32.849   4.856
 7890W        W72710  34.092  36.909  10.766
 7891W        W72711  16.989   9.907  10.876
 7892W        W72712  16.199  41.025  12.010
 7893W        W72713   6.265  23.571   1.488
 7894W        W72714  13.615  38.406   1.717
 7895W        W72715   6.336  29.615   2.917
 7896W        W72716  11.733  44.300   2.445
 7897W        W72717  15.282  40.354   1.019
 7898W        W72718  12.079  39.163   1.883
 7899W        W72719  42.591  26.172  14.774
 7900W        W72720  29.369   8.145  11.332
 7901W        W72721  41.443  23.513  13.508
 7902W        W72722  18.476  29.879  12.011
 7903W        W72723  39.232  31.239  11.618
 7904W        W72724  10.075  26.821   1.394
 7905W        W72725  19.775  32.685   4.401
 7906W        W72726  38.433  42.791  11.157
 7907W        W72727  43.047  12.236  13.474
 7908W        W72728  43.543  32.115   0.793
 7909W        W72729  24.403  39.370  10.889
 7910W        W72730  10.873  23.690   3.345
 7911W        W72731  41.938  44.495   4.279
 7912W        W72732  29.713  19.117  10.854
 7913W        W72733  11.744  14.910   2.667
 7914W        W72734  28.182  40.327  14.921
 7915W        W72735  26.860  41.851   1.507
 7916W        W72736  14.058  10.855   1.957
 7917W        W72737  20.643  35.896  12.656
 7918W        W72738  21.467  26.072   3.800
 7919W        W72739   9.212   7.151  14.407
 7920W        W72740  35.324   9.536  10.655
 7921W        W72741  38.913  32.855   0.473
 7922W        W72742  39.027   9.240   1.864
 7923W        W72743   4.842  43.014   1.308
 7924W        W72744   1.516   0.958  12.876
 7925W        W72745  36.768  12.410   2.373
 7926W        W72746  17.673  35.475   1.670
 7927W        W72747  26.054  12.721   3.739
 7928W        W72748  21.455  31.484   2.375
 7929W        W72749   9.803  21.020  11.628
 7930W        W72750  10.930  17.524   0.445
 7931W        W72751  43.916  12.135  10.962
 7932W        W72752  35.895  18.482   0.259
 7933W        W72753  39.483  19.821   0.373
 7934W        W72754  12.661   8.494   4.330
 7935W        W72755   0.216   2.373   4.081
 7936W        W72756  16.601  27.216   2.087
 7937W        W72757  10.797  12.088   0.927
 7938W        W72758  14.564  16.618  12.491
 7939W        W72759  20.058  24.789   2.571
 7940W        W72760   2.255  42.948   2.400
 7941W        W72761  24.951  27.501   4.341
 7942W        W72762  24.027  25.624   1.352
 7943W        W72763  27.928  26.513   0.339
 7944W        W72764  29.209  42.550   2.699
 7945W        W72765  16.105   6.211  13.305
 7946W        W72766  24.272  31.533  12.487
 7947W        W72767  30.485  30.400   1.758
 7948W        W72768  33.472  26.678   4.565
 7949W        W72769  37.329  21.175  11.664
 7950W        W72770  33.848  42.681   2.654
 7951W        W72771  29.899   6.106  11.750
 7952W        W72772  44.539  31.283   1.608
 7953W        W72773  23.475  34.423   1.819
 7954W        W72774  13.326  37.927  11.629
 7955W        W72775  23.631   5.233   1.033
 7956W        W72776  35.631  43.893   3.140
 7957W        W72777  40.018  16.705  13.902
 7958W        W72778  14.063   6.795   0.758
 7959W        W72779  21.726  29.356   4.672
 7960W        W72780   5.078  12.777   0.400
 7961W        W72781  29.500  43.552  14.721
 7962W        W72782  33.015  44.042   1.467
 7963W        W72783  28.691   6.809  10.608
 7964W        W72784  23.995  30.533   3.471
 7965W        W72785   4.171  11.159   2.377
 7966W        W72786  31.646   5.849  13.531
 7967W        W72787  19.217  12.323  12.049
 7968W        W72788   0.173  31.839   3.354
 7969W        W72789  17.570   7.234   1.198
 7970W        W72790  37.673  34.547   1.822
 7971W        W72791  38.181  14.870  13.774
 7972W        W72792  39.026   9.644  14.022
 7973W        W72793  24.083  40.181  14.959
 7974W        W72794  43.929   4.399   0.256
 7975W        W72795  33.707  43.881   4.114
 7976W        W72796  44.883  27.642   3.300
 7977W        W72797  35.824  42.499  11.920
 7978W        W72798  38.060  33.500  13.847
 7979W        W72799  17.481   9.794   0.352
 7980W        W72800  39.722  16.826   4.175
 7981W        W72801  22.786  14.616  12.692
 7982W        W72802  31.746  39.653  12.176
 7983W        W72803  43.854   2.418  10.716
 7984W        W72804  20.300  31.615  13.401
 7985W        W72805  43.383   3.762  12.015
 7986W        W72806  18.527  33.821  12.035
 7987W        W72807  19.180   4.699  11.138
 7988W        W72808  13.778  27.109  12.935
 7989W        W72809  42.556  25.792  14.422
 7990W        W72810  20.792  10.902  10.348
 7991W        W72811   2.786  32.875  13.576
 7992W        W72812  21.503  40.420  11.220
 7993W        W72813  26.401  25.089   0.502
 7994W        W72814  16.584  25.186  13.827
 7995W        W72815  37.619   8.562   2.840
 7996W        W72816  39.053  27.968  12.015
 7997W        W72817  32.363  34.639   0.508
 7998W        W72818  28.326   2.785   2.411
 7999W        W72819   1.475  39.280   4.052
 8000W        W72820  10.785  12.109  13.523
 8001W        W72821  27.890  35.947   0.434
 8002W        W72822  31.518  25.288   4.488
 8003W        W72823  29.138   8.443  13.847
 8004W        W72824  10.235   9.663   3.813
 8005W        W72825  18.866   5.917   1.222
 8006W        W72826  38.442  24.738  13.043
 8007W        W72827  22.490  18.372   4.021
 8008W        W72828  14.681  34.689  11.897
 8009W        W72829   3.718   9.178  14.715
 8010W        W72830  31.433   0.300  11.126
 8011W        W72831  18.290  11.199   1.454
 8012W        W72832  19.681  29.440   0.873
 8013W        W72833   2.969  36.597  13.038
 8014W        W72834  17.448  15.605  13.933
 8015W        W72835  13.029   0.964   0.604
 8016W        W72836  12.350   9.363   1.185
 8017W        W72837  16.512  34.366   4.619
 8018W        W72838  10.829  31.680  11.122
 8019W        W72839   5.904  12.042   2.471
 8020W        W72840  17.156  28.453  10.889
 8021W        W72841  31.801  43.187   1.764
 8022W        W72842  40.944  33.883   0.827
 8023W        W72843  29.776  44.641   3.333
 8024W        W72844  13.694  21.243  13.262
 8025W        W72845   9.549  40.345  11.413
 8026W        W72846   5.520  42.586  12.004
 8027W        W72847  19.296  33.520  12.954
 8028W        W72848  28.702  12.175  12.037
 8029W        W72849  28.857   0.406   0.670
 8030W        W72850  25.633  18.767  12.072
 8031W        W72851  42.096  43.973  14.894
 8032W        W72852  34.456  27.062   0.311
 8033W        W72853  11.305  31.235  13.848
 8034W        W72854  33.328  24.162   1.500
 8035W        W72855  21.138   7.734  14.605
 8036W        W72856  27.958  25.205   3.408
 8037W        W72857  25.261  40.875  14.962
 8038W        W72858  28.775  19.624  13.829
 8039W        W72859  36.167  10.782  12.097
 8040W        W72860  15.508  22.479  13.539
 8041W        W72861  22.413  30.273   2.712
 8042W        W72862   9.327  22.220  11.626
 8043W        W72863  27.286  25.964  14.502
 8044W        W72864  13.231   9.347  10.604
 8045W        W72865   5.050  11.358  14.341
 8046W        W72866   2.244  27.879  13.932
 8047W        W72867  10.836  35.293  12.432
 8048W        W72868  34.495   9.716   2.482
 8049W        W72869  14.654  13.085   9.768
 8050W        W72870  37.039  41.672  10.692
 8051W        W72871  13.766  41.252   4.899
 8052W        W72872  10.160   7.648  11.595
 8053W        W72873  34.376   7.179   1.153
 8054W        W72874   3.622  33.449  14.270
 8055W        W72875  11.770  39.837  13.769
 8056W        W72876   2.359  28.710  14.935
 8057W        W72877   5.423  38.846  14.801
 8058W        W72878  15.107  37.895  11.821
 8059W        W72879  11.630  27.081  12.778
 8060W        W72880   4.949  23.595  12.797
 8061W        W72881  17.151   5.964  13.105
 8062W        W72882  22.566  19.167   4.163
 8063W        W72883   3.946  14.327  10.783
 8064W        W72884  40.330  30.138   4.473
 8065W        W72885  41.528   2.668   3.227
 8066W        W72886  43.239  38.087   4.718
 8067W        W72887   5.451   0.364   3.741
 8068W        W72888   2.114  28.125  11.182
 8069W        W72889  39.420  12.241   2.665
 8070W        W72890  36.346  44.617   0.027
 8071W        W72891   6.651   0.931   3.723
 8072W        W72892  11.455  44.901  11.124
 8073W        W72893  35.133  38.542   0.948
 8074W        W72894  40.401  37.617  11.963
 8075W        W72895  30.221   1.693  14.355
 8076W        W72896  27.008  12.230  14.765
 8077W        W72897  16.738   9.253  10.635
 8078W        W72898  36.857  39.919  11.099
 8079W        W72899  18.649  24.688   0.942
 8080W        W72900   9.396  22.880   2.267
 8081W        W72901  27.764  11.328  12.540
 8082W        W72902   5.361  44.466   1.172
 8083W        W72903  43.785  17.703  12.336
 8084W        W72904   2.850   2.326  14.813
 8085W        W72905  43.237   1.548  12.906
 8086W        W72906  22.655  14.337  14.016
 8087W        W72907   2.654  42.478  14.305
 8088W        W72908  40.730   3.698   4.154
 8089W        W72909  44.762   4.890   3.991
 8090W        W72910  28.992  21.799  11.131
 8091W        W72911  43.685  15.077  10.670
 8092W        W72912  40.572  27.303   0.108
 8093W        W72913  21.206  37.800  12.938
 8094W        W72914  12.328   0.036   4.115
 8095W        W72915   6.645  43.587   3.590
 8096W        W72916  42.869   0.073  13.050
 8097W        W72917   4.017  14.714   1.786
 8098W        W72918   4.924  29.680  13.867
 8099W        W72919  32.833  34.993   1.315
 8100W        W72920  43.002  13.459   4.165
 8101W        W72921  31.236  40.419  13.572
 8102W        W72922  33.131   8.589  14.430
 8103W        W72923  16.250  18.241   1.442
 8104W        W72924  25.305  30.447  11.201
 8105W        W72925  37.869   0.990   1.865
 8106W        W72926  30.935  12.346   2.233
 8107W        W72927  12.540   3.269  10.888
 8108W        W72928  33.311  44.878   1.122
 8109W        W72929   6.553   4.148   4.370
 8110W        W72930  40.415  43.803   4.757
 8111W        W72931  20.016  29.236   2.936
 8112W        W72932  30.398  13.333   1.410
 8113W        W72933   0.316  33.561   0.263
 8114W        W72934  33.878  34.995   1.274
 8115W        W72935  42.716  35.545  14.309
 8116W        W72936   2.249  17.063  12.058
 8117W        W72937  43.540  13.694  12.929
 8118W        W72938  31.333  34.891  13.886
 8119W        W72939  13.706  25.415   0.826
 8120W        W72940  27.338  31.206  13.915
 8121W        W72941   2.383   5.252  12.853
 8122W        W72942   0.857   9.548  12.089
 8123W        W72943  22.229  15.421   2.323
 8124W        W72944   1.718   7.297  12.792
 8125W        W72945  30.568  43.630  11.631
 8126W        W72946   6.926  11.337  12.455
 8127W        W72947  18.003  37.549   3.168
 8128W        W72948  39.346  28.250  12.437
 8129W        W72949  39.651  17.303  14.403
 8130W        W72950  15.731   0.281   3.245
 8131W        W72951  20.965  33.638  13.779
 8132W        W72952  21.843   4.220   2.202
 8133W        W72953  36.638  26.002  11.799
 8134W        W72954  39.408  31.920  14.961
 8135W        W72955  18.153  15.125  11.552
 8136W        W72956  33.816  28.044   9.656
 8137W        W72957  19.303  34.021   4.604
 8138W        W72958  27.486  31.621  14.469
 8139W        W72959  13.734  19.139  14.558
 8140W        W72960  42.351  24.173   4.641
 8141W        W72961  27.359  41.918  11.560
 8142W        W72962  11.315  22.323   4.807
 8143W        W72963   9.588  13.217  11.094
 8144W        W72964  43.942  34.681   1.004
 8145W        W72965   7.779  15.201   3.586
 8146W        W72966  13.603  10.623   1.902
 8147W        W72967  44.519  17.336  12.321
 8148W        W72968  27.406  27.358  13.713
 8149W        W72969  18.589  23.796  13.039
 8150W        W72970  36.039  13.278   1.874
 8151W        W72971   2.116  16.687   2.412
 8152W        W72972  22.052   0.931  13.533
 8153W        W72973  43.575  11.120  14.327
 8154W        W72974  27.385  17.677   1.778
 8155W        W72975  40.376  34.592  14.513
 8156W        W72976   5.857  35.306   3.687
 8157W        W72977  15.560  10.396  11.682
 8158W        W72978  33.218  44.872   1.691
 8159W        W72979  32.157  19.805   1.939
 8160W        W72980  29.720   6.440  13.635
 8161W        W72981   6.927   8.190  12.079
 8162W        W72982  44.367  41.999  14.437
 8163W        W72983  43.495   6.508  12.952
 8164W        W72984  37.455  15.687  11.543
 8165W        W72985  23.132  27.690  13.308
 8166W        W72986   9.852   1.654  11.289
 8167W        W72987  32.006   0.008  11.161
 8168W        W72988  44.814  29.528  13.575
 8169W        W72989   0.249   9.829   1.659
 8170W        W72990  25.020  10.873  12.656
 8171W        W72991   7.541  17.310  11.826
 8172W        W72992  25.570  18.258  12.863
 8173W        W72993  23.471  28.351   4.123
 8174W        W72994  15.110  21.114  11.160
 8175W        W72995  43.418  13.780  11.837
 8176W        W72996  22.518  24.916  13.194
 8177W        W72997   1.706  39.844   4.206
 8178W        W72998  30.203  18.575  12.002
 8179W        W72999  23.670  25.724  14.921
 8180W        W73000   5.267  27.532   2.429
 8181W        W73001   8.690  11.910   1.839
 8182W        W73002  25.011  30.197   1.863
 8183W        W73003  28.996  27.717  12.490
 8184W        W73004  12.384  12.060  11.954
 8185W        W73005  35.168  35.854  13.426
 8186W        W73006  25.672  34.716   0.185
 8187W        W73007  22.171  14.872  12.311
 8188W        W73008  12.171  43.250  10.495
 8189W        W73009  41.491  12.229   1.241
 8190W        W73010  38.440  20.192   2.642
 8191W        W73011   6.399  30.010   4.705
 8192W        W73012   7.445  35.535  13.451
 8193W        W73013   8.695   7.269   3.233
 8194W        W73014  24.560  43.750  12.962
 8195W        W73015  25.931  19.564  13.942
 8196W        W73016  32.969   0.303  14.324
 8197W        W73017  29.822   4.272  13.180
 8198W        W73018   9.361  31.666  11.488
 8199W        W73019  28.871  11.623  11.973
 8200W        W73020  11.388  41.223  11.955
 8201W        W73021  28.212  36.427   0.753
 8202W        W73022  16.105   3.934  10.794
 8203W        W73023  39.861   4.724  12.985
 8204W        W73024  34.736  26.988  12.183
 8205W        W73025  30.420  18.180  13.897
 8206W        W73026  43.217  14.739   2.716
 8207W        W73027   1.472  21.340   1.219
 8208W        W73028  38.994  31.860   3.254
 8209W        W73029  22.217   4.949  11.103
 8210W        W73030   7.010  34.830  11.089
 8211W        W73031  42.764  34.609   2.197
 8212W        W73032  33.043  11.875   0.248
 8213W        W73033  35.821  23.482   0.980
 8214W        W73034  23.765  28.119  11.555
 8215W        W73035  19.741  15.690   1.591
 8216W        W73036  22.453  11.114  12.951
 8217W        W73037  11.336  43.109  11.622
 8218W        W73038  23.155  37.564  14.557
 8219W        W73039  43.919  17.833   1.507
 8220W        W73040  17.269  17.611  14.665
 8221W        W73041  42.494   8.802  13.332
 8222W        W73042  34.597  39.115  11.598
 8223W        W73043   7.660  29.642   2.980
 8224W        W73044  12.761  27.335   4.593
 8225W        W73045  35.579  41.272  11.314
 8226W        W73046  14.258   0.260  12.082
 8227W        W73047   8.476  26.353  11.968
 8228W        W73048  21.478  40.938  11.165
 8229W        W73049   3.430   6.732   1.188
 8230W        W73050  14.251   9.911  11.581
 8231W        W73051  43.469  15.648   3.683
 8232W        W73052  20.197  12.150  13.423
 8233W        W73053  10.435  37.239   4.161
 8234W        W73054  15.819  14.339   0.845
 8235W        W73055  20.704  28.962   2.643
 8236W        W73056   7.902   6.385  11.948
 8237W        W73057  14.529  20.156  14.004
 8238W        W73058  35.449   3.283  14.984
 8239W        W73059   0.792   3.017   4.672
 8240W        W73060  31.681  26.971   2.171
 8241W        W73061  41.010  18.425  13.422
 8242W        W73062  31.912  30.609   1.984
 8243W        W73063   8.894  34.325   1.796
 8244W        W73064  43.130   2.406  14.440
 8245W        W73065  11.207   6.365   2.024
 8246W        W73066  38.856   6.353  14.968
 8247W        W73067  31.976   9.418   1.459
 8248W        W73068  10.701   5.147  11.501
 8249W        W73069  29.396  20.142  14.038
 8250W        W73070  34.056  15.054   1.240
 8251W        W73071  27.955  18.660   1.624
 8252W        W73072  11.133  21.582   0.844
 8253W        W73073  21.815  37.593  11.677
 8254W        W73074  30.464  42.877   0.289
 8255W        W73075  33.566  10.375   4.607
 8256W        W73076   6.622  44.627   1.681
 8257W        W73077  27.360   7.297  13.909
 8258W        W73078  21.666  15.567   3.661
 8259W        W73079  19.774   4.948  13.289
 8260W        W73080   0.776  36.048  14.976
 8261W        W73081  12.385  33.479  12.984
 8262W        W73082  13.113  30.219   2.946
 8263W        W73083  15.394   9.936  13.855
 8264W        W73084  39.797  20.210  13.151
 8265W        W73085  21.095  42.334  14.826
 8266W        W73086  42.757  39.084  11.088
 8267W        W73087  11.911  12.757  10.748
 8268W        W73088  21.660  37.752   4.676
 8269W        W73089  17.014  10.560   5.254
 8270W        W73090  23.623  35.156  11.573
 8271W        W73091  35.579  42.483   3.596
 8272W        W73092  32.708  39.123  11.584
 8273W        W73093  40.778  26.705   0.823
 8274W        W73094  16.943  28.899  10.718
 8275W        W73095  30.191  36.478   4.062
 8276W        W73096  33.676  40.281  13.463
 8277W        W73097   3.229   0.845  10.452
 8278W        W73098  10.314  41.357  14.791
 8279W        W73099  22.079  21.776  13.425
 8280W        W73100  21.536  19.468   5.049
 8281W        W73101  30.139  20.710   4.780
 8282W        W73102  23.435   0.359   2.310
 8283W        W73103  15.018   2.384  12.993
 8284W        W73104  21.083  34.629   4.174
 8285W        W73105  36.317  28.013  13.343
 8286W        W73106  32.511  12.790   0.277
 8287W        W73107  28.432  27.099  12.693
 8288W        W73108  43.217  19.040  13.344
 8289W        W73109  32.406  27.985   3.357
 8290W        W73110  21.901  42.416   0.908
 8291W        W73111  27.238  21.212  14.421
 8292W        W73112  40.942  35.368  12.361
 8293W        W73113  24.532  37.147   0.197
 8294W        W73114  28.724   0.986   3.195
 8295W        W73115  25.275  43.177   1.244
 8296W        W73116  26.494  24.515   4.543
 8297W        W73117  29.050   7.808   1.361
 8298W        W73118  41.022  41.999   3.325
 8299W        W73119  36.658  25.687  14.007
 8300W        W73120  14.813  31.493  14.712
 8301W        W73121  31.381  33.573  13.853
 8302W        W73122  37.878   0.956  13.562
 8303W        W73123  34.521  32.985  14.901
 8304W        W73124  41.701   9.269  12.800
 8305W        W73125   8.725  35.525   0.890
 8306W        W73126  20.931  44.808  14.146
 8307W        W73127  24.550  22.036   3.160
 8308W        W73128  43.592  40.411  14.821
 8309W        W73129  36.003   6.911   2.127
 8310W        W73130  26.077  17.393   3.606
 8311W        W73131  43.055  32.027   0.881
 8312W        W73132  16.778  42.393   2.585
 8313W        W73133  34.979  24.757  11.984
 8314W        W73134   7.659  21.503  14.364
 8315W        W73135   9.257  18.662  11.751
 8316W        W73136  22.691  41.982   1.414
 8317W        W73137  42.519  40.560  11.117
 8318W        W73138   3.351  18.639   3.831
 8319W        W73139  10.201  42.139  10.938
 8320W        W73140  25.502  38.105   3.226
 8321W        W73141  12.781  34.503  13.794
 8322W        W73142  37.902  31.200  11.131
 8323W        W73143   6.669  28.024  12.335
 8324W        W73144  25.907  36.980   2.353
 8325W        W73145  13.746  11.203   2.774
 8326W        W73146  27.726   8.570   3.219
 8327W        W73147  34.401  15.372  11.934
 8328W        W73148  12.280   9.432   2.318
 8329W        W73149  37.860  36.794  14.192
 8330W        W73150  41.930  26.707  12.571
 8331W        W73151  19.400  38.973   2.138
 8332W        W73152  28.992  37.807   0.782
 8333W        W73153  34.957  15.556  14.743
 8334W        W73154  13.567  32.172  10.636
 8335W        W73155  19.808  31.962   2.773
 8336W        W73156  22.674  17.671   0.661
 8337W        W73157  20.285   6.768   4.102
 8338W        W73158  26.567  24.295  12.096
 8339W        W73159   4.676  21.700  12.955
 8340W        W73160   8.878  19.812   1.866
 8341W        W73161  21.895  23.776   0.701
 8342W        W73162  34.963  38.775  11.744
 8343W        W73163  28.706  24.667  12.010
 8344W        W73164  36.862   2.937   0.590
 8345W        W73165  11.526  11.303  11.851
 8346W        W73166  32.002   9.330  12.971
 8347W        W73167  18.774  29.630   0.327
 8348W        W73168  19.990  19.826  12.136
 8349W        W73169  18.986  31.387  13.490
 8350W        W73170  15.313  36.930  11.314
 8351W        W73171  38.334  38.996   4.883
 8352W        W73172  39.999  43.327   4.861
 8353W        W73173  39.346  17.201   4.127
 8354W        W73174  14.737  29.138  10.283
 8355W        W73175  26.122  24.211   2.744
 8356W        W73176  26.008   2.680   4.930
 8357W        W73177  28.488  28.740  11.690
 8358W        W73178  36.490  44.643  12.997
 8359W        W73179  42.516   0.318  12.118
 8360W        W73180  27.066  15.658   1.459
 8361W        W73181   8.058  42.334   2.807
 8362W        W73182  14.436   8.923   1.156
 8363W        W73183  29.962  33.112   3.197
 8364W        W73184  44.800   8.362   1.033
 8365W        W73185   3.792  44.006  13.754
 8366W        W73186   5.875  16.714  13.959
 8367W        W73187   7.324  20.433   3.890
 8368W        W73188  39.679  36.759  14.836
 8369W        W73189  29.448  32.561   1.907
 8370W        W73190  40.817  23.103  10.753
 8371W        W73191  36.140  17.747   4.546
 8372W        W73192  18.652  31.544  13.114
 8373W        W73193  26.651  14.685  14.941
 8374W        W73194   6.677  35.086  14.053
 8375W        W73195  28.494  43.008  11.138
 8376W        W73196  25.744   2.802  14.828
 8377W        W73197   1.998   1.964  13.058
 8378W        W73198  43.428  19.522  13.329
 8379W        W73199   6.470   4.341   2.700
 8380W        W73200   4.305  19.869  14.791
 8381W        W73201  34.274  33.703   2.768
 8382W        W73202   5.435  34.470  12.012
 8383W        W73203  18.609  36.365  13.031
 8384W        W73204  35.102  28.391  12.005
 8385W        W73205  14.774  22.996  12.446
 8386W        W73206  11.031   1.129  13.512
 8387W        W73207  33.542  11.611  12.875
 8388W        W73208  42.498  29.112   2.940
 8389W        W73209  33.860  44.299  13.907
 8390W        W73210  39.420  27.276  10.693
 8391W        W73211  22.535   3.414  13.113
 8392W        W73212  15.790  16.766  14.481
 8393W        W73213  32.723  12.670   0.744
 8394W        W73214   6.569  42.617  11.109
 8395W        W73215  39.745  36.025   2.851
 8396W        W73216  36.916   5.528  10.819
 8397W        W73217  13.719  41.533   2.383
 8398W        W73218  18.425   3.284  12.982
 8399W        W73219  20.101  28.492   4.748
 8400W        W73220  11.262  41.251   0.756
 8401W        W73221  18.093  20.005   2.179
 8402W        W73222  19.621  30.390  13.420
 8403W        W73223  41.054  41.087   2.765
 8404W        W73224  35.925  12.273   2.592
 8405W        W73225  24.130  24.214  11.670
 8406W        W73226  13.559  36.973   1.806
 8407W        W73227  18.014  36.063   2.121
 8408W        W73228  43.511  19.695  11.920
 8409W        W73229  44.473  37.231   2.175
 8410W        W73230  13.761  14.214  13.299
 8411W        W73231   8.070   2.720  11.978
 8412W        W73232   8.925  33.421   1.678
 8413W        W73233  33.192  37.585   1.720
 8414W        W73234  14.861  16.699  12.928
 8415W        W73235  42.480  15.887   1.298
 8416W        W73236  29.119  24.011   1.446
 8417W        W73237  15.379  37.795  11.372
 8418W        W73238   0.307  23.558   2.294
 8419W        W73239  27.708  30.517   5.138
 8420W        W73240  39.719  16.248   1.226
 8421W        W73241  17.125  10.611   1.010
 8422W        W73242  22.149  42.520  11.687
 8423W        W73243   9.830  17.004  12.981
 8424W        W73244  30.031  21.576  14.261
 8425W        W73245  30.437  16.829  11.654
 8426W        W73246  30.021  37.157   0.750
 8427W        W73247   1.844  24.050  11.744
 8428W        W73248   7.288  12.342   1.661
 8429W        W73249  44.545  41.020  11.516
 8430W        W73250  14.700  34.053   3.808
 8431W        W73251  22.169  31.585   2.714
 8432W        W73252  27.819  22.773  14.447
 8433W        W73253  25.000   8.867  14.503
 8434W        W73254  24.814  43.291  10.729
 8435W        W73255   8.966  14.223  10.699
 8436W        W73256  30.225  19.941   3.183
 8437W        W73257  15.791  28.977   4.457
 8438W        W73258  40.769   8.157   3.764
 8439W        W73259  13.931  36.184   1.986
 8440W        W73260  34.717  24.213   0.331
 8441W        W73261  40.390  30.517  14.057
 8442W        W73262  23.028  11.855  14.574
 8443W        W73263  28.211  20.083   3.360
 8444W        W73264   6.375  11.796  10.317
 8445W        W73265   8.615  18.592  14.129
 8446W        W73266  14.096  18.149   3.107
 8447W        W73267  33.306  34.347  11.605
 8448W        W73268  41.341  17.475   3.621
 8449W        W73269  21.698   4.315   4.584
 8450W        W73270  43.529  37.766  11.658
 8451W        W73271  26.269  36.580  14.485
 8452W        W73272  21.531  11.877  12.344
 8453W        W73273  32.532  39.244  14.028
 8454W        W73274  29.207  11.614  12.368
 8455W        W73275  42.811  26.985   1.418
 8456W        W73276   0.749  14.048   0.996
 8457W        W73277  35.188  29.025  10.176
 8458W        W73278  42.695   8.769   3.787
 8459W        W73279  38.547  14.856   3.804
 8460W        W73280  18.250   2.268   1.204
 8461W        W73281  21.799   8.040   5.500
 8462W        W73282  30.919   2.966   4.211
 8463W        W73283  18.795  30.707   5.031
 8464W        W73284   7.994  36.051   1.256
 8465W        W73285  42.984  33.150   4.097
 8466W        W73286  43.262  30.904   1.339
 8467W        W73287  10.738  14.063   2.260
 8468W        W73288  17.054  30.929   4.043
 8469W        W73289  24.590  26.009  12.903
 8470W        W73290  34.237  25.603  13.044
 8471W        W73291   1.926  23.197  14.361
 8472W        W73292  21.964   8.048   0.245
 8473W        W73293  29.128   0.817   2.842
 8474W        W73294  41.176  26.028  14.459
 8475W        W73295   0.250  18.314  13.608
 8476W        W73296  18.232  21.191  13.943
 8477W        W73297  18.867  28.635   3.816
 8478W        W73298   0.177   4.209  10.741
 8479W        W73299  23.233  10.675  13.972
 8480W        W73300  29.093  13.767  10.977
 8481W        W73301  28.288  28.117   1.903
 8482W        W73302   6.117  35.546  12.835
 8483W        W73303   8.929  30.725   1.744
 8484W        W73304  15.702  21.322   2.394
 8485W        W73305  21.059  18.582   0.183
 8486W        W73306   6.110   6.569   2.186
 8487W        W73307   9.411  13.547   0.468
 8488W        W73308   8.481  42.238  11.099
 8489W        W73309  23.033  32.470  10.599
 8490W        W73310  25.715  20.403   9.796
 8491W        W73311   0.972  22.470   4.267
 8492W        W73312  19.073  19.583   0.462
 8493W        W73313  36.819  16.844  11.991
 8494W        W73314  43.275  18.647  14.595
 8495W        W73315  13.704  34.010   3.585
 8496W        W73316  40.100  34.301   2.623
 8497W        W73317  33.010  33.336   4.879
 8498W        W73318  27.717  39.689   3.345
 8499W        W73319  28.425  18.867   1.256
 8500W        W73320  41.895  23.240   4.155
 8501W        W73321  32.988  11.906  10.694
 8502W        W73322  20.814  24.143   2.245
 8503W        W73323  23.761  36.156  11.585
 8504W        W73324  23.007  17.263  12.884
 8505W        W73325  29.089  14.672   3.609
 8506W        W73326  38.859   5.392  13.876
 8507W        W73327   6.677  44.271  13.293
 8508W        W73328  43.291  27.829  11.442
 8509W        W73329   1.095  41.852  11.707
 8510W        W73330   5.806   2.731  14.835
 8511W        W73331  26.646   4.701   5.066
 8512W        W73332  25.337  12.148   3.556
 8513W        W73333  24.664  36.659   0.329
 8514W        W73334  26.909   1.518  14.921
 8515W        W73335  43.032  28.758   2.174
 8516W        W73336  12.098  38.021  13.458
 8517W        W73337   5.318   6.872   0.943
 8518W        W73338  19.803   1.857  10.607
 8519W        W73339  27.207   6.190  10.988
 8520W        W73340  17.069   0.405  14.923
 8521W        W73341  39.820   1.266  14.498
 8522W        W73342  22.181  40.147  12.502
 8523W        W73343  36.009  42.920  12.171
 8524W        W73344  34.392   4.467  13.503
 8525W        W73345  28.009   3.908  12.524
 8526W        W73346  30.133   5.897   4.690
 8527W        W73347  42.716   0.804  13.346
 8528W        W73348   6.180  16.475   4.718
 8529W        W73349  22.393  25.468   2.473
 8530W        W73350  20.616  32.015   0.228
 8531W        W73351  19.539  27.679   1.866
 8532W        W73352  11.064  24.225  12.128
 8533W        W73353  12.068   7.689   4.837
 8534W        W73354  44.463  36.470   1.679
 8535W        W73355  27.661   0.322   2.929
 8536W        W73356  20.028   7.310  11.439
 8537W        W73357   3.612  22.639   4.593
 8538W        W73358  43.938   6.428  11.216
 8539W        W73359  22.034  19.550  11.239
 8540W        W73360  44.386  15.360  11.571
 8541W        W73361  43.871  21.646   0.411
 8542W        W73362  44.216  34.938   5.288
 8543W        W73363  26.387   7.271   4.474
 8544W        W73364   1.811   3.407  14.390
 8545W        W73365  19.584  42.644   3.620
 8546W        W73366   8.072  11.053  12.125
 8547W        W73367  40.373  26.982   2.617
 8548W        W73368  17.526  32.661   2.747
 8549W        W73369  44.986  25.089  12.499
 8550W        W73370  39.796  43.759  13.134
 8551W        W73371  18.805  10.120  14.949
 8552W        W73372  23.329  20.758   4.205
 8553W        W73373  14.312   3.089   5.030
 8554W        W73374  20.105  21.011   0.033
 8555W        W73375  22.553  35.586   1.472
 8556W        W73376  23.280  25.229  13.526
 8557W        W73377  17.318   9.099   5.036
 8558W        W73378  43.362  13.450   2.807
 8559W        W73379  44.424  24.433   2.411
 8560W        W73380  10.601  27.505   3.297
 8561W        W73381  15.815  18.793  14.933
 8562W        W73382  44.167  15.280   3.727
 8563W        W73383  15.698   5.691  11.911
 8564W        W73384  26.142  33.375  14.799
 8565W        W73385  43.419  38.253   2.126
 8566W        W73386   9.279  30.504  13.085
 8567W        W73387  40.372   4.716  12.875
 8568W        W73388  15.998  17.209  13.427
 8569W        W73389  20.015   4.035  13.679
 8570W        W73390   9.198  22.657   0.799
 8571W        W73391   1.984  32.402  11.994
 8572W        W73392   7.712   1.383   2.996
 8573W        W73393  44.204   7.002   2.404
 8574W        W73394  11.296   7.872  13.913
 8575W        W73395  11.666   3.921   4.900
 8576W        W73396   3.394  14.294   5.100
 8577W        W73397  12.556  24.827   0.303
 8578W        W73398  36.361  38.894  14.962
 8579W        W73399  30.918  43.846  14.851
 8580W        W73400  44.260  40.346  13.516
 8581W        W73401  38.511  25.701  10.695
 8582W        W73402   8.466  26.589   3.854
 8583W        W73403  31.010  16.390   2.097
 8584W        W73404  22.100  36.128  12.651
 8585W        W73405  33.783   2.016   2.005
 8586W        W73406   1.457   2.725   2.838
 8587W        W73407  37.590  25.260  11.147
 8588W        W73408   6.765   9.679   2.173
 8589W        W73409   2.200  13.369  12.533
 8590W        W73410  38.785  18.264  14.386
 8591W        W73411  36.599  32.302  14.370
 8592W        W73412  35.343  27.721   2.164
 8593W        W73413  24.501  11.925   2.796
 8594W        W73414   2.581  36.539  13.913
 8595W        W73415  20.162  27.991  10.709
 8596W        W73416  15.035   7.777   1.915
 8597W        W73417  11.938  26.490   1.396
 8598W        W73418  40.053  31.605   2.359
 8599W        W73419  17.558  41.244   2.204
 8600W        W73420  19.303  43.109  11.233
 8601W        W73421  29.651   8.183   0.820
 8602W        W73422  23.746  31.433  12.424
 8603W        W73423   8.408   6.252  12.980
 8604W        W73424  34.681   8.919   2.805
 8605W        W73425  35.648  19.378   3.334
 8606W        W73426  36.527  31.470   2.518
 8607W        W73427  32.619   3.389   2.824
 8608W        W73428  20.695   7.999  13.876
 8609W        W73429  17.624  41.404  13.923
 8610W        W73430  11.612  28.021   3.281
 8611W        W73431  41.718  40.159  13.479
 8612W        W73432  16.015   4.666  12.635
 8613W        W73433  31.093  42.463   0.938
 8614W        W73434  12.872   9.745   2.366
 8615W        W73435  32.578   6.251   0.324
 8616W        W73436  41.965  21.887   4.524
 8617W        W73437  17.138  26.295   1.152
 8618W        W73438  34.015   0.986  10.521
 8619W        W73439  25.542   7.720  12.062
 8620W        W73440  30.132  23.172  13.381
 8621W        W73441   9.150  42.698   2.264
 8622W        W73442  15.412   6.546   4.111
 8623W        W73443  38.428   1.040  13.281
 8624W        W73444  34.967  44.787  14.939
 8625W        W73445   6.257  22.417  12.710
 8626W        W73446  30.877  31.897  14.502
 8627W        W73447  18.990  18.102  11.179
 8628W        W73448  18.821  14.414  14.034
 8629W        W73449  40.049  13.381   0.458
 8630W        W73450  13.032  25.174   3.069
 8631W        W73451  13.261  39.272  12.834
 8632W        W73452  28.004  29.580   4.595
 8633W        W73453   2.294   1.790  10.832
 8634W        W73454   5.947  38.404   3.261
 8635W        W73455  30.000  22.903  12.936
 8636W        W73456  36.872  42.439  11.999
 8637W        W73457  31.089  10.550   4.314
 8638W        W73458  10.241   8.252   1.899
 8639W        W73459  17.877  14.775   1.600
 8640W        W73460   4.262  17.803   2.490
 8641W        W73461  34.171  30.029   1.677
 8642W        W73462  15.289  12.611  13.992
 8643W        W73463  25.096   2.883   4.553
 8644W        W73464  33.896  16.672  11.200
 8645W        W73465  29.315  23.534   1.499
 8646W        W73466  16.358  11.280  12.556
 8647W        W73467   5.327  31.741   2.939
 8648W        W73468  28.760  22.147  12.875
 8649W        W73469  37.455  26.898   3.762
 8650W        W73470  22.740   8.869   3.223
 8651W        W73471  25.641  25.642   4.180
 8652W        W73472  27.240  35.042   1.124
 8653W        W73473  19.136  27.184  11.519
 8654W        W73474  40.946  20.831  12.407
 8655W        W73475  29.259  10.706  12.042
 8656W        W73476  16.299  14.369  11.788
 8657W        W73477  32.579   1.509  14.369
 8658W        W73478  24.941  17.124   4.399
 8659W        W73479   1.997  26.155  12.043
 8660W        W73480  27.370   9.281  11.685
 8661W        W73481  35.371  20.991  12.899
 8662W        W73482  19.082  32.830  14.576
 8663W        W73483   7.195  35.696   2.221
 8664W        W73484  14.428  26.931   3.845
 8665W        W73485   8.957  14.205   1.754
 8666W        W73486   5.424  23.708   0.937
 8667W        W73487  16.629   1.486  13.079
 8668W        W73488   1.841  16.500  13.328
 8669W        W73489   0.376   7.623   3.704
 8670W        W73490  22.158  23.276   4.229
 8671W        W73491  17.051  17.531  11.074
 8672W        W73492  24.167  19.672  14.271
 8673W        W73493  41.503  15.832   2.440
 8674W        W73494   9.095  31.571  14.881
 8675W        W73495  17.545  15.017   1.271
 8676W        W73496  30.494  32.423   0.334
 8677W        W73497  13.559  28.341  14.082
 8678W        W73498  19.816  20.199  11.361
 8679W        W73499  26.544  19.619   0.870
 8680W        W73500  15.213   7.365   2.604
 8681W        W73501  26.507  21.286   2.683
 8682W        W73502  11.653  30.387  13.003
 8683W        W73503   9.833  23.135  11.210
 8684W        W73504   1.569  12.779   4.222
 8685W        W73505  10.677  18.591   0.678
 8686W        W73506  26.271   6.670  11.054
 8687W        W73507  23.104  11.657  11.526
 8688W        W73508   5.685  36.101   2.387
 8689W        W73509  20.456   8.461   5.105
 8690W        W73510  32.426   3.683   3.261
 8691W        W73511   3.479   8.073   3.252
 8692W        W73512  24.485   7.499  12.449
 8693W        W73513  20.554  16.300  11.431
 8694W        W73514   4.790   6.697   0.221
 8695W        W73515   7.950   4.828   2.211
 8696W        W73516   2.319  30.604   4.278
 8697W        W73517  35.180   8.808  13.605
 8698W        W73518  10.100  15.104  13.310
 8699W        W73519  11.369  20.809   5.049
 8700W        W73520  12.356  44.769  12.426
 8701W        W73521  32.501  22.167  10.682
 8702W        W73522   8.628  20.633   3.612
 8703W        W73523   7.452  13.220  14.031
 8704W        W73524  24.435  41.953   0.409
 8705W        W73525  16.046  15.799   0.794
 8706W        W73526  24.273  33.860  12.590
 8707W        W73527  24.236  25.665  14.831
 8708W        W73528  13.783  21.613  11.834
 8709W        W73529  14.882  12.199  10.709
 8710W        W73530   6.941  17.713   4.473
 8711W        W73531  21.575  43.844  14.937
 8712W        W73532   2.371  33.541  14.924
 8713W        W73533  16.760  38.195  11.798
 8714W        W73534  19.989  39.765   2.855
 8715W        W73535  21.127  42.263  10.817
 8716W        W73536  17.116  31.542  11.036
 8717W        W73537  32.971   7.198   1.959
 8718W        W73538  21.632  23.755  14.163
 8719W        W73539  39.334  16.422  14.403
 8720W        W73540   6.934   0.850  13.811
 8721W        W73541  15.160  18.083   4.364
 8722W        W73542   6.192   3.673  11.191
 8723W        W73543  44.573  42.436  14.237
 8724W        W73544  12.627  27.677   0.493
 8725W        W73545  20.744   7.520   0.919
 8726W        W73546  23.015  28.670   0.822
 8727W        W73547  27.798  20.562   2.221
 8728W        W73548  44.222   9.641   0.925
 8729W        W73549   5.866   1.442  14.401
 8730W        W73550  14.132  34.589   4.617
 8731W        W73551  17.785  36.056   1.112
 8732W        W73552  26.974  38.040   0.872
 8733W        W73553  18.829  41.038  13.058
 8734W        W73554  15.347   3.287  12.565
 8735W        W73555  16.171  17.587   4.544
 8736W        W73556   2.726  11.700   4.993
 8737W        W73557  19.723  38.117   1.412
 8738W        W73558  30.138  21.578  11.575
 8739W        W73559  18.924   5.797   3.617
 8740W        W73560  32.536  10.067  12.620
 8741W        W73561   7.466  29.167   4.884
 8742W        W73562  14.207  41.323  11.037
 8743W        W73563  21.460  43.903   0.886
 8744W        W73564  40.854  29.494   3.705
 8745W        W73565  11.985  14.816   1.757
 8746W        W73566  42.284  36.989   3.562
 8747W        W73567  18.767  31.869  11.841
 8748W        W73568  39.953  38.653  12.357
 8749W        W73569   2.864  30.585  11.950
 8750W        W73570  15.031  11.724   0.910
 8751W        W73571  34.806  37.912   2.316
 8752W        W73572   1.198  31.570  10.728
 8753W        W73573  37.906  26.399   1.912
 8754W        W73574  18.598  39.133  12.454
 8755W        W73575  21.655  23.997   2.912
 8756W        W73576  25.107  11.277   0.644
 8757W        W73577  34.692  37.108   2.568
 8758W        W73578  24.014  21.151  13.036
 8759W        W73579  41.892   3.747  11.714
 8760W        W73580   8.207  13.663   4.092
 8761W        W73581  24.867  25.782   1.809
 8762W        W73582   1.351  30.075   0.448
 8763W        W73583  25.995   3.941   1.393
 8764W        W73584  16.237  36.566   2.267
 8765W        W73585  39.075  38.640   1.865
 8766W        W73586  20.497  36.314   3.263
 8767W        W73587  16.842  26.582  12.502
 8768W        W73588  29.334  20.766  10.272
 8769W        W73589  31.752  19.687  10.075
 8770W        W73590   4.139  42.438   1.432
 8771W        W73591   8.159  25.055  11.686
 8772W        W73592   6.164   5.307  11.985
 8773W        W73593  21.063   4.848   4.718
 8774W        W73594  23.593  38.021  14.499
 8775W        W73595  42.790  29.340   4.672
 8776W        W73596  17.063  37.181   3.132
 8777W        W73597   1.245   5.606  10.777
 8778W        W73598  23.517  43.902   1.359
 8779W        W73599  42.348  43.317   3.769
 8780W        W73600   1.489  28.184   3.227
 8781W        W73601   9.134  19.367   4.641
 8782W        W73602  30.224  40.080   3.818
 8783W        W73603  44.987  17.300   0.793
 8784W        W73604  11.184  33.292   2.232
 8785W        W73605  37.012  37.830   1.744
 8786W        W73606  14.416   2.230  15.000
 8787W        W73607  29.502  15.723  14.858
 8788W        W73608  17.119  39.912   2.191
 8789W        W73609  18.981  44.049   2.591
 8790W        W73610  22.324   4.214   1.443
 8791W        W73611  11.732  32.135  11.145
 8792W        W73612  32.989  21.826  12.420
 8793W        W73613   9.261  16.390  13.591
 8794W        W73614  17.668  20.163   1.275
 8795W        W73615   0.654  41.427   4.556
 8796W        W73616  26.600   0.405   4.984
 8797W        W73617  33.440  34.574  10.687
 8798W        W73618  39.367  23.029   4.911
 8799W        W73619  22.839   0.521   1.215
 8800W        W73620  10.145   5.828  11.908
 8801W        W73621  40.911  41.395   1.507
 8802W        W73622  33.354  37.313   4.450
 8803W        W73623  28.782   6.900   1.313
 8804W        W73624  22.708  27.969  13.219
 8805W        W73625  12.752   5.745  12.790
 8806W        W73626  44.364  33.344   1.834
 8807W        W73627  22.745   7.973   4.476
 8808W        W73628  20.740   0.356   3.308
 8809W        W73629  38.960  41.406  10.508
 8810W        W73630  28.987   9.967  12.942
 8811W        W73631  16.655  34.381  11.079
 8812W        W73632  40.933  25.566   3.682
 8813W        W73633   6.115  17.288   2.699
 8814W        W73634   3.998  32.000  11.503
 8815W        W73635  16.149  20.542   1.473
 8816W        W73636  39.877  38.774  14.148
 8817W        W73637  34.582  33.543  10.765
 8818W        W73638  38.150  42.586   3.117
 8819W        W73639  34.549  10.610  10.694
 8820W        W73640  41.417  42.249   2.290
 8821W        W73641  32.177  43.128   4.695
 8822W        W73642  40.962  11.931  10.239
 8823W        W73643  37.063  42.344   4.646
 8824W        W73644   6.818   7.341   2.719
 8825W        W73645  34.487  27.943  12.469
 8826W        W73646  18.343  13.101  13.536
 8827W        W73647   9.527   1.216   1.902
 8828W        W73648  18.196  14.053   4.240
 8829W        W73649  15.629  43.944  14.261
 8830W        W73650   0.254  44.397   4.588
 8831W        W73651  14.300  19.992   4.949
 8832W        W73652  13.220  29.000   4.188
 8833W        W73653  11.838   4.978   0.649
 8834W        W73654   7.594  15.044   0.265
 8835W        W73655  40.557  39.997  10.681
 8836W        W73656  35.601   8.246   2.255
 8837W        W73657  42.358  36.427  11.412
 8838W        W73658   6.519  19.735   3.364
 8839W        W73659  14.884  36.748   3.241
 8840W        W73660  21.208  21.127   2.603
 8841W        W73661   2.862  36.140  14.947
 8842W        W73662  16.736  20.615  13.319
 8843W        W73663  16.811  43.837  10.746
 8844W        W73664  40.306  36.364   1.385
 8845W        W73665  19.463  19.670   3.631
 8846W        W73666  31.456   2.744   0.396
 8847W        W73667  31.223  16.611   4.811
 8848W        W73668   6.808  23.303   4.519
 8849W        W73669  25.573  18.957  10.780
 8850W        W73670  33.966   2.797  14.266
 8851W        W73671   1.718  42.782   3.787
 8852W        W73672  41.723  10.392  11.694
 8853W        W73673  14.910  42.485  14.846
 8854W        W73674  27.571  19.222  14.459
 8855W        W73675   0.950  15.558  10.685
 8856W        W73676   5.064  14.007  14.848
 8857W        W73677  23.006   1.829  13.772
 8858W        W73678   2.724   6.838   1.812
 8859W        W73679  37.624  12.638  11.609
 8860W        W73680   7.248  43.444  12.423
 8861W        W73681  23.078  27.682   2.738
 8862W        W73682   7.729  40.405   0.912
 8863W        W73683  11.126   5.230   3.805
 8864W        W73684   7.251  40.395  11.126
 8865W        W73685  15.514  42.067   0.747
 8866W        W73686  34.199  17.182   5.436
 8867W        W73687  42.927  43.757  11.076
 8868W        W73688  13.997  28.979  12.666
 8869W        W73689  27.664  12.343  12.013
 8870W        W73690   2.894   5.368  14.178
 8871W        W73691   2.739  40.940  12.936
 8872W        W73692  26.670  12.160   0.435
 8873W        W73693  12.901  25.664   4.233
 8874W        W73694  36.359  37.546  11.979
 8875W        W73695  19.032  44.872   2.047
 8876W        W73696  14.191  23.056   2.377
 8877W        W73697  34.810   6.357  11.415
 8878W        W73698  40.582  29.833   4.094
 8879W        W73699   7.023   3.414  12.904
 8880W        W73700  39.139   4.724   1.818
 8881W        W73701  22.260   0.661   3.211
 8882W        W73702   0.426  35.275  12.396
 8883W        W73703  15.275  40.409  10.410
 8884W        W73704  19.210  43.625  11.349
 8885W        W73705   4.458  33.099  13.084
 8886W        W73706  17.393  12.950  10.155
 8887W        W73707  19.600  15.152  12.504
 8888W        W73708   5.680  29.220  12.580
 8889W        W73709  34.666  29.951   1.806
 8890W        W73710  21.335  42.086   1.809
 8891W        W73711  37.024  28.688  13.550
 8892W        W73712  20.528  37.056  14.986
 8893W        W73713  18.173   2.191   0.679
 8894W        W73714  12.406  43.373   4.549
 8895W        W73715  31.626  17.534  13.859
 8896W        W73716  42.999  36.597   4.922
 8897W        W73717  10.191  13.730  13.593
 8898W        W73718  44.421   8.659  11.461
 8899W        W73719  11.828  42.002  12.010
 8900W        W73720  37.645  38.335   1.218
 8901W        W73721  32.994  28.026  14.221
 8902W        W73722  13.856   2.774  14.495
 8903W        W73723  21.328   0.574   1.814
 8904W        W73724  35.505  23.611  12.016
 8905W        W73725  17.690   4.809   0.396
 8906W        W73726   6.000  15.751  10.007
 8907W        W73727  41.353  24.584   2.682
 8908W        W73728  11.122   8.782   1.941
 8909W        W73729   1.820  40.947   0.292
 8910W        W73730  16.197  39.513   4.302
 8911W        W73731   1.175  31.894  14.569
 8912W        W73732  26.759  29.063  14.727
 8913W        W73733  43.524  22.423  12.595
 8914W        W73734  10.400   6.463   3.242
 8915W        W73735  26.742   8.737   3.212
 8916W        W73736  11.894  44.976  14.032
 8917W        W73737  43.369  37.333   0.274
 8918W        W73738   9.733  43.313   0.266
 8919W        W73739  17.300   2.815  10.484
 8920W        W73740  37.110  19.569   3.136
 8921W        W73741  37.897   2.812  12.432
 8922W        W73742  23.486  36.698   4.577
 8923W        W73743  32.070  40.009  14.025
 8924W        W73744   0.435  19.139   0.738
 8925W        W73745  10.860  41.952  11.183
 8926W        W73746  44.006  18.873   4.886
 8927W        W73747  11.977   5.866  13.913
 8928W        W73748  34.493  21.742  14.642
 8929W        W73749  42.437  24.539   3.794
 8930W        W73750   9.006  12.701   3.757
 8931W        W73751  12.268  15.232   2.662
 8932W        W73752  37.629   2.794  11.975
 8933W        W73753  42.414  42.636  12.458
 8934W        W73754  31.063  40.339  10.649
 8935W        W73755  24.502  42.072   4.683
 8936W        W73756  39.893  13.109   4.166
 8937W        W73757  33.019  36.956  14.730
 8938W        W73758  19.827  23.159   1.995
 8939W        W73759  40.131  15.642   2.915
 8940W        W73760  41.971  19.996  14.160
 8941W        W73761   7.317  22.784  13.397
 8942W        W73762  14.714  21.529  11.944
 8943W        W73763   1.932  36.828  12.238
 8944W        W73764   1.005  33.181   2.099
 8945W        W73765   6.806  23.763   5.080
 8946W        W73766   1.882  43.308   4.646
 8947W        W73767  44.448  34.694   4.082
 8948W        W73768   0.943   7.230  10.487
 8949W        W73769   2.783  25.146   1.334
 8950W        W73770  35.407  15.982   2.455
 8951W        W73771  31.017  43.167  12.536
 8952W        W73772  32.828  18.866  12.934
 8953W        W73773  33.342  36.140   5.187
 8954W        W73774  11.823  38.490   2.987
 8955W        W73775  42.005   8.212   0.767
 8956W        W73776   9.190  31.071  10.711
 8957W        W73777  33.140  38.407   3.857
 8958W        W73778  30.185  31.690   0.905
 8959W        W73779   9.393   1.745   3.774
 8960W        W73780  41.547  18.260  13.945
 8961W        W73781  16.128  35.814   1.492
 8962W        W73782  13.714  43.384  13.399
 8963W        W73783   4.229  18.542   4.543
 8964W        W73784  27.574   5.563  11.547
 8965W        W73785  44.814  33.591   0.944
 8966W        W73786   0.531  21.506  12.612
 8967W        W73787  40.402   9.835  10.633
 8968W        W73788  10.370  16.950   5.168
 8969W        W73789  31.009  40.384  13.079
 8970W        W73790   9.653  34.036   4.360
 8971W        W73791  21.554  13.663   0.703
 8972W        W73792  16.381  28.475  13.787
 8973W        W73793  38.106  17.581  11.720
 8974W        W73794  29.634  26.066   1.795
 8975W        W73795  38.317  25.558   0.785
 8976W        W73796  24.153  33.623  12.108
 8977W        W73797  39.317  30.514   4.604
 8978W        W73798   1.440   6.016   0.794
 8979W        W73799  15.502  34.951   4.238
 8980W        W73800  27.930  14.120  12.500
 8981W        W73801   2.330  38.969   1.906
 8982W        W73802   2.330  39.383   1.619
 8983W        W73803  15.655  20.803  14.479
 8984W        W73804  35.121  18.058   1.330
 8985W        W73805  39.146  32.365   3.233
 8986W        W73806  39.362  29.960   3.967
 8987W        W73807   1.824  13.100  11.148
 8988W        W73808   9.215   5.080   3.620
 8989W        W73809  37.488  37.553  11.170
 8990W        W73810  10.649  34.319  12.668
 8991W        W73811  37.337  24.528   2.322
 8992W        W73812  19.675  31.157   2.345
 8993W        W73813  39.217   6.736  10.090
 8994W        W73814  41.290   3.449   0.980
 8995W        W73815  25.556  14.876   4.286
 8996W        W73816  17.087  31.036   2.169
 8997W        W73817  15.586   4.875  12.399
 8998W        W73818  28.106  17.670   3.350
 8999W        W73819  13.986  14.575  14.837
 9000W        W73820  31.844  23.899  12.942
 9001W        W73821   4.321  12.418  13.810
 9002W        W73822   9.955   0.406   0.905
 9003W        W73823   7.822  16.371  12.513
 9004W        W73824  18.477  32.928   2.939
 9005W        W73825  26.502  33.956  13.083
 9006W        W73826  32.496  19.937   0.011
 9007W        W73827  33.137   0.192  11.633
 9008W        W73828  39.534  27.448  12.823
 9009W        W73829  27.878   1.851  10.886
 9010W        W73830  30.907  24.052  13.360
 9011W        W73831  37.830  12.101  13.531
 9012W        W73832   4.394  35.902   4.470
 9013W        W73833  10.652   9.217  11.945
 9014W        W73834  36.921  19.839  13.369
 9015W        W73835  14.090  16.077  14.976
 9016W        W73836  22.496   8.894  14.420
 9017W        W73837  38.891  34.573  12.573
 9018W        W73838   1.848  22.250   4.622
 9019W        W73839  42.553  43.014  10.750
 9020W        W73840   8.241  21.029   0.806
 9021W        W73841  24.006  12.295   4.354
 9022W        W73842  10.904   4.527  14.568
 9023W        W73843  14.234   1.229   2.957
 9024W        W73844  15.876  19.545   2.745
 9025W        W73845   0.456   2.360   2.255
 9026W        W73846  10.378  30.053   2.756
 9027W        W73847  30.377  11.680  13.340
 9028W        W73848  19.991  40.088   2.400
 9029W        W73849  15.611  21.705  12.842
 9030W        W73850  24.934  13.068   1.328
 9031W        W73851  42.519   8.331   0.393
 9032W        W73852  38.875  27.753   1.284
 9033W        W73853  24.198  28.697  13.888
 9034W        W73854  11.876  36.889   3.236
 9035W        W73855  10.852  21.035  13.850
 9036W        W73856  26.452  24.481   3.636
 9037W        W73857  14.616  10.264  14.070
 9038W        W73858  44.430  39.731   3.236
 9039W        W73859   0.583  38.650   2.301
 9040W        W73860  19.041  36.443  13.979
 9041W        W73861  29.771  11.762  12.709
 9042W        W73862  42.449  21.617   3.854
 9043W        W73863  23.796  19.306  14.387
 9044W        W73864  22.580  27.845  11.241
 9045W        W73865  15.265  40.990   0.275
 9046W        W73866  23.558  13.843   4.657
 9047W        W73867  34.447  35.057  11.954
 9048W        W73868   5.187  11.903   3.378
 9049W        W73869   8.251  37.684  12.430
 9050W        W73870  43.828   2.339  13.304
 9051W        W73871  43.429  40.907   0.993
 9052W        W73872  40.445  32.895   2.795
 9053W        W73873  33.677  28.571   0.040
 9054W        W73874  35.353  34.613  12.121
 9055W        W73875   6.997  33.342  11.942
 9056W        W73876  29.937  31.615  13.856
 9057W        W73877  38.634  19.787  11.107
 9058W        W73878  39.963  44.195  13.367
 9059W        W73879  34.960  32.082   3.331
 9060W        W73880   4.912  13.361  13.478
 9061W        W73881  14.098  15.311  10.722
 9062W        W73882  39.559  37.265   1.283
 9063W        W73883   7.297  32.910   3.680
 9064W        W73884  37.981  44.217   2.832
 9065W        W73885   0.846   3.156  12.946
 9066W        W73886  28.636  13.236   4.684
 9067W        W73887  19.266  18.531  11.291
 9068W        W73888  32.000  39.773   0.412
 9069W        W73889  18.306  24.646   2.749
 9070W        W73890  38.281  39.340   1.743
 9071W        W73891  10.680  29.035  13.394
 9072W        W73892  16.286  31.939   4.506
 9073W        W73893  38.390  41.295  11.949
 9074W        W73894  31.844  24.528   0.501
 9075W        W73895  26.784  28.440   3.586
 9076W        W73896  27.194  38.059  10.715
 9077W        W73897  14.728  13.231  10.696
 9078W        W73898  29.124   6.294   1.358
 9079W        W73899  14.676   0.907  11.290
 9080W        W73900  31.955  14.532   2.848
 9081W        W73901  37.035   6.454  13.480
 9082W        W73902  32.219  32.355  13.348
 9083W        W73903  34.612   2.342   2.008
 9084W        W73904  10.170  36.376  12.073
 9085W        W73905   2.234  17.967   1.023
 9086W        W73906  33.259  41.298  13.576
 9087W        W73907  44.115  16.896   1.229
 9088W        W73908   1.927  27.108   1.793
 9089W        W73909  16.602  30.725  14.995
 9090W        W73910  40.434  15.525   4.573
 9091W        W73911   9.995  13.112  14.759
 9092W        W73912  14.061  13.328  14.403
 9093W        W73913  19.497  21.623  14.525
 9094W        W73914  40.320  11.644  13.583
 9095W        W73915   5.802  11.461   3.510
 9096W        W73916  27.933  43.287   3.737
 9097W        W73917  21.678  15.045   1.771
 9098W        W73918  10.180   8.510   3.174
 9099W        W73919  22.476   5.207   2.687
 9100W        W73920  32.375  17.294   2.954
 9101W        W73921  12.487  36.813  11.375
 9102W        W73922  17.957  15.787  12.154
 9103W        W73923  25.848   5.578  12.547
 9104W        W73924  23.760  36.810   3.183
 9105W        W73925   9.818   9.770   2.662
 9106W        W73926  41.211  14.866   2.140
 9107W        W73927  13.714  12.252  10.818
 9108W        W73928  35.788  17.062  14.323
 9109W        W73929  17.810  38.691   3.718
 9110W        W73930  23.416  35.431  13.805
 9111W        W73931  13.892  34.946  14.848
 9112W        W73932  27.415   5.888  14.117
 9113W        W73933  27.615  24.553   2.703
 9114W        W73934  17.122  13.135  13.133
 9115W        W73935   2.454  37.564  13.383
 9116W        W73936  31.469   4.519   1.704
 9117W        W73937   2.041  29.583  14.336
 9118W        W73938  19.799  26.090   2.878
 9119W        W73939  29.380  25.596   1.671
 9120W        W73940   5.530  10.950   0.405
 9121W        W73941  26.138  11.315  13.414
 9122W        W73942   8.449  15.135   2.233
 9123W        W73943  43.369  31.705  13.773
 9124W        W73944  42.707  37.046   1.727
 9125W        W73945  21.119   9.324  13.534
 9126W        W73946   2.518  29.195   1.167
 9127W        W73947  33.483  28.395   2.821
 9128W        W73948  25.889  30.675   1.550
 9129W        W73949  22.452  15.630  12.700
 9130W        W73950  32.159  12.604   1.885
 9131W        W73951  39.861  38.039   0.336
 9132W        W73952  38.372  39.034  14.012
 9133W        W73953   7.296   9.131   0.730
 9134W        W73954  25.548   6.655   3.285
 9135W        W73955   8.712  42.042   4.088
 9136W        W73956   9.216   0.896   4.194
 9137W        W73957   9.924  33.013  10.099
 9138W        W73958   2.393  35.517  12.421
 9139W        W73959  29.624  42.774   0.909
 9140W        W73960   3.183  10.183   3.220
 9141W        W73961  13.857  15.634  13.835
 9142W        W73962  36.027  27.451   4.886
 9143W        W73963   1.916  14.105  14.695
 9144W        W73964   0.168   2.176  12.950
 9145W        W73965  39.553  28.036  11.973
 9146W        W73966   5.715  12.889  14.343
 9147W        W73967  27.659  20.272   5.134
 9148W        W73968  41.207   2.677  12.409
 9149W        W73969   3.896  36.811   1.338
 9150W        W73970   6.272  38.503   0.283
 9151W        W73971  24.488  12.334  12.110
 9152W        W73972  30.380  17.426   3.747
 9153W        W73973   6.567  16.854  13.365
 9154W        W73974  16.180  18.492  14.027
 9155W        W73975  28.446  39.324   3.770
 9156W        W73976  12.782  36.010   3.169
 9157W        W73977  40.729  10.151   0.527
 9158W        W73978  39.946  26.620   1.356
 9159W        W73979  19.964  26.694   4.227
 9160W        W73980   2.796  34.476   2.556
 9161W        W73981   3.694  20.754  11.990
 9162W        W73982  32.647  43.240  14.743
 9163W        W73983  17.277  27.166  12.880
 9164W        W73984  10.599  10.218  13.795
 9165W        W73985   6.309   6.861   3.724
 9166W        W73986  27.144  30.224   2.728
 9167W        W73987  42.973   0.208   3.331
 9168W        W73988  22.706   3.984   2.216
 9169W        W73989  10.754  42.915   4.593
 9170W        W73990  13.905  26.972  13.857
 9171W        W73991  41.861  42.042  10.828
 9172W        W73992  35.693  35.105   2.320
 9173W        W73993  36.930   5.256   2.125
 9174W        W73994  14.938  14.555  11.754
 9175W        W73995  12.238   5.487   4.600
 9176W        W73996   0.717  33.306   0.481
 9177W        W73997  38.799  15.801   2.029
 9178W        W73998   4.911  31.385   4.495
 9179W        W73999  28.004  38.051  10.155
 9180W        W74000  39.788  32.814   0.364
 9181W        W74001  41.702  44.113   3.998
 9182W        W74002  39.919  43.673   3.451
 9183W        W74003  28.026  42.309  11.997
 9184W        W74004  14.134  37.815   0.439
 9185W        W74005  33.445   6.674   0.284
 9186W        W74006  40.362  22.712   4.989
 9187W        W74007  37.851   9.132   3.211
 9188W        W74008   2.965   0.271   3.625
 9189W        W74009   5.442  30.265  11.497
 9190W        W74010  11.498  34.191   4.152
 9191W        W74011  32.918   1.698   3.963
 9192W        W74012  38.871   3.354  10.207
 9193W        W74013  44.331  29.420   1.832
 9194W        W74014  40.794   7.846  12.100
 9195W        W74015  10.554  15.169  14.799
 9196W        W74016  25.497  14.279  13.958
 9197W        W74017  41.948  41.183  11.079
 9198W        W74018   8.301  37.774   2.318
 9199W        W74019  42.295  10.766   1.270
 9200W        W74020  42.864  12.172  14.320
 9201W        W74021  18.530   9.765   1.502
 9202W        W74022   0.543  20.758  13.399
 9203W        W74023  33.419   1.339  11.235
 9204W        W74024  11.146   6.009  12.141
 9205W        W74025  13.181  44.934  12.045
 9206W        W74026  38.817  13.467  11.161
 9207W        W74027  30.988   0.881  12.126
 9208W        W74028  33.390  24.986  14.733
 9209W        W74029  10.015  10.329  11.464
 9210W        W74030   0.818  25.665  13.949
 9211W        W74031  23.781  43.310  12.104
 9212W        W74032  21.709  20.160  10.599
 9213W        W74033  17.294  23.439   0.301
 9214W        W74034   7.314  20.183  10.683
 9215W        W74035  23.539   8.484  10.728
 9216W        W74036  29.254  35.575  14.066
 9217W        W74037  31.421  14.558   2.838
 9218W        W74038  15.009  31.500   2.667
 9219W        W74039  13.638  23.650  12.094
 9220W        W74040  39.934  35.674  13.808
 9221W        W74041  38.370  38.251   0.385
 9222W        W74042  17.533  24.670  14.864
 9223W        W74043   3.505  14.344  12.978
 9224W        W74044   2.198  37.068  13.138
 9225W        W74045  13.687   6.867   2.177
 9226W        W74046   4.805  28.960   4.513
 9227W        W74047  14.924  15.543  14.561
 9228W        W74048  26.957  24.649  13.958
 9229W        W74049  31.041  44.715  11.185
 9230W        W74050  39.370  25.130  14.230
 9231W        W74051   5.897  42.533  13.470
 9232W        W74052  10.818  23.558  11.684
 9233W        W74053   0.807  43.331   4.565
 9234W        W74054   0.932  20.781   1.663
 9235W        W74055  29.559  42.796  12.570
 9236W        W74056  36.789  11.955   0.351
 9237W        W74057   0.249  44.714  10.979
 9238W        W74058  22.626  30.003  13.847
 9239W        W74059   7.465   1.902  11.786
 9240W        W74060  12.575   6.296  11.092
 9241W        W74061  21.719  27.211   1.903
 9242W        W74062  22.681   3.718   1.259
 9243W        W74063  35.962   6.169  14.963
 9244W        W74064  15.629  17.333   3.226
 9245W        W74065  18.653  16.163  11.180
 9246W        W74066  30.136  30.590  10.610
 9247W        W74067   7.309  42.955  11.601
 9248W        W74068  18.569   9.444   3.168
 9249W        W74069  34.489  33.831  12.985
 9250W        W74070  32.374  21.533   0.820
 9251W        W74071   0.274  26.350  13.866
 9252W        W74072   2.994  35.270  11.643
 9253W        W74073  38.481  29.503  11.712
 9254W        W74074  39.541  16.261   4.316
 9255W        W74075  27.915  27.655   4.390
 9256W        W74076  39.499  33.400  14.780
 9257W        W74077  19.261  13.670   0.469
 9258W        W74078  23.492  27.543   3.561
 9259W        W74079  40.365   6.468  14.909
 9260W        W74080  31.131   6.707   0.367
 9261W        W74081  31.374  13.327   1.873
 9262W        W74082  17.646   0.015  10.833
 9263W        W74083  11.154  18.042   3.829
 9264W        W74084  14.027  41.708   3.441
 9265W        W74085  18.518   5.546   1.736
 9266W        W74086  21.413  10.654  13.551
 9267W        W74087   6.763   1.466   3.941
 9268W        W74088   1.508   7.890   1.461
 9269W        W74089  12.740  19.787  12.030
 9270W        W74090   2.977  38.635   0.718
 9271W        W74091  37.744   5.717  10.961
 9272W        W74092   3.874  14.892  13.943
 9273W        W74093  28.000  12.420   1.336
 9274W        W74094  24.539  29.958   1.844
 9275W        W74095  17.026   6.294   0.133
 9276W        W74096  30.299  24.437   9.823
 9277W        W74097   0.234  24.734  10.452
 9278W        W74098   8.283  22.545   3.550
 9279W        W74099   2.436   4.451   3.321
 9280W        W74100  12.416  36.907   2.907
 9281W        W74101  44.234   4.175   1.933
 9282W        W74102  36.896  26.892  14.361
 9283W        W74103  12.857   5.680  13.795
 9284W        W74104  36.926  22.145  12.396
 9285W        W74105  13.069  16.731  14.432
 9286W        W74106  21.254  14.076   3.689
 9287W        W74107  21.722   5.835   2.687
 9288W        W74108  27.241   9.887   4.610
 9289W        W74109  22.898  34.878   1.039
 9290W        W74110  27.601   1.034  12.054
 9291W        W74111   5.457  39.414   4.705
 9292W        W74112  10.555  41.898   1.833
 9293W        W74113   8.861  35.876  11.133
 9294W        W74114  34.943   3.872  13.846
 9295W        W74115  41.666   6.181   3.226
 9296W        W74116   6.586   0.978  11.139
 9297W        W74117  24.123  32.342   1.732
 9298W        W74118  25.834  32.254   3.556
 9299W        W74119  15.220  36.494   0.789
 9300W        W74120   5.486  41.428  11.670
 9301W        W74121  30.490   9.384  12.064
 9302W        W74122  28.012  10.106   3.831
 9303W        W74123   7.955  34.518   0.825
 9304W        W74124  21.058  36.043   2.173
 9305W        W74125   8.119  20.279  14.747
 9306W        W74126  10.738  32.952  10.649
 9307W        W74127  15.617  42.531   2.180
 9308W        W74128  44.214  33.919  11.683
 9309W        W74129   4.740  42.742   0.819
 9310W        W74130  33.059   3.204   3.699
 9311W        W74131   4.052  36.055   4.986
 9312W        W74132  43.375  15.855  13.036
 9313W        W74133  25.944   4.755  13.339
 9314W        W74134  21.272  22.719   0.035
 9315W        W74135   2.457   2.786   2.652
 9316W        W74136   0.013  23.656  14.401
 9317W        W74137  19.217   4.711   4.344
 9318W        W74138  43.662  17.591  11.348
 9319W        W74139  33.630  42.194   0.799
 9320W        W74140   9.410  31.952  14.015
 9321W        W74141  21.107  27.131   2.255
 9322W        W74142  15.775  41.657   1.801
 9323W        W74143   0.304  22.386  11.559
 9324W        W74144   4.947  38.496  11.998
 9325W        W74145   2.726  36.160  11.224
 9326W        W74146  44.449  15.700  14.310
 9327W        W74147  14.322  24.762  14.425
 9328W        W74148  31.003   7.047   4.314
 9329W        W74149   5.078  14.096   3.674
 9330W        W74150  32.028  17.173  11.283
 9331W        W74151   8.897  42.177   0.356
 9332W        W74152  44.984  28.793  14.928
 9333W        W74153   8.277  34.214   2.161
 9334W        W74154  11.826  20.556   1.270
 9335W        W74155  15.170  11.796  11.995
 9336W        W74156  21.988  17.629   3.193
 9337W        W74157  23.742   7.302  12.913
 9338W        W74158  23.755   9.771  13.499
 9339W        W74159  10.393   7.921   4.108
 9340W        W74160  27.573  13.232  10.645
 9341W        W74161  35.704  15.946   5.423
 9342W        W74162   4.236   2.327   4.367
 9343W        W74163   2.757  12.705   4.679
 9344W        W74164  31.799   9.227  10.437
 9345W        W74165  37.025  24.623  12.864
 9346W        W74166  27.998   4.158  13.439
 9347W        W74167  40.915  31.375  12.000
 9348W        W74168  42.926  23.442   5.172
 9349W        W74169  15.558   8.243   3.266
 9350W        W74170  25.190  38.374  11.608
 9351W        W74171   3.095  27.055   4.564
 9352W        W74172  17.296  24.539   3.100
 9353W        W74173   3.413  20.785   3.791
 9354W        W74174  14.820  25.815   2.296
 9355W        W74175   1.338  32.927   0.296
 9356W        W74176  28.069  43.021  13.968
 9357W        W74177  13.313  11.812  11.602
 9358W        W74178  18.583  33.623   2.283
 9359W        W74179   8.510  17.001  14.889
 9360W        W74180  24.511  14.065   0.008
 9361W        W74181  39.383  11.557  12.422
 9362W        W74182  28.243  11.143  12.626
 9363W        W74183  40.074  20.671  14.810
 9364W        W74184  35.959  18.695   0.744
 9365W        W74185  44.997   9.038   0.390
 9366W        W74186  25.337  27.446   0.803
 9367W        W74187  28.843  10.748  11.069
 9368W        W74188   7.355  27.712  10.252
 9369W        W74189  33.414  34.539  14.615
 9370W        W74190  42.263   4.974  13.427
 9371W        W74191  18.210  44.817   1.806
 9372W        W74192  11.956  22.545  13.039
 9373W        W74193  37.589  16.347   3.722
 9374W        W74194  14.226  37.408  11.126
 9375W        W74195  24.745  23.634  11.731
 9376W        W74196   3.886   8.162  10.658
 9377W        W74197   4.382  27.515  11.585
 9378W        W74198  34.939   8.739   1.698
 9379W        W74199  25.523  19.243  13.848
 9380W        W74200  38.299  22.017   2.939
 9381W        W74201   7.420  42.104  13.707
 9382W        W74202  26.472  41.644  10.753
 9383W        W74203  12.625  32.399  13.505
 9384W        W74204  29.081  41.867  14.451
 9385W        W74205  37.631  18.083   4.607
 9386W        W74206  27.754  25.021   4.500
 9387W        W74207  14.234  29.784   1.032
 9388W        W74208   0.349   7.085   0.891
 9389W        W74209  40.453  40.432   0.699
 9390W        W74210   5.379  38.029  14.525
 9391W        W74211  41.519   9.858   2.121
 9392W        W74212  26.398  32.104  10.229
 9393W        W74213  26.663   3.321   1.450
 9394W        W74214   1.315   5.624   4.053
 9395W        W74215  40.860  15.146   2.407
 9396W        W74216  23.050  20.277   3.125
 9397W        W74217  26.654  36.730  11.080
 9398W        W74218  43.948   9.103  13.500
 9399W        W74219   9.820  29.190  14.302
 9400W        W74220  13.849   5.909   4.293
 9401W        W74221  40.683  10.829   4.299
 9402W        W74222  43.513  38.271  10.523
 9403W        W74223  37.000  23.517   0.753
 9404W        W74224  30.660  39.059   4.160
 9405W        W74225  12.008  15.045   5.574
 9406W        W74226   7.257  20.105   2.382
 9407W        W74227  30.840  27.062  13.332
 9408W        W74228  27.647  42.740  14.050
 9409W        W74229  32.110  28.426  12.440
 9410W        W74230  33.155  28.520   0.180
 9411W        W74231  40.551  41.240  14.980
 9412W        W74232   0.786  19.684  10.617
 9413W        W74233  27.686   8.238  14.797
 9414W        W74234  30.036  23.326   0.501
 9415W        W74235  33.639  35.485  12.981
 9416W        W74236  22.837  33.321  14.835
 9417W        W74237   0.324  26.625   1.792
 9418W        W74238  13.560   8.924  12.419
 9419W        W74239   8.185  28.796  14.970
 9420W        W74240  19.218  25.973  10.749
 9421W        W74241   5.429   4.798   3.165
 9422W        W74242   6.900   3.943  10.713
 9423W        W74243  44.811  20.905  11.850
 9424W        W74244  38.457  40.784   3.663
 9425W        W74245  32.620  12.288  10.707
 9426W        W74246  11.930   8.370  10.778
 9427W        W74247  20.091  20.591   4.241
 9428W        W74248   3.726  29.688   1.364
 9429W        W74249  10.174   4.215   2.627
 9430W        W74250  24.023  11.891   3.659
 9431W        W74251   5.978  36.565  10.999
 9432W        W74252   3.020  16.323   2.925
 9433W        W74253  33.600  20.760  13.863
 9434W        W74254  25.335  30.234   4.586
 9435W        W74255  14.129   6.772   0.224
 9436W        W74256   8.343  25.223   2.574
 9437W        W74257  42.749  38.676  14.640
 9438W        W74258   4.205  23.832  10.844
 9439W        W74259   6.795  33.859  13.862
 9440W        W74260  23.559   4.800   1.306
 9441W        W74261  10.746  25.427   2.471
 9442W        W74262  42.059  37.158  14.449
 9443W        W74263  30.467  23.565  13.302
 9444W        W74264  44.458  16.091  13.914
 9445W        W74265  43.265  42.023  12.030
 9446W        W74266  41.393  36.550  11.017
 9447W        W74267  15.954  41.515  11.900
 9448W        W74268   2.269  17.018   4.051
 9449W        W74269  34.604  35.465   4.875
 9450W        W74270  13.153  24.725  12.570
 9451W        W74271  15.122  29.035   3.606
 9452W        W74272  14.177  19.341   2.881
 9453W        W74273  32.451   5.221  14.367
 9454W        W74274   7.892  44.788  11.519
 9455W        W74275   4.887  39.877   4.176
 9456W        W74276  19.478   9.585  14.040
 9457W        W74277  21.086  39.170   3.608
 9458W        W74278   5.217  20.159   0.765
 9459W        W74279  24.760  21.200   3.336
 9460W        W74280  15.810  37.389  14.066
 9461W        W74281  41.733  31.482  13.406
 9462W        W74282  11.718  36.053  14.902
 9463W        W74283  31.412  27.939   2.441
 9464W        W74284   9.243   8.195  14.443
 9465W        W74285   8.218   2.259   0.770
 9466W        W74286  30.590  32.696   2.568
 9467W        W74287  22.743  27.253  14.822
 9468W        W74288   9.880  14.845   1.325
 9469W        W74289  11.902  36.967   4.242
 9470W        W74290  20.920  44.423  12.875
 9471W        W74291  42.947  18.539  13.758
 9472W        W74292  43.509  37.385   3.268
 9473W        W74293  25.263   6.923  11.641
 9474W        W74294  32.980  29.613  13.030
 9475W        W74295  19.158  29.912   1.425
 9476W        W74296  36.580  13.604  10.706
 9477W        W74297  32.050   9.248   0.583
 9478W        W74298   0.934  39.618  13.509
 9479W        W74299  12.793   9.581  12.565
 9480W        W74300  35.316  29.981  11.535
 9481W        W74301  11.784  41.779   1.321
 9482W        W74302   4.204   9.340   3.683
 9483W        W74303  14.041  40.981   3.696
 9484W        W74304  13.775  24.993  11.382
 9485W        W74305   1.461  36.028   2.255
 9486W        W74306  36.308  41.390   0.468
 9487W        W74307  22.809  38.814   5.046
 9488W        W74308  16.170  11.609   4.098
 9489W        W74309   1.242  34.124  12.022
 9490W        W74310   0.540   6.663   2.822
 9491W        W74311  19.552  40.537   1.125
 9492W        W74312  24.514  12.800   4.446
 9493W        W74313  27.135  12.449   4.628
 9494W        W74314  12.241  35.854  12.572
 9495W        W74315   5.946   4.471  14.849
 9496W        W74316  31.053  15.092   1.916
 9497W        W74317  20.676  12.277  14.087
 9498W        W74318  36.891  21.251   1.382
 9499W        W74319  33.417  18.663  12.907
 9500W        W74320  18.417   6.270  14.993
 9501W        W74321  31.932  12.890   3.232
 9502W        W74322  36.638  42.054  12.338
 9503W        W74323  31.635  29.839   3.300
 9504W        W74324  38.591  17.628  13.336
 9505W        W74325  17.286  35.358   0.797
 9506W        W74326  40.960  44.731  14.621
 9507W        W74327  21.159  12.853   4.756
 9508W        W74328   7.179  28.490  11.709
 9509W        W74329  38.982  28.358  12.923
 9510W        W74330   9.187  31.561  11.023
 9511W        W74331  36.186  43.767  14.981
 9512W        W74332  39.839  32.924   1.914
 9513W        W74333  35.443  43.071   2.278
 9514W        W74334  38.790  42.174  11.975
 9515W        W74335  37.286  17.026  12.028
 9516W        W74336  25.892   8.685   4.073
 9517W        W74337  21.562  22.068   2.584
 9518W        W74338  32.452  23.208   9.834
 9519W        W74339  43.718   5.120  14.731
 9520W        W74340  17.696  24.079  11.780
 9521W        W74341  39.565  18.814   1.151
 9522W        W74342   4.722  24.772   3.027
 9523W        W74343  44.265   4.039  11.280
 9524W        W74344  41.631  35.274  13.460
 9525W        W74345  37.281  15.194  11.561
 9526W        W74346  30.579   5.621   4.719
 9527W        W74347  43.763  25.031  11.645
 9528W        W74348  14.476  10.129  11.144
 9529W        W74349  37.574  19.782   2.967
 9530W        W74350  10.929  27.120   3.313
 9531W        W74351   3.623  31.068   1.880
 9532W        W74352  18.296  20.739   0.525
 9533W        W74353  42.175  39.809  12.951
 9534W        W74354  40.535  26.613  14.576
 9535W        W74355  15.625  32.986  12.204
 9536W        W74356  27.554  10.358   1.425
 9537W        W74357  27.211  33.563  11.105
 9538W        W74358   0.807  37.328  11.945
 9539W        W74359  32.165  26.453  12.370
 9540W        W74360  14.772  40.774  10.608
 9541W        W74361  31.593  37.619   4.255
 9542W        W74362  11.971   6.335   2.236
 9543W        W74363   7.337  43.054  14.959
 9544W        W74364  13.077  33.391   1.202
 9545W        W74365  24.161   3.653   4.299
 9546W        W74366  27.412  23.371  14.513
 9547W        W74367  13.368  16.575  14.802
 9548W        W74368  31.989  33.431   0.002
 9549W        W74369  24.312  15.874   1.231
 9550W        W74370   1.139  17.235  10.751
 9551W        W74371   3.395   1.809   2.896
 9552W        W74372  38.387  29.913  12.524
 9553W        W74373   3.923   6.693   1.355
 9554W        W74374  34.284  40.754   4.022
 9555W        W74375  19.181  34.337  10.917
 9556W        W74376  28.965  33.754  12.057
 9557W        W74377   7.717  20.735  12.029
 9558W        W74378   5.045  26.603  12.587
 9559W        W74379   1.217  15.751  10.231
 9560W        W74380  29.022  22.297  10.280
 9561W        W74381  28.994  32.011  11.955
 9562W        W74382  31.049  34.490  11.548
 9563W        W74383   2.858   6.998   4.109
 9564W        W74384   1.981  34.984   3.447
 9565W        W74385   7.598  31.677   4.303
 9566W        W74386  36.772   1.345   2.661
 9567W        W74387  38.010  19.187  13.945
 9568W        W74388  13.096  24.775   2.246
 9569W        W74389  30.976  36.344  12.024
 9570W        W74390  11.870  42.799  13.340
 9571W        W74391  11.072  41.256  11.118
 9572W        W74392  10.017  39.866   2.101
 9573W        W74393  44.353   4.869  13.832
 9574W        W74394  30.658  40.416   2.776
 9575W        W74395  34.898  11.412  12.920
 9576W        W74396  16.929   3.044   0.178
 9577W        W74397  35.165  35.125   2.270
 9578W        W74398  38.528  34.548   0.814
 9579W        W74399  39.152  42.694  10.434
 9580W        W74400   9.767  16.917   1.418
 9581W        W74401  20.936  16.837   1.409
 9582W        W74402  15.192  25.783  12.476
 9583W        W74403  31.265  37.874  13.107
 9584W        W74404  15.357   9.225  12.136
 9585W        W74405  29.618  27.166   2.781
 9586W        W74406  41.601  33.884  13.031
 9587W        W74407   5.118   6.428   2.335
 9588W        W74408   4.875  36.162  13.883
 9589W        W74409  24.559   2.007   4.910
 9590W        W74410   2.206  41.746   2.686
 9591W        W74411  44.252  38.879   4.065
 9592W        W74412  24.241  38.567  12.574
 9593W        W74413   3.866   1.886   1.512
 9594W        W74414  32.927  25.661  13.856
 9595W        W74415  38.257   9.461   3.116
 9596W        W74416  14.645  36.902  12.565
 9597W        W74417  24.527   9.257   2.255
 9598W        W74418  16.988   2.810  12.981
 9599W        W74419  43.925  23.493  12.166
 9600W        W74420   8.583   1.822   9.992
 9601W        W74421  21.002   1.847  13.830
 9602W        W74422   8.387  23.700   2.555
 9603W        W74423  37.885  37.506   4.248
 9604W        W74424   9.397   4.875  13.595
 9605W        W74425  19.274   1.850   1.378
 9606W        W74426  34.090   9.343   4.614
 9607W        W74427  28.337  12.150   1.620
 9608W        W74428  34.386  39.693  12.643
 9609W        W74429  36.891  20.695   1.353
 9610W        W74430  35.088  33.419  12.344
 9611W        W74431  26.478   9.738  10.834
 9612W        W74432  12.365  31.415   1.753
 9613W        W74433  20.287   7.644  11.159
 9614W        W74434  10.824  25.926   2.601
 9615W        W74435  24.144  44.461  14.095
 9616W        W74436  33.653  12.818   2.783
 9617W        W74437   3.357  20.077   4.537
 9618W        W74438  16.901  36.434   3.639
 9619W        W74439  20.729  28.025  13.418
 9620W        W74440  33.102  30.365   1.197
 9621W        W74441  12.646  16.781  13.552
 9622W        W74442   7.329  14.117   4.340
 9623W        W74443  24.616  36.337  13.607
 9624W        W74444   1.880  12.108   0.351
 9625W        W74445   6.987  42.102  13.053
 9626W        W74446   1.666  23.191   4.375
 9627W        W74447  11.285  21.747  10.610
 9628W        W74448   7.405   7.274  13.850
 9629W        W74449  21.761   7.031   0.373
 9630W        W74450  41.981   6.853   2.172
 9631W        W74451  42.075  36.996  11.320
 9632W        W74452  35.827  30.981   0.404
 9633W        W74453  26.671  34.970  11.119
 9634W        W74454  35.587  31.091  14.551
 9635W        W74455  26.927   2.905   5.090
 9636W        W74456   9.837  15.863   0.807
 9637W        W74457   9.074   2.929  12.000
 9638W        W74458   3.500  14.525   0.817
 9639W        W74459  35.670  23.041  12.400
 9640W        W74460  38.607  15.723   2.856
 9641W        W74461  17.274  12.932   2.662
 9642W        W74462  10.214  36.094   2.334
 9643W        W74463  27.183  44.831   4.259
 9644W        W74464  37.660   8.252   5.126
 9645W        W74465  42.347  17.126  10.683
 9646W        W74466  23.232  33.027   3.287
 9647W        W74467  20.311  24.711  11.674
 9648W        W74468   2.976  41.842   0.661
 9649W        W74469  34.911  43.635  11.581
 9650W        W74470  41.527  39.809  10.772
 9651W        W74471  24.085  32.310  13.103
 9652W        W74472   1.770   3.362  10.757
 9653W        W74473  21.446  31.372   4.614
 9654W        W74474   5.121  13.539   2.766
 9655W        W74475   6.162   8.202  13.791
 9656W        W74476   6.885  32.191   0.940
 9657W        W74477  15.633  40.281  10.774
 9658W        W74478  10.216  25.182  14.962
 9659W        W74479   9.201  16.507  14.130
 9660W        W74480  25.326  16.577  14.162
 9661W        W74481  13.534   9.233  11.336
 9662W        W74482  13.147   1.954   3.177
 9663W        W74483  10.281  28.933  14.352
 9664W        W74484  33.653  30.720  10.874
 9665W        W74485   9.106  12.785   2.816
 9666W        W74486   1.675  29.951  14.441
 9667W        W74487   7.216  28.972  11.138
 9668W        W74488  40.457  39.498  10.470
 9669W        W74489   8.795  31.910  11.538
 9670W        W74490   1.579   7.856   0.934
 9671W        W74491  14.113  31.895  14.938
 9672W        W74492   5.299  30.424   4.095
 9673W        W74493  20.044  15.975  12.603
 9674W        W74494  43.649  40.074   4.558
 9675W        W74495  39.593   9.666  11.012
 9676W        W74496  31.579  26.929   0.307
 9677W        W74497  32.362  15.086   2.115
 9678W        W74498  34.926  18.268  13.404
 9679W        W74499  19.902  35.600   4.656
 9680W        W74500   6.173  17.266  11.741
 9681W        W74501  40.974   4.296  14.766
 9682W        W74502  40.771  11.228  14.855
 9683W        W74503  29.525  42.769   3.641
 9684W        W74504   1.914  15.018   3.415
 9685W        W74505  35.519   0.895   3.102
 9686W        W74506   5.739  38.065   2.368
 9687W        W74507  11.231  19.362  11.177
 9688W        W74508   8.922   6.726   3.843
 9689W        W74509  41.658  29.553  13.971
 9690W        W74510  40.874  22.167  11.142
 9691W        W74511  25.026  18.294   2.312
 9692W        W74512   3.247   1.177  14.076
 9693W        W74513   7.927  30.607   9.969
 9694W        W74514  39.308  41.833  11.522
 9695W        W74515   0.795  38.838   2.761
 9696W        W74516  15.668  25.138   3.133
 9697W        W74517  38.893  36.130   4.526
 9698W        W74518  21.791  30.575  14.807
 9699W        W74519   6.786   6.393  10.786
 9700W        W74520   7.437  24.785   1.064
 9701W        W74521  33.070   9.415  11.226
 9702W        W74522   9.797  40.096   1.620
 9703W        W74523   1.411  20.036  14.723
 9704W        W74524  21.129   2.963   0.551
 9705W        W74525  25.022   1.375  13.364
 9706W        W74526  27.154  36.233   1.076
 9707W        W74527  36.161  32.001   1.308
 9708W        W74528  14.688  23.603   4.200
 9709W        W74529  27.225   6.308   2.166
 9710W        W74530  29.722  27.126  14.906
 9711W        W74531  12.705  23.205   1.966
 9712W        W74532  20.873   3.860   1.002
 9713W        W74533  38.876  39.062   2.180
 9714W        W74534  10.641   1.145  14.241
 9715W        W74535  34.531  37.022   4.723
 9716W        W74536  41.879  43.246   2.497
 9717W        W74537   0.315  37.986  12.386
 9718W        W74538  33.153   5.780   1.747
 9719W        W74539  21.442   8.719  14.369
 9720W        W74540  11.215  27.420   2.747
 9721W        W74541  33.004  38.324  14.927
 9722W        W74542  22.815   1.888   2.794
 9723W        W74543  25.642  13.748   4.986
 9724W        W74544  33.290   7.814  12.394
 9725W        W74545   9.264  11.243   0.868
 9726W        W74546   8.659  39.018   0.088
 9727W        W74547   9.123  26.440  12.768
 9728W        W74548  19.464   9.169   3.012
 9729W        W74549  44.241  18.141   0.594
 9730W        W74550  19.009  31.666  13.930
 9731W        W74551  41.579  40.971  13.940
 9732W        W74552   6.482  40.585   1.222
 9733W        W74553  17.175  39.542  10.998
 9734W        W74554  10.393   0.362  13.559
 9735W        W74555   9.438   5.293   1.372
 9736W        W74556  44.038  31.424   1.429
 9737W        W74557  18.024  18.759  11.541
 9738W        W74558  32.822   4.228  14.765
 9739W        W74559  29.683   0.398  13.965
 9740W        W74560  37.898  33.970   2.938
 9741W        W74561   8.913  35.913  12.050
 9742W        W74562  20.693  29.725  10.553
 9743W        W74563  31.888   5.467   0.378
 9744W        W74564  16.401   3.312   0.835
 9745W        W74565  27.678   3.993   0.790
 9746W        W74566  11.722  26.758   3.166
 9747W        W74567  15.784  30.590   0.930
 9748W        W74568   0.469  20.946   1.473
 9749W        W74569  36.588   6.660   1.317
 9750W        W74570  35.775  22.220  12.964
 9751W        W74571  18.031  32.631  12.010
 9752W        W74572  24.652   9.839  13.483
 9753W        W74573  21.550  10.564   3.077
 9754W        W74574  13.412  41.995   0.333
 9755W        W74575  16.076  12.153   4.068
 9756W        W74576  42.491  31.419   3.629
 9757W        W74577  37.486  24.109  14.308
 9758W        W74578  42.892  30.012   3.172
 9759W        W74579  44.449  16.599  13.835
 9760W        W74580  40.019  27.879  12.162
 9761W        W74581  12.780  41.494   4.382
 9762W        W74582  32.901  23.566  13.574
 9763W        W74583   6.447  18.526   0.218
 9764W        W74584  16.036  20.777   2.351
 9765W        W74585  32.994  32.184   0.673
 9766W        W74586   3.430  24.261   2.707
 9767W        W74587  35.615  39.438   0.018
 9768W        W74588  27.948  12.146  11.569
 9769W        W74589  24.678  16.052  14.789
 9770W        W74590  20.805  19.190  11.599
 9771W        W74591  40.027  41.024   2.825
 9772W        W74592  41.020  41.420   4.385
 9773W        W74593  20.477  25.184  11.636
 9774W        W74594  25.149  29.021  14.841
 9775W        W74595  22.361  24.919   5.118
 9776W        W74596  16.992  35.161  11.245
 9777W        W74597   4.753  35.882  14.327
 9778W        W74598   6.832  29.713  12.828
 9779W        W74599   6.373  36.866  12.862
 9780W        W74600  27.693   1.922   0.764
 9781W        W74601   0.799  29.617  12.041
 9782W        W74602  20.644   8.702  11.605
 9783W        W74603  29.051  23.302   0.292
 9784W        W74604  13.412  24.651  12.130
 9785W        W74605  33.454   3.781  11.692
 9786W        W74606   3.878  16.691  13.776
 9787W        W74607  32.980  21.956   3.169
 9788W        W74608  16.060  10.368  11.606
 9789W        W74609  21.153   9.815   1.400
 9790W        W74610  40.519  36.877   3.400
 9791W        W74611  20.309  34.944  13.847
 9792W        W74612  36.673  31.284  12.975
 9793W        W74613  36.984  21.530  14.346
 9794W        W74614  26.157  43.821   3.709
 9795W        W74615  37.867  43.896  10.940
 9796W        W74616  20.722  37.684  13.927
 9797W        W74617  19.524   0.524   4.133
 9798W        W74618  17.803   1.902  12.672
 9799W        W74619   1.944  23.494   0.314
 9800W        W74620  20.104  31.891   4.439
 9801W        W74621   3.290  37.432   2.145
 9802W        W74622   1.303  27.994  10.435
 9803W        W74623  33.356  33.050   4.126
 9804W        W74624  22.682   3.499  14.940
 9805W        W74625  12.531   3.865  14.019
 9806W        W74626  14.462  26.926   0.289
 9807W        W74627  19.981  25.163  13.741
 9808W        W74628  23.767   2.121  10.389
 9809W        W74629  40.381  35.435   3.780
 9810W        W74630  29.340  35.850  12.431
 9811W        W74631  34.441  24.450  13.315
 9812W        W74632  44.927  40.919   3.788
 9813W        W74633  20.016  14.007   3.243
 9814W        W74634  23.558  17.612   1.617
 9815W        W74635  20.482  37.037  13.612
 9816W        W74636  35.251   9.776   4.058
 9817W        W74637  43.282  15.585  13.478
 9818W        W74638   9.145  31.460   1.270
 9819W        W74639  21.106  43.498   3.532
 9820W        W74640  13.731  12.060   3.290
 9821W        W74641   4.600  37.542  11.124
 9822W        W74642  39.352  28.983   2.931
 9823W        W74643  28.318  15.085   4.671
 9824W        W74644   4.675  10.559   4.195
 9825W        W74645  25.088  28.132   1.615
 9826W        W74646   6.981  38.408   3.178
 9827W        W74647  26.387  32.139   1.890
 9828W        W74648  21.064  20.718  11.148
 9829W        W74649  39.733  27.695   1.769
 9830W        W74650  12.136  33.520  12.532
 9831W        W74651  44.998  43.503  13.855
 9832W        W74652  33.517  19.310   3.792
 9833W        W74653  23.194   0.454  13.767
 9834W        W74654  16.121   0.194  12.907
 9835W        W74655  31.171   5.500   3.067
 9836W        W74656  24.250  26.032  11.997
 9837W        W74657   9.676  38.535   1.804
 9838W        W74658  17.176  10.247  12.418
 9839W        W74659  17.618  44.617  11.535
 9840W        W74660  35.807  43.332  13.810
 9841W        W74661  35.435  10.644   5.452
 9842W        W74662  13.857  20.426   1.826
 9843W        W74663  43.982   1.723  12.453
 9844W        W74664  19.186   5.376   3.767
 9845W        W74665  15.239  14.636   2.111
 9846W        W74666   7.464  13.354  13.026
 9847W        W74667  17.358   1.265  13.374
 9848W        W74668  19.652  37.856  13.462
 9849W        W74669  43.273  15.359   4.075
 9850W        W74670  30.018  14.769   1.501
 9851W        W74671  24.788  33.274   2.568
 9852W        W74672  31.685   6.624  13.447
 9853W        W74673  11.567   2.934  10.744
 9854W        W74674  34.096   0.962  12.296
 9855W        W74675  39.897  30.389  14.156
 9856W        W74676  36.597  15.478  12.088
 9857W        W74677  30.972  44.266   1.928
 9858W        W74678   2.979  10.284   1.179
 9859W        W74679  30.631  41.445   3.853
 9860W        W74680  24.185  37.780  11.166
 9861W        W74681  21.262  26.388   3.413
 9862W        W74682  13.280  30.721   3.644
 9863W        W74683  42.115  43.385  11.126
 9864W        W74684   4.899  36.019   3.133
 9865W        W74685  41.414   5.530   0.931
 9866W        W74686  21.541  39.530  12.951
 9867W        W74687   4.864  13.204  10.559
 9868W        W74688   4.517  15.837   4.662
 9869W        W74689  10.019  36.811  10.283
 9870W        W74690  36.447  24.717  12.134
 9871W        W74691  29.583   6.995   1.949
 9872W        W74692  44.300  37.021   2.656
 9873W        W74693  23.694  35.192  10.727
 9874W        W74694  25.619  21.070   1.217
 9875W        W74695  28.541  33.636   1.201
 9876W        W74696  23.108  19.135   4.139
 9877W        W74697  40.327   5.883  13.314
 9878W        W74698   4.946  41.466  13.978
 9879W        W74699  25.070  30.455  10.736
 9880W        W74700  32.522  43.352  13.450
 9881W        W74701   9.360  29.948   3.074
 9882W        W74702  16.168  38.968   0.211
 9883W        W74703  13.071  27.422  14.261
 9884W        W74704   9.919  38.077   3.289
 9885W        W74705  37.632  14.301   1.805
 9886W        W74706   8.279  42.382  13.527
 9887W        W74707   6.311   6.170  13.900
 9888W        W74708  27.320  10.308   0.247
 9889W        W74709  37.956  15.769  11.488
 9890W        W74710   5.903   3.856   1.379
 9891W        W74711  26.442   6.797   3.365
 9892W        W74712  15.469  16.632   0.900
 9893W        W74713  13.348  44.955   2.285
 9894W        W74714  27.401  22.597   2.754
 9895W        W74715  41.295   7.427  10.698
 9896W        W74716  32.766  39.520  13.505
 9897W        W74717  18.682   5.220  14.512
 9898W        W74718  38.847  26.530   0.053
 9899W        W74719  29.031  44.953  13.011
 9900W        W74720  38.367   5.267   0.187
 9901W        W74721  32.372  27.842  10.673
 9902W        W74722   1.436  43.531   0.772
 9903W        W74723  22.163   9.594   1.782
 9904W        W74724  41.326  30.975   1.277
 9905W        W74725   5.181  17.355   4.066
 9906W        W74726  26.461  20.088   2.229
 9907W        W74727  34.956  19.625  10.324
 9908W        W74728   3.945   7.866  14.429
 9909W        W74729  27.426   8.309  14.315
 9910W        W74730  32.230  30.323   3.782
 9911W        W74731   1.891  10.914   1.787
 9912W        W74732  36.623  23.709  11.084
 9913W        W74733   9.355  11.267  12.544
 9914W        W74734  31.078   2.990  13.844
 9915W        W74735  42.467  14.246   1.325
 9916W        W74736  41.855  36.414   1.329
 9917W        W74737   1.093   8.233  14.654
 9918W        W74738  22.989  15.374  14.888
 9919W        W74739   3.902  15.160   0.442
 9920W        W74740  16.506  22.472  11.163
 9921W        W74741  38.816   4.868  13.844
 9922W        W74742   2.765  23.788  10.473
 9923W        W74743  31.337  17.053  13.831
 9924W        W74744   0.054  27.211   4.519
 9925W        W74745  25.716  35.026  12.898
 9926W        W74746  13.678  13.589  12.433
 9927W        W74747  41.409   1.759  11.444
 9928W        W74748   5.131   2.450  13.774
 9929W        W74749  15.595  12.764   3.136
 9930W        W74750   5.958  44.324  11.258
 9931W        W74751   2.741  41.050  14.448
 9932W        W74752  29.219  17.910   3.112
 9933W        W74753  40.067  22.208   4.917
 9934W        W74754  20.186  18.010  14.908
 9935W        W74755   6.719  12.324  10.950
 9936W        W74756  27.953   9.276  13.462
 9937W        W74757  13.822  17.129   0.895
 9938W        W74758  22.123   9.337  12.842
 9939W        W74759   3.740  41.755   4.315
 9940W        W74760  39.079  37.620   2.154
 9941W        W74761  31.154  11.101  11.896
 9942W        W74762  24.470   8.749   4.316
 9943W        W74763  37.301  14.772   2.733
 9944W        W74764   0.392  28.899  13.085
 9945W        W74765   0.886  10.808   0.960
 9946W        W74766  21.709   3.190  14.844
 9947W        W74767   3.745  34.989   2.737
 9948W        W74768  40.836  24.217   3.734
 9949W        W74769  20.766  16.035  10.642
 9950W        W74770   1.369   7.445  10.743
 9951W        W74771  16.848   7.864  12.938
 9952W        W74772   8.194  42.804  12.111
 9953W        W74773  14.570  24.678  13.066
 9954W        W74774  20.637  31.425   0.791
 9955W        W74775  41.161   8.851  12.055
 9956W        W74776  18.341   1.822  11.460
 9957W        W74777  31.137  20.144   3.416
 9958W        W74778  39.561  17.666   4.869
 9959W        W74779  17.253  43.103   5.057
 9960W        W74780  22.654  18.527   2.219
 9961W        W74781  35.820  27.510   2.857
 9962W        W74782   5.210   3.748   4.012
 9963W        W74783  15.497  34.661   2.124
 9964W        W74784  33.099  12.279   1.803
 9965W        W74785  17.604   1.818  12.161
 9966W        W74786   0.008  24.161  14.547
 9967W        W74787   4.859  43.116  12.433
 9968W        W74788  12.560  12.149  11.448
 9969W        W74789  40.583  15.937  10.260
 9970W        W74790  16.784  23.985   4.672
 9971W        W74791  22.847   0.906  12.581
 9972W        W74792  20.897   9.323   1.725
 9973W        W74793  26.314  30.655   4.541
 9974W        W74794  40.778  36.041   3.096
 9975W        W74795  17.077  28.935  12.563
 9976W        W74796   3.732   2.466  14.846
 9977W        W74797  41.376  25.469  13.552
 9978W        W74798  18.525  40.272  10.268
 9979W        W74799  38.604  29.097  10.714
 9980W        W74800  21.619   6.686  12.255
 9981W        W74801  35.482  38.243  14.588
 9982W        W74802  36.402  43.345  11.442
 9983W        W74803  39.402  33.919  14.645
 9984W        W74804  17.721   6.395  12.052
 9985W        W74805  21.790  23.115   1.970
 9986W        W74806  16.494   4.530   0.313
 9987W        W74807  14.576  24.728  13.956
 9988W        W74808  17.722  40.306  12.028
 9989W        W74809  27.070  11.804  14.019
 9990W        W74810  39.620   3.793   1.854
 9991W        W74811   4.221  26.699  11.169
 9992W        W74812   2.301  13.237  14.919
 9993W        W74813  25.065  44.421   9.809
 9994W        W74814  12.934  30.111  12.505
 9995W        W74815  19.047  36.549   1.776
 9996W        W74816  30.313  16.143   1.616
 9997W        W74817   3.588   2.174   3.748
 9998W        W74818  21.685  37.482   3.534
 9999W        W74819  44.473  41.951   0.407
10000W        W74820  16.881  28.446   0.712
10001W        W74821  43.745  41.931  14.668
10002W        W74822   3.228   2.397   4.093
10003W        W74823   8.976  11.904  13.843
10004W        W74824  26.778  33.787   5.475
10005W        W74825  25.466  35.514   2.566
10006W        W74826   2.272  35.368   0.767
10007W        W74827  19.883  18.226   0.979
10008W        W74828  18.728  25.114  11.709
10009W        W74829  32.078  39.966   1.301
10010W        W74830  37.921  29.188  13.605
10011W        W74831   7.347  31.900  11.141
10012W        W74832  25.694  15.634  14.004
10013W        W74833  35.625   9.240   2.739
10014W        W74834  44.237  30.393  10.202
10015W        W74835  44.494  25.271   0.781
10016W        W74836  35.659  24.993  10.702
10017W        W74837   8.706  10.648  13.364
10018W        W74838  17.230  44.395   4.193
10019W        W74839  26.373  39.060  13.362
10020W        W74840  26.497  32.038   0.338
10021W        W74841  44.247  31.140   3.111
10022W        W74842  20.179  19.533  12.535
10023W        W74843  40.413  19.716  11.142
10024W        W74844  17.724   4.144  12.904
10025W        W74845  24.480  22.701   2.714
10026W        W74846   0.006  30.103   0.761
10027W        W74847  19.909  42.521  11.602
10028W        W74848  29.342  14.227  10.811
10029W        W74849  34.973  10.887  10.598
10030W        W74850  18.721  35.484   1.788
10031W        W74851  39.871  20.238   1.383
10032W        W74852  11.272  41.628  13.945
10033W        W74853  12.824  10.762  13.944
10034W        W74854  40.315  18.531   2.580
10035W        W74855   0.544   6.101  13.031
10036W        W74856  28.076  36.576  13.054
10037W        W74857  36.626  20.247   2.737
10038W        W74858  30.153  16.116   0.745
10039W        W74859  10.863  13.757   4.588
10040W        W74860  29.388  21.339   4.852
10041W        W74861  20.121   5.430  11.595
10042W        W74862  40.589  24.138  11.530
10043W        W74863  23.551  29.164  12.362
10044W        W74864   7.842  40.914  10.280
10045W        W74865  16.693   8.537   2.733
10046W        W74866   8.027   9.750  12.415
10047W        W74867  32.748  31.077  14.871
10048W        W74868  41.589   7.121  14.959
10049W        W74869  35.566  36.787  14.786
10050W        W74870  41.053  21.828  12.027
10051W        W74871  32.114  41.170   1.757
10052W        W74872  21.803  43.343  11.967
10053W        W74873  29.252  18.214   3.881
10054W        W74874  43.890  34.141  14.854
10055W        W74875  31.973  39.404   4.616
10056W        W74876  44.870  37.923   2.193
10057W        W74877  10.219  26.109  14.957
10058W        W74878  21.976  20.796   2.751
10059W        W74879   6.464  44.122   0.434
10060W        W74880  18.797  30.185  10.682
10061W        W74881  26.904  14.386  11.472
10062W        W74882  19.415  11.427  14.444
10063W        W74883   6.043   0.374   1.992
10064W        W74884  16.663  40.637  13.277
10065W        W74885  34.857   0.775   1.427
10066W        W74886  37.491  44.642   1.818
10067W        W74887  35.442  20.513  13.122
10068W        W74888  41.743   3.855   4.279
10069W        W74889  30.666  12.860   1.813
10070W        W74890  27.976  26.425   2.066
10071W        W74891   6.153  30.067   3.102
10072W        W74892  40.777  25.005  12.588
10073W        W74893  26.064  25.189  12.631
10074W        W74894  30.472  43.976  11.041
10075W        W74895  21.610  31.005   0.049
10076W        W74896  24.162  21.078  13.955
10077W        W74897  36.359  40.101  10.449
10078W        W74898   7.038  11.247   4.196
10079W        W74899  37.907  18.888   2.625
10080W        W74900  22.100   6.244  11.693
10081W        W74901  22.466  35.354   2.973
10082W        W74902  35.996  32.320  12.150
10083W        W74903  33.476  10.747   2.747
10084W        W74904  16.757  23.467  13.490
10085W        W74905  43.436  44.300  11.991
10086W        W74906  24.549   9.724   0.390
10087W        W74907  20.620  22.566  14.131
10088W        W74908  29.432  11.838   1.446
10089W        W74909  34.373   3.453   4.146
10090W        W74910  16.846  22.987   3.711
10091W        W74911  14.681   4.174  13.080
10092W        W74912   9.154   2.937  12.857
10093W        W74913  25.173  28.460  11.631
10094W        W74914  41.999  18.776   3.774
10095W        W74915  20.859  39.110   2.615
10096W        W74916  18.307   6.173  14.456
10097W        W74917  15.090  40.751  13.911
10098W        W74918  10.167  18.648   1.593
10099W        W74919  41.302   0.984   2.541
10100W        W74920  14.360  16.696   4.574
10101W        W74921   6.202  38.412   2.804
10102W        W74922  44.421  11.162  13.989
10103W        W74923  19.593  40.701   0.054
10104W        W74924   3.929  25.264  12.972
10105W        W74925   7.866  39.045   4.159
10106W        W74926  12.290  42.517   4.918
10107W        W74927  10.644  34.475  10.525
10108W        W74928  21.024  13.090  12.207
10109W        W74929  27.615  28.673  10.672
10110W        W74930  42.748  38.948  12.054
10111W        W74931  20.592  43.952   0.878
10112W        W74932  29.119   4.370   2.933
10113W        W74933  32.040  37.041  13.387
10114W        W74934   7.289  36.208   0.781
10115W        W74935  16.400   0.446  11.650
10116W        W74936  41.494   0.803  13.505
10117W        W74937  40.535  42.118   4.091
10118W        W74938  23.649   9.952  12.974
10119W        W74939  40.451   5.830   1.024
10120W        W74940  17.850  20.759   3.658
10121W        W74941  16.501  34.522  11.551
10122W        W74942  41.382  39.215   4.146
10123W        W74943  37.101  38.112  14.387
10124W        W74944  10.155  26.655  10.737
10125W        W74945  12.519  28.144  13.986
10126W        W74946  36.031  24.986   2.248
10127W        W74947  23.889  36.126  13.258
10128W        W74948   2.980  29.903  13.965
10129W        W74949  22.488  43.954   1.394
10130W        W74950  42.863   7.349  10.771
10131W        W74951   8.060  25.627   9.932
10132W        W74952  35.445  40.957   1.950
10133W        W74953  33.554  18.688  11.906
10134W        W74954  37.916  18.169  13.464
10135W        W74955  15.627  29.103   3.564
10136W        W74956  23.492  28.446   0.832
10137W        W74957  39.380   5.846   4.284
10138W        W74958  27.104  13.243   1.827
10139W        W74959  16.512   8.893   2.114
10140W        W74960  18.799  34.734   3.746
10141W        W74961  21.871  44.609  10.239
10142W        W74962  10.233  10.239   4.697
10143W        W74963  26.709  39.182  12.060
10144W        W74964  19.459  36.044  11.463
10145W        W74965  12.193  28.850  11.491
10146W        W74966  41.003  14.273   4.656
10147W        W74967  12.551  13.258   1.925
10148W        W74968   7.188  12.051   1.245
10149W        W74969  38.463  38.036  11.060
10150W        W74970   3.849   6.201  13.958
10151W        W74971  27.960  14.288   2.131
10152W        W74972   7.887  33.198  12.059
10153W        W74973  20.745  40.119  12.840
10154W        W74974  42.444  11.627   0.869
10155W        W74975  31.635   2.880  14.914
10156W        W74976  11.654  22.605  11.116
10157W        W74977  33.020  43.807  10.502
10158W        W74978  10.961  10.667   1.677
10159W        W74979  29.972   1.325   1.153
10160W        W74980   1.266  33.034   3.044
10161W        W74981  18.287   3.865  10.668
10162W        W74982  11.887  16.685  13.839
10163W        W74983  37.971  30.603  14.719
10164W        W74984  31.467   9.890   0.406
10165W        W74985  16.591  40.220  11.106
10166W        W74986   5.823  17.232  10.924
10167W        W74987  39.467  38.081   3.770
10168W        W74988  15.178  13.880   1.950
10169W        W74989  27.621   1.659   4.112
10170W        W74990   7.379  14.932  13.940
10171W        W74991  42.254  10.013   1.772
10172W        W74992  27.882  34.300  13.097
10173W        W74993  27.216  29.086  12.884
10174W        W74994  15.787  14.908  13.637
10175W        W74995  44.014  20.479  11.098
10176W        W74996  27.227  25.000   4.489
10177W        W74997   2.765  24.585  13.928
10178W        W74998  31.746  16.484   0.006
10179W        W74999  41.006  40.512  11.198
10180W        W75000  29.614  26.624  11.620
10181W        W75001  35.416  29.380  10.527
10182W        W75002   2.176  23.628   2.925
10183W        W75003  30.021  10.157  10.173
10184W        W75004  42.659  26.461   0.422
10185W        W75005   6.733  29.447   0.330
10186W        W75006  39.541  41.610  11.112
10187W        W75007  14.196  40.383  11.847
10188W        W75008   7.882  10.193   2.250
10189W        W75009  23.373  21.993  13.578
10190W        W75010  40.942  40.323   0.543
10191W        W75011   9.767  43.842   3.590
10192W        W75012  38.961   7.176  11.587
10193W        W75013  30.428  10.708   0.248
10194W        W75014   8.912  20.769  10.230
10195W        W75015   0.485  35.706   2.294
10196W        W75016   3.800  43.024   9.861
10197W        W75017  22.104  16.858   0.604
10198W        W75018  33.586  35.794   3.786
10199W        W75019  20.475  35.978  11.660
10200W        W75020  15.525  10.710  14.887
10201W        W75021  13.145  12.044  14.339
10202W        W75022  40.345  36.517   4.837
10203W        W75023  36.050  24.156  10.011
10204W        W75024  11.341  44.529  12.619
10205W        W75025  10.785  13.030   3.148
10206W        W75026  12.700   9.729   0.265
10207W        W75027   0.746  35.093   3.649
10208W        W75028   0.329   5.245  12.463
10209W        W75029  26.446  40.556  10.782
10210W        W75030   7.222  24.111  13.009
10211W        W75031  14.605   4.955   4.465
10212W        W75032  11.390  23.863  10.748
10213W        W75033   0.981  30.414  11.256
10214W        W75034   5.382  21.126   2.890
10215W        W75035  23.579  15.105   1.715
10216W        W75036  20.571  14.281   1.472
10217W        W75037  27.111  19.030  14.325
10218W        W75038  24.504  38.254  13.493
10219W        W75039   6.514  38.045   1.693
10220W        W75040   7.202  27.672  10.725
10221W        W75041   4.971   2.926  13.928
10222W        W75042  37.922   1.723  14.911
10223W        W75043  12.942  36.789   2.890
10224W        W75044  29.060  44.811   1.767
10225W        W75045   3.200   2.360   0.798
10226W        W75046  31.140  22.432  14.822
10227W        W75047  36.580   7.248  10.782
10228W        W75048  32.005  14.762  12.218
10229W        W75049   3.871  43.730   1.132
10230W        W75050  30.612   5.249  11.099
10231W        W75051   7.358   9.197  11.252
10232W        W75052   3.882  12.048   0.398
10233W        W75053  14.892   3.468   3.719
10234W        W75054  42.277  36.520   3.322
10235W        W75055   8.141  15.653  12.250
10236W        W75056   2.931  26.709  11.451
10237W        W75057  16.716  43.787   3.552
10238W        W75058  16.535  23.580  12.960
10239W        W75059  12.632  33.135  11.713
10240W        W75060   0.864  23.703  12.513
10241W        W75061  24.294  19.706   0.425
10242W        W75062  34.155  16.080   1.738
10243W        W75063   7.184   7.653  11.311
10244W        W75064   3.770  28.966   1.815
10245W        W75065  20.986  13.657   3.556
10246W        W75066  22.308   3.342   3.218
10247W        W75067  20.208   5.274  14.078
10248W        W75068  23.593  13.139  13.081
10249W        W75069  13.307   7.805   2.823
10250W        W75070  34.720  37.560   3.644
10251W        W75071  39.044  37.477  13.549
10252W        W75072  35.527  33.442  12.616
10253W        W75073  10.630  15.679  12.302
10254W        W75074   9.053  32.032   3.607
10255W        W75075  12.486  26.423   3.793
10256W        W75076  43.799  18.333  13.464
10257W        W75077  19.034  32.355   1.930
10258W        W75078  31.841   9.965   4.296
10259W        W75079   2.589  43.360   2.332
10260W        W75080   3.108   3.245  11.596
10261W        W75081   0.985  20.087   1.322
10262W        W75082  37.064  37.964   2.672
10263W        W75083  18.372  19.628  11.575
10264W        W75084  14.550  15.621   0.834
10265W        W75085  44.430   7.802  11.633
10266W        W75086  19.627  17.382   2.278
10267W        W75087  14.371  11.329  11.967
10268W        W75088  25.083   8.271  14.817
10269W        W75089  40.117   8.857  14.377
10270W        W75090  13.187  32.012   3.663
10271W        W75091  13.675  20.114  11.927
10272W        W75092   4.272  23.951   1.357
10273W        W75093   0.957  15.282  12.968
10274W        W75094  17.867  31.932  13.136
10275W        W75095   0.901   3.753   1.238
10276W        W75096  30.911  23.285   5.009
10277W        W75097  34.998  39.896  10.500
10278W        W75098  17.331  16.294  14.994
10279W        W75099  23.460  25.105  13.042
10280W        W75100   5.947  40.558  10.706
10281W        W75101  32.507  23.042  12.968
10282W        W75102  44.248  34.510  13.317
10283W        W75103  43.039  12.608   3.252
10284W        W75104  22.326  41.335  12.022
10285W        W75105   5.117  33.870   5.097
10286W        W75106  36.572   6.454   2.735
10287W        W75107  25.353  39.484   2.738
10288W        W75108  29.541  37.388  14.303
10289W        W75109  42.702  13.192   1.905
10290W        W75110  25.097  21.489  12.136
10291W        W75111  29.031   1.494  11.246
10292W        W75112  21.809  12.908  11.612
10293W        W75113   7.776  15.669   1.638
10294W        W75114  34.922  11.996  10.667
10295W        W75115  18.352   8.950   5.043
10296W        W75116  12.181  38.137   2.767
10297W        W75117  32.976  22.428  14.412
10298W        W75118   7.261  23.116  14.686
10299W        W75119   8.251  32.476  11.135
10300W        W75120  14.852  34.391  14.699
10301W        W75121  19.170  14.803   3.752
10302W        W75122  23.213  23.028   3.250
10303W        W75123  29.346  29.094   4.213
10304W        W75124  21.150  30.125  11.996
10305W        W75125  43.327  43.066   4.637
10306W        W75126   9.835  17.412   3.067
10307W        W75127  13.103  32.461   4.243
10308W        W75128  34.170  33.620   1.350
10309W        W75129   0.980  43.312   3.652
10310W        W75130   0.587  20.578   4.450
10311W        W75131  22.438  15.701   3.250
10312W        W75132  42.869  12.443   2.336
10313W        W75133  44.252  29.424   2.901
10314W        W75134   6.139  33.216   2.674
10315W        W75135   2.820  17.946   2.742
10316W        W75136   2.353  13.733   2.322
10317W        W75137  40.971  12.832   1.839
10318W        W75138  44.867  24.374  10.386
10319W        W75139  18.627  42.100   1.998
10320W        W75140   1.251   2.259  13.852
10321W        W75141  32.435  44.738   0.578
10322W        W75142  33.066  41.852  12.028
10323W        W75143  18.895  29.147  11.498
10324W        W75144   2.227  41.844   4.158
10325W        W75145  44.386  25.055  14.622
10326W        W75146  15.344  42.334   0.054
10327W        W75147  31.964  43.752  14.467
10328W        W75148   3.063  42.101  14.387
10329W        W75149  42.807  38.518  13.611
10330W        W75150   8.801  33.590  11.927
10331W        W75151  20.092  10.285   3.504
10332W        W75152   3.952  38.131   2.950
10333W        W75153  43.468  21.210   1.105
10334W        W75154   4.925  26.965  14.726
10335W        W75155   8.883  22.774  12.412
10336W        W75156   8.982  21.631  14.863
10337W        W75157  30.671  25.483   5.370
10338W        W75158  33.843  22.385  10.737
10339W        W75159  35.610  11.640  11.640
10340W        W75160  31.995  20.156   0.745
10341W        W75161  25.055   1.346  12.849
10342W        W75162  37.983  27.627  12.477
10343W        W75163  23.514   5.343  11.235
10344W        W75164  24.996   6.742  13.022
10345W        W75165  44.445  39.462  13.037
10346W        W75166   4.149  22.576   0.523
10347W        W75167  35.774  34.147   3.308
10348W        W75168  22.043  20.059   3.233
10349W        W75169  17.219  30.155  14.094
10350W        W75170   2.801  32.390   0.884
10351W        W75171   4.982  21.137   4.614
10352W        W75172  22.961  43.311   3.984
10353W        W75173  36.005  34.137  11.617
10354W        W75174  25.518  35.721   0.417
10355W        W75175  17.569   3.229  10.717
10356W        W75176  42.557  14.777   2.238
10357W        W75177  20.508  28.561  10.747
10358W        W75178  34.130  13.791   0.765
10359W        W75179  29.888  39.915  10.377
10360W        W75180  12.686  14.600   2.422
10361W        W75181  33.381   7.482   5.024
10362W        W75182  42.279  29.928   0.513
10363W        W75183   7.261  19.449   4.923
10364W        W75184  31.395   0.494  11.600
10365W        W75185  34.363  21.237   0.007
10366W        W75186   3.665  28.151   4.467
10367W        W75187  28.599  12.881  14.007
10368W        W75188  26.683  26.370   1.272
10369W        W75189  44.461  33.955  13.112
10370W        W75190  37.628   1.655  11.976
10371W        W75191  35.987  31.917   4.177
10372W        W75192   7.949  13.979  12.570
10373W        W75193  41.904  17.127  13.312
10374W        W75194  12.508  33.254   1.941
10375W        W75195   3.386  12.064  12.909
10376W        W75196  11.818  36.654   1.936
10377W        W75197  32.847  20.001  11.019
10378W        W75198  35.326  17.091  14.552
10379W        W75199  27.251   8.505  14.832
10380W        W75200   1.821  27.992   4.575
10381W        W75201  29.918  28.918   1.735
10382W        W75202   0.300  15.726   5.037
10383W        W75203  12.950   7.172   0.249
10384W        W75204   1.347  41.699  14.329
10385W        W75205  44.261  43.779   3.169
10386W        W75206  19.150  18.904  13.099
10387W        W75207  35.979  15.034   2.316
10388W        W75208  18.133   8.131   2.095
10389W        W75209  22.291  21.581   1.710
10390W        W75210  42.305   8.454  14.325
10391W        W75211  23.583  38.556   2.634
10392W        W75212  36.943   6.147  10.728
10393W        W75213  14.890  13.344  14.806
10394W        W75214  44.103  34.927   2.517
10395W        W75215  11.256  35.838  14.915
10396W        W75216  40.889   6.980   1.434
10397W        W75217  19.858   5.357  11.086
10398W        W75218  27.051   6.663  14.025
10399W        W75219  23.918  35.476  13.584
10400W        W75220  24.094  16.426   4.704
10401W        W75221  16.062  35.881   4.488
10402W        W75222   6.364   9.576  13.922
10403W        W75223   3.612  24.321  14.799
10404W        W75224  30.467  37.070   1.029
10405W        W75225  12.586  15.211  11.235
10406W        W75226  40.684   1.812  12.515
10407W        W75227  17.105  26.987  13.968
10408W        W75228  12.233  28.418  14.357
10409W        W75229  28.583   7.811  11.094
10410W        W75230  25.918   6.496  10.738
10411W        W75231  39.573  23.939   2.631
10412W        W75232  20.717   7.638   5.478
10413W        W75233  19.587  25.930   0.196
10414W        W75234  12.225  19.780  14.461
10415W        W75235  44.966   1.373  10.761
10416W        W75236  13.617  30.913   4.976
10417W        W75237  39.546  35.015  12.811
10418W        W75238  14.592  22.919   2.066
10419W        W75239  31.577  29.135   3.812
10420W        W75240  28.603  15.932  12.325
10421W        W75241  16.815  42.751   2.978
10422W        W75242  25.029  38.019  14.349
10423W        W75243  30.030  33.508  11.715
10424W        W75244   3.774  36.045  11.080
10425W        W75245  44.928  24.976  13.000
10426W        W75246  16.327  38.130  12.415
10427W        W75247  22.472  15.575   4.217
10428W        W75248  38.151   3.881  11.392
10429W        W75249  33.105   7.579  10.373
10430W        W75250  27.401   4.220   1.370
10431W        W75251  11.933  18.189  14.851
10432W        W75252   8.726  38.090   0.646
10433W        W75253  24.944  20.311  14.389
10434W        W75254   3.847  32.798  12.586
10435W        W75255  35.039  27.732  14.758
10436W        W75256  29.543   5.212  11.658
10437W        W75257  36.484  22.325  10.059
10438W        W75258  42.583  41.992   3.655
10439W        W75259  38.560  15.674  13.567
10440W        W75260  38.843  25.860  14.464
10441W        W75261  30.362   4.064   2.243
10442W        W75262  41.390  30.530  13.496
10443W        W75263  44.719   4.339   1.771
10444W        W75264  22.056  40.270   1.880
10445W        W75265  27.961  36.587   4.444
10446W        W75266  37.421  11.491  11.062
10447W        W75267  31.103  11.965   2.824
10448W        W75268   3.825   6.778  12.607
10449W        W75269  25.212  24.179  12.526
10450W        W75270  33.204  40.059   9.799
10451W        W75271   6.520   2.300  11.080
10452W        W75272  11.423  21.131   4.628
10453W        W75273  16.576  32.539  13.800
10454W        W75274  34.108  16.001   4.285
10455W        W75275  23.972  40.908  11.523
10456W        W75276  44.489  31.511  14.694
10457W        W75277   1.506  21.981  11.082
10458W        W75278  19.567  20.637  12.017
10459W        W75279  34.363   2.828   0.218
10460W        W75280   6.848  22.551  13.349
10461W        W75281  23.500   2.337  12.178
10462W        W75282  39.789   4.924   1.154
10463W        W75283  24.017  29.370   1.671
10464W        W75284   7.721  29.686   0.293
10465W        W75285  31.060   6.379  12.956
10466W        W75286   4.853  33.513   1.929
10467W        W75287   6.955   6.714  14.480
10468W        W75288  22.545   2.739  10.413
10469W        W75289  24.946   9.482   1.938
10470W        W75290  38.227   2.163   2.218
10471W        W75291  22.561   6.495   3.225
10472W        W75292   9.429  24.993   4.659
10473W        W75293  30.155   9.836  14.802
10474W        W75294  15.370  39.914   0.754
10475W        W75295  26.544  15.626   3.593
10476W        W75296   1.443  37.317  10.712
10477W        W75297  38.394  30.888  14.933
10478W        W75298   9.206  40.554  14.334
10479W        W75299   5.089  24.752   2.635
10480W        W75300  10.372  25.933  12.982
10481W        W75301  41.156  15.249  14.066
10482W        W75302  28.282  15.387   2.721
10483W        W75303   5.363   5.930   3.335
10484W        W75304  18.734  17.640  12.521
10485W        W75305  13.985  39.803  13.671
10486W        W75306  44.071  19.343  14.878
10487W        W75307  13.766  32.162  12.024
10488W        W75308  15.380  33.875   1.195
10489W        W75309   0.260  34.550   0.069
10490W        W75310   2.418  38.015  11.973
10491W        W75311  39.930   9.826  14.401
10492W        W75312  42.378  16.913   2.900
10493W        W75313  43.322   6.260   1.599
10494W        W75314  24.160  26.324   4.793
10495W        W75315  35.111  24.483   0.533
10496W        W75316  41.852  41.923   2.183
10497W        W75317  17.770  33.122  10.516
10498W        W75318  12.216   2.966   2.770
10499W        W75319  19.630  35.475   4.233
10500W        W75320  40.959  17.704  12.950
10501W        W75321   8.881  34.527   0.844
10502W        W75322   5.729   8.673   4.529
10503W        W75323  15.712  30.641  13.569
10504W        W75324  21.720  37.927   3.794
10505W        W75325  30.881  42.921   3.648
10506W        W75326  34.504  16.105  13.874
10507W        W75327  30.459   7.382  11.849
10508W        W75328  20.219  32.914   4.635
10509W        W75329  28.780   2.469   0.540
10510W        W75330   6.010  33.347  12.069
10511W        W75331  18.667  23.277   3.812
10512W        W75332  30.637  40.941   3.854
10513W        W75333  41.650  10.623   1.931
10514W        W75334  12.804   6.241   2.730
10515W        W75335  34.919  36.041  11.213
10516W        W75336  33.538  34.604  14.064
10517W        W75337  44.099  30.898  10.263
10518W        W75338  13.789  15.176   0.965
10519W        W75339   8.941  17.774  10.918
10520W        W75340  32.102   3.812   4.491
10521W        W75341   8.485  41.069   2.804
10522W        W75342  18.616  36.594  14.333
10523W        W75343   0.711  26.557  12.949
10524W        W75344   2.720  34.476   4.122
10525W        W75345   9.447  31.214  12.677
10526W        W75346   9.339   6.102  13.494
10527W        W75347  41.114   8.387   2.353
10528W        W75348  38.872  19.592  14.816
10529W        W75349  39.266  24.457  12.878
10530W        W75350  11.449   7.773   0.880
10531W        W75351  11.656  11.605  13.608
10532W        W75352  44.764   1.590   3.728
10533W        W75353  28.976  17.718  14.950
10534W        W75354  23.964  14.346   2.365
10535W        W75355  16.073   1.572   4.240
10536W        W75356  33.100   8.648  10.871
10537W        W75357  10.446  41.133   2.320
10538W        W75358  24.551  22.086  12.476
10539W        W75359   2.847   6.849  14.377
10540W        W75360  14.763  23.096  12.951
10541W        W75361  29.173  14.081   3.213
10542W        W75362   7.729  12.150  12.497
10543W        W75363  15.213   9.217   3.991
10544W        W75364  24.211   6.313   3.102
10545W        W75365  16.079  39.285  11.519
10546W        W75366  11.730  12.102   3.004
10547W        W75367  23.402  35.462  14.830
10548W        W75368  43.992   7.723  10.989
10549W        W75369  21.048  44.893  13.099
10550W        W75370  41.542  25.697   0.367
10551W        W75371   5.650  11.777   3.131
10552W        W75372  14.721  25.724  14.882
10553W        W75373  14.130  43.928   0.296
10554W        W75374  19.142  21.499   1.811
10555W        W75375  29.970   9.336  14.740
10556W        W75376  16.028   9.123  13.827
10557W        W75377  31.925  39.965   1.821
10558W        W75378  12.622  27.175   4.140
10559W        W75379   6.414  40.419  11.598
10560W        W75380  12.320  44.739   0.787
10561W        W75381  12.221  35.976   1.315
10562W        W75382   0.706  29.669  14.404
10563W        W75383  20.315  43.874  10.469
10564W        W75384  19.798  28.462   2.912
10565W        W75385  41.582  27.717   1.466
10566W        W75386  14.977   2.848   2.964
10567W        W75387   3.745  13.885  12.908
10568W        W75388   6.263  30.188   0.647
10569W        W75389  36.966  22.263   0.644
10570W        W75390  20.619  44.241   2.546
10571W        W75391  26.601  24.540  14.702
10572W        W75392  29.547  21.991  11.686
10573W        W75393   7.314   8.785  14.392
10574W        W75394  22.553  14.252   2.197
10575W        W75395  32.841   1.890   0.220
10576W        W75396  12.172  41.953  12.382
10577W        W75397  31.392   5.204   0.399
10578W        W75398  17.697  36.068   2.530
10579W        W75399  24.981  34.094  14.920
10580W        W75400  38.935  20.364  13.008
10581W        W75401  22.750  42.854  11.254
10582W        W75402  26.131  35.188   1.727
10583W        W75403  21.349  36.479  10.280
10584W        W75404  27.474   8.397   1.777
10585W        W75405  28.499   8.888   2.879
10586W        W75406   4.535  42.953  12.034
10587W        W75407  31.518  43.977  12.551
10588W        W75408  24.601  25.237   0.281
10589W        W75409  26.206  21.759   2.689
10590W        W75410   6.370   4.948   4.378
10591W        W75411   6.225  25.954   2.096
10592W        W75412  23.074  20.951  12.428
10593W        W75413  23.259  37.309  14.058
10594W        W75414   9.650  38.093   2.864
10595W        W75415  19.956  12.726   0.708
10596W        W75416  11.144  17.666   2.792
10597W        W75417  27.214  42.269  14.733
10598W        W75418   8.845   8.701   0.884
10599W        W75419  42.396  24.479  12.689
10600W        W75420   9.796  26.406  14.883
10601W        W75421  22.458  11.469   1.918
10602W        W75422   8.199   0.752   0.884
10603W        W75423  15.374  42.908  12.922
10604W        W75424   1.850  24.891  12.130
10605W        W75425  30.891  16.697  11.140
10606W        W75426  12.791  23.861   0.361
10607W        W75427  42.814   1.491  12.056
10608W        W75428  27.777   0.816   2.804
10609W        W75429  19.321  39.097   3.990
10610W        W75430  42.398   3.479  12.451
10611W        W75431  42.975  35.810  11.434
10612W        W75432  16.785  16.730  13.585
10613W        W75433   4.809  42.047   3.943
10614W        W75434   1.970  41.498   4.886
10615W        W75435  31.480  10.278   1.283
10616W        W75436  30.668   3.890  12.883
10617W        W75437  10.834  24.528   2.789
10618W        W75438  23.108  30.246  10.450
10619W        W75439  28.922  18.901   4.450
10620W        W75440  43.968  38.534   3.766
10621W        W75441  20.600   2.923  14.368
10622W        W75442   0.525  39.378   1.650
10623W        W75443  32.163  18.841   1.577
10624W        W75444  43.060  39.825  11.460
10625W        W75445  17.772   5.763   4.206
10626W        W75446  12.871  27.000  14.885
10627W        W75447  30.113  37.437   1.213
10628W        W75448  12.917   6.256   0.427
10629W        W75449  28.919   9.148  13.490
10630W        W75450  37.040  42.967   4.482
10631W        W75451  26.553  10.414   4.089
10632W        W75452  34.970   1.260   4.752
10633W        W75453  28.145  32.440   3.185
10634W        W75454  44.273   9.338   0.101
10635W        W75455  30.392  29.419  12.487
10636W        W75456  21.824  13.054  12.386
10637W        W75457   9.625  27.913  11.895
10638W        W75458  20.139   4.384  11.003
10639W        W75459   4.315  25.124   2.969
10640W        W75460   8.697  44.335   3.701
10641W        W75461  14.735  28.583  13.761
10642W        W75462  31.522  18.245   3.149
10643W        W75463  23.025  10.697   1.800
10644W        W75464   4.714  43.862  13.636
10645W        W75465   1.632  41.450  13.182
10646W        W75466  37.044  24.943   2.206
10647W        W75467  24.052  23.387   0.330
10648W        W75468  37.844  22.474  13.832
10649W        W75469  15.374   6.672  13.614
10650W        W75470  43.425  30.076   3.033
10651W        W75471  32.353   0.959  12.619
10652W        W75472  19.786  13.558  13.082
10653W        W75473  24.791   1.740  14.472
10654W        W75474  13.453  30.899   2.424
10655W        W75475  31.803  17.295  10.834
10656W        W75476  22.579  32.609  11.136
10657W        W75477  14.242   4.629   1.012
10658W        W75478   0.562  41.021  10.748
10659W        W75479  30.085  10.973   2.078
10660W        W75480   3.914  31.700  10.471
10661W        W75481  20.613  44.745   0.017
10662W        W75482  21.346  36.967  10.982
10663W        W75483  40.799   7.319  11.880
10664W        W75484  38.567  43.474  14.426
10665W        W75485  27.391  38.440   2.898
10666W        W75486   1.971   7.361  14.854
10667W        W75487  44.104   7.477   0.402
10668W        W75488  26.990  39.172  14.014
10669W        W75489  30.324  10.418  12.048
10670W        W75490  13.305  24.567   4.282
10671W        W75491  43.701  43.907  10.750
10672W        W75492  44.943  13.768   0.205
10673W        W75493  12.868  32.865  13.470
10674W        W75494  15.899  17.710   4.100
10675W        W75495  28.579  13.399   1.981
10676W        W75496  43.921   1.924   1.944
10677W        W75497   8.315  38.899  11.932
10678W        W75498  23.659  35.956  14.877
10679W        W75499  16.359   9.485   4.951
10680W        W75500  36.184  11.677  11.158
10681W        W75501  22.008  36.636   3.229
10682W        W75502  40.427  17.087   2.935
10683W        W75503   7.725  38.274  14.318
10684W        W75504  33.900  29.654  13.331
10685W        W75505  17.276   8.283  12.288
10686W        W75506  14.260  44.849   3.454
10687W        W75507  19.762  33.969  12.372
10688W        W75508  31.916  16.043   3.688
10689W        W75509  19.446  43.490   2.764
10690W        W75510  27.866  28.268   4.898
10691W        W75511  36.672  16.415  11.105
10692W        W75512  14.404   7.997   0.752
10693W        W75513  43.252  30.057  11.149
10694W        W75514   8.835   4.425   0.370
10695W        W75515  31.107  19.334   1.388
10696W        W75516  11.928   8.203   0.662
10697W        W75517  30.746  23.561  12.018
10698W        W75518  23.187  40.860   3.873
10699W        W75519  30.073  44.451   0.912
10700W        W75520  42.377  34.332  11.702
10701W        W75521  10.876   8.874   4.570
10702W        W75522   4.676   4.384   4.461
10703W        W75523  12.544  27.572   4.989
10704W        W75524  25.257  20.740  14.373
10705W        W75525  38.370  37.997  13.766
10706W        W75526  11.213  18.253  14.319
10707W        W75527   9.775   9.057   4.231
10708W        W75528   0.716  15.505  13.516
10709W        W75529  28.960  11.340  13.948
10710W        W75530   9.790  39.832   3.108
10711W        W75531   8.672   8.672   3.267
10712W        W75532  15.258   1.852  12.010
10713W        W75533  37.105  20.134   1.368
10714W        W75534  13.277  19.179  10.912
10715W        W75535  10.689  41.977   3.160
10716W        W75536  36.023  33.821   1.542
10717W        W75537  11.254  42.579  11.597
10718W        W75538  23.543   7.353   2.663
10719W        W75539  37.375  37.159   2.765
10720W        W75540  36.484  24.101   2.264
10721W        W75541  24.276  10.701   2.156
10722W        W75542  12.086   5.889   1.428
10723W        W75543  42.942  31.002  14.240
10724W        W75544  37.551  28.258   5.126
10725W        W75545  17.225  31.492   4.731
10726W        W75546   9.371  32.489  11.319
10727W        W75547  43.580  42.939  10.725
10728W        W75548  12.814  32.531   4.677
10729W        W75549  35.010   2.994  11.176
10730W        W75550  44.573  22.347   1.265
10731W        W75551   7.283  11.788  10.606
10732W        W75552  25.030  43.791   3.274
10733W        W75553  25.418   1.237  14.781
10734W        W75554  35.896  25.451   0.711
10735W        W75555   3.372  36.591   1.177
10736W        W75556   2.813  25.377   0.258
10737W        W75557  16.128  25.413  13.956
10738W        W75558   5.966  32.612  14.657
10739W        W75559  41.607  38.887   3.829
10740W        W75560  40.024  20.093  12.432
10741W        W75561  15.514   5.825  12.856
10742W        W75562   7.489  14.936  13.062
10743W        W75563   2.261  20.671   4.402
10744W        W75564   7.138  29.560   4.754
10745W        W75565   5.050  29.131   3.933
10746W        W75566  17.845  28.565  10.789
10747W        W75567  20.504  13.107   0.346
10748W        W75568  26.910  37.796  13.473
10749W        W75569   9.286  20.187   0.608
10750W        W75570  44.233  38.950   2.766
10751W        W75571  36.805   3.860   1.929
10752W        W75572   6.592  19.589  13.888
10753W        W75573  18.333  23.605   2.739
10754W        W75574  31.974  35.030   4.463
10755W        W75575  27.479  31.448  13.447
10756W        W75576   9.872  38.364   4.054
10757W        W75577   9.143  44.415  13.797
10758W        W75578  22.826  13.964  10.894
10759W        W75579  14.120   7.645   3.192
10760W        W75580  27.955  22.622   3.806
10761W        W75581  22.387   3.754   0.289
10762W        W75582   6.642  40.068  10.787
10763W        W75583  11.683  32.967  12.156
10764W        W75584   7.160  18.946   1.343
10765W        W75585   5.412   8.642  11.212
10766W        W75586  15.789   0.031   0.027
10767W        W75587  37.344   8.064  14.923
10768W        W75588  37.364  29.739   1.196
10769W        W75589   9.660   5.478   4.495
10770W        W75590   4.778  42.017   1.150
10771W        W75591  26.976  10.190   9.827
10772W        W75592  34.565  11.724  12.686
10773W        W75593  15.615  12.230   3.849
10774W        W75594  30.449  37.067   0.477
10775W        W75595   2.186   7.259   2.854
10776W        W75596  32.414  18.073   4.525
10777W        W75597  20.332  15.296  13.212
10778W        W75598   3.853  15.572   2.183
10779W        W75599   0.512  33.465   2.167
10780W        W75600  19.539   1.760  12.026
10781W        W75601  19.342  10.607   4.469
10782W        W75602  30.320  25.034  13.436
10783W        W75603  30.933   0.312  11.323
10784W        W75604  23.760  24.823  11.256
10785W        W75605  10.874  32.102   0.982
10786W        W75606  19.573   5.189  13.770
10787W        W75607   5.069   8.574   4.596
10788W        W75608  26.587  37.585  12.615
10789W        W75609  14.993   0.817   2.795
10790W        W75610   9.896  38.323  13.827
10791W        W75611  27.469   5.891   0.728
10792W        W75612  17.289  23.587   3.756
10793W        W75613  44.982  29.971   4.606
10794W        W75614  18.247  27.190   1.987
10795W        W75615  19.237  22.512   1.769
10796W        W75616  17.339   1.998  13.098
10797W        W75617  44.979   2.909  11.063
10798W        W75618  29.211  42.388  14.454
10799W        W75619   5.356   9.129   0.086
10800W        W75620  19.981  14.344   4.526
10801W        W75621  16.382  42.586  13.548
10802W        W75622  13.703   8.884  13.856
10803W        W75623  41.919  21.477  13.101
10804W        W75624  43.334  25.539  12.835
10805W        W75625  28.819   8.885  13.012
10806W        W75626   1.468  41.216   1.703
10807W        W75627  37.888  24.853  11.234
10808W        W75628  38.824  43.745   1.228
10809W        W75629  28.443  14.778   2.746
10810W        W75630  42.876  19.239   3.609
10811W        W75631  26.047  34.605   1.793
10812W        W75632  12.871   1.790  13.463
10813W        W75633  40.278  14.613   3.413
10814W        W75634  37.347  26.638   1.949
10815W        W75635  26.216  31.134  11.695
10816W        W75636  36.987  21.712   2.758
10817W        W75637   8.457  28.933   0.392
10818W        W75638  23.994   6.783   3.223
10819W        W75639   2.008  27.971  12.449
10820W        W75640   6.260  25.393  11.032
10821W        W75641  12.189  27.646   1.250
10822W        W75642  36.116   6.344   3.636
10823W        W75643  44.853   8.741  10.707
10824W        W75644  16.815  16.063  12.934
10825W        W75645  44.734   7.352   3.161
10826W        W75646  31.099  35.000   4.770
10827W        W75647  27.948   7.832   0.965
10828W        W75648  12.422   4.917   1.327
10829W        W75649   4.010  29.669   4.182
10830W        W75650  34.488  28.399   4.135
10831W        W75651   7.502  38.874  10.436
10832W        W75652  17.132  15.580   4.031
10833W        W75653  43.883  41.325  11.064
10834W        W75654   8.131  36.453   2.685
10835W        W75655   4.158   5.707  11.151
10836W        W75656  15.216  33.331   5.204
10837W        W75657  29.010  44.022   3.502
10838W        W75658  31.897  11.161  12.983
10839W        W75659  29.708  15.480   0.286
10840W        W75660  43.471   8.285   0.325
10841W        W75661  33.228  24.711  14.314
10842W        W75662  24.315  21.217  13.490
10843W        W75663  22.003  15.759  13.083
10844W        W75664  33.956  27.685   2.372
10845W        W75665  31.504  40.468  10.926
10846W        W75666  27.221  39.342  14.937
10847W        W75667  27.973  29.215   2.510
10848W        W75668  27.178   0.911  13.590
10849W        W75669  41.061  21.432   4.573
10850W        W75670  12.684   3.340   3.588
10851W        W75671  29.083   8.241   4.924
10852W        W75672  12.351  21.096  10.795
10853W        W75673  28.177  33.416  12.954
10854W        W75674  42.453  23.801   1.470
10855W        W75675  40.956  44.867  11.446
10856W        W75676  21.574  35.609  11.527
10857W        W75677  17.293  25.336   0.769
10858W        W75678   5.753  19.803  13.627
10859W        W75679   1.689  24.824  13.895
10860W        W75680  37.619  21.483   0.853
10861W        W75681  33.152   5.749  11.491
10862W        W75682  10.126  43.966  14.820
10863W        W75683  26.486  22.501   4.530
10864W        W75684  30.527  29.042  10.510
10865W        W75685   0.448  36.465   2.770
10866W        W75686  15.782  14.517  11.587
10867W        W75687  31.404  39.914   3.368
10868W        W75688  31.935  10.120   3.172
10869W        W75689  40.587   6.405   5.013
10870W        W75690   3.714   8.331   3.758
10871W        W75691  30.912  42.302   0.110
10872W        W75692  24.419   1.891  11.153
10873W        W75693  17.889  10.777   4.108
10874W        W75694  34.791  42.285   3.200
10875W        W75695  44.037   7.387  13.043
10876W        W75696  19.108  31.238   3.578
10877W        W75697  40.322   0.744  14.861
10878W        W75698   3.935  39.464  10.666
10879W        W75699   9.892  20.929   1.698
10880W        W75700   1.982  26.568  12.388
10881W        W75701  31.598   6.812  11.279
10882W        W75702  41.307  16.569  11.088
10883W        W75703  40.319  12.873  14.840
10884W        W75704  41.042  40.859  13.684
10885W        W75705  24.722  38.645   0.129
10886W        W75706  31.708   7.820   0.982
10887W        W75707   4.858  17.531  14.791
10888W        W75708  13.784  23.449   4.559
10889W        W75709  22.837  10.773   3.755
10890W        W75710   0.894   5.083   0.720
10891W        W75711  43.255  19.210  12.872
10892W        W75712  27.763  21.251  14.447
10893W        W75713  30.547  40.118   1.983
10894W        W75714   0.428  42.340   0.869
10895W        W75715   2.046  23.126   1.159
10896W        W75716  44.358  38.886   0.300
10897W        W75717  40.509  42.871   4.207
10898W        W75718   9.249  25.563  11.203
10899W        W75719  25.036   2.434  11.541
10900W        W75720  37.997  28.475  11.839
10901W        W75721  14.758   0.630  13.304
10902W        W75722  32.385  27.561   3.853
10903W        W75723  12.518  31.135  14.109
10904W        W75724   0.907  24.471   4.111
10905W        W75725  12.718   6.192  13.119
10906W        W75726  28.585  18.488   2.189
10907W        W75727  23.617  22.017   1.694
10908W        W75728   3.444  12.840   1.497
10909W        W75729  12.423  39.461   2.203
10910W        W75730  28.777  26.210  14.474
10911W        W75731   4.392  34.405  14.939
10912W        W75732  39.854  23.461   1.693
10913W        W75733  33.866  22.735  12.941
10914W        W75734  17.182  12.571   3.015
10915W        W75735  16.096   4.693   2.415
10916W        W75736   7.766  29.394   2.238
10917W        W75737  16.170  11.551  12.156
10918W        W75738  21.571  16.886  14.354
10919W        W75739  15.010   0.416  14.864
10920W        W75740   6.134  44.750   2.599
10921W        W75741  13.648  19.305   2.357
10922W        W75742  42.985   1.950  10.692
10923W        W75743  37.387  26.628   2.790
10924W        W75744   5.024   6.235   2.809
10925W        W75745  21.562   2.200   2.721
10926W        W75746   8.323   5.221  11.224
10927W        W75747  43.225  39.049   1.773
10928W        W75748  44.504  25.824  12.575
10929W        W75749  11.435  32.635  13.695
10930W        W75750  40.326   1.949  13.243
10931W        W75751  10.555  37.939   1.362
10932W        W75752  34.332  42.588  13.379
10933W        W75753  25.661  37.532   0.911
10934W        W75754   2.930   4.904   0.394
10935W        W75755  11.962  18.290  11.659
10936W        W75756  18.110  39.067  11.178
10937W        W75757   3.836  42.843  13.557
10938W        W75758  24.428  34.049   0.780
10939W        W75759  31.457  20.882  12.798
10940W        W75760  18.339  24.797  12.506
10941W        W75761  40.933   7.642   2.708
10942W        W75762  32.344  36.905   0.417
10943W        W75763  30.597   1.338  13.389
10944W        W75764  39.673  11.666  11.064
10945W        W75765   9.191   5.715   0.451
10946W        W75766  34.390  14.878  12.093
10947W        W75767  16.707  27.589   4.630
10948W        W75768  29.776  34.963   4.225
10949W        W75769  27.890  24.200  14.874
10950W        W75770   1.982  35.464  14.995
10951W        W75771  43.939  30.482  11.165
10952W        W75772  17.061   1.759   1.815
10953W        W75773  44.170  20.138  11.543
10954W        W75774  28.698  23.615  12.874
10955W        W75775  11.680  21.086   1.277
10956W        W75776   0.255  18.524   4.198
10957W        W75777   0.146  21.144   4.054
10958W        W75778   2.058  17.174   2.569
10959W        W75779  13.814  13.789  14.304
10960W        W75780  10.894  29.527   3.896
10961W        W75781  24.476  11.765  12.573
10962W        W75782  18.798  37.033  11.724
10963W        W75783  30.000  13.462  13.382
10964W        W75784  39.380   1.316  14.862
10965W        W75785  35.881  27.561  11.011
10966W        W75786   9.882   8.406  14.000
10967W        W75787  10.827   0.666  10.069
10968W        W75788  35.933  44.727   0.946
10969W        W75789   2.476  38.345  14.081
10970W        W75790   1.725  22.371  13.115
10971W        W75791  33.065  28.503   0.699
10972W        W75792  28.360  19.192   1.678
10973W        W75793  38.964   4.860   4.109
10974W        W75794  31.673  41.107  14.824
10975W        W75795   2.566  37.130  14.987
10976W        W75796  22.420  10.692   0.462
10977W        W75797   9.959  17.745   4.161
10978W        W75798   2.840  38.629   4.500
10979W        W75799  39.138  39.584  14.282
10980W        W75800  10.885  38.498   0.697
10981W        W75801  31.072  29.963  12.453
10982W        W75802  22.147  35.059  10.876
10983W        W75803   3.217   9.878   3.638
10984W        W75804  22.099  11.560  13.830
10985W        W75805  25.913  33.841   2.944
10986W        W75806  42.759   2.009   3.553
10987W        W75807  41.513  38.307   0.324
10988W        W75808  44.838  16.118  11.979
10989W        W75809  43.116  11.355   4.924
10990W        W75810  44.393   4.273   2.862
10991W        W75811  23.486  29.542   4.821
10992W        W75812   8.793  24.004   2.721
10993W        W75813  43.878  36.290   4.608
10994W        W75814  10.141   1.842   1.727
10995W        W75815  44.812  43.768   1.721
10996W        W75816  42.995  26.900  12.002
10997W        W75817  30.880  14.821   3.225
10998W        W75818  44.366  12.693   1.661
10999W        W75819  29.580  22.006   0.455
11000W        W75820  19.041  39.104  14.182
11001W        W75821  36.605  18.971  10.680
11002W        W75822   1.188  44.102  11.905
11003W        W75823  22.100  13.751  13.423
11004W        W75824  17.421  11.303  14.641
11005W        W75825  21.475  22.731  14.464
11006W        W75826  14.315  34.578  10.739
11007W        W75827  28.033  32.237  10.425
11008W        W75828   3.632  28.052   0.399
11009W        W75829  18.683  37.791  14.833
11010W        W75830  44.508  16.563   3.847
11011W        W75831   9.756  29.800  10.010
11012W        W75832  15.799  30.900  14.041
11013W        W75833   0.911  37.398  12.927
11014W        W75834  26.196  18.214   2.871
11015W        W75835  40.935  11.437  11.101
11016W        W75836  31.597  32.880  10.786
11017W        W75837  16.708   8.496   1.797
11018W        W75838  18.957  39.083  11.507
11019W        W75839  16.256  35.774  10.212
11020W        W75840   6.280  15.655  14.553
11021W        W75841   8.333  41.432   0.785
11022W        W75842  25.137  33.469   1.256
11023W        W75843  28.357  10.765  13.307
11024W        W75844  29.784  19.617   0.207
11025W        W75845  39.495  32.195  11.636
11026W        W75846  12.169   7.859  13.633
11027W        W75847  29.463   4.453  14.662
11028W        W75848  40.861   9.449   1.613
11029W        W75849  36.311   3.993  11.657
11030W        W75850  37.325  41.269   0.766
11031W        W75851  30.328   0.806  11.466
11032W        W75852  40.895  40.491  13.370
11033W        W75853  26.246  24.523   2.167
11034W        W75854  41.847  29.675   0.355
11035W        W75855  31.006   0.968  13.070
11036W        W75856  23.909  14.189   4.893
11037W        W75857  11.847  32.563   1.099
11038W        W75858  23.175  23.407   3.629
11039W        W75859   4.453  34.134  11.273
11040W        W75860  20.805   1.727  14.334
11041W        W75861   9.179   3.131  13.318
11042W        W75862  29.192  42.565  12.955
11043W        W75863  16.333  12.694  13.851
11044W        W75864  42.597  15.059   1.813
11045W        W75865  14.198   6.718   4.683
11046W        W75866  22.458  31.654   3.643
11047W        W75867  15.539  23.631  14.029
11048W        W75868   5.828  13.932  11.750
11049W        W75869  20.193  27.093  13.487
11050W        W75870  16.538  21.580  13.880
11051W        W75871  33.440  11.419   1.197
11052W        W75872  30.683  42.620   5.153
11053W        W75873  20.746  33.163  13.865
11054W        W75874  44.541  40.993  10.793
11055W        W75875  24.199  13.813   3.633
11056W        W75876   5.890   3.222  13.662
11057W        W75877  18.833  29.875   4.480
11058W        W75878  40.569  13.854  14.791
11059W        W75879  23.559  36.956  12.507
11060W        W75880  33.624  27.613  10.424
11061W        W75881  25.975   7.397  12.206
11062W        W75882  29.910  16.764  10.939
11063W        W75883  30.435  12.675   4.707
11064W        W75884  38.955   5.607  13.400
11065W        W75885  17.528  35.295  14.030
11066W        W75886   8.261  14.657  10.347
11067W        W75887  23.755   1.784   0.787
11068W        W75888   3.984  32.732   3.310
11069W        W75889  19.767  30.099  13.836
11070W        W75890   1.884  15.560   4.204
11071W        W75891  17.283  22.896  10.724
11072W        W75892   7.352  33.074   1.028
11073W        W75893  34.042  22.742  11.622
11074W        W75894   1.161  42.934  14.809
11075W        W75895   9.357  26.668  14.949
11076W        W75896  10.616  28.868  10.597
11077W        W75897  15.554  42.810  11.546
11078W        W75898  30.097  39.023  11.235
11079W        W75899  18.621  19.969  12.382
11080W        W75900  38.354  39.502   0.839
11081W        W75901  17.175  21.724  14.962
11082W        W75902   0.254  18.477   1.769
11083W        W75903  15.130  35.442  10.967
11084W        W75904  44.861  22.280   0.717
11085W        W75905  13.878  30.178  14.205
11086W        W75906  36.375  17.305   1.894
11087W        W75907  42.871  11.736   3.092
11088W        W75908   2.742  33.672  12.570
11089W        W75909  39.728   0.937  13.888
11090W        W75910  24.879  21.675   4.743
11091W        W75911  14.249   5.102   0.772
11092W        W75912  18.212  44.276   0.056
11093W        W75913  30.070  25.477  13.087
11094W        W75914   6.362  34.157  12.492
11095W        W75915  41.356  35.950   1.461
11096W        W75916   9.188   7.765   4.519
11097W        W75917  13.891  37.357  13.945
11098W        W75918  18.297  30.946  14.387
11099W        W75919  20.062  18.273  12.216
11100W        W75920  27.036  11.661  10.681
11101W        W75921  25.776  43.025  13.102
11102W        W75922   4.042  37.822  14.549
11103W        W75923  23.193  44.303   1.304
11104W        W75924  38.934  13.754  11.608
11105W        W75925   7.611  23.258   0.485
11106W        W75926  44.157  11.130   4.587
11107W        W75927  13.576  21.045  12.808
11108W        W75928  26.482   5.123   1.782
11109W        W75929  44.526   1.115   3.662
11110W        W75930  20.742  23.946   2.719
11111W        W75931  33.110   3.949  12.083
11112W        W75932  25.998  38.266   3.396
11113W        W75933  25.514  32.963   3.215
11114W        W75934  14.336  14.195  12.535
11115W        W75935   8.574  41.888   0.660
11116W        W75936   2.603   5.592  14.752
11117W        W75937  16.053  18.586   0.735
11118W        W75938  13.398  10.081   3.699
11119W        W75939   2.976  44.879  14.054
11120W        W75940  38.357  39.386   2.617
11121W        W75941  20.895  12.234  12.833
11122W        W75942   2.469  43.701  11.529
11123W        W75943  27.180  17.863  13.419
11124W        W75944  36.923  36.261  14.039
11125W        W75945  14.386   3.975   1.644
11126W        W75946  15.046   3.790  11.432
11127W        W75947  33.784  31.358  13.904
11128W        W75948  34.291  26.543   2.779
11129W        W75949  37.899   8.648   1.417
11130W        W75950  34.343  35.585  14.316
11131W        W75951  43.000  28.505   0.315
11132W        W75952  14.281  41.563   4.212
11133W        W75953  12.603  21.726   0.408
11134W        W75954   9.949   8.386   9.876
11135W        W75955  20.202  19.272  12.975
11136W        W75956  25.681  10.281  11.185
11137W        W75957  26.922   8.281  11.065
11138W        W75958  32.545  32.045  12.511
11139W        W75959  24.437  27.871  11.032
11140W        W75960  25.339  31.473  11.412
11141W        W75961  14.844  11.914  12.477
11142W        W75962  32.877  21.649   1.755
11143W        W75963  25.662  18.994   2.616
11144W        W75964   3.967   0.261   3.683
11145W        W75965  28.898   1.450  12.981
11146W        W75966  20.516  11.337  12.854
11147W        W75967  31.281  18.722   2.711
11148W        W75968   5.786   9.459   0.283
11149W        W75969  31.738  30.930  14.613
11150W        W75970  36.994  20.358  13.029
11151W        W75971   2.911  20.256   0.754
11152W        W75972   4.643   8.154  12.158
11153W        W75973  38.095  37.547   2.239
11154W        W75974   7.753  13.224  11.236
11155W        W75975  18.311   6.768  11.587
11156W        W75976  28.655  27.171  14.025
11157W        W75977  11.430  13.580   3.196
11158W        W75978  12.841   4.881  14.315
11159W        W75979   5.936  29.572  14.921
11160W        W75980  19.657  12.672  12.384
11161W        W75981   4.200  31.006  12.478
11162W        W75982  16.384  33.498   3.231
11163W        W75983  12.580  17.923   1.700
11164W        W75984  25.160  38.853  14.962
11165W        W75985  43.027  15.710   2.307
11166W        W75986  13.315  44.240   5.126
11167W        W75987  43.460   3.686   3.705
11168W        W75988  29.528  28.624  11.566
11169W        W75989  27.629   3.283  13.476
11170W        W75990  44.726  36.616   3.399
11171W        W75991  15.586  23.754  11.691
11172W        W75992  43.148  44.816  14.730
11173W        W75993   6.351  43.780   0.801
11174W        W75994  14.262   9.682  13.512
11175W        W75995  26.680  38.018   2.654
11176W        W75996  14.698  17.143   1.248
11177W        W75997   8.431  10.785  14.576
11178W        W75998  41.387  12.104   4.328
11179W        W75999  32.976  34.078   1.165
11180W        W76000  18.808   2.276  14.356
11181W        W76001  19.808  10.235  14.705
11182W        W76002   0.992  33.706  14.600
11183W        W76003  17.701  35.058   2.518
11184W        W76004  40.925  40.687  10.717
11185W        W76005  18.718  17.589   1.762
11186W        W76006  10.682  24.460   3.603
11187W        W76007   2.392   2.168  14.518
11188W        W76008  27.658  42.213  12.366
11189W        W76009  41.965  16.234   1.811
11190W        W76010  22.506  36.726   3.286
11191W        W76011   3.701  10.811   3.341
11192W        W76012  21.136  12.102   1.770
11193W        W76013  22.433  29.583   0.078
11194W        W76014  44.494  12.176   0.785
11195W        W76015   4.246  18.755  13.706
11196W        W76016  32.585   3.032  12.066
11197W        W76017  40.839  20.843  11.535
11198W        W76018   9.408  19.723  11.224
11199W        W76019   7.983  30.720   1.903
11200W        W76020  38.655  13.060  12.422
11201W        W76021  29.388   2.791   2.301
11202W        W76022   4.189   8.166  13.593
11203W        W76023   7.249  26.080  14.571
11204W        W76024  41.016  29.648  11.721
11205W        W76025   9.244  25.230  14.310
11206W        W76026   8.752  37.764   0.212
11207W        W76027   6.555  40.258   2.496
11208W        W76028   4.961  13.326   1.022
11209W        W76029  28.668  11.559  14.389
11210W        W76030  32.853  28.920   0.961
11211W        W76031  26.993  41.958   2.421
11212W        W76032   5.378  37.633   4.430
11213W        W76033  17.619   2.620   2.839
11214W        W76034  22.046  11.973  12.431
11215W        W76035  32.062  14.282   2.389
11216W        W76036  24.991  43.076   4.075
11217W        W76037  32.590  18.915  11.030
11218W        W76038  23.209  12.348  12.914
11219W        W76039  20.099   4.432  11.932
11220W        W76040  42.369  15.503  12.359
11221W        W76041  14.809  44.483   0.723
11222W        W76042   4.261   7.792   0.951
11223W        W76043  30.177  43.943  14.268
11224W        W76044   5.718   7.855   1.229
11225W        W76045   2.757  13.841   0.346
11226W        W76046  19.583  25.237  13.411
11227W        W76047  33.781   3.960   3.626
11228W        W76048  38.524  14.521  13.048
11229W        W76049  11.338  38.619   3.212
11230W        W76050  21.977  41.109  11.715
11231W        W76051  34.287  23.982   2.005
11232W        W76052  30.615  41.556   0.993
11233W        W76053  36.382  14.501   0.773
11234W        W76054  25.852  38.602   1.798
11235W        W76055  21.644  30.834   2.882
11236W        W76056   6.890  15.623   2.744
11237W        W76057  23.436  25.499   3.769
11238W        W76058  24.961  33.508  11.527
11239W        W76059  25.011   2.995   0.337
11240W        W76060  31.944  37.076  11.507
11241W        W76061   7.283  25.002  14.779
11242W        W76062  19.606  14.351   4.146
11243W        W76063  31.213  18.216  12.566
11244W        W76064  22.962  41.130   4.889
11245W        W76065  37.077  26.129   2.828
11246W        W76066  15.762   9.392   3.716
11247W        W76067  14.047  20.330   4.581
11248W        W76068  34.383  27.455   2.824
11249W        W76069  13.563  33.034   3.616
11250W        W76070  31.715   7.342  12.769
11251W        W76071  35.665   6.231  13.888
11252W        W76072   8.658  36.885   4.482
11253W        W76073  13.576  28.563   2.163
11254W        W76074  38.415  32.426   4.541
11255W        W76075  34.956   9.704   2.250
11256W        W76076  32.688   7.617  10.700
11257W        W76077  42.196  36.589   2.326
11258W        W76078   2.092   8.862  13.788
11259W        W76079  44.817  15.755   4.195
11260W        W76080  38.538  37.068  12.838
11261W        W76081  40.921   5.924  12.599
11262W        W76082  36.133  33.833   1.038
11263W        W76083  28.899  30.992   0.045
11264W        W76084   6.787  30.715   0.778
11265W        W76085  10.948  13.819  10.633
11266W        W76086  13.696   8.442  10.576
11267W        W76087  17.872  39.471  11.772
11268W        W76088  18.854  42.892  11.166
11269W        W76089  29.443  26.907   0.378
11270W        W76090  15.786   7.751  11.572
11271W        W76091   6.917  18.883   3.167
11272W        W76092   5.279  39.344   0.875
11273W        W76093  15.034  32.007   2.292
11274W        W76094  15.157  16.323  13.930
11275W        W76095  40.874  32.655   2.618
11276W        W76096  23.981  11.868   1.910
11277W        W76097  25.983  32.592   1.874
11278W        W76098   0.728  14.554  13.039
11279W        W76099  29.307   2.891  11.167
11280W        W76100  23.468  19.232   1.226
11281W        W76101   0.768  29.058  11.295
11282W        W76102  14.706   9.768   4.451
11283W        W76103   7.322  29.895   2.677
11284W        W76104  14.425  22.196  14.770
11285W        W76105  31.059  31.357  14.351
11286W        W76106  37.334  37.528   1.425
11287W        W76107  19.289  22.799  13.548
11288W        W76108  21.316  35.959   1.738
11289W        W76109  42.697  17.556   1.777
11290W        W76110  38.426  39.265  13.538
11291W        W76111  35.564  22.575   3.201
11292W        W76112   9.584   4.087  14.686
11293W        W76113  12.739   3.898   1.453
11294W        W76114  20.746  31.641  13.122
11295W        W76115  32.511  18.631  12.553
11296W        W76116  20.109  42.019  12.830
11297W        W76117  17.130  25.540   2.921
11298W        W76118  16.049  14.876  14.872
11299W        W76119  25.126  34.671   1.750
11300W        W76120  38.281   9.336  13.356
11301W        W76121   5.013  28.618   0.431
11302W        W76122   0.339  23.912   0.775
11303W        W76123  11.904   8.524   5.060
11304W        W76124  24.619  18.936  12.430
11305W        W76125  35.863  37.575  14.918
11306W        W76126  20.595  13.800   4.175
11307W        W76127  17.774   2.805   1.853
11308W        W76128  25.213  14.518  12.957
11309W        W76129  32.661  17.320   0.477
11310W        W76130  23.321  33.085  12.171
11311W        W76131  35.354  27.550  11.041
11312W        W76132  15.052   8.375   3.125
11313W        W76133  36.386  41.484  12.993
11314W        W76134  34.925  30.067   4.308
11315W        W76135  27.153  10.014  14.483
11316W        W76136   1.484  19.981   0.763
11317W        W76137  15.065  18.728   2.217
11318W        W76138  17.636  15.705   2.787
11319W        W76139  10.732  43.403   0.275
11320W        W76140  13.329  21.767   2.348
11321W        W76141   7.708  32.409   4.859
11322W        W76142   5.212  11.825  12.922
11323W        W76143  10.847  33.849   3.637
11324W        W76144  26.223  33.419  10.987
11325W        W76145  28.577  16.261   3.683
11326W        W76146  33.828  15.210   4.110
11327W        W76147  14.884   2.177  10.759
11328W        W76148  29.949  37.458   4.563
11329W        W76149  24.630  21.309  10.515
11330W        W76150  31.674  36.065  10.239
11331W        W76151   0.769   1.712  10.303
11332W        W76152  10.868  31.516   2.646
11333W        W76153  23.544   2.303  10.859
11334W        W76154  32.465  32.119   1.388
11335W        W76155  27.605  30.004   3.472
11336W        W76156   7.377  20.242  13.296
11337W        W76157   7.884  35.915  12.041
11338W        W76158  42.905  35.467   0.771
11339W        W76159  36.417  17.106   1.433
11340W        W76160  35.087  41.576  13.561
11341W        W76161  42.389  40.013  12.524
11342W        W76162  17.728   4.696  12.978
11343W        W76163  37.051   4.356  13.036
11344W        W76164  31.406  36.295   1.945
11345W        W76165  16.875  22.080  12.541
11346W        W76166  21.446  34.930   2.340
11347W        W76167  21.637  14.306  11.332
11348W        W76168   3.855  14.887   3.367
11349W        W76169  40.218   6.743   4.847
11350W        W76170   2.588  31.414   3.733
11351W        W76171  15.495   2.372   4.009
11352W        W76172  17.127  41.261  12.647
11353W        W76173   4.975   7.316   0.106
11354W        W76174  12.398   9.354  14.838
11355W        W76175   4.598  38.895  13.265
11356W        W76176   5.695  21.719  12.887
11357W        W76177   2.357  37.917   0.874
11358W        W76178  24.574  44.467  12.158
11359W        W76179  16.075  44.504   1.731
11360W        W76180   1.807  24.610   3.847
11361W        W76181  22.439  34.056   3.886
11362W        W76182   2.507  19.053   4.508
11363W        W76183   2.272  31.921  13.309
11364W        W76184  44.242  14.234  12.822
11365W        W76185  15.988   9.865   3.331
11366W        W76186  23.735   3.495   2.174
11367W        W76187  21.582  42.686   2.748
11368W        W76188   5.006   2.650  12.213
11369W        W76189  11.107  36.936   4.547
11370W        W76190  15.059   7.745  11.146
11371W        W76191   5.264  14.364  11.153
11372W        W76192   6.747   9.900  14.052
11373W        W76193  33.613  10.383   3.684
11374W        W76194  33.299   7.386  11.943
11375W        W76195  32.622   8.751   1.718
11376W        W76196   4.040  39.508   1.419
11377W        W76197  20.630  18.827  14.960
11378W        W76198  25.199   8.363  12.970
11379W        W76199  26.534  16.462  13.496
11380W        W76200  37.637  40.357  14.467
11381W        W76201  29.327   8.443   0.488
11382W        W76202  18.955  33.489  11.979
11383W        W76203  13.744   6.506  12.106
11384W        W76204  20.001   6.273   3.130
11385W        W76205  20.935  25.131  13.429
11386W        W76206   6.413  17.542   0.457
11387W        W76207  14.040  16.571  12.483
11388W        W76208  29.947  36.559   1.493
11389W        W76209   7.921  40.669   3.575
11390W        W76210  44.312  35.966  13.773
11391W        W76211   7.276  25.883   1.278
11392W        W76212  11.170  40.577   1.339
11393W        W76213  42.538  31.616   4.542
11394W        W76214   3.573  36.087   4.680
11395W        W76215  23.132  26.077   1.555
11396W        W76216  37.974   2.284   3.080
11397W        W76217  12.365  18.628  13.733
11398W        W76218  33.044   1.887   1.275
11399W        W76219  31.916  42.205  12.409
11400W        W76220  23.605  18.478   4.725
11401W        W76221  34.526  11.206   4.560
11402W        W76222  31.053  43.727  11.253
11403W        W76223  37.822  44.492   3.234
11404W        W76224  22.684  24.460  14.517
11405W        W76225   9.361   5.575   1.801
11406W        W76226   8.225  11.056  11.057
11407W        W76227   0.472   4.382   3.674
11408W        W76228  38.651   6.065  10.938
11409W        W76229  20.220  26.304   0.927
11410W        W76230  33.632   7.224   2.184
11411W        W76231   9.620  26.734   4.271
11412W        W76232  31.437  14.187   0.828
11413W        W76233  20.068  21.018   0.912
11414W        W76234  30.588  39.844   3.484
11415W        W76235  24.781  11.857  12.152
11416W        W76236  28.125  25.464   2.429
11417W        W76237   8.254  23.723   0.529
11418W        W76238  21.960   8.185   0.742
11419W        W76239  31.638  10.584   4.403
11420W        W76240   6.732  28.453   2.163
11421W        W76241  28.569  21.473  13.927
11422W        W76242  29.903  23.178   1.415
11423W        W76243  24.168  12.309  13.331
11424W        W76244  34.077  41.884   1.206
11425W        W76245  35.636   0.544   2.749
11426W        W76246  32.973  25.856  14.399
11427W        W76247  19.767  29.582  10.643
11428W        W76248  18.330   5.119  12.110
11429W        W76249  35.525  18.783  12.079
11430W        W76250  30.548  22.165   0.467
11431W        W76251  24.800  15.124  11.113
11432W        W76252  21.209  38.985   1.328
11433W        W76253  41.108   5.289  12.430
11434W        W76254  27.147   0.473  13.271
11435W        W76255  30.935   4.544  13.813
11436W        W76256  44.853  22.122   3.704
11437W        W76257  37.937  22.534   1.866
11438W        W76258  28.133  25.488  12.185
11439W        W76259  39.934  39.011  14.689
11440W        W76260  44.573  27.490   1.051
11441W        W76261  43.875  24.494  11.790
11442W        W76262   8.612  29.645   4.474
11443W        W76263  43.507  42.832   1.319
11444W        W76264  11.145   5.459  13.044
11445W        W76265  10.295  19.739  11.263
11446W        W76266  27.575  11.456  11.742
11447W        W76267  32.613  41.078   1.894
11448W        W76268  24.897  29.433  11.134
11449W        W76269  24.916  34.461   3.283
11450W        W76270  28.223  16.710   0.778
11451W        W76271   5.217  27.853  13.404
11452W        W76272  10.170  21.070   0.982
11453W        W76273  37.078  34.526  14.712
11454W        W76274  41.820  44.338   0.606
11455W        W76275   0.759  31.308   3.968
11456W        W76276  25.976   6.457  11.409
11457W        W76277   2.025   6.729   4.087
11458W        W76278  28.248  26.700   3.335
11459W        W76279  34.535   9.916  13.525
11460W        W76280   4.662  28.468   4.569
11461W        W76281   9.575  19.341   3.974
11462W        W76282  19.979  22.493   0.921
11463W        W76283   9.387  44.864  13.938
11464W        W76284  11.823  19.451  12.735
11465W        W76285  28.787  28.452   3.031
11466W        W76286  14.590  35.596   2.126
11467W        W76287  28.659  41.826   3.292
11468W        W76288  17.942  39.842  12.125
11469W        W76289  33.822  32.979   1.201
11470W        W76290  25.380  12.635   3.726
11471W        W76291  25.399  18.781   3.073
11472W        W76292  25.548  37.467  11.349
11473W        W76293  36.786  30.475  14.324
11474W        W76294  42.129  43.369  13.504
11475W        W76295  13.582  41.837   4.238
11476W        W76296  29.728   8.098   5.143
11477W        W76297   4.360   8.878  12.556
11478W        W76298  32.145  20.322  11.964
11479W        W76299  44.048  18.426  13.952
11480W        W76300  12.394   2.469  12.423
11481W        W76301  15.336   9.164   3.497
11482W        W76302  17.158  40.876   1.747
11483W        W76303  39.848  12.203  12.372
11484W        W76304  42.316  15.237  11.943
11485W        W76305  32.601  13.231   1.352
11486W        W76306  19.734  31.880  10.961
11487W        W76307  20.601  23.944  14.290
11488W        W76308  15.844  34.910   3.697
11489W        W76309  42.418   4.682   0.961
11490W        W76310  24.015  27.674  11.457
11491W        W76311  23.880  15.813   3.778
11492W        W76312  20.977  12.018   0.372
11493W        W76313  25.943  42.296   4.899
11494W        W76314  24.002  44.849  13.122
11495W        W76315   3.707  25.723  12.431
11496W        W76316  41.710  42.839  12.889
11497W        W76317   2.489  22.458  12.883
11498W        W76318   0.758  22.383  12.008
11499W        W76319  40.749  15.563  12.569
11500W        W76320  41.780  10.762  14.609
11501W        W76321   8.626  38.875   2.374
11502W        W76322  44.423  14.694   0.362
11503W        W76323   5.979   4.823   4.065
11504W        W76324   3.774   2.842  11.160
11505W        W76325  12.058  35.595   0.788
11506W        W76326  22.212  13.590  11.590
11507W        W76327  29.800  22.757  13.398
11508W        W76328  32.655  11.341  10.823
11509W        W76329  23.979  44.754   0.974
11510W        W76330  16.279  30.594   5.041
11511W        W76331   8.411  19.533  11.841
11512W        W76332  18.293   0.253   4.823
11513W        W76333   5.474  37.427   3.761
11514W        W76334  31.431  24.669  13.955
11515W        W76335  41.925  15.060  10.336
11516W        W76336  16.675  42.879   2.443
11517W        W76337  29.060   4.121   2.086
11518W        W76338  29.511  42.060   1.456
11519W        W76339  29.643   9.948  10.469
11520W        W76340  18.622  23.948   2.268
11521W        W76341  36.155  13.097  12.269
11522W        W76342   8.152  35.501  12.014
11523W        W76343  28.068  35.489  14.777
11524W        W76344   1.239   5.515   0.803
11525W        W76345  23.692   0.542   1.915
11526W        W76346   0.750  21.778   1.773
11527W        W76347  22.244  44.529   4.531
11528W        W76348  13.107  27.458  11.174
11529W        W76349  10.994  22.103   0.786
11530W        W76350  16.445  29.201   3.953
11531W        W76351  36.667  42.456   0.027
11532W        W76352  30.552  33.880   1.349
11533W        W76353  22.799  27.076  11.886
11534W        W76354   1.729  33.307   1.808
11535W        W76355  35.552  39.697   2.731
11536W        W76356  26.169  28.691  11.020
11537W        W76357  17.814  19.247  12.819
11538W        W76358   2.191  36.843  11.781
11539W        W76359  17.100  22.783   0.074
11540W        W76360  43.287  23.683   2.227
11541W        W76361  40.957  14.825  13.827
11542W        W76362   6.799  26.707  14.960
11543W        W76363  43.997  28.029   4.801
11544W        W76364  37.930  26.268   4.154
11545W        W76365   4.911  37.282  11.522
11546W        W76366  26.531  27.932   2.668
11547W        W76367  13.554   5.206   3.158
11548W        W76368  42.866   4.245   2.356
11549W        W76369   3.168  23.024  13.892
11550W        W76370  35.785  16.684   0.937
11551W        W76371  41.278   1.081  14.813
11552W        W76372  43.833  20.540   1.434
11553W        W76373  39.780   9.324   3.190
11554W        W76374  33.937   1.469   3.344
11555W        W76375   6.732   6.867   1.890
11556W        W76376  42.142  25.636   4.664
11557W        W76377  29.637  13.097   2.302
11558W        W76378  43.840  38.621   4.253
11559W        W76379  17.362  35.451  13.578
11560W        W76380  39.820  25.003   2.406
11561W        W76381  30.088  33.575   0.428
11562W        W76382  25.219   0.513   4.542
11563W        W76383  25.751   2.832   2.992
11564W        W76384  33.057  39.852  11.140
11565W        W76385   2.739  30.089   3.229
11566W        W76386  22.738   7.033  14.687
11567W        W76387   1.489  27.981  12.493
11568W        W76388   1.352  39.298  11.565
11569W        W76389  33.901  37.819  10.744
11570W        W76390  20.220   0.290   0.725
11571W        W76391   5.751   2.486   3.109
11572W        W76392  43.965  43.456  10.593
11573W        W76393  37.138  24.224  11.990
11574W        W76394  31.005  16.406  14.295
11575W        W76395  14.210   8.039   4.853
11576W        W76396  24.628  24.207  11.520
11577W        W76397  44.316  17.967  10.675
11578W        W76398   3.293  24.678  11.743
11579W        W76399   4.293  40.610  11.178
11580W        W76400  38.408  27.078   0.027
11581W        W76401  40.419  30.083   3.647
11582W        W76402  44.658  35.881  12.916
11583W        W76403  23.772  13.547  12.351
11584W        W76404  10.631   2.325   3.152
11585W        W76405  35.008  24.654   3.845
11586W        W76406  35.402  20.331  10.399
11587W        W76407  33.986  42.236  14.015
11588W        W76408  30.902   0.420   1.312
11589W        W76409   4.766  11.303   3.275
11590W        W76410  25.819   0.007   0.455
11591W        W76411   1.434  28.392   0.061
11592W        W76412  26.531  41.870   3.204
11593W        W76413  28.949  26.440   3.715
11594W        W76414  35.458   6.329  14.870
11595W        W76415  41.241  24.148  10.726
11596W        W76416  42.613  19.170  13.939
11597W        W76417  40.925  20.517  14.470
11598W        W76418  23.519   6.707  11.079
11599W        W76419  20.912  37.075   4.620
11600W        W76420  18.628  18.276  10.805
11601W        W76421  33.975   2.413  11.772
11602W        W76422  39.178  16.643   1.820
11603W        W76423  35.026  13.589  12.056
11604W        W76424  44.271  34.870   3.104
11605W        W76425  18.936  32.811   2.691
11606W        W76426  43.984  22.069  12.443
11607W        W76427  16.407  31.586  11.479
11608W        W76428  24.736  43.973  12.090
11609W        W76429   3.131   6.153   3.696
11610W        W76430  30.000  38.806   0.898
11611W        W76431  31.476  21.748   3.946
11612W        W76432  11.623  10.867   3.360
11613W        W76433   1.456   9.976  11.435
11614W        W76434  37.886  21.385   3.775
11615W        W76435  19.778  34.355  11.475
11616W        W76436  24.715  43.528   0.440
11617W        W76437   1.747  33.579   0.455
11618W        W76438  43.199   0.468  13.913
11619W        W76439   7.308  19.304  11.977
11620W        W76440  16.553  31.075  10.649
11621W        W76441  20.341  12.617  10.682
11622W        W76442   5.212  26.627   1.915
11623W        W76443  21.562  12.549  13.320
11624W        W76444  28.686  13.858   3.245
11625W        W76445  10.595   1.710  12.420
11626W        W76446  28.380  27.006   1.252
11627W        W76447  28.948  41.435   0.321
11628W        W76448  21.212  12.308  11.480
11629W        W76449  19.654  18.168   1.839
11630W        W76450  23.931  43.465  14.953
11631W        W76451  20.213  43.314   2.374
11632W        W76452  14.732  21.785   2.753
11633W        W76453  44.042  27.545  13.347
11634W        W76454  36.333  21.073  12.833
11635W        W76455  34.542  39.030   3.194
11636W        W76456  15.419  31.516  14.786
11637W        W76457   6.465   0.470   3.606
11638W        W76458   4.753  28.851  12.443
11639W        W76459  22.303  27.268  10.605
11640W        W76460  21.952   9.210  13.311
11641W        W76461  21.446  12.356  14.323
11642W        W76462  39.815  14.052  13.517
11643W        W76463  44.975  38.262  12.127
11644W        W76464  38.069  23.127   3.437
11645W        W76465  34.250  40.636  12.032
11646W        W76466  20.147  21.720  10.691
11647W        W76467   4.866   1.012   4.128
11648W        W76468  36.110  27.656  14.809
11649W        W76469  30.763   3.447   4.186
11650W        W76470  29.402   8.193   1.276
11651W        W76471  18.145  38.035  11.238
11652W        W76472   5.617  13.684   0.443
11653W        W76473   6.998  30.621  14.917
11654W        W76474  27.162  27.908   1.726
11655W        W76475   0.254  36.059   1.948
11656W        W76476  36.417  44.531   0.700
11657W        W76477  34.065  38.072  12.339
11658W        W76478  41.160   4.939   2.640
11659W        W76479   1.460  26.580  12.424
11660W        W76480  40.370  40.043  12.606
11661W        W76481  26.776  18.050  14.412
11662W        W76482   5.926  37.373  14.897
11663W        W76483  43.292   8.856   1.915
11664W        W76484  44.382  18.102  13.013
11665W        W76485  15.734  38.251   0.745
11666W        W76486  25.466  43.761   2.096
11667W        W76487  18.955   3.247  12.170
11668W        W76488   5.962  24.962  14.398
11669W        W76489  29.115  21.838   0.748
11670W        W76490   5.716  44.098   4.910
11671W        W76491  41.454  19.360   2.703
11672W        W76492  38.248  21.086  14.942
11673W        W76493   9.634  19.784  13.450
11674W        W76494   9.306  31.964   1.280
11675W        W76495  43.462  44.658   4.196
11676W        W76496  25.197  25.730  12.425
11677W        W76497   6.640  33.164  14.409
11678W        W76498  40.360   5.236  12.864
11679W        W76499  39.393  34.595  13.523
11680W        W76500   9.413  35.059  12.063
11681W        W76501  18.072   7.844  10.864
11682W        W76502  35.610  33.658   3.210
11683W        W76503  36.313  13.987  11.894
11684W        W76504  12.362  32.252   4.599
11685W        W76505  21.058  19.707  13.898
11686W        W76506   3.850   1.650  11.310
11687W        W76507  19.664  40.263  14.778
11688W        W76508  33.898  22.688  14.723
11689W        W76509  11.613  19.357   3.618
11690W        W76510  38.571  39.028   0.778
11691W        W76511   8.313   2.171  14.722
11692W        W76512  34.923   6.857   1.400
11693W        W76513  16.906   9.644   9.977
11694W        W76514  44.273  31.679   5.103
11695W        W76515  33.321  35.178  13.981
11696W        W76516  12.804  24.897  12.912
11697W        W76517   3.048  35.638  12.988
11698W        W76518  12.366  20.117   3.229
11699W        W76519  12.070  36.534  13.855
11700W        W76520  33.541  43.394   4.040
11701W        W76521  31.477  43.055   4.968
11702W        W76522  33.696  40.288   4.134
11703W        W76523  20.637   6.274  11.450
11704W        W76524  27.882  32.722  13.462
11705W        W76525  28.468  41.410  14.461
11706W        W76526  17.862  24.133   1.396
11707W        W76527  42.378   6.981   1.552
11708W        W76528  16.752  40.537  14.566
11709W        W76529  15.258  24.948  12.029
11710W        W76530  27.514  36.619   1.034
11711W        W76531  42.836   0.351   3.814
11712W        W76532  42.264  33.441   4.666
11713W        W76533  20.624  24.106  12.483
11714W        W76534  10.302  27.198   2.586
11715W        W76535  24.982  11.252   3.439
11716W        W76536  15.726  40.423  12.693
11717W        W76537   1.304  27.468   4.357
11718W        W76538  41.411  30.466   1.395
11719W        W76539  20.499   2.785   2.244
11720W        W76540  33.827  35.123  10.763
11721W        W76541  30.976   1.196  12.555
11722W        W76542  14.097  20.055   2.127
11723W        W76543  29.240  44.045   2.168
11724W        W76544  43.762   4.378   2.207
11725W        W76545  24.556  42.228  14.097
11726W        W76546  24.439   2.026   2.294
11727W        W76547  42.888  19.278  10.559
11728W        W76548  33.346   9.162  13.168
11729W        W76549  43.799  19.002   3.611
11730W        W76550  16.773  43.807   2.127
11731W        W76551  23.548   0.235  14.090
11732W        W76552  27.552   8.258  13.227
11733W        W76553  16.746   6.176   0.778
11734W        W76554   6.307  40.509  13.328
11735W        W76555  24.150  26.622  12.000
11736W        W76556  25.665   6.848   2.322
11737W        W76557  34.739   8.382  14.621
11738W        W76558  40.493   4.725  10.744
11739W        W76559  23.176  24.202   0.682
11740W        W76560  31.074  34.064  13.500
11741W        W76561  17.034   1.491  14.410
11742W        W76562  19.248  43.780  12.970
11743W        W76563  27.041  36.119   2.786
11744W        W76564  37.536  27.693   3.168
11745W        W76565  35.527   1.192  11.005
11746W        W76566  30.705  41.303   4.782
11747W        W76567  24.526  32.081   3.409
11748W        W76568  41.046  16.946  14.348
11749W        W76569  17.140   2.401   1.422
11750W        W76570  17.962   6.950   3.801
11751W        W76571   4.232  12.710   4.581
11752W        W76572  40.131   8.483  13.483
11753W        W76573  15.409  26.977  14.171
11754W        W76574  28.479   8.193   2.097
11755W        W76575  39.999  17.338   4.811
11756W        W76576   7.255  15.641  12.505
11757W        W76577  10.094  19.056  14.904
11758W        W76578   5.675  35.849   3.763
11759W        W76579  20.445  30.785   3.118
11760W        W76580  10.245  19.305  13.004
11761W        W76581   3.189  40.548  13.641
11762W        W76582  13.710  27.703   2.689
11763W        W76583  42.163  22.626   0.947
11764W        W76584  13.649  21.108   3.189
11765W        W76585  10.142  24.447  13.294
11766W        W76586  41.222   1.804   3.619
11767W        W76587  23.317   0.233   3.962
11768W        W76588  15.727  14.733  11.082
11769W        W76589  30.404  35.420  10.532
11770W        W76590  18.260  15.719   3.347
11771W        W76591  36.831   1.898  13.470
11772W        W76592  16.655  37.997  13.045
11773W        W76593  35.925  36.313   0.754
11774W        W76594  39.844  20.241  10.631
11775W        W76595  12.300  31.686   4.355
11776W        W76596  24.618  21.647  10.924
11777W        W76597  23.051  34.775   2.363
11778W        W76598   5.925  35.822   4.223
11779W        W76599  25.858  31.605   0.762
11780W        W76600   9.603  42.053   4.243
11781W        W76601  30.869  13.551  11.297
11782W        W76602  44.380   6.750   2.845
11783W        W76603  21.172  31.279  10.946
11784W        W76604  12.185  24.441  10.501
11785W        W76605  27.601   4.806  14.488
11786W        W76606  35.888   4.730  11.055
11787W        W76607  41.317   1.429  11.053
11788W        W76608   8.417  35.940  12.055
11789W        W76609  17.183  35.383  14.451
11790W        W76610  37.821   3.100  11.237
11791W        W76611  25.744  21.020  11.071
11792W        W76612  39.141  14.272  12.016
11793W        W76613  39.289  16.925  14.265
11794W        W76614  33.413  14.808   2.821
11795W        W76615   5.719  44.044  13.967
11796W        W76616  30.977   6.668   3.210
11797W        W76617  43.469   4.470   4.254
11798W        W76618  20.988  34.986   3.135
11799W        W76619  12.140  19.056   2.757
11800W        W76620   0.908  37.763   3.264
11801W        W76621   2.191  27.188  14.730
11802W        W76622  22.760  33.307  13.353
11803W        W76623   4.702   8.504   1.935
11804W        W76624  19.995  31.890  13.972
11805W        W76625   5.863   7.121   3.835
11806W        W76626  41.472  32.185  10.723
11807W        W76627  35.413  25.451   1.615
11808W        W76628  31.831  42.117   1.759
11809W        W76629  19.093  17.781   0.315
11810W        W76630  14.781   3.258   5.239
11811W        W76631  10.243   6.333   2.362
11812W        W76632   2.707  44.216   3.145
11813W        W76633  15.794   9.369  14.405
11814W        W76634  20.055  17.791  12.061
11815W        W76635  43.756  44.023   4.079
11816W        W76636  11.909  38.575   0.945
11817W        W76637  26.577  43.000  12.459
11818W        W76638  39.140  26.601  12.043
11819W        W76639  23.331   6.796   1.690
11820W        W76640  33.075  16.514   0.596
11821W        W76641   4.215  20.782   4.618
11822W        W76642  12.646   2.005   1.828
11823W        W76643  31.711  19.490  14.922
11824W        W76644  26.902   2.811  10.739
11825W        W76645  27.248  20.720   3.942
11826W        W76646  40.565  25.499  12.536
11827W        W76647   2.788  26.277  12.557
11828W        W76648  27.174  30.520   0.559
11829W        W76649  40.378  22.491   1.206
11830W        W76650   4.740  31.674  10.043
11831W        W76651  32.891  43.683  14.601
11832W        W76652  25.758   2.423   2.050
11833W        W76653  29.098  25.494   4.313
11834W        W76654   9.717  10.646   3.214
11835W        W76655  24.837  34.567   5.045
11836W        W76656   2.312  22.608   0.312
11837W        W76657   2.861  42.539   3.382
11838W        W76658  33.130  14.780  14.255
11839W        W76659  31.514  40.889  10.622
11840W        W76660  11.280  16.852   3.853
11841W        W76661  19.812   3.220   2.498
11842W        W76662  26.479  18.158  14.834
11843W        W76663  19.643  27.147  13.333
11844W        W76664  19.771   4.479   3.717
11845W        W76665   0.903  42.367  12.196
11846W        W76666   9.543  22.494  14.828
11847W        W76667  20.201  27.988  13.413
11848W        W76668   9.390  24.587   3.639
11849W        W76669   3.812  29.075   4.593
11850W        W76670  14.095  42.042   4.275
11851W        W76671  43.633  14.270   3.770
11852W        W76672   5.088   8.633   3.702
11853W        W76673  24.934  17.465   0.383
11854W        W76674  10.358  27.413  14.467
11855W        W76675   0.250   1.773  13.298
11856W        W76676  34.414   1.354   4.256
11857W        W76677   8.097  21.332  13.528
11858W        W76678  15.403  19.268   3.395
11859W        W76679   6.476  18.242  12.565
11860W        W76680  27.214  40.071  11.673
11861W        W76681  28.237  19.633   4.163
11862W        W76682  38.401  13.207  13.377
11863W        W76683  35.374  41.017   4.170
11864W        W76684  35.851   2.434   2.475
11865W        W76685   3.170   3.518  14.268
11866W        W76686   6.844   6.570   0.912
11867W        W76687   5.110  16.877  10.941
11868W        W76688  35.927  20.223  11.124
11869W        W76689  14.780  11.767  14.363
11870W        W76690  11.177  25.857   4.799
11871W        W76691  10.787   9.721   2.653
11872W        W76692   5.804  41.261   2.940
11873W        W76693  22.429  28.376  11.166
11874W        W76694   0.995  39.183   1.768
11875W        W76695  37.226  36.004   1.585
11876W        W76696  38.417  35.363  14.534
11877W        W76697  14.134  43.330   2.297
11878W        W76698  34.684  30.378  10.975
11879W        W76699  28.526  42.249   3.943
11880W        W76700  29.006   5.838  10.995
11881W        W76701  24.042  10.094   2.603
11882W        W76702  43.791   8.676   1.795
11883W        W76703  27.661  36.781   2.790
11884W        W76704   8.792  44.307  11.565
11885W        W76705  24.047  41.225   0.890
11886W        W76706  30.169  19.575  14.836
11887W        W76707   8.713  31.984   2.091
11888W        W76708  16.375  38.393  13.950
11889W        W76709  44.031  34.037  13.405
11890W        W76710  21.603  22.656   3.924
11891W        W76711  31.934  20.983   4.494
11892W        W76712  33.402  26.132  13.160
11893W        W76713  44.292  26.163  14.279
11894W        W76714  31.933  21.540   2.579
11895W        W76715  20.314   8.362  13.830
11896W        W76716  25.126  42.990   1.686
11897W        W76717   5.636   0.278   4.203
11898W        W76718  23.780  27.992  14.870
11899W        W76719  15.023  10.073  12.510
11900W        W76720   2.682  30.213  13.408
11901W        W76721  15.131  37.130   1.704
11902W        W76722  27.979  25.664   1.954
11903W        W76723  29.041  29.500  14.961
11904W        W76724  11.228   1.916  13.814
11905W        W76725  26.567   2.094   4.131
11906W        W76726  35.096  18.795  13.721
11907W        W76727   6.447  17.634  11.390
11908W        W76728  12.855  14.111   3.203
11909W        W76729  42.755  43.309   1.420
11910W        W76730   8.277  21.083  12.536
11911W        W76731  11.720  12.293   3.769
11912W        W76732  36.379  29.707  14.472
11913W        W76733  44.807   6.630   1.704
11914W        W76734  13.330  38.378  11.880
11915W        W76735  42.077  25.062  10.207
11916W        W76736  39.788  38.175  12.485
11917W        W76737   4.922   0.168  13.553
11918W        W76738  21.961  27.049  11.550
11919W        W76739  27.936  34.847  13.913
11920W        W76740  28.545  14.595  13.423
11921W        W76741  20.273   9.674   2.190
11922W        W76742  39.510   9.332   2.737
11923W        W76743  31.318  14.121  14.352
11924W        W76744   7.216   0.757   0.872
11925W        W76745   6.575  16.123   3.451
11926W        W76746  15.151   5.087  11.477
11927W        W76747   2.942   9.513   4.041
11928W        W76748  36.948  26.124  12.998
11929W        W76749  37.531  12.046  13.951
11930W        W76750   9.782  31.167   1.154
11931W        W76751  33.650   6.638   2.803
11932W        W76752  23.014  21.260   2.686
11933W        W76753  12.909  40.961  11.622
11934W        W76754  33.834  22.491   3.331
11935W        W76755  12.108  36.605   0.206
11936W        W76756  30.410  44.745   4.957
11937W        W76757  43.333  35.847  10.621
11938W        W76758  37.849  42.523  12.025
11939W        W76759  25.947  35.019  12.083
11940W        W76760  10.314   2.361  12.805
11941W        W76761  32.914  40.938   4.166
11942W        W76762   2.539  40.526  10.742
11943W        W76763  33.457  29.810  13.532
11944W        W76764  15.119  42.725  14.037
11945W        W76765  26.066  20.963   0.908
11946W        W76766   0.899  18.287   0.786
11947W        W76767   2.764   5.657  13.758
11948W        W76768  21.532  31.843   1.699
11949W        W76769  17.584  19.585   4.839
11950W        W76770  10.108  34.328   3.220
11951W        W76771  12.896   7.742  12.127
11952W        W76772  34.801  42.862   2.778
11953W        W76773  26.504  24.596  12.506
11954W        W76774  27.219  26.770   3.243
11955W        W76775  13.699   7.501   0.434
11956W        W76776  16.558  13.618   4.682
11957W        W76777  36.135   6.136   2.754
11958W        W76778  11.410  20.497  12.044
11959W        W76779   9.654  14.853  13.333
11960W        W76780  28.920  23.518  11.597
11961W        W76781  30.605  38.484  12.942
11962W        W76782  42.115  23.305  14.600
11963W        W76783  30.663  41.959   2.237
11964W        W76784  20.141   7.998  11.525
11965W        W76785  10.964  25.057   1.288
11966W        W76786  41.930  28.463  10.787
11967W        W76787  15.113  19.630   3.188
11968W        W76788  13.790  43.912   2.125
11969W        W76789  24.793   0.908  11.981
11970W        W76790  19.939  14.066  13.074
11971W        W76791  10.305  13.873   2.067
11972W        W76792  30.879  12.687   0.422
11973W        W76793  11.315  24.371  10.684
11974W        W76794  43.349   2.230   2.727
11975W        W76795  31.011  23.992  12.011
11976W        W76796  41.341  41.809  14.828
11977W        W76797  30.483   3.007   3.554
11978W        W76798  27.877  38.475   3.725
11979W        W76799   3.720   4.473   2.410
11980W        W76800  14.568  39.814  12.846
11981W        W76801   6.821  44.824   4.608
11982W        W76802  41.347  29.508   0.388
11983W        W76803  40.557  13.631   4.793
11984W        W76804  27.411  22.211  11.697
11985W        W76805  23.533  34.633  12.461
11986W        W76806  37.926  24.157   4.999
11987W        W76807  41.807  34.956   1.308
11988W        W76808  31.950  13.809   4.112
11989W        W76809   0.736  43.018   1.845
11990W        W76810  14.539   1.892  12.462
11991W        W76811  12.312  36.802  12.272
11992W        W76812   7.329  15.008   3.255
11993W        W76813  34.254  26.419  10.994
11994W        W76814  39.939  24.029   3.372
11995W        W76815  12.627  21.495   1.371
11996W        W76816  25.833  32.516  11.077
11997W        W76817  44.799  22.209  12.834
11998W        W76818  44.455  20.518   1.786
11999W        W76819  24.992  27.476  12.625
12000W        W76820  28.461  21.055  14.832
12001W        W76821  28.390  22.140   2.214
12002W        W76822  32.244  39.514  12.252
12003W        W76823  15.649   2.562  12.959
12004W        W76824  29.595  14.389   3.340
12005W        W76825  27.138  13.779  12.109
12006W        W76826  40.941  17.081   2.755
12007W        W76827  18.808  40.359  10.686
12008W        W76828  12.863  40.757  14.146
12009W        W76829  41.873   2.498  14.909
12010W        W76830  19.088  26.420  13.004
12011W        W76831   9.889  21.617   3.248
12012W        W76832  12.381   3.147   4.684
12013W        W76833  31.496  38.806   2.701
12014W        W76834  36.286  30.722   0.507
12015W        W76835  21.418  14.779   4.446
12016W        W76836  36.986  17.107  13.563
12017W        W76837   5.325  23.198  13.445
12018W        W76838  10.570   9.679  11.578
12019W        W76839  41.949  20.441  14.882
12020W        W76840  24.801  34.020  11.495
12021W        W76841  26.740  38.252   2.175
12022W        W76842  13.097  44.874  12.965
12023W        W76843  42.262   5.213  14.411
12024W        W76844   8.404  44.030  10.700
12025W        W76845   5.176  23.088  12.040
12026W        W76846   1.918  20.629  12.628
12027W        W76847  39.018  15.411   9.862
12028W        W76848  35.048   1.011   3.227
12029W        W76849  37.122  20.081   2.878
12030W        W76850  13.702  24.384  14.306
12031W        W76851   2.379  18.700  10.771
12032W        W76852  14.128   9.660  12.055
12033W        W76853  31.637   3.172   1.305
12034W        W76854  31.085   0.948   5.148
12035W        W76855  33.077  40.115   3.316
12036W        W76856  38.128   5.464  13.458
12037W        W76857  37.962  12.697  12.008
12038W        W76858  37.384   8.710  10.289
12039W        W76859   2.487  27.539  11.181
12040W        W76860  40.106  41.244   0.267
12041W        W76861  40.531   0.172   3.700
12042W        W76862   3.162  32.089   3.608
12043W        W76863  32.512  24.332   1.823
12044W        W76864  43.877  29.117  10.827
12045W        W76865  26.495  21.239  14.737
12046W        W76866   5.234  12.393  10.852
12047W        W76867  11.705  10.738   1.375
12048W        W76868   1.366  35.888   1.205
12049W        W76869  12.530  43.994  12.950
12050W        W76870  43.970   1.870  13.477
12051W        W76871   5.599  25.369  14.438
12052W        W76872  20.706  22.856   3.808
12053W        W76873   6.697  27.750   2.719
12054W        W76874  12.105   7.546  11.120
12055W        W76875  27.273  36.343  14.717
12056W        W76876  14.640  25.263  13.956
12057W        W76877  12.765  23.750  13.080
12058W        W76878   2.180  25.300  12.082
12059W        W76879  19.622  13.179  12.140
12060W        W76880  37.398  23.304  13.808
12061W        W76881  32.671  18.830   3.225
12062W        W76882  38.115  27.291   4.210
12063W        W76883   0.038  23.385   3.546
12064W        W76884  28.523  15.709  14.443
12065W        W76885  37.435  12.642  12.915
12066W        W76886  17.726  20.080  11.129
12067W        W76887  33.528   2.141   1.196
12068W        W76888  32.225  20.052   1.461
12069W        W76889  21.043   7.639  10.755
12070W        W76890  27.530   6.380   0.968
12071W        W76891  32.123   3.249   1.816
12072W        W76892  31.574  22.720  14.666
12073W        W76893  28.992  33.266  14.968
12074W        W76894   8.693  18.163   1.954
12075W        W76895  13.632   1.417  12.593
12076W        W76896  27.439  25.571   3.645
12077W        W76897   9.930   0.910   1.662
12078W        W76898  27.659  40.710  11.152
12079W        W76899   7.259  14.611  14.352
12080W        W76900  32.179  42.112   3.604
12081W        W76901  40.051  31.201   3.725
12082W        W76902  28.647  20.276  10.577
12083W        W76903  16.818  35.566  12.179
12084W        W76904  44.836  37.334   2.894
12085W        W76905  35.593  41.566   2.131
12086W        W76906  13.673  41.011   2.424
12087W        W76907  18.741  32.631   2.232
12088W        W76908  18.544  20.137   2.474
12089W        W76909  12.244  20.780   4.336
12090W        W76910   9.786   6.172   3.787
12091W        W76911  39.631  25.022  11.083
12092W        W76912  17.600   4.196  11.905
12093W        W76913  32.527  29.700  10.997
12094W        W76914  25.464  12.223  12.551
12095W        W76915  32.384  44.689   4.118
12096W        W76916  14.892   8.906   3.245
12097W        W76917   8.361   8.621   5.000
12098W        W76918   8.008  18.641   2.171
12099W        W76919   1.710   5.293  13.068
12100W        W76920  38.875   7.697  11.570
12101W        W76921  36.164  15.649   5.522
12102W        W76922  34.036  26.864  12.839
12103W        W76923  22.905  25.052  10.240
12104W        W76924  15.233  31.046  14.900
12105W        W76925  17.318  14.090   1.426
12106W        W76926   0.948  31.405   1.830
12107W        W76927  39.566  19.067   0.593
12108W        W76928  24.501   6.883  13.006
12109W        W76929  22.257  35.556  10.705
12110W        W76930  14.296  26.008  13.577
12111W        W76931  36.157  16.664   9.962
12112W        W76932  42.294  23.941   0.591
12113W        W76933  23.927  11.540   4.099
12114W        W76934  15.264  30.180   1.486
12115W        W76935  35.986   2.948   0.845
12116W        W76936  40.637   8.662  14.332
12117W        W76937  35.220  23.315  13.777
12118W        W76938  14.619  17.707  12.448
12119W        W76939  32.406  18.318   3.245
12120W        W76940   9.685  10.314   2.808
12121W        W76941  23.129  20.478   4.636
12122W        W76942  19.712  27.519  12.234
12123W        W76943  40.940  32.531  11.679
12124W        W76944  11.168  22.580   4.061
12125W        W76945  31.071  12.475   2.737
12126W        W76946  37.378   5.140   3.217
12127W        W76947  42.903  37.064  12.728
12128W        W76948  12.014   9.660   0.019
12129W        W76949  29.641  33.985   1.456
12130W        W76950  14.126  21.686   3.653
12131W        W76951  22.613  16.846  12.837
12132W        W76952  41.814  25.540   0.918
12133W        W76953  29.609  16.033  11.114
12134W        W76954  10.078  35.046  10.652
12135W        W76955  27.930  17.034   1.739
12136W        W76956   0.586  44.240   3.166
12137W        W76957   4.531  17.041   3.551
12138W        W76958  42.431   6.402   3.886
12139W        W76959  42.731  33.377   9.882
12140W        W76960  34.419  30.992  13.461
12141W        W76961  33.970   4.484  13.785
12142W        W76962   5.846   4.542  11.603
12143W        W76963  12.593   8.382  13.412
12144W        W76964  23.188  13.123   0.507
12145W        W76965   7.633  25.730  14.415
12146W        W76966  11.572  33.529  10.656
12147W        W76967  43.267   3.345  10.807
12148W        W76968  34.868   9.514   3.783
12149W        W76969   2.504  11.597   4.527
12150W        W76970  30.384   3.678  12.493
12151W        W76971  40.543  27.993   4.191
12152W        W76972  32.677   3.749  14.763
12153W        W76973  26.742   9.924   3.774
12154W        W76974  31.180  23.998  11.528
12155W        W76975  32.553  43.948   0.331
12156W        W76976  43.622   4.931  10.897
12157W        W76977  33.392  13.305   3.325
12158W        W76978  43.471  42.988   3.226
12159W        W76979  37.459  27.872  13.516
12160W        W76980  20.048  11.360   3.951
12161W        W76981  15.087  12.197   0.361
12162W        W76982  27.556   5.388   4.112
12163W        W76983  17.501  40.010   1.742
12164W        W76984  43.408  14.291  11.036
12165W        W76985  39.421   7.623  11.974
12166W        W76986  41.534   0.396   3.604
12167W        W76987  44.631  23.726  13.454
12168W        W76988   7.504   0.215   4.497
12169W        W76989  26.048  33.615  10.554
12170W        W76990  28.447  23.036   2.355
12171W        W76991   4.976  24.455  13.072
12172W        W76992  31.423   0.950  12.445
12173W        W76993   0.878  24.932   3.195
12174W        W76994   5.247  44.008  11.684
12175W        W76995   4.208   9.115   0.848
12176W        W76996   5.417  32.809   1.249
12177W        W76997  37.608  13.198  13.832
12178W        W76998  13.710   0.887  10.959
12179W        W76999  40.577   2.897   3.120
12180W        W77000  44.286  41.540   4.176
12181W        W77001  22.441  22.883   1.445
12182W        W77002  24.260  22.631  10.770
12183W        W77003  20.001  41.206  10.190
12184W        W77004  28.629  31.676   3.121
12185W        W77005  14.294  24.578   4.213
12186W        W77006  43.524  11.317   0.255
12187W        W77007  18.213  31.644   3.222
12188W        W77008  30.258  26.760  12.475
12189W        W77009   8.269  44.317  11.144
12190W        W77010   9.119  42.388  13.066
12191W        W77011  29.939  26.256   0.480
12192W        W77012   2.009  40.455   0.727
12193W        W77013  37.768   3.499   4.055
12194W        W77014  29.452  38.503   0.321
12195W        W77015  36.081   7.843   4.455
12196W        W77016  17.598  14.070   4.684
12197W        W77017  29.153  26.208   4.878
12198W        W77018   8.744   9.756  12.016
12199W        W77019  22.043  26.736  13.516
12200W        W77020  43.348  37.967   4.188
12201W        W77021  18.020  30.718   3.362
12202W        W77022  13.774  12.070   0.834
12203W        W77023   7.929   3.423  12.601
12204W        W77024  24.238   0.711  10.435
12205W        W77025  11.134   6.291  14.916
12206W        W77026  29.684   2.106   1.825
12207W        W77027  21.700  39.786   1.046
12208W        W77028  39.866  41.272  11.878
12209W        W77029  35.446  13.892  12.009
12210W        W77030  38.386   2.015   4.148
12211W        W77031  10.859  17.107   3.218
12212W        W77032  24.587  11.291  12.154
12213W        W77033  39.257  35.940  13.688
12214W        W77034  27.971  28.464   2.754
12215W        W77035  26.334  16.824   1.831
12216W        W77036  21.043   6.410   0.271
12217W        W77037  24.152  25.453  14.333
12218W        W77038  37.936  31.733   3.816
12219W        W77039  37.819   0.226  12.390
12220W        W77040  44.424  20.437  13.169
12221W        W77041  10.184  44.971  12.744
12222W        W77042  21.036  42.849   2.267
12223W        W77043  24.341  19.881  12.463
12224W        W77044  12.423  40.430  13.226
12225W        W77045  13.104  14.006  11.376
12226W        W77046  19.191  19.967  14.993
12227W        W77047  41.592  17.932  10.282
12228W        W77048  44.247  29.700  13.561
12229W        W77049  21.944   4.975   2.778
12230W        W77050   5.756  44.709   1.680
12231W        W77051  15.327  33.984  14.827
12232W        W77052  34.704  10.280   0.342
12233W        W77053  30.880  30.598  13.567
12234W        W77054  29.684  30.107   3.338
12235W        W77055  18.201  40.842   3.903
12236W        W77056  16.581  24.911  13.390
12237W        W77057   5.894  33.105   4.069
12238W        W77058  20.000  44.376  13.536
12239W        W77059   8.574   2.417   4.128
12240W        W77060  14.104  33.453  11.391
12241W        W77061  42.049  10.799   2.883
12242W        W77062  42.407  16.991  14.420
12243W        W77063  14.734   2.727  14.800
12244W        W77064  14.985   6.677   0.372
12245W        W77065  10.721  40.712  11.514
12246W        W77066  30.504  34.278   5.003
12247W        W77067  27.608   7.960  12.747
12248W        W77068  19.129  22.799   1.360
12249W        W77069  40.263  24.503   2.704
12250W        W77070   8.976  36.533  12.816
12251W        W77071  12.613  35.569  12.354
12252W        W77072  16.160  28.052  14.063
12253W        W77073  10.391  30.133  13.904
12254W        W77074  41.260  12.705   1.184
12255W        W77075  23.089  15.335   4.042
12256W        W77076  28.962  35.923  12.931
12257W        W77077  22.591  42.862   4.608
12258W        W77078   3.885  42.078  12.912
12259W        W77079  26.461  29.478   2.316
12260W        W77080  27.456   6.163   4.688
12261W        W77081   2.556  28.744   2.851
12262W        W77082  39.036  16.151  11.124
12263W        W77083  42.029  35.138   3.848
12264W        W77084  18.176  26.957   3.712
12265W        W77085  36.129   8.529   2.919
12266W        W77086  28.536  22.459  11.503
12267W        W77087  17.238  34.346   4.259
12268W        W77088  31.869  34.047  11.468
12269W        W77089  43.257   3.302  12.998
12270W        W77090  13.347  38.833  14.883
12271W        W77091  14.348  42.333  13.494
12272W        W77092  10.252  40.047   0.709
12273W        W77093  30.436  21.258  14.363
12274W        W77094  22.504  12.075   4.149
12275W        W77095   8.180  28.093   3.148
12276W        W77096   7.404  29.429   0.935
12277W        W77097  23.932   3.601   4.798
12278W        W77098  32.097  36.952  13.993
12279W        W77099  10.815  11.773  10.734
12280W        W77100  43.961  10.306  11.087
12281W        W77101  30.742  40.809   3.106
12282W        W77102  25.965  24.201   0.754
12283W        W77103  43.741  30.891  13.981
12284W        W77104   4.393  10.810  12.636
12285W        W77105  28.981   1.239   0.956
12286W        W77106  19.967  25.228   3.420
12287W        W77107  13.621  44.007  13.059
12288W        W77108  27.971  41.265  12.953
12289W        W77109  26.413  24.087   3.279
12290W        W77110  39.984  38.395  13.383
12291W        W77111  15.338  20.250   1.854
12292W        W77112  12.597  16.615   2.553
12293W        W77113  30.421  20.150   3.631
12294W        W77114  35.906  24.684  14.258
12295W        W77115  10.341  37.636  11.482
12296W        W77116  35.853  13.766  13.364
12297W        W77117  17.736  43.869   0.921
12298W        W77118  19.540  27.077  13.861
12299W        W77119  34.890  29.492   1.872
12300W        W77120  29.413  41.548   0.524
12301W        W77121   5.706  44.552  13.801
12302W        W77122  14.957  27.484  14.410
12303W        W77123   3.232   8.886  12.973
12304W        W77124  26.064  31.921   0.077
12305W        W77125   3.728  30.156  13.516
12306W        W77126  43.006  39.321  13.855
12307W        W77127  38.399  40.887  13.532
12308W        W77128  30.238  37.832   4.332
12309W        W77129  36.791  42.489  11.116
12310W        W77130  17.219  28.541  10.351
12311W        W77131  34.334   8.498   0.418
12312W        W77132  16.353  28.141  11.995
12313W        W77133   2.849  38.912   3.610
12314W        W77134   6.775  16.352   1.817
12315W        W77135  10.268   9.734  14.393
12316W        W77136  26.249  34.662   3.171
12317W        W77137  17.198  18.591  12.427
12318W        W77138  11.217   8.497  14.581
12319W        W77139  29.851  42.503   4.393
12320W        W77140  15.667  24.680  14.464
12321W        W77141   1.369  18.968   0.752
12322W        W77142  11.358   7.400  11.522
12323W        W77143  38.293   5.090  14.683
12324W        W77144   4.629   5.732  13.832
12325W        W77145  33.637   8.024  11.168
12326W        W77146   8.797  24.318  14.553
12327W        W77147   1.824   7.281  12.294
12328W        W77148  40.249  25.044   2.686
12329W        W77149   3.009  34.024   2.751
12330W        W77150  16.491  12.265  10.347
12331W        W77151  25.747  33.366   2.985
12332W        W77152   6.690   3.231   1.358
12333W        W77153  10.731   0.528   0.495
12334W        W77154  33.919   9.359  10.858
12335W        W77155  41.677  15.780   5.006
12336W        W77156  31.567  17.716   3.200
12337W        W77157  21.673  19.630  10.603
12338W        W77158  19.852  27.670  11.405
12339W        W77159  31.613   2.838   1.706
12340W        W77160   4.468  44.401  11.598
12341W        W77161   8.236  30.705   2.856
12342W        W77162  32.250  33.571   5.276
12343W        W77163  44.472  41.571  12.190
12344W        W77164  24.519  44.315  13.752
12345W        W77165  30.158  38.093  10.579
12346W        W77166   4.372  43.540  13.836
12347W        W77167  17.374  12.166  10.702
12348W        W77168  38.615  44.314  14.819
12349W        W77169   0.029   8.043   0.689
12350W        W77170  38.504  27.953  14.403
12351W        W77171  15.726  38.323   2.191
12352W        W77172   8.109  11.376   3.846
12353W        W77173  37.708   1.758  10.721
12354W        W77174  39.277  33.817  11.021
12355W        W77175  26.457  35.802  11.650
12356W        W77176  17.944  35.638  14.936
12357W        W77177   1.993   5.351   3.236
12358W        W77178  26.596  44.389  14.012
12359W        W77179  42.807  23.995   4.925
12360W        W77180   7.631  21.289   4.345
12361W        W77181  20.303  21.761  11.936
12362W        W77182  26.212  34.521  11.911
12363W        W77183   8.258  13.917   1.147
12364W        W77184   5.343  28.382  13.450
12365W        W77185  16.513  20.733  11.998
12366W        W77186  16.667  29.177  14.894
12367W        W77187  37.068  16.540  14.659
12368W        W77188   9.556  24.501   4.674
12369W        W77189  13.870  38.075   0.052
12370W        W77190  34.941  11.191  11.052
12371W        W77191  22.275  14.382   4.939
12372W        W77192   7.953  23.292   1.786
12373W        W77193  38.122  30.328  12.865
12374W        W77194   2.466  41.276   1.868
12375W        W77195  24.233   2.797  12.418
12376W        W77196  20.107  39.293   0.897
12377W        W77197  18.770  20.193   1.384
12378W        W77198   5.846  36.980   1.486
12379W        W77199  44.088  33.022  14.283
12380W        W77200  27.398  14.379   5.063
12381W        W77201  34.202  29.426   4.174
12382W        W77202  33.526  16.932   2.877
12383W        W77203  36.645  16.696   9.821
12384W        W77204  40.502  16.929  14.930
12385W        W77205  41.334   4.860   0.453
12386W        W77206  26.075  23.748  12.338
12387W        W77207  15.639  19.075  12.948
12388W        W77208  33.595  42.016  12.055
12389W        W77209   5.895  17.982   3.161
12390W        W77210  38.556  15.339  12.047
12391W        W77211  14.945  40.419  14.277
12392W        W77212  23.483  13.526   0.724
12393W        W77213  36.472  33.103   3.237
12394W        W77214   3.474  25.936  12.012
12395W        W77215  28.584   2.873   3.318
12396W        W77216  29.159  20.549   2.824
12397W        W77217  23.699  21.090  14.954
12398W        W77218  37.910   8.213   3.868
12399W        W77219   9.604  29.822   2.155
12400W        W77220  36.672  39.335  12.023
12401W        W77221  13.740  10.697   4.942
12402W        W77222  38.743  17.687   3.862
12403W        W77223  12.061  34.889  10.666
12404W        W77224  18.121  39.052   3.548
12405W        W77225  30.106   2.379   4.727
12406W        W77226   7.964  15.274   1.361
12407W        W77227  12.589  21.419   3.813
12408W        W77228   3.757  25.555   5.342
12409W        W77229   8.886   4.120   1.201
12410W        W77230  42.428  11.287  13.675
12411W        W77231  12.191  21.749  11.468
12412W        W77232  24.197  27.055   3.590
12413W        W77233   9.375   5.821   3.152
12414W        W77234  42.757  25.843   4.029
12415W        W77235  39.390  23.754   1.779
12416W        W77236  32.807  33.600   2.780
12417W        W77237   0.695  16.108   4.580
12418W        W77238  11.228  26.580   2.145
12419W        W77239  19.099  25.965   0.863
12420W        W77240  19.831  21.582  11.984
12421W        W77241  42.582  18.547   0.127
12422W        W77242  17.061  15.895  14.112
12423W        W77243  36.294   4.385   3.088
12424W        W77244  13.610  34.061   2.224
12425W        W77245  17.372  40.383  14.851
12426W        W77246  25.616  14.634  10.735
12427W        W77247  25.700  26.140   1.500
12428W        W77248   9.565  18.192   0.096
12429W        W77249  25.199  23.288   2.118
12430W        W77250  26.982  23.128   2.240
12431W        W77251  26.709  11.357  14.341
12432W        W77252  43.421  12.161  11.128
12433W        W77253  31.761  40.909   3.129
12434W        W77254  19.744  43.735   2.389
12435W        W77255  19.507  35.984   3.429
12436W        W77256  32.237  43.266  13.941
12437W        W77257  10.923  43.497   2.247
12438W        W77258   6.447  29.126  11.570
12439W        W77259  44.755   9.214   2.305
12440W        W77260  37.152   7.218  12.527
12441W        W77261  35.700  43.411   0.541
12442W        W77262  34.869  33.037   3.240
12443W        W77263  33.974   9.673  13.856
12444W        W77264  32.651   9.244   1.936
12445W        W77265  27.140  33.563  11.989
12446W        W77266   0.517  14.359   2.497
12447W        W77267  16.218   7.960   3.709
12448W        W77268  39.364  15.682  12.114
12449W        W77269  40.718  13.291  11.257
12450W        W77270  44.807   3.126  12.027
12451W        W77271  36.724  34.432   2.885
12452W        W77272  12.723  14.336  11.228
12453W        W77273  43.671  39.197  10.939
12454W        W77274   7.053  29.821   0.922
12455W        W77275  12.551  16.153  13.859
12456W        W77276   0.122  17.930  14.579
12457W        W77277  36.505   7.239   5.162
12458W        W77278  38.880  32.923  10.630
12459W        W77279  17.631   5.676   1.762
12460W        W77280  43.819   7.930  10.542
12461W        W77281  16.749  32.391  14.288
12462W        W77282  17.401  15.491   1.138
12463W        W77283  35.837   0.246   3.125
12464W        W77284   3.349  34.030  11.432
12465W        W77285  41.596  23.214  14.536
12466W        W77286  19.528  22.170   4.593
12467W        W77287  19.552  18.182   3.792
12468W        W77288  21.692  36.090  13.496
12469W        W77289  17.413   8.743  14.455
12470W        W77290  35.951  11.834   2.875
12471W        W77291   3.687  30.116   4.202
12472W        W77292  42.832  18.349  11.916
12473W        W77293  29.600  30.153   4.450
12474W        W77294  30.716  23.946   3.602
12475W        W77295   9.364  33.417   2.844
12476W        W77296  33.093  33.326  10.686
12477W        W77297  40.538  26.498   3.926
12478W        W77298   8.610  20.573  14.446
12479W        W77299  39.524  13.931   1.618
12480W        W77300  41.888  42.498   4.837
12481W        W77301  21.301  29.910   0.332
12482W        W77302   8.666  43.692  12.846
12483W        W77303  22.217  40.232  14.497
12484W        W77304  14.611  21.262  11.143
12485W        W77305   1.389  15.400  13.907
12486W        W77306   0.249  29.348   3.682
12487W        W77307  14.150  30.373  12.453
12488W        W77308  37.878  14.382   0.003
12489W        W77309  31.951  14.814   3.288
12490W        W77310  33.740  24.574   2.713
12491W        W77311   0.413  30.666   3.792
12492W        W77312   7.585  29.368  12.524
12493W        W77313  40.499  20.996  13.986
12494W        W77314  20.129   3.046  13.458
12495W        W77315   1.823   9.863  13.757
12496W        W77316  38.119   3.553   4.990
12497W        W77317  15.786  19.214   4.641
12498W        W77318  24.028  26.626   2.283
12499W        W77319  21.205  33.645  10.732
12500W        W77320   6.881  35.509   2.608
12501W        W77321   8.510  43.836   4.488
12502W        W77322  42.968   1.416  10.748
12503W        W77323  14.662  25.789  13.991
12504W        W77324  35.388  24.297   0.957
12505W        W77325  38.756  10.661   1.772
12506W        W77326   9.138  27.558  11.965
12507W        W77327  29.796   9.396  11.005
12508W        W77328  10.927   4.749  11.740
12509W        W77329  17.574  42.154   3.212
12510W        W77330  32.542   3.394   3.693
12511W        W77331  38.115  42.137   1.001
12512W        W77332  12.338  41.730   2.209
12513W        W77333  34.415  23.593   3.593
12514W        W77334  27.111  36.857  14.710
12515W        W77335  10.383  20.132  14.520
12516W        W77336   1.488  12.307   3.084
12517W        W77337   0.751  19.611   2.325
12518W        W77338  11.021  44.113  10.099
12519W        W77339  25.503  29.391   1.156
12520W        W77340  10.373  43.345   1.021
12521W        W77341  39.457  43.402  11.177
12522W        W77342  44.750  13.827  13.432
12523W        W77343  34.202  14.252   0.497
12524W        W77344  43.350  43.727  12.936
12525W        W77345  26.539  15.786  14.569
12526W        W77346   2.350  44.556   0.479
12527W        W77347   0.848  32.884   4.332
12528W        W77348  18.034   1.381  11.420
12529W        W77349  13.754  35.018   3.467
12530W        W77350  10.148  29.615   5.225
12531W        W77351  15.152  36.518  13.953
12532W        W77352  23.255  23.117   1.259
12533W        W77353   4.952  42.939   4.362
12534W        W77354  38.772  41.479   3.133
12535W        W77355  39.481  10.138  14.372
12536W        W77356  27.475  27.711   2.824
12537W        W77357  19.156   4.483  10.679
12538W        W77358  33.788   0.459   3.142
12539W        W77359   5.246   6.606   0.491
12540W        W77360  37.606   0.958  11.536
12541W        W77361  13.383   4.740  10.772
12542W        W77362  41.466  21.607  13.324
12543W        W77363  11.576   2.425   0.725
12544W        W77364  19.623  32.502   0.703
12545W        W77365  24.008  25.308  12.430
12546W        W77366  41.842  35.671  14.354
12547W        W77367  10.879  12.124   1.809
12548W        W77368  36.723  26.302   3.684
12549W        W77369  11.143  13.945   3.424
12550W        W77370  24.288  37.962  12.676
12551W        W77371  20.160   6.370   1.821
12552W        W77372  18.484  38.139   3.451
12553W        W77373  25.698   7.187   5.192
12554W        W77374  36.453  19.653  13.069
12555W        W77375  38.472   1.268  11.778
12556W        W77376  33.479  28.449   3.340
12557W        W77377  30.514  14.728  14.559
12558W        W77378  24.516  15.174  10.679
12559W        W77379   3.361  31.342  12.923
12560W        W77380  15.557  23.331   4.725
12561W        W77381  28.868   6.370   3.631
12562W        W77382  23.244  42.613  13.070
12563W        W77383  37.914   2.259  10.692
12564W        W77384  13.276  12.510  12.973
12565W        W77385  38.390  44.636  12.630
12566W        W77386  32.398  41.768  11.568
12567W        W77387  42.003   2.418   0.481
12568W        W77388  42.702  29.033  10.725
12569W        W77389  18.607  29.961  12.696
12570W        W77390  12.706  35.721  13.326
12571W        W77391  29.935  25.685  13.581
12572W        W77392   0.160  29.158   0.289
12573W        W77393  38.545  31.766  12.896
12574W        W77394  32.824  24.683   0.723
12575W        W77395  37.546  23.560  11.995
12576W        W77396   9.216  39.225  10.446
12577W        W77397  12.569  11.124   0.201
12578W        W77398  15.865  35.828   3.112
12579W        W77399  22.624  24.788   3.689
12580W        W77400  42.229  42.406   1.443
12581W        W77401  21.582  22.953  11.774
12582W        W77402  42.428  29.715  12.933
12583W        W77403  36.219  23.507  14.566
12584W        W77404  13.218  19.952  12.075
12585W        W77405  16.122  42.813  11.613
12586W        W77406  32.226  24.630  14.520
12587W        W77407   3.339   7.413  14.765
12588W        W77408  10.691  41.044  12.942
12589W        W77409  27.019  15.842   3.817
12590W        W77410   2.352  21.046  14.376
12591W        W77411  38.415  37.564  12.953
12592W        W77412  15.633  42.079  14.013
12593W        W77413  18.875  10.780   4.274
12594W        W77414  41.761  15.785   4.129
12595W        W77415  22.633  15.392  11.599
12596W        W77416  22.109  30.577   3.042
12597W        W77417  26.079   0.201  10.694
12598W        W77418   8.851  11.389   1.205
12599W        W77419  39.521  12.130   1.252
12600W        W77420  40.309  44.866   0.821
12601W        W77421  10.248  29.927  14.391
12602W        W77422  23.723  17.638   0.742
12603W        W77423   5.900  44.759  14.263
12604W        W77424  42.456  23.068   0.955
12605W        W77425  21.705  20.674  14.505
12606W        W77426  11.257  22.142   3.810
12607W        W77427   0.328  36.831  10.738
12608W        W77428   5.278  23.538  14.521
12609W        W77429  33.066  26.534   4.285
12610W        W77430  21.988  27.471   3.697
12611W        W77431  18.776  19.583   1.796
12612W        W77432  37.203  11.968  11.876
12613W        W77433   3.810  32.250   2.426
12614W        W77434  32.614   2.836  10.722
12615W        W77435   3.926  37.923  12.483
12616W        W77436   9.601  36.128   0.043
12617W        W77437  43.224   3.155  13.521
12618W        W77438  25.080   7.140  14.363
12619W        W77439   4.643  22.780  11.634
12620W        W77440  22.059   2.244  11.351
12621W        W77441   7.577   8.729   0.508
12622W        W77442  11.441  20.314   1.589
12623W        W77443  20.550  43.866  13.926
12624W        W77444  36.374   4.183   4.026
12625W        W77445  17.964   3.492  14.035
12626W        W77446  38.496  14.805  14.193
12627W        W77447   4.751  39.920   9.647
12628W        W77448  24.608  26.305   2.877
12629W        W77449  33.499  13.827   2.955
12630W        W77450   3.211  32.644   1.773
12631W        W77451  22.480  10.122  14.824
12632W        W77452  30.355  42.425   1.496
12633W        W77453  20.753  18.705  13.388
12634W        W77454  42.030  34.814   4.884
12635W        W77455  21.467  12.141   1.365
12636W        W77456  10.217   3.962  12.130
12637W        W77457  17.654   9.217  14.506
12638W        W77458  20.345  31.625  14.312
12639W        W77459  36.821  11.254  14.549
12640W        W77460  15.430   4.323   0.696
12641W        W77461  30.439  38.613  13.423
12642W        W77462   8.140  40.785   0.086
12643W        W77463  15.849  34.395  10.768
12644W        W77464  37.373  15.292  13.954
12645W        W77465  41.882   9.346  11.580
12646W        W77466  31.436  15.163   2.400
12647W        W77467  28.674  23.835   4.490
12648W        W77468  39.215  25.776   0.892
12649W        W77469  41.051   1.742   2.376
12650W        W77470  17.720  16.304   0.937
12651W        W77471  32.221  24.100  14.400
12652W        W77472  43.271  38.777  12.936
12653W        W77473   6.520  35.974   1.257
12654W        W77474  25.529  43.847  10.889
12655W        W77475  42.445  19.765  13.304
12656W        W77476  36.186   9.213  10.601
12657W        W77477  20.207   1.787   1.589
12658W        W77478   7.367  31.852  13.654
12659W        W77479  27.635  44.515   1.333
12660W        W77480   6.222  15.748  14.035
12661W        W77481  37.564  14.631   0.906
12662W        W77482   2.825   3.026   2.366
12663W        W77483  18.821  29.498  13.039
12664W        W77484  18.186   2.406  13.185
12665W        W77485  24.310  10.723   3.199
12666W        W77486   4.446  14.206  10.714
12667W        W77487  33.344   6.149   4.628
12668W        W77488  36.201  28.206   4.209
12669W        W77489  10.644  16.786   1.894
12670W        W77490  23.463   5.239  14.811
12671W        W77491  19.701  31.596   1.808
12672W        W77492  13.636  14.749  12.372
12673W        W77493  36.576  26.123   2.794
12674W        W77494  25.034  36.609  11.133
12675W        W77495  36.516  20.803   2.725
12676W        W77496  21.778  26.095   4.233
12677W        W77497  21.313   5.779  13.983
12678W        W77498  42.951  44.059  13.809
12679W        W77499  33.566  37.059   1.022
12680W        W77500  14.458  34.122  12.482
12681W        W77501  12.628  33.944   0.079
12682W        W77502   5.917  11.635  13.320
12683W        W77503  41.608   6.199  11.177
12684W        W77504  41.437  44.539   0.876
12685W        W77505  12.867   4.478   0.792
12686W        W77506  18.199  11.594   3.041
12687W        W77507  19.809   4.550  10.108
12688W        W77508  31.470  44.247  12.984
12689W        W77509   7.069  18.891  10.483
12690W        W77510  10.860  26.808   3.731
12691W        W77511  40.047  43.974  11.570
12692W        W77512   3.414  17.844   2.340
12693W        W77513  16.176  14.678   4.271
12694W        W77514  28.173  38.016   2.608
12695W        W77515  12.671  42.723   2.914
12696W        W77516  36.822  44.155  12.487
12697W        W77517  36.441  38.263  10.704
12698W        W77518  32.847   2.029  13.788
12699W        W77519  10.051  26.430   4.978
12700W        W77520  18.269  25.968  13.067
12701W        W77521   0.524  32.914   0.838
12702W        W77522  35.505  13.350  13.383
12703W        W77523  16.728  12.127   0.502
12704W        W77524   2.618  21.263  12.670
12705W        W77525  33.589  17.718   4.724
12706W        W77526   0.721  26.522  10.687
12707W        W77527  14.842  14.630   1.682
12708W        W77528   8.863  42.989   1.338
12709W        W77529  36.075   9.120  14.388
12710W        W77530  18.159  14.071  10.742
12711W        W77531  33.949   4.144   1.853
12712W        W77532   9.697  26.385  10.766
12713W        W77533   3.927   0.443  12.106
12714W        W77534  43.986   6.856   3.328
12715W        W77535  34.850  19.297  12.429
12716W        W77536  38.314  11.913   0.480
12717W        W77537  28.105  29.142   0.732
12718W        W77538  26.520  18.615   3.142
12719W        W77539  43.354  41.440   1.727
12720W        W77540  11.877  18.628  13.896
12721W        W77541  34.561  35.421  12.813
12722W        W77542  37.795  10.350   3.514
12723W        W77543  15.695  25.687  13.825
12724W        W77544  21.189  41.610   0.560
12725W        W77545  16.598  22.218   3.225
12726W        W77546  20.519  17.783   1.299
12727W        W77547   3.452  42.909   1.346
12728W        W77548   6.427   6.357   1.209
12729W        W77549   4.884  28.381  11.541
12730W        W77550   4.254  28.403   1.314
12731W        W77551  14.304   9.199  13.360
12732W        W77552  10.754  29.139  14.402
12733W        W77553  22.849  17.105  12.239
12734W        W77554  19.291  18.596  13.970
12735W        W77555  36.549   0.969  12.324
12736W        W77556   8.183  30.898  12.597
12737W        W77557  17.348  20.924  11.438
12738W        W77558  30.864   0.573   0.331
12739W        W77559  35.976  17.544   4.086
12740W        W77560  33.016   3.244  12.829
12741W        W77561   9.220   7.419   2.197
12742W        W77562  18.829  15.288  14.921
12743W        W77563  34.057  10.837   2.261
12744W        W77564  17.047   5.251   1.296
12745W        W77565   7.836  18.106  13.047
12746W        W77566  12.153  10.249   4.547
12747W        W77567  15.827  30.097  13.797
12748W        W77568  16.704  43.040  11.707
12749W        W77569  39.851   3.926   2.791
12750W        W77570  34.674   9.094  13.954
12751W        W77571   2.547  13.526   4.416
12752W        W77572  19.220  15.967   4.291
12753W        W77573  15.609   5.353   3.186
12754W        W77574  15.384  20.674  12.910
12755W        W77575  40.485   7.926   2.707
12756W        W77576  42.781  23.427   4.213
12757W        W77577  15.283   5.440  12.051
12758W        W77578  44.993  10.079  11.992
12759W        W77579  31.664  32.348   4.239
12760W        W77580  44.483  39.775   4.128
12761W        W77581  16.828   1.919   1.378
12762W        W77582  40.322   2.299  14.969
12763W        W77583   3.984  35.339   2.445
12764W        W77584  25.624  33.882   1.342
12765W        W77585  16.054  15.572   4.862
12766W        W77586   4.383  28.231  12.726
12767W        W77587  41.405  15.909   3.746
12768W        W77588  43.955  25.265   0.852
12769W        W77589  12.740  15.411  14.258
12770W        W77590  25.988  39.044  14.966
12771W        W77591  34.070   8.875  10.786
12772W        W77592  18.706  33.588  12.441
12773W        W77593  14.460   3.398  14.252
12774W        W77594  22.927   7.261  14.255
12775W        W77595  18.484   7.320   4.571
12776W        W77596   7.520  21.047   2.389
12777W        W77597  31.512  39.410  11.747
12778W        W77598  22.720  38.455   1.212
12779W        W77599  33.660  36.687   3.276
12780W        W77600  28.903  42.437   3.119
12781W        W77601  25.066  36.362   0.464
12782W        W77602  27.672   6.802  13.148
12783W        W77603  34.053  12.116   5.657
12784W        W77604  25.210  21.894  10.242
12785W        W77605  21.727   9.700  14.970
12786W        W77606   5.816   9.188  14.847
12787W        W77607  14.675  35.657  11.547
12788W        W77608  23.405  34.930   1.000
12789W        W77609  43.008   1.924   4.021
12790W        W77610  16.540  37.064   3.099
12791W        W77611  22.996  10.123  14.838
12792W        W77612   9.865   7.295   4.282
12793W        W77613  21.446  44.433  12.868
12794W        W77614  19.606  14.484  13.039
12795W        W77615  32.146  23.688   2.381
12796W        W77616  32.672  44.835   2.763
12797W        W77617  17.751  22.132   1.245
12798W        W77618  26.080  21.549   4.153
12799W        W77619  30.493  14.989   0.017
12800W        W77620   4.333  24.993   2.022
12801W        W77621  43.902  21.557  14.461
12802W        W77622  22.951  23.989   1.682
12803W        W77623  32.968  42.293   2.387
12804W        W77624  20.594  44.551   3.612
12805W        W77625  27.989   4.363   4.754
12806W        W77626  12.155  35.856  10.740
12807W        W77627   2.922  18.985  12.047
12808W        W77628  44.342  11.858  10.154
12809W        W77629  21.805  32.654  11.819
12810W        W77630  35.036  40.155  13.841
12811W        W77631  31.789  33.637   4.967
12812W        W77632   8.107  39.978   3.746
12813W        W77633   5.176  42.282  11.102
12814W        W77634  25.490  24.152  10.887
12815W        W77635  44.592  15.217  14.424
12816W        W77636  43.240  15.820   0.471
12817W        W77637  36.827   0.011  12.070
12818W        W77638  20.255  21.092  12.620
12819W        W77639  23.095  14.583   3.103
12820W        W77640  10.720  27.189  11.186
12821W        W77641  42.332  11.745  13.429
12822W        W77642  40.821  16.599  11.278
12823W        W77643  13.350  17.105  10.206
12824W        W77644  23.740   2.804   2.316
12825W        W77645   8.607  28.683   2.613
12826W        W77646  44.604  14.325   3.619
12827W        W77647  43.954   9.132  14.506
12828W        W77648  40.161  32.549  12.859
12829W        W77649  43.973  20.746  13.223
12830W        W77650   5.885  19.497   0.085
12831W        W77651   2.226  31.630  12.470
12832W        W77652   0.276  34.441  13.282
12833W        W77653  30.403  23.519   3.625
12834W        W77654   7.929  31.504  10.633
12835W        W77655   1.303  29.548  13.465
12836W        W77656  29.970  16.727  11.467
12837W        W77657  20.127  24.203  14.925
12838W        W77658   8.381  19.518  11.344
12839W        W77659  17.022  21.557  14.058
12840W        W77660  35.071  22.484   4.070
12841W        W77661  39.406   9.235   3.995
12842W        W77662  10.405  40.489   2.335
12843W        W77663  10.748  37.493  14.324
12844W        W77664  39.724  28.266   3.519
12845W        W77665  23.694   1.561  12.919
12846W        W77666   9.740   3.038   2.332
12847W        W77667  15.374  18.622   1.252
12848W        W77668  40.726  40.930  10.289
12849W        W77669  35.649   5.166   2.257
12850W        W77670  42.580   4.330  14.578
12851W        W77671  23.263  24.913   1.842
12852W        W77672  14.381  13.193  12.204
12853W        W77673  41.977  14.170  10.890
12854W        W77674  27.082   5.385   4.333
12855W        W77675  20.160  33.178  12.826
12856W        W77676   3.248   3.879  14.872
12857W        W77677  13.202  30.196  14.927
12858W        W77678  27.113  32.675   2.412
12859W        W77679  21.606  43.597  13.567
12860W        W77680  38.728   2.946  10.696
12861W        W77681  36.069  15.805   1.243
12862W        W77682  17.196  22.030   4.020
12863W        W77683  25.274  37.054  11.227
12864W        W77684  27.464  39.013  12.095
12865W        W77685  41.918   9.660   0.788
12866W        W77686  31.879  15.282  14.468
12867W        W77687  21.765  14.798   3.128
12868W        W77688  36.424  18.561   2.772
12869W        W77689   2.978   9.709  13.828
12870W        W77690  26.738  23.075   3.723
12871W        W77691  14.434  11.703   2.103
12872W        W77692  16.149   7.229   1.598
12873W        W77693  34.901  10.023   3.755
12874W        W77694  12.522  28.008  10.216
12875W        W77695  21.017  20.142   3.919
12876W        W77696  36.965  24.475  13.482
12877W        W77697  39.154  44.748  13.918
12878W        W77698   3.296  26.010   1.162
12879W        W77699   0.410  18.942  11.102
12880W        W77700  24.100   5.450   4.182
12881W        W77701  37.909  24.232   0.313
12882W        W77702  13.098  10.788   3.235
12883W        W77703  34.590  43.942  12.965
12884W        W77704  33.318  31.266   2.465
12885W        W77705  31.126   1.353   3.470
12886W        W77706   7.874  18.027  13.914
12887W        W77707  37.859  22.496  11.048
12888W        W77708  26.198  21.752   0.432
12889W        W77709  14.043  17.173   4.219
12890W        W77710  33.138  20.111  11.970
12891W        W77711  31.367  25.479   3.213
12892W        W77712  20.191  40.444   3.749
12893W        W77713   1.727   7.168   1.768
12894W        W77714  32.579  11.495   2.119
12895W        W77715  32.231  24.753   2.382
12896W        W77716  34.300  12.857   3.149
12897W        W77717  14.681  28.504   1.022
12898W        W77718   2.938  35.861   1.317
12899W        W77719   4.740  38.768   3.606
12900W        W77720   4.543   0.227   0.905
12901W        W77721   1.374  23.797  13.211
12902W        W77722  18.754   8.588   2.819
12903W        W77723   8.879  17.516  11.864
12904W        W77724  19.507  27.901   5.101
12905W        W77725   3.803  43.469  14.965
12906W        W77726  29.592   3.282  13.029
12907W        W77727  27.469  10.626  13.542
12908W        W77728   5.286  26.506  13.633
12909W        W77729  35.321  17.204   2.697
12910W        W77730  32.561  37.343  11.079
12911W        W77731  26.029   7.834  11.170
12912W        W77732  42.361  14.737  14.996
12913W        W77733   2.863  15.056  13.940
12914W        W77734  32.128  24.231   2.177
12915W        W77735  35.614   9.859  10.242
12916W        W77736  22.798   3.030   2.140
12917W        W77737  13.953  32.874  11.124
12918W        W77738  20.099  21.029  11.193
12919W        W77739  14.210  11.900   3.082
12920W        W77740   5.137  24.715   0.270
12921W        W77741  11.326  23.473   3.152
12922W        W77742   1.427  35.615   0.705
12923W        W77743  44.789  13.944   3.236
12924W        W77744   2.950   2.713  12.638
12925W        W77745  23.738  15.615  10.441
12926W        W77746  22.195  30.867   4.540
12927W        W77747  44.861  33.542   1.468
12928W        W77748  10.658  10.055  14.293
12929W        W77749  43.522  41.308  12.011
12930W        W77750  18.601   4.749   2.760
12931W        W77751   7.671  42.583   2.421
12932W        W77752  35.065  22.605  10.719
12933W        W77753  12.367  36.793  14.807
12934W        W77754   8.639   4.674  10.911
12935W        W77755  12.172  25.603  14.141
12936W        W77756  43.732  37.318   4.587
12937W        W77757  28.009  11.347  12.075
12938W        W77758  36.465  14.769  13.771
12939W        W77759  34.977  39.273   3.301
12940W        W77760  38.450  35.906   4.750
12941W        W77761  35.720  27.180   4.046
12942W        W77762   9.564  31.612   0.963
12943W        W77763  17.744  27.180   1.758
12944W        W77764  20.691   0.981  13.892
12945W        W77765  39.930   7.206   9.890
12946W        W77766  43.272  34.529   3.655
12947W        W77767  35.269  14.112   3.605
12948W        W77768  11.140  34.959  10.725
12949W        W77769   6.695  37.140   3.271
12950W        W77770  16.066  14.103  10.834
12951W        W77771  43.759  38.508  13.304
12952W        W77772  28.453  31.683  13.493
12953W        W77773  41.528   2.697  10.797
12954W        W77774  34.128  37.831   2.550
12955W        W77775  27.059  37.498   5.269
12956W        W77776  43.314  26.862   0.861
12957W        W77777  37.503  33.078  13.899
12958W        W77778  26.604  13.773  12.140
12959W        W77779  12.399  13.143   2.890
12960W        W77780  28.520  14.617   4.885
12961W        W77781  17.130  14.906  14.900
12962W        W77782  22.991  20.431  10.694
12963W        W77783  36.496  37.246   3.736
12964W        W77784  26.182  17.220  13.390
12965W        W77785  25.852  32.115  10.126
12966W        W77786  35.495  44.823  12.240
12967W        W77787  30.272  27.707   9.973
12968W        W77788  41.872  27.788  11.470
12969W        W77789  16.341  26.140  14.368
12970W        W77790  21.556  29.975   0.945
12971W        W77791  19.763  39.172  12.912
12972W        W77792   1.344  13.786   4.668
12973W        W77793  32.108   3.268  12.726
12974W        W77794  15.597  30.617   2.838
12975W        W77795  31.155  38.857   3.265
12976W        W77796   6.437  22.015  13.060
12977W        W77797  30.268  40.367  12.092
12978W        W77798  34.087  13.359  11.613
12979W        W77799  25.727   3.721   3.281
12980W        W77800   9.921  27.722  14.499
12981W        W77801   7.113   6.405   4.269
12982W        W77802  11.185  14.724   1.364
12983W        W77803  20.953  32.906  12.266
12984W        W77804  40.437  30.737   2.444
12985W        W77805   2.671   4.730  14.948
12986W        W77806  28.004  25.288   1.232
12987W        W77807  10.303  34.522  11.921
12988W        W77808  30.922  28.588   1.957
12989W        W77809  36.559  33.361   1.333
12990W        W77810   9.318  33.575   3.925
12991W        W77811  42.306  11.828  12.918
12992W        W77812  35.589  41.151  12.821
12993W        W77813   3.326  26.162  11.051
12994W        W77814  19.368  19.258   0.190
12995W        W77815  17.181  38.830  10.647
12996W        W77816  18.336  10.727   1.241
12997W        W77817  31.817  13.308   4.095
12998W        W77818   5.638  12.739  13.060
12999W        W77819  25.691  24.730   2.708
13000W        W77820  20.216  42.486  13.015
13001W        W77821  37.844  23.699  11.597
13002W        W77822   5.801  26.160   3.549
13003W        W77823  37.606   2.340  11.675
13004W        W77824  44.036  29.526  13.054
13005W        W77825   5.678  23.186  11.159
13006W        W77826  37.528  26.052   2.613
13007W        W77827   2.478   7.934   3.614
13008W        W77828  20.326  40.991  10.553
13009W        W77829  34.660   0.671   3.151
13010W        W77830   0.496  17.714  13.874
13011W        W77831   0.318   2.947   3.500
13012W        W77832  34.618  41.575   2.832
13013W        W77833  33.358  24.612   0.733
13014W        W77834  34.820  24.212  12.580
13015W        W77835  40.310   7.652   3.145
13016W        W77836  13.689  24.986  14.919
13017W        W77837   2.719  21.036   1.273
13018W        W77838  33.143  41.991  14.347
13019W        W77839   0.751   8.228   2.735
13020W        W77840  25.231  28.719  13.048
13021W        W77841  11.170  31.454   0.906
13022W        W77842   7.177  18.172   0.216
13023W        W77843  44.700  44.974   4.063
13024W        W77844   7.697   5.819   0.743
13025W        W77845  14.750  22.014  13.876
13026W        W77846  44.411   0.883   0.771
13027W        W77847  40.894  28.982   2.105
13028W        W77848  26.173   8.178   4.799
13029W        W77849  15.918  43.549  14.004
13030W        W77850   0.489  21.064   3.208
13031W        W77851  19.091   1.980  13.405
13032W        W77852  19.531  39.460  13.416
13033W        W77853  14.121  34.843  13.911
13034W        W77854  10.466  18.123   0.788
13035W        W77855  11.847  41.489  12.048
13036W        W77856  30.520  32.300  11.800
13037W        W77857   2.873  29.417  14.154
13038W        W77858   0.384  44.073   2.672
13039W        W77859  30.338  26.723   9.630
13040W        W77860  18.655   3.021   4.468
13041W        W77861  24.273  19.945   0.895
13042W        W77862  32.694   9.765   1.886
13043W        W77863  11.279  19.467   0.778
13044W        W77864   7.598  19.773   2.682
13045W        W77865   3.144  20.746   1.244
13046W        W77866   1.890  21.036  10.377
13047W        W77867  29.273  32.026   2.305
13048W        W77868   9.914  25.791   4.189
13049W        W77869   3.368  30.879   2.295
13050W        W77870  20.346   3.277   4.783
13051W        W77871  36.480  10.462  14.575
13052W        W77872  14.793  18.585  10.670
13053W        W77873  16.201  43.483   0.175
13054W        W77874  33.631  25.744   3.678
13055W        W77875  18.650  24.999  11.222
13056W        W77876  14.819  23.589   2.789
13057W        W77877  41.803   6.722  14.217
13058W        W77878  29.097  42.199  12.554
13059W        W77879  33.770  22.851   3.682
13060W        W77880   7.798  32.507  10.891
13061W        W77881  28.440  42.738  10.690
13062W        W77882  38.143  39.110  14.495
13063W        W77883  36.613  13.721  11.558
13064W        W77884  18.348  40.876  12.961
13065W        W77885  16.491  21.628   0.443
13066W        W77886  22.520  18.789   1.734
13067W        W77887   3.489  10.337   3.604
13068W        W77888  41.485   1.174   0.281
13069W        W77889  36.424  23.162  11.982
13070W        W77890   9.993  40.084  14.775
13071W        W77891  33.188  17.351   0.361
13072W        W77892  16.616  26.477  13.346
13073W        W77893  44.979  19.451   3.220
13074W        W77894  34.842   9.773   0.378
13075W        W77895  38.577  24.573   1.218
13076W        W77896  23.191   6.215   1.047
13077W        W77897  14.413  10.478   9.868
13078W        W77898   4.982  40.411  10.698
13079W        W77899  34.088  26.351  14.851
13080W        W77900  32.639  21.283  13.538
13081W        W77901   7.856  37.293  11.117
13082W        W77902  35.404  29.535   1.842
13083W        W77903   6.417  11.183  12.430
13084W        W77904  29.086  43.728   1.769
13085W        W77905   0.853   2.797   3.416
13086W        W77906   1.773  19.321   4.265
13087W        W77907  29.929   3.728   1.327
13088W        W77908  17.282  44.466   3.450
13089W        W77909   9.608  27.881   2.326
13090W        W77910  35.754  11.384   0.825
13091W        W77911  12.683  36.915  13.125
13092W        W77912  41.000   4.234   4.051
13093W        W77913  12.678  34.918  10.645
13094W        W77914  26.503   3.662  11.623
13095W        W77915   2.369   6.682   4.900
13096W        W77916  44.434  30.341   2.842
13097W        W77917  22.069  14.469   2.241
13098W        W77918  39.037  42.493   3.210
13099W        W77919   6.139  14.872   4.088
13100W        W77920  17.237  16.165   2.689
13101W        W77921   8.183   1.516   2.808
13102W        W77922  35.896  13.237   2.728
13103W        W77923  37.849   2.750  10.851
13104W        W77924  16.082  11.263  11.515
13105W        W77925  18.198  26.235   1.247
13106W        W77926   8.778  11.402   1.742
13107W        W77927  44.259  41.511  14.569
13108W        W77928   8.457  26.144   4.149
13109W        W77929   0.759  42.074  14.854
13110W        W77930  16.097  32.241  12.201
13111W        W77931  31.929  37.915   3.600
13112W        W77932  36.270  35.437   0.378
13113W        W77933  41.742   0.467  11.728
13114W        W77934  31.648  14.360   3.261
13115W        W77935  29.904  25.533   3.697
13116W        W77936  13.775  33.204  12.020
13117W        W77937  23.724  33.107   1.951
13118W        W77938  34.490   9.941   2.936
13119W        W77939  11.231  41.007  11.534
13120W        W77940   8.463   9.128   3.125
13121W        W77941  25.993  23.667  14.746
13122W        W77942  34.315  38.140  11.442
13123W        W77943  35.201  32.932  10.480
13124W        W77944  32.388  39.008  14.847
13125W        W77945  28.707  19.194  10.655
13126W        W77946  23.044  32.959   4.791
13127W        W77947  15.415  34.561  13.863
13128W        W77948  42.566  37.400  12.522
13129W        W77949  14.691  44.266  10.303
13130W        W77950   4.931   7.956  14.544
13131W        W77951  10.477  31.583  13.422
13132W        W77952  32.539  19.677   2.340
13133W        W77953  34.964   5.259   0.226
13134W        W77954  44.668  37.416  11.217
13135W        W77955  32.817  19.185   1.027
13136W        W77956  20.627  21.808   3.731
13137W        W77957  38.364   8.098   3.604
13138W        W77958   6.952   4.446   4.510
13139W        W77959  30.524   3.687  14.828
13140W        W77960  18.452   6.723   2.780
13141W        W77961  14.717  24.155  13.094
13142W        W77962  10.947  19.801  11.863
13143W        W77963  27.889  10.426   2.827
13144W        W77964  26.067  40.004   0.222
13145W        W77965  33.851  18.601   1.953
13146W        W77966  16.680   9.674  13.292
13147W        W77967  15.926  25.589   1.349
13148W        W77968  29.502  39.460   0.360
13149W        W77969  14.861  27.986  14.347
13150W        W77970  40.490  42.187   0.761
13151W        W77971  19.554  18.577   2.807
13152W        W77972  36.049  18.983  12.016
13153W        W77973   4.350   0.996   2.251
13154W        W77974  27.243  30.926   4.652
13155W        W77975  44.069   2.557  12.212
13156W        W77976   4.314  42.096  11.176
13157W        W77977   3.960  37.705  14.033
13158W        W77978  25.286  17.283   4.755
13159W        W77979  35.371  25.641   2.960
13160W        W77980  16.057  39.915  14.096
13161W        W77981  43.774  10.656  14.492
13162W        W77982  25.105  18.544   5.389
13163W        W77983  18.629  19.189   2.881
13164W        W77984  36.572  29.446   4.913
13165W        W77985   5.385  15.168   2.657
13166W        W77986  22.357  23.816   0.533
13167W        W77987  20.300  21.209   1.348
13168W        W77988  26.921  15.981   0.268
13169W        W77989  16.805  31.987   0.978
13170W        W77990  35.004   1.845  12.430
13171W        W77991   2.830  32.213  11.541
13172W        W77992  13.949  34.880  11.439
13173W        W77993  34.241  30.581   4.943
13174W        W77994   6.307  44.526  14.493
13175W        W77995  31.968  40.619  10.694
13176W        W77996  13.126  19.162   2.930
13177W        W77997  13.308  23.769   1.401
13178W        W77998  16.239  28.876  10.099
13179W        W77999  19.991   6.190   0.454
13180W        W78000  19.723  12.137   0.010
13181W        W78001   2.988  20.186   2.522
13182W        W78002  12.417   5.653  14.135
13183W        W78003   2.462   7.140   4.656
13184W        W78004  20.608  13.758   3.217
13185W        W78005  39.148  25.692  11.495
13186W        W78006  43.396  35.515   4.998
13187W        W78007  17.810  18.524  11.155
13188W        W78008   5.295  35.451  12.321
13189W        W78009  41.535  38.253  14.018
13190W        W78010  15.569  30.963   3.450
13191W        W78011   8.876  32.445  11.496
13192W        W78012  26.069   3.826   2.400
13193W        W78013  20.107   6.642  10.107
13194W        W78014  12.690  36.476   4.128
13195W        W78015  29.765   8.132  12.012
13196W        W78016   7.837  22.217   4.105
13197W        W78017   2.141  28.724  10.751
13198W        W78018  32.033  17.220   3.772
13199W        W78019  27.770  15.063   3.884
13200W        W78020   4.715  13.722  10.757
13201W        W78021   0.696  44.497   1.764
13202W        W78022  40.807  10.356   1.890
13203W        W78023   9.185  43.360   4.169
13204W        W78024   5.974  22.114   4.589
13205W        W78025  17.631   9.682   4.524
13206W        W78026  37.422  37.507  13.912
13207W        W78027  12.221  21.805   1.319
13208W        W78028  28.633  14.871  14.862
13209W        W78029  43.571  18.840   4.580
13210W        W78030   5.245  20.139  11.561
13211W        W78031   2.794  40.899  11.035
13212W        W78032   9.541  31.928  10.892
13213W        W78033  29.639  17.602   3.162
13214W        W78034  26.593  25.259   3.072
13215W        W78035   3.660  11.120  12.578
13216W        W78036  26.766   1.819   3.747
13217W        W78037  42.974  21.058   4.047
13218W        W78038  23.376  42.256   0.364
13219W        W78039  12.655  44.852  12.000
13220W        W78040  28.875  39.333  11.422
13221W        W78041   1.372  32.189  12.841
13222W        W78042  37.453  31.832   0.131
13223W        W78043  14.215  13.372   0.823
13224W        W78044  21.195  28.977  11.083
13225W        W78045  14.801   1.379  11.195
13226W        W78046  37.340  10.103  11.674
13227W        W78047  16.084   3.730   2.317
13228W        W78048  12.383  36.812   4.400
13229W        W78049   0.346  44.943   0.539
13230W        W78050  39.319  18.521  12.860
13231W        W78051  19.239  23.035   0.922
13232W        W78052   8.649  18.224   4.198
13233W        W78053  33.863   4.730   2.789
13234W        W78054  20.442  34.431  13.952
13235W        W78055   6.895  38.198   4.364
13236W        W78056  14.771  12.709  13.033
13237W        W78057  43.723  39.481  11.365
13238W        W78058  34.958  20.266  10.675
13239W        W78059   2.722  14.529   4.262
13240W        W78060   7.300  21.233   1.604
13241W        W78061   5.869   1.734  11.667
13242W        W78062  11.817  14.170  14.373
13243W        W78063  12.590  28.903  11.085
13244W        W78064  10.280  33.995  13.365
13245W        W78065   9.317  21.699  11.865
13246W        W78066   9.377   7.610  12.075
13247W        W78067   0.518   0.673   3.163
13248W        W78068  11.049  26.634  14.873
13249W        W78069  29.183  17.157   4.704
13250W        W78070  11.824  28.638  10.297
13251W        W78071   2.334  13.532   0.388
13252W        W78072   6.239   9.778   1.679
13253W        W78073  20.630  14.400  12.060
13254W        W78074  23.118  23.218   0.753
13255W        W78075   6.197  37.701   0.539
13256W        W78076  13.852  32.361  14.890
13257W        W78077   7.581  20.534   2.290
13258W        W78078  38.997  11.793  13.165
13259W        W78079   7.203  23.537  14.389
13260W        W78080   4.125  42.542  12.842
13261W        W78081   4.794  31.590  11.646
13262W        W78082  13.839   9.857   3.904
13263W        W78083  20.236  43.453   1.510
13264W        W78084   0.475  11.842  12.084
13265W        W78085   7.466  21.143  11.218
13266W        W78086  41.073  40.955   4.719
13267W        W78087  23.270  34.499   4.125
13268W        W78088   9.668  43.983  11.276
13269W        W78089  31.071  25.836  11.869
13270W        W78090  36.634  38.332  13.291
13271W        W78091  42.337  26.270   0.792
13272W        W78092  25.013  37.913   3.293
13273W        W78093  43.565   3.273   4.031
13274W        W78094  15.253   3.169   4.005
13275W        W78095  31.596   6.412   0.612
13276W        W78096  14.135  11.284   2.364
13277W        W78097  17.024  27.556   0.852
13278W        W78098  13.830  10.866  13.598
13279W        W78099  32.469  37.636  12.063
13280W        W78100  24.536   9.401  13.736
13281W        W78101  44.457  43.547   0.844
13282W        W78102   1.674   9.847  10.635
13283W        W78103  39.139  31.104  14.323
13284W        W78104  14.086  34.024   5.748
13285W        W78105  27.991  43.518  14.023
13286W        W78106  10.290  13.256   3.837
13287W        W78107  33.655  42.046  14.409
13288W        W78108   8.553  32.927  10.342
13289W        W78109  34.123   1.355   0.065
13290W        W78110  23.453  32.391   2.696
13291W        W78111   0.224  33.901   4.988
13292W        W78112  44.367  26.630  14.021
13293W        W78113  35.605   6.723  11.189
13294W        W78114  30.349  41.927   0.752
13295W        W78115  28.123  40.060   2.099
13296W        W78116  14.104  32.952   1.904
13297W        W78117  39.352  23.507   0.815
13298W        W78118   3.911  20.574  11.551
13299W        W78119  20.048  39.939   3.841
13300W        W78120   7.259  29.576   2.274
13301W        W78121  41.065  38.506   0.261
13302W        W78122  29.415  23.245  12.071
13303W        W78123  15.321  38.924  13.471
13304W        W78124  12.600  39.335   3.515
13305W        W78125  32.609  42.012  14.304
13306W        W78126  22.569  19.502   5.026
13307W        W78127  17.661  38.831  11.226
13308W        W78128  21.550   9.355  12.926
13309W        W78129  20.251   2.366   4.946
13310W        W78130  21.081   6.731   3.755
13311W        W78131  40.498  18.786  12.614
13312W        W78132   8.157  31.508   0.992
13313W        W78133  44.378  28.646   4.425
13314W        W78134  21.044  29.578   2.412
13315W        W78135  42.070  34.672  12.763
13316W        W78136  27.899  39.649   1.204
13317W        W78137  39.946  28.073  11.615
13318W        W78138  19.127  17.200  13.520
13319W        W78139  30.644  44.432   1.181
13320W        W78140  32.597  33.086  10.661
13321W        W78141  34.150  18.177   1.114
13322W        W78142  24.395  38.105   4.100
13323W        W78143  19.755  32.880   3.809
13324W        W78144  43.767   9.785   3.682
13325W        W78145  24.746  40.803  14.773
13326W        W78146  33.013  29.979   3.571
13327W        W78147  36.494  40.014   2.459
13328W        W78148   8.019  36.497  13.102
13329W        W78149   7.490   0.265   0.819
13330W        W78150  20.733   2.552  14.044
13331W        W78151   3.753  26.452   0.541
13332W        W78152  28.323   9.655  14.449
13333W        W78153   3.284  15.677   3.578
13334W        W78154  28.965  35.322   0.097
13335W        W78155  31.874  26.793   3.736
13336W        W78156  26.749  15.342  11.020
13337W        W78157  29.585  22.292  12.676
13338W        W78158   8.857  35.060  12.063
13339W        W78159   0.854  27.413  12.617
13340W        W78160  24.123  33.840   2.095
13341W        W78161   7.918  25.727  14.856
13342W        W78162  44.870  42.756  13.458
13343W        W78163  11.651   8.939  12.525
13344W        W78164  22.439  18.758  14.902
13345W        W78165  33.354  22.547  13.066
13346W        W78166   3.679  32.099  11.880
13347W        W78167  35.900  42.496  11.003
13348W        W78168  36.755  34.974  11.605
13349W        W78169  37.898   5.806  11.462
13350W        W78170  30.098   6.410   4.681
13351W        W78171  30.654   5.659   1.818
13352W        W78172  33.370  41.368   4.668
13353W        W78173  15.279  44.911  14.831
13354W        W78174  32.426  43.022  12.482
13355W        W78175   9.382  16.098   1.691
13356W        W78176  38.552  28.474  14.969
13357W        W78177  26.644  20.822  10.811
13358W        W78178  27.878  11.558   4.216
13359W        W78179  40.465  21.696  12.459
13360W        W78180  43.835  31.648   3.840
13361W        W78181  11.948   0.503  14.028
13362W        W78182   9.265  14.835  14.623
13363W        W78183  32.094  37.350   2.186
13364W        W78184  37.179  25.973  10.331
13365W        W78185  26.198   3.485  14.471
13366W        W78186  10.479  27.900   3.581
13367W        W78187  39.413  13.439   1.652
13368W        W78188  26.226  23.140  11.954
13369W        W78189  18.557  15.104  14.497
13370W        W78190  35.172   4.857  12.125
13371W        W78191  18.632  29.602   2.265
13372W        W78192  26.607  39.776  10.431
13373W        W78193  26.997  37.503  14.831
13374W        W78194  39.528  39.619   0.051
13375W        W78195  15.679   8.350   2.780
13376W        W78196  28.128  18.552  10.929
13377W        W78197  42.557   9.824  13.433
13378W        W78198  40.404  17.857   2.456
13379W        W78199  16.856  29.645   2.314
13380W        W78200  20.984   0.431   4.284
13381W        W78201  44.348   1.784   0.756
13382W        W78202  31.997  26.297   3.685
13383W        W78203   5.202   2.760  14.376
13384W        W78204  12.608  13.437   3.733
13385W        W78205  14.377  30.863   4.673
13386W        W78206  10.907  32.829  14.538
13387W        W78207  32.505  14.422   1.319
13388W        W78208  38.173  40.850   2.718
13389W        W78209   5.960  15.777   1.784
13390W        W78210   9.677   9.772  10.412
13391W        W78211  17.241  44.025   0.884
13392W        W78212  15.399  40.404  13.441
13393W        W78213  20.874  29.900  14.259
13394W        W78214  23.410  44.886   3.587
13395W        W78215  42.401  29.316  11.897
13396W        W78216  24.340  38.040  11.593
13397W        W78217  34.196  14.117  14.261
13398W        W78218  32.626  14.905  14.048
13399W        W78219   2.262  34.918   1.705
13400W        W78220  28.156   1.289  13.465
13401W        W78221  19.467  35.904   5.517
13402W        W78222  22.622  36.529   9.941
13403W        W78223  21.595  13.055   1.840
13404W        W78224  43.083  13.810  13.112
13405W        W78225  29.158  14.335  12.105
13406W        W78226  17.528  44.402  14.749
13407W        W78227   4.990  27.966   1.786
13408W        W78228  30.297  25.877  11.511
13409W        W78229  28.494  23.536  13.726
13410W        W78230  43.388  44.979   4.616
13411W        W78231   4.197  36.215   2.635
13412W        W78232  13.675  14.531   2.787
13413W        W78233  44.481  31.068   4.454
13414W        W78234  40.660   4.313   0.970
13415W        W78235   8.089  26.597  11.649
13416W        W78236  31.974   9.622  11.540
13417W        W78237  36.365   3.468  10.276
13418W        W78238  34.598   0.943  12.430
13419W        W78239  44.358   8.611   3.660
13420W        W78240  22.003  31.873   2.203
13421W        W78241  40.825  26.874   2.888
13422W        W78242  24.788  22.506  12.649
13423W        W78243  13.156  37.324   3.606
13424W        W78244  10.889  10.849  14.766
13425W        W78245  43.862  37.455  14.566
13426W        W78246   2.971  22.282  12.828
13427W        W78247  42.353  13.514  12.468
13428W        W78248   6.950  34.555   3.621
13429W        W78249  38.687  40.401  12.310
13430W        W78250  33.168  10.351   2.888
13431W        W78251  20.223  34.647  12.573
13432W        W78252  39.462  16.999  12.090
13433W        W78253  16.912  16.309   3.673
13434W        W78254   2.181  32.055   4.101
13435W        W78255  13.054   8.160  13.609
13436W        W78256  43.255   8.333  11.695
13437W        W78257  17.987  20.187  14.455
13438W        W78258  24.123  14.287   3.403
13439W        W78259  41.865  25.749   5.088
13440W        W78260  33.924   9.089   3.659
13441W        W78261  16.257  43.213   2.357
13442W        W78262  38.884  38.183   2.047
13443W        W78263   6.962  21.137  11.202
13444W        W78264  28.078  12.790  14.761
13445W        W78265   0.298  32.022  14.276
13446W        W78266  23.042  21.829   2.169
13447W        W78267  29.722  26.998   1.747
13448W        W78268  15.525   2.797   1.859
13449W        W78269  14.899  41.518  12.122
13450W        W78270  15.049  35.860  11.262
13451W        W78271  43.038   3.016  11.138
13452W        W78272   8.072  38.491  10.758
13453W        W78273  12.779  38.042   3.221
13454W        W78274  10.132   7.189  10.852
13455W        W78275  31.124  30.998  13.870
13456W        W78276   1.868  22.697   4.349
13457W        W78277  39.516  39.390   4.197
13458W        W78278   3.213  29.066   2.373
13459W        W78279  17.580  35.060  14.496
13460W        W78280  10.709  39.257  11.083
13461W        W78281  22.246  16.222   3.274
13462W        W78282   2.493   7.163  11.688
13463W        W78283  16.514  35.542  12.608
13464W        W78284  22.794  13.486   1.769
13465W        W78285  16.773   1.929  11.056
13466W        W78286  31.318  20.033   2.105
13467W        W78287  22.452  21.156   1.922
13468W        W78288  31.595  37.387  14.530
13469W        W78289  18.028   4.633  12.580
13470W        W78290  33.153  11.361  10.719
13471W        W78291  34.749  21.289  11.096
13472W        W78292   6.499  16.554   1.395
13473W        W78293  36.138  29.446   4.134
13474W        W78294  39.912  40.472   4.985
13475W        W78295  33.080  10.283   1.033
13476W        W78296  38.311  27.057   3.341
13477W        W78297  39.206  41.848  13.296
13478W        W78298  18.694  17.769  14.985
13479W        W78299  29.670   0.998   2.026
13480W        W78300   3.671  20.679   2.917
13481W        W78301  28.512  41.105  13.943
13482W        W78302   2.856  15.365  11.012
13483W        W78303  35.000  20.806   1.871
13484W        W78304  18.595   8.713   1.030
13485W        W78305  13.676  25.734   2.824
13486W        W78306  21.569  37.942   0.456
13487W        W78307  40.999  17.604   3.975
13488W        W78308   8.099  20.721   3.550
13489W        W78309  29.492  15.387  13.014
13490W        W78310  38.570  16.413  12.816
13491W        W78311   1.432   6.736   2.388
13492W        W78312   5.879   1.330   2.333
13493W        W78313  29.643   6.469  12.006
13494W        W78314  28.380  26.243   2.880
13495W        W78315  10.259  17.883  11.605
13496W        W78316  15.206  14.220  12.891
13497W        W78317  10.187  32.773  11.037
13498W        W78318  20.758  36.304  10.896
13499W        W78319  13.719  20.300   0.938
13500W        W78320  43.915  18.461   3.539
13501W        W78321  27.232   2.987  12.499
13502W        W78322   8.787  14.686  13.218
13503W        W78323  10.919  25.517   0.300
13504W        W78324   8.256  43.021   5.151
13505W        W78325  22.464  41.306   2.429
13506W        W78326  29.558   0.733   3.646
13507W        W78327  35.833  31.066   2.361
13508W        W78328  43.783  16.393   1.260
13509W        W78329  21.163  39.855   0.323
13510W        W78330   9.047  43.298  12.010
13511W        W78331  21.361  39.990   4.757
13512W        W78332   5.853   2.393  14.235
13513W        W78333  34.938  40.422  10.541
13514W        W78334  22.982  36.482  12.191
13515W        W78335  31.412  19.743  11.883
13516W        W78336   5.452  29.723  11.137
13517W        W78337  32.646  35.677   0.115
13518W        W78338   4.355   0.885  12.078
13519W        W78339  29.084   7.979   2.843
13520W        W78340  31.490  37.448  14.020
13521W        W78341  17.367  41.782   2.907
13522W        W78342  23.580  44.719  12.086
13523W        W78343  17.504  25.890   2.819
13524W        W78344  30.558  32.502   4.525
13525W        W78345  34.197  22.049  14.271
13526W        W78346   1.491   1.426  11.107
13527W        W78347  35.489  18.643  14.047
13528W        W78348  44.528  37.442   1.694
13529W        W78349   2.618  23.039  13.885
13530W        W78350  41.904  20.751  14.398
13531W        W78351  16.779   3.334   3.417
13532W        W78352  24.055   2.745   0.017
13533W        W78353   8.228   4.467   4.761
13534W        W78354  17.329  35.928  13.844
13535W        W78355  38.204  36.919   2.916
13536W        W78356   7.698  44.781  11.987
13537W        W78357  24.806   8.907  11.086
13538W        W78358  35.619   9.638  11.136
13539W        W78359  22.940  31.077   1.060
13540W        W78360   2.224   9.141   4.563
13541W        W78361   4.785  40.464  11.164
13542W        W78362  13.362  20.226   0.419
13543W        W78363  41.237   8.738   0.529
13544W        W78364  14.875  11.349  12.119
13545W        W78365  11.888  39.617   0.768
13546W        W78366   8.400  33.478   1.741
13547W        W78367  29.590  25.434  13.857
13548W        W78368   4.233  13.031   0.441
13549W        W78369   5.444  44.553   4.839
13550W        W78370  22.051  35.921  12.040
13551W        W78371   9.283  29.493   1.915
13552W        W78372  20.624  42.005  13.635
13553W        W78373  21.219  18.837   4.579
13554W        W78374  37.891  17.968  14.934
13555W        W78375  15.027   6.145   2.239
13556W        W78376  14.638   4.333   4.206
13557W        W78377  32.146  44.022   3.570
13558W        W78378  25.507  42.854   4.088
13559W        W78379  19.537  21.696   2.639
13560W        W78380  35.428  14.905  11.144
13561W        W78381  11.772   0.515   4.523
13562W        W78382   4.784  20.902  13.226
13563W        W78383  39.049  14.824   0.837
13564W        W78384  32.794  17.538   3.164
13565W        W78385   0.893  16.033  13.605
13566W        W78386  34.664  39.628  11.648
13567W        W78387  13.639  20.589   3.161
13568W        W78388   1.266  13.744   1.877
13569W        W78389   2.970  32.486  11.931
13570W        W78390  25.095  19.633   2.900
13571W        W78391  43.907  37.958  10.362
13572W        W78392   1.863  38.632  13.822
13573W        W78393  39.752   0.551   4.589
13574W        W78394  22.754  32.122   4.818
13575W        W78395  11.362  39.512  11.740
13576W        W78396  37.029   6.951  13.329
13577W        W78397  37.947  38.587   3.289
13578W        W78398  15.855  23.543   0.305
13579W        W78399  13.271  16.103  12.420
13580W        W78400  37.818  17.239   1.757
13581W        W78401  24.708  38.654   5.083
13582W        W78402  29.018  28.596   0.986
13583W        W78403  25.128  30.603   4.248
13584W        W78404  24.589   5.511  13.952
13585W        W78405   3.364  30.139   3.712
13586W        W78406  16.822  26.003  14.236
13587W        W78407  23.625  20.782   1.386
13588W        W78408  32.438  19.353  13.858
13589W        W78409  27.945  17.798  12.823
13590W        W78410  39.915  44.465  14.853
13591W        W78411   0.690  24.290   0.923
13592W        W78412  13.110  40.356  10.930
13593W        W78413   4.687  14.086  12.044
13594W        W78414  35.134   9.261   4.143
13595W        W78415  15.351   8.418  13.980
13596W        W78416  32.370  13.308   0.327
13597W        W78417  15.608  44.038  10.740
13598W        W78418   7.793  15.673  11.166
13599W        W78419   6.714   1.714   2.184
13600W        W78420   0.459  24.710   0.388
13601W        W78421  41.624  37.445  14.507
13602W        W78422   6.559  22.206  11.465
13603W        W78423  12.704   6.682   1.266
13604W        W78424  25.742   5.780  13.540
13605W        W78425  43.829  34.063   1.884
13606W        W78426  12.641   6.112  14.025
13607W        W78427   6.344  37.627  14.006
13608W        W78428  11.144  34.328   1.161
13609W        W78429  35.260  42.434  13.016
13610W        W78430  19.024  10.458  11.226
13611W        W78431  13.338  35.879   0.355
13612W        W78432  37.837  42.277   4.097
13613W        W78433  19.011  29.224  12.345
13614W        W78434  27.030  35.473  12.810
13615W        W78435  15.908   9.814  12.441
13616W        W78436   4.232   7.754  10.678
13617W        W78437  26.658  33.212  14.159
13618W        W78438  13.338  27.222  14.716
13619W        W78439   7.608   9.418  11.634
13620W        W78440  35.405  26.000   4.667
13621W        W78441  42.828  27.541  12.796
13622W        W78442  17.570   1.283   2.938
13623W        W78443  16.238  36.351  13.052
13624W        W78444  35.301   1.607   4.374
13625W        W78445  29.966  29.565  13.999
13626W        W78446  44.406  28.395   4.886
13627W        W78447  14.223   4.661  12.119
13628W        W78448   6.031   3.653  12.975
13629W        W78449  19.028  13.343  11.503
13630W        W78450   6.717  10.364  12.670
13631W        W78451  37.902  16.602  11.558
13632W        W78452  30.554  22.302  14.131
13633W        W78453  43.304  39.944   3.592
13634W        W78454  14.497  12.351   3.139
13635W        W78455  11.741  26.574  11.244
13636W        W78456   3.711  17.391   1.744
13637W        W78457  25.115  22.482   1.040
13638W        W78458  21.782  28.032   4.134
13639W        W78459   2.239  41.898   1.812
13640W        W78460  10.715  43.504  13.763
13641W        W78461   5.221  21.579   3.066
13642W        W78462   6.905   7.100  13.895
13643W        W78463  12.753  29.395  11.133
13644W        W78464  36.871  17.862   2.451
13645W        W78465  43.145  30.811  10.592
13646W        W78466  18.537  36.902   0.241
13647W        W78467  35.020  41.884   4.034
13648W        W78468  32.600  38.018  11.709
13649W        W78469  27.978   4.761  10.690
13650W        W78470   2.546  44.715   1.825
13651W        W78471  25.393  22.469   2.706
13652W        W78472  21.042  43.800   3.119
13653W        W78473  13.282   8.143  12.928
13654W        W78474  24.510   8.385  12.367
13655W        W78475   9.932   7.342   4.800
13656W        W78476  43.925   0.207   3.141
13657W        W78477  14.060  15.184   3.599
13658W        W78478  37.633  15.518   1.685
13659W        W78479  32.926  14.710   3.046
13660W        W78480  21.548  17.792   1.247
13661W        W78481  25.040   5.230  13.944
13662W        W78482  32.201  19.250   1.247
13663W        W78483  34.238  19.084  10.324
13664W        W78484  10.018  19.565  12.037
13665W        W78485  26.365  32.056   4.122
13666W        W78486  13.643  15.698   0.752
13667W        W78487  44.998  10.369  12.426
13668W        W78488   2.981  24.185   3.410
13669W        W78489  21.771  15.257   1.282
13670W        W78490   4.335  28.628  14.583
13671W        W78491  13.648   9.617   2.922
13672W        W78492  29.626  44.433  13.922
13673W        W78493  21.268  13.893  12.718
13674W        W78494  31.177  30.875   4.121
13675W        W78495  21.747  32.172  12.071
13676W        W78496  22.819  41.359  11.823
13677W        W78497  30.905  40.841   0.921
13678W        W78498   3.115   8.817  13.987
13679W        W78499  40.716   4.844   2.879
13680W        W78500  16.166  41.362  10.746
13681W        W78501  24.099  39.112  13.455
13682W        W78502  27.399   5.337  11.105
13683W        W78503  26.733  28.586   0.980
13684W        W78504  30.361  21.238   2.333
13685W        W78505  31.007  17.335   2.605
13686W        W78506   5.931  21.590  10.560
13687W        W78507  13.700  30.531  10.551
13688W        W78508  12.326  22.244  12.814
13689W        W78509  19.620   3.434   4.215
13690W        W78510  38.452  11.868  14.117
13691W        W78511  44.364  16.740  14.326
13692W        W78512  19.223   1.305   1.469
13693W        W78513   4.467  13.630  12.011
13694W        W78514  43.011  11.635  11.877
13695W        W78515  42.009  44.483   3.382
13696W        W78516  37.140   5.868   0.389
13697W        W78517  36.402  24.715  14.932
13698W        W78518  35.932  44.966  10.696
13699W        W78519  25.021  40.065  11.462
13700W        W78520   9.258  21.495  12.381
13701W        W78521  42.425  42.396   2.824
13702W        W78522   2.853  15.845  14.405
13703W        W78523  34.764  20.940  12.572
13704W        W78524  21.506  38.286   0.817
13705W        W78525   2.308  41.891   3.651
13706W        W78526  12.791  32.146  13.046
13707W        W78527  26.714   7.215  11.648
13708W        W78528  26.724  30.155  14.370
13709W        W78529  23.546  17.805  14.369
13710W        W78530  17.036  35.535  12.635
13711W        W78531   0.549  39.673  13.149
13712W        W78532  23.773  20.009   0.851
13713W        W78533  32.682  33.651   1.404
13714W        W78534  43.783  30.744   2.309
13715W        W78535  22.125  27.260   1.253
13716W        W78536  38.600  41.059  11.550
13717W        W78537  25.283  34.462   2.938
13718W        W78538  34.417  35.392   2.912
13719W        W78539  43.923  32.912  11.673
13720W        W78540  42.387  25.309  14.358
13721W        W78541  22.768   8.306   3.647
13722W        W78542  13.854  23.493  10.380
13723W        W78543  26.139  22.878   3.235
13724W        W78544   0.014  15.153  12.830
13725W        W78545  36.415  23.283   3.667
13726W        W78546  29.067  23.661   0.711
13727W        W78547  24.247  22.866   1.469
13728W        W78548  40.041  36.397  14.974
13729W        W78549  12.453  40.347  11.565
13730W        W78550   5.802   6.808   2.595
13731W        W78551   0.749  42.393  13.467
13732W        W78552  20.997  12.351   1.312
13733W        W78553  42.407  44.662   2.722
13734W        W78554   6.334   5.996  13.397
13735W        W78555  32.757  28.205   3.803
13736W        W78556   6.715   7.404  10.807
13737W        W78557  13.183   6.503   4.240
13738W        W78558   7.195  30.424  12.003
13739W        W78559  23.290  31.341   4.534
13740W        W78560  17.604  10.769   0.977
13741W        W78561  31.367  15.809  12.107
13742W        W78562  23.325  10.018   5.550
13743W        W78563  36.826  42.775   2.258
13744W        W78564  37.499  33.547   0.919
13745W        W78565  30.203  18.287   1.272
13746W        W78566  26.928   1.020   1.583
13747W        W78567  11.365  24.128   2.464
13748W        W78568   3.296   6.984  11.232
13749W        W78569  28.199   4.572   3.277
13750W        W78570  41.066  38.279  11.679
13751W        W78571  14.383  10.251   1.353
13752W        W78572   9.845  36.894  13.889
13753W        W78573  39.816  12.642  13.250
13754W        W78574  33.495  14.489   3.824
13755W        W78575  16.138   1.417  13.907
13756W        W78576   1.476  16.157  14.459
13757W        W78577   8.582  17.048   4.532
13758W        W78578  16.365   7.798   1.405
13759W        W78579  15.619   6.101   4.389
13760W        W78580  14.828  30.385  10.887
13761W        W78581  31.703  30.615   4.633
13762W        W78582  17.308  39.500  13.139
13763W        W78583  41.120   2.197  11.480
13764W        W78584   7.650  31.416  14.060
13765W        W78585  15.183  21.329  10.683
13766W        W78586  37.845   1.283   0.744
13767W        W78587  37.974  20.034   2.772
13768W        W78588  37.115  13.141   2.728
13769W        W78589  29.981  32.335  11.186
13770W        W78590  16.304   5.358  12.030
13771W        W78591   0.741   6.818  12.095
13772W        W78592  41.780  23.898   4.010
13773W        W78593   2.102   5.502   4.532
13774W        W78594  40.131   7.980   1.604
13775W        W78595  27.463   2.751   1.344
13776W        W78596  40.930  31.240  14.669
13777W        W78597  32.886  27.410   1.406
13778W        W78598  14.111  36.359   3.311
13779W        W78599  35.783   0.313  12.347
13780W        W78600   0.938  10.571  12.055
13781W        W78601   6.195  41.062  10.387
13782W        W78602  19.292  35.388  12.370
13783W        W78603   4.024  28.463   0.268
13784W        W78604  11.696  34.948   2.037
13785W        W78605  25.904  31.934  13.115
13786W        W78606  44.165  12.440   4.043
13787W        W78607  32.837  39.404   2.504
13788W        W78608   7.195  36.876   4.677
13789W        W78609  43.802  19.215   1.234
13790W        W78610  10.765   8.414  10.790
13791W        W78611  21.743  15.722  13.815
13792W        W78612  14.333  22.716  12.445
13793W        W78613   3.550  28.974  13.095
13794W        W78614  23.123   2.292   3.454
13795W        W78615  34.370   9.573  10.667
13796W        W78616  10.301  39.777   2.999
13797W        W78617   6.854   2.614  12.499
13798W        W78618   8.017  22.728  13.991
13799W        W78619   9.742  14.583  12.468
13800W        W78620  20.477   9.222   4.423
13801W        W78621   4.600  24.193   5.049
13802W        W78622   9.992  11.705  12.320
13803W        W78623   9.212   7.973  10.546
13804W        W78624  33.395  10.559   0.719
13805W        W78625  33.877  40.043  10.749
13806W        W78626  42.927  25.433  11.968
13807W        W78627  10.201  24.431  12.270
13808W        W78628  33.797  10.189   4.147
13809W        W78629  33.413   6.843   3.717
13810W        W78630  31.633  12.451   0.463
13811W        W78631  44.726  25.768  14.952
13812W        W78632   7.951   0.905   3.646
13813W        W78633  32.392  32.652   1.383
13814W        W78634  17.104  39.195  10.203
13815W        W78635  41.774  35.677  11.550
13816W        W78636  27.089  16.295  14.264
13817W        W78637  41.307  38.286  14.828
13818W        W78638  41.515  12.209  13.350
13819W        W78639  21.912  20.076   9.349
13820W        W78640  39.892  40.498  13.959
13821W        W78641  28.142  38.938  13.896
13822W        W78642  39.978  42.382   2.624
13823W        W78643  18.263  13.504   0.592
13824W        W78644   7.806  42.295   4.682
13825W        W78645  37.284  43.794  10.235
13826W        W78646  25.619  12.536  12.964
13827W        W78647  27.764  30.597  10.619
13828W        W78648  35.124  25.193  11.767
13829W        W78649  41.349  39.000   2.417
13830W        W78650  37.613  15.320   3.741
13831W        W78651  18.221   6.889  12.436
13832W        W78652  30.891   6.269   3.587
13833W        W78653   6.241   8.590   3.366
13834W        W78654  44.717  42.131   1.383
13835W        W78655  18.404  32.101  14.616
13836W        W78656   8.122  23.244   0.336
13837W        W78657  22.562   9.349   3.166
13838W        W78658  10.219  18.767   3.531
13839W        W78659  30.832  22.021  14.891
13840W        W78660  35.332  10.303   3.768
13841W        W78661  27.132  18.189  14.015
13842W        W78662  20.372  23.212   0.473
13843W        W78663  20.575   4.595   1.729
13844W        W78664  43.816  16.000   4.866
13845W        W78665   4.133   3.995  11.618
13846W        W78666  26.071  12.139   0.849
13847W        W78667  35.980  43.863   2.399
13848W        W78668  26.140  37.099  13.842
13849W        W78669   4.700   0.831  13.126
13850W        W78670  27.425  15.887   0.153
13851W        W78671   0.996  19.345   3.288
13852W        W78672  11.433  27.137   1.472
13853W        W78673   5.695  19.016  10.629
13854W        W78674  17.336  15.663   0.385
13855W        W78675  23.981  26.696   1.641
13856W        W78676  27.762   0.624   4.112
13857W        W78677  27.926  34.096   0.145
13858W        W78678   7.913  40.830   1.661
13859W        W78679  18.245  40.817  14.743
13860W        W78680  44.328  22.470   2.399
13861W        W78681  22.017  18.862   3.634
13862W        W78682  33.904  28.747   0.865
13863W        W78683  33.069  21.283   3.985
13864W        W78684   0.012  37.995   0.968
13865W        W78685  25.111  39.714   4.538
13866W        W78686  18.948  42.116   0.988
13867W        W78687  15.160   1.775   0.049
13868W        W78688  13.617  19.873   2.402
13869W        W78689  20.512  36.743   4.532
13870W        W78690  42.521  32.977  11.643
13871W        W78691  44.815  11.771  10.669
13872W        W78692  44.529  34.747  11.612
13873W        W78693  41.150  27.266   1.979
13874W        W78694  16.645  16.190  14.346
13875W        W78695   4.951  15.904  12.303
13876W        W78696   0.014  39.917  11.399
13877W        W78697  19.500  32.313   0.228
13878W        W78698   8.920  36.613   2.266
13879W        W78699  24.611  22.565   5.051
13880W        W78700  37.061  37.568   0.285
13881W        W78701  38.530  13.682   3.215
13882W        W78702  21.267   5.741  12.535
13883W        W78703   4.995  15.787  11.727
13884W        W78704  29.583   5.959  14.495
13885W        W78705   9.187   6.551  11.036
13886W        W78706  28.276  13.142  14.418
13887W        W78707  31.398  38.986  13.950
13888W        W78708  28.033  18.636  11.915
13889W        W78709  40.476  11.241   1.096
13890W        W78710  38.795  15.270   0.870
13891W        W78711  31.465  18.032   1.199
13892W        W78712  12.751  22.527  10.760
13893W        W78713  33.460  42.722   0.889
13894W        W78714   0.148   4.015  13.798
13895W        W78715   4.326  42.441   3.301
13896W        W78716   0.882  29.856  13.900
13897W        W78717  36.136   9.500   4.026
13898W        W78718  42.718  27.560   4.870
13899W        W78719  26.306   2.728  13.485
13900W        W78720  43.104  18.976   2.387
13901W        W78721  33.476   6.443   5.049
13902W        W78722  36.051  34.522  14.807
13903W        W78723  41.916   9.504   0.273
13904W        W78724   0.769   5.722   3.742
13905W        W78725  30.157  19.002   3.195
13906W        W78726  19.082   5.982  10.648
13907W        W78727   3.279  22.505  12.490
13908W        W78728  26.676  16.741   3.783
13909W        W78729  35.422  32.576  11.629
13910W        W78730  44.817  41.963  12.196
13911W        W78731  35.939  31.475   4.755
13912W        W78732  21.454   4.559   1.204
13913W        W78733  41.317  12.414   2.619
13914W        W78734  29.563  29.595   0.285
13915W        W78735  14.716   1.069  13.553
13916W        W78736  35.078  28.060  11.171
13917W        W78737  15.727   6.209   2.862
13918W        W78738  37.924  30.057   1.802
13919W        W78739  35.539  28.247   1.616
13920W        W78740  26.784  10.211   0.243
13921W        W78741   1.876  30.455  14.435
13922W        W78742  34.054  20.551   0.261
13923W        W78743  38.518  43.030   0.301
13924W        W78744  15.986   6.359   1.107
13925W        W78745  18.562   5.759  10.996
13926W        W78746  16.075  27.896   1.794
13927W        W78747  41.628  13.261   0.361
13928W        W78748   2.789   3.212  14.469
13929W        W78749  14.087   1.253  11.344
13930W        W78750  15.244   8.213   3.657
13931W        W78751  17.189  25.649   3.432
13932W        W78752  20.771  35.055   1.170
13933W        W78753  34.414  16.672  11.188
13934W        W78754  26.567  17.922  12.142
13935W        W78755  21.917   1.277  11.388
13936W        W78756  27.682   8.004   3.231
13937W        W78757  42.782  15.768  13.538
13938W        W78758  42.008  43.363  14.044
13939W        W78759  28.943  29.190  12.508
13940W        W78760  11.820  43.305  11.538
13941W        W78761  13.596  31.623  12.136
13942W        W78762  26.475  39.261  13.832
13943W        W78763  26.080  44.441  14.109
13944W        W78764  36.308  37.916   1.425
13945W        W78765   7.260  38.746   1.352
13946W        W78766  30.494  21.152   3.307
13947W        W78767  13.322  11.601  13.361
13948W        W78768  37.877  37.707  14.917
13949W        W78769  14.351  12.297  13.159
13950W        W78770  43.537  15.320   3.235
13951W        W78771  27.705  15.281  14.408
13952W        W78772  35.300  38.454  14.127
13953W        W78773  30.987  27.732   3.732
13954W        W78774  33.914  11.701  13.229
13955W        W78775  32.313  13.724   1.672
13956W        W78776  14.660   6.408  11.243
13957W        W78777  27.671  33.585   1.743
13958W        W78778  22.145   7.866  12.445
13959W        W78779  21.749  32.895   0.856
13960W        W78780  21.153   9.685  14.971
13961W        W78781   1.859  37.668   4.663
13962W        W78782  18.384  34.429   2.629
13963W        W78783  35.558   0.007  12.703
13964W        W78784  32.497  42.243  13.318
13965W        W78785  19.211  12.283   0.043
13966W        W78786  24.215  28.299   4.633
13967W        W78787  39.528   8.936  11.403
13968W        W78788  24.875  12.871   3.047
13969W        W78789  39.899  20.771   2.241
13970W        W78790   1.431  33.462   2.243
13971W        W78791  43.445  24.651  13.343
13972W        W78792   4.609  11.328  11.046
13973W        W78793   7.769  14.313   4.114
13974W        W78794  44.223  28.964   2.637
13975W        W78795  30.538  17.280   4.846
13976W        W78796   6.824   5.242  13.948
13977W        W78797  36.888  41.385  14.253
13978W        W78798   7.818  38.995  12.560
13979W        W78799  37.886  17.803  14.433
13980W        W78800  33.797  23.604  14.813
13981W        W78801   5.386   5.839  14.958
13982W        W78802  44.748   5.306   0.655
13983W        W78803  26.874  12.684   2.767
13984W        W78804  13.031  17.749   0.338
13985W        W78805  32.439  23.000  13.851
13986W        W78806  36.499  11.595   0.615
13987W        W78807   0.146  38.269   0.524
13988W        W78808  10.327  20.524  10.499
13989W        W78809  22.057  19.551  12.562
13990W        W78810  11.141  25.953   0.430
13991W        W78811  44.353  18.317   3.287
13992W        W78812  31.317  27.261  11.194
13993W        W78813  14.262  22.170   4.757
13994W        W78814   8.761  15.080   2.652
13995W        W78815  28.397   0.283   3.299
13996W        W78816  33.351  15.086   1.380
13997W        W78817  32.466  28.708   4.692
13998W        W78818  43.269  27.592  13.092
13999W        W78819  26.189  32.448   0.192
14000W        W78820   5.732  14.653   0.302
14001W        W78821  11.546  26.376  11.744
14002W        W78822  28.072  32.367  11.048
14003W        W78823  33.872  31.487   1.881
14004W        W78824  40.297  29.218  12.043
14005W        W78825  21.666  22.266   3.568
14006W        W78826  20.191  31.918   1.356
14007W        W78827  29.801  18.309  11.629
14008W        W78828  30.862   6.149   1.796
14009W        W78829  32.057  16.188   1.661
14010W        W78830  33.672  21.490  10.361
14011W        W78831  24.602  30.636   3.478
14012W        W78832  18.901  28.126  14.737
14013W        W78833  25.445   3.295   2.834
14014W        W78834  25.955  26.380  14.496
14015W        W78835  26.647  12.846  10.368
14016W        W78836  35.127  12.556  14.928
14017W        W78837  40.358  27.650  11.833
14018W        W78838  37.948  25.007   1.834
14019W        W78839  11.492  18.958   0.809
14020W        W78840  11.827  18.647   2.874
14021W        W78841  14.408  20.643  13.867
14022W        W78842  19.287  35.613   0.856
14023W        W78843  37.004  44.331   3.866
14024W        W78844  42.734  30.583  13.994
14025W        W78845  35.037   6.167  14.411
14026W        W78846  12.401  37.491  12.427
14027W        W78847  24.728  30.446  13.383
14028W        W78848   9.045  40.843   0.329
14029W        W78849  20.352   5.216  11.202
14030W        W78850  43.601  29.486   4.442
14031W        W78851  26.555   7.570  10.771
14032W        W78852  41.986  41.288  12.476
14033W        W78853  26.595  41.491  12.057
14034W        W78854  28.720  44.029   2.029
14035W        W78855   6.175   8.602   4.279
14036W        W78856  35.596  18.080  12.446
14037W        W78857   3.632  34.716  12.504
14038W        W78858  25.522  15.716   2.949
14039W        W78859  26.519   5.779  14.031
14040W        W78860  33.726   2.612  12.654
14041W        W78861  25.771   6.916  11.502
14042W        W78862  29.555  16.886  14.126
14043W        W78863  40.849  39.851   3.344
14044W        W78864  34.344  30.510   1.744
14045W        W78865  10.644  29.004  12.471
14046W        W78866  44.498  32.625  14.347
14047W        W78867   8.419   2.964   2.824
14048W        W78868  28.965  14.727   4.604
14049W        W78869  17.734  38.619   1.019
14050W        W78870  43.290  31.612   3.252
14051W        W78871   0.190   4.455   2.763
14052W        W78872  12.816  25.908  14.876
14053W        W78873   1.161  22.045   3.491
14054W        W78874  14.281  38.175  11.601
14055W        W78875  10.874  42.315   1.677
14056W        W78876  34.993  23.638  14.112
14057W        W78877  44.625  36.634  12.557
14058W        W78878  14.748  20.181  14.998
14059W        W78879  10.293  11.173  11.132
14060W        W78880  25.156  25.368   3.210
14061W        W78881  35.029  37.742  10.489
14062W        W78882  14.593  27.979  13.447
14063W        W78883  36.037   1.170   2.364
14064W        W78884  38.613  26.145  10.954
14065W        W78885   7.330  38.207   4.068
14066W        W78886  15.498   3.976  13.051
14067W        W78887  35.378  15.603  13.966
14068W        W78888  31.939  24.271  14.805
14069W        W78889  38.034  41.230  11.558
14070W        W78890  38.262  30.628   4.945
14071W        W78891  11.734  25.182   0.686
14072W        W78892   3.001  13.378   2.792
14073W        W78893  31.092   8.107  13.896
14074W        W78894  23.141  42.792  10.910
14075W        W78895   0.399  41.307  12.433
14076W        W78896  36.719  13.431   2.559
14077W        W78897  16.387  14.293   4.586
14078W        W78898   2.448   4.747  11.407
14079W        W78899  14.359  23.270  12.526
14080W        W78900   1.520  39.016  13.850
14081W        W78901   4.732   2.050  12.935
14082W        W78902  13.598  16.775  10.545
14083W        W78903   4.351   6.828  10.232
14084W        W78904  18.693  44.619   3.533
14085W        W78905  43.379   1.271   1.524
14086W        W78906  35.179   4.760   5.042
14087W        W78907  42.870  37.055   2.706
14088W        W78908  28.797  40.809  11.246
14089W        W78909  23.918  22.836   0.521
14090W        W78910  15.020  17.192   0.269
14091W        W78911  22.007  31.960   4.164
14092W        W78912  29.931  24.175  13.323
14093W        W78913  44.430  37.936   3.153
14094W        W78914   4.839   0.671  12.234
14095W        W78915  16.637  42.491   3.535
14096W        W78916  12.104  42.825   1.763
14097W        W78917  22.101  16.283  12.353
14098W        W78918  42.739  44.839  10.986
14099W        W78919  36.451   0.336   0.407
14100W        W78920  28.723  11.780   0.889
14101W        W78921  21.582  39.987   0.584
14102W        W78922  32.057  41.779  14.393
14103W        W78923  21.110  16.301   4.601
14104W        W78924   3.196  35.997  11.101
14105W        W78925  25.406   5.294  10.859
14106W        W78926  34.893  36.924  11.072
14107W        W78927  37.522  36.337   4.064
14108W        W78928   9.843  30.533  12.107
14109W        W78929   4.991  10.174  13.134
14110W        W78930  25.433  19.017  11.661
14111W        W78931  17.366  23.172   0.859
14112W        W78932  22.498  44.313  14.511
14113W        W78933   5.234  26.620  11.101
14114W        W78934  13.829  24.639   1.887
14115W        W78935  36.804  31.390  12.465
14116W        W78936  26.876   1.982  10.650
14117W        W78937  29.989  37.884   3.386
14118W        W78938  14.597   5.259   1.434
14119W        W78939  36.433  32.409   1.032
14120W        W78940   3.917  35.169  11.493
14121W        W78941  11.312   5.812  14.785
14122W        W78942  22.744  34.958  14.830
14123W        W78943  23.947  15.981   5.025
14124W        W78944  15.134  16.454   2.197
14125W        W78945  35.141  19.515  14.020
14126W        W78946  41.803  10.941   4.821
14127W        W78947  18.807  31.508   4.532
14128W        W78948  36.628  38.337   3.427
14129W        W78949   8.406  34.471  12.654
14130W        W78950  36.941  38.730   3.696
14131W        W78951   7.839   8.400  11.197
14132W        W78952  13.861   4.131  11.122
14133W        W78953  43.408  29.167   5.116
14134W        W78954   3.358  38.385  12.918
14135W        W78955   8.517  17.653   5.296
14136W        W78956  29.353  18.375   1.494
14137W        W78957  10.400  32.894  14.458
14138W        W78958  27.854   3.270  12.075
14139W        W78959  42.823   6.807  10.768
14140W        W78960  40.003  29.055   1.005
14141W        W78961   2.876   2.726  10.658
14142W        W78962  25.768  10.224   3.958
14143W        W78963  44.205   3.348   0.799
14144W        W78964  20.649   2.006   4.665
14145W        W78965  29.585  42.292   3.391
14146W        W78966  11.101  44.084  10.645
14147W        W78967  20.730  40.663  12.744
14148W        W78968  32.373   0.205   0.976
14149W        W78969  39.836   4.621   2.881
14150W        W78970  14.895  39.553   3.193
14151W        W78971  22.826  37.491  11.818
14152W        W78972  39.830   2.351  10.972
14153W        W78973  38.788   4.397   0.348
14154W        W78974  22.040  12.775   1.901
14155W        W78975  16.227   7.693  13.775
14156W        W78976  10.807  21.555   3.660
14157W        W78977  28.261  40.803   4.623
14158W        W78978   1.747  38.595   1.187
14159W        W78979  31.678  11.114  11.050
14160W        W78980  32.079  34.960   0.824
14161W        W78981   6.856  41.014   0.875
14162W        W78982  14.199  35.641   2.838
14163W        W78983  34.916  11.368  14.325
14164W        W78984  38.495  12.591  12.249
14165W        W78985   8.712   7.688  12.570
14166W        W78986  28.109  33.628   4.170
14167W        W78987  23.705  36.578   0.668
14168W        W78988   0.512  27.203  12.040
14169W        W78989  36.578   7.968   4.361
14170W        W78990  40.113  28.511  14.944
14171W        W78991   3.265   3.382   4.124
14172W        W78992  13.895   5.053  12.003
14173W        W78993  30.167  35.220   1.850
14174W        W78994  36.092  13.018  12.762
14175W        W78995  22.270   7.653  11.146
14176W        W78996   6.393   0.355  14.947
14177W        W78997   5.307  18.641  10.764
14178W        W78998  37.587  39.024   0.959
14179W        W78999  37.924  12.226  12.187
14180W        W79000   3.757  32.369  13.001
14181W        W79001  10.400  37.634  10.678
14182W        W79002   8.708  29.141   4.085
14183W        W79003  28.585  16.922  11.982
14184W        W79004   0.664  17.962  11.635
14185W        W79005  27.373  39.989  13.605
14186W        W79006  26.676  30.918  12.570
14187W        W79007   8.808  24.117   0.505
14188W        W79008  26.055  34.954   2.170
14189W        W79009  20.455  11.149   3.477
14190W        W79010  18.298  30.659  12.145
14191W        W79011  22.532   0.740  13.529
14192W        W79012   3.274  32.772   3.530
14193W        W79013  26.472  10.096  12.623
14194W        W79014  40.621  36.950  11.190
14195W        W79015   1.392  27.469   3.855
14196W        W79016   6.235   0.597  14.500
14197W        W79017  37.767  30.616   0.727
14198W        W79018  23.644  43.584   0.389
14199W        W79019  30.924  33.656  12.494
14200W        W79020  25.943  32.181  12.547
14201W        W79021  36.589   7.780  10.992
14202W        W79022  26.559  12.877  13.382
14203W        W79023  14.730  43.443   0.721
14204W        W79024  23.585  27.944   4.425
14205W        W79025  16.101  33.177  10.896
14206W        W79026  18.443  38.559   4.688
14207W        W79027  15.079   0.834   0.965
14208W        W79028  38.139   0.295   1.410
14209W        W79029  14.737   8.177   2.741
14210W        W79030  16.131  33.843  12.786
14211W        W79031  18.622  33.556   4.955
14212W        W79032  42.949  23.513  12.034
14213W        W79033   5.837   7.174  13.005
14214W        W79034  22.536  25.453  13.083
14215W        W79035  30.956  12.358   0.846
14216W        W79036  42.319  35.886  14.330
14217W        W79037   2.372  39.759   1.279
14218W        W79038  16.052  18.687   4.468
14219W        W79039  13.702  34.855   4.805
14220W        W79040  17.179  40.002   4.530
14221W        W79041  33.621  34.428   0.598
14222W        W79042   4.269   3.436   1.469
14223W        W79043   7.380   3.994   1.342
14224W        W79044  27.506  20.580  12.221
14225W        W79045   9.438  30.601   1.859
14226W        W79046  18.285  39.759  14.690
14227W        W79047  13.884  19.522   0.504
14228W        W79048  37.493   7.594  10.707
14229W        W79049   0.273  44.829  14.414
14230W        W79050  16.207   4.725  14.601
14231W        W79051  32.153  17.514  13.835
14232W        W79052  42.983  13.205  13.399
14233W        W79053  13.289  13.268  14.943
14234W        W79054  42.317   0.579   1.474
14235W        W79055  17.070   8.843   1.586
14236W        W79056   2.754  43.472  11.161
14237W        W79057  27.133  20.308  12.487
14238W        W79058  22.581  37.993   3.599
14239W        W79059  28.002  28.049  14.005
14240W        W79060  12.726  21.226  13.434
14241W        W79061  17.671  36.521   2.783
14242W        W79062  34.696  40.060   4.546
14243W        W79063  13.240  18.566  13.520
14244W        W79064  11.253  28.968  14.343
14245W        W79065  40.766  13.779  12.375
14246W        W79066  34.689  34.522   1.462
14247W        W79067  33.461  36.901  12.032
14248W        W79068  13.820  10.283   0.846
14249W        W79069  30.330  16.012   9.999
14250W        W79070   6.452  41.306   0.702
14251W        W79071  14.228  11.638   4.493
14252W        W79072  16.631   9.459   9.575
14253W        W79073  36.017  28.398  12.056
14254W        W79074  21.610  43.916   3.296
14255W        W79075   5.704  20.801  11.090
14256W        W79076  12.615  40.997  14.998
14257W        W79077  21.378  11.766   2.686
14258W        W79078   0.330  15.200   0.918
14259W        W79079  30.224  31.131   3.341
14260W        W79080  15.873  42.436  11.347
14261W        W79081  21.086  29.511   3.776
14262W        W79082  18.055   3.455   2.829
14263W        W79083  11.430  35.080  14.300
14264W        W79084  12.826  11.845  11.761
14265W        W79085  24.461  17.229  11.522
14266W        W79086  25.100   8.173   2.731
14267W        W79087   7.528  42.734  11.141
14268W        W79088  43.677  38.152  14.087
14269W        W79089   2.275  20.923  11.165
14270W        W79090  33.037  43.311   4.206
14271W        W79091  38.167   7.410  12.640
14272W        W79092  20.665   9.352   1.262
14273W        W79093  39.022  22.544   1.482
14274W        W79094  23.917  28.818  10.093
14275W        W79095  42.975  32.025  10.244
14276W        W79096   3.677   0.493   4.108
14277W        W79097   3.399  21.011   0.889
14278W        W79098  40.566  27.628  13.813
14279W        W79099  40.827  32.011  14.492
14280W        W79100  16.265  16.206   3.084
14281W        W79101  37.329  19.964   1.926
14282W        W79102  35.470  34.602  14.583
14283W        W79103  25.115   5.829   3.129
14284W        W79104  16.142  24.958   2.330
14285W        W79105  13.716  26.958   4.849
14286W        W79106   4.789   3.177  11.546
14287W        W79107  41.521  19.896  13.366
14288W        W79108  35.510  32.894   3.662
14289W        W79109   0.382   7.092   3.736
14290W        W79110  36.962  14.162   3.318
14291W        W79111  26.154  23.509   0.213
14292W        W79112  11.583  27.926   1.258
14293W        W79113  18.739  37.473   9.786
14294W        W79114  11.148  33.427  12.532
14295W        W79115   7.649  17.743   1.203
14296W        W79116  24.033  37.919   0.475
14297W        W79117  21.251   0.306   3.502
14298W        W79118  37.141  23.331   1.234
14299W        W79119   9.566  18.143   2.396
14300W        W79120   1.377   0.392   4.810
14301W        W79121  44.383   0.040   0.865
14302W        W79122  37.895  43.825   0.503
14303W        W79123  41.988  17.302   2.805
14304W        W79124  40.361   9.880   2.744
14305W        W79125  15.870  15.633   2.037
14306W        W79126  35.984   0.501  10.678
14307W        W79127  30.078  12.429   3.363
14308W        W79128  23.904  19.194   2.188
14309W        W79129  37.854  41.852   2.343
14310W        W79130  15.203   0.460  13.037
14311W        W79131   3.189  44.316   4.617
14312W        W79132  22.187   2.478   0.434
14313W        W79133  43.121  34.995   1.820
14314W        W79134  25.109  30.041  10.413
14315W        W79135   9.694   8.746   3.061
14316W        W79136   7.336  12.273   0.257
14317W        W79137  40.108   9.843   2.270
14318W        W79138  43.547  32.750   0.466
14319W        W79139  42.213  31.102  12.397
14320W        W79140  25.068   5.671  14.725
14321W        W79141  26.964  13.632   2.821
14322W        W79142  14.075  31.194   5.007
14323W        W79143   7.874  30.580  11.170
14324W        W79144  22.659  20.215   1.798
14325W        W79145  36.041  36.801  14.548
14326W        W79146  35.035   1.975   4.140
14327W        W79147  35.044   1.951   0.806
14328W        W79148   7.416  43.872  13.751
14329W        W79149  27.436  37.272   1.438
14330W        W79150  40.625   7.496   5.133
14331W        W79151  16.289  29.371  10.262
14332W        W79152  42.525  21.380   2.853
14333W        W79153  16.516  18.190  14.933
14334W        W79154   1.927  38.612  11.661
14335W        W79155  23.936   1.363  14.870
14336W        W79156  26.475  23.656  14.039
14337W        W79157   0.239  34.005  11.573
14338W        W79158  11.382  31.940  13.010
14339W        W79159  16.610  29.427   0.332
14340W        W79160  44.032  44.409  11.481
14341W        W79161   3.046  20.989   2.174
14342W        W79162   9.189  28.875   1.377
14343W        W79163  12.422  25.179  14.331
14344W        W79164  42.390  36.660  13.980
14345W        W79165  34.292  28.602   1.685
14346W        W79166  23.202  42.306  10.669
14347W        W79167  33.753  23.496  13.223
14348W        W79168  23.749  44.247  12.143
14349W        W79169  19.256  40.764   2.205
14350W        W79170  18.380   2.538   4.578
14351W        W79171   8.395  19.057  11.136
14352W        W79172  10.137  42.508   1.303
14353W        W79173   9.705  39.853   4.515
14354W        W79174   3.396  37.847   0.404
14355W        W79175  29.209  30.921  11.530
14356W        W79176   0.715  30.016   0.220
14357W        W79177  26.558  16.363   1.753
14358W        W79178  37.598  16.338  12.682
14359W        W79179  44.887  26.247   2.308
14360W        W79180  32.565  22.424   1.039
14361W        W79181  10.616  10.611  12.035
14362W        W79182  42.390  32.211   3.307
14363W        W79183  15.824  26.034  14.314
14364W        W79184  11.100  36.952  14.314
14365W        W79185  14.726   8.222  12.433
14366W        W79186  32.495  23.046  12.075
14367W        W79187  14.593  28.729   0.047
14368W        W79188   3.285  21.041  11.722
14369W        W79189  44.148  40.812  14.638
14370W        W79190  31.370  24.773   1.048
14371W        W79191  22.493  21.149   4.920
14372W        W79192  17.036  41.738  12.775
14373W        W79193  28.589   8.635   0.193
14374W        W79194  24.554  10.688   1.696
14375W        W79195  19.046  39.400   0.762
14376W        W79196   6.941  33.490  12.429
14377W        W79197  40.958  19.752   0.962
14378W        W79198  23.645  42.106   1.514
14379W        W79199   3.375  36.950   3.926
14380W        W79200  20.651   9.329  13.317
14381W        W79201  32.204  44.349   0.316
14382W        W79202  41.403  18.490   0.846
14383W        W79203  20.193  10.237   1.458
14384W        W79204  28.499  16.763   0.243
14385W        W79205  42.979  16.511   3.609
14386W        W79206  28.010  26.606   2.867
14387W        W79207  41.352  20.744   4.692
14388W        W79208  30.148  12.422   0.977
14389W        W79209  14.339  37.178   4.156
14390W        W79210  21.302  43.539  12.014
14391W        W79211   1.225   2.270   2.767
14392W        W79212  40.713   8.866  13.823
14393W        W79213  35.445  37.275  14.967
14394W        W79214  36.838   7.648   3.558
14395W        W79215  14.687  26.576  13.714
14396W        W79216  23.205  17.284  14.961
14397W        W79217  27.193  32.806   0.260
14398W        W79218   0.714  31.830   2.773
14399W        W79219  36.588  18.740  12.009
14400W        W79220  43.497  42.424   1.956
14401W        W79221   3.805   6.263  12.522
14402W        W79222  31.880  30.538  14.946
14403W        W79223  39.073  28.500  14.049
14404W        W79224  27.143  40.249  14.695
14405W        W79225  32.063  33.120   2.228
14406W        W79226  19.042  16.555  11.060
14407W        W79227  15.940  44.591   0.896
14408W        W79228   0.218  13.319   0.231
14409W        W79229  14.231  33.701   1.574
14410W        W79230  43.755  40.859  12.140
14411W        W79231  21.779  21.621   2.751
14412W        W79232  13.635  31.508   2.741
14413W        W79233  15.673  44.927  12.992
14414W        W79234  20.420  19.800   1.742
14415W        W79235   1.394   4.474  13.911
14416W        W79236   2.206  43.562   4.336
14417W        W79237  26.249  19.039  14.751
14418W        W79238  34.464  34.516   3.893
14419W        W79239  17.097  17.118  14.495
14420W        W79240  29.733  42.563  13.028
14421W        W79241  36.998   8.905   0.501
14422W        W79242  44.917  20.302  14.543
14423W        W79243  32.935  12.116  13.340
14424W        W79244   2.299   0.732   9.851
14425W        W79245  42.671  34.586  10.730
14426W        W79246  28.661  38.117   0.419
14427W        W79247  28.705  35.026   1.304
14428W        W79248  17.047  14.669  13.984
14429W        W79249  36.977  13.923   4.665
14430W        W79250  32.879  35.064   4.563
14431W        W79251  30.047  43.800   1.244
14432W        W79252  23.525  33.191   0.439
14433W        W79253  22.258  44.756  13.475
14434W        W79254  41.991  10.381  13.000
14435W        W79255  36.376  26.499   9.858
14436W        W79256  16.375  34.025   1.398
14437W        W79257  30.694  40.821  12.496
14438W        W79258  14.717  19.995   3.155
14439W        W79259   9.856  15.751  13.865
14440W        W79260  20.770  36.826  11.643
14441W        W79261  30.383  36.946  10.676
14442W        W79262  21.359  17.545   3.207
14443W        W79263  18.768  24.307   4.013
14444W        W79264  24.091  10.701  14.474
14445W        W79265  14.499  14.677  14.925
14446W        W79266  26.083   0.775  12.508
14447W        W79267  37.425  23.954  11.394
14448W        W79268  17.550  16.667  11.929
14449W        W79269  37.076  18.009  14.945
14450W        W79270  43.982   8.114  13.545
14451W        W79271  18.690  18.422   2.214
14452W        W79272   2.194   6.192   3.094
14453W        W79273  18.921  25.722   2.587
14454W        W79274  40.863  21.638   0.449
14455W        W79275   4.058  23.498   1.212
14456W        W79276   6.926  27.915   3.742
14457W        W79277  44.682  22.544   2.787
14458W        W79278   0.013  22.082   2.642
14459W        W79279  31.633  19.268  13.118
14460W        W79280  18.999  39.273   2.386
14461W        W79281  40.704  41.093  12.085
14462W        W79282  20.659   8.600   1.304
14463W        W79283  34.064  40.867  11.142
14464W        W79284   9.059  32.034  10.706
14465W        W79285  28.224  27.980  14.474
14466W        W79286  40.936  40.870   0.196
14467W        W79287  38.371   3.819   2.800
14468W        W79288  35.211   4.795   3.439
14469W        W79289  33.602  15.463   1.648
14470W        W79290  36.335   2.872  14.153
14471W        W79291  20.144  31.497  14.782
14472W        W79292  33.865  38.550   0.994
14473W        W79293   7.404  33.990  14.314
14474W        W79294  40.951  27.207   4.132
14475W        W79295  32.489   6.832   3.347
14476W        W79296  27.579  17.191  13.832
14477W        W79297   1.153   9.074   4.438
14478W        W79298  40.619  38.165   4.622
14479W        W79299  17.986   3.804   1.458
14480W        W79300   4.278  15.778  14.108
14481W        W79301  42.487  39.469   4.609
14482W        W79302  14.300   1.273   4.334
14483W        W79303  20.604  30.058   3.620
14484W        W79304  32.382  44.045  12.572
14485W        W79305  19.156  24.427  14.287
14486W        W79306  16.192  28.711   4.162
14487W        W79307  32.892   9.396  13.166
14488W        W79308  42.842   5.518  13.845
14489W        W79309  31.676  40.578  13.331
14490W        W79310  30.483  17.658   2.370
14491W        W79311   7.713  39.957  12.766
14492W        W79312   6.298  33.001   4.414
14493W        W79313  28.188  27.469   2.693
14494W        W79314  42.551  29.906  12.472
14495W        W79315  26.402  26.480   3.694
14496W        W79316  40.435   0.520  10.420
14497W        W79317  38.644  11.667  14.544
14498W        W79318  36.998   8.901   4.133
14499W        W79319  33.464   6.157   2.954
14500W        W79320  10.194  22.100   1.972
14501W        W79321  24.750  15.207   2.679
14502W        W79322  31.239  42.423  11.505
14503W        W79323   6.826  24.271   2.185
14504W        W79324  12.966  25.191   4.045
14505W        W79325  11.718  18.258   2.022
14506W        W79326  14.669  27.250   2.658
14507W        W79327  22.336  11.490  14.890
14508W        W79328   3.370  14.138   3.114
14509W        W79329   3.609  19.158   2.448
14510W        W79330   0.471  30.703   1.838
14511W        W79331  12.411   9.774   4.492
14512W        W79332  38.746   6.532   5.518
14513W        W79333  36.616  12.291  14.374
14514W        W79334   6.101  24.615  12.322
14515W        W79335  20.387  16.199  12.903
14516W        W79336  14.130  11.130  12.393
14517W        W79337  11.775  38.514   4.036
14518W        W79338  28.560   4.375   0.271
14519W        W79339   0.974   8.093   2.293
14520W        W79340  24.137  13.316  14.981
14521W        W79341  16.068  43.358  11.115
14522W        W79342  29.968   7.854   0.571
14523W        W79343  10.843   7.794  12.131
14524W        W79344   9.182  32.514   4.727
14525W        W79345  42.891  39.547  10.626
14526W        W79346  30.363  16.664   3.240
14527W        W79347  23.519  21.666   3.641
14528W        W79348   6.307  16.384  13.436
14529W        W79349   1.777   4.315  13.626
14530W        W79350  19.769  24.400   2.968
14531W        W79351  21.292  27.660  10.908
14532W        W79352  13.171  22.413   3.137
14533W        W79353  19.707  39.756  14.679
14534W        W79354   0.708  11.938   0.442
14535W        W79355  10.957  20.161   1.734
14536W        W79356   8.677  29.112   0.833
14537W        W79357  33.851  11.845   2.416
14538W        W79358  18.717   6.453  14.599
14539W        W79359   2.570  22.830  10.795
14540W        W79360   1.997  13.319   2.937
14541W        W79361  32.455  11.743   5.106
14542W        W79362  20.174  27.587   3.560
14543W        W79363  23.604   8.606   1.866
14544W        W79364   3.779  41.234   4.259
14545W        W79365   5.645  44.354  11.651
14546W        W79366  21.552  24.398   1.431
14547W        W79367  10.232  37.440   4.611
14548W        W79368  16.463  34.103   0.483
14549W        W79369  17.921  28.938   2.711
14550W        W79370  38.780  15.605   0.445
14551W        W79371  27.922   2.515   3.824
14552W        W79372  13.317  14.345   3.261
14553W        W79373  33.332  42.903   4.111
14554W        W79374   5.944  20.260  12.706
14555W        W79375  38.529   3.772  13.740
14556W        W79376   1.784  25.612   3.728
14557W        W79377   5.292  43.648   3.729
14558W        W79378  43.516  16.132   0.797
14559W        W79379  10.075  32.708  14.836
14560W        W79380   7.499   8.041  11.454
14561W        W79381  10.018  14.449   4.713
14562W        W79382  28.186   8.761  12.342
14563W        W79383   2.239   8.147  11.531
14564W        W79384   9.600  28.994  11.172
14565W        W79385  42.511  26.470   2.071
14566W        W79386  33.267  28.125   3.727
14567W        W79387  42.270   5.649  14.680
14568W        W79388  37.394  11.430   1.718
14569W        W79389  30.066  24.448  12.871
14570W        W79390  36.910   3.895   0.919
14571W        W79391   0.557  35.091  11.569
14572W        W79392  25.259  11.558  13.478
14573W        W79393  37.474  23.974  12.275
14574W        W79394  35.229  14.322   4.125
14575W        W79395  34.168   6.458   4.078
14576W        W79396   9.894   2.012   2.193
14577W        W79397  11.119  43.843  14.910
14578W        W79398  22.126  23.738  13.539
14579W        W79399   8.289  38.062   2.774
14580W        W79400  27.688  12.691   2.283
14581W        W79401   1.956  42.028  11.199
14582W        W79402  38.735  21.551   1.647
14583W        W79403   8.014  22.968  12.973
14584W        W79404  16.112  42.489   3.688
14585W        W79405  24.948   0.419   4.103
14586W        W79406  30.957  34.031   0.420
14587W        W79407  21.787  32.457   4.269
14588W        W79408  38.479  14.476   1.927
14589W        W79409  10.638  35.495  13.919
14590W        W79410  25.640   9.789  10.617
14591W        W79411  44.953  33.353   3.253
14592W        W79412  17.733   7.308   4.149
14593W        W79413  20.525  12.455   2.639
14594W        W79414  30.513  11.052   0.674
14595W        W79415   4.310  10.811  12.140
14596W        W79416  35.872   1.155   4.726
14597W        W79417   4.862  44.574   1.299
14598W        W79418   7.965  33.159  12.936
14599W        W79419   3.665   3.016   1.032
14600W        W79420  21.438   2.271  14.972
14601W        W79421  34.961  15.858  13.754
14602W        W79422  24.177  13.716  12.608
14603W        W79423  23.082  10.728   0.781
14604W        W79424   8.308  11.240   0.999
14605W        W79425  27.660  13.757  12.121
14606W        W79426  40.560  39.564  14.773
14607W        W79427  29.742  31.431  12.335
14608W        W79428  35.353  18.560   3.665
14609W        W79429  31.442  22.985  12.961
14610W        W79430   9.379  43.548   1.866
14611W        W79431  12.912   7.203  10.917
14612W        W79432  34.821   9.770   4.933
14613W        W79433  32.052   6.654  13.072
14614W        W79434  31.968   8.357  10.682
14615W        W79435  12.431  27.183   1.248
14616W        W79436  39.039   9.669  13.494
14617W        W79437  21.452  43.457   1.743
14618W        W79438   2.664  33.954   0.877
14619W        W79439  44.852  44.247   1.916
14620W        W79440   5.187  16.281   1.881
14621W        W79441  25.615  28.850  10.216
14622W        W79442  16.812  32.868   0.835
14623W        W79443  35.931  22.541   1.854
14624W        W79444  14.777  31.155   0.846
14625W        W79445  23.710  22.580   3.787
14626W        W79446   2.986  19.865   1.687
14627W        W79447  29.540  29.175   4.690
14628W        W79448   8.344  41.071   1.809
14629W        W79449  32.211  11.587  11.768
14630W        W79450  29.653  11.818  11.729
14631W        W79451  22.711  28.407  12.912
14632W        W79452   4.188   7.780  13.937
14633W        W79453  14.211  13.906   0.870
14634W        W79454   4.339  42.417   0.952
14635W        W79455  15.294  40.809   0.758
14636W        W79456  27.579  11.818  14.040
14637W        W79457   3.829   8.356   2.403
14638W        W79458  13.814  20.229   2.822
14639W        W79459  32.217  43.628   4.483
14640W        W79460  39.788  27.864  13.077
14641W        W79461   2.990  12.403   0.562
14642W        W79462   0.971  20.015  14.975
14643W        W79463  30.001  14.833   4.304
14644W        W79464  18.778  21.184   4.078
14645W        W79465  31.147  25.382   1.816
14646W        W79466  25.301  15.650  12.516
14647W        W79467  13.704   0.455   2.799
14648W        W79468  18.568   0.911   3.140
14649W        W79469  25.483  14.165   3.813
14650W        W79470   3.729   2.921  12.867
14651W        W79471  19.132  19.443  11.093
14652W        W79472  31.880  29.039  13.524
14653W        W79473  37.363  26.521  12.508
14654W        W79474  29.927  25.682   4.210
14655W        W79475  33.696  27.754  13.334
14656W        W79476  25.913  33.079   9.759
14657W        W79477   3.323  26.030   4.595
14658W        W79478  21.064  14.361   1.384
14659W        W79479   1.506  37.946   1.927
14660W        W79480   8.932   9.094  14.923
14661W        W79481   8.387  16.040  10.268
14662W        W79482  25.915  28.863   3.642
14663W        W79483  16.026  41.655   4.175
14664W        W79484   6.298   3.469  13.467
14665W        W79485  11.812   1.590  14.751
14666W        W79486  37.807  26.196  12.498
14667W        W79487  25.848   6.214  14.753
14668W        W79488  26.428  44.806  11.896
14669W        W79489  41.891  16.708   1.646
14670W        W79490  32.744  19.190   2.373
14671W        W79491  27.993  30.825   4.817
14672W        W79492  14.008   3.716   2.891
14673W        W79493  25.557  26.633   2.527
14674W        W79494  12.784   5.036   4.665
14675W        W79495  40.400   3.388   3.260
14676W        W79496   4.480  32.934   3.294
14677W        W79497   8.313  42.865  10.795
14678W        W79498  35.859  20.010  10.661
14679W        W79499   8.666  39.867   4.584
14680W        W79500  42.214   8.723  10.104
14681W        W79501  28.521   8.163  11.720
14682W        W79502   1.904  18.298  10.914
14683W        W79503  44.841  18.592  10.624
14684W        W79504   4.377  24.212  13.359
14685W        W79505  36.211  10.850   3.118
14686W        W79506  31.278  14.098  12.576
14687W        W79507  28.962   6.701  12.433
14688W        W79508  14.935  21.674   2.282
14689W        W79509   5.841  23.760   1.280
14690W        W79510  15.714  31.664  13.656
14691W        W79511  33.082  15.338   9.543
14692W        W79512  11.180  42.092  12.450
14693W        W79513  27.639  40.707   2.749
14694W        W79514  30.963  23.018  13.927
14695W        W79515  11.149  25.034   4.215
14696W        W79516  38.074  26.196  14.023
14697W        W79517  31.983  38.820  11.979
14698W        W79518  18.283  17.767  10.711
14699W        W79519   8.589   6.925   0.375
14700W        W79520   7.689  21.612  11.980
14701W        W79521  32.234  32.999  14.866
14702W        W79522  12.398   6.238  11.579
14703W        W79523   8.778  28.534   0.448
14704W        W79524  43.842  27.608   0.880
14705W        W79525   3.350  13.364  10.799
14706W        W79526  35.867  20.895  12.981
14707W        W79527  43.720   9.267   1.291
14708W        W79528  27.280   6.650  12.171
14709W        W79529  15.901   8.187  11.236
14710W        W79530   4.473   8.274   0.978
14711W        W79531  24.051  23.468   3.235
14712W        W79532   4.193   9.629  10.896
14713W        W79533  23.145  14.524  14.376
14714W        W79534   7.451  41.394  14.774
14715W        W79535   3.233  38.440  14.754
14716W        W79536   9.442  12.145  13.880
14717W        W79537  29.112   5.203   4.149
14718W        W79538  21.245  25.293   4.130
14719W        W79539  13.246  28.657   2.571
14720W        W79540  34.502  19.581  13.408
14721W        W79541  27.072  43.969   3.996
14722W        W79542  21.604  29.159   3.181
14723W        W79543  35.873  39.840   3.172
14724W        W79544   0.720  43.938   0.499
14725W        W79545  30.003  12.384  11.755
14726W        W79546  10.199   0.263   1.375
14727W        W79547  10.977  42.568  12.030
14728W        W79548  29.079   5.609   0.318
14729W        W79549  39.063  29.694   3.144
14730W        W79550  35.557  22.044  14.233
14731W        W79551   1.642   4.645   0.787
14732W        W79552   8.758  29.951  11.476
14733W        W79553  35.102  41.035   0.966
14734W        W79554  31.237  28.122   5.060
14735W        W79555   1.865   4.056  12.485
14736W        W79556   5.449  40.803  12.478
14737W        W79557  35.519  27.218  13.842
14738W        W79558  42.706  36.875  14.977
14739W        W79559   8.031  40.424   5.076
14740W        W79560   2.270  10.883   2.456
14741W        W79561  17.080   5.607   0.893
14742W        W79562  26.970   6.387   1.211
14743W        W79563  42.279  29.222   3.386
14744W        W79564  20.983  41.600  12.529
14745W        W79565  19.559   2.542   0.792
14746W        W79566  34.248   0.492   4.554
14747W        W79567   5.683  36.480   2.727
14748W        W79568  42.583  36.060  13.258
14749W        W79569  36.777  40.466   1.498
14750W        W79570  43.124  38.434  10.894
14751W        W79571  24.624  13.677   3.910
14752W        W79572   7.867  17.581  14.224
14753W        W79573  22.812  44.683  14.343
14754W        W79574  37.440  10.857   4.229
14755W        W79575  12.716  43.409   1.221
14756W        W79576  12.339  35.365  13.518
14757W        W79577  44.857  25.233   2.493
14758W        W79578   9.101  16.380   2.663
14759W        W79579   1.696  39.572  12.647
14760W        W79580   2.067   5.994   2.480
14761W        W79581  33.664  26.469  13.987
14762W        W79582  18.142  22.102   3.187
14763W        W79583  20.589  13.846  11.121
14764W        W79584  29.039  13.746   3.636
14765W        W79585  19.502   5.913  10.356
14766W        W79586  17.231  43.917   1.854
14767W        W79587   1.264   5.017   3.239
14768W        W79588  11.817   6.399   0.731
14769W        W79589  33.015  22.952  14.413
14770W        W79590  32.016  37.793  10.714
14771W        W79591   4.845  18.828   4.497
14772W        W79592  34.247  36.678   1.774
14773W        W79593  13.777  18.337  12.536
14774W        W79594  14.101  27.465   2.964
14775W        W79595  19.350  37.326   2.149
14776W        W79596  20.649  32.131  12.803
14777W        W79597  23.792  26.194  12.100
14778W        W79598   5.592  22.504   5.492
14779W        W79599  10.618  24.926  12.898
14780W        W79600  22.656  30.767  11.025
14781W        W79601  34.900  29.972  14.524
14782W        W79602   4.157  22.050   4.043
14783W        W79603  38.884  29.439  14.743
14784W        W79604  13.518  37.589  14.221
14785W        W79605   1.714  20.498   2.715
14786W        W79606   2.254  12.043  13.002
14787W        W79607  13.910  14.687   3.293
14788W        W79608  21.256  13.669   4.915
14789W        W79609   4.545  39.374  12.607
14790W        W79610  13.645  33.327   2.792
14791W        W79611  41.160  24.967  13.427
14792W        W79612   3.924  17.136   2.155
14793W        W79613   6.657  24.598   0.882
14794W        W79614  44.436  24.075  10.425
14795W        W79615  39.148  10.962   9.945
14796W        W79616  31.759  22.087  11.001
14797W        W79617  13.836  21.046   4.498
14798W        W79618  15.153  26.268  12.326
14799W        W79619  31.967  39.847   3.804
14800W        W79620   9.926  16.384   0.275
14801W        W79621  35.064  43.262  13.322
14802W        W79622  18.323  22.914  14.895
14803W        W79623  15.091  27.997  14.893
14804W        W79624  14.532  16.862  13.352
14805W        W79625  21.188  14.595  14.845
14806W        W79626  44.456  32.210   4.065
14807W        W79627  18.653   0.036  11.971
14808W        W79628   6.278   7.486   2.767
14809W        W79629   2.369  32.595  14.807
14810W        W79630  14.714  36.203   4.171
14811W        W79631  24.875   7.334   1.187
14812W        W79632  14.249   8.350   2.633
14813W        W79633  24.725   7.573   0.597
14814W        W79634  14.928  21.714   3.225
14815W        W79635  14.919  37.263  12.291
14816W        W79636   5.689  40.984  11.605
14817W        W79637   2.185  42.511   3.075
14818W        W79638  31.087  15.235  13.987
14819W        W79639   2.024   8.179   0.933
14820W        W79640   3.050  11.155   0.996
14821W        W79641  39.174  29.898  13.141
14822W        W79642   0.361   2.313  10.713
14823W        W79643  20.622   6.489  13.985
14824W        W79644   9.007  11.871   1.396
14825W        W79645  27.593  38.281   2.411
14826W        W79646   6.234   4.185   2.220
14827W        W79647  26.035   2.063  11.188
14828W        W79648   6.169  42.888  14.420
14829W        W79649  39.851  13.608  11.952
14830W        W79650  21.384  12.779  12.433
14831W        W79651   3.871   8.616   1.500
14832W        W79652  21.207  14.580   3.581
14833W        W79653  26.643   7.718   4.502
14834W        W79654  42.272   8.844  12.857
14835W        W79655  40.385  11.871   1.891
14836W        W79656  20.751  37.067   3.671
14837W        W79657  25.531  20.371   0.469
14838W        W79658   3.877   4.606   2.919
14839W        W79659  28.262  26.547   5.088
14840W        W79660  28.699  23.632  14.231
14841W        W79661  30.541  11.408  12.945
14842W        W79662  22.931  13.301  13.651
14843W        W79663  21.775  16.347   4.175
14844W        W79664  25.223  33.500  12.504
14845W        W79665  31.912  36.559  13.120
14846W        W79666  39.422  17.831   1.464
14847W        W79667  33.484  33.910   1.005
14848W        W79668  29.202  23.304  14.317
14849W        W79669   6.712  28.765   1.731
14850W        W79670  29.425  22.060   2.286
14851W        W79671   2.620  23.758  14.078
14852W        W79672  33.702  20.228  11.972
14853W        W79673  42.533   4.311  14.071
14854W        W79674   8.799  35.039   0.674
14855W        W79675   5.779  27.695  12.014
14856W        W79676  26.699   3.706  12.107
14857W        W79677  29.062  11.852  12.767
14858W        W79678  15.109  18.175   1.351
14859W        W79679  26.536  28.706  11.541
14860W        W79680   2.193  32.127   2.309
14861W        W79681  37.375   7.107   1.880
14862W        W79682  32.911  17.252   1.788
14863W        W79683   1.860  11.565  12.445
14864W        W79684  36.848  25.626  11.041
14865W        W79685  16.184  30.372   1.237
14866W        W79686  23.580   1.203  10.707
14867W        W79687  13.546  11.361  11.580
14868W        W79688  35.608  33.631   4.112
14869W        W79689  24.991  34.281   4.572
14870W        W79690  40.515   2.842   1.151
14871W        W79691  34.410  35.341  13.316
14872W        W79692   6.788  23.225   1.423
14873W        W79693   8.201  44.769  12.618
14874W        W79694  20.481  44.246  13.092
14875W        W79695   4.363  33.487   2.186
14876W        W79696  40.725  22.778   0.956
14877W        W79697   4.154  32.040  12.097
14878W        W79698  33.854  20.338   3.704
14879W        W79699   3.917  42.039  14.924
14880W        W79700  11.123  12.196   4.805
14881W        W79701  25.562  44.525   4.034
14882W        W79702  44.288   6.284  12.479
14883W        W79703  35.677  29.267   0.768
14884W        W79704   5.492  27.011   4.180
14885W        W79705  16.243  22.256  10.425
14886W        W79706  43.791  28.624   3.735
14887W        W79707  39.270  35.954   0.238
14888W        W79708  36.353  43.158   1.566
14889W        W79709  41.833  29.393  11.162
14890W        W79710   7.108  17.425  12.937
14891W        W79711  38.942  16.307  13.137
14892W        W79712   5.439  13.232  11.363
14893W        W79713   7.964  22.304   0.348
14894W        W79714  39.062  39.617   9.964
14895W        W79715   1.411  43.583  14.763
14896W        W79716  16.600  25.293   0.332
14897W        W79717  10.609  20.568  11.744
14898W        W79718  31.906  22.113   4.653
14899W        W79719  36.052  44.136  13.917
14900W        W79720  30.430   3.901  14.342
14901W        W79721  29.983  28.963  13.784
14902W        W79722   8.322  13.836  12.061
14903W        W79723  33.036  40.297   1.873
14904W        W79724  24.002  32.012  11.232
14905W        W79725   0.845  24.971  11.981
14906W        W79726   9.804  19.688   4.303
14907W        W79727  39.777   8.908  13.522
14908W        W79728  13.132  29.929   0.408
14909W        W79729  44.241   7.972   0.220
14910W        W79730  21.776  17.539   1.649
14911W        W79731  36.478  40.288   0.268
14912W        W79732  32.886  33.262   0.806
14913W        W79733  18.619   1.168   2.649
14914W        W79734  10.291  44.802  14.265
14915W        W79735   0.149  22.882   3.622
14916W        W79736   7.600  10.177  12.547
14917W        W79737  41.961   3.518  14.480
14918W        W79738  19.795   1.836  14.419
14919W        W79739  15.245  41.985  12.350
14920W        W79740   2.503  10.728  12.222
14921W        W79741  37.987  25.057  10.659
14922W        W79742   4.428  36.689   2.777
14923W        W79743  35.414  38.860  10.683
14924W        W79744  12.584  15.687   2.322
14925W        W79745   1.448  37.576   4.347
14926W        W79746   1.898  27.456   3.685
14927W        W79747  16.046  29.881   1.364
14928W        W79748  22.076  34.926  14.129
14929W        W79749  16.373  35.233   5.041
14930W        W79750  29.507   9.565   4.436
14931W        W79751   2.409  22.707  13.541
14932W        W79752  41.813   1.904  12.042
14933W        W79753   0.562  44.856   4.476
14934W        W79754  41.760   8.678   0.526
14935W        W79755   8.937  25.106   4.773
14936W        W79756  11.226   3.829   3.666
14937W        W79757  27.487  12.999  13.466
14938W        W79758   6.415  44.502  11.874
14939W        W79759  38.393  19.148   4.128
14940W        W79760   1.443  21.951  14.820
14941W        W79761  13.170  36.884  12.026
14942W        W79762   8.314  35.927   0.271
14943W        W79763  43.348   2.372  13.066
14944W        W79764  16.629  33.141   0.433
14945W        W79765  13.768  22.973  14.824
14946W        W79766   7.178   8.658  12.155
14947W        W79767  15.609   1.476   2.756
14948W        W79768  21.102  41.792  11.760
14949W        W79769  19.701  35.738  11.112
14950W        W79770   4.869  20.357  12.036
14951W        W79771  31.279  30.617  13.169
14952W        W79772  26.453  19.186   2.301
14953W        W79773  19.063  21.582   0.002
14954W        W79774  28.886  10.701   0.067
14955W        W79775  36.451   7.593  13.508
14956W        W79776  39.402  43.508  10.648
14957W        W79777  38.316  23.549   4.499
14958W        W79778  25.002   8.437   0.874
14959W        W79779  40.860  40.671  12.897
14960W        W79780  25.141  34.321   0.353
14961W        W79781  10.288  35.693  14.660
14962W        W79782  20.772  30.540   3.852
14963W        W79783  16.154   1.411   1.435
14964W        W79784  12.157  11.759  12.339
14965W        W79785  30.972  28.076   2.186
14966W        W79786  19.318  25.734   1.797
14967W        W79787  27.651  28.966  11.955
14968W        W79788  13.785  35.978   1.475
14969W        W79789  15.136  41.727  13.164
14970W        W79790  30.457  43.525   2.897
14971W        W79791  24.592  22.017   4.126
14972W        W79792   2.735  27.064   2.287
14973W        W79793  13.808   9.111  11.979
14974W        W79794  34.581  18.003   0.370
14975W        W79795   3.247  38.607  13.373
14976W        W79796  36.570   8.677  13.588
14977W        W79797  39.777   5.808  13.336
14978W        W79798  40.641   3.493  13.904
14979W        W79799  20.552   0.298  13.005
14980W        W79800  10.209  13.406  14.349
14981W        W79801  31.089   8.344  14.891
14982W        W79802   6.584  33.403   0.723
14983W        W79803  44.937   2.738   1.032
14984W        W79804  21.019   1.740  13.310
14985W        W79805  38.448  22.559   4.744
14986W        W79806  15.624  37.014  13.514
14987W        W79807  31.400   7.160  11.827
14988W        W79808  25.206  17.244  11.027
14989W        W79809  15.891  14.435  12.079
14990W        W79810   0.789  26.114  12.671
14991W        W79811  43.403  33.060   0.865
14992W        W79812  33.126   9.854   0.763
14993W        W79813  25.265  32.617  12.629
14994W        W79814   6.619  13.563   2.291
14995W        W79815  20.284  19.739  11.736
14996W        W79816  43.915  31.256   2.240
14997W        W79817  11.113  42.351  12.903
14998W        W79818  27.859   2.986  13.897
14999W        W79819  19.718   2.732  10.709
15000W        W79820   2.455  43.791  13.862
15001W        W79821  43.422  11.618   4.318
15002W        W79822  15.721  24.816   2.658
15003W        W79823  27.505  37.480  11.570
15004W        W79824  17.788  29.347   3.958
15005W        W79825  32.854   6.418   3.215
15006W        W79826   9.368  11.445   1.339
15007W        W79827  32.919  27.726  12.003
15008W        W79828  32.064  38.003  12.441
15009W        W79829  12.612  43.862  11.934
15010W        W79830  43.360  27.098  13.000
15011W        W79831  39.427  32.975  12.768
15012W        W79832  38.160  38.771   1.793
15013W        W79833  15.825   3.859  13.488
15014W        W79834   7.687  31.014  12.448
15015W        W79835  13.555  40.622  14.773
15016W        W79836  34.440  11.614  14.340
15017W        W79837   6.403   1.317   2.279
15018W        W79838  20.452  34.093   0.414
15019W        W79839  22.215   6.585  13.454
15020W        W79840  17.543  42.519  12.946
15021W        W79841   7.096   2.718   2.157
15022W        W79842  44.045  18.098  12.580
15023W        W79843   0.845  22.055  13.567
15024W        W79844  40.804  24.480  10.691
15025W        W79845   8.857  16.113   1.750
15026W        W79846  41.298  16.837   2.244
15027W        W79847  24.177   7.276   3.363
15028W        W79848  30.158  36.141  14.373
15029W        W79849  16.744  28.452  10.538
15030W        W79850  35.999   7.751  11.218
15031W        W79851   5.991   3.395   2.472
15032W        W79852  10.599  35.720   0.705
15033W        W79853  29.689   3.733   1.779
15034W        W79854   2.021  16.131   3.349
15035W        W79855  36.304  20.708   2.145
15036W        W79856  22.288  30.427  11.892
15037W        W79857  31.126  38.363  12.945
15038W        W79858   8.800  20.616  13.637
15039W        W79859  44.299  14.308  14.037
15040W        W79860  16.153  36.842  12.935
15041W        W79861  31.613   1.391   1.330
15042W        W79862  37.672  40.154   3.724
15043W        W79863  27.620   6.723   4.547
15044W        W79864   6.358  30.377   3.480
15045W        W79865   9.755   5.870  12.268
15046W        W79866   5.333   3.364   4.338
15047W        W79867  42.114  11.310   3.288
15048W        W79868  14.140  37.036   3.630
15049W        W79869  32.386  16.203  13.784
15050W        W79870  20.303  32.665   3.210
15051W        W79871   9.550  30.471   2.918
15052W        W79872  23.537   7.364   4.297
15053W        W79873  12.145   0.852  14.764
15054W        W79874  34.506   2.375  13.477
15055W        W79875  41.200  43.891   2.265
15056W        W79876   9.457  34.629   1.989
15057W        W79877  36.092  32.091  12.942
15058W        W79878   6.644  16.970  11.045
15059W        W79879  26.064  37.082   4.046
15060W        W79880   0.431  37.492  14.909
15061W        W79881  33.465  30.910   3.371
15062W        W79882  30.404   3.226   0.293
15063W        W79883   7.494   3.603  13.025
15064W        W79884  39.259  35.680  11.264
15065W        W79885  33.009  21.406  10.708
15066W        W79886   1.910  36.592  14.605
15067W        W79887  28.534  36.836  10.736
15068W        W79888  17.998  32.024  11.041
15069W        W79889  23.480  32.597  10.337
15070W        W79890  13.601  36.841  12.482
15071W        W79891  13.712  21.714   0.351
15072W        W79892  17.139  11.700  10.655
15073W        W79893  21.920  20.970  12.787
15074W        W79894  29.842  18.583   4.094
15075W        W79895   2.296  33.219  14.533
15076W        W79896   0.721  31.839   0.464
15077W        W79897  30.099  27.173   0.303
15078W        W79898  10.872  36.377   3.270
15079W        W79899  37.703   6.687  11.903
15080W        W79900  24.671  20.235   0.823
15081W        W79901  21.079  15.203   1.013
15082W        W79902   7.666  19.022   1.376
15083W        W79903  12.170  37.050   1.834
15084W        W79904  39.804  16.288  13.001
15085W        W79905  23.558   7.649   3.457
15086W        W79906  23.604  17.520  12.228
15087W        W79907   5.722  19.777   2.843
15088W        W79908  27.686  38.433   0.991
15089W        W79909  42.341  35.106  12.937
15090W        W79910  44.716  42.923   0.795
15091W        W79911  30.089  42.022  12.418
15092W        W79912  15.728  10.573  10.459
15093W        W79913   9.140  22.141   1.025
15094W        W79914   6.394  11.779   1.017
15095W        W79915   3.284  28.402   1.507
15096W        W79916  27.666   8.665   0.108
15097W        W79917  36.531  39.853  11.460
15098W        W79918  27.388  30.992  14.900
15099W        W79919  43.743  38.945   2.620
15100W        W79920  22.167  35.763   0.286
15101W        W79921   7.486   6.829  13.103
15102W        W79922  10.740  19.765   4.020
15103W        W79923  18.047  29.871  13.338
15104W        W79924  12.687  36.171  14.558
15105W        W79925  16.362  10.122  11.974
15106W        W79926   4.072  41.617  11.218
15107W        W79927  41.222  37.908   3.742
15108W        W79928  20.678  43.199   1.393
15109W        W79929   5.561  28.141  11.122
15110W        W79930  31.000  44.259   4.034
15111W        W79931  16.566  35.848   1.166
15112W        W79932  24.441  40.525   2.342
15113W        W79933  10.911  17.175  13.487
15114W        W79934  28.407  15.732   2.025
15115W        W79935   3.557   7.891  12.970
15116W        W79936   8.839  43.384   1.794
15117W        W79937   9.395  28.457  12.377
15118W        W79938  14.727  38.415   4.796
15119W        W79939  23.248   9.628  12.866
15120W        W79940   0.003  20.052   1.321
15121W        W79941   9.427  17.649   3.281
15122W        W79942   0.835   6.026  12.514
15123W        W79943  29.471  34.347  11.592
15124W        W79944  27.615  32.861   2.197
15125W        W79945   0.394   2.420  14.455
15126W        W79946  35.350   2.943   2.820
15127W        W79947  25.102  26.726  14.797
15128W        W79948  44.514  17.809  13.452
15129W        W79949  12.672   4.281   4.007
15130W        W79950  39.541   1.701   2.867
15131W        W79951   3.841  18.254   3.112
15132W        W79952  28.639  16.371  10.679
15133W        W79953  41.737   5.136   0.159
15134W        W79954  39.085  17.916   4.856
15135W        W79955  39.177   7.455   2.257
15136W        W79956   3.945  16.322   3.298
15137W        W79957  24.124  29.162   4.754
15138W        W79958  42.960  11.347  14.729
15139W        W79959  30.488   0.426  11.129
15140W        W79960  38.874  10.737  11.607
15141W        W79961  39.136  24.419   1.931
15142W        W79962  38.674  31.221   2.095
15143W        W79963  28.248  32.290  14.820
15144W        W79964   5.406  18.510   3.848
15145W        W79965   2.453  11.741   2.469
15146W        W79966  17.327  17.131  10.341
15147W        W79967  37.294  19.831  11.515
15148W        W79968  11.243  19.332   1.879
15149W        W79969   7.202   7.217  10.482
15150W        W79970  16.144  27.318  11.741
15151W        W79971  28.330   8.891  12.847
15152W        W79972   6.691  25.026   0.590
15153W        W79973  30.129   3.466  13.931
15154W        W79974  36.164   1.322   1.260
15155W        W79975   4.375  44.980   1.348
15156W        W79976   3.463  15.525   1.836
15157W        W79977  25.503  35.684   9.754
15158W        W79978  12.321  28.423   2.916
15159W        W79979  26.207  12.684  14.767
15160W        W79980  32.625  27.767   2.080
15161W        W79981  11.009   4.740   4.108
15162W        W79982  24.459  23.111   1.909
15163W        W79983  10.616  36.601   3.662
15164W        W79984  37.849  39.970   2.687
15165W        W79985  42.780  21.285   3.617
15166W        W79986   2.740  22.775   4.424
15167W        W79987  44.036  14.159  10.654
15168W        W79988  13.183  20.437  13.449
15169W        W79989  22.702  15.834  11.898
15170W        W79990  39.816  22.448  13.425
15171W        W79991  29.980  26.489   3.593
15172W        W79992  31.639  16.251   0.849
15173W        W79993  16.698  20.537  12.451
15174W        W79994   3.316   0.016  12.872
15175W        W79995   0.851  15.707  14.932
15176W        W79996  42.042  41.114   3.656
15177W        W79997  35.315  39.144  12.089
15178W        W79998   6.898  40.254   1.235
15179W        W79999   0.983  35.927   4.695
15180W        W80000  16.872  10.246  11.984
15181W        W80001  43.819  39.487   1.299
15182W        W80002  15.613  42.800   3.077
15183W        W80003  12.580  29.118  12.246
15184W        W80004  21.595  37.528   2.480
15185W        W80005  39.351  44.437   1.913
15186W        W80006  38.577   0.295   2.339
15187W        W80007   5.727  23.602  13.824
15188W        W80008  39.979  25.686  13.086
15189W        W80009   6.414   7.667   4.367
15190W        W80010  43.309   5.684   1.726
15191W        W80011  20.555  38.966  14.595
15192W        W80012  40.742  24.708   3.544
15193W        W80013   6.778   7.768  10.452
15194W        W80014  38.670  42.812   1.961
15195W        W80015  25.493   4.131   1.274
15196W        W80016   3.959  27.035   4.147
15197W        W80017   9.517  21.183  13.419
15198W        W80018  43.385  41.700   3.355
15199W        W80019  32.913  39.548  12.490
15200W        W80020  35.963   0.955   2.866
15201W        W80021   8.948  22.056  13.065
15202W        W80022  34.560   7.272  14.003
15203W        W80023  12.747  38.439   2.897
15204W        W80024   3.936  21.191   3.732
15205W        W80025  17.854  20.256   3.168
15206W        W80026  34.519  19.468   1.620
15207W        W80027  26.394   5.141   0.964
15208W        W80028  28.760  10.802  11.955
15209W        W80029  13.407   3.101   4.537
15210W        W80030  11.372  33.908  14.867
15211W        W80031  28.939  13.186   1.686
15212W        W80032  32.503  11.633   2.740
15213W        W80033   0.902  10.251  10.380
15214W        W80034   7.534  38.618  13.383
15215W        W80035  37.381   3.787  13.340
15216W        W80036  25.617   6.870   4.369
15217W        W80037  16.487  25.743  10.776
15218W        W80038   6.877  23.235  10.709
15219W        W80039  28.580  25.774  14.251
15220W        W80040  39.810  31.427   0.992
15221W        W80041  30.500  35.181   4.104
15222W        W80042  41.527  30.018  14.145
15223W        W80043  27.161  34.139   3.217
15224W        W80044  13.565  15.175   3.357
15225W        W80045   3.763  42.275   4.397
15226W        W80046  35.403   1.988  13.568
15227W        W80047  17.487  18.308  12.823
15228W        W80048  17.835  19.144   3.808
15229W        W80049   6.407  22.762   0.821
15230W        W80050   0.043  40.293  14.947
15231W        W80051  41.420  35.464   1.198
15232W        W80052  20.660  17.230  10.530
15233W        W80053  33.051  33.122   2.766
15234W        W80054  35.880  37.635   1.344
15235W        W80055  11.801  27.950  13.574
15236W        W80056  35.399   2.549  12.487
15237W        W80057  40.804  27.563  13.317
15238W        W80058  44.271  28.973  10.478
15239W        W80059   9.723  41.586  14.817
15240W        W80060  36.041  11.318   2.812
15241W        W80061   1.204  22.635  12.103
15242W        W80062  27.231  28.910   4.598
15243W        W80063   1.806  14.459  11.513
15244W        W80064   6.945  38.640  12.781
15245W        W80065  16.346  39.502  12.045
15246W        W80066  37.033  25.070   1.696
15247W        W80067  15.075  20.848  12.051
15248W        W80068  22.474  19.600   0.798
15249W        W80069  13.624  27.448   0.960
15250W        W80070  33.402  17.531   1.208
15251W        W80071  26.404  30.388   3.238
15252W        W80072  40.838  31.502   3.655
15253W        W80073  19.782   7.182  11.873
15254W        W80074  43.880  41.323   3.908
15255W        W80075  18.128  29.783   2.360
15256W        W80076  25.811  30.457  11.119
15257W        W80077  12.759   1.321  13.305
15258W        W80078  10.145  29.942  10.315
15259W        W80079  37.985   4.286  12.169
15260W        W80080   9.282  38.509  11.525
15261W        W80081  37.599  34.928  12.224
15262W        W80082  43.692  24.484  12.647
15263W        W80083  44.467   4.813  14.338
15264W        W80084  36.634  13.320  12.390
15265W        W80085  11.210  23.249   4.565
15266W        W80086  19.283  10.899   3.502
15267W        W80087  40.761   0.347   3.243
15268W        W80088   7.764   6.841  12.268
15269W        W80089  21.790  22.802   0.797
15270W        W80090   2.232  13.836   4.179
15271W        W80091  15.614  37.887   0.359
15272W        W80092  30.215  35.996   5.008
15273W        W80093  11.398  20.511  14.901
15274W        W80094  24.006  29.442  10.682
15275W        W80095  42.218  26.514   4.573
15276W        W80096  39.477  26.411   1.486
15277W        W80097  33.130  39.277  14.893
15278W        W80098  19.639  16.611  12.905
15279W        W80099  16.570   0.459   4.228
15280W        W80100  21.624  22.434   2.969
15281W        W80101   8.640  34.974  12.543
15282W        W80102   3.363  32.994  12.481
15283W        W80103  23.156  36.018   1.201
15284W        W80104  16.854  28.110  11.951
15285W        W80105  13.812  16.802  12.875
15286W        W80106  22.192  24.096   1.044
15287W        W80107  33.831  43.171  12.733
15288W        W80108  13.193   0.079   0.345
15289W        W80109  17.076  22.041  13.852
15290W        W80110   8.391  43.007  14.007
15291W        W80111   7.821  38.953   0.608
15292W        W80112  25.528  33.066  12.608
15293W        W80113   4.296  32.939  12.104
15294W        W80114  43.473  28.626  12.011
15295W        W80115  23.878  17.392  14.358
15296W        W80116  26.146  26.526   4.148
15297W        W80117  13.442  10.290   5.072
15298W        W80118   3.510   9.885  11.601
15299W        W80119   0.005  23.937   4.194
15300W        W80120  41.517   9.766  11.909
15301W        W80121  11.117  22.446  14.540
15302W        W80122  33.686  21.499  11.083
15303W        W80123   7.251  44.523   3.116
15304W        W80124  17.632   5.915  14.420
15305W        W80125  21.674  30.593   3.319
15306W        W80126  20.494  26.114   4.631
15307W        W80127  21.022  38.291  12.865
15308W        W80128  12.798  44.259   4.215
15309W        W80129  37.241  22.339  12.851
15310W        W80130  37.494   8.332   1.207
15311W        W80131  44.555  29.940  12.465
15312W        W80132  23.546  33.181   4.159
15313W        W80133  22.887  21.791  11.870
15314W        W80134  12.813   1.365   0.846
15315W        W80135  26.001  20.448   0.930
15316W        W80136  16.286  31.012   2.663
15317W        W80137  41.214   7.494   3.443
15318W        W80138   1.853   0.430  10.766
15319W        W80139  22.101   0.370  12.366
15320W        W80140  41.435   8.665  11.661
15321W        W80141  33.585  25.149  11.616
15322W        W80142  27.485  37.988   1.977
15323W        W80143  33.200  30.859  11.077
15324W        W80144  33.186  10.847  10.765
15325W        W80145  11.114   4.334   3.838
15326W        W80146  34.190  44.552   3.866
15327W        W80147   3.185  31.876   2.225
15328W        W80148  11.109  32.079  12.579
15329W        W80149  22.969  28.465   4.104
15330W        W80150   9.434   9.927  14.766
15331W        W80151  24.539  23.917  10.508
15332W        W80152  18.551  38.658  13.394
15333W        W80153  16.452   5.680   3.164
15334W        W80154  34.444  12.222   3.211
15335W        W80155  11.354   5.297   4.661
15336W        W80156  37.361  29.415  11.201
15337W        W80157  30.907  23.742   0.260
15338W        W80158  20.126  15.268  10.950
15339W        W80159  20.491  18.819   3.497
15340W        W80160  38.387   6.461  13.409
15341W        W80161  21.506  25.935   1.446
15342W        W80162  12.460  27.139   0.339
15343W        W80163  30.138   3.911  12.977
15344W        W80164  17.830   7.228  14.551
15345W        W80165  16.683  32.430  10.920
15346W        W80166  34.504   1.875  12.385
15347W        W80167   3.687   0.722   0.931
15348W        W80168  28.166   1.869  12.173
15349W        W80169   8.708  44.863   0.634
15350W        W80170  13.414  32.512   1.692
15351W        W80171   6.117  25.704   0.357
15352W        W80172  10.283  31.411  11.684
15353W        W80173   7.017  22.454  12.438
15354W        W80174  11.401  37.873   0.918
15355W        W80175  10.174  37.725   4.195
15356W        W80176  40.928  19.517   2.013
15357W        W80177  38.018  12.201  14.029
15358W        W80178   0.268   1.778  10.587
15359W        W80179  39.278  31.879   3.709
15360W        W80180  34.379  24.501   0.872
15361W        W80181  43.094  18.525  13.272
15362W        W80182  26.922  12.680  14.096
15363W        W80183   7.984  41.989  11.162
15364W        W80184  43.880  38.030  13.173
15365W        W80185   6.285   9.396   4.717
15366W        W80186  22.341  39.761   3.627
15367W        W80187  21.642  18.694  14.367
15368W        W80188   3.151  42.456   1.081
15369W        W80189  25.732  36.476   4.966
15370W        W80190  30.262  11.773   0.368
15371W        W80191  41.451  23.791   4.786
15372W        W80192  27.208  37.871  11.440
15373W        W80193  41.343  29.919  12.086
15374W        W80194  12.917  43.275   0.749
15375W        W80195  26.598  43.750   4.128
15376W        W80196   9.474  33.501   4.412
15377W        W80197  39.526  22.780   1.400
15378W        W80198  16.576  28.271   2.480
15379W        W80199  27.677   9.751   4.351
15380W        W80200  40.533  14.036   1.250
15381W        W80201  27.069  17.273   1.967
15382W        W80202  12.683  12.859  14.325
15383W        W80203  31.594   6.390  12.430
15384W        W80204  36.088  35.521   1.295
15385W        W80205  18.349  22.299  12.983
15386W        W80206  12.054  23.014   4.556
15387W        W80207   5.522  26.678   2.321
15388W        W80208  31.152  36.854  11.137
15389W        W80209  11.289   3.218  12.407
15390W        W80210  44.386  37.733  10.670
15391W        W80211  43.667  28.247  12.954
15392W        W80212  20.155  20.555   2.752
15393W        W80213   6.333  25.779   3.082
15394W        W80214  35.994  28.883  14.427
15395W        W80215  26.176  24.557   0.010
15396W        W80216  22.791  38.075   2.579
15397W        W80217   2.291  11.345   2.161
15398W        W80218  32.952  35.838  12.451
15399W        W80219  31.516  41.425  11.703
15400W        W80220  11.228  44.792   0.992
15401W        W80221   5.129  14.794  13.294
15402W        W80222  12.302   1.827  11.235
15403W        W80223  24.569  34.046  11.022
15404W        W80224   9.406   0.934  11.973
15405W        W80225  20.954  13.322   4.615
15406W        W80226  43.179  27.211   4.302
15407W        W80227  10.177  18.691  12.207
15408W        W80228   8.114   5.905  12.001
15409W        W80229  13.330  42.778   9.657
15410W        W80230  13.430  42.048  12.471
15411W        W80231  19.321  14.913  11.522
15412W        W80232   8.177  35.864  11.613
15413W        W80233  23.056  39.644  14.480
15414W        W80234  43.440  15.331  13.060
15415W        W80235  35.071   7.767  12.080
15416W        W80236  25.247   9.159   4.709
15417W        W80237  27.588  11.762  12.746
15418W        W80238  37.868  25.717   2.829
15419W        W80239  44.711  41.063   2.967
15420W        W80240  39.762   9.267   4.940
15421W        W80241  11.860  32.086   3.808
15422W        W80242  17.243  34.490  11.591
15423W        W80243  29.034  17.951   4.267
15424W        W80244   8.211  31.474  12.041
15425W        W80245  41.250  28.453  11.079
15426W        W80246  29.156  19.988  13.610
15427W        W80247  15.695  22.821  11.614
15428W        W80248  21.620  12.615   2.150
15429W        W80249   9.629  18.564  14.288
15430W        W80250   7.840  40.854   1.167
15431W        W80251  13.211  28.400   5.010
15432W        W80252  31.926  14.591   1.498
15433W        W80253  37.117  29.365  11.683
15434W        W80254  41.871   8.195  12.494
15435W        W80255  16.168   2.476  12.924
15436W        W80256  31.079  33.157  14.091
15437W        W80257  30.308  28.227   0.841
15438W        W80258  26.568  25.121  12.403
15439W        W80259  33.246  34.793  12.487
15440W        W80260  20.548  18.489  12.130
15441W        W80261  32.340  30.666  11.202
15442W        W80262  17.269   2.179  11.319
15443W        W80263  21.979   0.935  14.353
15444W        W80264   9.602   7.561   0.662
15445W        W80265  29.432  33.608  13.812
15446W        W80266  13.791  17.883  11.264
15447W        W80267  12.182   6.048  14.365
15448W        W80268  33.606   4.393   4.813
15449W        W80269  13.182  23.578  10.662
15450W        W80270  36.010  29.640  11.140
15451W        W80271  12.360  18.577   2.857
15452W        W80272   8.612  13.244   0.478
15453W        W80273  24.035  26.537  12.857
15454W        W80274  28.706  31.621  12.172
15455W        W80275   7.671  44.100  14.826
15456W        W80276  40.383  10.053  14.359
15457W        W80277   9.944   6.310  11.897
15458W        W80278  27.578  17.624   4.984
15459W        W80279   0.323  12.461   3.301
15460W        W80280  34.431  34.069   0.839
15461W        W80281   5.391   3.759   3.535
15462W        W80282  39.992   3.173  11.195
15463W        W80283  22.454  11.807   0.440
15464W        W80284  39.036  13.813   0.853
15465W        W80285  13.704  20.279  13.487
15466W        W80286  27.236   9.190   2.760
15467W        W80287  14.193  42.293   0.322
15468W        W80288  32.293  13.903  11.410
15469W        W80289   6.889  26.654   3.786
15470W        W80290  36.403   8.572   4.930
15471W        W80291  38.492  14.784   2.373
15472W        W80292   2.023   7.344  14.314
15473W        W80293  27.913  43.416  12.595
15474W        W80294  33.946  17.428   5.042
15475W        W80295  37.597   1.890   4.571
15476W        W80296  23.987  28.202   2.792
15477W        W80297  10.279   2.452   0.323
15478W        W80298  41.782   9.904  13.920
15479W        W80299  20.097   2.600  14.779
15480W        W80300   0.715   4.216  12.062
15481W        W80301   8.122   1.982  13.542
15482W        W80302  31.015  17.464   4.852
15483W        W80303   6.241  15.857  13.532
15484W        W80304  20.484  26.642   1.233
15485W        W80305  38.511  22.572  14.445
15486W        W80306  28.122   8.379   4.885
15487W        W80307   3.637  23.465  11.246
15488W        W80308  23.312   6.334   1.930
15489W        W80309  39.626  33.458  11.070
15490W        W80310  20.787  34.153   1.359
15491W        W80311  25.829  16.517  14.312
15492W        W80312  40.833  32.829  12.102
15493W        W80313   8.680  39.931  14.911
15494W        W80314  40.768   8.183   9.472
15495W        W80315  18.188  44.523  12.566
15496W        W80316  37.595  41.899   1.892
15497W        W80317  26.753  38.429   0.555
15498W        W80318  32.473  32.550  12.359
15499W        W80319  40.583  10.088   2.282
15500W        W80320  16.089  25.921  12.582
15501W        W80321   7.041  15.134  14.782
15502W        W80322   7.384  14.633   1.095
15503W        W80323  21.618  28.006  11.138
15504W        W80324   1.949  11.426   1.748
15505W        W80325  14.318  37.578  10.626
15506W        W80326   0.761  16.547  10.603
15507W        W80327  10.036  32.643  12.330
15508W        W80328  18.083   8.351  13.059
15509W        W80329   4.552  20.473   2.192
15510W        W80330   3.980  32.419   1.094
15511W        W80331  36.750  40.815  11.098
15512W        W80332   2.472  14.212   2.131
15513W        W80333  10.183  40.855  11.640
15514W        W80334  30.481   7.758  14.831
15515W        W80335  16.342  29.193  14.498
15516W        W80336  39.654  29.438  13.630
15517W        W80337  29.640  23.020   2.651
15518W        W80338  44.063  14.195   4.057
15519W        W80339  36.519  17.643   1.512
15520W        W80340  27.032  36.342  11.125
15521W        W80341  44.019  41.313  12.920
15522W        W80342  30.014  35.651  14.392
15523W        W80343  35.053  40.437  12.349
15524W        W80344  41.190   4.455   3.575
15525W        W80345  22.743  39.295   3.199
15526W        W80346   9.366  37.223  12.963
15527W        W80347   9.847  19.325  13.334
15528W        W80348  19.317   1.701   0.871
15529W        W80349  39.983  16.326   4.036
15530W        W80350  41.943   0.940  11.605
15531W        W80351  21.053   2.599   0.918
15532W        W80352   9.111  39.450  14.339
15533W        W80353   7.344   3.762   4.909
15534W        W80354  43.893   9.174   2.956
15535W        W80355  28.206   9.064   2.347
15536W        W80356  24.018  22.698   1.017
15537W        W80357  13.946  18.820   3.713
15538W        W80358  42.047  28.433   2.558
15539W        W80359  26.607  14.242  11.902
15540W        W80360   5.718  22.751   0.517
15541W        W80361  12.590   2.250  12.832
15542W        W80362  23.437  22.698  12.897
15543W        W80363   9.434  40.720  14.931
15544W        W80364  11.234  29.049   1.639
15545W        W80365  15.999  25.636  10.887
15546W        W80366  14.237  12.834   0.798
15547W        W80367  13.552  35.399   3.135
15548W        W80368  28.642   1.888   3.870
15549W        W80369   8.885  40.541  10.398
15550W        W80370  10.276  14.187   5.201
15551W        W80371   7.742  31.853  14.984
15552W        W80372   8.407  31.175   4.889
15553W        W80373  40.679  18.147   5.236
15554W        W80374   0.686  40.752  12.900
15555W        W80375  26.533  15.283   4.453
15556W        W80376   0.809  37.346   1.426
15557W        W80377   6.369   1.776   1.295
15558W        W80378   1.484  12.702  11.176
15559W        W80379   2.200   2.838  11.942
15560W        W80380  13.629  18.240  13.850
15561W        W80381   1.278  14.613   3.913
15562W        W80382   4.182  29.434   1.402
15563W        W80383  44.996  13.566  13.836
15564W        W80384   7.740  14.643  10.999
15565W        W80385  20.225  17.119  13.842
15566W        W80386   0.376  11.647  14.002
15567W        W80387   2.221  23.736  12.622
15568W        W80388  38.905  10.582  14.734
15569W        W80389  16.555   2.897  11.208
15570W        W80390  14.120  24.739   4.715
15571W        W80391  42.176  40.589   0.997
15572W        W80392   7.861  21.306   2.703
15573W        W80393  31.645  27.230   0.837
15574W        W80394   0.046  41.576  14.053
15575W        W80395  13.671   8.424  14.921
15576W        W80396  29.560  44.055  14.824
15577W        W80397   8.116  39.955  13.579
15578W        W80398   0.408  28.562   4.882
15579W        W80399   0.515  27.565   1.332
15580W        W80400   7.751  14.502  13.011
15581W        W80401   4.846  31.117   0.764
15582W        W80402  35.361  36.834   1.510
15583W        W80403   0.396  17.571   0.601
15584W        W80404  27.567  21.019   4.652
15585W        W80405  44.923  40.141  12.976
15586W        W80406  27.570  15.530  13.396
15587W        W80407  28.566  15.511  10.975
15588W        W80408  39.217  23.546   2.806
15589W        W80409  24.399  24.496  14.991
15590W        W80410  37.308   4.599   1.765
15591W        W80411  42.865  24.236  13.446
15592W        W80412  30.099   9.692   4.630
15593W        W80413  36.879  32.694   0.956
15594W        W80414  38.062  39.703  11.658
15595W        W80415  18.593  44.587  12.890
15596W        W80416  39.273  20.292   0.279
15597W        W80417   5.206   5.158   0.387
15598W        W80418  38.137  19.739  13.331
15599W        W80419   0.210  32.598  10.651
15600W        W80420  28.697  24.735   3.234
15601W        W80421  31.074  16.105  11.253
15602W        W80422  20.703   0.572  13.537
15603W        W80423  16.008  12.882   0.847
15604W        W80424   1.831   3.391   2.643
15605W        W80425  43.813  43.534   3.922
15606W        W80426  23.436  18.960  11.994
15607W        W80427  41.492  27.144   0.754
15608W        W80428  39.304   4.372  11.232
15609W        W80429  33.407   9.722  11.605
15610W        W80430  37.515   7.167   0.014
15611W        W80431  19.243  32.518  11.183
15612W        W80432  41.344  13.633  11.584
15613W        W80433  22.245  23.525  10.634
15614W        W80434  37.269   7.535  12.142
15615W        W80435  28.883   0.756   1.323
15616W        W80436  41.845   3.901   2.945
15617W        W80437  29.448   3.490  13.477
15618W        W80438  15.173  34.747  12.068
15619W        W80439  27.174  25.900  11.386
15620W        W80440  42.264  27.156   2.694
15621W        W80441  35.369   2.371   4.186
15622W        W80442  16.193  36.103  12.046
15623W        W80443   9.239  37.547   2.305
15624W        W80444  17.864  13.784   0.290
15625W        W80445  13.217  23.080   1.947
15626W        W80446  43.303  44.468   1.492
15627W        W80447   4.781  11.082   4.168
15628W        W80448  35.416  19.120  14.258
15629W        W80449  28.734  32.632  14.360
15630W        W80450  15.896  13.334   0.014
15631W        W80451   3.286  26.202   4.110
15632W        W80452  29.538  23.200   3.703
15633W        W80453   5.915  23.823   4.946
15634W        W80454  40.100  18.594  14.325
15635W        W80455  23.750  14.571   4.055
15636W        W80456  39.364  40.371   2.718
15637W        W80457  33.986  15.643  14.949
15638W        W80458  16.389  36.273  14.848
15639W        W80459   0.028   9.190  11.137
15640W        W80460  29.002  41.318   2.191
15641W        W80461   6.608  44.414  10.668
15642W        W80462  13.251   7.214   3.575
15643W        W80463  14.703  42.458   2.237
15644W        W80464  40.423  36.463   4.312
15645W        W80465  32.450  27.791   2.574
15646W        W80466  25.738   7.746   2.275
15647W        W80467  27.620  44.007  12.343
15648W        W80468   8.327  34.503  13.161
15649W        W80469  19.259  43.894  12.095
15650W        W80470  15.739  44.288  13.112
15651W        W80471  39.240  32.874   3.358
15652W        W80472  34.940   2.220  11.634
15653W        W80473  35.517  30.063   0.045
15654W        W80474  28.185  44.851   2.555
15655W        W80475  30.745  23.522   4.587
15656W        W80476  24.241  42.429   3.144
15657W        W80477  42.238  22.043   4.120
15658W        W80478  17.386  29.994  10.744
15659W        W80479  20.199  37.391   2.636
15660W        W80480  37.416  19.348  11.594
15661W        W80481  19.565  24.456  12.074
15662W        W80482  26.717  14.731  12.135
15663W        W80483  20.803  13.772   1.287
15664W        W80484  15.135   1.355  13.631
15665W        W80485  10.935  43.490   4.797
15666W        W80486  34.450  20.274   1.073
15667W        W80487  20.866  13.305   3.905
15668W        W80488  36.356  25.229  14.812
15669W        W80489  17.271  13.258  12.658
15670W        W80490   0.976   0.744  13.840
15671W        W80491  17.156   7.828  12.513
15672W        W80492  26.516  23.599   1.027
15673W        W80493  28.136   6.671   3.452
15674W        W80494  16.088  40.446   0.291
15675W        W80495  25.006  44.942   2.778
15676W        W80496  29.674   4.682   1.792
15677W        W80497   1.353  39.128  11.081
15678W        W80498  13.554  29.873   0.708
15679W        W80499  32.955  40.486   4.727
15680W        W80500  18.076  25.164   0.365
15681W        W80501  12.776  28.042  13.520
15682W        W80502  29.565  16.781  12.669
15683W        W80503  26.298  34.438  13.903
15684W        W80504  10.130  14.186   3.382
15685W        W80505  39.746  30.071  14.928
15686W        W80506  10.323  43.373  11.474
15687W        W80507   6.777  26.025   2.451
15688W        W80508  13.152  13.022   4.613
15689W        W80509  14.855  31.070  13.932
15690W        W80510  13.308  16.842  12.997
15691W        W80511  33.567  33.124   2.675
15692W        W80512   0.005  30.115   2.144
15693W        W80513   0.457   6.604  12.946
15694W        W80514  43.452  24.491   1.884
15695W        W80515  41.227  31.862  14.099
15696W        W80516   7.694  15.393  10.738
15697W        W80517  30.479  39.956  13.519
15698W        W80518   7.198  42.854   2.282
15699W        W80519  12.854  34.869  12.867
15700W        W80520  11.414  14.782  12.869
15701W        W80521   4.594   8.784   3.668
15702W        W80522  30.968   0.945  13.930
15703W        W80523  14.108   9.639  11.137
15704W        W80524   6.981  34.395  11.954
15705W        W80525   6.253  24.390   3.278
15706W        W80526  19.596   0.988   1.726
15707W        W80527   2.818  10.308   0.677
15708W        W80528   6.305  43.937  14.555
15709W        W80529  41.913   4.135   2.463
15710W        W80530  36.103  23.461   0.513
15711W        W80531  28.568  28.957  13.838
15712W        W80532  23.752  25.009   3.891
15713W        W80533  32.462  39.247   4.233
15714W        W80534   1.952  14.569   3.149
15715W        W80535   4.062  14.013  10.392
15716W        W80536  24.673  26.015  12.381
15717W        W80537  23.393  40.797   3.185
15718W        W80538  15.843  32.500  14.806
15719W        W80539  29.022  25.070   4.577
15720W        W80540  33.936  38.389   3.204
15721W        W80541  43.512  27.020   3.298
15722W        W80542  28.534  40.743  14.944
15723W        W80543   2.459  25.127  12.926
15724W        W80544  32.183  11.831   4.153
15725W        W80545   5.338  18.894   1.824
15726W        W80546  18.597   3.985  11.105
15727W        W80547  23.457  33.130  13.372
15728W        W80548  21.363   9.915   9.893
15729W        W80549  29.133  13.499  12.966
15730W        W80550  17.062   6.914   4.624
15731W        W80551  15.054  39.947   1.243
15732W        W80552  25.614   1.573  11.680
15733W        W80553  21.291   7.747   1.774
15734W        W80554   7.634  21.143   3.174
15735W        W80555  33.803  38.441  12.579
15736W        W80556   1.653  24.569  14.882
15737W        W80557  11.408  15.120  14.480
15738W        W80558  41.832  25.287   4.403
15739W        W80559   4.755  34.014  11.733
15740W        W80560  26.597  17.026  14.207
15741W        W80561  36.538   5.390   0.875
15742W        W80562  27.491  30.149  10.550
15743W        W80563  22.213  15.279   4.615
15744W        W80564   4.810   5.163  11.068
15745W        W80565   9.547  12.113  13.014
15746W        W80566  11.980  23.066  13.017
15747W        W80567   8.920  27.016  14.288
15748W        W80568  36.071  31.548   0.742
15749W        W80569   9.922  42.834  10.640
15750W        W80570  41.713   0.119  13.440
15751W        W80571   8.551  15.508   4.160
15752W        W80572  43.236   0.403   2.365
15753W        W80573  12.433   0.896  12.864
15754W        W80574  17.809  23.667  11.132
15755W        W80575  27.662   8.709  14.580
15756W        W80576  22.968   5.149  14.939
15757W        W80577  13.610  39.823  11.514
15758W        W80578  19.225  14.546  11.895
15759W        W80579  20.501  33.295   1.543
15760W        W80580   7.187  12.446   4.587
15761W        W80581  23.447  31.385  13.799
15762W        W80582  22.894  21.850  12.430
15763W        W80583   4.640  33.833  10.873
15764W        W80584  42.940  11.661   1.871
15765W        W80585   9.911  15.284  12.590
15766W        W80586  21.647  12.651  11.050
15767W        W80587  36.560  11.859   3.605
15768W        W80588  29.126  10.924   3.756
15769W        W80589  44.346  44.757   2.359
15770W        W80590  36.939  44.177   2.204
15771W        W80591  42.024  42.510  14.995
15772W        W80592   9.138  38.868  11.185
15773W        W80593   6.872  42.701  14.341
15774W        W80594  43.476   9.350   2.011
15775W        W80595   6.758  39.772   1.327
15776W        W80596  13.471  34.009  13.784
15777W        W80597  28.131  39.569   2.477
15778W        W80598  38.892  16.310   2.187
15779W        W80599  44.879  15.616  11.928
15780W        W80600  27.648  13.643   2.313
15781W        W80601  19.544  42.300   0.976
15782W        W80602  37.087  21.212  13.485
15783W        W80603  10.115  28.701  14.815
15784W        W80604  39.210   7.640  12.479
15785W        W80605  30.389  17.850  12.524
15786W        W80606  29.587  36.828   3.699
15787W        W80607  11.634  35.880  10.754
15788W        W80608  33.983  30.647  14.448
15789W        W80609   3.122  25.602  10.176
15790W        W80610  18.780   9.649  12.006
15791W        W80611  22.931  21.630  13.821
15792W        W80612  38.870  23.431   3.322
15793W        W80613  30.384  11.229  11.613
15794W        W80614  38.824  40.918  14.812
15795W        W80615   7.347  26.727   4.047
15796W        W80616  14.533  11.831   4.897
15797W        W80617   0.383  27.104   1.573
15798W        W80618   5.198  29.105   3.372
15799W        W80619  33.158   7.872   0.760
15800W        W80620  19.234  42.139   3.765
15801W        W80621  10.902  35.035   4.160
15802W        W80622  10.639  44.033  10.441
15803W        W80623  35.311  27.967  13.029
15804W        W80624  22.075   2.971  14.070
15805W        W80625  17.758   0.282   4.823
15806W        W80626  30.212  34.000  10.680
15807W        W80627   3.330   6.617  11.600
15808W        W80628  38.667   2.523  14.235
15809W        W80629  12.025  42.237   3.560
15810W        W80630   4.893  21.788  11.552
15811W        W80631   0.423  39.442   4.158
15812W        W80632   2.189  38.334   0.082
15813W        W80633  15.841  13.135   1.383
15814W        W80634  32.761  37.373   0.835
15815W        W80635  15.366  26.469   4.094
15816W        W80636   8.382  11.835   3.806
15817W        W80637  14.835   6.638  13.962
15818W        W80638   3.143  15.103  12.237
15819W        W80639   7.414  38.361  14.732
15820W        W80640  43.525  43.519   4.474
15821W        W80641  22.023  12.289  10.884
15822W        W80642  39.215  23.155   2.107
15823W        W80643  30.453   3.716  13.341
15824W        W80644  31.057  14.347  12.952
15825W        W80645  20.283  39.899  13.016
15826W        W80646  36.354  39.983  10.958
15827W        W80647   8.001  20.280  11.987
15828W        W80648  36.411  22.306  14.966
15829W        W80649  43.565  21.244  12.006
15830W        W80650  25.211  15.748  13.264
15831W        W80651  11.809  21.059   5.006
15832W        W80652   9.637   7.800  13.146
15833W        W80653   1.098  16.764  13.164
15834W        W80654  10.124  29.528  12.021
15835W        W80655  26.886  28.250  12.043
15836W        W80656  14.368  44.640  12.380
15837W        W80657  34.972   8.396  13.399
15838W        W80658  43.600  38.011   0.791
15839W        W80659  39.562  10.577  12.524
15840W        W80660  19.550   6.178   0.754
15841W        W80661  16.622  25.519   4.855
15842W        W80662   8.923  38.643  14.809
15843W        W80663  27.553  15.641   4.422
15844W        W80664  37.780  33.373  11.258
15845W        W80665  36.102  27.387  11.667
15846W        W80666  40.122  22.047  11.345
15847W        W80667  37.957  44.067  13.526
15848W        W80668   9.313  37.304   0.752
15849W        W80669  34.023   3.440   3.746
15850W        W80670  17.744  16.209  11.553
15851W        W80671  44.628  15.094   1.495
15852W        W80672   5.755  22.773  14.990
15853W        W80673   2.634   4.683  13.546
15854W        W80674  36.833  42.982   5.008
15855W        W80675  27.539  15.784   3.560
15856W        W80676  31.641   6.440  14.323
15857W        W80677  20.350   5.503   9.783
15858W        W80678  14.884   3.012   3.457
15859W        W80679  20.196  41.356   1.478
15860W        W80680   5.687  19.355  13.884
15861W        W80681  23.277  42.319   2.388
15862W        W80682  10.615  18.730  12.537
15863W        W80683  16.084  19.066   2.866
15864W        W80684  14.560  20.307   2.176
15865W        W80685  28.551  40.421   3.103
15866W        W80686   4.412   5.401  12.393
15867W        W80687  41.895   5.318  13.587
15868W        W80688  28.159  31.084   2.516
15869W        W80689  21.525  24.687  10.599
15870W        W80690  34.381  14.724   5.320
15871W        W80691   3.374  33.513   4.125
15872W        W80692  36.969  37.054  11.710
15873W        W80693   2.711  20.048   3.735
15874W        W80694  33.425  44.913   4.594
15875W        W80695  38.342  13.622  12.886
15876W        W80696  29.468  36.663  13.033
15877W        W80697  26.601  19.656  13.311
15878W        W80698  32.533  31.388  13.550
15879W        W80699  27.921  24.126   4.661
15880W        W80700  42.943   9.177  14.295
15881W        W80701  27.508   0.851   0.407
15882W        W80702   8.136  32.604   3.177
15883W        W80703  26.088  35.825   2.367
15884W        W80704  12.770  25.885  13.026
15885W        W80705   6.201  33.440  13.545
15886W        W80706  28.935  27.469   3.210
15887W        W80707  17.382   2.924  13.937
15888W        W80708   2.874  43.578  12.658
15889W        W80709  10.068  14.100   4.336
15890W        W80710  36.718  13.343  11.140
15891W        W80711  12.393  33.582  11.060
15892W        W80712  39.834  23.773  11.177
15893W        W80713  22.432  21.542  14.748
15894W        W80714  11.105  15.663   2.407
15895W        W80715  10.361  32.326  13.068
15896W        W80716  16.874   9.475   5.102
15897W        W80717  42.733   0.760  11.978
15898W        W80718  35.748  31.466  12.555
15899W        W80719  34.112  26.004  11.983
15900W        W80720  43.731  11.221  12.009
15901W        W80721  24.189   9.842   9.998
15902W        W80722  31.375  19.715   3.264
15903W        W80723  11.164  22.737   4.535
15904W        W80724  12.338  18.127  12.016
15905W        W80725  39.014  36.499  11.886
15906W        W80726  34.418  13.927   3.794
15907W        W80727  31.101  10.549  13.044
15908W        W80728   3.660   8.329   1.923
15909W        W80729   4.553  18.014  12.636
15910W        W80730  21.653  38.582   2.661
15911W        W80731  38.538  33.056  10.273
15912W        W80732  41.544   2.583   4.679
15913W        W80733  18.057  21.724  13.971
15914W        W80734  40.703   8.902  12.948
15915W        W80735  13.543  15.594  13.436
15916W        W80736  24.732  41.763  14.277
15917W        W80737  13.160   9.263   1.845
15918W        W80738  43.343  38.224   1.236
15919W        W80739  29.010  22.471  13.206
15920W        W80740  36.894  25.104   0.700
15921W        W80741  26.204   1.943  12.465
15922W        W80742  10.373  44.545  13.020
15923W        W80743  34.570  18.132  14.104
15924W        W80744   3.943  14.650  12.204
15925W        W80745  41.461  10.401   0.967
15926W        W80746  43.406  27.209   3.806
15927W        W80747  25.964  38.752  13.431
15928W        W80748  16.042  12.578  14.345
15929W        W80749   7.670  29.074  13.401
15930W        W80750  29.718  23.700  10.276
15931W        W80751  27.858  12.746  13.726
15932W        W80752  12.644  30.856  14.945
15933W        W80753  13.620  15.124   3.861
15934W        W80754  33.574  25.649  11.706
15935W        W80755  41.912   1.416   2.826
15936W        W80756  44.945  43.778  13.407
15937W        W80757  14.709  35.631   4.176
15938W        W80758  21.416  33.056   4.950
15939W        W80759   2.186  24.086   3.179
15940W        W80760  18.714  20.988   3.595
15941W        W80761   7.662  42.559  13.705
15942W        W80762   9.026  16.653  14.622
15943W        W80763  36.919  14.802  14.249
15944W        W80764   0.861  27.722  13.985
15945W        W80765  29.793  32.111  11.632
15946W        W80766  41.800  14.822   1.391
15947W        W80767  20.631  18.294   0.015
15948W        W80768  12.373   8.084   4.712
15949W        W80769  29.169  32.481  13.594
15950W        W80770   0.015   4.337   4.768
15951W        W80771  13.684  31.883   1.126
15952W        W80772  14.280  32.563  13.415
15953W        W80773  42.422  41.793  14.365
15954W        W80774  15.453  33.990   0.335
15955W        W80775  38.934  40.740  13.520
15956W        W80776  20.542  39.321  12.437
15957W        W80777  19.028  43.991   1.262
15958W        W80778  30.849   4.776   4.049
15959W        W80779  34.607  15.677   3.070
15960W        W80780  11.584  14.255   3.217
15961W        W80781  22.029  31.794   1.258
15962W        W80782  19.234  30.151  13.919
15963W        W80783  21.055   0.847   3.818
15964W        W80784   9.234   2.686  10.488
15965W        W80785  13.399   4.055  11.994
15966W        W80786  15.556  21.272   0.391
15967W        W80787  38.385   4.569   0.972
15968W        W80788   8.147  12.767   3.026
15969W        W80789  39.008  38.576   2.383
15970W        W80790  25.663  41.776   3.681
15971W        W80791   5.727  21.444   4.064
15972W        W80792  35.894   9.796   3.099
15973W        W80793  43.236  22.042   3.812
15974W        W80794  13.831  14.116  12.415
15975W        W80795  23.528  23.938   3.058
15976W        W80796  19.899   9.461  12.563
15977W        W80797  11.868  12.777  14.904
15978W        W80798  17.474   5.503   0.350
15979W        W80799  42.839  26.838  13.357
15980W        W80800  18.468  34.006  12.942
15981W        W80801  16.582  30.462  14.040
15982W        W80802  24.508   7.781  12.894
15983W        W80803  32.156  22.016   0.807
15984W        W80804  18.935   9.779  12.859
15985W        W80805   6.996  42.930  13.887
15986W        W80806   7.335  31.399   3.584
15987W        W80807   1.468   4.793   3.663
15988W        W80808  31.935  15.858   4.930
15989W        W80809  12.027  37.671  11.505
15990W        W80810  44.778  32.280   0.356
15991W        W80811  29.601  38.036   0.511
15992W        W80812   2.438  19.139  14.293
15993W        W80813  20.801  30.874  13.545
15994W        W80814  44.324  12.776  13.033
15995W        W80815  18.634  34.630  14.403
15996W        W80816  36.898  40.033   2.801
15997W        W80817  39.528  26.917   1.370
15998W        W80818   4.972  11.630  12.452
15999W        W80819   4.373   4.132  13.459
16000W        W80820  12.858  28.887  14.696
16001W        W80821  36.835  32.394  12.440
16002W        W80822  11.739  12.629   1.877
16003W        W80823  34.341   7.720  11.596
16004W        W80824   8.490  11.705  13.859
16005W        W80825  29.621  35.209   1.454
16006W        W80826   7.422  35.202   3.236
16007W        W80827  36.337   9.951   1.801
16008W        W80828  30.205  20.948   1.916
16009W        W80829  22.320  41.112  12.492
16010W        W80830  35.152  39.284  10.835
16011W        W80831  18.867  37.282   2.303
16012W        W80832  36.850   0.822   3.909
16013W        W80833   2.541  34.056  14.285
16014W        W80834  14.221  21.144  13.230
16015W        W80835   8.781   8.426   0.421
16016W        W80836  26.988   0.299   2.195
16017W        W80837  12.224  13.358   3.319
16018W        W80838  42.474  12.674   3.230
16019W        W80839  11.120  43.664  14.048
16020W        W80840   4.508  31.820   0.685
16021W        W80841  36.527  29.467  14.929
16022W        W80842  41.088   3.415  14.724
16023W        W80843  21.082  38.726  10.754
16024W        W80844  16.319  38.068  14.360
16025W        W80845   7.177   6.762  13.552
16026W        W80846  44.028  20.663  14.449
16027W        W80847   0.588   1.576   1.774
16028W        W80848   3.926  23.574  12.954
16029W        W80849   3.268   7.376  13.857
16030W        W80850   9.872   4.656   2.448
16031W        W80851  26.486  28.711  12.439
16032W        W80852  40.957  16.577   1.469
16033W        W80853  37.044  25.437   0.320
16034W        W80854  17.622  12.168   0.384
16035W        W80855  27.937  36.893   0.956
16036W        W80856   2.291  32.956  12.341
16037W        W80857   2.958   8.660  14.462
16038W        W80858  26.560  32.526   4.655
16039W        W80859  21.190  24.216   2.707
16040W        W80860  23.651  21.780  12.563
16041W        W80861   4.771  11.505   5.075
16042W        W80862  33.468   4.611  10.753
16043W        W80863  25.732   2.422  13.917
16044W        W80864  27.671   1.353   3.651
16045W        W80865  31.017  34.919  13.469
16046W        W80866  34.580  13.169   1.339
16047W        W80867  37.865  25.493  12.867
16048W        W80868  33.576  23.058  10.183
16049W        W80869  33.117   9.355   0.745
16050W        W80870  24.122  38.262  14.641
16051W        W80871  36.854  32.487   2.887
16052W        W80872  29.263  36.154  11.997
16053W        W80873  37.054  20.709  12.440
16054W        W80874  41.789  36.829  12.075
16055W        W80875  15.374  37.567  12.570
16056W        W80876  23.702  20.714  10.988
16057W        W80877   5.526  43.541   4.558
16058W        W80878  19.332  21.008   3.151
16059W        W80879   2.931  41.084   3.645
16060W        W80880   0.501  32.512  11.619
16061W        W80881  16.632  24.809  11.646
16062W        W80882   3.773  24.693  11.557
16063W        W80883   2.039  28.168  13.355
16064W        W80884  31.044  14.336  10.811
16065W        W80885   9.158  28.871  10.904
16066W        W80886  36.086  13.803  10.718
16067W        W80887  35.597   6.837   3.610
16068W        W80888  23.597  40.585   3.604
16069W        W80889  25.245  17.227   2.295
16070W        W80890  19.514  10.941  11.746
16071W        W80891  25.545  15.209   1.364
16072W        W80892  12.760   5.257   2.420
16073W        W80893  14.474  27.136   2.188
16074W        W80894   9.396  43.513   3.712
16075W        W80895  15.289  12.122  13.887
16076W        W80896  23.061  23.105   4.719
16077W        W80897  29.699  36.951  13.963
16078W        W80898  23.739  26.047   3.129
16079W        W80899  39.464  14.505  11.568
16080W        W80900  37.171  26.666  13.843
16081W        W80901   6.014   3.212  14.524
16082W        W80902  16.585  16.822  10.707
16083W        W80903  14.400   9.621   2.171
16084W        W80904  41.084  10.367  10.252
16085W        W80905  38.296  35.921   0.410
16086W        W80906  43.348  34.113   4.321
16087W        W80907  13.799  22.101  12.099
16088W        W80908   2.898  13.076  10.772
16089W        W80909  15.764  14.148   3.341
16090W        W80910  23.509  30.460   3.679
16091W        W80911  37.041  17.005  10.347
16092W        W80912  22.546  26.127   0.278
16093W        W80913  42.506  14.187   0.315
16094W        W80914   7.846  11.081  11.638
16095W        W80915   7.854  11.912  12.052
16096W        W80916  34.057  43.695   0.196
16097W        W80917  36.584  43.222  10.981
16098W        W80918   9.042  20.413   0.205
16099W        W80919  25.275   9.867   1.771
16100W        W80920  25.032  44.390  11.918
16101W        W80921  31.880  43.715   2.673
16102W        W80922  44.767  35.636   0.666
16103W        W80923  11.418   4.389   4.790
16104W        W80924  25.695  30.555   1.998
16105W        W80925  25.984  34.605   0.894
16106W        W80926  35.240  23.162   1.625
16107W        W80927  44.949   0.783  11.446
16108W        W80928   1.368  12.000  12.201
16109W        W80929  30.505  31.610   4.205
16110W        W80930  14.564   4.457   0.246
16111W        W80931  28.195  39.761   4.120
16112W        W80932  14.761  42.316   2.739
16113W        W80933  15.278  16.331  14.815
16114W        W80934  13.159  31.136   3.344
16115W        W80935   9.312  16.550   0.848
16116W        W80936   0.003  10.993   2.052
16117W        W80937  26.125   4.693   0.875
16118W        W80938  39.842   2.520  12.564
16119W        W80939  23.814  39.511  11.704
16120W        W80940  17.687  37.003  12.467
16121W        W80941  27.611  40.114   1.223
16122W        W80942  30.817  28.090  14.540
16123W        W80943  39.186  33.535  12.460
16124W        W80944  31.279  44.482   4.866
16125W        W80945   7.409  21.745  14.755
16126W        W80946   1.697   8.828  14.149
16127W        W80947   7.805  43.300   1.737
16128W        W80948   0.413   1.773  13.840
16129W        W80949   9.071   2.557   1.971
16130W        W80950   9.694  31.329  13.102
16131W        W80951  44.067  23.458   2.649
16132W        W80952  10.593  40.871   4.621
16133W        W80953   5.034  10.314   1.896
16134W        W80954   1.113  10.090   3.461
16135W        W80955  14.130   0.341   3.648
16136W        W80956   3.958  42.909   1.495
16137W        W80957  35.046   2.939  14.906
16138W        W80958  35.939  38.967   4.147
16139W        W80959   0.867  13.047  10.093
16140W        W80960   9.161  14.094   2.449
16141W        W80961  18.529  43.688  11.715
16142W        W80962  37.043  26.584   3.374
16143W        W80963   8.008  21.978  11.793
16144W        W80964   9.316  39.975  13.036
16145W        W80965  42.038  32.943  10.695
16146W        W80966  22.766  25.927  11.104
16147W        W80967  35.611  42.418   2.607
16148W        W80968  16.083   1.961   2.815
16149W        W80969  11.381  21.006  11.953
16150W        W80970   2.968  25.203   2.730
16151W        W80971  36.870   4.018  13.381
16152W        W80972   4.466   7.338   0.213
16153W        W80973  18.558  24.063   0.319
16154W        W80974  18.492   4.519   1.760
16155W        W80975  34.877   5.892   2.638
16156W        W80976  15.909  40.682  11.708
16157W        W80977   5.271  12.184   3.800
16158W        W80978  26.751  26.122  11.642
16159W        W80979  15.869  37.007   1.400
16160W        W80980  41.078  10.590   2.901
16161W        W80981  42.952  38.030  14.280
16162W        W80982   8.153  35.364   4.715
16163W        W80983  34.480  39.553   3.242
16164W        W80984  20.680  36.254   4.598
16165W        W80985  26.514   1.372  12.910
16166W        W80986  42.792  17.630   2.293
16167W        W80987  42.113   1.755   5.029
16168W        W80988  11.147  25.158   0.018
16169W        W80989  22.946  18.835  12.075
16170W        W80990  27.693  38.974   3.809
16171W        W80991  28.146  28.438  13.323
16172W        W80992   2.437  24.022   2.731
16173W        W80993  14.160  15.287   2.727
16174W        W80994   9.818   6.272   1.488
16175W        W80995  10.581  38.487   0.251
16176W        W80996  29.065  39.980   4.149
16177W        W80997   1.916  20.042   0.453
16178W        W80998  41.399   3.702  10.775
16179W        W80999   9.607  32.161  14.450
16180W        W81000   0.302  14.122   0.338
16181W        W81001  38.010  33.012  13.036
16182W        W81002  31.839  11.877   3.290
16183W        W81003   4.964   6.331  13.283
16184W        W81004  19.344   2.378   2.303
16185W        W81005  22.901   4.184  11.905
16186W        W81006  10.265  16.065   1.021
16187W        W81007   6.331  34.350   3.494
16188W        W81008   9.424   0.778   0.262
16189W        W81009  28.690  19.079   0.848
16190W        W81010  21.939  14.281  10.868
16191W        W81011   2.266  11.738   3.005
16192W        W81012  11.358  40.078   2.409
16193W        W81013  35.116  17.721  13.339
16194W        W81014  12.809  36.671  14.575
16195W        W81015  13.189  29.405   0.398
16196W        W81016  10.450  27.618   2.285
16197W        W81017  20.513  32.336  10.557
16198W        W81018  42.835  32.490   0.448
16199W        W81019  33.937  41.276   1.941
16200W        W81020  15.329  44.752  13.383
16201W        W81021  40.135  19.595  13.287
16202W        W81022  30.361   6.924  14.042
16203W        W81023  20.150  43.715   0.671
16204W        W81024  37.485  10.595   0.433
16205W        W81025  39.555  20.016  13.772
16206W        W81026  19.283  16.470  10.619
16207W        W81027   8.177   5.819  13.915
16208W        W81028  20.345  19.469  13.409
16209W        W81029  21.465  31.386   3.731
16210W        W81030  43.744  43.963  14.332
16211W        W81031  15.765  11.523  12.441
16212W        W81032  43.757   7.844   0.278
16213W        W81033  26.012  39.602   0.531
16214W        W81034  39.025   3.277   4.570
16215W        W81035   0.406   1.324   2.201
16216W        W81036  28.613  31.484   3.625
16217W        W81037  23.030   5.809   0.738
16218W        W81038  28.650  12.504   2.987
16219W        W81039  38.864  22.602   4.422
16220W        W81040   7.199  20.595   2.618
16221W        W81041  19.618   2.601  11.664
16222W        W81042  27.480  25.274   1.201
16223W        W81043  36.339  18.067   2.831
16224W        W81044  21.859  27.631   2.191
16225W        W81045  16.597  40.304   1.241
16226W        W81046  36.520   2.961   0.978
16227W        W81047  31.190  18.230  13.461
16228W        W81048  21.385  12.789   3.139
16229W        W81049  12.478  40.616   1.245
16230W        W81050  29.500   7.642  10.666
16231W        W81051  31.599   6.857  12.193
16232W        W81052  31.145  33.102   0.640
16233W        W81053  37.065  32.351  11.523
16234W        W81054   7.523  37.581  13.974
16235W        W81055  37.125  42.999   3.102
16236W        W81056  40.483   0.210   1.169
16237W        W81057  25.249   5.798  13.762
16238W        W81058  30.621  30.097   3.667
16239W        W81059   3.859  13.695   4.697
16240W        W81060  43.965  24.258  10.590
16241W        W81061  14.796  14.662  14.423
16242W        W81062   7.264  33.373  13.051
16243W        W81063  16.020  44.486  14.865
16244W        W81064  31.020  36.028  12.942
16245W        W81065  28.166  24.091   0.355
16246W        W81066   1.357  37.879   3.572
16247W        W81067  29.477  15.073  12.574
16248W        W81068   0.840  42.026   4.997
16249W        W81069  14.693  23.529   4.727
16250W        W81070   8.089  17.198  11.582
16251W        W81071  41.656  29.785   4.089
16252W        W81072   4.472  38.391   4.128
16253W        W81073   7.281  23.606  13.463
16254W        W81074  17.447  36.258   4.967
16255W        W81075  19.284  19.277  11.856
16256W        W81076  40.144  14.095  12.128
16257W        W81077  28.058  26.755   1.627
16258W        W81078  40.116  40.245  10.665
16259W        W81079  18.590  41.866   3.016
16260W        W81080  17.358   6.861   2.064
16261W        W81081  44.526   3.140  11.152
16262W        W81082  25.249  34.574  13.515
16263W        W81083   6.120  23.817   4.079
16264W        W81084  39.521  29.938  13.535
16265W        W81085  29.998   7.249   1.774
16266W        W81086   0.437   6.189   2.624
16267W        W81087  27.966  23.486   4.902
16268W        W81088  13.793  42.294  10.738
16269W        W81089  22.647  27.550  11.711
16270W        W81090   7.720  15.610   0.541
16271W        W81091   2.712   3.489  14.035
16272W        W81092   4.251  35.644  11.023
16273W        W81093  35.437  37.251   2.903
16274W        W81094  42.835  37.572   2.775
16275W        W81095  27.978  10.269  13.606
16276W        W81096   3.921  14.636   0.480
16277W        W81097   5.185  17.657  11.929
16278W        W81098   3.992   3.549   1.918
16279W        W81099  16.898  33.916   2.740
16280W        W81100  28.579   2.962   0.532
16281W        W81101  28.113   7.973   4.570
16282W        W81102  38.719  12.538   3.621
16283W        W81103  15.226  16.286  13.024
16284W        W81104  25.480  34.389   4.674
16285W        W81105  17.636  15.214  11.508
16286W        W81106  33.189  12.706  14.477
16287W        W81107  24.777   0.002  10.526
16288W        W81108  21.047   1.708  12.061
16289W        W81109  14.703  44.906   2.097
16290W        W81110  25.607  38.929  10.636
16291W        W81111  26.979   8.952   3.600
16292W        W81112   2.043  43.476  13.739
16293W        W81113  37.118  39.598  11.462
16294W        W81114  24.145   9.749  13.849
16295W        W81115  24.200  39.029   3.238
16296W        W81116  33.488  21.759  12.601
16297W        W81117  28.997  44.400  10.571
16298W        W81118  40.478  44.931  11.181
16299W        W81119   2.995  36.598  11.276
16300W        W81120  15.578  43.994   2.171
16301W        W81121  21.093  34.820  14.366
16302W        W81122  38.058  35.371   1.320
16303W        W81123  29.983  11.991  11.396
16304W        W81124  39.443  42.104  11.934
16305W        W81125   3.433  22.124  10.753
16306W        W81126   3.402  44.483  11.723
16307W        W81127  35.589  28.093  13.914
16308W        W81128  12.134  17.941   4.931
16309W        W81129  13.631   9.480  13.876
16310W        W81130  13.064  25.526  11.554
16311W        W81131  17.058  24.879  11.967
16312W        W81132  29.110  28.694   0.477
16313W        W81133  33.838  27.196   3.675
16314W        W81134   1.823   8.689   4.592
16315W        W81135  26.085  16.723  13.456
16316W        W81136  37.223  29.903   2.926
16317W        W81137  11.094  24.700  13.034
16318W        W81138   5.371  33.661   4.696
16319W        W81139  40.417   8.150  14.248
16320W        W81140   6.326   4.448  14.421
16321W        W81141  23.103   7.850  12.318
16322W        W81142  43.806  20.218  10.711
16323W        W81143  17.659   8.878  14.888
16324W        W81144   5.236  34.581   0.306
16325W        W81145  44.941  27.871  14.026
16326W        W81146   7.027   9.986   0.490
16327W        W81147   0.866  34.469  11.935
16328W        W81148  34.613  35.812   3.294
16329W        W81149  32.443  22.592   4.959
16330W        W81150  20.416  25.069   3.245
16331W        W81151   6.750  37.963   3.338
16332W        W81152   7.829  35.140  12.692
16333W        W81153   2.896  37.728   4.481
16334W        W81154  22.354  25.973   2.586
16335W        W81155  40.774  41.345  11.645
16336W        W81156   5.926  22.459   1.860
16337W        W81157  14.632  16.218  11.152
16338W        W81158  11.759  37.158   1.496
16339W        W81159  13.761  26.612   3.887
16340W        W81160  29.900  18.160   2.917
16341W        W81161  43.760  30.110   2.288
16342W        W81162  18.538  16.656  11.062
16343W        W81163   6.808  16.559   2.669
16344W        W81164  44.158   0.227  14.138
16345W        W81165  15.528  28.989   5.403
16346W        W81166  44.804  44.355   4.868
16347W        W81167  16.829  37.974  12.559
16348W        W81168  18.196   1.189  10.634
16349W        W81169  29.490  33.707  12.013
16350W        W81170  30.487  23.216   4.252
16351W        W81171  17.059  29.591  10.830
16352W        W81172   9.235  42.687  13.476
16353W        W81173  16.683  34.139  10.625
16354W        W81174  15.850  41.143  11.549
16355W        W81175  40.086  11.843   3.848
16356W        W81176  28.041   6.056  12.518
16357W        W81177  19.374   2.475  11.233
16358W        W81178  35.560  39.597   2.180
16359W        W81179  22.010  28.778  13.367
16360W        W81180  15.201  32.165  14.403
16361W        W81181   2.953  34.033  10.407
16362W        W81182   8.197  22.704   2.534
16363W        W81183   1.992  21.114  11.893
16364W        W81184  23.965  20.176   2.220
16365W        W81185   2.871  12.656  14.746
16366W        W81186  30.651  29.479  10.759
16367W        W81187   1.879   1.272   4.621
16368W        W81188   8.853  21.802  11.056
16369W        W81189   1.482  17.119   2.885
16370W        W81190   0.638  44.179   0.047
16371W        W81191  37.316  41.413  12.853
16372W        W81192  43.144  26.607   0.426
16373W        W81193  13.424  40.002   2.397
16374W        W81194  29.374  38.257   4.102
16375W        W81195  37.505   8.142   5.609
16376W        W81196   8.196  10.896  10.567
16377W        W81197  23.314  10.028   9.824
16378W        W81198  42.354  36.094   2.342
16379W        W81199   2.278  23.705  10.268
16380W        W81200   7.778   6.487  14.556
16381W        W81201  43.753  21.837  14.875
16382W        W81202  19.408   5.414   1.848
16383W        W81203  17.547  13.771  14.403
16384W        W81204  12.144   0.277   2.670
16385W        W81205  41.645  43.275  13.667
16386W        W81206  22.075   5.402  11.310
16387W        W81207  42.322   2.652  13.558
16388W        W81208  22.365  13.785   3.198
16389W        W81209   3.774  44.793   3.618
16390W        W81210  38.738  16.515   4.161
16391W        W81211  31.852  24.087   2.583
16392W        W81212  20.710   4.437  14.039
16393W        W81213  12.086  12.902   0.939
16394W        W81214  32.405  20.366   4.044
16395W        W81215  28.729  31.960   3.731
16396W        W81216  30.046   6.766   2.958
16397W        W81217  21.793  24.718  12.856
16398W        W81218  36.426  41.046   2.422
16399W        W81219   4.040  38.283  13.765
16400W        W81220  15.394  35.970   5.402
16401W        W81221  12.197   4.221  12.280
16402W        W81222  19.086   4.274   3.264
16403W        W81223  32.113  28.474  10.142
16404W        W81224  12.664  35.382  12.841
16405W        W81225  34.337  30.149  12.560
16406W        W81226  24.064  28.833  14.379
16407W        W81227  36.987  20.790   0.618
16408W        W81228  12.462   1.517   0.442
16409W        W81229  12.200  30.405   1.752
16410W        W81230  30.892   1.797   2.264
16411W        W81231   9.942   7.384   2.723
16412W        W81232  27.130  44.727   0.007
16413W        W81233  20.011   0.268  12.469
16414W        W81234   0.179   1.581   2.925
16415W        W81235  21.214  23.694   2.738
16416W        W81236  19.434  24.111   0.978
16417W        W81237  38.324  20.109  10.829
16418W        W81238  19.616  43.759  10.288
16419W        W81239  34.891   6.761  14.021
16420W        W81240  15.185  22.615  14.356
16421W        W81241  22.050  34.982   1.068
16422W        W81242  12.802  21.605   0.891
16423W        W81243  31.078  25.331  11.982
16424W        W81244  34.552  44.205  12.280
16425W        W81245   0.929  28.617   3.627
16426W        W81246  22.789   5.264   1.265
16427W        W81247  28.441  15.348  14.923
16428W        W81248  33.849  23.469   1.726
16429W        W81249   2.468  33.178  10.581
16430W        W81250  14.233  36.855   4.539
16431W        W81251  38.601   0.705   3.510
16432W        W81252   8.895  24.259   2.286
16433W        W81253  41.462   2.868  12.850
16434W        W81254  36.074  33.300   1.538
16435W        W81255  30.186   9.583  11.284
16436W        W81256   3.407  26.157   1.649
16437W        W81257   9.849  25.461  10.391
16438W        W81258  37.453  44.063  11.197
16439W        W81259   0.406   9.302  10.777
16440W        W81260  10.397  30.114   1.786
16441W        W81261  21.620  15.008   2.681
16442W        W81262   2.961  19.035  11.192
16443W        W81263  12.759  26.468  14.904
16444W        W81264  17.731   2.540  14.861
16445W        W81265  30.690  41.564   4.348
16446W        W81266  35.859  30.315  13.459
16447W        W81267  38.854  24.498  14.951
16448W        W81268  25.963  15.510   4.703
16449W        W81269  32.208  10.833  14.046
16450W        W81270  21.533  28.081   0.806
16451W        W81271  13.379  11.271  14.043
16452W        W81272  17.035  32.080  11.034
16453W        W81273  44.326   3.716  13.377
16454W        W81274  12.531  15.397   0.187
16455W        W81275  25.764  15.917   4.983
16456W        W81276   6.196  29.154  14.708
16457W        W81277  32.942  44.564   0.816
16458W        W81278  11.037  29.071   5.381
16459W        W81279   5.798   6.251   1.838
16460W        W81280  29.090  14.896   1.237
16461W        W81281  14.318  36.048   1.541
16462W        W81282   0.266   8.190   1.160
16463W        W81283  42.244  35.321   1.971
16464W        W81284   4.666   4.287   3.285
16465W        W81285  15.394  13.289  11.956
16466W        W81286  35.080   7.688  14.697
16467W        W81287  19.212  23.568   3.136
16468W        W81288  33.999  20.730   2.623
16469W        W81289  38.805  17.339   3.054
16470W        W81290  27.035   4.294   4.656
16471W        W81291  18.037  25.122   2.297
16472W        W81292  38.922  23.093   1.634
16473W        W81293  43.813   7.170   0.860
16474W        W81294  44.472  35.734  11.430
16475W        W81295  35.490  37.464  14.057
16476W        W81296  26.302  10.776  12.997
16477W        W81297  19.820  32.304  12.140
16478W        W81298  14.496  28.038  13.956
16479W        W81299   1.971  37.410   2.048
16480W        W81300  38.551  38.452  11.402
16481W        W81301  38.763  23.722  12.596
16482W        W81302   0.446  27.602  12.378
16483W        W81303  25.605  12.313  13.465
16484W        W81304  19.500  36.911   1.860
16485W        W81305   4.720   5.792  12.950
16486W        W81306   1.493  44.854   4.061
16487W        W81307  33.597  36.783  13.380
16488W        W81308  10.058  44.512   1.976
16489W        W81309   7.738   1.471  12.166
16490W        W81310   1.722   0.347  11.612
16491W        W81311  19.045  37.559   0.773
16492W        W81312   2.810  44.233  13.008
16493W        W81313   9.201  16.636   3.096
16494W        W81314  26.578  23.918  12.457
16495W        W81315  23.491  24.328   4.336
16496W        W81316   9.141  42.335   3.993
16497W        W81317  18.419  28.864   3.594
16498W        W81318  16.020  11.204  13.341
16499W        W81319   7.999   9.192  14.073
16500W        W81320  23.270  40.536   4.264
16501W        W81321  40.292   9.853   9.879
16502W        W81322  22.091  25.576   0.662
16503W        W81323  12.354  27.464   1.692
16504W        W81324  27.371  29.102   0.414
16505W        W81325  20.714  28.060  11.472
16506W        W81326  14.354   4.942   1.929
16507W        W81327  28.207  11.237   4.429
16508W        W81328  32.993  25.141   0.009
16509W        W81329   7.580  39.136   1.400
16510W        W81330  41.466  25.932   0.831
16511W        W81331  13.594  24.980  12.452
16512W        W81332   2.471  15.560   4.789
16513W        W81333  30.883  37.809  13.469
16514W        W81334  29.965  31.007   1.748
16515W        W81335   0.666  25.738   1.442
16516W        W81336  36.001  29.975   1.264
16517W        W81337  17.079  36.011   1.276
16518W        W81338  28.175  26.029   2.357
16519W        W81339  43.610  11.727  12.103
16520W        W81340  27.419  10.224   2.853
16521W        W81341  12.357  42.806  11.942
16522W        W81342  21.702  21.945  10.304
16523W        W81343  35.964  29.518  12.441
16524W        W81344  14.857  19.257  11.653
16525W        W81345  13.094  43.774  10.629
16526W        W81346  40.519  28.432   3.014
16527W        W81347   1.911  10.310  10.659
16528W        W81348  39.584   4.387  11.657
16529W        W81349   1.812   7.753  14.566
16530W        W81350   1.279  11.852   3.827
16531W        W81351  37.149  25.457  12.447
16532W        W81352   1.932  15.298   1.579
16533W        W81353  34.173  20.705   3.502
16534W        W81354   0.472  14.704   2.893
16535W        W81355  13.146  41.080   2.331
16536W        W81356  44.831  44.518  12.531
16537W        W81357  21.584  16.282   1.304
16538W        W81358  24.222   4.396   2.637
16539W        W81359   3.472  36.992  12.559
16540W        W81360   3.694  38.800   2.386
16541W        W81361  15.308  15.105  12.006
16542W        W81362  13.207  41.599   2.320
16543W        W81363  18.512  22.665   0.309
16544W        W81364  13.614   6.665   3.893
16545W        W81365   8.776  31.232  10.978
16546W        W81366  35.901  35.115  12.936
16547W        W81367   2.494  28.122  12.530
16548W        W81368   9.572   8.420  14.880
16549W        W81369  15.040  23.630   0.791
16550W        W81370   1.250  29.136  11.162
16551W        W81371  42.374   4.424   2.325
16552W        W81372   9.580  27.481  12.217
16553W        W81373  25.213  43.254   4.493
16554W        W81374   8.284  20.287   3.777
16555W        W81375  24.761   6.916  10.735
16556W        W81376  27.498  40.492  11.668
16557W        W81377  28.062  32.900  12.381
16558W        W81378  37.832  10.881  11.727
16559W        W81379   3.698  17.331   3.141
16560W        W81380   9.336  41.930   0.475
16561W        W81381   2.343  13.747  11.609
16562W        W81382   3.122  33.118   2.655
16563W        W81383   6.372  10.032   3.020
16564W        W81384  14.416  44.141   0.747
16565W        W81385  20.792  42.271  11.847
16566W        W81386  31.596  33.986  12.401
16567W        W81387   7.763  18.322  11.026
16568W        W81388  31.399  31.667  12.133
16569W        W81389  13.876   4.971  12.984
16570W        W81390  12.861  22.764   0.406
16571W        W81391  43.479   1.564   4.806
16572W        W81392  35.271  21.143  11.050
16573W        W81393  30.518  28.770  13.091
16574W        W81394  30.674   6.967   0.302
16575W        W81395  15.312  16.589  13.492
16576W        W81396  35.358  11.327   4.948
16577W        W81397  27.492  23.472   1.004
16578W        W81398  24.581   3.261   0.433
16579W        W81399  15.242  37.288   9.563
16580W        W81400  34.194  13.319   3.369
16581W        W81401   8.342   5.147   0.355
16582W        W81402  37.868  16.025   3.081
16583W        W81403  13.214  15.011  14.984
16584W        W81404  29.964   1.564  10.831
16585W        W81405  22.082  42.795   2.791
16586W        W81406  33.220  12.781  13.490
16587W        W81407  31.517  25.511  14.452
16588W        W81408  15.891   5.683   4.028
16589W        W81409   9.737  21.983  13.560
16590W        W81410  15.572  23.685   4.318
16591W        W81411  38.402  24.255  11.047
16592W        W81412   6.270   6.688  13.924
16593W        W81413  42.386  40.330  12.994
16594W        W81414  30.078  32.534   2.380
16595W        W81415  26.694  25.090  13.928
16596W        W81416  36.683  38.796   3.160
16597W        W81417  23.584  23.980   0.896
16598W        W81418  39.524  34.874  14.304
16599W        W81419  10.218   1.302   0.036
16600W        W81420  43.434   9.082   3.326
16601W        W81421  12.173   2.867   3.716
16602W        W81422  29.911  38.715   0.360
16603W        W81423  39.139  30.179   2.967
16604W        W81424  24.241  26.848   4.643
16605W        W81425   6.353  27.012   1.125
16606W        W81426   5.367  26.132   1.864
16607W        W81427  41.213   0.008   0.862
16608W        W81428  18.962  20.695   4.042
16609W        W81429   3.823   7.687   3.239
16610W        W81430  41.360   4.973  11.530
16611W        W81431  20.318  17.512  11.726
16612W        W81432  40.414  38.315   1.693
16613W        W81433   4.420  10.789   2.758
16614W        W81434  37.341  24.143   2.690
16615W        W81435  25.629  16.161  13.954
16616W        W81436  12.674  37.446   1.834
16617W        W81437   0.034  43.091   1.174
16618W        W81438  20.265  19.272   3.621
16619W        W81439   7.529  31.514  12.386
16620W        W81440  31.338  20.315   4.224
16621W        W81441  40.633   2.180  12.869
16622W        W81442  16.528  40.061   3.354
16623W        W81443   1.066  19.948   0.462
16624W        W81444  33.446  29.712  11.660
16625W        W81445  20.266  19.724   3.309
16626W        W81446  13.598  26.542  13.777
16627W        W81447   0.499  29.481  13.025
16628W        W81448  22.561  38.750   4.103
16629W        W81449  25.220  23.694   0.885
16630W        W81450   3.666  14.159   3.551
16631W        W81451  12.249  42.253  10.706
16632W        W81452  25.041  12.336  12.925
16633W        W81453  35.330  24.576   2.842
16634W        W81454   8.236  39.477  10.778
16635W        W81455  35.114   7.129  13.734
16636W        W81456  17.729  30.674  11.932
16637W        W81457  43.515  10.408  10.843
16638W        W81458  16.089  15.785  11.922
16639W        W81459  10.724  22.195  10.797
16640W        W81460  18.144  26.123  14.381
16641W        W81461  29.182  22.522   2.201
16642W        W81462  15.561   7.740   2.106
16643W        W81463   2.904  23.963   2.391
16644W        W81464  34.164   0.413  14.820
16645W        W81465  29.951  33.362   4.870
16646W        W81466   4.507   5.718   2.185
16647W        W81467  30.377   3.459   1.341
16648W        W81468  10.349   7.472   2.402
16649W        W81469   8.357  12.813  14.454
16650W        W81470  38.779  40.508   1.435
16651W        W81471   9.145  15.334  11.422
16652W        W81472  22.609  27.114   3.143
16653W        W81473  21.131   7.965  12.567
16654W        W81474   3.334  24.145   3.784
16655W        W81475  18.128   9.737  13.826
16656W        W81476   8.428  20.306   0.429
16657W        W81477  10.754  10.743  10.904
16658W        W81478  38.554  17.119   4.532
16659W        W81479  27.230  18.718   3.274
16660W        W81480  10.282  12.372  12.681
16661W        W81481   1.570  44.280  12.244
16662W        W81482   0.940  33.039  12.153
16663W        W81483  18.907  10.276   4.467
16664W        W81484   0.894  22.549  13.436
16665W        W81485  23.735  24.156   2.112
16666W        W81486  20.699  25.697   0.014
16667W        W81487  42.347  40.989  14.961
16668W        W81488  22.174  39.580   0.971
16669W        W81489  17.859  19.129   4.935
16670W        W81490  43.963  20.797   1.895
16671W        W81491  35.632  35.469  13.950
16672W        W81492  41.146  34.695  13.912
16673W        W81493   0.597  14.773   0.821
16674W        W81494  11.085  18.522  12.446
16675W        W81495  20.140  26.483  14.905
16676W        W81496  32.479  27.488  12.011
16677W        W81497  22.076  44.048   4.646
16678W        W81498  36.334  18.605   3.690
16679W        W81499  42.643  38.316   1.034
16680W        W81500   0.910  37.960  11.200
16681W        W81501  31.492   5.745  14.866
16682W        W81502  27.646  40.155  13.132
16683W        W81503  35.451  39.741  10.701
16684W        W81504  19.702  10.697  12.570
16685W        W81505  25.095  43.851  11.743
16686W        W81506  36.557  21.728  14.095
16687W        W81507   9.888   4.313   3.396
16688W        W81508   2.466   3.425  11.963
16689W        W81509  35.401  32.803  14.853
16690W        W81510  13.607  11.699   3.683
16691W        W81511  32.366  21.111   2.316
16692W        W81512  14.679  20.142  14.485
16693W        W81513   9.801  37.393   0.549
16694W        W81514   6.949  42.570   3.661
16695W        W81515  44.493   3.256   3.008
16696W        W81516  18.339  12.241  10.286
16697W        W81517  23.212  43.741  11.172
16698W        W81518  11.049  28.681  12.814
16699W        W81519   7.289  35.938   0.335
16700W        W81520  27.767  16.382   2.913
16701W        W81521  15.150  31.210  13.372
16702W        W81522  34.488  31.289   4.529
16703W        W81523   5.515  21.149   4.580
16704W        W81524  41.365  29.263   3.409
16705W        W81525   9.633  39.250  13.472
16706W        W81526   8.123  16.356  11.878
16707W        W81527  37.126   2.948  11.975
16708W        W81528  22.542  15.126  15.000
16709W        W81529   1.844   8.613   2.382
16710W        W81530  24.878  14.972  12.976
16711W        W81531   1.765   4.879   3.224
16712W        W81532  13.183  17.660   3.253
16713W        W81533   6.744  19.626  13.379
16714W        W81534  41.842  33.629   1.278
16715W        W81535   9.510  12.300   4.205
16716W        W81536   7.262   7.223  13.348
16717W        W81537  15.624  37.351  11.425
16718W        W81538  34.190  43.516  11.961
16719W        W81539  39.729  13.099  12.005
16720W        W81540  32.944  18.034   4.100
16721W        W81541  44.280  25.137   1.991
16722W        W81542   4.469  28.578  13.596
16723W        W81543   2.992  10.422  13.479
16724W        W81544  29.898  11.105  14.839
16725W        W81545  27.857  38.112  14.256
16726W        W81546  41.508  20.168  11.356
16727W        W81547  23.578  14.308  11.204
16728W        W81548  34.931  12.864   2.261
16729W        W81549  42.000  11.294  13.965
16730W        W81550  44.936  19.532   3.752
16731W        W81551  22.701  30.154  11.140
16732W        W81552  12.253  21.334   3.307
16733W        W81553  13.610  10.227  12.334
16734W        W81554  25.965  36.251   3.090
16735W        W81555  15.257  27.703  14.012
16736W        W81556  15.034  19.747  11.513
16737W        W81557  18.874  29.723  14.809
16738W        W81558  41.641  23.580   1.737
16739W        W81559  27.111  29.517  12.620
16740W        W81560  30.988  40.532   5.062
16741W        W81561  27.412  31.149  11.198
16742W        W81562  33.529   9.078   3.222
16743W        W81563   2.449  19.596   3.604
16744W        W81564  37.430   8.396  12.009
16745W        W81565   2.865   4.986  14.522
16746W        W81566   4.423  22.456  11.972
16747W        W81567  27.676   0.838   1.822
16748W        W81568  27.822  38.543  10.909
16749W        W81569  32.108   5.315   3.279
16750W        W81570  20.854  27.064  12.604
16751W        W81571  31.939   1.904  12.927
16752W        W81572   0.298  32.276   1.510
16753W        W81573   8.829  37.272  11.601
16754W        W81574   3.674  18.552  12.463
16755W        W81575  34.169  32.175   4.102
16756W        W81576   8.184  43.518  11.581
16757W        W81577   0.265   2.156   1.808
16758W        W81578  34.211  16.326  10.870
16759W        W81579  36.055  11.886   3.390
16760W        W81580  37.569  14.566  13.460
16761W        W81581  42.484  15.125   0.496
16762W        W81582  18.734  29.594   1.349
16763W        W81583   5.347  39.856   4.411
16764W        W81584  10.261   2.970  10.975
16765W        W81585  43.912  38.501   2.818
16766W        W81586   6.855  44.960   2.457
16767W        W81587  18.484  44.101   0.476
16768W        W81588  15.292  40.266  12.959
16769W        W81589  32.543   5.370  11.981
16770W        W81590  35.300  22.662  11.168
16771W        W81591  25.991  37.757   2.146
16772W        W81592  28.527  24.998  14.400
16773W        W81593  19.711  18.481   1.427
16774W        W81594  39.391  31.355  12.100
16775W        W81595  24.812  21.342   1.637
16776W        W81596  33.924  11.187   2.926
16777W        W81597  12.257  12.438   0.031
16778W        W81598  17.869  37.389   2.137
16779W        W81599  27.256  29.702   1.806
16780W        W81600  37.002  34.508   3.371
16781W        W81601  13.146  18.117   2.382
16782W        W81602   5.335  41.094  12.083
16783W        W81603  34.902   8.772  12.258
16784W        W81604   4.406  19.248  13.531
16785W        W81605   1.530  17.303  11.553
16786W        W81606  39.090   2.834   2.452
16787W        W81607  38.033   6.230   0.510
16788W        W81608  16.108  34.158  13.223
16789W        W81609  25.958  29.108   0.235
16790W        W81610  10.761  12.800  10.661
16791W        W81611  15.179   8.664   0.458
16792W        W81612  13.709  11.718   2.823
16793W        W81613  41.313  15.773  11.531
16794W        W81614  34.072  11.717   0.351
16795W        W81615  22.574  19.066   3.293
16796W        W81616  34.023  32.938  14.789
16797W        W81617  22.688   5.000  10.391
16798W        W81618  25.261  44.888  10.735
16799W        W81619  38.797  26.974   1.989
16800W        W81620   0.377  26.523   3.831
16801W        W81621  20.743  32.951   3.067
16802W        W81622  22.199   9.680  14.747
16803W        W81623  13.910   2.820   3.175
16804W        W81624  35.181  32.969  10.989
16805W        W81625  42.374   3.935  14.849
16806W        W81626  22.748  24.638  12.485
16807W        W81627  40.654  12.917   0.240
16808W        W81628  20.565  10.183   3.283
16809W        W81629  36.358  25.673   5.035
16810W        W81630  23.037  34.851  12.569
16811W        W81631  15.509  12.210  10.754
16812W        W81632  17.585  28.052   4.305
16813W        W81633  17.306  42.753   1.307
16814W        W81634  44.774  19.480   2.701
16815W        W81635  26.623   1.152   3.237
16816W        W81636  27.725   1.370   2.092
16817W        W81637  34.131  27.404   3.290
16818W        W81638  22.138  11.871   3.192
16819W        W81639  28.628  26.447  10.989
16820W        W81640   8.808  16.764  10.594
16821W        W81641  20.046   6.711  10.951
16822W        W81642  39.210  21.267   5.189
16823W        W81643   8.136  37.905   3.273
16824W        W81644   6.274  32.510   4.597
16825W        W81645  25.062  17.316  14.853
16826W        W81646   9.698  41.146   4.208
16827W        W81647   1.375  13.839  12.650
16828W        W81648  25.121  38.037  10.911
16829W        W81649  36.442  25.977   1.256
16830W        W81650  21.062  19.209   5.229
16831W        W81651   0.436   2.706   4.911
16832W        W81652   9.293  25.166   2.205
16833W        W81653  13.764  22.192  10.628
16834W        W81654   0.298   9.832   4.566
16835W        W81655  20.128  17.314  10.354
16836W        W81656   7.908  22.669  12.554
16837W        W81657  34.446   2.942   3.302
16838W        W81658  29.823  36.002  12.540
16839W        W81659  43.949  40.799   1.855
16840W        W81660  34.462   8.301  13.656
16841W        W81661  30.177  11.845   4.139
16842W        W81662  32.437  39.081  10.333
16843W        W81663  44.706  20.525  10.587
16844W        W81664  27.915   8.888   4.253
16845W        W81665   7.177  16.185  12.514
16846W        W81666  36.580  12.011  11.152
16847W        W81667  26.212   0.497   2.788
16848W        W81668  12.738   4.618   3.140
16849W        W81669   5.991  38.441  12.649
16850W        W81670  13.627  27.188   1.806
16851W        W81671  36.564  29.037   3.254
16852W        W81672  21.025  18.792   3.563
16853W        W81673   8.643   0.731  13.466
16854W        W81674  12.716  43.828  14.895
16855W        W81675  17.560  24.619   4.524
16856W        W81676  30.654  44.842  13.434
16857W        W81677  38.781   4.497   3.275
16858W        W81678  38.964  28.964  14.278
16859W        W81679  21.018   7.959   0.052
16860W        W81680  33.689  39.348   0.753
16861W        W81681   9.280  42.577  12.546
16862W        W81682  44.158  17.432  13.535
16863W        W81683  40.655  37.332   5.218
16864W        W81684   9.329  30.611   0.470
16865W        W81685  27.599  12.692  14.977
16866W        W81686  34.670   4.377   0.863
16867W        W81687  30.895   3.754  10.183
16868W        W81688  40.234  38.972   1.971
16869W        W81689  31.963  20.554  11.050
16870W        W81690   8.090  27.065  14.516
16871W        W81691  21.192  27.205  12.007
16872W        W81692  41.253   0.336  13.419
16873W        W81693   0.842  43.241  10.646
16874W        W81694  13.249  17.070   3.360
16875W        W81695  44.478  34.554   5.064
16876W        W81696  20.231  25.738   2.155
16877W        W81697  32.118  34.448   0.025
16878W        W81698  15.780  32.099   1.852
16879W        W81699  31.625  40.247  13.891
16880W        W81700  22.642  27.976  14.758
16881W        W81701   6.791  28.140  13.389
16882W        W81702  39.866  33.395   4.111
16883W        W81703  30.358  44.910  12.476
16884W        W81704  10.087  19.508   2.225
16885W        W81705  40.383  30.211   2.491
16886W        W81706  38.826   3.525   3.182
16887W        W81707  18.332  24.832  11.631
16888W        W81708  27.067  17.566   1.327
16889W        W81709  23.500  41.718  13.096
16890W        W81710   1.525  31.586  14.344
16891W        W81711  42.559  22.474   1.834
16892W        W81712  27.526   2.958   0.862
16893W        W81713   0.891  38.353  13.029
16894W        W81714  32.904   1.844   0.741
16895W        W81715  42.994  13.733  14.055
16896W        W81716  37.009  17.802  10.964
16897W        W81717  21.255  38.885  10.305
16898W        W81718   0.275  41.836   3.629
16899W        W81719  18.238   4.781   3.191
16900W        W81720  16.107  22.578  12.859
16901W        W81721   4.141  19.704   2.225
16902W        W81722   4.215  27.891   1.282
16903W        W81723  28.071  19.686   3.667
16904W        W81724  38.036  18.545  11.553
16905W        W81725  34.130  13.942   5.080
16906W        W81726  30.982  10.310   1.113
16907W        W81727  15.825   5.329   3.658
16908W        W81728  32.637  21.617   1.297
16909W        W81729  33.481  44.726  10.333
16910W        W81730   9.357  12.863   2.365
16911W        W81731   7.358  11.495  11.033
16912W        W81732  17.559  24.469   2.047
16913W        W81733  31.917   6.659   4.212
16914W        W81734   4.163   9.933  14.897
16915W        W81735   1.895  17.086   0.214
16916W        W81736  10.174  22.437   0.247
16917W        W81737  29.181   0.659  12.519
16918W        W81738   3.204  42.774   2.204
16919W        W81739  17.356  30.477  12.460
16920W        W81740  41.198  42.009  11.436
16921W        W81741  19.017  10.187  11.676
16922W        W81742   2.179  19.205  10.733
16923W        W81743  14.203  39.129   3.522
16924W        W81744  10.806   4.834   3.133
16925W        W81745  29.604   8.871  13.280
16926W        W81746   4.481  18.117  10.761
16927W        W81747  29.003  19.645   2.686
16928W        W81748  34.465   8.852   2.279
16929W        W81749  31.950  31.194  11.486
16930W        W81750  15.831  38.694   0.503
16931W        W81751  34.975   4.266  10.435
16932W        W81752   3.790   6.593  14.875
16933W        W81753  25.412  12.796  13.872
16934W        W81754  38.791  37.908  10.658
16935W        W81755  31.881  32.610   2.714
16936W        W81756   5.406  19.454  13.451
16937W        W81757  21.553   9.568  13.384
16938W        W81758  43.241  43.937   3.190
16939W        W81759   8.880   9.457   0.384
16940W        W81760   3.123  44.267  14.833
16941W        W81761  14.400   0.827   5.114
16942W        W81762  20.693  35.417   4.350
16943W        W81763   1.135  20.977   4.924
16944W        W81764  26.698   7.237   3.579
16945W        W81765  25.068  24.225  11.195
16946W        W81766   3.784  31.215   0.402
16947W        W81767  21.694  41.762   2.818
16948W        W81768  11.028  12.731   4.785
16949W        W81769  36.160  36.320   0.289
16950W        W81770   0.060   0.929   3.100
16951W        W81771  24.188  30.768   0.789
16952W        W81772  28.149  41.955  12.364
16953W        W81773   8.787  25.629  10.619
16954W        W81774  32.428  33.389  12.021
16955W        W81775   6.875  12.320   3.315
16956W        W81776  42.860  14.794   3.554
16957W        W81777  32.678   4.722  12.533
16958W        W81778  29.121   2.201  10.752
16959W        W81779  15.778  12.546  12.221
16960W        W81780  40.605  43.231   1.798
16961W        W81781  10.724  29.400  12.127
16962W        W81782  13.877  13.271  12.056
16963W        W81783   2.087  23.616   2.182
16964W        W81784  33.883   6.642   0.046
16965W        W81785   9.050  24.635   4.578
16966W        W81786  21.204  42.301   3.138
16967W        W81787  12.874  42.397   1.771
16968W        W81788  43.822  37.274   0.062
16969W        W81789  15.210  26.980  12.842
16970W        W81790   3.002  36.381  10.777
16971W        W81791  13.825  41.550  14.881
16972W        W81792  16.129   4.958   2.850
16973W        W81793  25.544  34.099   3.702
16974W        W81794  30.007  30.912  13.363
16975W        W81795  18.530  26.303   1.905
16976W        W81796   9.708  17.464   0.622
16977W        W81797   5.782  26.107  13.148
16978W        W81798  44.305  23.472   2.163
16979W        W81799  10.090  43.060  11.085
16980W        W81800  37.649  34.929  13.006
16981W        W81801  10.768  20.142   2.246
16982W        W81802   0.557  28.297   2.537
16983W        W81803   8.713  31.417  11.959
16984W        W81804  19.541  24.918  10.589
16985W        W81805   5.265  31.665   3.595
16986W        W81806  11.347  34.515  12.089
16987W        W81807   3.022  40.544  13.123
16988W        W81808   3.848  39.514   0.785
16989W        W81809  18.204   1.768   4.112
16990W        W81810  18.652   2.301   0.828
16991W        W81811  43.483  25.415  10.729
16992W        W81812  18.140   2.516  11.050
16993W        W81813   8.436  25.667   2.868
16994W        W81814  15.726  35.476   4.536
16995W        W81815  12.699  10.435  13.516
16996W        W81816  28.505  43.788  14.486
16997W        W81817   0.852  18.461   5.209
16998W        W81818  31.977  30.001  13.556
16999W        W81819  11.339  14.064  11.589
17000W        W81820   2.166  26.777  11.066
17001W        W81821  21.224  15.844   0.739
17002W        W81822  22.841  31.390  11.408
17003W        W81823  36.459  41.388  11.623
17004W        W81824  13.880  14.179  11.521
17005W        W81825  33.857  44.096   5.003
17006W        W81826  36.112  17.611  10.708
17007W        W81827  43.875  18.431   0.824
17008W        W81828   5.151  36.447  13.507
17009W        W81829  22.776  44.813  11.832
17010W        W81830  28.528  14.790  14.325
17011W        W81831  44.946   3.774  14.849
17012W        W81832  35.072  15.509   2.344
17013W        W81833  24.005  31.990   4.171
17014W        W81834  30.870  16.696   3.322
17015W        W81835  14.124  30.265  12.939
17016W        W81836  44.837  29.544   1.862
17017W        W81837  20.115  29.021   4.693
17018W        W81838  13.420   1.854   4.115
17019W        W81839  37.844  42.467  12.889
17020W        W81840  17.304   2.909  14.833
17021W        W81841   9.848  44.240   1.292
17022W        W81842  14.394  38.152  13.042
17023W        W81843   2.436  14.789   3.242
17024W        W81844  39.292  10.687  12.069
17025W        W81845  19.580  18.699  10.658
17026W        W81846  25.506  34.902  13.818
17027W        W81847   1.868  30.083   3.312
17028W        W81848   1.872  38.728   1.840
17029W        W81849  19.249  16.569  12.326
17030W        W81850  43.414  32.909  11.600
17031W        W81851  27.603  13.993  14.744
17032W        W81852  14.749  17.156   3.707
17033W        W81853  43.931   6.939  11.255
17034W        W81854  44.972  29.481  13.028
17035W        W81855  32.942   2.899  13.542
17036W        W81856  18.985  33.292  13.307
17037W        W81857  21.312  24.925   9.690
17038W        W81858  14.039  40.927   4.549
17039W        W81859  43.727  43.141  14.994
17040W        W81860  23.794  27.508  12.683
17041W        W81861  31.010   2.202  14.857
17042W        W81862  38.710  11.421   1.326
17043W        W81863   1.420  20.237   2.308
17044W        W81864  37.533  21.127  12.121
17045W        W81865  28.700  30.294   3.022
17046W        W81866   1.545  15.776   3.866
17047W        W81867   1.355  23.905  10.631
17048W        W81868   1.428  30.355  12.394
17049W        W81869  16.919   9.862  14.313
17050W        W81870   3.159   0.052   0.824
17051W        W81871  21.239  22.754   5.166
17052W        W81872   3.761  38.160  14.170
17053W        W81873  22.905  36.134   4.909
17054W        W81874   8.257  19.765   5.124
17055W        W81875  22.736  39.335  13.480
17056W        W81876   9.668   4.885  13.151
17057W        W81877  27.942   4.410  11.065
17058W        W81878   8.081  10.318   3.721
17059W        W81879  34.503   7.859  12.908
17060W        W81880  23.740   4.392   2.471
17061W        W81881  25.860  44.242  13.684
17062W        W81882  19.786  33.039  13.512
17063W        W81883  24.726  33.997  12.360
17064W        W81884  23.443   8.902   0.360
17065W        W81885  33.339  42.977  12.620
17066W        W81886   0.961  33.707   2.191
17067W        W81887  36.085  21.006   0.469
17068W        W81888  35.845  28.555   3.930
17069W        W81889  20.051  14.523   3.327
17070W        W81890  42.918   2.354  13.366
17071W        W81891  20.522  23.052  13.028
17072W        W81892  37.599  10.111   4.016
17073W        W81893  18.676  14.281   4.353
17074W        W81894  15.657  18.554   1.687
17075W        W81895  16.842   3.545  14.962
17076W        W81896  41.856   3.886   1.549
17077W        W81897  20.561  37.301   2.271
17078W        W81898   6.834  32.133  14.920
17079W        W81899  16.672  18.801   3.387
17080W        W81900   4.989  39.491  10.715
17081W        W81901  14.112   1.774   4.987
17082W        W81902  33.471  40.586  11.578
17083W        W81903  43.390  41.686  14.104
17084W        W81904  26.981   4.225   3.244
17085W        W81905   0.018  30.960   2.678
17086W        W81906  17.728  29.204  11.135
17087W        W81907  14.732  19.535   1.743
17088W        W81908  22.205  32.294  14.949
17089W        W81909  42.324  31.549  11.677
17090W        W81910  15.258  28.509   4.065
17091W        W81911  22.774   6.198   3.599
17092W        W81912  43.958  37.083  10.921
17093W        W81913  26.863  19.202  13.894
17094W        W81914  28.478  35.072   0.780
17095W        W81915   1.633  16.260  13.927
17096W        W81916  10.605  32.603  11.451
17097W        W81917   8.432  31.931   2.938
17098W        W81918   6.625  36.961  10.648
17099W        W81919   2.984  37.973   1.327
17100W        W81920  16.378  26.036   0.720
17101W        W81921   0.869  37.987   3.718
17102W        W81922  26.742  13.098  13.859
17103W        W81923  23.665   8.778   2.785
17104W        W81924   3.876  42.351   0.356
17105W        W81925  14.198  34.139   3.692
17106W        W81926  41.638  12.693  13.466
17107W        W81927   6.142   1.289   1.339
17108W        W81928  43.835   5.468   4.584
17109W        W81929  26.564  22.494  12.004
17110W        W81930   0.203  16.937  11.006
17111W        W81931   6.413  18.589   4.047
17112W        W81932  17.764   9.578  14.163
17113W        W81933  32.022   1.728   4.435
17114W        W81934  12.211  38.458   3.719
17115W        W81935  32.247  44.920  10.717
17116W        W81936  18.451   9.389   2.297
17117W        W81937   8.967  32.789   1.419
17118W        W81938  39.787  30.508   1.418
17119W        W81939  44.533   8.287   3.289
17120W        W81940  18.030  14.401  13.974
17121W        W81941  35.922  39.662   0.373
17122W        W81942  41.712  42.418   0.459
17123W        W81943  36.939  18.021   3.297
17124W        W81944  31.673  37.056  13.727
17125W        W81945  32.022  35.820  11.998
17126W        W81946  32.507   4.420  12.911
17127W        W81947   7.264  40.559  14.348
17128W        W81948  42.895  34.597  12.892
17129W        W81949  29.146  36.371   0.823
17130W        W81950  12.610  11.477   0.917
17131W        W81951  44.737  39.965   0.684
17132W        W81952   7.710  14.158  12.109
17133W        W81953  10.859  11.276   2.843
17134W        W81954  35.869  27.829   0.218
17135W        W81955  39.753  25.432  13.490
17136W        W81956  18.120  14.124  13.090
17137W        W81957  11.929  32.141   4.353
17138W        W81958   4.998   8.679   5.108
17139W        W81959  11.564  43.446  11.967
17140W        W81960   6.788  30.111  10.699
17141W        W81961  32.595  33.759   4.549
17142W        W81962  39.755  28.475   4.293
17143W        W81963   9.763  24.276   4.204
17144W        W81964  31.614  12.237  12.029
17145W        W81965  31.510  42.751   2.308
17146W        W81966  38.929  16.568  12.434
17147W        W81967  43.712   6.375  12.442
17148W        W81968   0.296  35.550   1.856
17149W        W81969   6.202  21.134  10.667
17150W        W81970  19.112  22.546   2.889
17151W        W81971  21.549   5.649   3.358
17152W        W81972  17.241  44.807  10.592
17153W        W81973  32.676  26.956  14.957
17154W        W81974  35.304   1.436   0.913
17155W        W81975  34.343  27.460  11.096
17156W        W81976  35.364   2.312   1.044
17157W        W81977  14.038  19.846  11.625
17158W        W81978  31.305  17.352  10.712
17159W        W81979  32.314  20.846  13.557
17160W        W81980  42.047   8.345  11.175
17161W        W81981  43.454  10.915   2.677
17162W        W81982  23.218  11.573  14.995
17163W        W81983  31.363  39.397   3.413
17164W        W81984   9.756  21.006  13.880
17165W        W81985  18.092  11.824   4.376
17166W        W81986  24.583  24.025  14.029
17167W        W81987  22.488  27.686   3.623
17168W        W81988  25.054  25.582   1.373
17169W        W81989   2.859   7.934  13.501
17170W        W81990  14.069  44.880   3.922
17171W        W81991  30.066   2.750  13.421
17172W        W81992  10.687  37.310   0.207
17173W        W81993  43.244  22.815   0.351
17174W        W81994  18.521   9.368   3.684
17175W        W81995  31.019  20.679   2.120
17176W        W81996  23.254  14.228  11.775
17177W        W81997   5.351   4.077   1.543
17178W        W81998  44.744  38.995   2.794
17179W        W81999  11.556   1.470   0.185
17180W        W82000  23.316  13.702   3.253
17181W        W82001  15.975  11.892   1.291
17182W        W82002   0.557  14.157  13.389
17183W        W82003  36.330  34.965  14.835
17184W        W82004  40.831  26.240  11.557
17185W        W82005  16.030  16.627  14.057
17186W        W82006  25.093  38.997  10.578
17187W        W82007  16.177  28.217   4.350
17188W        W82008  27.652  13.398   0.456
17189W        W82009   4.218   8.402  12.334
17190W        W82010  21.127  35.716  14.777
17191W        W82011  42.363  11.152  10.779
17192W        W82012  22.746  22.628  10.686
17193W        W82013  32.159  37.618   1.700
17194W        W82014  17.110  12.905   0.240
17195W        W82015  22.558  39.040  13.894
17196W        W82016  26.040   0.009   2.740
17197W        W82017  16.419  40.791   3.820
17198W        W82018  22.983   5.721   3.607
17199W        W82019   6.346  21.320   1.321
17200W        W82020  11.852  27.679  11.557
17201W        W82021  34.021  11.327   2.454
17202W        W82022  29.508  36.021   1.836
17203W        W82023  30.200  10.321   2.760
17204W        W82024  19.767  12.736  11.496
17205W        W82025   7.156  13.956  12.483
17206W        W82026   9.514  32.047   1.740
17207W        W82027  20.101  12.263   2.370
17208W        W82028   1.867  16.160  14.886
17209W        W82029  30.541   8.715  14.825
17210W        W82030  29.164   7.330   4.677
17211W        W82031  14.675  44.957  12.018
17212W        W82032  33.362  23.707   1.801
17213W        W82033  18.768  17.835  13.557
17214W        W82034  16.735   3.459  12.650
17215W        W82035  19.564  16.067   2.722
17216W        W82036  24.225  28.263   3.227
17217W        W82037   9.879  39.477  11.904
17218W        W82038  13.412  38.993   0.391
17219W        W82039  41.518   3.301  11.640
17220W        W82040  41.609  41.559  14.460
17221W        W82041  26.140   5.246  14.663
17222W        W82042  24.774  15.567   4.044
17223W        W82043   2.970  34.873  11.976
17224W        W82044  30.652  26.025   3.263
17225W        W82045  22.662  29.518  14.602
17226W        W82046   9.269  37.009   1.716
17227W        W82047  39.478  38.870  14.494
17228W        W82048  41.894  18.631   2.374
17229W        W82049   8.518  12.813   4.661
17230W        W82050   2.194  29.562   0.331
17231W        W82051  40.228  23.198  11.606
17232W        W82052  41.725  30.500  13.909
17233W        W82053  15.052   1.003  13.990
17234W        W82054  26.440  21.120   4.086
17235W        W82055  18.084  11.361   0.417
17236W        W82056   0.276  12.346   2.405
17237W        W82057  19.788   3.710  14.837
17238W        W82058   4.975  26.252   3.077
17239W        W82059  28.697  33.974  11.671
17240W        W82060  44.286   3.309  10.730
17241W        W82061  23.784  36.278   4.668
17242W        W82062  38.248  44.312   4.541
17243W        W82063   8.167  32.841   3.662
17244W        W82064  34.555  18.549   4.669
17245W        W82065  36.078  21.491   2.403
17246W        W82066  15.743  22.303   2.818
17247W        W82067  36.955  10.101  12.032
17248W        W82068  33.011  11.081  11.687
17249W        W82069  22.070   0.211   2.287
17250W        W82070  19.473   0.103  13.900
17251W        W82071  11.211  11.049  11.032
17252W        W82072  44.263  13.262   3.548
17253W        W82073  24.706  20.952  12.976
17254W        W82074  20.088  33.653  14.049
17255W        W82075  39.259  23.157   1.163
17256W        W82076  37.040  26.625  14.772
17257W        W82077  14.737   6.173   2.776
17258W        W82078  27.509   6.837  12.593
17259W        W82079  36.918  15.131   2.424
17260W        W82080   8.912  12.277   0.997
17261W        W82081  20.340   1.374   1.889
17262W        W82082   1.266  18.536  14.917
17263W        W82083  41.839  31.366   0.836
17264W        W82084  18.704  17.079  10.210
17265W        W82085  27.422   2.827   2.199
17266W        W82086  12.807  37.032   4.197
17267W        W82087  29.727   7.548  14.414
17268W        W82088  44.495   2.996  14.228
17269W        W82089  16.487  15.088  13.509
17270W        W82090  35.429  33.919   3.625
17271W        W82091  37.672  30.199   2.714
17272W        W82092   3.500  19.118   4.731
17273W        W82093  39.114  36.360   1.870
17274W        W82094  39.020  23.092   0.154
17275W        W82095  33.046  21.404  12.135
17276W        W82096   6.254  43.853   2.622
17277W        W82097  34.547  26.957  12.660
17278W        W82098  23.427   0.049   2.720
17279W        W82099  44.393  14.503  12.216
17280W        W82100   5.111  30.252  14.557
17281W        W82101  22.796  17.689   4.464
17282W        W82102  33.662  12.314  14.887
17283W        W82103  23.608  24.397  14.957
17284W        W82104  12.817  37.554   3.951
17285W        W82105  24.451  12.854   3.864
17286W        W82106   9.469  24.984  12.035
17287W        W82107   1.939  30.478  12.432
17288W        W82108  23.987  30.120  13.590
17289W        W82109  10.269  33.529  12.169
17290W        W82110  36.257   3.226   4.187
17291W        W82111  30.576  21.279   4.173
17292W        W82112  44.520  21.771   3.891
17293W        W82113   3.401  32.761  12.943
17294W        W82114  29.981  38.405   3.274
17295W        W82115  41.731  38.989  10.677
17296W        W82116  32.456  35.862  11.172
17297W        W82117  16.180   5.575  14.025
17298W        W82118  30.661  26.990   0.785
17299W        W82119  35.602  37.094   1.952
17300W        W82120  16.922  16.845   3.609
17301W        W82121  11.192  11.191   4.798
17302W        W82122  13.021  33.324  13.102
17303W        W82123  25.032  36.843  13.917
17304W        W82124   2.997  14.652  11.304
17305W        W82125  18.734  20.597  14.265
17306W        W82126   0.214  17.227   4.597
17307W        W82127  29.604   4.973   1.354
17308W        W82128  20.756  26.311   0.554
17309W        W82129  20.236   9.523   4.039
17310W        W82130  40.841  17.716   4.462
17311W        W82131  31.557  37.982  13.998
17312W        W82132  34.089  29.010   3.838
17313W        W82133  25.942  34.261  14.215
17314W        W82134  44.319  42.312  11.627
17315W        W82135   7.089  35.534  11.587
17316W        W82136  35.161  25.187  14.223
17317W        W82137   8.125  17.271   1.333
17318W        W82138  15.197  44.685   2.371
17319W        W82139  17.646  23.750  13.451
17320W        W82140  43.369   2.859   4.413
17321W        W82141  33.376  39.077  13.014
17322W        W82142  23.957   7.587   1.918
17323W        W82143  29.157  24.918  13.012
17324W        W82144  10.685  19.098  13.922
17325W        W82145  10.242  21.459  10.443
17326W        W82146  37.926  17.477   4.101
17327W        W82147  11.378   4.703   2.347
17328W        W82148  25.192  30.045   4.070
17329W        W82149  40.281  31.369  10.714
17330W        W82150   0.204  36.344  10.758
17331W        W82151   0.484   8.867   2.171
17332W        W82152  12.282  28.876  12.609
17333W        W82153   2.246  32.266   3.602
17334W        W82154  10.177   2.759  14.717
17335W        W82155  44.373  30.562   4.525
17336W        W82156   6.992  41.875  12.586
17337W        W82157   9.869  14.334   1.315
17338W        W82158  37.104   8.847   4.610
17339W        W82159  12.160  25.981  11.949
17340W        W82160  17.208  34.530   2.855
17341W        W82161  10.783  14.371   1.202
17342W        W82162  13.578   2.792  13.274
17343W        W82163  39.010  35.408  11.620
17344W        W82164  19.719  38.524   4.388
17345W        W82165  28.170  19.480  13.797
17346W        W82166  26.674  29.045   1.191
17347W        W82167  27.591  22.805   4.105
17348W        W82168  26.800  26.856  11.142
17349W        W82169   4.807   9.777  11.653
17350W        W82170  14.357   8.527   4.739
17351W        W82171  29.969  15.295   1.187
17352W        W82172   3.691  11.326   2.266
17353W        W82173  26.705  26.277   4.147
17354W        W82174  27.879   1.299   4.852
17355W        W82175  33.106  29.669  13.912
17356W        W82176  13.315  40.367  12.931
17357W        W82177  15.512  34.014   3.204
17358W        W82178  43.273  29.004   3.615
17359W        W82179  31.825  10.229   0.220
17360W        W82180   9.130   4.904  11.658
17361W        W82181  25.977  23.581  11.859
17362W        W82182  37.612  42.316  12.427
17363W        W82183  18.547  37.402  12.085
17364W        W82184   0.952  18.545  14.383
17365W        W82185  39.027   0.187   4.146
17366W        W82186   6.469  22.284   1.513
17367W        W82187  18.112  43.465   2.222
17368W        W82188  39.700  31.479   0.027
17369W        W82189  18.556  32.745  12.043
17370W        W82190   2.954   1.638  14.204
17371W        W82191  19.555  21.964  11.242
17372W        W82192   4.359   9.662   1.455
17373W        W82193  38.345   8.421   4.563
17374W        W82194  20.023  31.099   1.390
17375W        W82195  41.004  23.233   2.888
17376W        W82196   2.271  44.592   0.986
17377W        W82197  17.158  43.990  11.591
17378W        W82198  33.160   8.873   2.738
17379W        W82199  16.645  29.311  10.631
17380W        W82200  14.558  16.275  12.948
17381W        W82201  16.495  10.363   3.851
17382W        W82202  25.392   8.843  13.007
17383W        W82203  13.538  38.482   0.264
17384W        W82204  28.489  20.451  14.014
17385W        W82205  41.128  34.418  14.937
17386W        W82206  19.767  39.684  12.979
17387W        W82207   2.919  19.846   4.182
17388W        W82208  21.079   4.824  13.921
17389W        W82209  38.205  16.361   1.454
17390W        W82210  40.339  42.432   4.912
17391W        W82211  41.453  32.491   1.453
17392W        W82212  31.170  44.226  11.175
17393W        W82213  23.209  17.682   2.378
17394W        W82214  37.808  24.246  13.350
17395W        W82215   6.975  39.487  13.414
17396W        W82216  18.079  11.876   0.321
17397W        W82217   1.703  40.649   3.894
17398W        W82218  28.997  28.120  13.918
17399W        W82219  25.615   6.804   4.875
17400W        W82220   3.390  18.040   1.036
17401W        W82221  25.597  27.199  14.477
17402W        W82222  28.563  16.686   2.882
17403W        W82223  13.319  42.336  13.144
17404W        W82224  17.094  40.373   1.446
17405W        W82225   3.152  33.375  11.016
17406W        W82226  13.490  17.504   0.241
17407W        W82227  32.948  35.230  12.494
17408W        W82228  24.649   8.638  11.502
17409W        W82229  41.568  28.409   4.171
17410W        W82230  26.771  34.556  12.000
17411W        W82231  27.456  17.207   1.616
17412W        W82232  16.738  44.695  10.482
17413W        W82233  13.061  39.356  13.766
17414W        W82234  37.348  32.397  12.017
17415W        W82235  19.073   6.818   1.195
17416W        W82236   2.480  44.285  10.680
17417W        W82237   8.933  28.660   0.937
17418W        W82238   9.307   6.526   2.343
17419W        W82239  10.314  23.927  12.158
17420W        W82240   4.636   1.524   1.248
17421W        W82241  35.945   5.844   1.718
17422W        W82242  38.399  32.626  11.027
17423W        W82243   4.774   1.229  10.203
17424W        W82244  28.131  35.442   0.778
17425W        W82245  37.401  13.318  12.360
17426W        W82246  44.420  32.686   3.142
17427W        W82247  29.179  32.170  10.767
17428W        W82248   9.885  24.755  14.899
17429W        W82249  44.144  34.581   0.509
17430W        W82250  10.704  41.508  13.385
17431W        W82251  34.649  40.736   0.902
17432W        W82252  24.577  28.884  13.432
17433W        W82253   4.960  38.038   1.287
17434W        W82254  36.534   5.505   3.817
17435W        W82255  39.922  14.182  10.708
17436W        W82256  19.955  25.121   5.171
17437W        W82257   3.395   8.731   1.729
17438W        W82258   0.998  42.275  13.025
17439W        W82259  39.108   1.634   5.063
17440W        W82260  14.194  42.407   3.913
17441W        W82261   6.714  43.004  12.898
17442W        W82262  24.096  38.303   2.826
17443W        W82263  22.475  19.269  14.023
17444W        W82264  26.171  43.776   1.022
17445W        W82265   8.693  32.493   1.881
17446W        W82266  11.563   3.896  12.450
17447W        W82267   5.888  35.217  11.691
17448W        W82268  16.865   9.113  12.049
17449W        W82269  27.036   8.408   2.125
17450W        W82270  20.161  20.313   3.405
17451W        W82271  31.393   1.859   1.292
17452W        W82272  25.536  30.989   1.377
17453W        W82273  28.776  36.172  13.431
17454W        W82274   5.182  28.093  12.103
17455W        W82275   2.718  13.821   0.945
17456W        W82276  40.568  36.436  14.067
17457W        W82277  39.173  44.173   4.310
17458W        W82278  36.978  11.680  14.967
17459W        W82279  33.941  40.240  13.913
17460W        W82280   2.547  19.221  12.318
17461W        W82281  34.858  22.526   0.763
17462W        W82282   9.654  39.477   2.755
17463W        W82283  21.850  23.085   3.855
17464W        W82284   7.781  30.421  12.901
17465W        W82285   6.456   8.796   1.920
17466W        W82286  32.103  31.102  10.594
17467W        W82287   2.463  11.205  10.485
17468W        W82288  22.650  11.433  13.534
17469W        W82289   9.699  30.143   9.506
17470W        W82290  28.696  18.863  12.351
17471W        W82291  32.681  10.349   2.740
17472W        W82292  40.324  29.684   2.495
17473W        W82293  15.689  16.238  13.853
17474W        W82294  40.841   6.326  11.606
17475W        W82295   3.890  22.655   3.224
17476W        W82296  10.737  16.330   2.833
17477W        W82297   1.811  22.393  11.270
17478W        W82298  22.968  12.339   4.136
17479W        W82299  16.364  30.001  13.137
17480W        W82300   4.117  24.141   4.876
17481W        W82301   2.047  38.344  12.081
17482W        W82302   8.678   7.173   3.767
17483W        W82303  23.218  38.355  11.717
17484W        W82304  14.084  35.959   9.689
17485W        W82305  30.904   3.695  12.422
17486W        W82306  18.353  44.510  11.159
17487W        W82307  43.198  27.084  14.341
17488W        W82308  10.704  30.163  14.331
17489W        W82309  26.988  35.588   2.765
17490W        W82310   6.304   2.291   0.464
17491W        W82311   3.498   6.669   2.433
17492W        W82312  12.103  28.416  12.896
17493W        W82313  40.183  44.785   3.747
17494W        W82314   4.582  20.560  12.892
17495W        W82315  36.995  40.102   0.206
17496W        W82316  44.388  19.675  10.895
17497W        W82317   0.766   3.928  12.484
17498W        W82318  16.871  26.262  12.902
17499W        W82319  11.762  43.940   3.667
17500W        W82320  34.431   4.804   3.792
17501W        W82321  26.008  25.201   0.825
17502W        W82322  13.198  43.969  12.151
17503W        W82323  13.130  40.292  13.400
17504W        W82324  13.045   3.202  12.570
17505W        W82325  23.654  14.855   0.387
17506W        W82326  21.168  40.844  12.976
17507W        W82327  24.463  11.153   1.454
17508W        W82328  30.558  37.791  14.767
17509W        W82329  13.725  16.655   0.644
17510W        W82330  28.007  17.267  13.552
17511W        W82331  39.887  24.108   0.416
17512W        W82332  38.313  35.508   0.847
17513W        W82333  19.700  20.602   0.943
17514W        W82334   5.700  37.414   1.235
17515W        W82335  11.692  24.441  13.762
17516W        W82336  21.041  42.507   1.830
17517W        W82337  10.667  34.007  10.748
17518W        W82338   8.356   9.228   0.345
17519W        W82339  41.203  26.498   4.607
17520W        W82340  29.519  42.472  14.855
17521W        W82341  11.605  37.293  11.944
17522W        W82342   5.699  23.803  12.451
17523W        W82343   8.914  33.332  10.240
17524W        W82344  23.048  41.463  13.134
17525W        W82345  20.531  34.132  11.064
17526W        W82346  33.652   3.348  14.943
17527W        W82347   5.110  22.650  10.711
17528W        W82348  26.628  27.656   0.354
17529W        W82349   6.235  17.796   2.794
17530W        W82350  26.305  18.176  11.788
17531W        W82351   6.897  16.839   1.640
17532W        W82352  14.086  30.912  12.418
17533W        W82353  11.188   3.243   1.348
17534W        W82354  41.433  13.852   2.834
17535W        W82355  30.960  29.971   0.427
17536W        W82356  40.326  35.394  13.081
17537W        W82357   1.254  16.227   2.270
17538W        W82358  19.712  31.119  13.954
17539W        W82359   2.254   6.689   1.810
17540W        W82360  28.220  15.630  11.860
17541W        W82361  44.880  11.488   1.987
17542W        W82362  28.311  27.985  13.545
17543W        W82363  27.043   2.399  14.168
17544W        W82364  32.662  39.983  11.561
17545W        W82365  28.514  39.786   2.764
17546W        W82366   2.843  14.799   2.877
17547W        W82367  21.571   9.394   2.224
17548W        W82368  32.301  26.982  14.005
17549W        W82369   8.330   8.195   3.084
17550W        W82370   8.633  38.455  14.412
17551W        W82371  18.677  10.301   0.778
17552W        W82372  12.668  25.919  12.103
17553W        W82373  17.036  32.460   2.776
17554W        W82374  40.022   2.972   1.920
17555W        W82375  43.991  16.097   3.155
17556W        W82376   4.972  19.030  11.288
17557W        W82377  37.096  40.510  14.714
17558W        W82378  31.973  24.049   0.751
17559W        W82379   6.348   8.267  13.331
17560W        W82380  13.563  36.122   2.354
17561W        W82381  28.153   8.450   4.370
17562W        W82382  28.930  28.784   4.124
17563W        W82383  24.494  30.889  12.008
17564W        W82384   9.243  17.519  12.478
17565W        W82385  43.269  21.125  11.610
17566W        W82386  35.006   0.341  14.938
17567W        W82387  31.022   8.631   4.181
17568W        W82388  27.359   4.810  13.535
17569W        W82389  12.427  30.592  13.109
17570W        W82390  25.092  32.037   4.635
17571W        W82391  14.786  43.120  11.227
17572W        W82392   9.834  12.687   3.333
17573W        W82393  10.509  33.594   9.983
17574W        W82394   5.135   2.378  12.895
17575W        W82395  24.983  38.672   4.628
17576W        W82396  42.759  17.646   3.229
17577W        W82397  14.869  21.214   1.808
17578W        W82398  13.679  34.393   3.973
17579W        W82399  21.702   5.098   0.319
17580W        W82400  21.407  36.441  12.181
17581W        W82401  19.518  17.415  11.021
17582W        W82402   6.646   5.899  12.701
17583W        W82403  17.033   1.749  11.549
17584W        W82404  11.058  20.572   2.299
17585W        W82405  39.949  31.949  14.321
17586W        W82406  27.013  37.245  14.357
17587W        W82407  24.146  10.333  12.996
17588W        W82408  26.443  37.982  13.491
17589W        W82409  44.453  23.693  12.212
17590W        W82410  41.452  24.000   0.776
17591W        W82411  30.275   1.219  14.635
17592W        W82412  21.749  30.064  11.988
17593W        W82413   4.722  20.006   0.895
17594W        W82414  23.967   7.306  12.465
17595W        W82415  14.804   8.785  11.388
17596W        W82416  21.035  43.974   2.631
17597W        W82417  34.921   9.925   3.245
17598W        W82418  23.274  13.603  13.898
17599W        W82419  30.980  37.560   4.401
17600W        W82420  31.875  22.503  11.473
17601W        W82421   7.899  10.181  10.142
17602W        W82422   0.636  31.911  14.692
17603W        W82423  24.297  29.169  14.053
17604W        W82424  31.828  41.877  14.903
17605W        W82425  15.297  26.057  12.931
17606W        W82426  20.465  33.783   3.583
17607W        W82427  23.982  36.244   1.945
17608W        W82428  22.207  20.565  14.439
17609W        W82429  35.768   7.329   3.615
17610W        W82430  34.879   4.386  12.990
17611W        W82431   3.421  34.499  11.176
17612W        W82432  21.525  41.085   3.160
17613W        W82433  16.705  28.137   4.846
17614W        W82434  14.862  17.635  12.933
17615W        W82435  44.082   3.286   4.293
17616W        W82436  31.045  43.895  12.340
17617W        W82437   4.042  28.266  13.447
17618W        W82438  23.420   7.917   2.525
17619W        W82439  33.644  38.714  10.431
17620W        W82440  38.117  33.379   3.671
17621W        W82441  18.112  16.194   3.248
17622W        W82442  29.892  11.350  10.605
17623W        W82443  12.977   8.667   2.883
17624W        W82444   8.332  23.740  13.494
17625W        W82445  23.916  27.018  12.689
17626W        W82446  16.087   9.670  11.946
17627W        W82447  36.715  36.147   1.641
17628W        W82448  22.395  39.723  13.454
17629W        W82449  15.161  37.383  11.113
17630W        W82450  29.903  36.324  12.970
17631W        W82451  25.829   3.310   3.761
17632W        W82452  42.061  18.188   3.636
17633W        W82453  11.724  22.051   3.586
17634W        W82454  10.703  38.016  11.609
17635W        W82455   6.967   8.869   1.845
17636W        W82456  32.601  43.260  12.039
17637W        W82457   7.956  32.155   4.078
17638W        W82458  12.655  34.041  10.818
17639W        W82459  11.763  10.488   0.917
17640W        W82460  20.714   9.192  10.849
17641W        W82461  38.749  29.994  14.902
17642W        W82462  42.347  19.350   0.716
17643W        W82463  23.533  11.759   4.371
17644W        W82464   2.783  30.183   4.168
17645W        W82465  18.599  43.404   0.952
17646W        W82466  17.500  36.836   0.618
17647W        W82467  24.786   6.813  14.021
17648W        W82468  33.971  31.550   3.239
17649W        W82469  40.512  16.347  10.575
17650W        W82470   7.842   8.768   2.343
17651W        W82471   6.886   1.306   2.487
17652W        W82472  16.758  12.666   3.700
17653W        W82473  40.419  28.706  11.983
17654W        W82474  44.270  24.435  14.010
17655W        W82475  19.160  31.184  11.511
17656W        W82476  28.168   4.629  14.381
17657W        W82477  22.403  19.021   5.226
17658W        W82478  35.111   6.295   3.863
17659W        W82479  44.846  28.300  14.909
17660W        W82480  42.744  25.156  11.571
17661W        W82481  13.040  39.247   4.364
17662W        W82482  32.660   0.392  13.887
17663W        W82483   0.275  31.030   2.210
17664W        W82484  34.425   4.005   2.704
17665W        W82485  24.687  36.564   3.246
17666W        W82486  24.953  31.998   2.612
17667W        W82487  16.558  39.213   3.582
17668W        W82488  21.419  33.823   3.899
17669W        W82489  34.006  21.734   3.870
17670W        W82490  40.711  39.061  11.247
17671W        W82491   1.914  29.534  11.855
17672W        W82492  35.644  37.522   3.614
17673W        W82493  11.257  33.394   4.577
17674W        W82494  30.925  17.741   2.897
17675W        W82495  12.117  26.096   0.308
17676W        W82496  35.520  18.775   0.043
17677W        W82497   1.251   5.183  10.450
17678W        W82498  33.563  42.104  12.922
17679W        W82499  38.221   3.101  10.806
17680W        W82500  31.156  15.736  13.872
17681W        W82501  17.024  35.494  13.969
17682W        W82502  17.292  40.964  11.226
17683W        W82503  10.809  30.968   4.601
17684W        W82504  11.659  11.172   0.663
17685W        W82505  39.088  21.257   0.211
17686W        W82506  15.731  15.128  11.473
17687W        W82507   0.396  27.732   3.188
17688W        W82508   3.860  12.718  11.147
17689W        W82509  25.466   8.698   4.901
17690W        W82510  44.742  33.375  10.916
17691W        W82511  42.794  30.877  12.504
17692W        W82512  12.786  16.984  12.291
17693W        W82513   6.378   6.331   0.223
17694W        W82514  21.094  30.869   0.258
17695W        W82515  30.237  30.101  11.513
17696W        W82516  18.787  16.605   3.776
17697W        W82517  40.261  35.491   3.260
17698W        W82518  21.879  25.630  12.545
17699W        W82519   5.242  22.385  11.252
17700W        W82520  15.132  17.310   2.663
17701W        W82521  28.691  10.315  12.606
17702W        W82522  33.506   5.192   0.367
17703W        W82523  21.101  19.349  11.217
17704W        W82524   3.759  17.491   2.635
17705W        W82525  28.261  13.847   1.251
17706W        W82526  27.483   1.468   4.562
17707W        W82527  33.837  40.514  14.366
17708W        W82528  42.044   6.933  11.625
17709W        W82529   0.734   2.297   3.184
17710W        W82530  29.713  31.930   0.806
17711W        W82531   9.302   9.420  14.804
17712W        W82532  28.771  20.212   2.643
17713W        W82533  16.690  26.138   3.535
17714W        W82534  19.082  27.296   2.739
17715W        W82535  35.343  34.192   0.943
17716W        W82536  17.363  24.031   1.286
17717W        W82537  12.807  31.713   1.630
17718W        W82538  42.717   5.578   3.090
17719W        W82539  41.418  40.961   1.003
17720W        W82540  44.217  23.282   1.636
17721W        W82541  36.089  25.658   3.977
17722W        W82542  19.534  42.523   0.454
17723W        W82543  11.900  14.625  11.935
17724W        W82544  16.628  12.648  11.143
17725W        W82545  39.560  23.260   3.902
17726W        W82546  19.284  26.046   2.418
17727W        W82547   6.278  38.553  11.755
17728W        W82548  31.562  36.087  14.024
17729W        W82549  11.642  26.063  10.634
17730W        W82550   6.366  34.108  14.450
17731W        W82551  35.529  15.099   3.647
17732W        W82552  38.718  36.011   1.840
17733W        W82553   5.973  23.625  12.900
17734W        W82554   2.660  28.627  12.523
17735W        W82555   5.423  25.491  14.934
17736W        W82556  44.763  36.964   1.835
17737W        W82557   5.435  43.746   0.055
17738W        W82558   9.516  39.880   2.214
17739W        W82559  22.789  13.636  14.834
17740W        W82560   4.247  26.059   4.343
17741W        W82561  36.817   0.997  11.880
17742W        W82562  15.485  10.902   2.141
17743W        W82563  31.379  37.828  14.986
17744W        W82564  36.318  21.324   2.832
17745W        W82565  20.648  42.282   3.784
17746W        W82566  24.102  13.066   0.429
17747W        W82567  34.972   0.150   2.480
17748W        W82568  31.943  36.919   4.985
17749W        W82569  20.601  10.640  14.925
17750W        W82570  39.932  32.187  10.842
17751W        W82571  22.136  43.610   1.275
17752W        W82572  31.166  15.666  12.591
17753W        W82573  19.010  24.778   2.226
17754W        W82574  23.201  39.088   4.815
17755W        W82575   1.778  38.506   3.155
17756W        W82576  11.725  41.252  11.560
17757W        W82577  33.007  22.938  13.051
17758W        W82578  16.564  23.926   2.839
17759W        W82579  29.557   5.474   0.452
17760W        W82580  20.800  27.642  11.112
17761W        W82581  34.445   2.988  14.371
17762W        W82582  31.959  33.743  13.880
17763W        W82583  33.113  29.129   4.746
17764W        W82584  25.229   2.332  13.799
17765W        W82585  30.062  44.495  11.390
17766W        W82586  32.295  23.408  14.812
17767W        W82587   0.553   2.421   1.440
17768W        W82588  22.222  37.688   0.905
17769W        W82589   5.475  21.573  12.419
17770W        W82590  32.487  10.331  10.708
17771W        W82591   9.581  38.988   2.401
17772W        W82592  22.561   4.954  13.750
17773W        W82593  28.588  25.476   2.779
17774W        W82594  20.019  13.196  11.653
17775W        W82595  12.848  18.700  13.899
17776W        W82596   2.266  13.096   3.770
17777W        W82597  28.585  35.521  11.853
17778W        W82598  43.506   5.514  11.564
17779W        W82599  40.383  12.303   0.856
17780W        W82600   4.989  38.539  13.996
17781W        W82601   5.389   7.769  11.093
17782W        W82602  20.249   0.561  11.139
17783W        W82603   5.408  13.319   4.069
17784W        W82604  41.478  10.386   3.769
17785W        W82605  33.314  15.774   2.729
17786W        W82606  11.427   6.806   2.830
17787W        W82607  18.863  17.206   0.837
17788W        W82608  34.319   6.893   0.236
17789W        W82609  12.837  26.157   4.135
17790W        W82610  28.485  25.516   3.703
17791W        W82611   5.867  10.238   2.927
17792W        W82612   6.344  15.546  12.646
17793W        W82613  42.860   2.447   2.672
17794W        W82614   8.244  11.165   3.404
17795W        W82615  15.119  42.558   3.751
17796W        W82616  11.130  40.375  10.388
17797W        W82617  30.433   9.026   2.265
17798W        W82618  12.676  39.994   1.883
17799W        W82619  17.697   3.786   3.783
17800W        W82620  10.337  24.131   4.832
17801W        W82621  32.032   6.475  12.156
17802W        W82622  12.596  29.492   1.750
17803W        W82623  24.895  25.389  14.048
17804W        W82624  33.535  21.173   3.771
17805W        W82625  15.088  42.884  12.493
17806W        W82626  13.839  31.358  12.508
17807W        W82627   0.474  16.666   3.788
17808W        W82628   8.177  39.076   4.588
17809W        W82629  41.119  14.053  13.923
17810W        W82630   8.733  10.219   0.938
17811W        W82631  12.324  43.401  11.502
17812W        W82632  28.333  39.933   1.237
17813W        W82633  25.091  11.439  12.002
17814W        W82634  27.862   7.249  13.667
17815W        W82635  11.090   6.668   3.221
17816W        W82636  32.074  28.546  14.863
17817W        W82637  22.283  37.836   1.827
17818W        W82638  15.024  19.787  12.996
17819W        W82639  23.222  21.724  11.041
17820W        W82640  13.724  38.407   3.857
17821W        W82641  12.846  18.241  12.193
17822W        W82642  25.222   2.706   4.091
17823W        W82643  28.488  34.563   0.618
17824W        W82644  23.048  41.558  14.079
17825W        W82645  34.367   5.531  14.333
17826W        W82646  37.673   7.409  11.801
17827W        W82647  25.449   7.347   4.253
17828W        W82648  20.367   2.026   2.472
17829W        W82649  15.469   6.095   1.690
17830W        W82650  37.626  41.588  11.037
17831W        W82651  25.737   4.277   1.735
17832W        W82652   0.618  35.587   3.673
17833W        W82653  21.549  18.506  11.795
17834W        W82654  33.105  38.067   0.439
17835W        W82655  29.660   4.681   2.340
17836W        W82656  24.869  10.731  11.168
17837W        W82657  42.872  19.722  14.530
17838W        W82658  39.643  14.904  13.583
17839W        W82659   7.259  17.761   5.069
17840W        W82660  39.612  33.840   1.461
17841W        W82661   0.900  36.061  13.377
17842W        W82662  30.445   6.488   1.742
17843W        W82663  21.273  33.563   5.123
17844W        W82664  27.314  34.569  12.083
17845W        W82665  25.680  32.283   0.247
17846W        W82666  29.676  44.257   2.393
17847W        W82667  21.201  24.244   0.748
17848W        W82668  20.147   2.598   1.196
17849W        W82669  32.026  10.291  14.722
17850W        W82670  16.248   2.193  11.617
17851W        W82671  19.279  27.066   1.738
17852W        W82672  44.737  39.311   0.047
17853W        W82673  19.414   2.320   3.643
17854W        W82674  15.772  43.480   1.494
17855W        W82675  34.962  44.300   1.285
17856W        W82676  37.923  24.469   4.553
17857W        W82677  12.561  43.809   1.869
17858W        W82678  34.582  23.945   1.561
17859W        W82679  27.536  15.177   2.353
17860W        W82680  14.018  41.875   1.903
17861W        W82681  21.812  20.705   2.006
17862W        W82682  13.765  38.297  11.601
17863W        W82683  37.631   8.386   2.126
17864W        W82684  15.275  19.997  12.461
17865W        W82685  20.644  32.077   2.196
17866W        W82686  30.958  32.381  13.010
17867W        W82687  21.830  34.656  14.614
17868W        W82688  16.526  39.772  10.798
17869W        W82689  42.264  35.827   1.894
17870W        W82690  21.966  35.620  14.823
17871W        W82691   7.692  38.813  10.948
17872W        W82692  43.550  28.738  14.777
17873W        W82693  17.615  13.940  13.052
17874W        W82694   1.211  26.999  11.231
17875W        W82695   9.620  38.124  14.474
17876W        W82696  42.381  15.130  14.220
17877W        W82697  29.003  31.237   4.951
17878W        W82698  13.104  22.160   3.591
17879W        W82699  20.775  11.337   3.123
17880W        W82700  30.496  16.346  14.215
17881W        W82701   8.691  16.549  13.376
17882W        W82702  17.565   3.859   1.145
17883W        W82703  33.188  33.473   2.403
17884W        W82704   1.462   7.446   4.546
17885W        W82705  41.926  28.401   0.777
17886W        W82706  43.988  26.663   4.090
17887W        W82707   0.728   7.451   0.875
17888W        W82708  35.393  41.069  10.881
17889W        W82709  26.297  31.496   3.058
17890W        W82710   3.339   1.026   2.175
17891W        W82711  33.604  34.630   4.456
17892W        W82712  20.645  22.003  12.979
17893W        W82713  44.033  21.677   2.402
17894W        W82714  21.598  17.061   3.569
17895W        W82715  36.593  43.411   3.732
17896W        W82716  33.914   6.366  13.332
17897W        W82717  35.367  42.041  11.105
17898W        W82718   5.384   9.077  10.933
17899W        W82719  14.744  23.063  13.960
17900W        W82720  40.899  16.334   0.909
17901W        W82721  40.394  42.868  10.101
17902W        W82722   8.367  13.241   4.402
17903W        W82723  40.407   5.524   0.030
17904W        W82724  39.115   0.657   1.558
17905W        W82725  20.236  31.011   4.885
17906W        W82726  24.879  17.821   2.775
17907W        W82727  18.814   4.270   2.796
17908W        W82728  30.876   7.561   4.271
17909W        W82729  21.857   5.795  11.638
17910W        W82730  29.404  14.094   5.028
17911W        W82731  40.799  31.743  13.803
17912W        W82732  36.299  11.877  14.546
17913W        W82733  28.222   9.637   3.754
17914W        W82734  13.287  44.788   4.566
17915W        W82735  37.748  16.303   1.671
17916W        W82736  18.818  32.068  14.290
17917W        W82737  13.036  24.567  14.806
17918W        W82738   0.261  10.842  14.073
17919W        W82739  29.941  38.030   2.895
17920W        W82740   1.988  31.101  13.546
17921W        W82741  36.876  37.094   0.390
17922W        W82742  14.173  16.609   4.105
17923W        W82743  23.553  15.403   2.161
17924W        W82744  19.661  11.305  13.814
17925W        W82745   0.910  20.792  13.013
17926W        W82746  38.440  17.813   0.144
17927W        W82747  15.821   8.365  13.350
17928W        W82748  25.290  41.258   4.564
17929W        W82749  31.009   3.038   0.305
17930W        W82750   9.514  22.316  13.905
17931W        W82751  36.305  31.567  10.774
17932W        W82752  29.896  12.936  11.215
17933W        W82753  29.181  31.917   0.873
17934W        W82754   7.965  37.645   1.825
17935W        W82755  33.016  35.123   2.839
17936W        W82756  18.786  35.124  10.805
17937W        W82757  32.592  26.611  13.703
17938W        W82758  17.515  27.081   4.566
17939W        W82759  11.414  13.858   0.650
17940W        W82760   5.168  38.590  10.506
17941W        W82761  36.110  34.252   3.687
17942W        W82762   2.473  38.959  11.099
17943W        W82763  22.720  10.391  13.580
17944W        W82764  32.869  28.043  10.946
17945W        W82765  20.767  18.112  10.597
17946W        W82766   1.424  44.575   3.230
17947W        W82767  15.794  15.222   4.554
17948W        W82768  12.257  18.616  11.961
17949W        W82769   0.436  23.697   1.765
17950W        W82770  43.295   7.028   0.839
17951W        W82771   5.698  13.230   4.475
17952W        W82772  21.963  10.170   0.946
17953W        W82773  42.729   9.407  14.686
17954W        W82774  24.564  38.083   3.110
17955W        W82775   8.230  16.386   0.489
17956W        W82776  26.576  20.773   2.719
17957W        W82777  12.196  36.848   0.729
17958W        W82778  17.770  22.970  10.862
17959W        W82779   3.869   2.221  10.674
17960W        W82780  42.919  36.136  10.427
17961W        W82781   3.405  20.552  11.595
17962W        W82782   3.329   8.164  13.404
17963W        W82783  39.921  36.909   2.199
17964W        W82784  42.073  13.617   3.341
17965W        W82785  25.513  15.183  14.287
17966W        W82786  13.299  11.524  11.168
17967W        W82787  31.173  28.208   1.707
17968W        W82788   1.752  43.026   1.705
17969W        W82789  28.053  18.206   4.613
17970W        W82790  22.085  16.374   3.739
17971W        W82791  43.362  15.031  13.526
17972W        W82792  18.486   8.575  13.548
17973W        W82793  17.582  11.247   0.155
17974W        W82794   8.738  33.989   2.896
17975W        W82795  18.683  12.640   2.312
17976W        W82796  26.649  23.630   3.331
17977W        W82797  24.833   5.208   3.854
17978W        W82798  11.205  32.814   2.039
17979W        W82799  32.037  28.234  13.832
17980W        W82800  26.563   4.908  12.802
17981W        W82801  10.940  35.987   3.626
17982W        W82802  16.288  10.046  13.977
17983W        W82803  14.567  28.515   4.017
17984W        W82804  39.036  25.351  13.891
17985W        W82805  36.334  42.780  13.552
17986W        W82806  42.599   0.880  14.276
17987W        W82807   9.376   0.344  11.513
17988W        W82808  20.617  29.049  10.535
17989W        W82809   4.165  38.803   4.150
17990W        W82810   5.860  29.166  13.996
17991W        W82811  43.089  22.328  13.443
17992W        W82812   3.327  41.078  12.050
17993W        W82813  43.751  31.379   3.163
17994W        W82814  31.734  38.738   4.519
17995W        W82815  21.987  41.836  11.243
17996W        W82816  21.686  13.186   3.298
17997W        W82817  39.352  16.604  11.113
17998W        W82818  17.218  35.477   4.961
17999W        W82819  23.739   3.441   0.019
18000W        W82820  32.014  20.781   0.446
18001W        W82821  35.299  28.897   0.710
18002W        W82822  31.507  26.480   2.168
18003W        W82823  29.007  27.173   0.408
18004W        W82824  11.575   0.692   4.999
18005W        W82825  42.839   2.976  11.606
18006W        W82826  29.518  15.556  12.425
18007W        W82827  15.063   3.029   1.549
18008W        W82828  33.771   7.051  11.099
18009W        W82829  20.701  40.566   4.593
18010W        W82830  43.894  13.241   4.375
18011W        W82831  22.966  23.277   5.185
18012W        W82832  44.508   4.870   0.817
18013W        W82833  15.326  40.354   5.123
18014W        W82834   4.953  10.373   3.805
18015W        W82835  44.259  29.168  12.372
18016W        W82836  40.440  29.242  12.899
18017W        W82837  39.764  13.471   0.872
18018W        W82838  18.761   8.492  12.699
18019W        W82839  14.206  21.774   2.829
18020W        W82840  39.883  11.658  12.277
18021W        W82841  31.641   9.597  12.625
18022W        W82842  10.152  17.478  12.532
18023W        W82843  23.936  41.133   1.747
18024W        W82844  41.326  12.704   3.618
18025W        W82845  38.974  18.176  13.912
18026W        W82846  28.572  23.326   0.072
18027W        W82847  10.699  17.650   3.722
18028W        W82848   2.551  26.620  14.315
18029W        W82849   2.075  37.904  12.364
18030W        W82850  37.342  44.695  14.298
18031W        W82851  12.780   4.318  13.041
18032W        W82852   7.878   5.303   3.724
18033W        W82853  20.525  23.475   0.964
18034W        W82854  14.091  13.275  11.567
18035W        W82855  26.561  27.667  11.520
18036W        W82856  40.418  17.592  14.406
18037W        W82857   0.531  39.561   3.223
18038W        W82858  38.751  25.207   3.907
18039W        W82859   1.323  42.647  12.236
18040W        W82860   5.817   6.961  13.850
18041W        W82861  14.247  37.057  10.443
18042W        W82862  18.624  33.048   4.885
18043W        W82863  38.954  39.864  14.684
18044W        W82864  14.772   3.200  12.852
18045W        W82865  19.859   5.806   0.972
18046W        W82866  40.312  25.682   4.452
18047W        W82867  31.497  20.796   4.142
18048W        W82868  24.507  39.293   3.990
18049W        W82869  10.695  13.104  12.838
18050W        W82870  42.470  40.847   1.934
18051W        W82871   4.831  17.490   2.658
18052W        W82872  21.504  35.641   2.865
18053W        W82873  25.722   1.290   4.613
18054W        W82874  40.610  35.331   0.036
18055W        W82875  39.369   2.550  12.380
18056W        W82876   3.844  14.558   1.307
18057W        W82877  38.809   0.358   2.796
18058W        W82878  11.668  37.154   2.009
18059W        W82879   9.195  10.733  12.483
18060W        W82880  11.031  44.899  10.804
18061W        W82881  29.668  28.271   2.295
18062W        W82882  12.864   5.360   2.910
18063W        W82883  11.626  31.227   5.005
18064W        W82884  20.832  42.022  10.454
18065W        W82885  21.516  41.516   4.046
18066W        W82886  31.513  32.649   4.631
18067W        W82887   9.340   9.910   2.821
18068W        W82888  33.611  20.249  11.467
18069W        W82889   0.911  28.173  12.959
18070W        W82890  12.183  42.958   4.714
18071W        W82891   7.055   2.757  13.906
18072W        W82892  21.657   4.168   3.547
18073W        W82893  19.661  10.196   2.745
18074W        W82894   7.417   7.881   0.336
18075W        W82895  32.921  10.818   2.856
18076W        W82896  41.805   8.891   4.110
18077W        W82897  39.062  11.903   4.336
18078W        W82898  25.006  40.063  11.990
18079W        W82899  25.720   0.386   2.623
18080W        W82900   0.725  18.396   0.313
18081W        W82901   4.207  18.228  13.596
18082W        W82902  41.816  21.130  10.742
18083W        W82903   1.217  22.321  11.716
18084W        W82904  16.142  25.825   4.709
18085W        W82905  38.112  28.088   4.400
18086W        W82906   7.074  44.248  13.877
18087W        W82907  13.063  32.677   3.137
18088W        W82908   4.859  37.536   2.312
18089W        W82909  19.602  41.502  12.919
18090W        W82910  42.892   2.874  12.570
18091W        W82911   3.236  10.950  14.963
18092W        W82912  26.280  31.902   4.999
18093W        W82913  29.984  31.761  11.978
18094W        W82914  25.267  26.634  11.562
18095W        W82915  20.403  14.625   4.629
18096W        W82916  22.971  34.400  14.755
18097W        W82917  25.098  25.066  10.810
18098W        W82918  26.136  18.603  12.030
18099W        W82919   2.866   7.186  14.775
18100W        W82920  32.593   6.689  14.421
18101W        W82921  10.890   5.946  10.351
18102W        W82922  34.833   7.876  11.620
18103W        W82923  22.747  42.577   1.850
18104W        W82924  25.135  19.031   1.752
18105W        W82925  24.287  37.623   4.009
18106W        W82926  15.056  29.743   1.228
18107W        W82927   9.901  28.585  14.375
18108W        W82928  44.711  19.435  12.060
18109W        W82929  33.515  31.394   3.877
18110W        W82930  32.941   9.628  11.953
18111W        W82931  19.027  23.321  11.462
18112W        W82932   6.222  30.617  10.288
18113W        W82933   2.309  27.110   1.269
18114W        W82934   7.812  23.559   3.803
18115W        W82935   9.511  24.503  11.779
18116W        W82936  42.298  12.533   3.709
18117W        W82937   4.424  23.043  12.535
18118W        W82938  32.675  24.107  12.699
18119W        W82939   2.955  14.648   1.839
18120W        W82940  15.757   2.357   0.181
18121W        W82941  41.857   8.919  11.939
18122W        W82942  12.397   6.297   0.361
18123W        W82943   4.195  12.169   2.408
18124W        W82944  25.620  19.247   1.771
18125W        W82945  37.857  39.937  11.247
18126W        W82946  27.953  11.283   4.867
18127W        W82947  24.970   0.427  14.327
18128W        W82948  43.021  16.634  11.265
18129W        W82949  11.510  30.673  10.459
18130W        W82950  38.177  17.758   2.739
18131W        W82951  27.121  15.702   4.713
18132W        W82952  28.592  25.996  11.256
18133W        W82953  41.883  26.069   4.570
18134W        W82954  35.885  22.075  12.471
18135W        W82955  28.650  26.191   2.087
18136W        W82956  38.564  38.904   2.632
18137W        W82957  15.530   3.305  10.722
18138W        W82958  33.508  11.259  11.087
18139W        W82959  35.963  17.752   0.830
18140W        W82960  15.841   6.620  10.741
18141W        W82961  32.843  16.996   3.190
18142W        W82962  44.249  41.661   1.383
18143W        W82963  36.293   9.291  14.916
18144W        W82964  21.618  21.585  14.345
18145W        W82965   2.236  10.403   4.155
18146W        W82966  17.573  41.530  12.551
18147W        W82967  14.795  19.138   2.063
18148W        W82968  34.514  44.763   2.082
18149W        W82969   3.095  40.910  12.487
18150W        W82970   9.041  33.044   2.715
18151W        W82971  42.962  29.116   1.767
18152W        W82972  21.066   8.066  10.136
18153W        W82973  16.141  28.069   0.292
18154W        W82974  28.112  38.800   1.415
18155W        W82975  25.036  16.342   0.919
18156W        W82976  42.612   2.465  14.501
18157W        W82977   9.719  43.543   4.124
18158W        W82978  18.860  28.374  14.066
18159W        W82979   3.196   1.867   0.900
18160W        W82980   5.385   1.604   2.745
18161W        W82981  42.347   5.332   4.069
18162W        W82982  37.573  10.658   2.679
18163W        W82983  41.920  37.779  13.531
18164W        W82984  26.805  35.908   1.698
18165W        W82985  30.414  13.836  14.836
18166W        W82986  37.777  14.014   3.009
18167W        W82987  22.616  38.348  13.611
18168W        W82988   6.367   6.071   5.008
18169W        W82989  18.113  18.234  11.483
18170W        W82990  25.962  35.376  14.856
18171W        W82991  35.171  21.733  10.712
18172W        W82992  32.625  24.961  12.295
18173W        W82993  21.019   2.895   2.245
18174W        W82994   5.192  44.206   0.305
18175W        W82995   2.313  38.076   3.866
18176W        W82996  12.982  14.429   3.640
18177W        W82997  23.715   2.004   2.870
18178W        W82998  16.653  43.500   0.490
18179W        W82999  21.276  26.435   4.566
18180W        W83000  32.916  37.937   3.767
18181W        W83001  12.262   6.886   1.483
18182W        W83002   0.959  30.982  12.858
18183W        W83003  33.472  39.021   2.858
18184W        W83004   3.820   3.784   2.370
18185W        W83005  30.018   3.251   2.157
18186W        W83006  43.932  30.725   0.889
18187W        W83007   2.675  16.763   0.866
18188W        W83008  16.820  14.098   3.150
18189W        W83009  32.390  22.462  10.251
18190W        W83010   5.471   6.453  11.703
18191W        W83011  25.243  42.923  11.238
18192W        W83012  31.126  40.171   0.548
18193W        W83013  11.897  42.523  12.043
18194W        W83014  36.948  16.483   3.157
18195W        W83015  16.502  27.160   4.362
18196W        W83016  38.995  19.915   4.162
18197W        W83017  31.485   0.716  12.917
18198W        W83018  30.041  32.826  13.015
18199W        W83019  38.580  24.531  10.616
18200W        W83020   1.344  24.518  14.414
18201W        W83021  29.330  28.884   1.315
18202W        W83022   2.237  37.868   1.949
18203W        W83023  10.380  36.033  11.710
18204W        W83024  12.562   4.404   2.663
18205W        W83025  39.966   2.159   2.204
18206W        W83026  28.143  42.801  12.904
18207W        W83027  26.649  23.123   0.857
18208W        W83028   2.936  17.985  12.830
18209W        W83029  41.863   5.147   4.521
18210W        W83030  41.858   9.803  14.431
18211W        W83031   0.924  12.349   3.649
18212W        W83032   1.478  20.071  12.017
18213W        W83033  36.407  26.200  12.790
18214W        W83034  11.706  38.235  13.735
18215W        W83035  29.995  12.817  14.076
18216W        W83036   4.204   9.908  11.772
18217W        W83037  15.317  11.256  13.757
18218W        W83038  17.680  17.545   0.517
18219W        W83039  42.937  30.945   3.098
18220W        W83040  41.530  36.552  13.279
18221W        W83041   9.916  39.962  12.147
18222W        W83042  39.302  37.311  14.007
18223W        W83043   9.548  33.448  14.397
18224W        W83044  33.690   8.638   5.091
18225W        W83045  28.157   4.306   1.863
18226W        W83046  43.935  38.075   3.557
18227W        W83047  15.463  40.763  10.727
18228W        W83048   2.919  22.256   3.340
18229W        W83049  31.379  15.757   3.301
18230W        W83050  10.427  41.586   0.713
18231W        W83051  24.084  28.644  11.789
18232W        W83052  43.063   2.827  13.118
18233W        W83053  32.237  26.269   1.788
18234W        W83054  13.368  14.527   4.012
18235W        W83055   4.688  23.936  11.182
18236W        W83056   3.015  25.013  14.146
18237W        W83057  33.651   4.453  11.942
18238W        W83058  12.301   9.005   4.969
18239W        W83059   7.511   9.721  13.557
18240W        W83060   7.591  24.980  12.620
18241W        W83061  39.903   7.380  10.407
18242W        W83062  18.262   7.103  11.982
18243W        W83063  21.987  12.308   4.276
18244W        W83064  33.909  29.159  14.197
18245W        W83065  25.321  11.812   2.260
18246W        W83066  24.756   7.955  12.455
18247W        W83067  40.576  41.463  12.900
18248W        W83068   4.907  15.341  14.238
18249W        W83069  32.623  23.658   1.210
18250W        W83070  43.912   5.918  12.519
18251W        W83071  31.495  11.482  10.723
18252W        W83072   9.622  42.475   1.317
18253W        W83073  43.377   7.533   0.907
18254W        W83074  10.249  39.036  10.174
18255W        W83075  13.295  13.848   3.295
18256W        W83076   4.355  41.343  13.490
18257W        W83077   1.428   3.459  14.030
18258W        W83078  31.386  42.884   1.818
18259W        W83079   2.475  30.902  13.147
18260W        W83080  12.323  41.044  12.475
18261W        W83081   7.170  34.454   2.719
18262W        W83082  18.050  10.373  11.191
18263W        W83083  34.576  16.328   0.906
18264W        W83084  27.972  40.468  11.497
18265W        W83085   2.858  10.861  10.443
18266W        W83086  21.637  16.607  12.341
18267W        W83087  35.324  11.808   1.440
18268W        W83088  31.056  13.823  10.892
18269W        W83089   5.920  31.124  12.040
18270W        W83090  43.298   3.713  14.387
18271W        W83091  16.222  18.255  12.433
18272W        W83092  36.557  32.621   0.556
18273W        W83093  38.429  28.776   0.730
18274W        W83094  15.126  29.234  11.134
18275W        W83095   6.472  18.519   2.281
18276W        W83096  35.834  21.843  11.524
18277W        W83097   7.950  21.893   1.300
18278W        W83098  25.378  17.644   2.801
18279W        W83099  18.686  33.132  14.424
18280W        W83100  14.130  19.682  13.550
18281W        W83101  29.383  21.139   4.070
18282W        W83102  38.248   2.394  11.066
18283W        W83103  23.611  42.890  11.112
18284W        W83104  41.795   8.469   3.157
18285W        W83105   0.230  38.469  11.711
18286W        W83106  11.638  17.740   2.875
18287W        W83107  34.893  31.817  12.109
18288W        W83108   7.575   7.291  12.478
18289W        W83109  18.050  42.584   4.708
18290W        W83110  26.569   1.558   4.966
18291W        W83111   1.314   9.474   4.158
18292W        W83112  22.601  28.976   2.876
18293W        W83113  36.799  43.630  12.414
18294W        W83114  43.553  10.666   0.887
18295W        W83115  35.934  19.109  14.399
18296W        W83116  22.216  32.328   1.285
18297W        W83117   0.751  42.084  13.894
18298W        W83118   2.486  34.983   4.307
18299W        W83119  37.826  41.064  14.409
18300W        W83120  35.595  27.754  12.391
18301W        W83121  42.141  14.314  11.355
18302W        W83122   4.027  32.580   0.579
18303W        W83123   4.668  13.858  13.396
18304W        W83124  22.714  21.350  11.566
18305W        W83125   8.444  23.642  11.836
18306W        W83126  25.299  17.056  14.457
18307W        W83127  12.341  24.123   3.291
18308W        W83128   3.744   7.646   0.777
18309W        W83129  12.424  39.782  10.997
18310W        W83130  41.927  44.747  11.378
18311W        W83131  10.317  12.350   0.975
18312W        W83132  14.110  10.357  10.765
18313W        W83133   9.280  43.451  10.828
18314W        W83134   6.299  43.252   3.803
18315W        W83135  16.705  30.053   3.683
18316W        W83136  15.438  25.483   1.237
18317W        W83137  34.221  22.004  11.064
18318W        W83138  16.069  24.908   3.356
18319W        W83139   9.735   6.501  14.912
18320W        W83140  28.983  22.738   1.786
18321W        W83141  19.770  17.141  14.963
18322W        W83142  30.540   0.673  13.988
18323W        W83143  29.100   5.601  11.868
18324W        W83144  33.346  25.716   1.369
18325W        W83145  36.988  33.411  11.526
18326W        W83146  27.133  34.718  14.395
18327W        W83147   7.947  16.258  14.438
18328W        W83148   8.494  20.230  12.959
18329W        W83149  30.095   7.566   3.649
18330W        W83150  43.548  13.818  14.002
18331W        W83151  16.147   5.144  14.300
18332W        W83152  29.680  33.500   4.068
18333W        W83153  33.022   8.166   3.338
18334W        W83154   9.382  21.479  10.354
18335W        W83155  40.569   9.140   1.916
18336W        W83156  32.116  16.644  13.996
18337W        W83157  22.296  29.853  14.389
18338W        W83158  24.103  18.978   2.594
18339W        W83159  14.206  13.002  13.946
18340W        W83160   5.174  35.666  11.054
18341W        W83161   6.333  20.613  13.898
18342W        W83162   8.599  16.231   5.193
18343W        W83163  19.399  14.782  11.028
18344W        W83164  34.027  12.212  13.002
18345W        W83165   5.886  12.349  14.996
18346W        W83166   9.374   3.220  10.068
18347W        W83167  33.037  14.727  13.758
18348W        W83168  25.273  11.482  14.211
18349W        W83169  17.522  43.289   4.673
18350W        W83170  44.888  24.890   3.358
18351W        W83171   6.587  13.348   1.794
18352W        W83172   2.293  28.994   2.079
18353W        W83173  24.163  12.180   4.839
18354W        W83174  31.449  41.322  11.217
18355W        W83175  16.182  34.634  13.434
18356W        W83176  10.844  24.722   0.922
18357W        W83177   3.816   0.265   2.286
18358W        W83178  38.663  10.786  11.135
18359W        W83179  44.551  17.229  14.325
18360W        W83180   4.227  30.984   0.188
18361W        W83181  18.091  13.662  11.483
18362W        W83182  32.477  38.589   1.951
18363W        W83183  11.443  10.462  11.619
18364W        W83184  43.190  34.548  12.015
18365W        W83185   3.951  19.524  13.377
18366W        W83186  20.104   0.228  10.770
18367W        W83187  17.672  25.952  14.486
18368W        W83188   3.115  24.439   2.281
18369W        W83189  43.384  29.149   2.107
18370W        W83190  10.313  27.623   0.457
18371W        W83191  24.642  12.268   0.432
18372W        W83192  25.968  14.195  14.987
18373W        W83193  14.812  33.372  14.817
18374W        W83194  35.984   1.677   2.224
18375W        W83195  38.950  40.902  11.204
18376W        W83196  16.008  15.305  14.468
18377W        W83197  37.569  18.609  10.702
18378W        W83198  39.784   3.820  13.515
18379W        W83199  31.455  19.175   1.804
18380W        W83200  30.629  40.304   3.268
18381W        W83201  21.233  19.698  14.393
18382W        W83202   4.329  14.971  12.369
18383W        W83203  36.790  37.798   1.239
18384W        W83204  18.974  10.246   2.269
18385W        W83205  43.540  16.225  14.924
18386W        W83206  24.500  36.666   4.359
18387W        W83207  16.087   0.935   1.736
18388W        W83208  32.997  17.501  14.450
18389W        W83209   4.498  29.638   1.779
18390W        W83210  14.295   6.411  14.001
18391W        W83211  41.465   7.610  14.026
18392W        W83212  31.192  42.991   3.231
18393W        W83213   0.271  16.482  10.794
18394W        W83214  25.273   1.193  11.087
18395W        W83215  34.057  37.113   3.304
18396W        W83216  37.483  32.871   2.673
18397W        W83217  42.403  26.642  14.860
18398W        W83218  40.567  36.447  11.819
18399W        W83219  36.234   1.391   2.840
18400W        W83220  25.246   7.683  13.393
18401W        W83221   3.967  36.917  12.412
18402W        W83222   7.177  21.294  14.813
18403W        W83223  15.717  14.206   1.924
18404W        W83224  24.400  16.582   3.049
18405W        W83225  36.525   6.362   2.218
18406W        W83226  23.494  24.894  14.827
18407W        W83227  32.977  34.303  10.568
18408W        W83228   5.085  38.407  11.165
18409W        W83229  22.503  32.546  14.615
18410W        W83230   9.117  17.969  14.885
18411W        W83231  43.456   4.991  11.650
18412W        W83232  13.621  38.743   4.219
18413W        W83233  38.362  24.678   0.753
18414W        W83234  16.815  30.975   2.662
18415W        W83235  29.912  19.925  10.778
18416W        W83236  34.349  32.032   0.870
18417W        W83237  34.183   1.809  11.967
18418W        W83238   1.465  20.220  11.130
18419W        W83239   2.429  36.347   3.723
18420W        W83240  37.164   9.210  11.510
18421W        W83241  24.201   1.178  12.558
18422W        W83242  38.889  37.521   2.705
18423W        W83243  39.395  27.513  14.492
18424W        W83244  14.504  30.133  14.781
18425W        W83245  24.315  16.919  10.293
18426W        W83246  44.467  37.914   1.152
18427W        W83247  21.207  33.477   0.943
18428W        W83248  21.473  42.448   4.366
18429W        W83249  30.490  15.744   0.619
18430W        W83250  17.242  34.867   2.377
18431W        W83251  31.465  44.525   3.964
18432W        W83252  20.669   4.804   1.263
18433W        W83253  15.438  44.800  10.456
18434W        W83254  33.773  34.824  14.865
18435W        W83255   2.849  13.767   1.457
18436W        W83256   5.409  22.575  12.118
18437W        W83257  11.234  43.887   3.703
18438W        W83258  40.854  28.883  14.600
18439W        W83259   0.040   3.838   4.071
18440W        W83260  40.842   5.202  11.177
18441W        W83261  36.309  32.489   1.523
18442W        W83262  26.665  41.362  10.376
18443W        W83263  19.560  36.836  13.841
18444W        W83264  41.351  12.209  10.435
18445W        W83265  13.094  24.498  11.208
18446W        W83266   9.382  16.342   2.181
18447W        W83267   9.232  10.108  10.942
18448W        W83268  32.079   6.993  12.055
18449W        W83269   7.203   5.462  13.224
18450W        W83270  13.569  33.301   1.051
18451W        W83271  28.190  34.852   1.649
18452W        W83272  39.804  42.730   3.947
18453W        W83273  32.473  42.992  14.326
18454W        W83274   0.764   9.244  13.958
18455W        W83275  13.509  43.032  11.582
18456W        W83276  41.852  10.389   1.315
18457W        W83277   2.804  22.083   1.165
18458W        W83278  25.700  12.708   3.321
18459W        W83279  41.014   9.121  11.526
18460W        W83280  21.945  37.963  11.322
18461W        W83281  41.823   1.429   2.324
18462W        W83282  12.107   6.376  13.982
18463W        W83283  36.455  31.884   3.771
18464W        W83284  29.464  40.505   2.575
18465W        W83285  42.242   9.528  14.606
18466W        W83286  34.417  18.612   1.261
18467W        W83287  29.152  37.084  12.121
18468W        W83288  27.766  11.736   2.742
18469W        W83289  29.845  43.485   4.560
18470W        W83290  20.872  37.646  14.821
18471W        W83291  16.538   8.270   4.803
18472W        W83292  20.593  43.128  10.954
18473W        W83293  12.596  17.707   2.738
18474W        W83294   0.826  12.499  14.770
18475W        W83295  34.512  18.859   9.942
18476W        W83296  44.791  30.409  13.558
18477W        W83297  34.445  41.911   3.245
18478W        W83298   7.785  25.869  11.881
18479W        W83299  17.100  19.093   0.542
18480W        W83300   3.762  10.161   4.009
18481W        W83301  29.969  15.114   3.853
18482W        W83302   5.153   8.644  10.767
18483W        W83303  18.021  13.648  12.900
18484W        W83304  17.805  13.203  10.379
18485W        W83305  34.906   9.339   0.072
18486W        W83306  33.277   1.288   0.020
18487W        W83307  20.531  23.770   3.832
18488W        W83308  30.795  31.626   1.689
18489W        W83309  24.530  14.143   0.929
18490W        W83310   9.156  35.332   3.313
18491W        W83311  16.458   1.086  11.959
18492W        W83312   5.792   5.695   3.589
18493W        W83313  43.843   3.091  14.978
18494W        W83314  21.125  28.475  14.320
18495W        W83315  21.289  29.200  12.037
18496W        W83316  31.560  12.130  13.493
18497W        W83317  24.508  24.206   0.430
18498W        W83318   9.653  17.743   2.091
18499W        W83319  27.927   7.679  14.511
18500W        W83320  29.329  37.493   1.032
18501W        W83321  32.663  25.652   3.089
18502W        W83322  31.882   0.955   4.948
18503W        W83323  20.620  39.114  12.923
18504W        W83324  26.050  10.365   1.779
18505W        W83325  38.550   7.338  11.300
18506W        W83326   0.026  32.907   2.316
18507W        W83327   9.247   2.565  11.660
18508W        W83328  43.975  34.160  12.918
18509W        W83329  28.690  27.543  12.864
18510W        W83330  11.039   1.718  11.102
18511W        W83331  29.485  26.524  10.752
18512W        W83332  14.767  18.123  13.804
18513W        W83333  16.304  13.215   3.164
18514W        W83334   1.910  43.509   1.516
18515W        W83335  33.563   4.902  12.878
18516W        W83336  35.096  40.586   5.003
18517W        W83337  17.404  15.898   9.772
18518W        W83338  17.352  15.296  11.068
18519W        W83339  28.562  17.077  14.557
18520W        W83340  16.998  17.082   1.294
18521W        W83341  24.168  13.824   4.138
18522W        W83342  14.112  24.125   0.217
18523W        W83343  12.687   6.703   4.164
18524W        W83344  34.755  26.273  11.108
18525W        W83345  35.596  36.748   2.960
18526W        W83346  34.909   2.660  13.390
18527W        W83347  19.009  41.867  13.393
18528W        W83348  10.643  33.032  11.159
18529W        W83349  34.009   0.831   1.305
18530W        W83350  12.038  17.281   2.329
18531W        W83351  18.212  28.380  12.906
18532W        W83352  39.941  22.951  13.497
18533W        W83353  43.286  30.604   4.908
18534W        W83354   4.178   0.813   3.975
18535W        W83355  34.995  35.909  12.554
18536W        W83356  27.059  33.217   0.531
18537W        W83357  36.468  22.519   1.181
18538W        W83358   7.254  32.516  14.301
18539W        W83359  35.106  17.225   1.285
18540W        W83360  16.738  35.217   3.785
18541W        W83361  12.881  32.934  14.367
18542W        W83362  40.600  30.099  11.161
18543W        W83363  24.134  20.445  13.318
18544W        W83364  19.398   9.202   0.472
18545W        W83365  12.386  18.400   4.996
18546W        W83366  30.457  25.149   9.859
18547W        W83367  39.909  31.932  14.864
18548W        W83368  39.235   0.714  13.877
18549W        W83369  15.744  16.833   4.472
18550W        W83370  27.097  10.001   1.893
18551W        W83371  15.088  37.881   2.396
18552W        W83372  16.324   3.978   2.742
18553W        W83373  33.198   0.413   0.879
18554W        W83374  23.071  32.115  11.964
18555W        W83375  23.983  17.743  10.926
18556W        W83376  20.973  43.736   2.171
18557W        W83377  40.576  21.633  12.939
18558W        W83378   9.229  21.097   4.100
18559W        W83379  26.039  22.285  12.809
18560W        W83380   4.094  40.576  14.043
18561W        W83381  21.099  25.932  11.524
18562W        W83382  30.891  25.012  11.632
18563W        W83383  37.976  20.185  11.252
18564W        W83384  38.348  42.808  12.199
18565W        W83385  13.266  16.840  12.112
18566W        W83386  27.706  39.513   1.694
18567W        W83387   3.426  16.533  10.244
18568W        W83388  26.203  31.029   1.368
18569W        W83389  42.833   5.529   1.843
18570W        W83390  21.254  13.397  11.439
18571W        W83391   5.741  16.677   3.911
18572W        W83392   9.137  20.540  11.089
18573W        W83393  18.739  34.823  12.017
18574W        W83394   2.908  12.342   1.853
18575W        W83395   3.987  40.396  12.237
18576W        W83396   6.347  19.713   2.008
18577W        W83397  39.654   2.031   0.287
18578W        W83398  40.516  26.799  11.205
18579W        W83399  34.119  17.347  12.368
18580W        W83400   7.658  34.383   3.289
18581W        W83401  33.929  30.669   4.129
18582W        W83402  36.696  15.886  12.934
18583W        W83403  37.456  40.393  11.489
18584W        W83404  32.519  14.151  14.376
18585W        W83405  42.396  22.152   0.935
18586W        W83406   8.735   3.155  13.625
18587W        W83407   7.322  28.325   2.414
18588W        W83408  36.048   4.709   4.345
18589W        W83409  24.539  43.844   3.430
18590W        W83410  37.139  43.949   0.916
18591W        W83411  14.072   7.223   4.703
18592W        W83412   3.423   2.339  13.352
18593W        W83413  42.312   1.894  12.895
18594W        W83414  17.089  15.432  12.812
18595W        W83415  21.090  15.766   4.607
18596W        W83416  20.437  26.452  12.149
18597W        W83417  22.748  39.757   0.988
18598W        W83418  18.225   6.184   1.248
18599W        W83419  12.737  33.547   2.739
18600W        W83420  10.156  33.916   0.431
18601W        W83421  38.119  34.766   4.107
18602W        W83422  35.204  21.549   3.172
18603W        W83423   3.456  35.641   0.012
18604W        W83424  20.610  24.102   3.198
18605W        W83425  29.181  22.167   2.701
18606W        W83426  29.963  24.160  11.964
18607W        W83427   2.755  19.203   2.142
18608W        W83428   5.271  34.876   2.347
18609W        W83429  27.115  24.547   2.912
18610W        W83430  42.843   7.176   1.638
18611W        W83431   8.799  42.399  13.539
18612W        W83432  30.150  26.604  11.466
18613W        W83433  44.946  42.289   1.863
18614W        W83434  23.132  22.674   1.876
18615W        W83435  22.006  33.557  13.913
18616W        W83436  24.448  38.536   4.573
18617W        W83437  40.983  11.236  12.408
18618W        W83438   8.566  27.891   2.169
18619W        W83439  13.256   0.923   3.143
18620W        W83440  37.078  40.390  11.116
18621W        W83441  33.319   0.617   2.984
18622W        W83442  17.835  23.919  12.744
18623W        W83443  39.481  39.142   4.673
18624W        W83444  12.147  12.553  12.106
18625W        W83445  18.531  26.055  14.714
18626W        W83446  12.082  26.542  10.240
18627W        W83447  42.734  19.880   1.263
18628W        W83448   9.387  13.017  10.276
18629W        W83449  13.360  31.779   2.295
18630W        W83450  39.887  25.184   0.920
18631W        W83451  11.257  22.223   0.344
18632W        W83452  39.233  39.886  13.406
18633W        W83453   9.384   4.659  12.583
18634W        W83454  33.288  33.147  14.465
18635W        W83455  24.444   8.628   9.208
18636W        W83456  41.437  40.275  13.913
18637W        W83457  31.113  32.173  14.945
18638W        W83458  27.492  10.630  11.926
18639W        W83459  11.416  25.022   2.845
18640W        W83460   3.259  40.173  14.008
18641W        W83461  33.926   9.236  14.796
18642W        W83462  12.108  15.732  13.396
18643W        W83463  44.767  38.363  14.089
18644W        W83464  13.099  20.005   2.699
18645W        W83465   2.494  11.825   1.217
18646W        W83466  40.741  37.254  12.075
18647W        W83467  20.652   4.950   3.705
18648W        W83468  21.122  25.750   5.010
18649W        W83469  30.927  42.852  11.504
18650W        W83470  20.627  39.967  13.389
18651W        W83471   0.213  15.407   4.154
18652W        W83472  29.940  37.123  13.527
18653W        W83473  42.945   7.245   2.140
18654W        W83474  36.627  16.414   5.367
18655W        W83475  19.173  41.334  12.122
18656W        W83476  28.910   4.193  13.458
18657W        W83477  36.810  20.487  13.874
18658W        W83478   4.742  16.176   1.654
18659W        W83479   7.228  23.074   0.197
18660W        W83480  31.235  30.166   0.869
18661W        W83481  10.841  35.854  11.551
18662W        W83482  27.928  43.508  14.898
18663W        W83483  37.082  33.892  12.436
18664W        W83484  32.665  32.080   1.877
18665W        W83485  31.845  33.675  12.717
18666W        W83486  25.266  10.423   2.271
18667W        W83487   4.997  41.105  14.964
18668W        W83488  23.639   8.413  13.251
18669W        W83489  11.305  31.164   3.338
18670W        W83490  40.978  19.958   2.282
18671W        W83491  35.442   3.629  12.991
18672W        W83492   7.216   3.240   1.447
18673W        W83493  21.792  14.276   0.470
18674W        W83494  13.084  13.776   2.836
18675W        W83495  18.806  38.388   3.977
18676W        W83496  24.318  42.408  13.069
18677W        W83497  16.650  28.523   3.909
18678W        W83498  41.592  13.672  11.142
18679W        W83499  36.584  16.503  14.863
18680W        W83500  29.265  12.244  13.912
18681W        W83501  15.579   9.687  12.044
18682W        W83502   4.827  13.000  14.978
18683W        W83503  27.340  27.020   4.603
18684W        W83504  38.114   0.855   0.871
18685W        W83505   5.167  15.066  14.974
18686W        W83506  34.303  31.431  14.566
18687W        W83507  40.409  22.291  14.395
18688W        W83508  30.517  44.229   0.722
18689W        W83509  23.692  13.029  11.609
18690W        W83510  21.142  35.103   4.452
18691W        W83511   4.489  34.934  14.942
18692W        W83512  44.838  21.659   2.901
18693W        W83513  44.353  25.664   1.778
18694W        W83514  11.444  44.631  11.642
18695W        W83515  13.811  38.207  13.677
18696W        W83516  29.928  42.659   1.684
18697W        W83517  18.364  25.919  11.118
18698W        W83518  33.641  36.947  10.499
18699W        W83519  21.624  38.469  11.877
18700W        W83520  14.166  15.851   2.850
18701W        W83521  38.779  24.687   4.545
18702W        W83522  38.860  24.872  14.581
18703W        W83523  13.648  39.365   3.606
18704W        W83524  42.949   4.561   0.832
18705W        W83525  42.958  38.302   4.052
18706W        W83526  40.475   5.693   2.765
18707W        W83527  23.159  23.717  13.389
18708W        W83528   9.958  40.324  11.715
18709W        W83529  14.768   0.299  10.622
18710W        W83530   7.851  32.532   0.531
18711W        W83531  16.345  14.421  14.817
18712W        W83532  21.666  16.626  11.801
18713W        W83533  19.671  38.006  12.458
18714W        W83534  28.663  29.404  11.078
18715W        W83535  35.838   9.372  10.240
18716W        W83536   5.110  10.873  10.454
18717W        W83537  22.147  10.168  14.440
18718W        W83538  26.294  21.468  12.551
18719W        W83539  14.523  43.647  11.188
18720W        W83540  26.950  35.562   4.557
18721W        W83541  20.309   8.219   2.246
18722W        W83542  21.743  36.467  13.104
18723W        W83543  29.106   3.248  12.535
18724W        W83544   3.172  36.557  14.813
18725W        W83545  44.209  43.831   2.333
18726W        W83546  31.033  23.489   3.213
18727W        W83547  44.573  21.333  11.134
18728W        W83548  18.770  20.241   2.955
18729W        W83549  29.874  34.691  10.202
18730W        W83550  30.900  11.883   3.618
18731W        W83551   6.355  17.841  12.262
18732W        W83552  29.366  43.948  13.886
18733W        W83553   6.189  20.154  11.499
18734W        W83554  22.063   1.063   0.446
18735W        W83555  37.049   0.037   4.566
18736W        W83556   9.203  39.892   1.761
18737W        W83557  40.445   1.051  10.228
18738W        W83558  28.009   4.377  14.824
18739W        W83559   2.863  43.373   1.880
18740W        W83560  10.813  16.806  14.963
18741W        W83561  10.359  14.630  11.541
18742W        W83562  15.710  17.357   4.443
18743W        W83563  44.280   6.655   3.740
18744W        W83564  28.705   4.701   3.155
18745W        W83565  25.423  42.914  10.759
18746W        W83566   5.916  14.095   1.403
18747W        W83567   4.450  12.091   1.258
18748W        W83568  27.503  10.158  13.739
18749W        W83569  37.235  21.768  12.897
18750W        W83570   2.796  23.510  11.422
18751W        W83571  19.245  41.807  10.506
18752W        W83572   9.255   6.610  13.044
18753W        W83573  37.954  35.888   2.633
18754W        W83574  44.807  43.841   4.076
18755W        W83575  33.388  41.793  14.784
18756W        W83576  29.667  17.047   4.858
18757W        W83577  20.797  37.318   5.049
18758W        W83578  29.214  30.877  10.630
18759W        W83579  11.064   7.358  11.938
18760W        W83580   9.950   9.945  14.727
18761W        W83581  16.718  10.660  14.423
18762W        W83582  16.384  31.556   3.672
18763W        W83583  38.400   0.815  14.299
18764W        W83584  40.855  36.927   0.231
18765W        W83585  41.114  25.105  12.215
18766W        W83586   9.772  34.389  12.658
18767W        W83587   6.702  33.801  12.075
18768W        W83588  32.962   1.111  11.166
18769W        W83589  17.579  27.938   4.843
18770W        W83590  33.627   3.661  14.513
18771W        W83591  14.616  21.706   0.506
18772W        W83592   4.344   8.832   1.725
18773W        W83593   4.165  34.877   0.870
18774W        W83594  24.864  37.965  11.511
18775W        W83595   4.247  38.456  10.700
18776W        W83596  16.167  25.548  14.965
18777W        W83597   7.594  13.620  12.451
18778W        W83598   3.519  33.563   0.932
18779W        W83599   0.350  18.715  10.651
18780W        W83600  41.671  41.700   0.841
18781W        W83601  38.217  32.998  14.413
18782W        W83602  12.348  31.960  12.852
18783W        W83603  21.560  23.253  14.303
18784W        W83604   5.457  27.670   0.292
18785W        W83605   6.288  29.872  12.882
18786W        W83606   1.252  33.437  12.551
18787W        W83607  22.601  14.918  13.083
18788W        W83608  36.830   6.257   3.200
18789W        W83609   1.575   1.951   3.405
18790W        W83610  44.698  12.650  14.825
18791W        W83611   4.657   2.377   1.634
18792W        W83612  15.542  31.092  10.598
18793W        W83613  25.076   6.645   2.695
18794W        W83614  21.521  23.496  12.104
18795W        W83615  41.883   8.093  13.512
18796W        W83616  22.208  14.780   3.787
18797W        W83617   5.986   0.356  13.468
18798W        W83618  38.609  42.014   0.919
18799W        W83619  34.657  10.808   1.169
18800W        W83620   1.237   4.753  11.667
18801W        W83621  23.159  25.529   4.662
18802W        W83622  20.304  11.295   2.169
18803W        W83623  12.714  24.673  14.350
18804W        W83624  16.692  31.788  10.111
18805W        W83625  39.945  34.976   1.254
18806W        W83626   9.297  32.023   2.669
18807W        W83627  38.202  40.419  13.048
18808W        W83628  29.532   9.711  12.066
18809W        W83629   9.839   1.155  14.710
18810W        W83630  18.412  44.318   1.404
18811W        W83631  33.645  26.165  11.702
18812W        W83632  34.492  15.150   2.664
18813W        W83633  21.128  29.910  13.409
18814W        W83634   5.307  10.673  11.160
18815W        W83635  37.628   5.310  10.290
18816W        W83636  44.714   9.770   0.843
18817W        W83637  10.462  38.978  13.084
18818W        W83638  42.722   4.538   1.951
18819W        W83639  13.314  19.014  14.881
18820W        W83640  36.007  26.709   1.398
18821W        W83641   9.394  41.542  11.553
18822W        W83642  28.396  31.856  11.391
18823W        W83643  40.444   8.249  10.747
18824W        W83644  33.520  14.360  13.049
18825W        W83645  11.298  33.488  13.934
18826W        W83646  33.920  41.279   1.417
18827W        W83647  40.384  43.760   2.763
18828W        W83648  35.350   2.498   0.060
18829W        W83649  35.913  17.326  14.737
18830W        W83650   1.423  37.775   0.021
18831W        W83651  25.579  19.773  12.325
18832W        W83652  31.254   0.043   1.417
18833W        W83653  19.442   7.860  13.928
18834W        W83654  42.705  20.654  14.892
18835W        W83655  19.118   3.819   0.289
18836W        W83656  11.362  42.276   1.827
18837W        W83657  34.462   1.875   4.125
18838W        W83658  30.445  37.611   1.737
18839W        W83659  39.599  28.833   1.257
18840W        W83660  17.262   7.161   5.055
18841W        W83661  38.810  20.673  13.874
18842W        W83662  20.730  34.569   3.742
18843W        W83663  30.077  33.892   4.838
18844W        W83664  11.917  42.697   4.364
18845W        W83665   8.144  28.167  12.035
18846W        W83666   2.512  44.399   1.393
18847W        W83667  30.346  15.957  13.910
18848W        W83668  26.300   7.886  11.609
18849W        W83669  31.867  24.739   0.981
18850W        W83670  30.876   3.354   2.225
18851W        W83671  37.033  27.140  14.848
18852W        W83672  15.375  20.749   0.956
18853W        W83673  18.554  31.532  10.591
18854W        W83674   2.354   5.773   3.367
18855W        W83675  12.038  35.576   3.178
18856W        W83676  35.581  16.183  14.835
18857W        W83677   3.088  41.346  11.099
18858W        W83678  14.247  35.033  12.944
18859W        W83679  20.589  32.939  12.975
18860W        W83680  34.552  17.094   0.524
18861W        W83681  37.041  21.036  14.523
18862W        W83682  22.729  11.597   3.260
18863W        W83683  33.172   1.187  13.307
18864W        W83684  40.525   5.822   3.265
18865W        W83685   9.880  43.534  13.571
18866W        W83686  37.416   5.262   1.348
18867W        W83687   5.528  42.387  11.485
18868W        W83688  16.520  21.110  14.568
18869W        W83689  28.977  13.556   0.365
18870W        W83690  36.135  42.881  12.676
18871W        W83691   0.709   8.321   1.908
18872W        W83692  11.733  21.794   2.647
18873W        W83693  32.272  14.971   2.905
18874W        W83694  44.765   8.822  14.576
18875W        W83695  14.629  25.784   2.791
18876W        W83696  28.310   1.662   4.738
18877W        W83697   2.880  17.210   1.476
18878W        W83698  32.850  40.699   1.282
18879W        W83699  28.573  33.862   3.995
18880W        W83700  35.860  30.649  10.570
18881W        W83701  22.607  19.510  12.435
18882W        W83702  16.694   7.777   3.609
18883W        W83703  28.357  22.568  12.858
18884W        W83704  12.902  28.902  11.924
18885W        W83705  21.471  39.103   3.270
18886W        W83706   4.872  39.346   4.047
18887W        W83707   4.978  30.186  13.133
18888W        W83708   6.392  20.793   4.161
18889W        W83709  34.856  42.372   4.156
18890W        W83710  31.070  25.737   2.192
18891W        W83711  21.654  33.928  14.925
18892W        W83712  40.425   1.468  10.567
18893W        W83713   5.293  32.169  11.099
18894W        W83714  21.902  37.974  14.708
18895W        W83715   5.387   0.890   4.601
18896W        W83716  18.626   8.960  12.556
18897W        W83717  20.901  17.561   3.427
18898W        W83718   6.659  15.107   2.815
18899W        W83719  29.971   8.357   4.320
18900W        W83720  41.833  25.458   1.436
18901W        W83721  23.768  28.377   2.358
18902W        W83722  18.531  31.050  12.455
18903W        W83723  26.684  20.724   5.525
18904W        W83724  39.829  21.199  10.656
18905W        W83725  10.961  17.572  11.114
18906W        W83726  10.930   1.686   2.848
18907W        W83727   6.721   9.913   0.895
18908W        W83728   9.374  15.703   5.490
18909W        W83729  15.127  13.159  14.372
18910W        W83730  27.978  24.564   0.446
18911W        W83731  41.582   2.311  14.524
18912W        W83732  28.570   9.041   1.114
18913W        W83733   9.235  43.243  13.363
18914W        W83734  32.694  44.778  13.215
18915W        W83735   6.249   2.346  11.578
18916W        W83736   3.808  35.312  14.086
18917W        W83737   2.213  10.346   3.229
18918W        W83738  12.390  35.987  11.179
18919W        W83739  22.699  13.271   0.400
18920W        W83740   8.943  35.387   3.771
18921W        W83741   9.648  20.304   0.946
18922W        W83742  42.971  37.507  14.419
18923W        W83743  29.997   5.734   0.323
18924W        W83744   0.089   9.353   1.819
18925W        W83745   1.288  16.730   0.637
18926W        W83746  29.453  41.754   1.011
18927W        W83747  12.395  10.253  13.093
18928W        W83748  24.741  29.373  14.867
18929W        W83749  13.413   2.210   4.561
18930W        W83750  29.553  21.795  13.505
18931W        W83751  36.001  31.731  14.863
18932W        W83752  14.041  20.679  13.452
18933W        W83753   5.233  26.262   2.343
18934W        W83754   0.784  25.726  14.494
18935W        W83755  13.762  15.239  11.533
18936W        W83756   7.424  44.312  12.007
18937W        W83757  27.514  26.673   5.009
18938W        W83758   7.584  22.267  12.640
18939W        W83759  34.644  22.661   1.235
18940W        W83760  42.329  36.385  14.484
18941W        W83761  33.114  28.022   2.830
18942W        W83762  17.582  17.055   0.399
18943W        W83763  43.423  11.154  13.829
18944W        W83764  42.171  26.670  13.983
18945W        W83765   9.549   2.592   4.093
18946W        W83766  37.573  20.316   2.933
18947W        W83767  25.219  12.538   3.224
18948W        W83768  17.836   5.059  14.982
18949W        W83769  23.969  29.717  14.927
18950W        W83770  23.608  35.611  13.203
18951W        W83771  22.556  21.692   3.596
18952W        W83772   4.840  36.436  11.813
18953W        W83773  33.077   2.762   0.721
18954W        W83774  23.675  25.256  13.879
18955W        W83775   9.346  21.102  12.924
18956W        W83776  28.096  31.061   1.998
18957W        W83777  23.129  36.761   2.568
18958W        W83778  28.576   5.999   4.608
18959W        W83779  27.669  30.542  12.866
18960W        W83780  16.697  34.819  13.395
18961W        W83781  34.633   1.998  14.454
18962W        W83782  32.696   2.337   2.828
18963W        W83783   5.911   7.731  11.101
18964W        W83784  22.999  28.097  11.060
18965W        W83785  18.986  13.626  11.078
18966W        W83786  12.792   2.114  12.373
18967W        W83787   4.056  17.733   3.034
18968W        W83788  43.497  24.712   2.360
18969W        W83789  25.721  11.762   1.906
18970W        W83790   2.740   1.726   1.157
18971W        W83791  39.385   9.603   0.293
18972W        W83792  29.621   0.927  12.516
18973W        W83793  25.084  44.182   2.257
18974W        W83794  31.688  14.101   2.802
18975W        W83795   6.438  42.444  14.459
18976W        W83796   8.355   6.202  11.617
18977W        W83797  39.734  32.976   3.285
18978W        W83798  43.009  23.932   1.805
18979W        W83799  27.668   5.456   2.356
18980W        W83800  40.579  41.507  12.388
18981W        W83801   9.856  32.512  13.071
18982W        W83802  13.770   4.824   0.836
18983W        W83803  43.887   0.944  12.898
18984W        W83804  19.636  41.397   4.101
18985W        W83805  41.218  40.079  13.463
18986W        W83806  33.874  10.721   0.711
18987W        W83807   7.823  39.394   1.798
18988W        W83808  37.493  22.648   5.009
18989W        W83809  17.746  27.441  10.614
18990W        W83810   3.895  43.959  11.475
18991W        W83811  12.977   9.578   2.937
18992W        W83812  27.054   2.023   0.040
18993W        W83813  11.766   6.792   0.168
18994W        W83814  26.957  18.682  13.877
18995W        W83815   0.261  37.021   1.735
18996W        W83816  37.925  11.825   2.340
18997W        W83817  39.661  29.137   0.027
18998W        W83818   5.662  12.364   4.712
18999W        W83819  14.550  11.190   1.421
19000W        W83820   9.832  27.983  11.423
19001W        W83821  19.028  41.320  11.132
19002W        W83822  20.766  38.480  11.892
19003W        W83823  31.492  20.778  11.064
19004W        W83824  35.364  11.296   9.753
19005W        W83825  32.587  35.269  14.806
19006W        W83826  25.479  27.646  12.511
19007W        W83827   5.359  27.425   2.916
19008W        W83828  23.203  37.977  10.462
19009W        W83829   7.022  18.265  11.448
19010W        W83830  41.077  23.668  12.435
19011W        W83831   4.477  13.122  14.582
19012W        W83832   0.320  25.538   3.609
19013W        W83833  31.082  34.886  12.938
19014W        W83834  21.884  31.078   0.944
19015W        W83835  16.425  22.441  11.722
19016W        W83836  41.533  14.049  12.722
19017W        W83837   4.479  33.404   0.851
19018W        W83838  37.999  43.501  14.492
19019W        W83839  34.009  39.504   1.499
19020W        W83840   4.335   5.305  13.862
19021W        W83841   0.476  32.109   4.221
19022W        W83842   2.458   6.530  13.922
19023W        W83843  36.593   2.239   0.458
19024W        W83844  28.891   1.728  10.810
19025W        W83845  40.356  41.930   3.120
19026W        W83846  23.661   7.637   1.145
19027W        W83847   3.188  41.237  12.943
19028W        W83848   5.565   4.709  12.193
19029W        W83849  31.863  27.779   2.683
19030W        W83850   2.666  44.289   0.814
19031W        W83851  21.047  43.991  14.930
19032W        W83852  23.188  17.151  13.395
19033W        W83853  12.518  39.538   4.399
19034W        W83854  12.154  43.467  14.484
19035W        W83855   3.283  34.498  11.679
19036W        W83856  19.558   0.831  12.976
19037W        W83857  28.940  10.294   4.083
19038W        W83858   8.012  11.449  13.931
19039W        W83859  25.420  41.009  13.993
19040W        W83860  42.128   3.680   3.376
19041W        W83861  10.086   6.244   5.048
19042W        W83862   2.430  19.231  12.796
19043W        W83863  29.050  16.696  11.905
19044W        W83864   7.917  24.476   0.011
19045W        W83865   2.732  31.654  10.709
19046W        W83866  24.430   2.388   3.201
19047W        W83867  19.204   4.537   1.097
19048W        W83868  14.715  11.630  10.757
19049W        W83869  44.520   3.211   0.387
19050W        W83870  37.874   6.687  10.664
19051W        W83871   3.618  18.241   0.268
19052W        W83872  11.737  40.886  14.940
19053W        W83873  16.301  44.290   3.240
19054W        W83874  22.719  40.053  14.377
19055W        W83875  17.843   3.856  11.591
19056W        W83876  29.459  31.510   4.206
19057W        W83877  22.567  41.804   2.385
19058W        W83878  35.298  23.312  11.228
19059W        W83879  31.344  43.956  14.578
19060W        W83880  13.310  35.169   5.037
19061W        W83881  33.562  40.275   3.192
19062W        W83882   1.262   7.503  12.672
19063W        W83883  23.557  31.904   1.196
19064W        W83884  16.571  27.648  11.133
19065W        W83885  31.332  23.309   4.701
19066W        W83886  28.905   7.539  12.296
19067W        W83887   2.680  29.020   2.434
19068W        W83888  24.514  31.725   0.686
19069W        W83889  31.868   3.378  14.253
19070W        W83890  42.949  42.017  10.551
19071W        W83891  19.941   7.199  12.519
19072W        W83892  37.021  31.387  13.745
19073W        W83893  12.837  30.814   2.242
19074W        W83894  22.745  29.468   2.836
19075W        W83895  26.941   0.883   3.922
19076W        W83896   4.376  37.364   3.238
19077W        W83897  25.126  17.186   1.366
19078W        W83898  40.857  13.971   2.242
19079W        W83899  21.246  17.830   3.723
19080W        W83900  32.396   7.829   2.203
19081W        W83901  35.228  25.178   3.771
19082W        W83902  40.547  36.314  14.785
19083W        W83903  18.275   3.537  11.071
19084W        W83904  29.468  14.340  10.316
19085W        W83905  44.955  43.463  10.853
19086W        W83906  44.324  38.787  14.239
19087W        W83907  19.762  28.828  12.020
19088W        W83908  20.227  42.396  12.005
19089W        W83909   6.205  18.347   0.938
19090W        W83910   4.409  16.072  10.663
19091W        W83911  40.765   2.859   2.628
19092W        W83912  12.505  15.327  13.402
19093W        W83913  13.208  12.204  10.664
19094W        W83914  21.255  19.479  13.465
19095W        W83915  31.206  31.507  13.408
19096W        W83916  43.431  35.399  11.217
19097W        W83917  41.200  24.032  14.300
19098W        W83918  27.187  11.761  13.160
19099W        W83919  27.938  40.779  14.929
19100W        W83920  31.147  11.679   1.759
19101W        W83921  28.312  21.224  13.553
19102W        W83922  41.691  40.073  12.969
19103W        W83923  26.706  30.960  13.390
19104W        W83924  20.718  11.641   5.265
19105W        W83925   0.780  13.114  13.955
19106W        W83926  17.622  25.525   3.177
19107W        W83927  29.502  33.091  13.870
19108W        W83928  36.165   0.325  11.616
19109W        W83929  30.022  22.925  13.854
19110W        W83930  33.835  19.821  13.606
19111W        W83931  30.128   9.056  11.194
19112W        W83932  27.188  29.130   0.958
19113W        W83933  40.011  44.935  10.965
19114W        W83934  37.835  28.101  14.479
19115W        W83935  10.565  24.515   4.515
19116W        W83936  37.110   3.746  13.804
19117W        W83937  35.087  13.776   1.407
19118W        W83938  18.525   2.073   3.857
19119W        W83939  43.032  44.739   1.152
19120W        W83940  15.121  32.191  13.527
19121W        W83941  33.012  21.502  11.637
19122W        W83942  17.883  17.222  14.611
19123W        W83943  38.070  40.466   4.138
19124W        W83944  38.812   7.716   1.936
19125W        W83945  41.505  22.113   2.368
19126W        W83946  15.654  31.601  12.051
19127W        W83947   7.223  22.839   2.155
19128W        W83948   7.712  38.830   4.615
19129W        W83949  32.013  36.027   1.731
19130W        W83950  44.211  27.143   4.173
19131W        W83951  24.488   9.141   1.745
19132W        W83952   1.425  34.015   3.682
19133W        W83953  39.478   7.262  11.570
19134W        W83954   3.162   4.244   3.966
19135W        W83955  30.515  44.727   0.787
19136W        W83956  43.541  11.435   2.670
19137W        W83957  13.086  18.883   1.210
19138W        W83958  26.732  26.004   4.601
19139W        W83959   0.656  11.643  10.290
19140W        W83960  11.135   5.093  10.370
19141W        W83961  27.736   3.975   1.692
19142W        W83962  37.854  18.348  11.069
19143W        W83963   4.604  41.538  11.176
19144W        W83964  35.992  24.676   4.066
19145W        W83965  36.088  36.970   3.145
19146W        W83966  12.296  12.182   4.930
19147W        W83967  32.587  38.093  14.723
19148W        W83968  38.042  38.384   2.774
19149W        W83969  23.560   3.967   2.243
19150W        W83970  34.483  35.585   1.907
19151W        W83971  38.889   5.595   2.867
19152W        W83972   4.486  44.529   3.538
19153W        W83973  38.897   2.437   3.347
19154W        W83974  22.501  25.700  14.517
19155W        W83975  29.958   0.874  14.821
19156W        W83976  44.006  40.581  13.073
19157W        W83977  21.032  34.982  12.583
19158W        W83978  20.186  34.503  11.168
19159W        W83979  32.234   6.291   4.019
19160W        W83980  37.180  37.585  14.384
19161W        W83981   2.850   5.558  11.980
19162W        W83982  10.353   3.064  13.547
19163W        W83983   9.344  26.594  11.090
19164W        W83984   4.329  37.473   4.605
19165W        W83985  29.094  39.286   2.239
19166W        W83986   9.253  29.397  11.949
19167W        W83987  28.167  32.920   2.230
19168W        W83988  36.415  35.010  12.713
19169W        W83989  14.493  40.700  14.881
19170W        W83990  36.683  26.587  13.046
19171W        W83991  23.383  38.857  14.072
19172W        W83992  39.347  12.719   4.039
19173W        W83993  26.392  30.257   2.529
19174W        W83994  26.187  13.986  14.541
19175W        W83995   1.027  30.504  12.702
19176W        W83996  44.063  36.855   1.243
19177W        W83997  28.918  41.283  11.131
19178W        W83998  25.592  17.713  12.820
19179W        W83999  17.259  21.109   2.204
19180W        W84000  29.390   6.837  13.750
19181W        W84001   0.798  10.538   0.497
19182W        W84002  19.280   2.930  10.975
19183W        W84003  41.983   1.866  10.732
19184W        W84004  30.592  17.375  13.367
19185W        W84005  13.152  21.968   4.559
19186W        W84006  13.610  40.526   3.833
19187W        W84007  16.240   0.043   1.745
19188W        W84008   4.372  32.392   3.322
19189W        W84009  35.129  20.943  11.485
19190W        W84010   4.806  41.064   4.519
19191W        W84011  35.008  32.553   1.752
19192W        W84012  23.320  16.329  12.016
19193W        W84013  21.524  40.098   1.874
19194W        W84014  29.413  21.579  10.920
19195W        W84015  32.595   4.196  11.185
19196W        W84016  16.628  16.099  11.116
19197W        W84017  12.810   3.897   1.985
19198W        W84018  28.452   4.735  10.985
19199W        W84019  14.258  24.938   3.808
19200W        W84020  20.579  36.255  14.064
19201W        W84021  40.761  26.763  11.642
19202W        W84022   4.692   4.914   2.780
19203W        W84023  17.101  39.004   1.391
19204W        W84024  16.547   0.847   3.281
19205W        W84025  28.841  18.796  13.194
19206W        W84026  30.973   9.762   3.250
19207W        W84027   9.933  44.403  11.426
19208W        W84028  13.316  41.612  14.983
19209W        W84029  37.041  26.455   1.488
19210W        W84030  39.141  16.635  11.884
19211W        W84031  12.655   4.001  12.495
19212W        W84032  32.867  22.916   0.800
19213W        W84033   7.350  20.233   1.328
19214W        W84034  31.577  36.777  12.793
19215W        W84035  25.157  39.775   0.375
19216W        W84036  28.964  25.731   1.936
19217W        W84037  36.409  39.246  12.467
19218W        W84038  33.420  26.868  14.263
19219W        W84039  15.221  15.364  14.146
19220W        W84040   5.974  21.514   0.913
19221W        W84041  20.448  13.524   2.569
19222W        W84042  44.816  31.899  12.499
19223W        W84043  25.087  40.584   1.720
19224W        W84044   4.423   4.036  14.421
19225W        W84045   6.086  42.407   1.205
19226W        W84046  39.720  43.275   1.532
19227W        W84047  44.514  13.873   2.777
19228W        W84048  14.506  17.843  14.181
19229W        W84049  39.899  31.697  13.334
19230W        W84050  16.792  36.946   3.532
19231W        W84051  44.971   5.862  14.411
19232W        W84052  11.816  37.863   4.866
19233W        W84053  34.347  11.259   0.209
19234W        W84054  40.778  29.634   2.765
19235W        W84055   9.962  19.833   4.837
19236W        W84056   4.466  26.055  10.320
19237W        W84057  37.422  41.307   4.205
19238W        W84058  30.697   3.187  14.870
19239W        W84059  22.108  35.118  10.374
19240W        W84060   2.290   7.614   0.918
19241W        W84061  31.697   8.281  11.109
19242W        W84062  44.264  17.569  13.050
19243W        W84063  38.833   2.848  10.026
19244W        W84064  17.708  42.239   4.523
19245W        W84065  42.685  11.125   1.326
19246W        W84066  31.071  19.780   2.789
19247W        W84067  34.353  40.506  14.348
19248W        W84068  32.509  11.966  11.614
19249W        W84069  34.540  10.532   0.750
19250W        W84070  19.787   2.484   0.294
19251W        W84071  10.797  20.742  12.645
19252W        W84072  38.948  12.161  14.931
19253W        W84073  13.587   2.509  11.975
19254W        W84074   0.201  24.175  11.130
19255W        W84075  39.293  26.171  11.420
19256W        W84076  21.491   0.420   1.341
19257W        W84077  29.899   0.188  10.939
19258W        W84078  19.498   7.569   4.658
19259W        W84079   6.440  17.128   2.255
19260W        W84080   3.244   2.326  11.886
19261W        W84081  40.367   6.372   1.763
19262W        W84082  32.555   8.857   0.252
19263W        W84083  26.704  31.544   0.881
19264W        W84084  27.671  23.964   0.306
19265W        W84085  33.616   8.250  13.079
19266W        W84086  14.779  36.015   1.247
19267W        W84087  33.859  38.935   0.044
19268W        W84088   5.806   3.449   3.460
19269W        W84089   7.683  26.715  11.311
19270W        W84090  25.990  39.385  11.063
19271W        W84091  24.103  34.896  10.478
19272W        W84092  34.862   7.175  11.164
19273W        W84093  39.467  29.351   0.452
19274W        W84094  36.534  41.059   4.639
19275W        W84095   2.250  10.067   0.884
19276W        W84096  43.056  37.379   2.337
19277W        W84097  20.464  29.695   0.179
19278W        W84098  13.177  30.948  11.677
19279W        W84099  33.223  30.487  14.621
19280W        W84100  30.556  33.145  14.010
19281W        W84101  31.510  25.885   2.468
19282W        W84102  36.895  10.744  14.798
19283W        W84103   2.788  22.250   0.667
19284W        W84104  44.599  44.169   3.153
19285W        W84105  26.996   0.793   2.341
19286W        W84106   5.014  35.877   0.230
19287W        W84107   4.673  23.470  12.392
19288W        W84108  43.307  15.354  13.930
19289W        W84109  12.876   9.146  12.345
19290W        W84110  25.835  25.685  10.611
19291W        W84111  13.196  34.302  14.463
19292W        W84112  21.653  41.990   4.177
19293W        W84113  29.493  24.549   3.642
19294W        W84114  16.773   6.742   0.799
19295W        W84115  15.181  11.685   2.844
19296W        W84116  19.174   4.748  12.037
19297W        W84117  28.651  20.151  12.296
19298W        W84118  34.140  43.020  13.616
19299W        W84119  14.913  33.404   2.049
19300W        W84120  21.542  13.403  10.327
19301W        W84121  27.964  25.547  13.458
19302W        W84122  18.091  22.023  13.555
19303W        W84123  42.023  18.622   1.756
19304W        W84124   0.037  39.739   3.232
19305W        W84125  44.184  11.601  13.399
19306W        W84126   8.906  23.517  11.513
19307W        W84127  36.148  36.102   3.345
19308W        W84128  41.554  21.748  12.300
19309W        W84129  25.526  18.294   1.756
19310W        W84130  35.434  41.510   1.235
19311W        W84131  10.822   9.685  13.088
19312W        W84132   4.730  10.279   0.577
19313W        W84133   8.145  17.555   3.729
19314W        W84134  10.533  21.619   0.229
19315W        W84135  27.961  16.506   1.754
19316W        W84136  13.074  13.473   2.395
19317W        W84137  37.101  17.653   1.228
19318W        W84138  22.008  12.225   2.813
19319W        W84139  17.309   2.548  10.927
19320W        W84140  10.683  31.164  13.018
19321W        W84141  35.952  19.803  11.539
19322W        W84142  42.850  28.112  12.652
19323W        W84143   4.207  32.658  14.349
19324W        W84144  21.343   7.716   4.422
19325W        W84145   4.725  13.407   2.421
19326W        W84146   6.259  28.275  10.609
19327W        W84147   5.949   0.319   0.888
19328W        W84148   8.142  31.580  14.221
19329W        W84149   4.559  35.030   4.000
19330W        W84150  20.082  27.470  10.554
19331W        W84151  25.261   8.747   2.184
19332W        W84152   7.227   5.935   1.449
19333W        W84153  11.212  22.636   3.046
19334W        W84154  11.826  25.148   2.324
19335W        W84155  19.304   4.999  10.681
19336W        W84156   4.511  41.303  10.732
19337W        W84157  42.759   3.969   2.782
19338W        W84158  32.927  37.898  12.415
19339W        W84159  39.055  15.158   0.419
19340W        W84160   6.836  17.276   4.214
19341W        W84161  41.282  32.494  12.048
19342W        W84162  41.278  12.415  13.787
19343W        W84163   6.945   4.272   1.428
19344W        W84164   0.484   0.914  13.870
19345W        W84165  33.298  18.499  10.908
19346W        W84166  38.274   0.545  10.046
19347W        W84167  40.961  17.183  14.802
19348W        W84168  24.550   4.497  12.685
19349W        W84169  27.653  14.534  14.813
19350W        W84170  32.608  21.085  10.673
19351W        W84171  35.102  16.346   0.934
19352W        W84172  36.393  43.939  10.510
19353W        W84173   2.845   9.286  12.977
19354W        W84174  42.447  30.822   0.542
19355W        W84175   3.418  36.590   2.225
19356W        W84176  31.910   7.799  12.886
19357W        W84177  19.863   3.623   9.927
19358W        W84178  18.865  22.968   2.638
19359W        W84179  33.603  33.873  10.853
19360W        W84180   6.609  27.397   1.339
19361W        W84181   0.283   0.946   0.295
19362W        W84182  38.613  43.433   0.619
19363W        W84183  21.781  32.534  12.880
19364W        W84184  37.942  13.858  14.998
19365W        W84185   2.259  14.574   0.389
19366W        W84186  14.266   0.080  14.373
19367W        W84187  29.970  21.383  10.152
19368W        W84188  43.899  18.723  10.785
19369W        W84189  44.725  38.541  11.770
19370W        W84190  10.950   6.802  11.070
19371W        W84191  38.549  23.784   0.620
19372W        W84192  34.031  22.636  13.471
19373W        W84193  41.956  10.292   4.570
19374W        W84194  13.245  20.794   4.086
19375W        W84195  12.219  31.700   0.424
19376W        W84196  18.834  37.510  13.953
19377W        W84197   0.256  30.706   0.404
19378W        W84198  33.698  34.987  12.656
19379W        W84199   6.748   3.639  12.481
19380W        W84200  26.086  34.482   2.338
19381W        W84201  27.538  34.658   0.925
19382W        W84202  32.191  33.686  10.479
19383W        W84203  15.262  35.187   0.441
19384W        W84204  40.966  34.019   3.601
19385W        W84205   4.123  25.493   0.274
19386W        W84206  31.485  10.401  11.560
19387W        W84207  35.482  15.135   0.788
19388W        W84208  23.793  31.628   3.292
19389W        W84209   7.643  18.260   1.992
19390W        W84210   1.295  31.656   4.444
19391W        W84211   9.426  39.366  14.748
19392W        W84212  30.650   8.338  11.965
19393W        W84213   0.088  10.154   3.269
19394W        W84214  38.342  24.628   4.829
19395W        W84215  44.484   5.335  13.599
19396W        W84216  12.039  10.208   3.189
19397W        W84217  11.873   1.729  10.427
19398W        W84218  24.053   3.151   4.469
19399W        W84219  44.996   4.164   2.309
19400W        W84220  34.608  11.354  14.767
19401W        W84221  35.630  24.213  13.825
19402W        W84222   4.990  22.946   3.609
19403W        W84223   1.795   0.993  11.191
19404W        W84224  18.661  20.726  14.799
19405W        W84225  31.638  39.819  14.249
19406W        W84226  29.424  14.055  11.278
19407W        W84227  16.371  20.428  13.980
19408W        W84228  39.796  39.538   3.744
19409W        W84229  15.207   0.865  13.455
19410W        W84230  35.494  19.678  12.067
19411W        W84231  35.420  24.744   3.556
19412W        W84232   0.441  12.131   3.696
19413W        W84233  27.148  27.479  10.654
19414W        W84234  22.903  12.372   2.938
19415W        W84235  17.698  13.224   3.927
19416W        W84236  12.615  11.317   4.511
19417W        W84237  17.550  40.385  13.766
19418W        W84238  34.473  44.499  11.385
19419W        W84239  20.603  20.485  11.933
19420W        W84240  32.540   6.924   4.374
19421W        W84241   1.804  25.625  14.581
19422W        W84242   1.126  22.264   2.842
19423W        W84243  35.152   7.417   4.661
19424W        W84244   7.097  37.355   1.498
19425W        W84245  14.956  18.849   3.733
19426W        W84246  39.230  27.378   3.353
19427W        W84247  25.265  38.878  11.058
19428W        W84248  22.966  11.131   3.287
19429W        W84249  16.123  33.218   0.508
19430W        W84250  10.339  34.849   2.448
19431W        W84251  39.878   1.478  12.548
19432W        W84252  21.051  32.347   3.580
19433W        W84253  40.364   5.498  11.135
19434W        W84254  37.846   9.249  14.294
19435W        W84255  26.030  31.612   2.624
19436W        W84256  43.525   2.964   3.087
19437W        W84257  21.762  43.431  10.696
19438W        W84258  14.860  18.014   0.861
19439W        W84259   3.161  20.657   2.837
19440W        W84260  31.438  32.824   1.408
19441W        W84261   1.034   4.360   3.648
19442W        W84262  11.765  40.858  10.411
19443W        W84263  13.021  40.351   5.078
19444W        W84264  32.319   8.245   4.749
19445W        W84265   1.417  19.623   3.095
19446W        W84266   3.121   3.330   2.059
19447W        W84267  19.352  18.377   1.072
19448W        W84268  42.410  15.673  11.553
19449W        W84269   0.855  18.208  13.979
19450W        W84270  32.111  42.903  11.614
19451W        W84271   2.350   9.238  14.056
19452W        W84272  42.813  20.527  13.859
19453W        W84273   5.191  24.669  12.655
19454W        W84274  31.602   8.294   0.766
19455W        W84275  32.594   8.788  13.488
19456W        W84276  22.634  23.056   4.343
19457W        W84277  42.590  29.553  14.691
19458W        W84278   6.951   0.414   2.205
19459W        W84279   3.662  27.504   2.004
19460W        W84280   3.585  41.190  12.487
19461W        W84281   4.452  13.394  12.479
19462W        W84282  22.926  19.812   4.739
19463W        W84283   5.821   4.904  12.598
19464W        W84284  18.225   5.955   4.460
19465W        W84285   1.303   8.604  11.948
19466W        W84286  41.003   1.162  11.659
19467W        W84287  15.375  17.782   9.784
19468W        W84288  28.707  20.105   3.145
19469W        W84289  17.623  38.686  13.325
19470W        W84290  10.381  32.850   1.246
19471W        W84291   7.351  22.635   3.103
19472W        W84292   4.598  18.586  13.345
19473W        W84293   7.143  39.561  12.075
19474W        W84294   1.513  22.028   3.121
19475W        W84295  25.089  39.928   4.043
19476W        W84296  11.692   5.439  13.892
19477W        W84297   6.623   5.652  13.707
19478W        W84298  20.869  11.640   2.702
19479W        W84299  18.513  41.542  14.369
19480W        W84300  30.964  33.175   5.090
19481W        W84301  27.233  19.168  12.037
19482W        W84302  30.931   9.798  14.313
19483W        W84303  42.142  39.434  12.528
19484W        W84304   9.841  11.335  11.600
19485W        W84305   5.696  38.325   2.801
19486W        W84306  14.127   0.889  10.622
19487W        W84307   1.429  29.570  12.034
19488W        W84308  33.535  30.516  12.379
19489W        W84309  15.499  14.741   0.806
19490W        W84310   0.334  13.360  11.990
19491W        W84311   3.885  38.278  12.117
19492W        W84312  13.766   5.364  13.935
19493W        W84313  18.083  18.305   3.711
19494W        W84314  28.591  21.994  13.862
19495W        W84315  18.357  41.596   4.559
19496W        W84316   9.237  40.083   0.344
19497W        W84317   5.180   6.873  11.551
19498W        W84318  19.356   3.372   2.307
19499W        W84319   5.320  27.965   0.715
19500W        W84320  32.557  15.616   3.375
19501W        W84321  41.841   5.671  12.029
19502W        W84322   7.110  23.792  12.596
19503W        W84323  40.249  23.732   0.442
19504W        W84324  17.683   0.733   4.117
19505W        W84325  16.147  43.232   4.740
19506W        W84326  21.273   2.832   0.063
19507W        W84327   6.356  19.595  13.003
19508W        W84328  41.710   6.785  12.820
19509W        W84329  13.920  35.640  10.073
19510W        W84330  23.831   3.180   1.308
19511W        W84331  31.515  36.009  10.727
19512W        W84332   0.039  40.954  10.725
19513W        W84333  16.176  15.728   1.625
19514W        W84334   7.930   6.768  10.444
19515W        W84335  28.081  41.995   4.126
19516W        W84336  30.681   1.856  12.352
19517W        W84337  42.548  25.122  13.883
19518W        W84338  30.528  10.921  11.167
19519W        W84339   4.460  30.872  13.805
19520W        W84340   6.677  39.206  10.760
19521W        W84341  41.661  11.415   1.549
19522W        W84342  25.197  32.542   3.161
19523W        W84343   7.523  18.101  10.578
19524W        W84344  42.411  35.670   4.584
19525W        W84345  29.759   6.335  11.290
19526W        W84346  30.999   2.007  10.655
19527W        W84347  31.618   9.789   0.901
19528W        W84348  10.994  26.935   1.247
19529W        W84349  20.033  41.472  13.907
19530W        W84350  29.355  27.559  10.617
19531W        W84351  20.309  33.103  11.053
19532W        W84352  37.385   4.188   0.870
19533W        W84353  16.510   0.449  12.641
19534W        W84354  20.284  44.795  10.970
19535W        W84355  22.734   7.278  12.936
19536W        W84356  27.511  44.222  10.090
19537W        W84357  22.947  13.710  12.932
19538W        W84358  41.537   1.217  10.642
19539W        W84359  41.422  36.888  14.331
19540W        W84360  41.899  19.217  10.423
19541W        W84361  31.020  15.006   4.514
19542W        W84362   7.704  40.299  14.307
19543W        W84363  40.515  40.459  10.955
19544W        W84364  22.394  20.577   0.287
19545W        W84365  42.067  41.905  13.256
19546W        W84366  20.723  28.354  14.623
19547W        W84367   9.584  35.456   4.565
19548W        W84368   8.631  23.584   1.707
19549W        W84369  24.008  31.979   3.653
19550W        W84370  11.827  12.856   4.420
19551W        W84371   7.944  41.340  11.573
19552W        W84372  37.587  33.964  12.635
19553W        W84373  34.956  38.280  10.697
19554W        W84374  38.225  35.791  11.170
19555W        W84375   6.102  13.212   1.653
19556W        W84376   8.319  11.262   1.526
19557W        W84377  25.755  43.215   3.261
19558W        W84378  44.254  33.429   2.736
19559W        W84379  44.533  40.330  13.981
19560W        W84380   4.687   6.836  10.634
19561W        W84381  43.834  32.509  10.738
19562W        W84382  44.315  40.525  10.702
19563W        W84383  25.708  11.237  11.955
19564W        W84384   9.276  10.619  14.009
19565W        W84385  16.808  13.735   2.818
19566W        W84386   3.960  37.062   4.129
19567W        W84387  24.204  38.460   3.805
19568W        W84388  42.255  17.807   1.723
19569W        W84389   3.751  15.598  12.435
19570W        W84390  37.124   3.813   3.339
19571W        W84391  22.538   5.960   1.524
19572W        W84392  14.799  12.813  14.095
19573W        W84393  24.272  27.838   0.032
19574W        W84394  27.453  39.793   2.404
19575W        W84395   3.855  19.393  14.265
19576W        W84396   9.101  32.385   1.055
19577W        W84397   3.849  27.412   2.901
19578W        W84398   9.379  41.517   0.799
19579W        W84399  41.870   5.788  13.797
19580W        W84400  40.848  22.046   2.269
19581W        W84401  16.501  32.407   1.829
19582W        W84402  14.819   5.653  14.201
19583W        W84403   1.693  22.522  11.747
19584W        W84404   4.323   9.298   4.472
19585W        W84405  33.170  29.475  12.566
19586W        W84406  13.057  14.983   3.631
19587W        W84407  44.143   0.476   1.019
19588W        W84408   0.934   1.384  13.473
19589W        W84409  35.985  21.362  11.743
19590W        W84410  26.563   0.792   4.575
19591W        W84411  21.330   7.982   9.682
19592W        W84412  34.203  20.047   0.226
19593W        W84413  18.275  44.712  12.095
19594W        W84414  21.760  44.695  14.387
19595W        W84415  26.910  35.654  14.359
19596W        W84416  17.703  42.235  13.574
19597W        W84417   8.202  29.673   1.330
19598W        W84418  34.380  23.479  12.085
19599W        W84419  10.909  27.767   2.474
19600W        W84420  18.195  16.054  11.763
19601W        W84421  41.971  12.476   9.922
19602W        W84422  16.388  31.918  11.919
19603W        W84423   0.181  43.317   4.025
19604W        W84424   4.912  41.252  10.387
19605W        W84425  13.705   0.411   4.657
19606W        W84426  21.117  31.639   0.977
19607W        W84427  28.574  23.678   0.810
19608W        W84428   4.407  26.678  13.845
19609W        W84429   0.831  11.493  13.003
19610W        W84430   3.075   2.792  12.081
19611W        W84431  25.091  33.840  14.491
19612W        W84432  34.914   8.912  11.211
19613W        W84433  44.636  41.330  10.292
19614W        W84434  19.330  14.197   0.715
19615W        W84435  39.918  11.498  11.794
19616W        W84436  25.557   1.269   1.240
19617W        W84437   1.766  10.236   0.827
19618W        W84438   8.706  43.407  13.928
19619W        W84439  34.037  16.248   2.226
19620W        W84440   3.702   6.710   4.186
19621W        W84441  30.422  38.075   0.244
19622W        W84442  24.009  38.426   4.295
19623W        W84443  20.584   8.237  11.377
19624W        W84444  36.391   4.899  11.497
19625W        W84445  13.008  11.067   0.450
19626W        W84446  38.574  44.256  11.849
19627W        W84447   5.352  33.606  11.177
19628W        W84448  29.159  20.654  11.482
19629W        W84449  10.743   1.426  14.726
19630W        W84450   1.877  28.679   0.202
19631W        W84451  28.854   1.253   4.473
19632W        W84452  10.813  19.114   3.277
19633W        W84453  22.696  13.027  12.491
19634W        W84454  20.062  10.544  11.668
19635W        W84455   0.493  19.225   3.338
19636W        W84456  18.736  25.588  11.874
19637W        W84457  37.579  40.231  12.432
19638W        W84458  16.138  13.931   0.787
19639W        W84459  17.603  42.738   2.282
19640W        W84460  30.403  23.973   0.804
19641W        W84461  37.778  28.022  11.670
19642W        W84462  10.865  38.114  13.995
19643W        W84463  39.499   9.859   2.583
19644W        W84464  17.333   6.618  14.802
19645W        W84465  23.705  15.568  11.876
19646W        W84466   2.894  21.346  11.610
19647W        W84467   4.637   6.954  11.558
19648W        W84468  39.897  31.401  11.969
19649W        W84469  43.390  12.693   4.519
19650W        W84470  18.407  17.205  14.550
19651W        W84471  10.910  38.165   4.100
19652W        W84472  19.668   2.007   1.848
19653W        W84473  42.220  40.304  13.495
19654W        W84474   8.112  40.934  14.603
19655W        W84475  16.226   3.453  12.973
19656W        W84476  32.094   3.169   0.891
19657W        W84477  40.005  26.566  11.899
19658W        W84478   8.894   5.841  14.489
19659W        W84479  30.419  44.874   0.316
19660W        W84480  28.481   4.681  12.660
19661W        W84481  29.057  35.793   0.932
19662W        W84482  14.428   0.408   1.208
19663W        W84483  19.430  41.035   1.205
19664W        W84484  21.685  24.659   3.745
19665W        W84485  23.274  19.999   0.894
19666W        W84486  36.409   5.485  12.908
19667W        W84487  26.082  41.073   2.324
19668W        W84488  24.028  13.419  12.992
19669W        W84489  11.337  16.718  14.976
19670W        W84490  18.900  31.947   0.812
19671W        W84491  23.172  37.805  10.970
19672W        W84492  36.340   2.521  11.443
19673W        W84493  20.398  21.601  14.008
19674W        W84494  41.268   6.336   3.579
19675W        W84495  19.891   3.905   1.390
19676W        W84496  44.340  21.733  13.538
19677W        W84497  29.457  12.569  11.057
19678W        W84498   0.429  40.046  12.179
19679W        W84499  29.438  21.671  10.388
19680W        W84500   8.730  35.148  10.539
19681W        W84501   1.184   1.543   1.416
19682W        W84502  44.069  21.282  13.385
19683W        W84503  36.520  23.677  12.027
19684W        W84504  23.716   8.598   3.280
19685W        W84505  16.811   5.951  11.243
19686W        W84506  15.017  14.948   5.115
19687W        W84507  23.444  34.363  12.882
19688W        W84508  33.191  43.870  11.978
19689W        W84509   3.289  26.920  10.579
19690W        W84510  26.451   3.772   1.620
19691W        W84511  14.183  38.989   0.844
19692W        W84512  16.710  43.294   2.128
19693W        W84513   7.735  36.973   3.242
19694W        W84514  42.368  22.191  12.075
19695W        W84515  26.177  43.487   4.214
19696W        W84516  24.438  22.845   4.579
19697W        W84517  14.239  39.206   4.062
19698W        W84518  32.423  12.588  10.336
19699W        W84519  24.684  12.213  10.791
19700W        W84520  18.785   2.601   1.234
19701W        W84521  36.895  22.227  10.892
19702W        W84522  10.749  39.998   2.830
19703W        W84523  44.919   6.760   0.351
19704W        W84524  33.949  42.258  12.592
19705W        W84525  42.912  21.166  13.023
19706W        W84526  39.421  21.557   0.944
19707W        W84527  41.159  14.613  12.442
19708W        W84528  24.198   5.184  13.386
19709W        W84529   7.878  10.362   3.262
19710W        W84530  42.376   5.222   4.688
19711W        W84531  37.441  12.244  12.542
19712W        W84532  39.058  30.960   3.606
19713W        W84533  17.585  15.266   4.142
19714W        W84534  12.380  17.212  14.822
19715W        W84535   0.079  32.306  13.878
19716W        W84536  33.205  32.525  13.441
19717W        W84537  16.302   7.156   3.192
19718W        W84538   0.356  29.237   2.332
19719W        W84539  42.922  28.215  13.560
19720W        W84540  31.055  21.095  12.512
19721W        W84541  37.051  30.374  12.994
19722W        W84542  20.688   9.392   0.735
19723W        W84543   9.167  36.980  10.805
19724W        W84544  13.098   9.778   0.999
19725W        W84545  16.744   2.988   0.656
19726W        W84546   8.056  14.855   0.469
19727W        W84547  34.545  24.154   3.113
19728W        W84548  23.925  25.513  11.089
19729W        W84549   1.932  13.695  14.378
19730W        W84550   6.861  17.188   3.684
19731W        W84551  33.961   2.235  14.086
19732W        W84552   6.679  40.738   3.290
19733W        W84553  44.751  40.540   4.501
19734W        W84554  43.977  23.728  10.514
19735W        W84555  15.933   6.867  11.509
19736W        W84556  41.509  16.287  11.503
19737W        W84557  36.404  22.525  14.427
19738W        W84558   6.645  33.129   2.605
19739W        W84559   4.979  11.675  11.110
19740W        W84560   0.805  43.402  11.939
19741W        W84561  21.692  32.130   3.054
19742W        W84562   4.023   9.643  12.202
19743W        W84563  31.799  11.087  10.541
19744W        W84564  19.540   3.311   1.275
19745W        W84565   7.531  10.479   3.619
19746W        W84566  39.999   9.661   1.754
19747W        W84567   1.975   5.132  11.166
19748W        W84568  14.692  37.361   1.758
19749W        W84569  25.099   4.289  11.885
19750W        W84570  18.540  43.222  11.997
19751W        W84571  32.377   0.873   3.657
19752W        W84572  39.317   4.761  12.959
19753W        W84573   9.062   0.506  12.043
19754W        W84574  14.284   1.522  14.293
19755W        W84575  42.934  44.877  11.979
19756W        W84576  43.796  23.882  11.852
19757W        W84577  22.199  32.085   1.757
19758W        W84578  22.093  39.818  13.852
19759W        W84579  39.418  27.124  14.982
19760W        W84580   7.665  32.092   2.867
19761W        W84581  13.889  34.300   0.389
19762W        W84582  42.749  32.556  13.486
19763W        W84583  26.915  37.071  12.032
19764W        W84584  42.746  18.151   1.241
19765W        W84585  11.808   2.638   2.800
19766W        W84586  21.999  11.081  13.948
19767W        W84587  21.206   1.329   4.018
19768W        W84588  37.028  14.401  10.520
19769W        W84589  16.083   8.921  14.972
19770W        W84590  23.102  10.071  13.134
19771W        W84591  29.927  10.819   2.576
19772W        W84592  13.242  16.598  10.206
19773W        W84593  28.366  24.289  11.858
19774W        W84594  22.384   4.085   3.631
19775W        W84595   1.648  22.784  13.979
19776W        W84596  10.276  12.403   2.283
19777W        W84597   3.760   1.027   1.859
19778W        W84598  27.035  25.337  12.592
19779W        W84599  39.912  42.317  11.976
19780W        W84600  15.520  18.072  11.355
19781W        W84601  41.802  29.700  14.470
19782W        W84602  19.422  25.443  12.974
19783W        W84603  37.465  44.624  11.474
19784W        W84604  30.931  37.483  12.946
19785W        W84605  26.195  24.045   0.288
19786W        W84606   1.717  37.963  12.898
19787W        W84607  25.492  44.200  10.098
19788W        W84608   5.861  22.163  11.065
19789W        W84609  12.381  32.855  14.328
19790W        W84610  30.155  19.661   2.743
19791W        W84611   0.377  15.911  13.092
19792W        W84612  15.702  37.882  13.853
19793W        W84613  37.957  18.005   4.211
19794W        W84614  12.663  23.130  11.908
19795W        W84615   2.833  14.302   2.817
19796W        W84616  22.529  41.016   4.621
19797W        W84617   6.415  14.824   1.794
19798W        W84618  22.559  36.401   4.098
19799W        W84619   3.764   0.298  13.039
19800W        W84620  33.338  20.423   0.659
19801W        W84621  26.648   3.558  12.631
19802W        W84622  23.364  43.559   3.675
19803W        W84623  36.696  26.090   2.270
19804W        W84624  41.805  29.110   3.173
19805W        W84625  29.492  15.706   3.084
19806W        W84626  30.939   5.561   0.342
19807W        W84627  23.570   7.763  13.037
19808W        W84628  25.643  13.799  13.113
19809W        W84629  11.191   1.120  11.847
19810W        W84630   3.757   3.938  12.872
19811W        W84631  23.567  18.161   4.327
19812W        W84632   9.283  35.048   4.709
19813W        W84633  26.525   2.929  12.980
19814W        W84634  28.100  21.329   3.814
19815W        W84635  44.276  44.704  11.129
19816W        W84636  12.026  40.193  12.984
19817W        W84637  27.652  43.675   0.750
19818W        W84638  33.041  39.460  13.949
19819W        W84639  19.533  31.621  14.017
19820W        W84640   9.396  25.835   4.178
19821W        W84641  29.825  27.011   4.751
19822W        W84642  36.390  42.258  13.528
19823W        W84643  44.464  18.741   4.638
19824W        W84644  35.560  37.698   0.342
19825W        W84645  43.603  27.976   2.279
19826W        W84646   6.697  12.194  11.451
19827W        W84647  36.882   4.857  12.987
19828W        W84648  31.695  43.327  13.136
19829W        W84649  14.214  20.797  14.844
19830W        W84650  31.069  23.541  13.413
19831W        W84651  14.819  12.975   1.344
19832W        W84652  35.196  23.534  14.598
19833W        W84653   3.078  29.204   4.201
19834W        W84654  14.604  33.505  13.475
19835W        W84655  15.757   9.919  11.583
19836W        W84656  42.441  42.454   4.369
19837W        W84657  18.303   7.700   1.570
19838W        W84658   3.920  17.538  14.380
19839W        W84659  38.441  18.784  11.308
19840W        W84660   5.175  43.372   0.420
19841W        W84661  39.780  17.079   3.296
19842W        W84662  13.040  33.715   4.278
19843W        W84663  25.059  11.117  11.521
19844W        W84664  35.651  21.866  13.763
19845W        W84665  37.909  44.651   4.161
19846W        W84666  17.899  15.053   4.498
19847W        W84667   5.363  36.854   4.653
19848W        W84668  34.583  29.038  14.839
19849W        W84669  24.871   9.830  11.143
19850W        W84670  37.333  29.254  14.339
19851W        W84671  40.975  18.090   4.140
19852W        W84672   5.890  15.718   1.270
19853W        W84673  39.366  32.116  12.816
19854W        W84674  22.178  12.197   0.783
19855W        W84675  17.379   8.497   3.760
19856W        W84676  21.209  19.323  12.088
19857W        W84677  12.573  25.544  11.673
19858W        W84678   4.743  35.140   3.491
19859W        W84679  17.764   0.945  13.447
19860W        W84680  34.757  38.284   0.657
19861W        W84681  34.661   2.188  11.158
19862W        W84682  10.891  14.345   9.870
19863W        W84683  15.532  33.541   2.886
19864W        W84684   6.739  34.577  14.704
19865W        W84685  24.642  30.150  10.706
19866W        W84686  39.409  30.580   0.980
19867W        W84687  20.744  14.072   3.707
19868W        W84688  15.747  16.350   3.143
19869W        W84689   3.847   4.905   4.416
19870W        W84690  44.927   0.851   4.325
19871W        W84691  16.508   1.470  13.567
19872W        W84692  34.884   4.025   0.041
19873W        W84693  41.720  34.004   4.335
19874W        W84694  21.198  27.476  12.454
19875W        W84695  36.542  31.114   1.733
19876W        W84696  12.904  17.240   0.841
19877W        W84697  11.854   8.912   4.730
19878W        W84698  29.781  16.256  11.543
19879W        W84699  14.216  19.750  14.042
19880W        W84700   9.443  41.989  14.031
19881W        W84701  26.621   6.324  13.990
19882W        W84702  33.382  22.973  14.011
19883W        W84703  34.894  20.994  13.085
19884W        W84704  28.647  34.448   3.011
19885W        W84705   0.869   0.924   4.787
19886W        W84706  23.571   2.869  11.020
19887W        W84707  33.963   1.835  10.696
19888W        W84708  34.498  35.937  13.955
19889W        W84709  38.865  27.116  14.326
19890W        W84710   6.996  19.610  10.735
19891W        W84711  11.144  17.275  14.345
19892W        W84712   7.273   9.171  13.584
19893W        W84713  10.361  44.419  10.623
19894W        W84714  29.978  27.078   3.283
19895W        W84715  11.099  40.703  11.157
19896W        W84716  36.110  44.373  10.745
19897W        W84717  13.736  25.224   2.755
19898W        W84718   7.576  20.786   3.581
19899W        W84719  44.415  41.067   2.165
19900W        W84720  39.412  40.376  13.343
19901W        W84721  31.498  18.655  13.427
19902W        W84722  11.099  17.042   0.325
19903W        W84723  35.436  39.982  12.056
19904W        W84724  36.071  13.584   3.276
19905W        W84725  38.571   3.970   4.286
19906W        W84726  33.084  37.573  11.463
19907W        W84727  38.705  31.174  13.437
19908W        W84728  29.195   9.896  10.746
19909W        W84729   6.538  44.117   3.448
19910W        W84730  30.559  34.460   2.924
19911W        W84731  11.815  42.043   0.462
19912W        W84732  21.354  38.505   1.245
19913W        W84733  27.529  35.485  13.589
19914W        W84734  24.764  15.612  13.453
19915W        W84735  30.868  11.123  11.489
19916W        W84736   8.813  29.532   4.920
19917W        W84737   3.737  32.618   2.036
19918W        W84738   1.017   7.749  14.902
19919W        W84739  27.866  40.883   1.970
19920W        W84740  10.478  13.704  14.020
19921W        W84741  26.650  40.276   0.120
19922W        W84742  18.608  24.451   2.290
19923W        W84743  23.200  11.351   1.428
19924W        W84744  18.381   1.749   1.436
19925W        W84745  31.515  32.346   2.363
19926W        W84746  39.359  29.069   3.749
19927W        W84747   8.414   1.264  10.472
19928W        W84748   8.961   7.212  12.137
19929W        W84749   3.730  43.311   3.229
19930W        W84750  15.211  36.304  12.101
19931W        W84751  19.697  18.363  11.509
19932W        W84752   9.109  27.618   2.659
19933W        W84753  27.466  25.547  14.024
19934W        W84754  29.574  12.406  10.572
19935W        W84755   6.553  19.086   4.539
19936W        W84756  33.219  24.166  10.424
19937W        W84757  15.855  14.591  14.478
19938W        W84758  10.919  31.096   3.009
19939W        W84759  19.576  16.652  14.842
19940W        W84760  39.714   6.891  12.058
19941W        W84761  19.192   9.667   0.287
19942W        W84762  36.923  28.960  14.569
19943W        W84763  26.990  13.416  12.865
19944W        W84764  38.286  23.971  12.506
19945W        W84765  23.929   1.664   3.201
19946W        W84766  24.237  37.253   1.873
19947W        W84767  34.065   0.070  12.102
19948W        W84768  28.430   0.936  12.992
19949W        W84769  41.135  14.572  12.968
19950W        W84770  26.459  11.347   2.615
19951W        W84771  18.740   6.327   3.645
19952W        W84772   9.592  25.182   1.750
19953W        W84773  31.978  26.499   0.837
19954W        W84774  29.889  25.523   0.997
19955W        W84775  34.560   5.251  13.036
19956W        W84776  19.634  26.083  11.570
19957W        W84777  10.515  30.104  13.403
19958W        W84778   5.660  29.609   3.588
19959W        W84779  34.355  18.369   2.846
19960W        W84780  12.424   0.472   2.242
19961W        W84781  33.544  14.164   2.214
19962W        W84782  19.138   5.251   3.259
19963W        W84783  26.681  27.383  11.095
19964W        W84784  25.085  32.990  11.689
19965W        W84785   6.798  20.529  14.775
19966W        W84786  15.551  23.961  10.735
19967W        W84787  26.760  40.026  14.441
19968W        W84788   4.388  37.833   2.969
19969W        W84789  19.694  43.591   3.210
19970W        W84790  26.399  16.141   2.189
19971W        W84791  43.399   4.666  14.456
19972W        W84792  31.723  25.232   0.793
19973W        W84793  21.390  30.441   1.150
19974W        W84794  22.134  43.920  10.757
19975W        W84795  42.483  42.026   4.657
19976W        W84796  28.474   7.365  12.059
19977W        W84797  12.619   3.510  12.641
19978W        W84798  31.443   1.745  13.039
19979W        W84799  35.395  25.037   0.011
19980W        W84800   6.203  44.971   1.694
19981W        W84801  31.461  27.041   3.535
19982W        W84802   9.670  21.151   3.290
19983W        W84803   7.241  26.003  13.054
19984W        W84804   0.700   9.970  11.243
19985W        W84805  17.670  18.711  13.959
19986W        W84806  32.298  31.389   3.807
19987W        W84807  33.327   4.327   0.024
19988W        W84808  37.746  22.452   0.234
19989W        W84809  36.436  14.347  13.423
19990W        W84810  37.833  27.158  12.703
19991W        W84811  31.059  38.548  10.775
19992W        W84812  32.686  12.757  14.367
19993W        W84813   0.748   6.528  10.363
19994W        W84814  33.841   3.490   1.008
19995W        W84815  37.711  41.560  14.421
19996W        W84816   3.945   9.415   3.237
19997W        W84817  42.301   1.447   1.535
19998W        W84818  18.027  34.960  11.495
19999W        W84819  31.907   0.490  12.684
20000W        W84820   7.838  20.530   1.262
20001W        W84821  21.992  17.191  14.385
20002W        W84822   6.658  39.663   4.199
20003W        W84823  16.682  22.406  14.566
20004W        W84824  44.774   2.135   3.832
20005W        W84825  13.223  38.340  14.831
20006W        W84826  23.524   7.174   3.769
20007W        W84827  27.141  35.565   1.878
20008W        W84828  20.723  32.838  11.279
20009W        W84829  22.344  17.042   2.555
20010W        W84830  42.220  24.909   0.341
20011W        W84831  24.065  33.892   0.483
20012W        W84832  12.696  23.463   3.830
20013W        W84833  11.162  28.111   2.171
20014W        W84834  19.274   1.011  11.642
20015W        W84835  31.960   7.202   4.924
20016W        W84836  27.189   7.517  14.936
20017W        W84837  19.021  11.976   0.440
20018W        W84838   8.940  27.075  11.623
20019W        W84839  30.221  26.939  14.846
20020W        W84840  40.011  11.372   0.326
20021W        W84841  29.688  20.710   4.084
20022W        W84842  36.926  44.033   2.871
20023W        W84843   8.648  36.377  11.920
20024W        W84844  22.746  44.354  11.627
20025W        W84845  31.544  28.733   0.217
20026W        W84846  41.799  23.435   3.290
20027W        W84847  22.591  18.018   2.066
20028W        W84848  40.033  17.639   3.948
20029W        W84849  26.107   0.873  13.454
20030W        W84850   9.269  38.884   1.674
20031W        W84851  43.032  14.893   4.042
20032W        W84852  34.164  21.320  10.168
20033W        W84853  20.344  35.876   4.027
20034W        W84854  12.818  41.103   4.052
20035W        W84855  33.360   7.765   2.811
20036W        W84856  24.369   8.908  10.135
20037W        W84857  23.607  23.492  13.181
20038W        W84858   9.337  42.358   0.895
20039W        W84859  12.796   7.172   4.893
20040W        W84860  35.329   7.909  12.538
20041W        W84861  39.678   0.569   0.224
20042W        W84862  21.515  22.338  14.096
20043W        W84863   4.295  36.889  13.221
20044W        W84864  36.203   2.370   4.489
20045W        W84865  32.892   5.318   1.861
20046W        W84866  24.549  30.665  11.522
20047W        W84867  35.281  22.135   3.324
20048W        W84868  38.123  17.321   1.362
20049W        W84869   7.874   7.563   1.482
20050W        W84870  35.117  17.686   1.724
20051W        W84871  31.857   0.206   4.548
20052W        W84872  23.231  44.014  14.949
20053W        W84873  38.994  42.270   4.761
20054W        W84874  39.004  32.482  10.385
20055W        W84875  36.448  14.207  13.919
20056W        W84876   4.834   1.934   1.472
20057W        W84877  26.625  24.112  13.397
20058W        W84878   3.277  42.035  10.813
20059W        W84879   8.708   8.638  14.956
20060W        W84880  12.559   5.472   0.008
20061W        W84881  19.301  36.515   2.676
20062W        W84882  23.683  24.942  12.609
20063W        W84883   3.450  41.015   2.786
20064W        W84884  16.293  43.363  12.427
20065W        W84885  41.586   3.695   2.505
20066W        W84886   5.452  26.202  10.855
20067W        W84887  12.649  36.134  12.396
20068W        W84888  38.130  32.991  13.911
20069W        W84889   9.876   7.927  10.990
20070W        W84890  11.571  15.070  11.538
20071W        W84891  43.457  25.481   4.207
20072W        W84892  24.042  30.602  11.571
20073W        W84893  20.492   9.840   0.519
20074W        W84894  24.781  18.619  12.815
20075W        W84895   8.682  44.545   4.994
20076W        W84896  23.708  19.057  12.450
20077W        W84897  36.396  24.524  12.643
20078W        W84898  33.594  25.851   0.844
20079W        W84899  36.027  27.635  13.561
20080W        W84900  34.930  44.187  12.648
20081W        W84901  24.712  23.774   3.591
20082W        W84902  38.398  22.975  11.253
20083W        W84903   6.953  34.428   2.167
20084W        W84904  19.087   4.234  12.049
20085W        W84905  44.334   4.410   0.996
20086W        W84906   4.667  34.117   2.238
20087W        W84907  32.294  44.925   3.669
20088W        W84908  14.720  24.039   4.666
20089W        W84909  32.687  22.705   9.882
20090W        W84910  24.788  26.285   1.769
20091W        W84911  33.137  12.057  13.996
20092W        W84912  14.862   3.559  12.500
20093W        W84913  25.653  10.332  11.691
20094W        W84914  39.826  40.167   2.489
20095W        W84915  20.628  14.612  12.872
20096W        W84916   1.228  44.139   4.521
20097W        W84917  19.100  23.742   2.258
20098W        W84918   1.050   9.275   1.895
20099W        W84919  26.673   8.609  12.742
20100W        W84920  26.647  12.469  14.477
20101W        W84921  27.588   0.437   1.497
20102W        W84922  22.702  28.944  14.035
20103W        W84923  15.277  13.503   3.906
20104W        W84924  36.860  31.842  11.490
20105W        W84925   4.604  36.392  14.256
20106W        W84926  38.923  26.253  11.751
20107W        W84927  43.984  15.021   0.686
20108W        W84928  30.566   0.861  12.488
20109W        W84929  35.862  38.606  11.465
20110W        W84930  27.036  30.553  13.436
20111W        W84931  29.723  12.405  13.327
20112W        W84932  37.408  44.033   4.565
20113W        W84933  11.599  13.385  12.114
20114W        W84934  19.320  28.950   1.364
20115W        W84935  18.375  35.018   0.433
20116W        W84936  28.937  44.978  11.942
20117W        W84937  25.411  35.926  10.209
20118W        W84938   4.627  43.379   0.386
20119W        W84939  17.487  32.456   3.642
20120W        W84940  40.794  28.963   1.222
20121W        W84941  40.533  42.449  12.384
20122W        W84942  21.042  24.265  11.125
20123W        W84943  16.030   1.362   0.934
20124W        W84944   3.800  39.734  14.777
20125W        W84945  15.707  24.168  13.010
20126W        W84946   0.253  27.904   2.103
20127W        W84947  19.087  20.474   0.074
20128W        W84948  37.982  16.583  12.467
20129W        W84949  16.509  10.600  12.091
20130W        W84950  13.921  23.677  14.970
20131W        W84951  11.251   9.249   0.042
20132W        W84952  35.115   4.049   0.952
20133W        W84953  42.087  22.660   1.788
20134W        W84954  12.767  27.974   3.682
20135W        W84955  34.311  11.126  11.550
20136W        W84956  13.831  35.633   0.366
20137W        W84957  31.997   2.510  13.795
20138W        W84958  28.093   9.961  14.832
20139W        W84959   9.412  21.569   2.304
20140W        W84960  24.652  34.575  12.155
20141W        W84961  43.641  37.867  12.156
20142W        W84962   9.816   8.851  11.908
20143W        W84963  23.010  19.662  14.933
20144W        W84964  30.946   2.483  10.454
20145W        W84965  38.626  29.911  12.041
20146W        W84966  12.182  17.002   1.869
20147W        W84967  26.502  42.967   4.632
20148W        W84968  10.934  14.798   2.621
20149W        W84969   1.523   4.318   3.861
20150W        W84970  39.451  22.692  11.392
20151W        W84971  12.497  25.938   4.554
20152W        W84972  42.572   2.910   3.121
20153W        W84973  16.314  41.008  14.487
20154W        W84974   0.001  27.605   4.160
20155W        W84975  32.041  39.878   4.341
20156W        W84976  32.823   7.256   3.392
20157W        W84977  16.174  18.541  10.707
20158W        W84978  40.357   1.975   4.636
20159W        W84979  10.946  11.320   0.125
20160W        W84980  26.614  17.295   5.396
20161W        W84981  25.383  14.221  12.466
20162W        W84982  40.442  37.027   4.834
20163W        W84983  23.755  42.036   1.004
20164W        W84984  27.107  43.021   4.130
20165W        W84985  37.079   1.881   4.609
20166W        W84986  44.183  43.961  12.652
20167W        W84987  22.790  42.304  13.736
20168W        W84988  13.265  16.500   0.835
20169W        W84989  26.925  40.033   3.235
20170W        W84990   2.482   8.576   3.193
20171W        W84991  31.161  33.145   2.408
20172W        W84992  20.688  19.513  11.975
20173W        W84993  10.072   3.865  13.896
20174W        W84994   9.193  41.851  14.481
20175W        W84995  12.105   1.430   3.202
20176W        W84996  25.184  35.333   3.427
20177W        W84997  16.219   2.194   2.368
20178W        W84998  27.745  31.183  14.574
20179W        W84999  40.878  34.534   2.026
20180W        W85000  42.970   8.423  14.731
20181W        W85001  41.816  32.682   0.270
20182W        W85002   5.855   0.426  14.870
20183W        W85003  23.073  31.593  11.832
20184W        W85004  41.362  36.003  14.477
20185W        W85005  12.244  37.421  10.176
20186W        W85006  20.248   2.732   0.687
20187W        W85007   4.244  24.244   2.654
20188W        W85008  41.751   0.933  12.104
20189W        W85009  37.571   0.548   4.106
20190W        W85010   1.053  43.660  11.532
20191W        W85011  30.861  15.170   0.869
20192W        W85012   2.950  43.523  11.647
20193W        W85013  23.292  25.045   4.919
20194W        W85014  43.642  33.157  12.038
20195W        W85015  27.228   9.494   1.773
20196W        W85016   6.341  11.538   4.657
20197W        W85017  23.772   3.829  14.330
20198W        W85018  26.131  16.182   3.060
20199W        W85019  29.520  40.097  14.257
20200W        W85020  16.930  39.462   4.457
20201W        W85021  30.653  29.046   1.430
20202W        W85022  42.835  30.193   1.702
20203W        W85023  15.263  39.246  12.645
20204W        W85024  35.902   2.266  11.580
20205W        W85025  33.782  26.604  14.508
20206W        W85026   4.719  20.143  11.598
20207W        W85027   1.449  18.456  12.982
20208W        W85028   1.736   0.738   2.781
20209W        W85029   9.301   1.388   1.481
20210W        W85030  37.189   2.234   3.716
20211W        W85031  15.403  37.034  11.817
20212W        W85032  31.934  31.994  10.103
20213W        W85033  41.721  15.388   2.630
20214W        W85034  23.083   4.206   0.681
20215W        W85035  17.506  24.889   2.358
20216W        W85036  14.278  20.197  13.556
20217W        W85037  25.327   4.725   3.165
20218W        W85038  32.279  16.573  12.536
20219W        W85039  34.599  20.079  12.024
20220W        W85040  42.308  37.572  12.081
20221W        W85041  12.356  13.892  13.412
20222W        W85042   7.629  15.699  10.273
20223W        W85043  28.123  28.615  12.498
20224W        W85044   6.105  28.880  12.325
20225W        W85045  42.304   5.463  12.071
20226W        W85046  30.583  25.176   4.111
20227W        W85047  36.955  27.963  13.378
20228W        W85048  11.698  39.016   3.216
20229W        W85049  39.304   1.249  13.903
20230W        W85050  18.776  14.247   2.896
20231W        W85051  16.287  40.491  14.356
20232W        W85052  20.841   2.833  12.468
20233W        W85053  37.638  24.164  11.817
20234W        W85054  43.789  38.069   3.056
20235W        W85055  44.033  34.428   3.187
20236W        W85056  10.914  34.078  13.272
20237W        W85057  38.006  43.726   2.792
20238W        W85058   9.423  10.770   2.772
20239W        W85059  14.285  39.273   1.439
20240W        W85060  13.619   1.809  14.953
20241W        W85061  38.573   6.223   3.841
20242W        W85062  18.232  40.019   4.858
20243W        W85063   3.257   9.407  14.926
20244W        W85064  11.650  43.510   2.893
20245W        W85065  42.332  38.843   2.874
20246W        W85066  19.430  23.837  13.426
20247W        W85067  22.456  31.892   4.442
20248W        W85068  44.591  33.962   3.713
20249W        W85069   4.462  44.902  12.480
20250W        W85070  31.444  36.599  11.958
20251W        W85071  28.523  18.775  14.545
20252W        W85072  24.600  42.651   2.828
20253W        W85073   8.863   5.412   3.755
20254W        W85074  38.411  42.528   0.737
20255W        W85075  13.741   3.323  13.794
20256W        W85076  30.046  32.314  13.058
20257W        W85077  41.778  19.641  11.131
20258W        W85078   9.385  38.538   2.227
20259W        W85079   0.014  23.045  10.707
20260W        W85080   2.219  21.525   0.720
20261W        W85081  20.792   9.209   3.513
20262W        W85082  20.531  24.773  13.411
20263W        W85083  41.127  33.696  13.057
20264W        W85084  25.188  16.051  12.874
20265W        W85085   0.468  18.686   3.191
20266W        W85086  12.037  12.618   1.410
20267W        W85087  14.304   3.908   2.142
20268W        W85088   5.496  41.322   0.266
20269W        W85089  21.645   7.676  11.930
20270W        W85090  16.856  30.576   2.317
20271W        W85091   1.916  33.050  10.580
20272W        W85092  33.363   4.398  12.756
20273W        W85093  22.493   6.762  13.058
20274W        W85094  35.925  38.158  10.691
20275W        W85095  38.920  12.139  14.093
20276W        W85096   1.235   6.512  11.108
20277W        W85097  30.550  29.176   4.570
20278W        W85098  25.255   1.894   2.832
20279W        W85099  32.056  33.363  13.538
20280W        W85100  20.118  35.336   3.667
20281W        W85101  39.333  28.587   4.666
20282W        W85102  40.202  43.253   2.716
20283W        W85103  22.099  28.594   0.162
20284W        W85104  29.175   2.700  10.642
20285W        W85105  33.511   3.511   2.887
20286W        W85106   7.974  12.287   3.277
20287W        W85107  27.069  42.754  10.895
20288W        W85108  20.236  25.210   4.753
20289W        W85109  13.615   0.955  10.442
20290W        W85110  43.912   4.442  12.486
20291W        W85111   3.325  34.377   0.480
20292W        W85112  16.085  39.872   3.516
20293W        W85113  18.576  42.400   0.707
20294W        W85114  13.668   4.711  13.376
20295W        W85115   8.347  36.420  11.465
20296W        W85116  22.324  23.120   3.667
20297W        W85117  44.023  42.792   1.257
20298W        W85118  10.504  33.882  12.916
20299W        W85119  29.234   2.135  13.432
20300W        W85120  39.902  32.589   4.445
20301W        W85121  10.195  40.365  12.996
20302W        W85122   8.272   3.533  11.925
20303W        W85123  17.690  20.523   1.806
20304W        W85124  42.587  17.638  13.454
20305W        W85125  43.231  15.245   2.812
20306W        W85126  16.698  30.030  11.354
20307W        W85127  21.955   0.431   0.127
20308W        W85128  23.606  38.921  10.165
20309W        W85129  24.453  21.596  14.018
20310W        W85130  18.580   5.786  12.694
20311W        W85131  23.707   4.712   4.149
20312W        W85132   2.866  31.517   2.414
20313W        W85133  24.028  27.443  13.160
20314W        W85134   4.597  21.537   1.322
20315W        W85135  14.176   3.021  13.856
20316W        W85136  26.585  18.684   1.765
20317W        W85137  15.510  22.000   4.294
20318W        W85138  15.772  33.574   1.902
20319W        W85139  39.753  24.508   2.644
20320W        W85140  27.564   4.507  13.895
20321W        W85141  10.010  43.693   1.192
20322W        W85142  21.007  14.786  11.973
20323W        W85143  15.310  19.471  12.446
20324W        W85144  34.147  27.433   1.400
20325W        W85145  17.842  41.410   0.008
20326W        W85146  30.489  34.830  13.566
20327W        W85147  31.534  20.605   2.805
20328W        W85148   9.574  43.056  10.977
20329W        W85149  12.669  35.070   2.345
20330W        W85150   2.470  23.435   4.912
20331W        W85151  31.432  31.863   1.182
20332W        W85152   6.096  36.019  14.370
20333W        W85153   8.920  13.757   4.642
20334W        W85154  34.534  18.204  12.677
20335W        W85155  32.581  21.232  11.691
20336W        W85156  35.465   4.820  14.879
20337W        W85157  24.012  37.002   0.442
20338W        W85158  21.025  10.817  13.273
20339W        W85159   7.461  25.760   0.807
20340W        W85160  21.114  18.063   0.021
20341W        W85161  25.640  25.113  10.838
20342W        W85162   8.370  38.307  13.672
20343W        W85163  14.890  28.740  12.830
20344W        W85164  23.158  18.107  11.047
20345W        W85165  22.672  38.978  11.997
20346W        W85166  31.413  41.411   0.535
20347W        W85167  14.566   4.351   3.695
20348W        W85168   2.768  42.179  11.622
20349W        W85169  30.700   6.665   4.529
20350W        W85170  35.643   8.686  13.289
20351W        W85171  40.532  17.894   4.825
20352W        W85172  23.562  28.454  14.944
20353W        W85173   8.051  14.492  12.572
20354W        W85174  31.681  36.952   3.770
20355W        W85175  35.944  17.017   0.159
20356W        W85176   5.231  10.451  10.717
20357W        W85177   8.552   4.141  12.524
20358W        W85178  10.630  21.397   4.138
20359W        W85179  30.929  15.232  12.394
20360W        W85180  19.503  25.470  10.660
20361W        W85181  19.182   2.451   3.144
20362W        W85182  35.389  38.945   2.125
20363W        W85183  31.069  32.520   0.385
20364W        W85184  44.844   2.817   0.132
20365W        W85185  42.038  31.642   0.347
20366W        W85186  34.919  13.923   4.531
20367W        W85187  17.065  33.853   3.549
20368W        W85188  20.355  11.452  12.324
20369W        W85189  18.790  30.572  14.742
20370W        W85190  31.678  17.589  11.573
20371W        W85191   9.337  17.282  12.022
20372W        W85192  43.355  33.281  14.529
20373W        W85193   0.011   2.646   4.564
20374W        W85194   8.186  21.017   1.788
20375W        W85195   4.498  19.625  12.526
20376W        W85196  39.635  32.832   2.407
20377W        W85197  21.227  44.723   2.119
20378W        W85198  25.917  10.652  14.312
20379W        W85199  44.771  11.895   4.224
20380W        W85200   5.705  38.379  13.145
20381W        W85201  39.863   0.748   1.432
20382W        W85202  34.977   9.797  13.295
20383W        W85203  24.529   7.770  14.583
20384W        W85204   5.948  28.867   2.680
20385W        W85205  34.801   3.096   0.353
20386W        W85206  35.327   4.116  13.058
20387W        W85207   1.765   3.611   5.066
20388W        W85208   3.337  21.546  14.417
20389W        W85209  40.097  38.029  11.788
20390W        W85210   3.271  15.216  10.729
20391W        W85211  39.044  43.226   0.411
20392W        W85212  37.478  28.252   0.274
20393W        W85213  31.601  35.023   4.902
20394W        W85214  27.745   9.499   0.777
20395W        W85215  19.239  17.127  11.372
20396W        W85216  39.202   9.033  10.299
20397W        W85217  17.635  34.136   2.157
20398W        W85218  29.878   1.918   1.378
20399W        W85219  20.014  10.930   0.934
20400W        W85220  28.425  19.121   4.680
20401W        W85221  21.824  14.787   0.455
20402W        W85222  19.658  40.994  13.575
20403W        W85223  28.806   0.345   2.110
20404W        W85224   7.503  38.414  10.690
20405W        W85225   8.537  40.811   2.306
20406W        W85226  27.698  30.331  11.057
20407W        W85227  43.536  16.348   3.177
20408W        W85228  33.582   9.371   4.520
20409W        W85229  37.888  29.217  14.950
20410W        W85230  25.702  23.294   3.769
20411W        W85231  37.916   8.051   1.357
20412W        W85232  35.450  29.189   4.130
20413W        W85233  14.710  13.218   3.939
20414W        W85234  40.601  30.339   0.976
20415W        W85235  23.732  40.836  13.368
20416W        W85236  16.800  40.895   0.400
20417W        W85237  21.619  19.687   4.591
20418W        W85238  40.063  10.172  12.060
20419W        W85239  41.052  39.587  13.416
20420W        W85240  12.073  21.134  14.918
20421W        W85241  20.952  13.578  12.427
20422W        W85242  11.388  38.252   4.236
20423W        W85243  30.578   6.460  13.103
20424W        W85244  17.369   9.234   1.778
20425W        W85245  31.401  25.667   0.820
20426W        W85246  40.754  30.174  13.896
20427W        W85247  27.466  22.611   3.607
20428W        W85248  43.235  18.826  11.702
20429W        W85249   1.756   9.790  12.443
20430W        W85250  10.298   9.988  12.811
20431W        W85251  12.002  15.896   0.988
20432W        W85252  28.143  44.971   1.942
20433W        W85253  41.024  31.499   1.649
20434W        W85254  21.688  41.828   3.687
20435W        W85255  44.922  11.435  12.958
20436W        W85256  36.477  38.765   2.660
20437W        W85257   7.338  17.863  13.051
20438W        W85258  28.847  20.112   1.730
20439W        W85259  38.875   6.667   3.827
20440W        W85260  42.515  30.607   1.014
20441W        W85261  19.923  41.987  11.899
20442W        W85262  18.013  27.632   1.812
20443W        W85263   7.327  10.981  11.189
20444W        W85264  34.466  44.225   1.416
20445W        W85265  44.254  27.116  12.398
20446W        W85266  23.492  27.408  10.719
20447W        W85267   2.851  26.152   4.775
20448W        W85268  37.255   2.471  14.094
20449W        W85269  30.665   1.408   0.315
20450W        W85270  36.513   0.531  14.018
20451W        W85271  14.109  18.712   1.701
20452W        W85272  36.817  22.992   3.502
20453W        W85273  11.906  29.898  13.909
20454W        W85274  42.092  31.189   3.189
20455W        W85275  40.759  20.303  10.714
20456W        W85276  29.912  37.398   3.185
20457W        W85277  31.586  42.798  13.262
20458W        W85278   7.236  18.772   2.751
20459W        W85279  40.437  18.148  14.972
20460W        W85280  14.544  20.735  13.393
20461W        W85281   8.909   2.019   4.104
20462W        W85282   9.845  20.021  11.144
20463W        W85283  36.327  30.675   4.577
20464W        W85284   8.166  11.675   4.266
20465W        W85285  28.318  30.208  13.329
20466W        W85286  39.582  36.427   0.237
20467W        W85287   6.792   1.317   3.441
20468W        W85288  35.383  21.101   0.768
20469W        W85289  37.061  24.466   0.453
20470W        W85290   9.514  28.410  13.162
20471W        W85291  19.342   5.240  11.990
20472W        W85292   1.162  23.690  11.097
20473W        W85293  16.889  25.277  11.651
20474W        W85294  13.332  38.843  12.094
20475W        W85295   4.129  29.713   0.966
20476W        W85296   0.201   4.454   0.405
20477W        W85297  26.594  30.501  12.184
20478W        W85298  19.392   5.939   4.671
20479W        W85299  31.842  31.058   0.634
20480W        W85300  39.658  21.612  12.964
20481W        W85301  40.985   2.398  11.967
20482W        W85302  20.776  13.626  11.573
20483W        W85303  42.985  42.565   2.771
20484W        W85304  23.483  30.432  10.770
20485W        W85305  40.487  20.484  13.062
20486W        W85306  26.526   2.943  11.130
20487W        W85307  36.708  35.340  12.002
20488W        W85308  20.742  28.427   1.460
20489W        W85309  23.500   8.054   4.074
20490W        W85310   6.152  34.301  13.283
20491W        W85311  37.587  23.627  14.496
20492W        W85312  38.435  35.629  14.989
20493W        W85313  34.989  26.409   3.064
20494W        W85314  41.034  13.062  12.890
20495W        W85315   7.340  18.675  11.244
20496W        W85316  43.532  18.127  10.289
20497W        W85317   0.505   4.789  14.371
20498W        W85318  20.516  29.741   4.914
20499W        W85319  25.195  27.492   0.284
20500W        W85320  32.343  12.331  14.492
20501W        W85321  32.564  25.561  14.533
20502W        W85322   4.218  12.308   3.774
20503W        W85323  15.101  18.791   0.407
20504W        W85324   9.845  12.119  12.580
20505W        W85325  35.101  21.074   4.079
20506W        W85326  18.722   7.511  10.621
20507W        W85327  18.842  41.981  12.931
20508W        W85328  35.732  42.594  12.872
20509W        W85329  32.682  24.825  13.393
20510W        W85330  33.562   0.854  11.064
20511W        W85331  10.164  11.132   1.712
20512W        W85332   6.321  15.848   0.036
20513W        W85333  21.606  32.639   2.142
20514W        W85334  26.854  31.307  13.757
20515W        W85335  36.514  32.032   4.263
20516W        W85336  22.954  37.107  14.471
20517W        W85337  35.417  12.837  12.065
20518W        W85338  21.769  19.876  10.166
20519W        W85339  28.064  44.290   0.699
20520W        W85340  35.367  17.137  11.090
20521W        W85341  20.182  42.210   1.481
20522W        W85342  10.069  30.623  11.645
20523W        W85343   1.461  31.679  12.833
20524W        W85344  34.415   8.902  13.025
20525W        W85345  26.953  12.578   0.544
20526W        W85346  42.423  42.900   4.085
20527W        W85347  44.205  18.250   1.337
20528W        W85348  14.243   8.793  13.667
20529W        W85349   6.820  31.997  12.193
20530W        W85350  10.223  40.856  12.935
20531W        W85351   5.202  11.345   0.374
20532W        W85352  33.070  44.245   3.239
20533W        W85353  20.057  40.293  14.446
20534W        W85354  24.153  38.545  11.648
20535W        W85355  38.943  10.201   1.673
20536W        W85356  10.228  17.273  14.316
20537W        W85357  38.615  37.260   0.359
20538W        W85358  26.956  34.446   3.614
20539W        W85359  36.789  36.787  13.006
20540W        W85360  29.494   4.764   2.852
20541W        W85361  19.074  43.218   3.766
20542W        W85362  44.336  15.207  13.980
20543W        W85363  10.698  44.372   1.317
20544W        W85364  14.050  28.577   3.113
20545W        W85365   9.866  26.626   0.367
20546W        W85366  26.736   7.252  14.817
20547W        W85367  40.517   0.067  12.164
20548W        W85368   5.776  11.406   4.021
20549W        W85369  28.243   6.895  11.935
20550W        W85370  40.102  29.144  10.900
20551W        W85371   5.538  44.007   3.207
20552W        W85372  42.457  28.634   0.753
20553W        W85373  35.540   4.348  11.184
20554W        W85374   7.828  32.103  11.263
20555W        W85375  24.729  39.382  13.833
20556W        W85376  15.559  31.994  13.085
20557W        W85377  32.931   6.324  12.126
20558W        W85378  27.612  20.545   0.930
20559W        W85379  29.866  16.285   2.822
20560W        W85380   5.845  25.125  13.056
20561W        W85381  30.648  36.564   2.232
20562W        W85382  41.812  40.246   3.327
20563W        W85383  11.775  35.681   1.240
20564W        W85384  31.492  41.199  12.953
20565W        W85385  24.754  18.144  13.738
20566W        W85386  25.209  34.907   3.160
20567W        W85387  36.937  28.684  12.146
20568W        W85388  35.533  26.806  10.749
20569W        W85389  27.693   8.981   1.405
20570W        W85390  24.555  11.042  11.505
20571W        W85391  32.530  20.680   4.467
20572W        W85392   1.757  30.370   0.634
20573W        W85393  27.435  32.459  13.376
20574W        W85394  10.526  43.016  13.886
20575W        W85395  27.068  10.858   3.097
20576W        W85396  10.353  10.143   1.431
20577W        W85397   2.630  28.036  11.164
20578W        W85398  11.874  43.343  12.441
20579W        W85399  36.683  24.650   3.315
20580W        W85400  28.699  23.710  11.151
20581W        W85401  18.805  30.508  13.827
20582W        W85402  44.263  40.783  11.166
20583W        W85403  31.377  21.542   1.716
20584W        W85404  36.704  29.578  13.510
20585W        W85405  20.067  19.673   4.624
20586W        W85406  20.237  38.928   1.413
20587W        W85407  42.917  23.002   0.697
20588W        W85408  11.747  15.366   1.367
20589W        W85409  17.441  41.597   3.395
20590W        W85410   2.411  25.633   1.279
20591W        W85411  27.363   3.707   4.531
20592W        W85412  20.552  12.826   3.076
20593W        W85413  35.662  40.099  14.427
20594W        W85414   6.783  25.030   1.590
20595W        W85415  10.776  31.032  10.747
20596W        W85416  29.054  15.768  12.489
20597W        W85417  35.878  18.926   3.672
20598W        W85418  39.399   2.243  12.804
20599W        W85419  35.602  41.100   3.703
20600W        W85420  28.948  43.873  14.222
20601W        W85421   5.031   3.397  10.631
20602W        W85422  35.965  34.783   0.733
20603W        W85423  41.718  20.555  11.057
20604W        W85424  32.964  32.623   2.625
20605W        W85425  28.763   8.703   2.407
20606W        W85426  23.528   8.817   4.563
20607W        W85427  22.913  40.008   2.789
20608W        W85428  36.427  23.979   4.259
20609W        W85429  17.741   6.883   2.409
20610W        W85430  33.957   8.372  13.464
20611W        W85431  28.360   3.691   2.408
20612W        W85432  42.762  14.987   2.691
20613W        W85433  27.502  18.683   2.825
20614W        W85434  11.197  27.719  14.965
20615W        W85435  32.587  16.228  13.301
20616W        W85436  43.737  16.451  12.735
20617W        W85437  13.102  39.928   0.280
20618W        W85438  38.910  22.933  13.008
20619W        W85439  33.876  28.647  10.240
20620W        W85440  34.413  35.894   1.279
20621W        W85441   7.976  20.848   2.230
20622W        W85442   1.159  10.617   1.382
20623W        W85443  36.492  42.744  14.118
20624W        W85444  43.355  21.656  10.959
20625W        W85445  38.059   1.447  13.585
20626W        W85446  44.121  22.600   0.378
20627W        W85447  39.957  24.659  13.928
20628W        W85448  16.564  42.457   2.128
20629W        W85449  26.287   3.712   0.728
20630W        W85450  20.173  25.484   0.661
20631W        W85451   2.789  15.772  12.540
20632W        W85452   9.672  39.616   1.781
20633W        W85453  27.688  16.667  12.806
20634W        W85454  41.495  30.456   2.884
20635W        W85455  21.992  11.764  14.513
20636W        W85456  16.178  18.830  13.101
20637W        W85457  15.278   8.129   4.883
20638W        W85458  40.452   2.859   2.217
20639W        W85459  23.066   8.194  10.750
20640W        W85460  32.680  37.761   1.732
20641W        W85461  15.984  38.255   0.265
20642W        W85462  38.678  41.780   4.119
20643W        W85463   6.879  12.600  12.158
20644W        W85464  31.187  28.793  13.408
20645W        W85465  21.858  29.289   1.933
20646W        W85466  35.508   5.503  11.646
20647W        W85467  36.276   1.497  14.070
20648W        W85468   4.067  35.602   0.778
20649W        W85469  30.427  17.699  14.752
20650W        W85470  30.639  15.705  12.571
20651W        W85471  39.581  41.016   4.863
20652W        W85472  19.068  10.780   0.058
20653W        W85473   5.831  13.740   4.588
20654W        W85474  19.389  42.650  12.457
20655W        W85475  11.892  35.466   2.689
20656W        W85476  14.653  42.548  11.966
20657W        W85477   6.620  14.707   4.127
20658W        W85478  44.676  11.331  12.519
20659W        W85479  43.471  44.657   0.121
20660W        W85480  29.917  24.793   1.765
20661W        W85481  16.724  40.245  13.599
20662W        W85482  26.676  17.144  11.098
20663W        W85483   5.522   8.568  12.032
20664W        W85484  40.542  15.679  13.079
20665W        W85485   6.386  40.461  14.769
20666W        W85486  21.999   5.083   4.615
20667W        W85487   9.079  20.677  12.785
20668W        W85488  40.999   7.010  10.686
20669W        W85489  25.799  31.487   3.189
20670W        W85490  18.670  17.516   0.445
20671W        W85491  40.150  23.942  13.377
20672W        W85492  36.914  40.436   0.674
20673W        W85493   1.429  25.740   0.329
20674W        W85494  30.684  10.012  12.514
20675W        W85495  20.594  18.685   0.961
20676W        W85496  39.530  26.173   2.362
20677W        W85497  26.675  31.593  12.893
20678W        W85498  21.428   7.561   2.477
20679W        W85499  31.675  29.214  14.295
20680W        W85500   7.585  43.861   4.860
20681W        W85501  23.502  32.346  12.258
20682W        W85502  26.162  11.392  12.515
20683W        W85503  27.867  32.911   0.898
20684W        W85504  11.549  38.928  12.524
20685W        W85505   2.423  15.104   2.840
20686W        W85506  41.815  42.987   0.844
20687W        W85507   3.743  32.045   1.392
20688W        W85508  23.908   9.194  13.529
20689W        W85509   3.976  22.191  12.924
20690W        W85510  21.505  30.532   0.245
20691W        W85511  16.720  22.715  12.030
20692W        W85512   1.405   1.026   0.331
20693W        W85513  41.638  30.898  14.259
20694W        W85514   2.326  24.623  12.874
20695W        W85515   7.378   8.715   1.581
20696W        W85516  11.267  13.168   2.910
20697W        W85517  32.836  34.400   1.935
20698W        W85518  23.578  24.841   4.360
20699W        W85519  27.220   7.126   4.194
20700W        W85520   0.813  15.915   1.375
20701W        W85521  30.430  21.777   4.047
20702W        W85522   4.438  27.225  12.979
20703W        W85523  20.035  29.646   2.625
20704W        W85524  27.495  22.009  14.898
20705W        W85525  42.888  39.484   0.353
20706W        W85526  35.891   1.705   3.160
20707W        W85527  23.958  12.658   2.227
20708W        W85528  26.902  30.461   3.260
20709W        W85529  34.431  30.537   4.171
20710W        W85530  34.698  17.507   0.263
20711W        W85531  32.680  41.919   2.160
20712W        W85532  27.623  41.411  14.788
20713W        W85533  34.348   9.894   0.218
20714W        W85534  24.963  28.766   2.849
20715W        W85535  35.447  37.253  12.465
20716W        W85536   2.147  15.323   3.824
20717W        W85537  31.615   6.739   2.792
20718W        W85538  21.953  24.758  13.373
20719W        W85539   1.508  16.309   0.838
20720W        W85540  25.686  14.275  12.865
20721W        W85541  31.656  32.283  14.351
20722W        W85542  21.637   6.773  14.931
20723W        W85543  36.917  44.583   4.820
20724W        W85544   1.179  44.788   3.653
20725W        W85545  15.237  36.648   1.770
20726W        W85546   9.243  26.378   4.252
20727W        W85547   3.745   7.097   3.831
20728W        W85548  27.670  25.897  13.708
20729W        W85549  18.911   2.227  12.027
20730W        W85550  24.758  22.737  12.210
20731W        W85551   7.941  13.271   3.768
20732W        W85552   0.481   7.720   1.281
20733W        W85553   0.223  36.005  12.904
20734W        W85554  36.292  14.374  11.059
20735W        W85555  15.745  27.678   0.886
20736W        W85556  19.031   2.864  13.300
20737W        W85557   4.385  33.403   1.681
20738W        W85558   0.451  12.631   3.771
20739W        W85559   7.895  10.628  11.851
20740W        W85560  28.210  25.713   3.322
20741W        W85561   8.793   0.309  11.541
20742W        W85562  20.056  34.204  12.752
20743W        W85563  32.703  37.144  10.629
20744W        W85564  34.760  43.817   1.262
20745W        W85565   2.042  28.197  14.308
20746W        W85566  25.043  11.831   4.148
20747W        W85567   7.609  21.729   4.063
20748W        W85568  33.566  29.880   5.153
20749W        W85569  44.832  32.823   0.260
20750W        W85570  20.764   5.443  10.998
20751W        W85571   0.788  31.912   1.900
20752W        W85572  30.014   9.309   2.025
20753W        W85573   7.477  16.005   0.833
20754W        W85574  23.641   4.455  13.606
20755W        W85575  27.027   5.169  13.728
20756W        W85576  12.830  34.126   4.041
20757W        W85577  34.371  42.554  12.862
20758W        W85578  15.148   2.839  12.803
20759W        W85579  25.585   6.340   1.507
20760W        W85580  31.831  32.040  13.331
20761W        W85581   4.164  20.937  12.233
20762W        W85582  33.893  38.281  14.114
20763W        W85583  32.340  40.462  14.437
20764W        W85584  34.881  23.778   3.645
20765W        W85585  20.429  32.828  12.070
20766W        W85586  14.045  44.063  12.523
20767W        W85587  28.101   8.954   0.069
20768W        W85588   9.162   0.893  13.430
20769W        W85589  16.897  34.611   9.799
20770W        W85590   3.687   4.810  14.928
20771W        W85591  34.014  43.216  11.574
20772W        W85592  40.293  33.005   0.319
20773W        W85593  43.474  38.939  14.258
20774W        W85594  12.962  35.723  12.007
20775W        W85595  16.124  25.021   1.803
20776W        W85596  18.274  14.849  14.007
20777W        W85597   2.724  29.208   0.690
20778W        W85598  10.555   9.315   4.635
20779W        W85599   1.959  16.653  13.820
20780W        W85600  26.733  12.860  14.788
20781W        W85601  16.903  28.450   0.184
20782W        W85602   5.791   7.733   4.620
20783W        W85603   8.816  33.711   4.186
20784W        W85604   4.259  33.655   3.721
20785W        W85605  42.972  36.473  14.776
20786W        W85606   8.096  35.909   4.889
20787W        W85607  27.740  40.221   2.953
20788W        W85608  15.123  41.055  10.965
20789W        W85609  42.675  12.197   3.226
20790W        W85610   6.714  38.642  14.362
20791W        W85611  33.500  30.764  13.221
20792W        W85612  43.315  38.443  14.365
20793W        W85613   3.667  37.390  13.765
20794W        W85614  26.485  22.175   1.180
20795W        W85615  22.472  30.963   3.257
20796W        W85616  29.135  18.954  14.498
20797W        W85617  44.372  26.131  13.776
20798W        W85618  42.254   0.272   1.887
20799W        W85619  11.008  26.414   1.260
20800W        W85620  15.617  38.011   2.884
20801W        W85621   5.168  33.573  13.447
20802W        W85622  41.563  25.117   1.121
20803W        W85623  33.656  26.964   0.732
20804W        W85624   8.723  43.064   4.224
20805W        W85625  22.084  40.328  13.983
20806W        W85626  41.441  17.704   0.313
20807W        W85627  24.070  27.052   2.003
20808W        W85628  16.233  18.646   3.152
20809W        W85629  39.473  37.628   0.804
20810W        W85630   3.830  25.961   0.283
20811W        W85631  36.401   1.002   3.184
20812W        W85632  19.581  25.110  11.620
20813W        W85633  13.627  25.899  14.860
20814W        W85634  33.102  32.272  11.941
20815W        W85635  18.010  41.308   3.694
20816W        W85636  28.483  26.777  11.845
20817W        W85637  26.320  44.333   3.700
20818W        W85638  31.270   9.144  10.483
20819W        W85639   8.541   3.749   4.190
20820W        W85640   9.170   0.408   1.888
20821W        W85641  37.507  41.358  11.497
20822W        W85642  29.524  12.817   3.672
20823W        W85643  15.493  26.825   2.861
20824W        W85644   9.693  17.508  14.325
20825W        W85645  16.657  16.525  13.116
20826W        W85646  25.483   5.174  10.362
20827W        W85647  19.709  12.360   4.651
20828W        W85648  41.585  35.304   4.072
20829W        W85649   1.459   8.200  13.399
20830W        W85650  21.801   6.833   4.137
20831W        W85651  40.031   3.385   0.646
20832W        W85652  40.543  29.018  12.440
20833W        W85653  10.986  32.402  10.585
20834W        W85654  30.983  38.557   4.805
20835W        W85655   8.957  41.413  11.763
20836W        W85656  30.523  32.062  13.080
20837W        W85657  10.170   5.848   2.182
20838W        W85658   7.004  37.406   0.015
20839W        W85659  33.370  43.556   4.505
20840W        W85660   4.204  10.285   2.751
20841W        W85661   9.888   4.944  12.683
20842W        W85662  20.667   4.605   2.657
20843W        W85663   4.841  27.863  14.504
20844W        W85664  20.243   4.939  11.896
20845W        W85665  26.249   0.497   1.752
20846W        W85666  40.064  28.988   2.439
20847W        W85667   9.459  19.496  13.911
20848W        W85668  17.668   1.785  10.696
20849W        W85669   3.991  15.254   3.007
20850W        W85670  40.933  20.631  13.819
20851W        W85671   7.826  11.307   4.549
20852W        W85672  26.806  33.258  10.162
20853W        W85673   5.954  43.046  13.419
20854W        W85674  25.765  11.531   4.551
20855W        W85675  38.886  33.416  10.926
20856W        W85676  13.053  11.572   4.366
20857W        W85677   6.646  37.488  12.568
20858W        W85678  23.153  42.738   0.405
20859W        W85679  32.822  32.276   5.017
20860W        W85680  27.695  13.753  10.741
20861W        W85681  32.003   3.475   4.117
20862W        W85682   7.258  28.150   1.478
20863W        W85683  18.609   0.317   2.114
20864W        W85684  31.305   1.353  12.153
20865W        W85685   2.193   6.385   2.189
20866W        W85686  39.372  11.208  12.019
20867W        W85687  24.524  13.754   2.398
20868W        W85688  36.520  27.316   0.720
20869W        W85689  22.971  43.174  11.609
20870W        W85690  20.107  26.795  12.338
20871W        W85691  29.983  40.435  11.666
20872W        W85692   1.725  44.789   3.602
20873W        W85693  24.525  16.790  12.910
20874W        W85694  24.490  40.517  14.307
20875W        W85695  24.467  10.740   0.406
20876W        W85696  15.665  12.683   1.187
20877W        W85697  11.119  15.631  14.340
20878W        W85698  26.801   5.900   1.372
20879W        W85699   8.216  16.205  10.732
20880W        W85700  18.696  31.920   2.731
20881W        W85701  34.335   8.774   3.691
20882W        W85702  44.833  10.592   0.469
20883W        W85703  14.577  26.459   4.658
20884W        W85704   0.702  18.618  14.835
20885W        W85705  28.924   7.802  14.439
20886W        W85706   0.200  17.135  13.275
20887W        W85707  36.079  14.067   3.135
20888W        W85708   4.447  38.552  12.087
20889W        W85709  42.083  37.833   1.501
20890W        W85710  31.416   6.667  14.909
20891W        W85711  21.664  17.373  14.785
20892W        W85712  32.544  22.976  10.290
20893W        W85713   6.203  20.103  10.640
20894W        W85714  21.832  20.493  14.043
20895W        W85715  33.022   7.397  13.808
20896W        W85716   2.533   2.971   4.207
20897W        W85717  20.789  39.257   4.345
20898W        W85718  18.071  27.527  13.911
20899W        W85719  17.485  14.480  14.956
20900W        W85720  28.963  26.642   0.400
20901W        W85721  34.018   6.895   2.329
20902W        W85722  14.961  37.363   2.547
20903W        W85723   4.823   3.219   4.243
20904W        W85724  34.919  44.622   2.360
20905W        W85725  38.575   8.261   0.723
20906W        W85726  31.958  32.860   4.035
20907W        W85727  24.790  20.232  12.378
20908W        W85728   0.844  31.432   4.459
20909W        W85729  34.659  27.111  14.827
20910W        W85730  10.090  26.699  12.510
20911W        W85731  23.789  35.338  12.818
20912W        W85732  37.073  36.510   1.308
20913W        W85733  42.374  29.116   4.878
20914W        W85734  43.786  30.967   1.368
20915W        W85735  34.298  39.727   1.889
20916W        W85736  39.010   0.550   3.248
20917W        W85737  11.615  24.504   1.218
20918W        W85738  18.542  25.447  10.975
20919W        W85739  41.487  26.623   3.593
20920W        W85740   9.855   1.650  14.808
20921W        W85741   5.715  41.047  10.681
20922W        W85742  29.259  22.074  13.005
20923W        W85743   0.182   7.668  14.338
20924W        W85744   0.659  26.685  12.048
20925W        W85745  38.861  37.447  11.570
20926W        W85746  10.123  13.664  12.437
20927W        W85747   1.376  38.937   0.284
20928W        W85748  41.012  36.851  12.647
20929W        W85749  12.429  17.790   5.326
20930W        W85750  24.978  39.463  10.773
20931W        W85751  17.115  19.025  14.974
20932W        W85752  11.243  36.652   0.361
20933W        W85753   9.735  12.297  10.767
20934W        W85754  11.120  29.975   5.370
20935W        W85755   0.324  37.464   1.451
20936W        W85756  36.591  31.996  10.696
20937W        W85757  34.457  32.051  11.111
20938W        W85758   1.382  19.014   3.276
20939W        W85759   7.465  29.437  11.115
20940W        W85760  10.190  10.595   0.038
20941W        W85761   2.375  44.243  12.123
20942W        W85762  30.361  21.434   1.844
20943W        W85763  18.662  33.172   0.391
20944W        W85764  18.828  30.356  11.161
20945W        W85765  44.876  39.162  13.071
20946W        W85766  11.364  14.617   2.860
20947W        W85767  44.251  34.480   2.714
20948W        W85768  30.770  40.104   4.496
20949W        W85769  44.462  11.789  12.396
20950W        W85770  34.637  42.065   1.239
20951W        W85771  24.223   9.786   3.281
20952W        W85772  36.582  23.781  12.958
20953W        W85773  28.021   6.536  11.181
20954W        W85774  24.569  28.882  11.101
20955W        W85775  12.222  39.383   3.970
20956W        W85776  40.740   2.340  14.261
20957W        W85777  23.471   0.396  11.496
20958W        W85778   4.293  14.688   2.271
20959W        W85779  24.666   9.405   4.604
20960W        W85780  37.953   9.888  13.653
20961W        W85781  41.509   3.264  14.401
20962W        W85782  13.357   6.020   4.210
20963W        W85783  42.545  27.152  14.944
20964W        W85784  34.524  35.704  11.183
20965W        W85785  28.214  37.362   0.408
20966W        W85786  22.717  30.924  14.270
20967W        W85787  35.328   0.351   3.879
20968W        W85788  35.477  20.164  11.399
20969W        W85789  39.356   4.823  11.515
20970W        W85790  29.469  35.696   2.260
20971W        W85791   0.034  33.115  12.092
20972W        W85792  14.998  44.497   2.851
20973W        W85793  17.010   3.935  11.186
20974W        W85794  20.596  28.945   0.716
20975W        W85795  39.430  23.571  10.893
20976W        W85796  37.787   4.413  13.547
20977W        W85797  44.989  41.026   4.295
20978W        W85798   8.696  19.091   0.417
20979W        W85799  15.703  30.057  11.949
20980W        W85800  39.403  42.285  13.964
20981W        W85801  25.453  11.603   0.464
20982W        W85802   7.494   9.126  14.047
20983W        W85803   9.294  15.795   4.612
20984W        W85804  24.092   9.756   3.779
20985W        W85805   0.022  36.922   0.338
20986W        W85806  24.223  41.237  10.613
20987W        W85807  30.798   5.158  12.444
20988W        W85808  26.052  11.686  12.971
20989W        W85809  41.527  14.300   0.235
20990W        W85810   0.344  38.455   0.073
20991W        W85811  36.644   3.594  11.548
20992W        W85812   3.210  27.316   2.373
20993W        W85813  15.929  11.220  12.832
20994W        W85814  37.384  19.022   0.856
20995W        W85815  36.233  34.559  11.965
20996W        W85816  28.520  37.387  14.987
20997W        W85817  39.341  20.212   2.741
20998W        W85818  29.553  29.974   2.683
20999W        W85819   7.856  18.786  11.242
21000W        W85820   4.443  40.372  12.434
21001W        W85821  43.971   9.449  14.087
21002W        W85822  21.819  15.383  14.432
21003W        W85823  33.328  41.735   5.033
21004W        W85824  12.991   4.770   1.964
21005W        W85825   2.541  13.055   4.222
21006W        W85826  40.464  13.911  10.785
21007W        W85827  16.827  13.164  12.389
21008W        W85828  39.934  23.559  10.718
21009W        W85829  15.257  29.376   3.223
21010W        W85830  44.291  34.461   4.557
21011W        W85831  38.934  12.080   3.521
21012W        W85832  18.868  23.650   0.404
21013W        W85833  16.987  13.199  14.415
21014W        W85834  11.881   1.751  10.935
21015W        W85835  32.992  22.623  12.628
21016W        W85836  12.417  22.651   4.514
21017W        W85837  19.033   6.533   3.243
21018W        W85838  19.190  41.795   1.380
21019W        W85839  26.421  26.013  14.254
21020W        W85840  10.828  44.632   1.743
21021W        W85841   2.016  20.963  13.448
21022W        W85842   3.745  35.807  14.210
21023W        W85843   6.164  30.670  12.005
21024W        W85844  25.153  22.319  10.977
21025W        W85845   1.445  21.580   3.359
21026W        W85846  29.906  22.445  10.625
21027W        W85847  26.240   9.827   4.575
21028W        W85848  42.193  31.959  14.034
21029W        W85849  15.524  44.346   3.712
21030W        W85850  21.371  24.648  11.102
21031W        W85851  17.192  10.406   4.545
21032W        W85852  40.524   6.464   2.281
21033W        W85853  13.640  39.941  13.308
21034W        W85854   5.831  43.261  14.092
21035W        W85855  13.631  36.464   4.051
21036W        W85856   4.001  33.004   4.523
21037W        W85857  35.473  12.043  10.727
21038W        W85858  39.001  26.516  10.437
21039W        W85859  27.070   6.741   4.522
21040W        W85860   4.166   3.367  13.878
21041W        W85861   5.841  37.045  11.148
21042W        W85862  38.891  32.167  12.668
21043W        W85863  26.433  41.665  11.602
21044W        W85864   1.313   2.706   0.675
21045W        W85865   7.816  30.053   3.691
21046W        W85866  22.575  14.597  14.985
21047W        W85867  11.683  11.117   4.701
21048W        W85868  36.816  44.438   0.184
21049W        W85869  29.042   2.756   3.159
21050W        W85870   3.455   2.872   1.690
21051W        W85871  41.429  17.868  13.092
21052W        W85872  31.175  21.160   4.996
21053W        W85873  17.778  23.485   1.942
21054W        W85874  37.825  11.624   4.161
21055W        W85875  17.246  28.124   3.667
21056W        W85876  21.916  18.560  13.919
21057W        W85877  27.179  25.433  11.789
21058W        W85878   2.523  42.014   4.541
21059W        W85879   9.721   8.327  10.599
21060W        W85880  32.584   9.573  12.411
21061W        W85881  17.556  10.401   3.766
21062W        W85882  12.632   1.860   4.615
21063W        W85883  41.277  15.088  11.109
21064W        W85884  36.255  41.396   9.919
21065W        W85885   3.224   6.427   3.268
21066W        W85886  18.500  28.612   1.413
21067W        W85887  34.519  30.553  13.855
21068W        W85888  16.364   3.954  14.806
21069W        W85889  19.080  35.419   0.429
21070W        W85890  38.433  17.351  10.412
21071W        W85891   5.943  40.894   1.751
21072W        W85892  24.314   3.913  11.567
21073W        W85893  10.345  24.032   1.194
21074W        W85894  31.622  37.827  12.720
21075W        W85895  38.186  38.125   4.637
21076W        W85896  37.496  39.827   0.948
21077W        W85897  21.639  14.811  12.961
21078W        W85898  28.035  21.881   3.148
21079W        W85899  11.744   2.799   1.889
21080W        W85900  28.671  38.103   3.305
21081W        W85901  31.474  10.876  13.137
21082W        W85902   5.905  44.468  12.083
21083W        W85903   1.011  35.230  14.491
21084W        W85904  20.348  20.861  11.642
21085W        W85905  18.502   8.186   3.009
21086W        W85906   2.075  17.490  11.535
21087W        W85907  25.992   9.111   2.316
21088W        W85908   4.859  34.455   1.689
21089W        W85909   7.685  27.657  10.907
21090W        W85910  24.835  17.225  14.294
21091W        W85911  12.577  14.777   3.654
21092W        W85912  43.295  40.938   1.483
21093W        W85913  27.735   9.401   1.772
21094W        W85914  42.210   5.676  12.812
21095W        W85915   7.724  16.342  10.979
21096W        W85916  28.000   4.911  14.805
21097W        W85917  11.228  21.645   4.070
21098W        W85918  13.706  26.556  11.042
21099W        W85919  25.996  41.928   2.297
21100W        W85920   1.283  23.681   0.017
21101W        W85921   6.338  20.001   4.653
21102W        W85922  16.397   7.724   0.851
21103W        W85923  37.425   6.104  13.383
21104W        W85924  37.936  38.052   2.195
21105W        W85925  37.198   0.719  12.101
21106W        W85926  27.213  26.126  13.962
21107W        W85927  18.310  27.676   3.008
21108W        W85928  12.721  26.891   2.821
21109W        W85929  17.163  39.008  13.121
21110W        W85930  39.356  20.255  10.757
21111W        W85931   8.942  29.106  13.316
21112W        W85932   3.723  12.224  14.939
21113W        W85933   6.340  41.898  10.557
21114W        W85934  16.576   6.887  14.580
21115W        W85935   6.323  11.189  14.845
21116W        W85936  39.696  23.126  11.610
21117W        W85937  34.599  23.180  14.879
21118W        W85938  14.362  20.486   1.716
21119W        W85939  40.400  40.407  13.247
21120W        W85940  39.418  41.049  12.000
21121W        W85941  18.479  39.301   3.806
21122W        W85942  39.567  39.381   3.317
21123W        W85943   6.038  34.867  11.255
21124W        W85944  18.516   6.513   0.448
21125W        W85945  34.639  44.249   4.767
21126W        W85946   2.832  36.805  13.528
21127W        W85947  29.145  17.268  11.229
21128W        W85948  34.036  11.284   4.808
21129W        W85949   2.976  44.425   3.557
21130W        W85950  44.284  27.969   0.197
21131W        W85951   7.651  37.799  11.145
21132W        W85952  24.556  18.486   3.268
21133W        W85953   3.564  29.398   0.242
21134W        W85954   6.556  39.996  14.972
21135W        W85955  13.907  22.949  14.269
21136W        W85956  20.772  20.048  11.682
21137W        W85957  12.697   1.836  11.911
21138W        W85958  39.955  19.744  13.948
21139W        W85959  18.045  19.225   1.794
21140W        W85960  43.975  21.179   1.268
21141W        W85961  13.394  16.678   2.176
21142W        W85962  11.199  16.097   3.150
21143W        W85963  20.034   8.824  13.810
21144W        W85964   0.675  14.579  12.523
21145W        W85965  31.060  28.987   2.694
21146W        W85966  21.385  37.904   5.526
21147W        W85967  32.305   1.236   1.873
21148W        W85968   2.317  32.788   3.618
21149W        W85969  41.485  20.679   2.240
21150W        W85970  42.492  20.649   2.131
21151W        W85971  32.989  18.749  13.805
21152W        W85972   7.124  41.782  13.446
21153W        W85973  19.670  36.069   0.803
21154W        W85974  27.636  33.431  14.302
21155W        W85975  18.724  11.897   0.877
21156W        W85976   9.230   8.341   0.994
21157W        W85977  34.569  16.617   3.657
21158W        W85978  33.964  30.907   1.339
21159W        W85979  41.030   7.688  12.559
21160W        W85980  40.472  21.365   4.692
21161W        W85981  42.269  29.922  14.538
21162W        W85982  17.261  26.773   1.328
21163W        W85983  30.935   8.267  10.635
21164W        W85984  13.562   8.407   1.419
21165W        W85985  35.550   5.430   1.837
21166W        W85986  26.593  14.736   3.092
21167W        W85987  20.809  41.115  10.678
21168W        W85988   0.236  15.700   1.781
21169W        W85989  35.335  10.267   3.227
21170W        W85990  18.889  32.604   4.719
21171W        W85991  41.706  36.257   4.561
21172W        W85992  44.852  14.311  13.906
21173W        W85993   5.339  17.130  14.494
21174W        W85994  39.117  28.891   1.886
21175W        W85995  40.260  15.212   1.213
21176W        W85996  21.313   1.606   1.887
21177W        W85997  37.454   8.094   4.117
21178W        W85998  38.343  13.856  14.017
21179W        W85999  21.555   4.607  13.980
21180W        W86000   0.462  29.158   4.635
21181W        W86001   4.607  21.011  12.516
21182W        W86002  21.559   3.040  14.342
21183W        W86003   7.194  25.204  12.360
21184W        W86004  40.595  17.316   4.229
21185W        W86005   2.849  39.652   4.693
21186W        W86006  13.202  25.552  13.323
21187W        W86007  29.070  18.235  12.033
21188W        W86008  10.421  36.769  12.538
21189W        W86009  44.665  29.048   2.915
21190W        W86010  27.196  23.989  13.514
21191W        W86011  17.257   0.766  12.113
21192W        W86012  30.312  20.719   3.563
21193W        W86013  32.435  40.121  14.831
21194W        W86014  35.685  23.335   3.274
21195W        W86015  10.860  17.330  14.933
21196W        W86016  39.112  28.517  10.249
21197W        W86017  39.042  32.407  14.392
21198W        W86018  34.327  35.830   4.131
21199W        W86019   0.332   8.874  12.348
21200W        W86020  44.660   5.885  10.143
21201W        W86021  38.466  41.081  14.011
21202W        W86022   9.922  37.262   4.150
21203W        W86023  30.925  39.723   1.774
21204W        W86024  35.413  20.666   1.549
21205W        W86025  35.632  22.195   4.619
21206W        W86026  43.886  17.182  11.129
21207W        W86027   9.801  11.339  14.051
21208W        W86028  26.108  38.819  14.501
21209W        W86029  43.880   7.200  11.697
21210W        W86030  21.005  14.183   4.131
21211W        W86031  21.471   7.882  10.948
21212W        W86032  18.820  43.042  12.453
21213W        W86033  20.230   1.085  12.914
21214W        W86034  24.695  10.231   1.319
21215W        W86035  20.162  43.036  14.771
21216W        W86036   3.723   3.270   4.334
21217W        W86037  38.428  15.630   4.642
21218W        W86038   5.641  44.299   1.983
21219W        W86039  20.274  39.541   3.224
21220W        W86040  33.867  35.552   4.151
21221W        W86041   8.933   7.182  13.974
21222W        W86042   1.834   9.218   0.411
21223W        W86043  15.283  17.068   2.202
21224W        W86044  36.322   1.936  13.763
21225W        W86045  38.497  14.989   1.886
21226W        W86046  43.224   7.020  11.494
21227W        W86047  41.998  21.496   1.328
21228W        W86048  16.449  35.410   1.446
21229W        W86049  41.994  21.458  12.060
21230W        W86050  23.480   3.359   1.668
21231W        W86051  39.965  19.947  11.029
21232W        W86052  36.570  20.303   0.470
21233W        W86053  27.456  23.541  10.728
21234W        W86054   9.377  22.089   0.582
21235W        W86055  38.285  37.876  12.012
21236W        W86056  25.928  33.506  10.064
21237W        W86057  23.100   9.171   1.651
21238W        W86058  34.111   8.206  12.927
21239W        W86059  42.321  14.875   1.359
21240W        W86060  14.596   6.437  14.435
21241W        W86061  20.408   3.820   1.289
21242W        W86062  10.880  27.695   1.947
21243W        W86063  30.030  20.809  11.057
21244W        W86064  10.302  33.079  12.505
21245W        W86065  28.946  31.639   2.468
21246W        W86066   6.584  25.611   2.256
21247W        W86067  11.134  27.447   0.425
21248W        W86068  24.507  33.611   0.476
21249W        W86069  20.014  23.540  13.811
21250W        W86070  34.335  25.668   2.473
21251W        W86071  39.529  28.031  14.289
21252W        W86072  13.092   8.367   1.629
21253W        W86073  23.860  18.195   3.627
21254W        W86074  43.327   5.388   2.161
21255W        W86075  37.897  16.599   2.381
21256W        W86076  16.090  37.771   0.130
21257W        W86077  16.241  10.847  14.363
21258W        W86078  18.502  33.900   4.127
21259W        W86079   4.011  30.577  13.770
21260W        W86080   8.265  14.069  11.206
21261W        W86081  32.055   3.960   3.023
21262W        W86082  20.153  33.454   1.204
21263W        W86083  16.645   6.795   1.307
21264W        W86084  19.161  14.053   4.172
21265W        W86085  23.097   2.852   3.380
21266W        W86086   1.035  30.194   0.896
21267W        W86087   7.179  29.237   3.440
21268W        W86088  25.477  42.055   3.248
21269W        W86089  34.964  33.902  10.683
21270W        W86090  37.174  29.474   2.467
21271W        W86091  36.348  30.911   3.840
21272W        W86092  33.126  43.358   2.225
21273W        W86093   2.983  17.572   2.269
21274W        W86094  14.616  26.005   4.913
21275W        W86095  31.037  43.039  14.372
21276W        W86096  39.648  26.700  14.064
21277W        W86097   6.273  12.138  10.708
21278W        W86098   1.453  35.916  14.360
21279W        W86099  19.147  29.989  14.410
21280W        W86100  34.433  28.995   0.389
21281W        W86101  23.320   0.697  12.817
21282W        W86102   4.852  27.843   0.931
21283W        W86103  28.683  27.208   0.806
21284W        W86104  44.753  24.877   3.845
21285W        W86105  24.938  35.599   2.471
21286W        W86106  20.297   2.290  13.444
21287W        W86107  33.140  14.227  10.598
21288W        W86108  16.609  27.328  11.530
21289W        W86109   0.066  25.450   0.747
21290W        W86110  27.178  12.117  10.931
21291W        W86111  29.025  22.318  11.071
21292W        W86112  37.023  28.591   2.553
21293W        W86113   4.394  19.304   2.808
21294W        W86114  36.062   0.946   1.832
21295W        W86115  28.438   0.741   3.548
21296W        W86116  13.819  38.758  13.519
21297W        W86117  18.302  31.710   5.003
21298W        W86118  20.256  17.528  14.517
21299W        W86119  10.234  28.341   3.066
21300W        W86120  20.947  20.731  14.943
21301W        W86121  14.697  21.114   3.224
21302W        W86122  20.592   5.401   5.038
21303W        W86123  23.275   7.612   3.903
21304W        W86124   9.296  18.940  14.025
21305W        W86125  20.873   9.110  13.931
21306W        W86126   8.167  22.161  14.862
21307W        W86127  42.342   2.992  12.606
21308W        W86128  18.262  40.675   2.454
21309W        W86129   7.412  17.544   3.135
21310W        W86130  32.083  29.504  13.441
21311W        W86131  34.655  37.235   1.779
21312W        W86132   2.484  12.508   0.521
21313W        W86133  42.785  20.995  11.534
21314W        W86134   6.847  22.490  14.779
21315W        W86135  28.507  44.060  11.992
21316W        W86136  34.799  37.751   3.142
21317W        W86137  24.201  16.555   2.557
21318W        W86138   9.594  35.067  10.433
21319W        W86139  20.205  31.604   3.069
21320W        W86140  35.645  25.030   1.416
21321W        W86141  40.835   2.247   2.291
21322W        W86142  34.538   8.332  12.638
21323W        W86143  40.486  38.968  11.715
21324W        W86144  39.782   5.278   2.077
21325W        W86145  32.169   5.899  14.480
21326W        W86146  43.087  21.990  11.575
21327W        W86147  14.421  11.526   0.271
21328W        W86148   3.688  18.324  11.224
21329W        W86149  17.059  27.792   5.044
21330W        W86150  25.238   7.445  14.757
21331W        W86151   5.853  35.945   0.700
21332W        W86152  13.576  34.685   1.574
21333W        W86153   3.746   0.885  14.873
21334W        W86154   1.212  15.892   0.909
21335W        W86155  34.545  29.055   1.633
21336W        W86156  22.298   6.437   0.819
21337W        W86157  10.327  16.369   0.604
21338W        W86158   5.646  33.374   1.376
21339W        W86159  34.866   4.870   0.628
21340W        W86160   2.521  36.161  10.755
21341W        W86161  34.696  10.512   1.664
21342W        W86162   9.115  36.699   3.601
21343W        W86163   4.896  43.804   0.526
21344W        W86164  21.218  23.593  14.508
21345W        W86165  12.285   5.445   0.467
21346W        W86166  20.068  23.086  14.085
21347W        W86167  14.325  10.355   0.839
21348W        W86168  38.291  32.233   1.197
21349W        W86169   0.058  29.685   1.389
21350W        W86170   4.163  26.948   2.252
21351W        W86171  42.013  23.530   1.353
21352W        W86172  41.373   7.451  14.534
21353W        W86173  38.928  23.552   1.923
21354W        W86174  19.720  19.653   4.195
21355W        W86175   3.761   9.213  12.044
21356W        W86176  25.419  23.194  11.370
21357W        W86177   1.704   7.213   2.640
21358W        W86178  24.212  30.020  14.044
21359W        W86179  42.243  36.734  10.686
21360W        W86180  28.566  31.510   4.137
21361W        W86181  31.104   4.996  12.077
21362W        W86182  43.001  44.725   0.340
21363W        W86183  34.361  23.606  12.587
21364W        W86184   0.398   1.332  13.539
21365W        W86185  17.218  24.220   4.453
21366W        W86186  10.702  40.329  12.640
21367W        W86187  25.474  15.132  10.782
21368W        W86188  26.614   4.879  11.003
21369W        W86189  19.589  14.607   3.102
21370W        W86190  37.078  10.615   2.485
21371W        W86191  36.339  28.132  10.543
21372W        W86192  16.680  26.728  10.691
21373W        W86193  15.095  42.215   1.001
21374W        W86194  37.584  39.355   4.218
21375W        W86195  44.974  42.228   3.733
21376W        W86196   9.891   8.727   1.277
21377W        W86197  16.589  27.925   3.182
21378W        W86198  25.067   5.670  14.215
21379W        W86199  29.704  26.687  12.367
21380W        W86200  32.574  33.469   2.337
21381W        W86201   4.807  22.436  13.458
21382W        W86202  41.838  23.278  11.482
21383W        W86203  38.541  33.901   4.491
21384W        W86204  43.742  31.901   3.165
21385W        W86205  39.414  12.235  12.044
21386W        W86206  26.251  28.050   0.390
21387W        W86207   1.607   6.439  11.930
21388W        W86208  26.589  37.005  14.539
21389W        W86209  25.523  15.108   0.830
21390W        W86210  30.412  22.708   2.746
21391W        W86211  31.109   8.838  14.268
21392W        W86212  11.176  44.674   3.300
21393W        W86213  27.159  13.195  11.490
21394W        W86214   7.364  10.054  13.948
21395W        W86215  22.676  26.933  12.820
21396W        W86216  32.223  16.495   0.691
21397W        W86217  32.448   8.288   2.442
21398W        W86218  24.576  10.893   9.684
21399W        W86219  15.985   1.823   3.696
21400W        W86220   2.378  19.969  12.186
21401W        W86221  12.207  36.375  12.568
21402W        W86222  41.226  11.013  14.693
21403W        W86223   3.367  22.352   2.347
21404W        W86224   8.565  33.422  14.262
21405W        W86225  19.661  24.312  13.403
21406W        W86226  14.684  12.026   1.712
21407W        W86227   3.063  41.374   3.212
21408W        W86228  39.084  12.417  14.510
21409W        W86229   5.261  20.264  14.827
21410W        W86230  34.500  18.121   5.045
21411W        W86231  15.891  25.295   0.805
21412W        W86232  12.023  28.040  10.337
21413W        W86233   3.742   7.186   1.290
21414W        W86234  23.131  13.300  12.595
21415W        W86235  38.303  42.886   1.246
21416W        W86236  36.334  26.164  11.404
21417W        W86237  14.610   4.815   3.944
21418W        W86238  22.506  15.046   2.634
21419W        W86239   1.440  42.712  11.268
21420W        W86240  14.088  19.175  13.729
21421W        W86241   3.074  34.280  13.143
21422W        W86242   2.421  34.352   0.566
21423W        W86243   5.855   6.151   3.306
21424W        W86244  22.058  30.067   3.556
21425W        W86245  39.767   6.247  11.433
21426W        W86246  28.419   3.441   0.440
21427W        W86247   4.853   6.845  14.340
21428W        W86248  25.078   6.785   4.853
21429W        W86249  39.359  38.042   2.259
21430W        W86250  32.913   3.729   3.708
21431W        W86251  22.913   7.076  11.572
21432W        W86252  33.811  21.567   0.404
21433W        W86253   3.247  42.751  14.794
21434W        W86254  40.768  41.871  11.703
21435W        W86255   4.134  11.529  11.027
21436W        W86256  17.045  37.789  13.397
21437W        W86257  42.127  44.975   4.221
21438W        W86258   2.198  13.225  13.913
21439W        W86259   9.841  34.798  13.916
21440W        W86260   9.179  33.987   2.630
21441W        W86261  26.272  38.300  11.622
21442W        W86262  37.051  35.428  12.403
21443W        W86263  17.058  21.950  13.015
21444W        W86264   8.321  17.784   4.145
21445W        W86265  41.379   2.964  12.015
21446W        W86266  44.233   5.634   3.474
21447W        W86267   7.654  37.922   3.415
21448W        W86268   8.931   8.647   4.145
21449W        W86269  32.491  44.266  14.910
21450W        W86270   7.315  23.496   3.649
21451W        W86271  31.239   8.261   3.843
21452W        W86272  36.006  37.935   4.873
21453W        W86273  38.075  41.089  10.712
21454W        W86274  23.073  12.167  11.582
21455W        W86275  16.014  23.993   1.608
21456W        W86276  40.994  27.177   0.875
21457W        W86277  41.039  23.205  12.038
21458W        W86278  34.848  26.253   2.192
21459W        W86279  10.905  11.773  12.933
21460W        W86280   5.501  32.611  11.262
21461W        W86281  26.464  28.190  12.392
21462W        W86282   9.342  29.514  14.115
21463W        W86283   8.557   5.801  14.878
21464W        W86284  21.692  19.263   0.943
21465W        W86285   3.935  26.677  14.079
21466W        W86286  23.403  27.546  12.349
21467W        W86287  24.110  35.869  12.326
21468W        W86288  25.695  41.792  12.499
21469W        W86289  16.536  16.098   0.395
21470W        W86290  33.417  11.891   2.705
21471W        W86291  16.919   3.311   1.000
21472W        W86292   4.002  11.259  14.798
21473W        W86293  37.633  27.670   2.658
21474W        W86294  44.599  44.180   1.454
21475W        W86295  10.613   8.793  12.395
21476W        W86296  25.188  21.174  12.978
21477W        W86297  27.902  41.929   1.319
21478W        W86298   1.468  13.507  11.737
21479W        W86299  44.625  16.808   2.396
21480W        W86300   9.888  11.481   4.364
21481W        W86301  25.475  30.215  11.636
21482W        W86302  27.108   7.828   2.915
21483W        W86303  32.061  39.062  12.985
21484W        W86304  38.607  43.291   1.135
21485W        W86305  40.660  23.434  10.396
21486W        W86306   9.761  32.489  11.654
21487W        W86307   2.406   4.245   2.368
21488W        W86308  25.786  11.741  10.830
21489W        W86309   9.096   6.014  10.156
21490W        W86310  10.559  38.473  14.297
21491W        W86311  20.268   4.016   0.047
21492W        W86312  23.217  42.804   1.893
21493W        W86313   8.681   7.777  13.095
21494W        W86314   9.302  29.099   9.894
21495W        W86315  30.946  23.512  12.489
21496W        W86316  28.762   6.942  12.028
21497W        W86317  40.758  12.302  12.395
21498W        W86318  38.946  26.230   3.210
21499W        W86319   9.220  12.241   4.709
21500W        W86320   6.320  32.320   3.142
21501W        W86321  33.310  21.670   0.374
21502W        W86322  24.559  28.412   3.578
21503W        W86323  38.059  17.772   1.628
21504W        W86324   1.437  15.354  14.862
21505W        W86325  16.350   1.770   0.340
21506W        W86326  31.696  21.205   0.483
21507W        W86327  36.335  40.530  10.756
21508W        W86328  38.881  30.932  11.061
21509W        W86329   2.264  24.007  14.369
21510W        W86330   0.312  16.140   2.825
21511W        W86331  33.216  31.648   2.840
21512W        W86332  35.774  28.581   3.423
21513W        W86333  30.907  31.094   4.638
21514W        W86334  44.061  35.527  13.473
21515W        W86335  18.025  16.671  10.998
21516W        W86336  12.534  15.684  12.414
21517W        W86337  22.911  15.820  12.825
21518W        W86338  14.028   6.336   3.962
21519W        W86339  38.250  26.520  11.099
21520W        W86340  28.326   4.925  13.108
21521W        W86341  20.874  30.213  10.651
21522W        W86342   0.679  22.713  12.965
21523W        W86343  32.206  10.333   3.555
21524W        W86344  26.204   4.580   4.806
21525W        W86345   5.303   2.832  13.455
21526W        W86346   1.246   9.219   1.292
21527W        W86347  12.649  10.929  10.643
21528W        W86348  33.495  16.665  13.524
21529W        W86349  42.954  18.546   1.566
21530W        W86350  12.353  27.500  12.853
21531W        W86351  28.174   7.977  14.826
21532W        W86352   6.947  20.476   2.188
21533W        W86353   0.181  26.030   3.764
21534W        W86354  36.032  40.299  14.057
21535W        W86355  43.965  22.534   4.188
21536W        W86356  38.522  31.708   1.269
21537W        W86357  42.587  42.690  11.581
21538W        W86358  39.072  36.628   0.097
21539W        W86359  16.490  17.053   1.447
21540W        W86360  23.282  25.457   2.687
21541W        W86361   3.343  36.255   0.201
21542W        W86362   2.712  21.744   0.768
21543W        W86363  12.801  42.461  11.809
21544W        W86364  11.633  39.802   2.740
21545W        W86365  30.614   7.671   3.665
21546W        W86366  15.508  28.258  14.031
21547W        W86367  44.192  10.360   3.377
21548W        W86368  39.028  20.732   3.772
21549W        W86369  10.301   1.767  11.083
21550W        W86370  25.534   2.584   2.499
21551W        W86371  39.804  44.425   2.777
21552W        W86372   5.892  25.538  11.374
21553W        W86373  43.599  40.035  10.704
21554W        W86374  14.855  38.017   5.109
21555W        W86375  35.829  29.699  10.669
21556W        W86376   8.884  33.686  13.376
21557W        W86377  12.538  32.212   0.403
21558W        W86378   9.675  21.047   1.227
21559W        W86379  42.397  39.254   1.222
21560W        W86380  36.884  28.904  10.804
21561W        W86381   6.231  16.328  12.191
21562W        W86382  37.805  29.384   1.269
21563W        W86383  26.803   9.669  14.142
21564W        W86384  37.371  37.667   3.612
21565W        W86385  29.667  11.833  12.221
21566W        W86386   3.311  37.497   3.178
21567W        W86387  37.589  31.595  11.137
21568W        W86388  23.998  39.330  14.070
21569W        W86389  29.158  17.441   3.336
21570W        W86390   6.609  39.955  10.286
21571W        W86391  30.206  32.212   0.862
21572W        W86392  10.047  21.835   5.046
21573W        W86393  28.757  33.753   4.454
21574W        W86394  41.428  17.808  11.540
21575W        W86395  17.825  29.873   2.826
21576W        W86396  17.705  29.825  12.944
21577W        W86397  17.104   7.169   2.439
21578W        W86398  15.025   9.205  11.170
21579W        W86399   2.714  17.224  14.246
21580W        W86400   0.206  22.990  12.955
21581W        W86401  10.871   1.735  12.948
21582W        W86402  25.935   8.393  13.754
21583W        W86403   8.135  30.433   3.291
21584W        W86404   7.743  40.068   2.330
21585W        W86405  10.401  32.991   3.025
21586W        W86406   4.857  39.791   3.676
21587W        W86407  40.071  44.744  12.020
21588W        W86408  15.614  32.960  13.210
21589W        W86409  39.066  41.803  10.164
21590W        W86410  40.449  38.577  13.533
21591W        W86411  29.916   9.686  14.356
21592W        W86412   0.962  10.120   2.370
21593W        W86413   6.396   4.534   4.704
21594W        W86414  19.002  38.011  14.062
21595W        W86415   1.007  25.961   1.764
21596W        W86416   2.179  20.693  11.616
21597W        W86417  32.347  26.877   1.587
21598W        W86418   8.301  44.499  11.630
21599W        W86419   2.844   7.426  12.599
21600W        W86420   9.297   9.675  11.211
21601W        W86421  30.388  40.982   2.177
21602W        W86422  25.392  26.148   2.386
21603W        W86423  28.274  27.634  11.137
21604W        W86424  41.457   8.334   0.270
21605W        W86425  30.995  42.051   3.224
21606W        W86426  14.626  22.106   2.303
21607W        W86427  40.347  41.018  14.499
21608W        W86428  25.734  21.393   3.373
21609W        W86429   1.516   3.488   3.304
21610W        W86430  39.033  36.890   1.863
21611W        W86431  29.633  40.058   0.318
21612W        W86432  16.547  22.724  13.096
21613W        W86433  21.590  24.572   0.936
21614W        W86434   6.822  22.280  12.881
21615W        W86435  20.291  21.228  12.077
21616W        W86436  10.208  43.888  10.704
21617W        W86437  27.474   9.097  12.568
21618W        W86438  22.531  31.916  14.805
21619W        W86439  24.095  27.415   2.779
21620W        W86440  30.560  17.771   4.068
21621W        W86441  20.365  43.719   3.728
21622W        W86442   3.009  24.231  14.774
21623W        W86443   5.605  29.213   0.442
21624W        W86444  34.072   1.180   2.937
21625W        W86445  40.982  28.906  12.048
21626W        W86446  27.612  10.333   0.684
21627W        W86447  11.689  13.085   2.138
21628W        W86448  15.439  21.031   2.778
21629W        W86449  23.556   6.912   0.398
21630W        W86450  18.855  36.957   1.143
21631W        W86451  31.413  18.256  10.716
21632W        W86452   9.024  39.830  11.067
21633W        W86453  26.466  27.029   3.670
21634W        W86454  32.343   5.812  11.650
21635W        W86455  18.579  28.899  12.400
21636W        W86456  30.633  25.985  13.460
21637W        W86457  25.142   2.551   1.169
21638W        W86458  12.664  34.693  13.325
21639W        W86459  22.707  33.544  12.032
21640W        W86460  19.005  35.937  13.435
21641W        W86461   3.662  25.533  14.508
21642W        W86462  29.225  11.185  12.658
21643W        W86463  36.567  38.147  12.806
21644W        W86464  33.254  36.169   3.912
21645W        W86465  35.158   8.299   1.508
21646W        W86466  23.036  12.691   1.395
21647W        W86467  14.617  10.602   2.709
21648W        W86468  30.617  37.754   4.716
21649W        W86469  24.520   4.942   1.357
21650W        W86470  34.971  24.017  14.454
21651W        W86471  24.973  24.714  13.385
21652W        W86472  31.433  43.473   2.830
21653W        W86473  21.568  15.498   2.824
21654W        W86474  20.732  18.765  12.515
21655W        W86475  21.101  11.211  14.864
21656W        W86476  24.954  12.298  11.883
21657W        W86477  25.065  34.625  14.002
21658W        W86478  40.980  14.208   4.093
21659W        W86479  41.572  31.669   4.201
21660W        W86480  24.599  27.837  12.534
21661W        W86481  10.384  14.810  12.034
21662W        W86482  28.856  30.857   1.019
21663W        W86483   5.770  41.947   3.657
21664W        W86484  17.254  38.565  14.016
21665W        W86485  43.686  33.855  10.458
21666W        W86486  42.402  24.222  11.337
21667W        W86487  37.281  22.139   2.661
21668W        W86488  18.306  37.602   1.266
21669W        W86489  40.483  31.106   1.675
21670W        W86490  26.217  37.271  12.416
21671W        W86491  33.669  42.999  10.719
21672W        W86492  42.985   3.730   2.342
21673W        W86493  30.564  19.804   0.735
21674W        W86494  10.714   8.405   3.144
21675W        W86495  31.062  16.510  10.038
21676W        W86496  33.327  19.660  11.747
21677W        W86497  25.766  21.875  11.622
21678W        W86498   0.464  27.472  13.209
21679W        W86499  38.075   3.829  11.910
21680W        W86500   0.735  30.451   0.509
21681W        W86501  12.888  26.846   1.278
21682W        W86502  21.638  24.288   1.950
21683W        W86503  30.058  18.833  13.529
21684W        W86504  29.543  19.692  10.167
21685W        W86505  34.721  43.050   0.264
21686W        W86506  23.603  24.542  14.452
21687W        W86507  16.574  27.556   3.586
21688W        W86508   8.388  22.019  11.410
21689W        W86509  34.922  18.627  10.167
21690W        W86510  31.115   6.496   0.843
21691W        W86511  16.605   5.135   2.971
21692W        W86512  30.035  28.461  11.493
21693W        W86513  16.364  29.147   5.465
21694W        W86514  36.005  28.980   2.077
21695W        W86515   0.033  36.645   1.468
21696W        W86516   7.133  38.281   2.672
21697W        W86517  29.353  33.594   0.917
21698W        W86518   5.293  13.656  11.607
21699W        W86519   3.244  15.070   1.849
21700W        W86520   8.025  11.852   2.819
21701W        W86521  39.511  12.637   1.233
21702W        W86522  43.357   0.237  13.076
21703W        W86523  39.512  15.907  14.426
21704W        W86524   8.521  14.606   3.124
21705W        W86525  43.008  41.448  14.840
21706W        W86526  37.485  28.971   1.161
21707W        W86527   1.191  20.211  11.601
21708W        W86528  10.265   1.386  14.529
21709W        W86529  17.902  27.685   3.324
21710W        W86530  44.251   4.239  13.462
21711W        W86531  11.514  28.135  14.902
21712W        W86532  27.183  30.613   1.857
21713W        W86533  39.310   2.772  12.867
21714W        W86534  19.538  31.316  14.455
21715W        W86535  14.365  16.688  10.131
21716W        W86536  38.083   5.703   4.592
21717W        W86537   8.675  37.912  13.496
21718W        W86538  18.623   0.084   0.271
21719W        W86539   6.782  29.190  13.573
21720W        W86540  28.986  43.754   4.221
21721W        W86541  16.279   8.449   3.615
21722W        W86542   0.802  20.645  11.512
21723W        W86543  19.404  41.570   1.833
21724W        W86544  33.589   0.796   0.726
21725W        W86545  43.850  37.383  12.066
21726W        W86546  42.396  10.625   2.194
21727W        W86547   7.426  20.254   1.886
21728W        W86548  26.618  40.059  12.490
21729W        W86549  17.175  19.152  13.525
21730W        W86550   4.218  36.918   0.907
21731W        W86551   5.422  28.888  13.494
21732W        W86552  28.141   8.315   0.773
21733W        W86553   3.644  23.548  12.525
21734W        W86554  10.394  24.055  14.187
21735W        W86555  44.824  16.768  13.330
21736W        W86556  40.889  40.611  12.028
21737W        W86557  33.570  36.502  10.172
21738W        W86558  28.067   8.408  10.641
21739W        W86559  40.598  26.204  13.127
21740W        W86560  33.347  36.581   4.932
21741W        W86561  32.491  30.134  12.828
21742W        W86562  39.971  17.127  12.031
21743W        W86563   2.832  16.638   0.382
21744W        W86564  27.563  27.764   3.439
21745W        W86565  34.858  24.982   2.937
21746W        W86566  31.461  31.597   4.598
21747W        W86567  17.286  26.133   2.213
21748W        W86568  25.594  41.899   4.176
21749W        W86569  35.565   5.380   4.002
21750W        W86570  31.678  34.192   3.107
21751W        W86571  43.287  15.172   1.236
21752W        W86572   9.399  43.978  13.904
21753W        W86573  39.308  23.483  11.879
21754W        W86574  25.573  41.834   1.113
21755W        W86575  20.242  37.733   0.746
21756W        W86576   6.774  21.966  10.679
21757W        W86577   6.291  27.518  11.944
21758W        W86578   2.257  27.758   0.476
21759W        W86579  17.869   6.940   5.108
21760W        W86580   8.436  37.880  13.960
21761W        W86581  28.627  36.659   1.718
21762W        W86582  25.486   2.194   1.004
21763W        W86583  23.260   8.470  11.175
21764W        W86584  43.053  20.389  13.420
21765W        W86585  18.823  15.555  14.410
21766W        W86586  13.743  22.052   4.860
21767W        W86587  38.614  36.914   0.995
21768W        W86588  18.517  26.414  11.250
21769W        W86589  41.114  20.555   3.146
21770W        W86590  34.699  20.831   5.069
21771W        W86591  17.321  31.880   2.726
21772W        W86592  34.356  26.971   1.265
21773W        W86593  24.255  26.709  11.496
21774W        W86594   3.288  30.326  12.151
21775W        W86595  30.537  34.934  14.443
21776W        W86596  42.759  21.049   3.172
21777W        W86597   2.694  34.999  12.490
21778W        W86598   4.009   6.694  13.920
21779W        W86599  32.313   1.356  14.826
21780W        W86600  39.424   9.931  13.886
21781W        W86601  43.973   5.965   3.181
21782W        W86602  15.668   1.863  14.402
21783W        W86603  32.846   6.926   2.420
21784W        W86604   4.517  33.409  11.802
21785W        W86605  34.300  11.682   2.207
21786W        W86606  38.126  14.937  11.556
21787W        W86607   4.815  22.553  10.266
21788W        W86608  28.929  10.334  12.162
21789W        W86609  18.315  31.113  12.940
21790W        W86610  19.787   5.199  10.594
21791W        W86611   5.837  22.436   2.378
21792W        W86612   0.474  35.896   4.473
21793W        W86613  12.357  28.181   4.459
21794W        W86614  42.185  11.755  11.571
21795W        W86615  27.932  30.604   4.223
21796W        W86616  22.116  23.469   3.167
21797W        W86617  42.520  44.845  10.523
21798W        W86618   2.152  39.762   2.621
21799W        W86619  27.887  22.739   1.747
21800W        W86620   5.435   2.014   1.379
21801W        W86621  18.224   6.917  13.344
21802W        W86622  29.711  43.344  12.068
21803W        W86623  43.787  44.042  11.718
21804W        W86624   1.182   6.343   2.134
21805W        W86625   0.262  38.554  14.151
21806W        W86626  38.074   1.359   3.728
21807W        W86627  29.439  21.019   3.211
21808W        W86628  40.419   5.145   0.481
21809W        W86629   0.644  10.600  13.388
21810W        W86630  39.331   6.497  13.564
21811W        W86631  42.962  14.007   2.401
21812W        W86632  37.942  20.744   2.202
21813W        W86633   0.189  21.618  14.909
21814W        W86634  38.034  41.038   3.734
21815W        W86635   8.120  39.935  14.877
21816W        W86636  33.690  24.651  11.604
21817W        W86637   3.046  21.845  11.624
21818W        W86638   8.170  32.608   1.826
21819W        W86639   0.928   0.257  14.971
21820W        W86640  38.462  29.654   1.197
21821W        W86641  37.562  42.433  10.636
21822W        W86642  24.063  29.731   4.037
21823W        W86643  12.131  13.661   3.731
21824W        W86644  32.931  38.594  13.578
21825W        W86645  39.367  25.769   4.034
21826W        W86646  17.180  39.180   4.101
21827W        W86647   5.201  38.021  10.851
21828W        W86648  20.960  19.102   3.160
21829W        W86649  20.071   6.865   0.964
21830W        W86650  44.689   3.492   0.859
21831W        W86651  37.503   8.124  13.446
21832W        W86652  31.580   2.791  14.011
21833W        W86653  27.603   5.667  13.093
21834W        W86654   6.200  36.902   0.742
21835W        W86655  26.693  23.013  11.144
21836W        W86656  38.586  14.296  14.319
21837W        W86657  42.515   7.437   2.394
21838W        W86658  27.628  17.473  11.101
21839W        W86659   8.604  17.217  11.521
21840W        W86660  44.664  35.544   4.588
21841W        W86661  29.634  33.156   4.491
21842W        W86662  35.341  12.410  12.443
21843W        W86663  11.527   2.717   4.557
21844W        W86664  12.252  36.126  13.025
21845W        W86665  15.177  10.644   2.470
21846W        W86666   8.719  16.757   3.883
21847W        W86667  39.694  34.614   1.709
21848W        W86668  30.416  34.088   1.798
21849W        W86669  17.204  37.835  14.229
21850W        W86670  36.924  32.088  11.924
21851W        W86671   6.224  34.152   9.941
21852W        W86672  28.155   8.717   1.461
21853W        W86673  12.030  12.889   5.326
21854W        W86674   7.863  33.405   3.397
21855W        W86675  35.402   5.925   0.865
21856W        W86676  38.123   2.968  11.969
21857W        W86677   7.255  32.621   4.662
21858W        W86678  42.276  21.190   3.533
21859W        W86679  34.834  34.372   0.995
21860W        W86680  18.062   9.920  12.597
21861W        W86681  14.075   5.802   2.463
21862W        W86682  25.504  43.491  13.059
21863W        W86683   5.196  32.987  10.529
21864W        W86684   8.738  34.629  10.562
21865W        W86685  27.532   4.815  12.479
21866W        W86686  25.993   4.303  14.945
21867W        W86687  38.521  24.113   1.937
21868W        W86688  26.119   9.618  11.550
21869W        W86689  27.420  26.511   3.640
21870W        W86690  30.038  31.810  12.968
21871W        W86691   8.221   8.379   1.718
21872W        W86692  29.748  17.235   9.623
21873W        W86693  21.987  27.565  14.416
21874W        W86694  11.564  29.047  11.981
21875W        W86695  34.049  30.600  12.540
21876W        W86696  40.031   3.378   2.861
21877W        W86697  29.644  36.553   4.533
21878W        W86698  10.807  24.470  14.819
21879W        W86699  15.670  12.050  13.266
21880W        W86700   8.709  38.415   0.226
21881W        W86701   0.492  40.601  14.884
21882W        W86702   1.717  42.904   2.233
21883W        W86703  32.871  15.080   2.168
21884W        W86704  25.870   3.813  12.430
21885W        W86705  38.693   0.309  10.260
21886W        W86706  27.137  18.303   0.771
21887W        W86707  40.038  10.919   3.813
21888W        W86708  24.745  34.612  13.464
21889W        W86709  15.177  28.925   2.287
21890W        W86710   0.177  29.127   2.800
21891W        W86711  12.339  26.092   1.064
21892W        W86712  13.787  32.552   3.560
21893W        W86713  14.369   1.402  10.477
21894W        W86714  44.486  22.065   2.709
21895W        W86715  34.448   3.767   3.647
21896W        W86716  39.099  30.975   0.797
21897W        W86717  28.199  39.723   0.786
21898W        W86718  19.603  13.138  12.678
21899W        W86719  41.542   5.736  13.393
21900W        W86720   9.898  26.140  12.889
21901W        W86721   6.473  18.287   2.755
21902W        W86722  21.230  36.002   3.140
21903W        W86723  17.732  36.051   3.043
21904W        W86724  33.610   6.238   3.669
21905W        W86725   4.406  21.593  10.372
21906W        W86726  26.053   0.917   0.524
21907W        W86727  12.313  42.440   3.166
21908W        W86728   2.335  37.124   2.433
21909W        W86729   2.025   2.018   3.176
21910W        W86730  18.637  30.907   2.808
21911W        W86731   6.157  32.145  13.293
21912W        W86732  37.425  28.564  12.019
21913W        W86733  42.548  43.775   4.570
21914W        W86734  38.831  41.446  13.895
21915W        W86735  36.940  34.154  12.876
21916W        W86736   0.232  12.637   4.522
21917W        W86737   7.751  34.888  10.712
21918W        W86738  25.728  37.419   1.814
21919W        W86739  34.086  35.724   3.697
21920W        W86740   4.317  26.474   4.670
21921W        W86741   3.870  44.167   1.406
21922W        W86742  43.077   5.752  10.534
21923W        W86743  41.561   1.512  14.868
21924W        W86744  18.884  15.627   1.225
21925W        W86745  22.669  29.614   5.036
21926W        W86746   2.715  36.574   3.336
21927W        W86747   8.467  21.590  14.741
21928W        W86748  36.061  30.187   0.793
21929W        W86749  17.151  43.517   2.341
21930W        W86750  11.892  15.089   4.139
21931W        W86751  21.683   3.018  12.859
21932W        W86752   3.436  24.267  11.482
21933W        W86753  25.481  21.697  13.092
21934W        W86754  10.612   3.249   2.319
21935W        W86755  44.101  33.102   3.181
21936W        W86756  24.709  25.948  11.168
21937W        W86757  11.260  16.590   2.900
21938W        W86758  11.474  12.549   4.180
21939W        W86759  27.611  26.767   4.047
21940W        W86760  28.002  22.644  14.967
21941W        W86761  23.205  25.485  12.784
21942W        W86762  21.751  33.800   2.975
21943W        W86763  40.043  17.516   1.140
21944W        W86764  24.429  19.116   2.212
21945W        W86765  31.916  13.255  14.350
21946W        W86766  33.433  41.234   1.241
21947W        W86767  10.328  12.358  14.320
21948W        W86768   0.349  13.334   4.053
21949W        W86769   6.878  12.833   1.768
21950W        W86770  33.403  21.225  13.921
21951W        W86771   9.911  20.099   1.919
21952W        W86772  37.398  36.830  12.497
21953W        W86773  21.610   2.972  12.014
21954W        W86774  39.429   5.465  13.576
21955W        W86775  10.701  43.928  13.448
21956W        W86776  40.879  39.485   1.210
21957W        W86777  42.296  38.318  12.771
21958W        W86778   6.453  34.945   4.281
21959W        W86779  41.091   8.844  14.164
21960W        W86780   1.692  30.878   4.022
21961W        W86781  14.718  14.332  13.829
21962W        W86782  34.452  21.415   1.854
21963W        W86783  18.219   6.556  12.044
21964W        W86784  19.316  32.056  12.048
21965W        W86785  43.039  18.325  11.005
21966W        W86786   0.371  18.602   0.762
21967W        W86787  28.042  24.864   2.674
21968W        W86788   3.070  28.750  11.620
21969W        W86789   7.840  16.237  13.417
21970W        W86790  13.638   1.399  11.182
21971W        W86791  32.013  11.907  14.814
21972W        W86792  22.519  36.877  11.716
21973W        W86793  15.993  13.587  10.762
21974W        W86794  44.781  13.608   1.742
21975W        W86795  28.534  27.129   4.360
21976W        W86796  11.781  40.316   3.629
21977W        W86797  32.673  11.775  13.904
21978W        W86798  31.728  33.206  12.030
21979W        W86799  32.122  15.093  13.995
21980W        W86800  26.627  32.796   3.154
21981W        W86801  24.024  33.858  11.162
21982W        W86802  18.892  13.264   2.618
21983W        W86803  27.665   3.594   3.638
21984W        W86804  29.665   4.900  14.896
21985W        W86805  29.179  14.341  13.830
21986W        W86806  18.116  20.976   4.139
21987W        W86807   4.554   9.612  14.984
21988W        W86808   3.913   6.875   0.876
21989W        W86809  18.076  15.270   3.195
21990W        W86810  31.409  11.059   0.801
21991W        W86811   8.899  22.223  10.701
21992W        W86812  23.550  23.355   4.238
21993W        W86813  24.017  37.497   1.419
21994W        W86814   0.517  44.288   2.216
21995W        W86815  23.129  14.395  10.909
21996W        W86816  42.801  43.079   1.866
21997W        W86817   7.000  30.589  10.711
21998W        W86818  18.150  43.430   4.142
21999W        W86819  26.115  14.997  12.443
22000W        W86820  36.078  39.607  11.590
22001W        W86821  30.057  42.010   4.501
22002W        W86822  25.315  36.071   1.843
22003W        W86823   1.826  17.167   1.713
22004W        W86824   0.720  42.111   1.832
22005W        W86825  13.634   0.313   3.724
22006W        W86826  40.983  25.626   0.381
22007W        W86827  26.980  12.203  12.801
22008W        W86828  15.708  39.343   9.592
22009W        W86829  38.649  26.498   4.078
22010W        W86830   9.866   4.821   3.308
22011W        W86831  18.010  24.205   1.968
22012W        W86832  14.747  11.276   3.592
22013W        W86833   0.810  22.764   0.807
22014W        W86834  24.695  43.373   3.248
22015W        W86835  23.629  12.288   3.655
22016W        W86836   2.385  31.291   4.529
22017W        W86837   4.492  32.651   3.743
22018W        W86838  37.915   5.357  14.960
22019W        W86839  26.995   0.852   0.553
22020W        W86840  38.602  13.921   2.756
22021W        W86841  20.273  24.493  12.530
22022W        W86842   7.159  28.062  12.479
22023W        W86843  24.716  29.379  12.047
22024W        W86844  15.434   1.373  14.857
22025W        W86845   7.650  13.658   2.296
22026W        W86846  18.069  14.217  11.532
22027W        W86847  26.638  22.388   4.032
22028W        W86848  35.650  28.999   1.225
22029W        W86849  15.333  33.689   2.155
22030W        W86850  22.484  23.405   1.475
22031W        W86851  19.790  41.489   2.245
22032W        W86852  43.694  43.909   2.288
22033W        W86853  12.605  43.102  10.199
22034W        W86854  25.791  17.994  10.535
22035W        W86855  29.274  10.226   5.391
22036W        W86856  35.851  32.107   0.797
22037W        W86857  21.039  20.638   2.617
22038W        W86858  41.963  20.211   0.364
22039W        W86859   2.999  13.789  12.467
22040W        W86860  29.275  36.330  13.368
22041W        W86861  14.223  26.672  12.446
22042W        W86862  11.704   8.031   1.727
22043W        W86863  18.509  43.002   2.673
22044W        W86864  26.590  35.373  13.638
22045W        W86865  16.011  10.121  11.140
22046W        W86866   8.787  20.084  12.577
22047W        W86867  28.128  37.780  10.614
22048W        W86868   7.088  30.856   1.842
22049W        W86869  37.983  37.161   3.299
22050W        W86870   3.460  44.483   1.364
22051W        W86871  37.505  18.549  12.024
22052W        W86872  34.418  15.005  12.623
22053W        W86873  26.481  17.641  13.427
22054W        W86874   9.101  40.256  13.931
22055W        W86875  22.150   2.682  11.067
22056W        W86876  40.276  44.092  11.048
22057W        W86877   8.198  17.405  10.067
22058W        W86878  39.614  11.228   0.801
22059W        W86879  37.826  11.095   1.694
22060W        W86880  17.354  20.487  13.610
22061W        W86881  38.045  23.208   4.850
22062W        W86882  44.814  12.510   1.848
22063W        W86883  21.015  23.975  10.697
22064W        W86884  11.060  18.284   4.809
22065W        W86885   8.181  25.548   0.322
22066W        W86886  44.155  20.703  14.991
22067W        W86887  39.078  39.260   3.320
22068W        W86888  28.672   7.432   4.200
22069W        W86889  38.306  13.622   2.288
22070W        W86890   4.895  35.953   4.501
22071W        W86891   3.359  41.468   4.069
22072W        W86892  17.859  42.337   3.601
22073W        W86893  26.490  24.840   1.806
22074W        W86894  35.458  13.095  11.623
22075W        W86895   2.661   9.933   4.208
22076W        W86896  29.988   5.234  14.353
22077W        W86897   2.100  25.417  11.232
22078W        W86898   5.346  17.691  11.433
22079W        W86899   4.303  43.737   2.840
22080W        W86900  39.984  33.082  11.078
22081W        W86901  39.668  32.533  12.703
22082W        W86902   4.546  16.114   0.708
22083W        W86903   1.248   1.453  11.626
22084W        W86904   6.914   7.609   3.153
22085W        W86905   7.708  25.180  13.069
22086W        W86906   5.164  42.232   0.024
22087W        W86907   4.788  37.567  13.581
22088W        W86908  24.748  40.518  11.507
22089W        W86909   3.974  29.659   1.851
22090W        W86910  23.027  42.494  14.959
22091W        W86911  33.551  13.811  12.002
22092W        W86912  17.605  16.563  13.827
22093W        W86913   0.911  28.474  10.437
22094W        W86914  13.617  14.662   0.948
22095W        W86915  25.625  23.219  14.481
22096W        W86916  44.368  35.113  13.364
22097W        W86917  16.229  37.905  13.855
22098W        W86918  25.952   7.182   0.220
22099W        W86919  13.298  32.090  14.726
22100W        W86920  26.943   5.021   1.360
22101W        W86921  11.739  23.634  12.155
22102W        W86922  37.025  26.056  10.828
22103W        W86923  30.297  17.421   5.426
22104W        W86924   2.217  20.134  11.589
22105W        W86925   8.752  15.247   3.699
22106W        W86926  29.424  35.211   5.236
22107W        W86927   5.268  29.121  12.249
22108W        W86928   5.718   8.765  11.594
22109W        W86929  11.760  21.188  10.208
22110W        W86930  13.027  36.297  12.701
22111W        W86931   2.973  41.437   9.938
22112W        W86932  42.873  19.725  11.250
22113W        W86933  40.782  17.458  12.514
22114W        W86934   7.827  33.919   3.428
22115W        W86935  38.612  19.443  12.483
22116W        W86936  26.082  18.473   1.883
22117W        W86937  36.874  33.223  14.267
22118W        W86938  35.562  28.147  10.301
22119W        W86939   0.351  35.059   1.703
22120W        W86940   2.179   1.950  14.964
22121W        W86941  41.973  35.981   2.684
22122W        W86942  28.192  16.144  14.477
22123W        W86943  11.636  39.084  14.254
22124W        W86944  30.654  31.810   2.162
22125W        W86945  31.628   6.161  11.960
22126W        W86946  15.385  31.897   0.359
22127W        W86947  29.060  32.521   1.549
22128W        W86948  37.392  21.126   4.009
22129W        W86949   4.126  42.546  12.030
22130W        W86950  13.713  16.116   2.685
22131W        W86951  35.025   7.678  12.899
22132W        W86952  16.798   7.806   2.792
22133W        W86953  35.038  43.919   0.817
22134W        W86954  28.015  24.457   2.370
22135W        W86955   0.170  31.734   0.311
22136W        W86956  14.687  14.300   3.815
22137W        W86957   8.424   9.171   1.603
22138W        W86958  42.253  13.773   3.803
22139W        W86959  26.110  40.898   1.829
22140W        W86960  13.971   5.840  12.883
22141W        W86961  17.122  17.584  10.551
22142W        W86962  41.503   4.684   1.199
22143W        W86963  19.211  33.322  14.438
22144W        W86964  44.034  27.915   1.248
22145W        W86965  42.516  12.274  13.413
22146W        W86966  21.184   9.177  11.074
22147W        W86967  18.087  24.183  10.975
22148W        W86968  11.877  24.623   4.582
22149W        W86969  24.197   0.357   1.786
22150W        W86970  38.486  24.641  14.210
22151W        W86971  32.410  30.077  13.835
22152W        W86972  27.429  43.418  12.938
22153W        W86973   7.105  36.362  12.132
22154W        W86974  14.627  19.273  14.473
22155W        W86975  20.007  38.137   4.114
22156W        W86976   4.296  15.590  10.378
22157W        W86977  20.277  12.663  11.551
22158W        W86978  34.003  35.920  14.041
22159W        W86979  11.842   6.114   2.676
22160W        W86980   0.063  32.120  11.031
22161W        W86981  12.673  21.481  12.963
22162W        W86982   2.738  40.402   2.630
22163W        W86983  32.833  24.577  12.565
22164W        W86984  29.585  16.432   3.724
22165W        W86985  12.983   7.337   1.736
22166W        W86986   9.188  37.944  13.498
22167W        W86987  43.911  24.298   1.736
22168W        W86988  22.172   4.983  11.654
22169W        W86989  19.753  34.827   1.261
22170W        W86990  27.602  35.944  12.803
22171W        W86991  35.155  15.800   9.828
22172W        W86992  39.404   0.975  13.473
22173W        W86993  32.465   2.196   2.303
22174W        W86994  40.447  39.005   0.988
22175W        W86995  29.515   0.312   0.882
22176W        W86996   2.334  26.270   2.433
22177W        W86997  31.136  31.609  12.563
22178W        W86998  16.681   0.790   0.088
22179W        W86999  25.230  33.597  11.103
22180W        W87000  18.033   9.707  11.696
22181W        W87001   3.739  44.878  14.959
22182W        W87002  39.557  14.396   4.391
22183W        W87003  21.455  32.605  13.776
22184W        W87004   5.909  16.835  14.823
22185W        W87005  10.784  40.958   1.883
22186W        W87006  25.040  27.111  13.838
22187W        W87007   1.461  31.468   4.906
22188W        W87008  16.129  33.353  11.432
22189W        W87009  20.306  18.937  13.379
22190W        W87010  34.787  22.629  11.187
22191W        W87011  36.441  19.133  13.032
22192W        W87012   7.247  24.155  13.907
22193W        W87013  30.056  42.550   0.254
22194W        W87014  43.436  32.996   3.675
22195W        W87015  19.902  19.283   2.311
22196W        W87016   5.537   3.747  12.960
22197W        W87017  25.024  37.022  10.775
22198W        W87018  33.111   2.666   2.880
22199W        W87019   0.218   7.587   0.829
22200W        W87020   4.326  11.251  12.840
22201W        W87021  42.993  44.807  11.476
22202W        W87022  34.344  31.229   1.173
22203W        W87023  27.648  40.007   0.339
22204W        W87024  24.973  22.413   2.419
22205W        W87025  34.764  19.179  13.582
22206W        W87026  26.905   7.169  10.756
22207W        W87027  44.465  41.966  12.589
22208W        W87028  20.199  28.641   3.750
22209W        W87029  41.963  20.236   2.728
22210W        W87030  30.598  18.226   4.296
22211W        W87031  26.663  22.246  13.508
22212W        W87032  34.024  11.854  14.146
22213W        W87033  37.853  43.170  14.938
22214W        W87034  33.450  20.368  12.917
22215W        W87035  22.179  18.738   2.292
22216W        W87036   6.151   8.734   0.937
22217W        W87037  28.299  23.586   1.239
22218W        W87038  21.556   4.877   3.121
22219W        W87039   6.098  15.886   2.840
22220W        W87040  36.984  27.904  14.422
22221W        W87041   0.798  17.813   3.260
22222W        W87042  34.308  23.447  13.598
22223W        W87043  16.308  28.393  10.268
22224W        W87044   3.989   3.200   0.546
22225W        W87045  22.731  17.550  12.542
22226W        W87046  18.449  27.888  14.850
22227W        W87047  16.181  40.610   1.361
22228W        W87048  19.079  32.184  11.563
22229W        W87049  19.197   5.210  14.884
22230W        W87050  23.146  37.772   2.813
22231W        W87051  44.957  18.485   3.097
22232W        W87052  39.342  15.252   0.827
22233W        W87053  25.528   7.074  14.973
22234W        W87054   4.039  11.890  11.367
22235W        W87055   7.664  29.145   3.214
22236W        W87056  37.456   9.282  11.982
22237W        W87057  30.997   2.938   1.362
22238W        W87058   8.065  41.964   0.605
22239W        W87059  22.143   2.472  14.329
22240W        W87060  18.971   6.852   2.840
22241W        W87061  21.135  13.518  11.933
22242W        W87062  30.588  41.002   0.281
22243W        W87063  44.752  36.815   2.916
22244W        W87064  34.105   6.190   1.759
22245W        W87065  15.821  21.598   4.171
22246W        W87066  28.015  38.729   4.566
22247W        W87067   1.110   6.409  14.864
22248W        W87068  20.990   1.242   4.702
22249W        W87069  23.540   7.194  14.070
22250W        W87070  12.665  19.626   4.383
22251W        W87071  20.171   8.831   0.061
22252W        W87072  31.954   2.301  13.302
22253W        W87073  29.134  32.274  13.095
22254W        W87074  34.905   6.933  11.685
22255W        W87075  36.924  38.410   2.927
22256W        W87076  27.759  14.667  13.941
22257W        W87077  30.944  24.442  11.749
22258W        W87078  15.373  11.276  12.057
22259W        W87079  19.781  12.664   0.229
22260W        W87080  25.508  13.422  12.123
22261W        W87081  34.619  42.576  10.625
22262W        W87082  34.785   8.538   3.741
22263W        W87083   5.184  13.832  13.498
22264W        W87084   6.088  11.297   2.685
22265W        W87085  34.021  10.326   1.900
22266W        W87086  29.946  16.306  13.885
22267W        W87087  14.241  29.883  13.909
22268W        W87088  19.297  19.338  12.395
22269W        W87089  12.726  30.221   0.543
22270W        W87090  41.990  10.141   2.212
22271W        W87091  25.666   9.203   4.012
22272W        W87092  31.912  32.729  14.104
22273W        W87093  39.011   4.884  12.566
22274W        W87094  22.836  25.138  10.747
22275W        W87095  27.485   2.132  14.063
22276W        W87096  41.342  10.283  10.717
22277W        W87097   3.204  35.011   2.871
22278W        W87098   1.076  36.773   3.269
22279W        W87099  32.860  35.777   2.357
22280W        W87100  20.707   7.004  14.003
22281W        W87101   9.259   6.331  14.849
22282W        W87102   0.652  36.265   2.270
22283W        W87103  15.306  32.042   2.738
22284W        W87104   3.930   1.328   3.806
22285W        W87105  15.134  32.961  13.014
22286W        W87106  22.590  35.928   3.384
22287W        W87107  37.979  23.951  12.958
22288W        W87108  22.466  10.043   4.985
22289W        W87109  23.567   6.424  12.229
22290W        W87110  10.174  38.256   1.750
22291W        W87111  17.823  20.063  12.872
22292W        W87112  21.157  42.537  14.323
22293W        W87113   4.849  44.445  11.943
22294W        W87114   8.009  11.114   2.220
22295W        W87115  27.672  18.919   5.066
22296W        W87116   6.702  40.219   0.416
22297W        W87117  17.766   4.026   3.327
22298W        W87118  33.518  44.680  13.981
22299W        W87119  26.549  24.190   2.427
22300W        W87120  14.432  39.071   9.773
22301W        W87121  19.360  37.014  11.769
22302W        W87122   4.855  38.030   4.146
22303W        W87123  24.488  11.195   3.321
22304W        W87124  16.586  44.481  11.523
22305W        W87125  42.004  23.878  12.594
22306W        W87126  14.020  14.750  12.726
22307W        W87127  35.472   2.292  12.044
22308W        W87128  22.145  44.664   4.039
22309W        W87129  41.112  40.414   0.014
22310W        W87130  39.575   4.726  10.962
22311W        W87131  44.955  12.002   3.758
22312W        W87132   0.907  29.045   4.348
22313W        W87133  30.369  12.429   1.692
22314W        W87134  11.160  10.151  14.880
22315W        W87135  12.898  18.286   1.965
22316W        W87136  23.886  44.263  11.032
22317W        W87137  35.900  24.984   0.947
22318W        W87138  27.917   2.066  13.133
22319W        W87139  24.080  23.089   2.747
22320W        W87140  15.062  34.860  11.556
22321W        W87141  13.797  40.126   4.724
22322W        W87142  44.894  11.831   0.844
22323W        W87143   7.475  13.806   4.786
22324W        W87144  37.755  15.197   0.798
22325W        W87145   4.917  37.128  12.174
22326W        W87146  24.021  30.573   2.939
22327W        W87147  16.541  20.788   1.201
22328W        W87148   3.364  28.419  10.706
22329W        W87149  13.848  11.337  11.979
22330W        W87150   6.643  10.403  14.136
22331W        W87151  26.980   3.523  11.671
22332W        W87152  27.763  11.431  14.478
22333W        W87153   2.828  16.780  13.268
22334W        W87154  32.158  31.889  13.712
22335W        W87155   1.681  27.161  13.488
22336W        W87156  29.047  27.244   4.147
22337W        W87157  18.670  25.761   4.334
22338W        W87158  36.147  11.297  10.101
22339W        W87159  38.325   7.799   0.800
22340W        W87160   5.204  31.292   3.968
22341W        W87161  31.796   9.720  14.886
22342W        W87162  10.137   4.170   4.232
22343W        W87163  10.759  33.288  14.770
22344W        W87164  24.300  25.574  12.767
22345W        W87165  16.812  27.479  12.391
22346W        W87166  30.219  17.235   2.044
22347W        W87167  39.277  18.358  14.535
22348W        W87168   9.160   5.860  12.065
22349W        W87169  42.483  14.158  14.326
22350W        W87170  18.266  18.559   1.020
22351W        W87171  31.438   8.324   4.333
22352W        W87172  11.813  44.267  12.453
22353W        W87173  17.326  31.040   5.024
22354W        W87174  34.372  28.625  13.849
22355W        W87175  40.546  27.221   1.500
22356W        W87176  42.709   1.547  12.920
22357W        W87177  23.553   7.641  12.512
22358W        W87178   5.284   1.452  14.987
22359W        W87179  21.282  44.489  13.341
22360W        W87180  11.298  43.303   3.895
22361W        W87181   2.196  29.651  13.578
22362W        W87182  38.906  15.789  11.898
22363W        W87183  30.818  17.576   1.938
22364W        W87184  12.615  16.233   1.727
22365W        W87185  24.918  43.949   3.757
22366W        W87186   7.954  14.555   5.014
22367W        W87187  12.755  11.624   0.121
22368W        W87188   5.420  29.939   4.347
22369W        W87189  29.870  30.817   3.700
22370W        W87190   4.856  17.861   1.343
22371W        W87191   6.282   6.334  10.750
22372W        W87192  43.377  39.475   3.778
22373W        W87193  16.630  25.780   3.998
22374W        W87194  44.526  39.808  12.073
22375W        W87195  30.159  34.480   2.606
22376W        W87196   8.955   9.754  14.974
22377W        W87197  37.418  18.539   0.665
22378W        W87198  28.959  34.542  13.107
22379W        W87199   9.805  41.614   1.715
22380W        W87200  34.544   0.247  12.027
22381W        W87201  17.617  30.187  13.373
22382W        W87202  44.462  13.512  14.854
22383W        W87203   7.375   0.982  11.524
22384W        W87204  12.839  17.745   0.831
22385W        W87205  14.106  14.551  12.231
22386W        W87206  27.025   0.207   4.666
22387W        W87207   3.773  36.499   4.954
22388W        W87208   4.449  14.636   0.741
22389W        W87209  21.055  10.601   0.967
22390W        W87210  13.656  14.822   0.197
22391W        W87211  38.931  24.971  13.017
22392W        W87212  39.397  30.468  12.486
22393W        W87213  38.143   6.289   1.046
22394W        W87214  33.599  39.801   4.010
22395W        W87215   8.905  28.463   2.256
22396W        W87216  29.066  34.646  14.465
22397W        W87217  22.184  38.741   2.710
22398W        W87218  27.027   4.547   2.809
22399W        W87219  33.890  40.346  12.976
22400W        W87220   3.516   4.328   0.042
22401W        W87221  13.772  37.858  10.755
22402W        W87222  14.138  44.643  11.066
22403W        W87223  28.919   1.173  12.476
22404W        W87224  17.038  40.950  13.478
22405W        W87225  31.142   4.871   1.453
22406W        W87226  18.822  38.967   0.972
22407W        W87227  44.445  38.714  11.378
22408W        W87228  22.102  42.289  12.138
22409W        W87229  43.444  20.469   0.346
22410W        W87230   6.235  39.474  11.848
22411W        W87231  21.494  42.190  14.056
22412W        W87232   0.787  30.536  10.396
22413W        W87233  14.381  38.859  11.195
22414W        W87234   9.781  24.112  13.545
22415W        W87235   7.763  31.557  13.573
22416W        W87236  25.404   3.802  10.669
22417W        W87237  29.873  11.856   4.586
22418W        W87238  30.437  38.802  14.796
22419W        W87239  19.695  28.014  13.354
22420W        W87240  17.486  20.786  12.333
22421W        W87241  32.167  41.046  10.901
22422W        W87242   8.177  34.379  14.173
22423W        W87243  17.990  19.201   0.510
22424W        W87244  16.832  34.089  13.929
22425W        W87245  36.667  41.563   0.127
22426W        W87246   2.385  27.733  13.464
22427W        W87247  39.404  21.618  11.456
22428W        W87248  37.686  26.283   0.253
22429W        W87249   1.317  22.776   5.237
22430W        W87250  10.856   7.694  11.285
22431W        W87251  14.903   7.221  11.174
22432W        W87252  14.596  30.788   5.135
22433W        W87253  23.471  42.351   3.681
22434W        W87254  40.587  32.086   4.680
22435W        W87255   9.343  13.168  12.428
22436W        W87256  39.742  20.732   4.711
22437W        W87257   0.374  13.224  13.379
22438W        W87258  27.173   7.753  12.527
22439W        W87259   9.699  31.870   2.342
22440W        W87260  39.718   7.741  13.884
22441W        W87261   9.126  23.546  12.428
22442W        W87262  19.621   9.809  14.977
22443W        W87263   7.352  22.367   0.875
22444W        W87264  12.456   3.345   0.291
22445W        W87265  37.011  39.060   0.283
22446W        W87266   1.890  36.982   4.896
22447W        W87267  40.081  13.625  14.773
22448W        W87268  36.670  17.214   3.646
22449W        W87269   3.301  37.032   2.926
22450W        W87270   0.547  35.065  14.390
22451W        W87271   4.468  14.341   3.834
22452W        W87272  34.013  10.368  11.460
22453W        W87273  19.590   2.487   2.759
22454W        W87274   9.935   2.217  12.017
22455W        W87275  12.905  10.889   4.523
22456W        W87276   0.521   1.068  14.838
22457W        W87277  13.854  22.975   4.744
22458W        W87278  18.843  38.410   0.387
22459W        W87279  27.499  27.507   4.712
22460W        W87280  34.782  39.419   2.826
22461W        W87281  10.427  17.718   0.459
22462W        W87282  38.456  38.649   1.350
22463W        W87283  43.176  30.331  11.632
22464W        W87284  41.955   5.630   4.372
22465W        W87285  35.092  37.475   5.018
22466W        W87286  38.557  33.326  13.879
22467W        W87287  41.585  24.969   3.526
22468W        W87288  33.581  10.537  10.593
22469W        W87289  34.873  35.093  11.648
22470W        W87290  27.127  43.806  13.130
22471W        W87291  11.359  17.239  14.845
22472W        W87292  29.136  18.843   0.760
22473W        W87293   7.784  14.756   3.344
22474W        W87294   1.760  44.457  13.749
22475W        W87295  34.165   0.077   1.858
22476W        W87296  22.274  17.841   4.519
22477W        W87297  32.915  16.270  13.859
22478W        W87298  34.533  42.369  14.143
22479W        W87299  20.780  26.554   4.612
22480W        W87300  38.322   6.391   4.731
22481W        W87301   1.785  39.806  10.792
22482W        W87302   2.424   2.895  14.655
22483W        W87303  33.719  16.152   3.253
22484W        W87304  12.665  17.482  14.473
22485W        W87305   9.231  30.378  14.426
22486W        W87306   7.475  44.716   3.526
22487W        W87307  16.801   2.252   1.774
22488W        W87308  28.119  40.698   0.780
22489W        W87309   6.749  36.312   2.318
22490W        W87310  41.235  14.776   0.830
22491W        W87311  38.425  41.120   0.041
22492W        W87312   6.484  21.578   0.910
22493W        W87313  25.533  30.516  13.872
22494W        W87314  44.878   4.448  12.559
22495W        W87315  28.724  43.154  14.990
22496W        W87316   9.821  11.442  13.527
22497W        W87317  15.354  29.151  14.950
22498W        W87318  20.036  27.025   3.366
22499W        W87319  17.180   1.196   4.994
22500W        W87320   5.492  24.776   2.087
22501W        W87321  37.364  24.429  12.466
22502W        W87322   3.314  19.702   0.339
22503W        W87323  43.782  15.268  14.811
22504W        W87324  13.290  10.087   2.436
22505W        W87325   2.314  19.490  11.973
22506W        W87326  28.109   5.893  14.901
22507W        W87327  26.508   2.843   1.325
22508W        W87328  31.690  30.875   4.194
22509W        W87329  31.393  29.612   3.692
22510W        W87330  33.894  42.876  11.175
22511W        W87331  21.224  18.002  13.749
22512W        W87332  23.692   5.709  14.844
22513W        W87333  35.660   1.013  14.562
22514W        W87334  34.935  44.420   4.332
22515W        W87335  29.962  16.411  12.475
22516W        W87336  15.233  43.297  14.920
22517W        W87337  16.373  38.914  13.792
22518W        W87338  43.400   4.497  12.469
22519W        W87339  18.535  13.111   2.250
22520W        W87340  17.355  28.302   1.762
22521W        W87341   4.970   4.440  13.834
22522W        W87342  20.679  43.554   4.766
22523W        W87343  21.665  33.642   1.199
22524W        W87344  31.920  35.154   2.231
22525W        W87345   8.641  20.448  11.193
22526W        W87346  37.758  14.328  13.013
22527W        W87347  41.701  26.533   4.681
22528W        W87348  37.590  10.228   1.263
22529W        W87349  30.634  35.009  10.752
22530W        W87350  29.924   2.771   2.365
22531W        W87351  37.293  28.277  11.605
22532W        W87352   4.814  19.715   1.780
22533W        W87353  15.635   3.984   4.745
22534W        W87354  40.375  35.967  13.872
22535W        W87355  33.443  43.951   1.753
22536W        W87356   1.019  36.553  11.141
22537W        W87357  18.708  31.051   0.459
22538W        W87358   9.229   8.684   3.297
22539W        W87359  14.382  19.116   3.338
22540W        W87360  28.672  23.059  11.526
22541W        W87361  41.049  17.018   1.781
22542W        W87362   3.145  18.865   3.419
22543W        W87363  14.298  24.163  12.803
22544W        W87364  43.793  33.585   2.558
22545W        W87365  42.719  32.014  14.534
22546W        W87366   0.889  34.608   3.696
22547W        W87367  10.945  33.615  12.957
22548W        W87368  34.581  36.017   0.788
22549W        W87369   7.832  19.398   3.953
22550W        W87370  15.800  43.547  10.696
22551W        W87371   0.722  33.385   1.699
22552W        W87372  40.886   7.837   3.202
22553W        W87373   0.976  30.859   0.308
22554W        W87374  19.128  23.972  13.024
22555W        W87375   2.384  32.002  11.390
22556W        W87376   0.825  42.053  12.596
22557W        W87377  25.802   9.774  14.834
22558W        W87378  40.777  21.762  14.905
22559W        W87379  17.358  10.109  14.771
22560W        W87380  13.808  30.077  10.794
22561W        W87381  14.667  35.695  13.032
22562W        W87382  20.746  27.956   1.154
22563W        W87383  38.444   4.169   1.307
22564W        W87384  15.329  42.357  11.458
22565W        W87385  30.058  32.357   2.855
22566W        W87386   0.785  41.841   2.729
22567W        W87387  10.186   0.286   2.607
22568W        W87388  34.125  43.847   0.685
22569W        W87389   6.051  44.070   4.144
22570W        W87390  30.034  16.182  12.009
22571W        W87391  16.990  26.737  13.062
22572W        W87392  38.798  25.660   2.671
22573W        W87393  34.121  29.985  12.999
22574W        W87394  37.945  39.066   2.524
22575W        W87395   0.458  15.556   1.255
22576W        W87396  21.537   3.513  10.275
22577W        W87397  25.615  28.686  10.711
22578W        W87398  29.393  40.037  14.794
22579W        W87399  29.176   7.556   4.147
22580W        W87400   1.888  14.416  10.667
22581W        W87401  23.189   7.367   3.071
22582W        W87402  41.822  37.203   1.779
22583W        W87403  41.357   3.969   3.771
22584W        W87404  16.558  13.173  11.142
22585W        W87405  19.220  41.570  11.648
22586W        W87406  17.770  21.617  13.446
22587W        W87407  20.589  32.306  13.811
22588W        W87408   1.864   1.849   2.660
22589W        W87409   3.473  44.832  12.421
22590W        W87410  37.283  41.842  14.493
22591W        W87411  14.854  44.399  14.475
22592W        W87412   1.764   8.843  12.067
22593W        W87413  29.776   5.210  10.806
22594W        W87414  21.940  28.641   4.143
22595W        W87415  38.838  16.886   0.082
22596W        W87416  32.247  26.587   4.056
22597W        W87417  31.350  13.588  12.450
22598W        W87418  44.566  18.200   0.993
22599W        W87419  23.275   2.450   1.185
22600W        W87420  39.526   0.451   4.116
22601W        W87421  17.067   2.806   1.062
22602W        W87422  16.878   4.019  14.732
22603W        W87423  42.756   8.267  11.624
22604W        W87424  15.216  35.773  12.057
22605W        W87425  18.025  17.299  11.552
22606W        W87426  41.271  21.278  10.733
22607W        W87427  41.261  21.467  14.771
22608W        W87428  27.188  35.023  13.040
22609W        W87429  27.151   1.367   1.250
22610W        W87430   7.212  38.237  11.081
22611W        W87431  23.784   9.367  14.456
22612W        W87432  35.640  23.475   5.402
22613W        W87433  19.115  26.236  11.523
22614W        W87434  44.672  19.895   0.500
22615W        W87435   1.160  35.165   0.724
22616W        W87436  23.675  10.785   3.619
22617W        W87437  22.019  18.111  12.416
22618W        W87438  38.267  24.017   2.964
22619W        W87439  35.891  29.467   0.332
22620W        W87440  30.851  10.866  14.479
22621W        W87441   0.109  31.558  12.749
22622W        W87442  24.783   5.997  13.934
22623W        W87443   4.285  16.156   1.402
22624W        W87444  36.341  22.029   0.979
22625W        W87445   7.108  15.942  13.885
22626W        W87446  39.667  27.524   0.891
22627W        W87447  23.555   2.430  14.384
22628W        W87448  13.662  24.032  11.690
22629W        W87449  19.878  27.182  14.777
22630W        W87450  15.946  40.892  10.683
22631W        W87451  39.252   4.655  14.446
22632W        W87452   9.328  44.245   1.295
22633W        W87453  22.553   1.004   2.384
22634W        W87454  38.408  22.828   0.327
22635W        W87455  43.904  23.978  12.362
22636W        W87456   0.527  36.977   3.560
22637W        W87457   4.332  37.016  14.780
22638W        W87458  40.105   6.347  11.070
22639W        W87459   6.969  28.023  11.006
22640W        W87460  10.743  23.034  11.729
22641W        W87461  30.696  36.587  12.410
22642W        W87462   3.253  17.122  10.494
22643W        W87463  33.670   4.147   4.112
22644W        W87464  19.661   1.258  13.570
22645W        W87465   4.763  40.155  13.223
22646W        W87466   7.713  36.102  10.325
22647W        W87467  15.694   9.336   0.845
22648W        W87468  26.555   0.273   4.491
22649W        W87469   3.828  25.974   2.662
22650W        W87470  19.865   3.911   4.184
22651W        W87471  36.784  25.632  13.088
22652W        W87472  29.155  31.744  13.110
22653W        W87473   3.745  24.432  11.116
22654W        W87474  10.509   7.130   1.712
22655W        W87475  33.054  22.472   2.188
22656W        W87476  23.981  15.963   4.514
22657W        W87477  40.961  23.014  12.878
22658W        W87478  30.096  39.944   3.307
22659W        W87479  22.927   2.413  10.726
22660W        W87480  41.832  26.273  13.859
22661W        W87481  16.552  18.812  11.657
22662W        W87482  42.870  32.192   3.564
22663W        W87483  18.933  22.485   3.368
22664W        W87484  14.122  33.904   2.742
22665W        W87485  36.199  15.015  14.975
22666W        W87486  39.463  34.101   4.717
22667W        W87487  36.760  19.940   3.950
22668W        W87488   8.159   7.758  13.952
22669W        W87489   0.679   9.859  12.482
22670W        W87490   5.491  18.131  10.680
22671W        W87491   1.883  42.319   1.004
22672W        W87492  26.244   1.316   0.221
22673W        W87493  17.014  20.672  11.151
22674W        W87494  39.022   9.106   2.708
22675W        W87495   5.909  32.511  13.561
22676W        W87496  42.363  28.907  12.445
22677W        W87497  36.894   4.926  14.437
22678W        W87498  39.361   0.457  13.431
22679W        W87499   6.057  33.177  10.657
22680W        W87500  35.547  25.906  13.618
22681W        W87501  12.174  20.046  10.687
22682W        W87502  17.281   6.818   3.327
22683W        W87503  36.168  16.668   5.331
22684W        W87504   6.676  21.628   3.822
22685W        W87505  32.407  39.414  14.506
22686W        W87506  34.894  38.915  14.977
22687W        W87507  16.406  25.436  11.729
22688W        W87508   3.373   8.643   2.256
22689W        W87509  43.191  27.228  13.467
22690W        W87510  19.751  31.397  11.146
22691W        W87511  17.838  29.420   2.601
22692W        W87512  23.253  16.557  11.446
22693W        W87513   0.466   0.450  13.605
22694W        W87514   9.389   8.579  11.981
22695W        W87515   8.145  24.927  14.869
22696W        W87516  43.880   4.508   1.724
22697W        W87517  18.555  10.914   3.098
22698W        W87518  41.925  44.402  12.118
22699W        W87519  34.127  13.631  14.312
22700W        W87520  19.981   4.945  11.437
22701W        W87521  33.956   0.524   0.293
22702W        W87522  44.921  33.741  12.902
22703W        W87523  32.460  21.197  14.935
22704W        W87524  39.984   1.223  13.534
22705W        W87525   1.647  14.302   1.859
22706W        W87526  39.349  31.180   1.195
22707W        W87527  23.082  31.720  13.951
22708W        W87528  26.473   0.870   2.404
22709W        W87529  20.894  14.739   0.254
22710W        W87530  16.857  34.428   3.218
22711W        W87531  11.846  44.533   4.211
22712W        W87532   4.691  34.523  11.574
22713W        W87533  22.727   5.897  12.531
22714W        W87534   5.336  35.475   3.583
22715W        W87535  32.996   9.336  12.662
22716W        W87536  13.636  28.398  12.373
22717W        W87537  40.220  15.939   4.299
22718W        W87538  38.528  25.242  13.199
22719W        W87539  17.391   3.792   1.632
22720W        W87540  19.038  37.604   3.087
22721W        W87541  36.093  39.011  10.737
22722W        W87542  17.190  43.387   4.177
22723W        W87543   5.834  39.786   4.568
22724W        W87544   6.353   2.384  14.115
22725W        W87545   7.550  16.236   3.599
22726W        W87546  35.078  28.237  14.896
22727W        W87547  24.709  30.387   2.336
22728W        W87548  18.727   0.829  12.488
22729W        W87549   4.237  19.781  11.205
22730W        W87550  39.122   8.230  13.548
22731W        W87551  24.272  13.046  13.922
22732W        W87552  44.808  31.227  11.831
22733W        W87553   9.379   3.484   0.938
22734W        W87554  22.498  25.674  13.998
22735W        W87555  30.197  44.884  11.705
22736W        W87556  40.159  25.417   3.046
22737W        W87557  16.146  19.038  10.576
22738W        W87558   4.161  13.802   0.080
22739W        W87559   1.391  33.454  14.384
22740W        W87560  36.365  33.959  12.908
22741W        W87561   1.003  11.296   0.837
22742W        W87562  30.020  33.116  12.571
22743W        W87563  35.596  37.342   4.907
22744W        W87564  26.196  38.400  10.698
22745W        W87565  21.809  39.790  14.293
22746W        W87566  34.619   4.351  11.171
22747W        W87567  32.666  14.816  11.572
22748W        W87568  18.606  38.848  14.882
22749W        W87569  26.941  10.672  13.480
22750W        W87570  17.854   5.779   1.236
22751W        W87571   0.261   0.539   2.733
22752W        W87572  30.990  23.445  14.812
22753W        W87573  42.542  29.392  12.447
22754W        W87574   0.204  44.621   1.918
22755W        W87575  43.363  33.736   1.928
22756W        W87576  17.644   9.103  12.429
22757W        W87577  43.251   4.239   1.983
22758W        W87578  33.905  21.021  12.531
22759W        W87579  15.052   0.744  10.557
22760W        W87580  42.924  26.212  12.568
22761W        W87581  22.780  26.009   4.105
22762W        W87582  25.240  14.722  11.976
22763W        W87583   1.428  11.045  13.933
22764W        W87584  27.397  43.049  11.720
22765W        W87585   3.765  34.544   3.982
22766W        W87586  32.871  12.819  14.869
22767W        W87587  15.245  42.092   2.822
22768W        W87588  42.755  20.499  11.711
22769W        W87589  17.109  43.256  11.110
22770W        W87590  12.320  18.814  12.797
22771W        W87591  38.542  39.067   3.345
22772W        W87592  31.138  29.109  11.631
22773W        W87593  32.878  14.407   4.631
22774W        W87594  30.835  34.867  10.300
22775W        W87595  18.717  31.048   1.007
22776W        W87596   3.635   6.898  12.050
22777W        W87597  30.424  19.016   2.745
22778W        W87598  20.495  36.505   0.848
22779W        W87599  22.991   1.809   3.286
22780W        W87600  12.753   0.255   4.307
22781W        W87601   2.333  31.195   2.217
22782W        W87602   5.758  21.647   4.533
22783W        W87603  38.929  43.415   2.686
22784W        W87604   4.997  17.256   3.588
22785W        W87605  32.181  33.416  13.016
22786W        W87606   3.323   6.040  12.491
22787W        W87607  28.996  29.757  12.831
22788W        W87608  26.671   0.693  11.142
22789W        W87609  23.200  14.611   0.392
22790W        W87610  16.229   5.918   0.060
22791W        W87611  27.681   2.360   2.276
22792W        W87612  11.663  34.573  13.542
22793W        W87613   6.987   5.738   4.807
22794W        W87614  31.633   3.392   1.827
22795W        W87615  31.488   7.342  12.316
22796W        W87616  12.946   7.253  11.412
22797W        W87617   1.278  42.466   4.884
22798W        W87618  33.845  29.379  11.538
22799W        W87619   0.764  28.074   1.912
22800W        W87620  41.081  32.502   2.186
22801W        W87621   6.610  22.748  12.863
22802W        W87622  31.988  31.483  10.982
22803W        W87623  36.462  20.273  11.881
22804W        W87624  23.314  23.201  12.795
22805W        W87625  21.303  28.636  12.085
22806W        W87626  37.937   6.310   0.002
22807W        W87627  42.346  34.737  14.043
22808W        W87628  23.556  16.875   3.153
22809W        W87629   9.165  33.918  12.410
22810W        W87630  14.768  31.554  13.338
22811W        W87631  23.170  33.502  13.635
22812W        W87632  28.217  31.458   3.317
22813W        W87633  13.803   0.501  12.944
22814W        W87634   5.310  30.764  11.591
22815W        W87635  41.786   1.737  12.956
22816W        W87636  29.607  38.627   1.785
22817W        W87637  32.573  41.040   0.256
22818W        W87638  10.294  19.227  11.105
22819W        W87639  20.540  40.140  14.314
22820W        W87640  31.521  14.864   1.977
22821W        W87641   2.733  30.453   2.358
22822W        W87642  15.641  20.563  10.446
22823W        W87643  29.543  33.577  10.998
22824W        W87644  21.190  16.754  12.558
22825W        W87645   1.328  35.791  11.602
22826W        W87646  19.695  12.257  13.331
22827W        W87647   4.125  35.863   4.017
22828W        W87648  35.366   7.173  11.122
22829W        W87649   2.814   2.994  13.065
22830W        W87650  22.130  20.827   4.160
22831W        W87651   9.220   2.953   4.340
22832W        W87652  43.436   6.861  13.474
22833W        W87653   7.770  10.259   0.215
22834W        W87654  17.551   1.305  11.466
22835W        W87655   9.268  14.811  12.500
22836W        W87656   4.200  23.717  13.382
22837W        W87657   5.168  12.309   2.308
22838W        W87658  39.275  35.097   0.842
22839W        W87659  15.524   4.889  13.905
22840W        W87660  10.248  17.095   2.720
22841W        W87661  24.915   7.802  14.955
22842W        W87662  13.386  16.735  11.628
22843W        W87663   0.368  25.747  11.210
22844W        W87664  39.104  12.828   0.920
22845W        W87665  22.544   5.463   1.668
22846W        W87666  17.009  16.144  12.225
22847W        W87667  19.165   5.933  13.918
22848W        W87668  21.078   1.230   1.483
22849W        W87669  17.243  39.936   0.700
22850W        W87670  39.055  11.269   0.343
22851W        W87671  18.782  19.467  12.443
22852W        W87672   3.212  29.890   4.160
22853W        W87673  38.359  44.898  10.261
22854W        W87674   4.883  19.379   2.657
22855W        W87675   5.842  28.457  11.537
22856W        W87676  16.945  44.640   4.535
22857W        W87677  13.554   0.892   4.553
22858W        W87678  36.480   3.684  13.536
22859W        W87679  20.878  24.731  14.867
22860W        W87680  43.441  18.994   2.793
22861W        W87681  30.494  43.126   4.239
22862W        W87682  22.811  25.724   2.689
22863W        W87683  20.731   4.457   3.621
22864W        W87684  38.967  27.065  13.304
22865W        W87685   6.957  38.990  10.372
22866W        W87686  14.309  28.109   3.097
22867W        W87687  43.938  10.447  13.983
22868W        W87688  31.069  21.634  11.826
22869W        W87689  44.570  14.740  13.926
22870W        W87690  14.219  34.673   0.309
22871W        W87691  41.951  33.032  13.571
22872W        W87692  38.095   6.113   1.889
22873W        W87693  18.573   6.355   4.546
22874W        W87694   6.272   1.201  13.586
22875W        W87695  17.815  39.881   1.315
22876W        W87696  10.687   1.342   3.591
22877W        W87697  35.506  31.481   3.850
22878W        W87698   1.719  20.461   0.708
22879W        W87699  10.353  20.484   2.265
22880W        W87700  40.479  38.878   1.514
22881W        W87701   8.794  22.594   0.258
22882W        W87702  40.068   0.846   0.419
22883W        W87703   3.285  29.080  11.242
22884W        W87704  40.920  44.793  14.062
22885W        W87705  43.659  26.231  13.000
22886W        W87706  20.312  15.216   2.243
22887W        W87707   5.616  14.135   3.475
22888W        W87708  44.319   2.021   2.616
22889W        W87709  25.927  12.624   2.436
22890W        W87710  35.357  16.550   0.537
22891W        W87711  27.563  28.111   1.281
22892W        W87712  39.458  35.347  14.531
22893W        W87713  41.998  24.534  11.361
22894W        W87714  12.721  44.855  10.923
22895W        W87715  41.847  21.008  12.255
22896W        W87716   0.427  14.148  11.482
22897W        W87717  18.446  34.966  11.186
22898W        W87718  34.346  20.433   1.563
22899W        W87719  27.859  18.216  14.527
22900W        W87720  42.906  42.303   4.561
22901W        W87721   3.964   9.630   4.044
22902W        W87722  15.015  18.893  11.038
22903W        W87723  31.550  26.194   0.804
22904W        W87724   6.527  44.415  12.845
22905W        W87725  36.062   4.364   1.984
22906W        W87726  14.485  40.540  11.458
22907W        W87727   9.639  28.453  14.827
22908W        W87728  22.694  38.034   1.557
22909W        W87729  10.941  18.676   0.206
22910W        W87730   0.961  25.180   0.835
22911W        W87731  18.655  18.824  13.958
22912W        W87732  11.138   8.415  11.173
22913W        W87733  21.356   5.725  11.569
22914W        W87734  40.444   3.684  14.351
22915W        W87735  23.509  33.657   3.200
22916W        W87736  13.192  36.955   4.515
22917W        W87737  40.873  40.297  11.628
22918W        W87738  37.894  26.769   2.739
22919W        W87739  25.658  42.374   3.840
22920W        W87740  43.966  22.727  13.289
22921W        W87741  15.135  22.327  10.887
22922W        W87742  31.529   2.530  13.529
22923W        W87743  23.308  41.386  11.599
22924W        W87744  21.754   4.791  13.539
22925W        W87745  44.765  17.632   3.169
22926W        W87746  32.662  13.164   4.997
22927W        W87747   5.305   9.847  12.850
22928W        W87748  37.968   5.914  13.724
22929W        W87749  13.717   0.854   2.322
22930W        W87750  15.374  13.290  12.482
22931W        W87751  13.917  38.011  12.862
22932W        W87752  15.855  15.572  12.832
22933W        W87753  30.588  38.666  11.056
22934W        W87754  20.389  15.288  14.853
22935W        W87755  15.356  18.076  14.310
22936W        W87756  39.762  18.514  10.892
22937W        W87757  19.998  22.043  10.307
22938W        W87758  35.130  13.173   4.493
22939W        W87759  17.145  30.663  12.018
22940W        W87760  28.038  41.243  11.950
22941W        W87761   8.177  33.134  13.468
22942W        W87762  19.178  20.941   2.668
22943W        W87763  27.714  36.883  12.404
22944W        W87764   3.276  39.124  13.398
22945W        W87765  16.126  35.082   0.787
22946W        W87766  34.117  34.932   3.250
22947W        W87767  13.215  15.368  13.926
22948W        W87768   9.929  14.069   1.766
22949W        W87769   0.846  35.578  10.159
22950W        W87770  35.557   4.363  10.680
22951W        W87771   9.824  15.270  14.081
22952W        W87772  12.444   3.935   2.355
22953W        W87773  21.206  43.207   1.340
22954W        W87774  39.824   8.160   2.007
22955W        W87775   4.000  13.986  14.400
22956W        W87776   8.922  44.423   1.547
22957W        W87777  28.673  33.394  12.815
22958W        W87778  39.534  13.929   0.772
22959W        W87779  32.943   2.401  10.552
22960W        W87780  38.910  24.470   2.406
22961W        W87781  31.847  10.657   1.453
22962W        W87782  14.315  17.333   0.850
22963W        W87783   7.977  16.111  13.901
22964W        W87784  11.814  30.893   0.481
22965W        W87785  10.698  11.102   1.530
22966W        W87786  34.269  14.071  10.034
22967W        W87787   2.399   2.895  10.491
22968W        W87788   6.781  22.564   2.268
22969W        W87789   9.636  19.863   3.144
22970W        W87790  37.809  32.122  12.109
22971W        W87791   1.234  41.428   1.272
22972W        W87792  38.319   8.879   2.360
22973W        W87793  35.708  10.752  13.580
22974W        W87794  20.306  41.771  11.086
22975W        W87795  29.424  20.196   0.882
22976W        W87796  43.954  44.725   2.004
22977W        W87797  35.124  17.119   3.291
22978W        W87798  35.269  14.868   1.999
22979W        W87799   6.676  17.319  14.875
22980W        W87800  37.540  14.788  12.831
22981W        W87801   9.376  38.142  13.979
22982W        W87802  27.916  10.928   2.655
22983W        W87803  16.072  38.782  11.584
22984W        W87804   0.351  26.099   4.266
22985W        W87805  14.626   5.376  12.689
22986W        W87806  43.803   5.506   3.720
22987W        W87807  15.222  34.724  14.322
22988W        W87808   2.184   8.386   3.564
22989W        W87809   2.351   0.297  10.612
22990W        W87810  28.160  11.712   1.800
22991W        W87811  19.357  22.994   2.849
22992W        W87812  35.361  13.864  13.354
22993W        W87813  15.140   0.395   2.591
22994W        W87814  35.840  11.834   2.354
22995W        W87815   2.231  30.637  13.522
22996W        W87816  16.719  32.203   4.326
22997W        W87817  40.059  30.726   2.842
22998W        W87818  31.466  20.372   0.801
22999W        W87819  14.653  16.740   1.580
23000W        W87820  12.735  34.051  13.527
23001W        W87821  42.084   2.012  13.357
23002W        W87822  26.660   9.529   0.093
23003W        W87823  23.888  41.616  11.678
23004W        W87824  41.202  25.090   2.727
23005W        W87825  34.673  30.078  13.094
23006W        W87826   8.642   0.576  12.398
23007W        W87827  41.848   4.427   2.922
23008W        W87828   5.767  40.103  12.919
23009W        W87829  43.386   9.279   2.842
23010W        W87830  23.045   1.801   4.236
23011W        W87831  29.657  44.417   0.236
23012W        W87832  34.593  18.651  13.956
23013W        W87833  43.744  23.251   3.581
23014W        W87834   5.244  12.685  14.466
23015W        W87835   3.787  11.875   0.868
23016W        W87836   1.568  20.766   2.286
23017W        W87837   8.820   6.363  13.347
23018W        W87838   2.911  25.196  13.679
23019W        W87839  19.589  16.849   3.121
23020W        W87840  31.458  19.985  12.615
23021W        W87841  42.631  11.309   4.675
23022W        W87842   2.307   9.365  12.116
23023W        W87843  32.451  27.300   2.738
23024W        W87844   7.966  26.534   2.342
23025W        W87845  29.093   9.462   3.682
23026W        W87846  36.945   7.462  13.356
23027W        W87847   3.420  36.922  13.077
23028W        W87848  22.038   3.492   1.923
23029W        W87849  37.609  39.027  10.892
23030W        W87850  22.127  22.178  10.191
23031W        W87851  41.846  23.583  11.888
23032W        W87852  24.657  18.639   2.252
23033W        W87853  36.147  14.111  12.373
23034W        W87854   8.466  43.920   1.210
23035W        W87855  37.598  38.535  14.066
23036W        W87856  15.969  39.531   2.830
23037W        W87857  29.379   6.220   0.833
23038W        W87858  41.337  26.986  11.423
23039W        W87859  30.975  26.432   3.369
23040W        W87860  17.683  31.397  12.680
23041W        W87861   3.088   9.471  13.395
23042W        W87862  10.207  38.146  11.485
23043W        W87863  40.715  18.668  10.818
23044W        W87864  11.244  18.705   2.637
23045W        W87865  14.730  16.524   4.193
23046W        W87866  22.809   3.697   9.911
23047W        W87867  17.663  38.414   3.278
23048W        W87868  28.687  43.390  14.195
23049W        W87869  19.765  27.694  10.884
23050W        W87870  37.270  36.099  13.304
23051W        W87871  19.642  11.384   1.723
23052W        W87872  26.696  39.465   4.457
23053W        W87873  30.066  12.116   1.424
23054W        W87874  29.670  26.894   3.658
23055W        W87875  23.294  34.645  13.284
23056W        W87876  30.025  43.554  12.412
23057W        W87877  43.543  35.665  12.533
23058W        W87878   5.693   1.165   2.798
23059W        W87879  38.838  19.768  10.370
23060W        W87880  43.693  19.001  14.755
23061W        W87881   4.102  18.568  13.228
23062W        W87882  44.936  44.283   0.528
23063W        W87883  13.610  32.376   1.236
23064W        W87884  25.439  12.799   4.752
23065W        W87885  44.465   8.621  12.309
23066W        W87886  33.322  31.615  13.015
23067W        W87887  43.465  43.156   4.088
23068W        W87888  13.639  17.421   3.260
23069W        W87889  10.357  20.146   4.777
23070W        W87890  39.751  33.937  10.891
23071W        W87891  18.043  15.266   1.329
23072W        W87892   5.856  30.726  12.428
23073W        W87893   8.274  31.407  11.064
23074W        W87894  34.891  17.364  14.410
23075W        W87895  39.192  19.382   0.359
23076W        W87896  43.535   4.937   2.354
23077W        W87897  27.899  40.158   0.794
23078W        W87898   2.193  17.123   2.072
23079W        W87899  16.899  44.778   1.223
23080W        W87900  17.804   3.337   0.354
23081W        W87901  44.390  14.770  12.655
23082W        W87902  25.979  28.924  12.581
23083W        W87903  30.565  36.992  14.434
23084W        W87904   2.431  34.538  12.523
23085W        W87905  11.201  37.853   1.891
23086W        W87906  19.265  28.541   2.824
23087W        W87907  19.093  34.088   4.118
23088W        W87908  19.504  16.939  14.422
23089W        W87909  24.514  33.477  12.852
23090W        W87910  16.240  30.598  10.760
23091W        W87911  25.103   1.632  14.869
23092W        W87912  26.814   2.268  11.888
23093W        W87913  10.200  29.804   4.546
23094W        W87914  33.947  41.130  13.449
23095W        W87915  17.148  15.640   2.571
23096W        W87916  27.414   1.062   0.881
23097W        W87917   5.851  20.783  12.760
23098W        W87918  35.790  12.731   2.392
23099W        W87919  10.275  15.637   3.255
23100W        W87920  18.751  38.457   2.557
23101W        W87921  18.085  37.055  13.610
23102W        W87922  21.237  36.961  10.473
23103W        W87923   0.859  24.162  10.609
23104W        W87924  24.768  37.563  14.209
23105W        W87925   6.885  36.635   3.176
23106W        W87926  35.409  23.094   0.406
23107W        W87927  26.526  43.234   1.891
23108W        W87928  44.772  18.661  12.273
23109W        W87929  29.885  21.975   3.253
23110W        W87930   1.086  14.299  12.574
23111W        W87931   0.535  34.689   2.064
23112W        W87932  44.906  19.071   4.628
23113W        W87933  27.701  37.530  13.536
23114W        W87934  36.159  20.394   3.289
23115W        W87935  23.665   3.767  12.550
23116W        W87936  37.808  23.187  10.666
23117W        W87937  25.694  30.552  14.888
23118W        W87938   2.765  29.706   1.867
23119W        W87939  38.240  32.713  12.679
23120W        W87940  19.073  38.583   1.803
23121W        W87941  36.005   2.000   1.800
23122W        W87942  10.063   8.762  11.467
23123W        W87943  20.080  10.586   1.854
23124W        W87944  38.228  12.245  11.055
23125W        W87945  13.127  42.513  14.515
23126W        W87946  31.893  36.725   4.179
23127W        W87947  33.520  28.244  12.551
23128W        W87948  15.364   3.561   3.533
23129W        W87949  28.508   9.197  13.800
23130W        W87950   6.310  38.606  11.248
23131W        W87951  28.999   0.827   2.253
23132W        W87952  28.624  41.235   0.837
23133W        W87953   2.550  14.695  11.618
23134W        W87954  25.943  30.259   4.539
23135W        W87955   6.253   3.560   3.757
23136W        W87956  31.912  15.264  10.547
23137W        W87957   4.744  33.201   5.407
23138W        W87958  28.016  35.045   3.081
23139W        W87959  26.664   2.571   4.286
23140W        W87960  20.973  39.107  11.664
23141W        W87961   8.806  40.335   0.219
23142W        W87962  42.038  23.551   3.744
23143W        W87963  19.033  28.936   1.851
23144W        W87964  43.232   9.243  14.800
23145W        W87965  13.049   4.968  11.142
23146W        W87966  34.586  33.532   3.981
23147W        W87967  34.969  42.886   4.149
23148W        W87968  24.297  22.984   3.225
23149W        W87969  17.226  14.582  12.066
23150W        W87970   3.783  18.403  11.950
23151W        W87971  40.571   1.471   0.138
23152W        W87972  26.485  15.740   0.076
23153W        W87973  27.438   5.646   0.055
23154W        W87974  30.695   3.734  11.003
23155W        W87975   7.772  14.198  11.263
23156W        W87976  19.691  18.576  12.011
23157W        W87977  40.404  42.390   3.419
23158W        W87978  17.654  28.557   2.928
23159W        W87979   2.108  18.813  14.047
23160W        W87980  17.093  30.387   4.041
23161W        W87981  36.787  10.863  13.798
23162W        W87982  41.235  35.194   2.701
23163W        W87983   5.164  41.896   4.252
23164W        W87984   3.321   8.817   2.770
23165W        W87985  23.839   1.991  14.402
23166W        W87986   0.978  27.885  12.505
23167W        W87987  30.221  25.476  11.193
23168W        W87988  34.376   1.514   1.223
23169W        W87989  31.609  40.961   1.683
23170W        W87990   7.750  19.734   0.707
23171W        W87991  40.338  20.872   4.807
23172W        W87992   0.587  31.531  12.966
23173W        W87993  31.140   8.415   2.099
23174W        W87994  17.761  13.355   0.611
23175W        W87995  25.443  17.595  10.666
23176W        W87996  22.119  24.319  12.149
23177W        W87997   3.718  38.698  10.588
23178W        W87998  34.224  12.633  11.780
23179W        W87999  22.221  26.146   2.101
23180W        W88000  30.931  29.484   1.405
23181W        W88001  24.203  44.253  13.347
23182W        W88002  14.105   2.539  14.058
23183W        W88003   7.384   2.831   1.751
23184W        W88004  39.886  42.971  11.667
23185W        W88005  35.019  18.468  11.168
23186W        W88006  21.102  26.435  11.541
23187W        W88007  26.699  19.108   0.941
23188W        W88008  11.542  32.933  13.076
23189W        W88009  37.021  32.881  11.523
23190W        W88010  35.476   6.928  12.514
23191W        W88011  31.912  40.039   3.319
23192W        W88012  13.296   3.945   1.752
23193W        W88013   1.645  17.396  10.790
23194W        W88014  12.657  36.680   0.944
23195W        W88015  17.669  31.704   3.128
23196W        W88016  40.007  39.821  12.291
23197W        W88017  43.377  22.063   2.378
23198W        W88018  26.084  42.961   4.320
23199W        W88019  43.093  37.789  14.888
23200W        W88020  13.675  27.788   4.558
23201W        W88021   6.860  36.682   2.662
23202W        W88022   4.463  30.374  13.958
23203W        W88023  31.732   0.065  11.622
23204W        W88024  12.542  27.153  13.502
23205W        W88025  17.431  40.468  12.923
23206W        W88026  15.881  13.340  12.616
23207W        W88027  20.265  37.297   3.615
23208W        W88028  13.034  16.154  14.744
23209W        W88029  28.528  34.248  11.259
23210W        W88030  44.754  23.062   4.332
23211W        W88031  44.805  33.609   4.999
23212W        W88032  15.347  14.171   2.337
23213W        W88033  25.055  29.198   0.922
23214W        W88034  14.816  36.191  12.919
23215W        W88035   5.390  23.758  10.726
23216W        W88036  41.911   8.150   2.745
23217W        W88037  30.897  44.789   0.031
23218W        W88038  40.001   1.391  11.523
23219W        W88039  29.389  22.466  10.597
23220W        W88040  43.987  23.202  11.603
23221W        W88041  31.353  30.617  12.065
23222W        W88042  19.784   4.632   2.791
23223W        W88043   3.596  18.738   3.160
23224W        W88044  14.681  23.238   1.680
23225W        W88045   3.770  13.563   1.565
23226W        W88046  19.807  31.018  12.515
23227W        W88047  24.185  36.831  14.943
23228W        W88048  11.658  11.095  14.325
23229W        W88049   5.357  18.159   4.575
23230W        W88050  21.508  15.866  12.941
23231W        W88051  34.937  30.906  13.562
23232W        W88052  21.223  21.052  10.426
23233W        W88053   1.334  31.991  14.074
23234W        W88054   9.718   1.360   3.791
23235W        W88055   2.961   7.248   2.201
23236W        W88056  44.503  42.284   0.829
23237W        W88057  10.387  35.934  12.209
23238W        W88058  44.230   6.384   0.911
23239W        W88059  27.016  11.837  12.166
23240W        W88060  22.800   4.418   2.498
23241W        W88061  26.997   6.254  12.438
23242W        W88062  19.337  16.961  12.659
23243W        W88063  13.241  44.416  11.864
23244W        W88064  15.329   0.240   0.266
23245W        W88065   8.623  18.783  12.906
23246W        W88066  37.476  29.918   4.403
23247W        W88067  12.291  14.761  13.775
23248W        W88068   7.735  18.966  10.778
23249W        W88069  33.653  15.466  13.982
23250W        W88070   2.468  32.496   4.015
23251W        W88071  44.951  10.954   0.955
23252W        W88072  29.214   0.258  11.532
23253W        W88073   4.418  35.475   3.766
23254W        W88074  32.364  21.726   1.732
23255W        W88075   4.296  38.642   0.461
23256W        W88076  19.684  22.621  13.966
23257W        W88077  32.690  28.658  13.445
23258W        W88078  35.447  35.394  13.430
23259W        W88079  40.130  41.601   2.053
23260W        W88080  39.856  21.250   4.052
23261W        W88081  15.931  27.011   1.379
23262W        W88082  38.771  34.967   4.494
23263W        W88083  23.027   8.883  14.417
23264W        W88084   9.392   9.397   2.852
23265W        W88085   1.715  20.261  11.570
23266W        W88086   9.653  31.508   1.977
23267W        W88087  24.998  13.321  12.093
23268W        W88088  10.339  23.967   0.309
23269W        W88089  33.924  11.038  13.635
23270W        W88090   7.869  38.529  12.979
23271W        W88091  25.734   0.377  12.682
23272W        W88092  11.251  30.567  11.751
23273W        W88093  33.158   0.784   4.161
23274W        W88094   6.469  36.959   2.844
23275W        W88095   3.342   1.739   4.380
23276W        W88096   7.443  15.511   3.288
23277W        W88097  41.970  17.488   4.128
23278W        W88098  10.039   9.822   2.028
23279W        W88099  26.453  11.185   5.104
23280W        W88100  43.795  12.914  14.815
23281W        W88101  19.050   6.491   0.592
23282W        W88102   1.399  10.124   1.688
23283W        W88103  28.863  15.139  10.708
23284W        W88104  44.889   9.652   3.181
23285W        W88105  29.003   4.657  12.005
23286W        W88106  30.641  31.725  11.225
23287W        W88107  37.722  20.656  11.114
23288W        W88108  18.981  23.055  10.495
23289W        W88109  21.637  11.013   3.279
23290W        W88110  17.232   1.448  12.458
23291W        W88111   4.295  28.158  14.801
23292W        W88112   9.135  13.208   2.032
23293W        W88113  28.167   0.498  12.177
23294W        W88114  36.346  28.480  12.449
23295W        W88115  10.323  10.525   2.752
23296W        W88116  39.425  43.651  12.766
23297W        W88117  27.493   0.215  13.565
23298W        W88118  22.764   0.516   0.709
23299W        W88119  18.522   9.324   5.430
23300W        W88120  32.431   2.798  14.319
23301W        W88121  30.068   6.859  13.615
23302W        W88122  43.468  27.571   0.521
23303W        W88123  27.390  32.913  12.943
23304W        W88124  20.251  17.038  14.745
23305W        W88125  27.061  35.108   0.628
23306W        W88126  25.778  36.953  13.304
23307W        W88127  38.368   2.633  12.380
23308W        W88128  35.579  11.931  13.974
23309W        W88129   5.373  16.616   2.650
23310W        W88130  20.234  11.700  14.849
23311W        W88131  41.669  14.544  12.600
23312W        W88132  18.529  44.353  10.698
23313W        W88133   8.963  31.231  12.448
23314W        W88134  14.176  36.441  11.147
23315W        W88135  22.029   4.383  14.067
23316W        W88136  25.235  38.930   3.317
23317W        W88137  39.889   4.425   2.407
23318W        W88138  31.198  35.478   1.920
23319W        W88139   2.018  31.141   0.518
23320W        W88140  24.271  12.434  14.660
23321W        W88141  21.951  32.544   1.765
23322W        W88142  14.852  40.691   0.276
23323W        W88143   1.888   5.977  12.629
23324W        W88144  24.052  16.011  10.268
23325W        W88145  41.573  23.742  14.505
23326W        W88146  18.254   2.626  14.063
23327W        W88147   1.310  43.943   1.098
23328W        W88148   7.277  17.382   4.681
23329W        W88149  12.302  44.205   1.681
23330W        W88150  28.191  13.031   0.948
23331W        W88151  20.749  40.659   0.452
23332W        W88152  14.682  20.508   3.059
23333W        W88153  33.042  40.767  11.219
23334W        W88154  24.549   7.373   4.337
23335W        W88155  10.368  40.398   4.575
23336W        W88156   3.625  23.814  11.634
23337W        W88157  24.477   9.735  12.518
23338W        W88158  29.397   8.399   1.773
23339W        W88159  31.551  40.065  13.386
23340W        W88160  33.469  37.752  14.636
23341W        W88161  29.050  30.051  14.863
23342W        W88162  31.523  32.409  11.688
23343W        W88163  20.511  12.096   1.286
23344W        W88164  33.444  28.261  14.104
23345W        W88165  35.611  44.283  13.022
23346W        W88166  19.661  35.026  12.221
23347W        W88167  40.896  18.231   4.742
23348W        W88168  21.827  21.744   1.855
23349W        W88169  17.015  44.938   0.735
23350W        W88170  19.021  21.322   0.465
23351W        W88171   9.989   5.260  14.147
23352W        W88172  23.940  30.646  13.555
23353W        W88173  17.576  10.761  10.608
23354W        W88174  42.253   7.915   3.663
23355W        W88175  32.256   5.905   3.605
23356W        W88176  24.409  24.939  12.011
23357W        W88177  16.713  41.263  13.762
23358W        W88178  18.745  36.784  14.785
23359W        W88179  16.330  41.466  12.244
23360W        W88180  37.875  31.446   4.248
23361W        W88181  25.615   6.349   0.736
23362W        W88182  17.237  14.803   4.720
23363W        W88183   8.902  40.854   4.923
23364W        W88184  41.157   6.834  14.995
23365W        W88185  23.190  12.331   4.614
23366W        W88186  28.342  44.841   3.035
23367W        W88187   3.259  12.333  13.522
23368W        W88188  36.536   3.765   2.774
23369W        W88189  25.569   7.173   1.874
23370W        W88190  17.134  37.353  14.449
23371W        W88191   5.843  28.003   0.341
23372W        W88192  21.698  42.068  11.916
23373W        W88193  12.836  41.311  10.612
23374W        W88194   0.904  14.249   3.929
23375W        W88195  13.145  23.533  12.798
23376W        W88196  41.864  38.871   3.098
23377W        W88197  21.221  33.949   3.318
23378W        W88198  43.387  39.568  12.156
23379W        W88199  23.766  30.401  10.331
23380W        W88200  40.011   3.439  10.745
23381W        W88201   4.200  13.823  11.624
23382W        W88202  12.853  38.118  11.733
23383W        W88203  39.017  11.463  13.589
23384W        W88204  32.891   3.467   3.265
23385W        W88205  17.706  19.719  14.048
23386W        W88206  35.111  42.327   2.761
23387W        W88207  23.632   9.403  12.051
23388W        W88208  16.280  23.669  13.426
23389W        W88209  37.952   7.223  12.211
23390W        W88210  24.999  25.061   2.350
23391W        W88211  14.257  36.649   2.858
23392W        W88212  19.298  44.537  14.939
23393W        W88213  20.531  15.924  11.075
23394W        W88214   8.646  23.009   3.188
23395W        W88215  27.164  18.279   4.550
23396W        W88216  12.209  13.841  14.970
23397W        W88217   3.892  38.921   0.235
23398W        W88218  28.206  38.710   0.478
23399W        W88219  43.804  34.634  13.024
23400W        W88220  11.984   5.458   3.146
23401W        W88221   1.931  12.485   3.302
23402W        W88222  28.053  31.132  10.712
23403W        W88223  15.091  13.634  10.736
23404W        W88224   7.625  17.614   3.694
23405W        W88225   6.933  18.676   0.320
23406W        W88226  39.359   9.169   1.266
23407W        W88227  30.669  14.047   4.196
23408W        W88228   1.660  43.022  12.343
23409W        W88229  42.859  40.593  14.398
23410W        W88230  18.285  34.488  13.048
23411W        W88231   8.956   5.799   3.446
23412W        W88232  22.017  21.637   3.729
23413W        W88233  44.439  11.853  11.866
23414W        W88234  14.989  43.534  12.945
23415W        W88235  16.167   4.362  11.678
23416W        W88236  32.810   1.208   1.954
23417W        W88237  38.467  17.328   2.658
23418W        W88238   6.344  27.553   4.888
23419W        W88239  20.242   0.277   4.786
23420W        W88240  16.008  40.422  10.442
23421W        W88241  22.821  20.225   3.711
23422W        W88242  26.518   2.016  11.546
23423W        W88243  15.586  25.889  11.140
23424W        W88244  40.257   7.713  13.879
23425W        W88245  26.590  34.403  11.548
23426W        W88246  29.915   9.304  12.401
23427W        W88247  42.393  40.334  14.443
23428W        W88248  14.853   9.899   4.923
23429W        W88249  12.108  28.711   9.863
23430W        W88250  22.154  21.483  14.302
23431W        W88251  11.960  37.080  10.527
23432W        W88252  14.671  39.926  10.150
23433W        W88253  14.029   2.211  11.987
23434W        W88254  31.367  37.357   4.675
23435W        W88255  31.574  34.366   2.614
23436W        W88256  41.167  42.792   4.540
23437W        W88257  19.828  31.731  14.438
23438W        W88258  19.098   2.713   2.688
23439W        W88259  12.569  29.419   2.621
23440W        W88260   5.884  13.804   0.927
23441W        W88261  14.833   6.179   0.476
23442W        W88262  15.212  16.141   1.781
23443W        W88263  27.143  32.469   2.877
23444W        W88264  23.151  29.334   1.183
23445W        W88265  31.683   8.380   2.319
23446W        W88266  29.190  39.897   1.022
23447W        W88267  23.708   7.360  12.025
23448W        W88268  43.876  14.189   0.491
23449W        W88269  24.901  42.046  12.567
23450W        W88270  34.598   1.784   2.247
23451W        W88271  20.219  41.714  13.513
23452W        W88272  11.379   9.794   4.695
23453W        W88273  28.651   4.910  14.393
23454W        W88274   2.344  10.553   0.716
23455W        W88275   4.463  44.150  14.796
23456W        W88276  16.752  27.527   4.094
23457W        W88277   6.131  37.496  11.260
23458W        W88278   3.196  26.655   3.211
23459W        W88279  10.330  20.128   0.485
23460W        W88280   5.354  37.215   1.602
23461W        W88281  27.228   6.667  14.522
23462W        W88282  22.296   0.870  11.026
23463W        W88283  22.105  12.335   2.194
23464W        W88284  42.281  16.620   2.015
23465W        W88285   6.224  38.374  13.144
23466W        W88286   7.451   5.446   2.787
23467W        W88287  12.282  13.954  11.558
23468W        W88288  16.356  10.363  14.875
23469W        W88289  10.340  36.576  14.722
23470W        W88290  29.969  30.476   3.150
23471W        W88291  10.653  39.315  12.470
23472W        W88292   5.166  36.149   2.378
23473W        W88293   8.645  30.636  13.494
23474W        W88294  27.385  22.179   2.287
23475W        W88295   7.264  11.171   1.385
23476W        W88296   2.226  40.204   0.279
23477W        W88297   2.966   8.932   3.819
23478W        W88298   0.237   7.902   2.324
23479W        W88299   5.500  30.156   1.781
23480W        W88300  20.222  10.755   3.737
23481W        W88301  18.574   8.807   5.494
23482W        W88302   9.210  41.810   3.038
23483W        W88303  44.001  10.909  13.063
23484W        W88304   9.276  29.430   1.348
23485W        W88305  10.671  28.197  11.118
23486W        W88306  36.946  23.701   4.152
23487W        W88307  32.575  21.036   0.796
23488W        W88308  23.535  31.867  12.031
23489W        W88309  38.113   2.004   3.685
23490W        W88310   6.431  14.187   1.447
23491W        W88311  37.373  13.385   1.432
23492W        W88312  21.954   8.695  13.499
23493W        W88313  12.625  38.011   0.413
23494W        W88314  39.311  21.543  14.377
23495W        W88315  16.028  21.036  12.730
23496W        W88316  37.921  30.948  14.071
23497W        W88317  41.297   0.531   1.770
23498W        W88318  20.436  26.947  13.032
23499W        W88319  37.965  25.269  11.560
23500W        W88320  37.991   6.209   2.771
23501W        W88321   3.623  40.227  14.913
23502W        W88322  15.908  21.778  12.383
23503W        W88323  22.808   8.680   2.770
23504W        W88324  14.786  25.982   0.317
23505W        W88325  31.617  33.349   1.340
23506W        W88326  29.482   9.592  12.954
23507W        W88327  18.140  10.759  11.508
23508W        W88328  42.287  27.645  10.732
23509W        W88329  29.404  15.015  11.069
23510W        W88330  36.020  24.285  10.512
23511W        W88331  24.929   0.876   1.891
23512W        W88332   6.244  43.515  12.376
23513W        W88333  25.322   8.717  14.900
23514W        W88334   5.986  15.518   3.231
23515W        W88335  23.909  19.081   3.618
23516W        W88336  17.329  42.523  14.519
23517W        W88337  29.988  13.652   2.933
23518W        W88338  42.034  36.928   1.383
23519W        W88339   7.818   7.189   4.106
23520W        W88340  22.419  20.127  11.955
23521W        W88341  10.891   1.743  12.008
23522W        W88342  44.367   1.332  12.481
23523W        W88343  13.509   3.355  12.428
23524W        W88344  29.072   1.820   0.031
23525W        W88345  23.189  34.123   4.597
23526W        W88346  34.523   3.523   0.377
23527W        W88347  38.785  39.977   1.257
23528W        W88348  34.053  19.521   3.344
23529W        W88349   6.421  16.616  13.909
23530W        W88350   5.249  14.847   1.318
23531W        W88351  43.985  39.977   1.391
23532W        W88352  30.851  30.427  12.171
23533W        W88353  39.810  23.192   1.236
23534W        W88354  29.439  41.237  11.173
23535W        W88355  30.951  13.208   1.597
23536W        W88356  32.071  19.976  13.476
23537W        W88357  34.456  18.082   2.420
23538W        W88358  16.338  33.418   3.778
23539W        W88359   5.793  23.519   1.799
23540W        W88360  10.234  34.119  11.026
23541W        W88361   8.218  21.026  11.627
23542W        W88362   4.349  31.991   9.907
23543W        W88363  41.089  15.768   2.158
23544W        W88364  36.066  22.275   1.381
23545W        W88365  34.841  31.907  11.578
23546W        W88366  22.011  29.205   3.468
23547W        W88367  16.262   1.412  12.315
23548W        W88368  21.971  31.031  13.826
23549W        W88369  14.661   1.729  14.971
23550W        W88370  40.297   3.798   4.425
23551W        W88371  18.656  40.477  12.402
23552W        W88372  43.684  18.442   4.927
23553W        W88373   4.921  25.501  14.877
23554W        W88374  32.777  13.201   2.749
23555W        W88375  44.866  37.221  11.998
23556W        W88376  31.051   4.176   1.949
23557W        W88377  12.600  38.450  11.435
23558W        W88378   7.893  11.583  11.656
23559W        W88379  43.748   3.099   0.732
23560W        W88380   6.830  23.083   0.905
23561W        W88381  33.097  34.465   4.325
23562W        W88382  14.591  37.560   2.258
23563W        W88383   0.003  36.522  13.513
23564W        W88384  19.739  17.660  10.639
23565W        W88385  31.175  11.693   0.268
23566W        W88386  15.467  27.414  14.456
23567W        W88387  10.146  27.617   4.057
23568W        W88388  23.179  41.483   0.044
23569W        W88389   6.259  10.468  10.779
23570W        W88390   9.955  29.900   3.670
23571W        W88391  14.319  39.657   0.024
23572W        W88392  13.407  18.077  13.413
23573W        W88393  40.814   0.274  11.727
23574W        W88394  29.949  21.469   0.616
23575W        W88395  15.281  34.470  11.288
23576W        W88396  16.590  26.301   4.096
23577W        W88397  41.589   0.676  14.851
23578W        W88398  38.120   2.723  14.886
23579W        W88399  37.805   3.602  11.139
23580W        W88400   6.650   0.842  12.023
23581W        W88401  25.298  26.719   2.974
23582W        W88402  37.451  26.996  12.386
23583W        W88403  30.164   8.833   1.864
23584W        W88404  21.264  30.385  11.168
23585W        W88405   4.266  23.965   2.225
23586W        W88406  34.606   2.857   1.289
23587W        W88407  34.981  21.322   1.833
23588W        W88408   2.158  17.478   0.897
23589W        W88409  24.051  15.949  11.644
23590W        W88410  11.655  15.870   1.392
23591W        W88411  17.895  24.591   1.636
23592W        W88412   4.803  19.028  14.840
23593W        W88413  27.386  30.612   2.361
23594W        W88414   9.779  37.088   3.200
23595W        W88415  32.776  24.937   2.289
23596W        W88416  31.641  44.151   3.629
23597W        W88417   3.706  13.518   0.104
23598W        W88418  10.765  17.254   1.318
23599W        W88419  36.293  30.698  12.197
23600W        W88420  38.037  35.133   2.090
23601W        W88421  32.699  30.401  14.505
23602W        W88422  36.888  14.802   0.719
23603W        W88423  36.710  29.575   1.664
23604W        W88424  38.853  41.788   0.479
23605W        W88425  33.389  14.219   4.674
23606W        W88426  33.522  10.217  11.451
23607W        W88427  39.543  30.586   0.031
23608W        W88428  20.344  18.593  13.790
23609W        W88429  41.021  44.381   3.499
23610W        W88430  18.663  12.184   1.320
23611W        W88431  15.133  23.469   1.710
23612W        W88432  19.813  18.217   4.653
23613W        W88433  16.063  19.068  14.478
23614W        W88434  18.409  29.920   0.028
23615W        W88435   2.443  11.624   0.699
23616W        W88436  44.952   2.682  14.280
23617W        W88437  29.477  44.900   0.351
23618W        W88438  35.046   5.263  14.315
23619W        W88439  19.777   0.910  13.975
23620W        W88440  13.171  34.005  10.639
23621W        W88441  44.474   2.675  11.909
23622W        W88442  13.610   1.770  10.815
23623W        W88443  29.416   1.352  12.263
23624W        W88444  17.823  35.169  10.221
23625W        W88445   6.239  19.485   4.627
23626W        W88446  15.323  10.049   1.180
23627W        W88447   7.681   2.484   3.099
23628W        W88448  31.303  37.591   0.445
23629W        W88449   8.944  41.243  13.440
23630W        W88450  40.966   0.923  14.397
23631W        W88451   6.515   3.753  13.881
23632W        W88452  43.865  24.824   1.782
23633W        W88453  16.816   2.908   4.131
23634W        W88454  31.645   0.377  14.851
23635W        W88455  36.204  29.400  13.582
23636W        W88456   0.062  34.925   2.861
23637W        W88457  11.630  39.496  13.411
23638W        W88458  32.680  13.310  13.901
23639W        W88459  30.232  44.005  11.477
23640W        W88460  32.889  26.361   1.180
23641W        W88461  10.685  40.574   4.194
23642W        W88462  29.882  21.756  11.137
23643W        W88463  21.107  12.366   3.223
23644W        W88464  37.522  35.376  11.440
23645W        W88465  29.746  44.962  11.448
23646W        W88466  37.960  34.317   1.411
23647W        W88467  27.662  11.711   1.680
23648W        W88468  15.728  23.189  13.092
23649W        W88469  31.208  20.315  10.636
23650W        W88470  22.540  12.079  12.441
23651W        W88471  35.756   1.850  11.076
23652W        W88472  33.672  29.633  12.634
23653W        W88473  32.066  26.098   4.163
23654W        W88474   2.049  37.040   0.373
23655W        W88475  26.069  37.839  12.499
23656W        W88476  33.961  16.285  13.450
23657W        W88477  17.323  41.883   4.608
23658W        W88478  37.750  20.186  13.592
23659W        W88479  29.531  21.767   3.550
23660W        W88480   2.443   2.670  10.955
23661W        W88481  30.052  24.060   5.636
23662W        W88482   4.703   8.268   4.387
23663W        W88483  28.658   9.041   3.384
23664W        W88484  13.729  39.916  12.737
23665W        W88485  35.417   6.445   0.840
23666W        W88486  11.696  43.721   4.232
23667W        W88487  43.475  12.320   3.570
23668W        W88488   8.825  29.976   3.681
23669W        W88489  12.100  39.283   3.476
23670W        W88490  29.193  43.551  12.948
23671W        W88491   9.239  36.313   0.921
23672W        W88492  29.535  18.232   4.318
23673W        W88493  43.491   5.780   2.468
23674W        W88494  22.086  21.080   4.608
23675W        W88495  29.706  17.179   2.232
23676W        W88496  20.868   8.402  14.805
23677W        W88497  25.675  33.665  13.368
23678W        W88498  23.011  16.652   1.428
23679W        W88499  28.247  17.116  14.955
23680W        W88500  44.478  15.677   3.636
23681W        W88501   4.942   0.452   3.768
23682W        W88502  36.024  41.815   1.873
23683W        W88503  20.021  20.565  12.677
23684W        W88504  27.600   4.719  11.969
23685W        W88505  35.062  30.609  10.725
23686W        W88506  12.265  20.974  13.414
23687W        W88507  40.477  31.359   3.302
23688W        W88508  34.035   3.951  14.704
23689W        W88509  32.521  40.257  13.994
23690W        W88510  10.200  28.634  10.422
23691W        W88511  34.503  27.252   1.750
23692W        W88512  26.017   6.761   4.060
23693W        W88513  34.909   3.546   3.759
23694W        W88514  12.176  42.526   3.976
23695W        W88515  35.661  35.002   3.120
23696W        W88516   0.810  31.212   0.906
23697W        W88517  41.100  36.065   4.413
23698W        W88518  28.357  38.745  13.025
23699W        W88519   4.313  11.648   4.649
23700W        W88520  12.289   8.354  14.890
23701W        W88521   9.834  14.516  11.441
23702W        W88522  43.740  36.791   4.537
23703W        W88523   2.148  17.662  13.427
23704W        W88524  21.162   6.349   1.623
23705W        W88525  18.766   1.966  12.486
23706W        W88526  26.949  23.497   1.346
23707W        W88527  42.174  30.531  10.708
23708W        W88528  35.820  30.002   4.686
23709W        W88529  28.063  29.626  12.539
23710W        W88530  24.000  12.163   0.164
23711W        W88531  26.639  36.945  10.585
23712W        W88532  20.181  36.383   2.257
23713W        W88533  21.049   2.464  11.527
23714W        W88534  19.313  40.465   4.273
23715W        W88535  24.737   2.218  14.298
23716W        W88536  11.856  33.752   3.656
23717W        W88537  10.825  12.016  12.118
23718W        W88538  27.446   9.754  11.501
23719W        W88539  30.202   3.788   1.781
23720W        W88540  26.364  16.683   9.789
23721W        W88541  23.609  29.684   3.301
23722W        W88542  13.232  37.740   3.255
23723W        W88543  40.460  25.227   4.258
23724W        W88544  30.211  29.039  12.783
23725W        W88545   8.795  10.237   0.010
23726W        W88546  19.257   5.430  12.475
23727W        W88547  31.985   5.412  13.519
23728W        W88548  19.080   3.807  14.771
23729W        W88549  17.179  40.917   4.874
23730W        W88550  22.753  18.151  11.433
23731W        W88551  16.605  14.867  14.884
23732W        W88552  33.512  43.932   2.287
23733W        W88553  36.940  25.111  10.008
23734W        W88554  10.069  41.204   0.363
23735W        W88555  11.499  32.044  11.609
23736W        W88556  39.847   3.049  13.882
23737W        W88557  44.276   2.384  13.015
23738W        W88558  27.884   3.421   4.076
23739W        W88559   5.440  22.663   1.882
23740W        W88560  30.602   7.709   2.771
23741W        W88561  19.709   2.870  12.108
23742W        W88562  30.102  40.210   1.392
23743W        W88563  14.139  12.736   2.611
23744W        W88564  33.525   8.433   4.226
23745W        W88565  37.549  43.741  13.269
23746W        W88566  41.505  33.415  11.011
23747W        W88567   2.939  21.777   3.131
23748W        W88568  29.358   1.650  13.304
23749W        W88569  13.502  42.480  11.148
23750W        W88570  21.494   2.316   0.912
23751W        W88571   1.758  18.232  11.960
23752W        W88572  26.113  23.960   2.263
23753W        W88573  15.954  34.039   0.449
23754W        W88574   4.379  21.168   2.758
23755W        W88575   2.949  41.692  11.564
23756W        W88576  17.736   2.398   4.485
23757W        W88577  14.005  40.529   0.020
23758W        W88578  27.304  19.647  11.799
23759W        W88579   2.185  44.101   3.688
23760W        W88580  30.674   4.740  11.043
23761W        W88581  15.712  20.439  14.105
23762W        W88582  17.225   4.905   2.356
23763W        W88583   8.829  17.029  12.055
23764W        W88584  16.133   0.519  11.217
23765W        W88585  26.294  10.655   0.946
23766W        W88586   5.204   0.550   3.343
23767W        W88587  31.470   7.328  10.799
23768W        W88588  27.382  33.131   1.791
23769W        W88589  16.785  12.253   2.949
23770W        W88590  37.314  10.352  14.786
23771W        W88591  43.317  24.237   4.580
23772W        W88592  25.550  13.108  10.215
23773W        W88593  20.663  35.982   1.052
23774W        W88594  13.748  19.015   0.512
23775W        W88595  41.441  44.781   0.407
23776W        W88596  21.032   9.660   2.859
23777W        W88597   5.881  33.096   2.224
23778W        W88598  42.647  16.698   2.369
23779W        W88599  15.723  18.531  13.672
23780W        W88600  28.606  31.173  13.551
23781W        W88601  40.838   5.468   0.326
23782W        W88602  27.000   5.675  13.799
23783W        W88603  11.012   0.284  14.403
23784W        W88604  31.184  42.547  14.351
23785W        W88605  41.558   9.229   4.963
23786W        W88606  30.143  40.195   0.274
23787W        W88607   2.642  28.368  11.587
23788W        W88608  24.328   3.344   1.348
23789W        W88609  23.715  39.059  14.431
23790W        W88610   2.251  23.605  13.118
23791W        W88611  42.775   8.686  14.316
23792W        W88612  41.821  41.816   0.217
23793W        W88613   6.386  10.773  11.179
23794W        W88614   4.271  11.025  10.812
23795W        W88615  30.631  33.292  14.943
23796W        W88616   3.923  28.005  13.984
23797W        W88617   2.421  34.845   0.366
23798W        W88618  18.326  20.670  11.643
23799W        W88619  11.519  15.766  12.408
23800W        W88620   9.939  41.906   2.404
23801W        W88621   4.037  35.360  13.336
23802W        W88622  27.698  21.260   2.765
23803W        W88623   2.007   0.535  11.238
23804W        W88624  14.300  36.819   1.094
23805W        W88625  18.828   5.620   4.072
23806W        W88626  24.527  25.076  14.276
23807W        W88627  14.437  38.722   0.458
23808W        W88628  10.594  21.835   1.707
23809W        W88629  21.516  20.615  10.457
23810W        W88630   4.018  14.510   3.683
23811W        W88631  26.748  11.205   1.433
23812W        W88632   2.836   5.877  12.397
23813W        W88633   8.076  32.850  10.568
23814W        W88634  39.469  43.824   3.242
23815W        W88635  10.813   2.981   1.031
23816W        W88636  44.014   0.982  10.840
23817W        W88637  14.240  44.351   4.190
23818W        W88638  14.795  22.129   1.786
23819W        W88639   8.342  33.425  12.168
23820W        W88640  39.467  18.083   0.960
23821W        W88641  29.267   4.897  12.840
23822W        W88642  39.110  30.424   1.954
23823W        W88643  24.232   1.011   1.169
23824W        W88644  41.788  10.908  11.017
23825W        W88645  23.989  16.771   3.855
23826W        W88646  42.025  11.195   1.890
23827W        W88647  20.825   3.800   2.020
23828W        W88648  17.776   7.093  13.535
23829W        W88649   3.291  13.690   1.708
23830W        W88650   1.555  33.719  12.154
23831W        W88651  44.555  13.134   2.322
23832W        W88652  17.092   7.301   1.927
23833W        W88653  25.725  40.968   4.666
23834W        W88654   9.409   0.899  14.770
23835W        W88655  33.237  22.251   0.250
23836W        W88656  38.133   4.651  13.853
23837W        W88657  44.991  17.598   3.669
23838W        W88658  30.555  27.346  11.113
23839W        W88659   0.522  35.298  13.452
23840W        W88660  10.642   3.428  14.368
23841W        W88661  39.794  34.436   4.961
23842W        W88662  37.921  33.337   1.198
23843W        W88663   8.713  30.559  10.581
23844W        W88664  44.545   7.736  12.980
23845W        W88665  27.623   7.551  10.743
23846W        W88666  26.783  33.511  12.398
23847W        W88667   0.984  11.285  13.755
23848W        W88668  36.594   8.342  14.339
23849W        W88669   0.473   1.759  12.823
23850W        W88670  20.002  17.655  13.023
23851W        W88671  22.141  30.899   1.363
23852W        W88672  24.076  11.562   0.884
23853W        W88673  25.203  27.014   0.495
23854W        W88674  10.109  38.511   4.503
23855W        W88675  10.114  22.531   4.204
23856W        W88676  17.381  42.845  12.549
23857W        W88677  27.777  30.233   0.478
23858W        W88678  27.413  24.712  14.217
23859W        W88679  38.034   2.468  12.000
23860W        W88680  38.889  44.509   3.250
23861W        W88681  32.196  26.536  14.306
23862W        W88682  14.863   4.124   1.794
23863W        W88683  16.616  14.129   3.617
23864W        W88684  25.034  18.372   3.125
23865W        W88685   7.316  44.794   2.668
23866W        W88686  42.535  14.840   4.383
23867W        W88687  12.742   8.767   5.128
23868W        W88688  24.993  23.011   1.154
23869W        W88689  44.929   9.280  14.408
23870W        W88690  41.351   6.346   0.260
23871W        W88691  19.055  29.525  13.489
23872W        W88692  40.951  19.306   0.715
23873W        W88693  15.826  29.603  12.521
23874W        W88694  14.161  28.294  13.651
23875W        W88695   7.110   4.163  11.167
23876W        W88696  10.846  23.172   0.254
23877W        W88697   4.925  34.180   0.750
23878W        W88698  19.677  19.769   2.263
23879W        W88699  24.138  17.623  11.411
23880W        W88700  10.157  29.101  10.673
23881W        W88701  17.181  10.813  14.590
23882W        W88702  32.878   2.730  11.153
23883W        W88703   1.838  39.823  14.523
23884W        W88704  42.874  27.033  11.123
23885W        W88705  23.616  20.735   4.640
23886W        W88706  43.766  23.641  11.395
23887W        W88707  34.863  42.175   0.288
23888W        W88708  19.009  41.150   3.583
23889W        W88709  29.923  22.475   0.839
23890W        W88710   8.945   6.272   4.076
23891W        W88711  17.214  18.758   2.697
23892W        W88712   0.940  22.737   2.727
23893W        W88713  16.541  33.384   2.745
23894W        W88714  22.621  23.982   3.178
23895W        W88715   1.782  17.083  13.357
23896W        W88716  27.427   7.804  14.514
23897W        W88717  22.254  31.510   4.099
23898W        W88718   3.344  11.118  10.982
23899W        W88719  11.680  13.424   2.592
23900W        W88720  26.686  35.362   0.902
23901W        W88721   2.823  41.812  10.677
23902W        W88722  40.418   8.163  13.211
23903W        W88723   8.236  21.634  12.122
23904W        W88724  36.762  14.726  11.707
23905W        W88725  40.569   9.896   5.002
23906W        W88726  14.830  25.464   0.319
23907W        W88727  29.599   6.737   3.921
23908W        W88728  39.315  18.740  13.349
23909W        W88729  30.583   6.160  13.567
23910W        W88730   5.962  30.476  10.720
23911W        W88731  21.044   9.938   3.300
23912W        W88732  30.361  37.766  10.208
23913W        W88733   7.899  34.996   1.007
23914W        W88734  16.128  10.025   0.217
23915W        W88735  41.762  38.372   0.975
23916W        W88736  32.170  28.604  13.483
23917W        W88737  11.572  20.525  11.559
23918W        W88738  30.848  37.950  10.314
23919W        W88739  10.117   4.753  10.273
23920W        W88740  21.067   4.857   3.408
23921W        W88741  38.387  42.396   1.750
23922W        W88742  42.962  35.185  12.077
23923W        W88743   7.362  16.999  12.207
23924W        W88744  36.945  23.194   3.978
23925W        W88745  21.582  23.355  13.796
23926W        W88746  31.411   9.617   4.524
23927W        W88747   2.958  17.160  14.710
23928W        W88748  40.804  26.177  13.769
23929W        W88749   1.909  26.950  11.663
23930W        W88750  31.643  36.273   4.172
23931W        W88751  32.845   4.004   3.273
23932W        W88752  42.371  16.720  13.341
23933W        W88753  13.251  35.147   4.154
23934W        W88754  12.777  36.579  12.179
23935W        W88755  40.333  25.252   1.182
23936W        W88756   1.385  10.379   2.174
23937W        W88757  42.988  28.408  13.073
23938W        W88758  32.808  25.485   2.221
23939W        W88759  34.334  33.275   4.384
23940W        W88760  40.131  26.768  13.874
23941W        W88761  41.949  35.888  12.535
23942W        W88762   7.370  17.007   1.847
23943W        W88763  39.887  29.328   4.602
23944W        W88764  20.318  33.865   4.603
23945W        W88765   7.663   6.037  14.774
23946W        W88766  44.903  32.016   1.727
23947W        W88767  26.282  40.132  12.914
23948W        W88768  41.478  22.436  11.069
23949W        W88769  32.453  24.843   1.894
23950W        W88770  17.999   7.199   2.080
23951W        W88771   7.254  33.941   1.001
23952W        W88772  23.414  25.470  11.471
23953W        W88773  33.317  24.571  10.754
23954W        W88774   5.431  23.099   9.952
23955W        W88775   9.290  34.860   0.689
23956W        W88776   6.467  32.033   4.485
23957W        W88777   0.691  17.837   1.907
23958W        W88778  35.512  35.034  11.149
23959W        W88779  21.015  31.774  11.128
23960W        W88780   1.967  29.016  14.664
23961W        W88781  34.563   5.742   4.439
23962W        W88782  16.158  44.499  10.139
23963W        W88783  12.744  24.604  13.409
23964W        W88784   7.645   1.742   0.921
23965W        W88785   8.042  25.244  14.451
23966W        W88786  44.800  39.510   0.925
23967W        W88787  27.560   6.953  11.347
23968W        W88788   2.350  35.101   2.175
23969W        W88789  40.805  11.799  14.784
23970W        W88790  38.652  41.430  14.682
23971W        W88791  42.858   3.434  14.271
23972W        W88792  44.831   8.735  13.560
23973W        W88793  37.281  30.452  11.116
23974W        W88794  32.153  38.148  11.474
23975W        W88795  11.826  22.913   3.702
23976W        W88796  42.720  30.176  11.430
23977W        W88797  44.872  25.747   2.408
23978W        W88798  19.085  43.087   2.845
23979W        W88799  12.816  14.602  11.995
23980W        W88800   3.285  37.900   2.344
23981W        W88801  36.595  27.837   1.760
23982W        W88802   2.375   4.693   3.779
23983W        W88803  40.831   6.155   4.050
23984W        W88804  35.960   2.476  12.597
23985W        W88805  26.117   9.197   1.318
23986W        W88806  41.522   4.812   9.984
23987W        W88807  15.264  14.061   3.182
23988W        W88808  10.894  10.661   0.658
23989W        W88809  37.867  43.182   4.158
23990W        W88810  35.253  21.012  12.401
23991W        W88811   4.802  41.377   2.671
23992W        W88812  16.363  34.641  14.912
23993W        W88813  20.580  20.700   4.357
23994W        W88814  23.559  44.359  11.682
23995W        W88815  41.695  43.699  11.596
23996W        W88816  23.913  34.005   0.965
23997W        W88817  37.894  11.332  12.656
23998W        W88818  31.463  38.714   1.266
23999W        W88819  20.904  26.158   2.383
24000W        W88820   5.741  27.618   0.735
24001W        W88821  42.420  33.010   2.632
24002W        W88822  18.213  22.952  11.152
24003W        W88823  42.752  21.662  13.167
24004W        W88824  29.453  32.133   0.374
24005W        W88825   8.383   1.376   1.317
24006W        W88826   7.967   8.600   4.002
24007W        W88827   7.807  20.717  13.914
24008W        W88828  10.486   6.479   4.203
24009W        W88829  34.725  25.343   3.728
24010W        W88830  18.798   0.052   3.820
24011W        W88831  22.598  42.901  13.809
24012W        W88832  40.039  12.434  14.464
24013W        W88833  44.731  42.937  12.474
24014W        W88834   3.956  25.293   1.794
24015W        W88835  17.161   6.637   1.164
24016W        W88836  42.969  31.675  14.815
24017W        W88837  18.090   5.812  12.596
24018W        W88838  11.387  36.348   1.717
24019W        W88839  36.290  24.572   2.395
24020W        W88840  30.879   1.056   3.824
24021W        W88841   2.056  15.835   4.640
24022W        W88842  28.426  23.137   1.455
24023W        W88843  40.832  35.545   1.907
24024W        W88844  24.110  32.201   4.674
24025W        W88845   2.349  18.100  12.121
24026W        W88846  29.986   9.666   1.153
24027W        W88847  32.865  18.291  14.026
24028W        W88848   1.077  31.477  13.603
24029W        W88849  10.925  38.497   2.339
24030W        W88850  42.275   7.971  12.787
24031W        W88851   2.673  40.604   1.641
24032W        W88852  23.472  27.566  14.832
24033W        W88853   2.864  24.705   0.880
24034W        W88854  22.619  30.984   0.171
24035W        W88855  24.821  25.729  14.970
24036W        W88856  15.582  39.237  14.608
24037W        W88857   5.951  37.577   2.338
24038W        W88858  33.765  17.290   3.662
24039W        W88859  26.439  37.936  12.008
24040W        W88860  32.893  27.182  12.032
24041W        W88861  44.783  38.272   3.998
24042W        W88862   8.834  16.322  12.942
24043W        W88863  25.672   6.860   1.400
24044W        W88864  25.768  38.923  11.138
24045W        W88865   1.742   2.494   1.870
24046W        W88866  27.143  25.659   0.996
24047W        W88867  44.064  31.469  12.404
24048W        W88868   3.906  18.069   1.238
24049W        W88869  40.538  22.684  10.785
24050W        W88870  34.051  22.625   2.341
24051W        W88871   1.895  23.245   1.651
24052W        W88872  14.330  40.477  13.064
24053W        W88873  40.939  42.893   0.317
24054W        W88874  27.401  27.660  12.374
24055W        W88875  35.122  17.182  13.468
24056W        W88876  23.780  42.704  14.552
24057W        W88877  36.527  16.933  11.219
24058W        W88878  31.522  12.493  10.837
24059W        W88879  28.753   5.876  14.182
24060W        W88880  24.507  24.211  14.527
24061W        W88881  44.532  18.700  10.203
24062W        W88882  14.204  31.901   4.537
24063W        W88883  29.978  21.090   3.299
24064W        W88884   9.765  13.653  10.860
24065W        W88885  16.846  25.792  11.614
24066W        W88886  22.995  39.947  11.568
24067W        W88887  44.671  21.573  14.948
24068W        W88888  16.564  35.514   4.164
24069W        W88889  34.003   4.964   2.289
24070W        W88890   7.780  15.399   2.095
24071W        W88891  11.315  11.535  10.798
24072W        W88892  27.119  43.992  13.608
24073W        W88893  11.259  15.227  12.630
24074W        W88894   6.428  16.522  12.957
24075W        W88895  29.547  18.230   3.340
24076W        W88896  10.850  35.610  14.410
24077W        W88897   6.520   3.566  12.949
24078W        W88898  21.305  14.279  14.062
24079W        W88899  41.293  24.107  12.279
24080W        W88900  36.532  37.545   0.299
24081W        W88901  29.407   9.932   0.202
24082W        W88902  17.657  17.785   3.938
24083W        W88903  30.239  31.087  10.721
24084W        W88904  31.475  40.793   1.203
24085W        W88905   0.995  13.561  12.903
24086W        W88906   6.206  38.465  14.456
24087W        W88907  11.594  39.454   1.176
24088W        W88908   9.572  14.666   3.997
24089W        W88909  25.915   3.455  11.199
24090W        W88910  31.406  16.872  12.897
24091W        W88911  15.281  39.936  11.621
24092W        W88912  10.223  11.598  13.837
24093W        W88913   7.216  28.160  10.521
24094W        W88914  36.972   6.787   1.687
24095W        W88915  21.669  12.140   2.412
24096W        W88916  38.936  12.399   4.482
24097W        W88917  26.891  11.328  14.983
24098W        W88918  10.806  24.432  10.495
24099W        W88919  38.553   6.441   2.033
24100W        W88920  37.361  14.335   3.006
24101W        W88921  31.170  36.981   3.762
24102W        W88922  14.682  14.239  12.955
24103W        W88923  27.440   9.863  12.891
24104W        W88924  16.387  15.076  11.025
24105W        W88925   6.691   8.356   3.628
24106W        W88926  29.531  32.067  11.151
24107W        W88927  13.832  16.841  10.076
24108W        W88928  31.315  24.669   0.518
24109W        W88929  31.374  17.581  11.168
24110W        W88930  22.015  41.958  13.411
24111W        W88931  12.938  30.467  13.252
24112W        W88932   1.780  23.141  11.669
24113W        W88933  38.413   1.243   3.102
24114W        W88934  16.053  32.478   0.906
24115W        W88935  17.690   7.307   2.724
24116W        W88936   2.732  20.811  14.887
24117W        W88937  33.413   2.589   0.360
24118W        W88938  38.315  38.553  14.880
24119W        W88939  13.755  13.231   4.286
24120W        W88940  30.442   0.778   3.725
24121W        W88941  40.454  15.994   2.690
24122W        W88942  12.179   0.022   2.234
24123W        W88943  10.253  41.594   3.654
24124W        W88944   5.837   1.167   1.765
24125W        W88945  41.311  22.035   4.094
24126W        W88946   9.234  41.720   0.003
24127W        W88947  29.654   1.802  12.347
24128W        W88948  40.601  44.724   2.638
24129W        W88949  41.499  38.605  10.966
24130W        W88950  27.539   3.844  14.306
24131W        W88951  11.792  34.444   0.512
24132W        W88952  12.424   4.960  11.610
24133W        W88953  18.839   4.992  10.881
24134W        W88954  22.050  40.041   2.349
24135W        W88955  13.388   4.354  11.127
24136W        W88956  41.418  18.713  12.576
24137W        W88957  40.787   4.328  13.907
24138W        W88958  14.761  44.458   4.271
24139W        W88959  31.984   4.621   5.027
24140W        W88960  30.626  34.726   3.900
24141W        W88961  23.275  23.226  14.186
24142W        W88962   4.649  33.559  13.347
24143W        W88963  18.948  34.568  14.845
24144W        W88964  14.598  23.758   1.693
24145W        W88965   9.388   6.059   1.680
24146W        W88966  14.753  29.782  14.369
24147W        W88967  36.079  43.667   2.879
24148W        W88968   9.697  15.379   0.099
24149W        W88969  39.840  22.439   0.471
24150W        W88970  39.434  41.302  11.519
24151W        W88971  25.984  38.108   1.673
24152W        W88972  42.562  10.162  11.124
24153W        W88973  40.584  18.689  11.674
24154W        W88974  34.089  36.444  12.522
24155W        W88975  28.412  43.347  13.742
24156W        W88976   1.074  23.496   5.059
24157W        W88977  36.411  43.119  13.067
24158W        W88978  17.180  28.793   1.640
24159W        W88979  11.181  25.349   4.631
24160W        W88980  11.010  11.114   2.330
24161W        W88981  20.501  23.608  12.318
24162W        W88982  38.576  43.011   4.664
24163W        W88983  26.415  17.044  11.542
24164W        W88984  42.248  19.213   4.595
24165W        W88985  21.493  40.423   0.879
24166W        W88986   7.976  15.302  10.307
24167W        W88987  41.423  10.930   5.146
24168W        W88988  14.312  18.749  10.787
24169W        W88989  37.796  40.547   1.964
24170W        W88990  19.698   2.953   0.510
24171W        W88991  33.979  28.718  12.417
24172W        W88992  43.171   9.306  12.478
24173W        W88993   5.942  29.260  11.969
24174W        W88994  20.144  39.545  14.962
24175W        W88995   1.577  34.499   2.235
24176W        W88996   0.691  10.911   2.679
24177W        W88997   0.893   9.740  13.796
24178W        W88998  29.560  44.562  14.758
24179W        W88999  17.609  28.039   1.328
24180W        W89000   4.065  16.780   0.357
24181W        W89001  39.961   6.500   1.358
24182W        W89002  23.000   0.177  11.507
24183W        W89003  16.223  20.178   3.595
24184W        W89004  30.095  30.493   2.106
24185W        W89005  16.120  25.539   1.839
24186W        W89006  41.015  15.685  14.891
24187W        W89007  21.277  22.537  11.683
24188W        W89008  37.143  22.697   0.908
24189W        W89009   0.827  24.349  14.738
24190W        W89010   4.207  29.562  12.697
24191W        W89011   1.058  44.123  12.838
24192W        W89012  27.905  25.985   0.316
24193W        W89013  23.572  12.786  14.405
24194W        W89014   9.826  16.379   0.796
24195W        W89015  23.222  44.452   3.736
24196W        W89016  23.449  10.373  10.200
24197W        W89017  37.924  11.676  13.964
24198W        W89018  37.472  33.525   1.457
24199W        W89019   2.237  25.687   0.781
24200W        W89020  40.196  19.542   4.184
24201W        W89021  10.664  38.395  11.280
24202W        W89022  41.459   7.927   3.644
24203W        W89023  41.054  21.442  13.002
24204W        W89024  35.923   6.238  12.043
24205W        W89025  27.842  34.666  11.846
24206W        W89026  22.678   6.689  10.791
24207W        W89027  17.941  42.762  12.708
24208W        W89028  36.615  28.078  13.760
24209W        W89029   2.390  29.431  13.980
24210W        W89030  44.365   1.919   3.131
24211W        W89031  39.379  30.372  13.251
24212W        W89032  22.500  42.600   3.628
24213W        W89033  42.451  34.873   3.671
24214W        W89034   9.015  37.018   4.855
24215W        W89035  14.748  39.645  10.613
24216W        W89036  34.005  40.369  14.850
24217W        W89037  11.138   1.718   4.619
24218W        W89038   4.252  30.191  13.500
24219W        W89039  36.059  20.154   2.190
24220W        W89040   6.948  33.573   3.311
24221W        W89041  10.272  40.252   1.403
24222W        W89042  36.735  38.463   0.725
24223W        W89043  13.038  24.686  13.873
24224W        W89044   3.835  30.117   0.786
24225W        W89045  35.078  22.497  14.817
24226W        W89046  25.047   6.932  14.882
24227W        W89047  41.372  11.383   2.367
24228W        W89048  22.590  33.503   1.719
24229W        W89049  32.115  35.015  11.659
24230W        W89050  20.771  27.781  13.894
24231W        W89051   1.348  11.641   0.990
24232W        W89052   2.695  34.199  14.874
24233W        W89053  14.267  42.702   0.918
24234W        W89054   9.899  12.861   4.347
24235W        W89055  41.570  41.933  13.364
24236W        W89056  24.226  36.937  13.399
24237W        W89057   9.668  15.351   4.565
24238W        W89058  27.319  36.477   4.093
24239W        W89059  42.912   2.455   3.765
24240W        W89060  33.753  34.798  11.177
24241W        W89061  26.434  29.851  13.482
24242W        W89062  23.572   1.880   1.867
24243W        W89063  15.728  11.644  14.778
24244W        W89064  36.107  25.521   4.476
24245W        W89065  25.714  11.344   2.203
24246W        W89066  11.123  13.117   0.348
24247W        W89067  25.735  43.767   0.729
24248W        W89068  27.746  31.367   3.451
24249W        W89069  39.319  41.437  13.584
24250W        W89070  19.983  21.582  13.718
24251W        W89071  12.660  14.167   2.100
24252W        W89072  32.671   7.213  12.526
24253W        W89073  44.404   8.384   0.495
24254W        W89074  30.136  40.866  10.782
24255W        W89075  32.970  42.878  12.977
24256W        W89076  14.275  27.686   1.125
24257W        W89077  39.471   0.396  11.446
24258W        W89078   4.334  23.200  11.574
24259W        W89079  10.337  28.502  13.818
24260W        W89080  20.176  30.024  11.242
24261W        W89081   4.206  40.842  10.739
24262W        W89082  30.236  16.291   2.098
24263W        W89083  32.144   8.843  10.586
24264W        W89084   4.335  41.910   0.828
24265W        W89085   4.225  12.604   3.333
24266W        W89086   5.881   3.908   3.654
24267W        W89087  44.236  32.637   0.857
24268W        W89088  29.474  27.205  11.464
24269W        W89089  20.535   7.455  10.704
24270W        W89090  17.624  25.953  12.456
24271W        W89091  21.248   9.527  13.995
24272W        W89092  41.101  42.342   1.878
24273W        W89093  33.405  35.334   0.239
24274W        W89094  35.456  36.008   1.953
24275W        W89095  15.952  35.533  13.397
24276W        W89096  31.627   5.163  11.135
24277W        W89097  20.730  14.119   2.399
24278W        W89098  26.003   5.172  13.641
24279W        W89099  30.755   6.896   1.650
24280W        W89100   3.298  33.581   2.782
24281W        W89101  22.616  26.171   1.754
24282W        W89102  44.064   3.675  12.917
24283W        W89103   9.766  15.081   2.605
24284W        W89104  42.438  10.875   0.002
24285W        W89105  35.073   4.225  13.476
24286W        W89106  26.857  23.610  13.496
24287W        W89107  40.410   1.472   1.640
24288W        W89108  33.928  38.472  11.539
24289W        W89109  37.489  27.952  11.264
24290W        W89110  16.961  39.344  12.788
24291W        W89111  38.294  44.210  11.019
24292W        W89112  39.973  35.080  11.621
24293W        W89113  24.762   6.787  11.609
24294W        W89114  42.367  29.649   4.675
24295W        W89115  16.301  38.539  14.936
24296W        W89116  33.424   4.855  14.986
24297W        W89117  34.956  36.934   3.944
24298W        W89118   1.539  35.446  14.695
24299W        W89119  15.168  44.545  13.870
24300W        W89120  25.739  26.496   2.059
24301W        W89121  10.186   8.736  10.207
24302W        W89122   9.463  12.405   2.180
24303W        W89123  35.332   9.336   0.947
24304W        W89124   1.804  16.906   3.820
24305W        W89125  12.050  43.937  13.167
24306W        W89126  15.174  31.634  14.334
24307W        W89127  27.050   6.341   0.714
24308W        W89128  37.558  16.149   2.369
24309W        W89129  37.188   6.089  12.512
24310W        W89130   2.323  12.600   3.636
24311W        W89131  16.210  37.609   2.256
24312W        W89132  34.509  13.657  13.473
24313W        W89133  37.428  32.105  12.468
24314W        W89134  37.970  37.912   3.632
24315W        W89135   0.807  22.255   0.907
24316W        W89136   1.938   7.267   4.643
24317W        W89137  32.699  22.188  12.641
24318W        W89138  17.733   5.873   2.846
24319W        W89139  35.421  44.998  14.770
24320W        W89140  17.326  25.040   1.181
24321W        W89141  24.672  37.563   1.869
24322W        W89142   3.469  27.669  11.024
24323W        W89143  38.582  19.012   1.711
24324W        W89144  36.152   7.825   2.833
24325W        W89145  42.687  22.589   0.934
24326W        W89146  28.320   2.300   1.342
24327W        W89147  13.679   2.839  13.987
24328W        W89148  40.401  43.888   4.193
24329W        W89149  34.829  30.265  12.634
24330W        W89150  28.398  14.465  12.550
24331W        W89151  31.604   4.185   3.721
24332W        W89152  44.698   5.754   0.903
24333W        W89153  20.130  35.151  12.900
24334W        W89154  37.699   0.356   3.630
24335W        W89155  17.509   5.340  11.507
24336W        W89156  30.213  28.403  12.436
24337W        W89157   8.285  31.915  12.371
24338W        W89158  23.985  24.681   2.190
24339W        W89159  42.516  39.880  13.344
24340W        W89160  38.810  30.722   2.280
24341W        W89161  25.716   3.935  13.015
24342W        W89162  43.173   5.954  11.672
24343W        W89163   3.716  14.266   4.074
24344W        W89164  26.529  25.827  13.126
24345W        W89165  18.707  29.352   1.825
24346W        W89166  25.003  44.301  13.930
24347W        W89167  39.583  42.325  12.388
24348W        W89168  31.916  22.303  10.073
24349W        W89169  27.343   4.579   3.217
24350W        W89170  31.443   7.821   2.656
24351W        W89171  11.710  13.340  10.086
24352W        W89172   1.022  40.325   3.295
24353W        W89173  44.630  39.889  14.265
24354W        W89174  21.176  25.708  14.788
24355W        W89175  20.968   0.797   4.966
24356W        W89176  36.984  32.944  13.285
24357W        W89177  43.071  28.096   4.206
24358W        W89178  12.042  27.167  13.516
24359W        W89179   2.328  23.696  11.750
24360W        W89180  32.309  36.083   0.397
24361W        W89181  35.844  38.535  13.746
24362W        W89182  27.307  44.469   0.927
24363W        W89183  23.553  26.731  14.523
24364W        W89184   9.148  39.991   3.711
24365W        W89185  31.801  19.633  12.817
24366W        W89186  14.396   4.195  12.135
24367W        W89187  33.784  26.124   2.145
24368W        W89188  13.037  24.925  10.855
24369W        W89189  26.093   7.665   1.366
24370W        W89190  17.741  43.247  11.425
24371W        W89191   9.822   7.013  11.473
24372W        W89192  40.306  43.008  14.241
24373W        W89193  24.210  22.517   0.188
24374W        W89194  14.338  26.881  11.115
24375W        W89195  40.853  26.184   2.923
24376W        W89196  13.369  11.150   4.568
24377W        W89197  43.379  30.444   2.202
24378W        W89198  20.911  28.235  12.062
24379W        W89199  31.094   2.923  10.744
24380W        W89200   7.874   4.419  12.020
24381W        W89201  16.683  41.102   1.782
24382W        W89202  36.628  14.289   4.592
24383W        W89203   3.443  42.764  10.367
24384W        W89204  37.030   7.976  13.336
24385W        W89205  30.156  10.918  11.966
24386W        W89206   0.511  33.400  11.139
24387W        W89207  37.283  11.687   2.716
24388W        W89208   8.873  10.735  14.822
24389W        W89209   0.821  15.283   2.371
24390W        W89210  20.582  27.554   0.725
24391W        W89211  18.533  41.262  11.238
24392W        W89212  21.671  20.675   0.863
24393W        W89213   4.859   1.231  14.420
24394W        W89214   7.598  17.207   0.014
24395W        W89215   5.698   5.693   2.580
24396W        W89216  22.387  37.333  12.020
24397W        W89217  22.460  36.958  12.697
24398W        W89218  16.690  22.753   4.127
24399W        W89219  10.325  26.985  12.933
24400W        W89220  23.739  30.464  14.868
24401W        W89221   7.283  22.691   1.307
24402W        W89222  20.611  17.597   4.428
24403W        W89223  27.339  21.316   3.205
24404W        W89224  23.453  34.027   0.726
24405W        W89225  20.646  39.234   3.858
24406W        W89226  34.499  29.675   4.559
24407W        W89227  21.173  21.903  12.986
24408W        W89228  16.288  10.300   4.665
24409W        W89229  21.246  11.741   3.644
24410W        W89230   7.823  24.726   3.099
24411W        W89231  37.443  27.972  14.819
24412W        W89232  19.082  20.104   0.484
24413W        W89233  19.209  15.653   1.662
24414W        W89234  31.195   7.177  14.345
24415W        W89235   7.807  31.407   1.360
24416W        W89236  11.428  10.295   1.291
24417W        W89237  40.085  24.639   0.407
24418W        W89238   2.103  42.844  11.624
24419W        W89239   1.665  28.701  14.311
24420W        W89240  36.344  35.915  14.015
24421W        W89241   3.880  39.475   3.103
24422W        W89242  22.008  12.326  13.592
24423W        W89243  40.558  27.688   1.279
24424W        W89244  16.804  41.792   4.571
24425W        W89245  28.932  15.330  14.028
24426W        W89246  10.209  26.393  10.150
24427W        W89247  27.105   8.233   0.716
24428W        W89248  38.307  36.541  14.101
24429W        W89249  21.690  27.162  14.309
24430W        W89250  31.643  16.029  10.329
24431W        W89251   4.246  31.269  14.211
24432W        W89252  26.491  26.117   0.244
24433W        W89253  42.487  25.635  13.392
24434W        W89254  10.266  32.937   4.515
24435W        W89255  28.998  36.978  14.486
24436W        W89256  19.395  27.671   1.325
24437W        W89257  43.192  15.788   1.834
24438W        W89258  32.590  19.343  13.081
24439W        W89259  36.981  33.075  14.759
24440W        W89260  32.801  40.010  10.714
24441W        W89261  26.248  26.430  12.479
24442W        W89262  30.126  31.851   1.749
24443W        W89263  35.106  26.211  13.404
24444W        W89264  20.658  38.470  10.597
24445W        W89265  44.240   5.261   1.954
24446W        W89266   0.678   6.675  11.117
24447W        W89267  33.618   7.784  11.962
24448W        W89268  43.325  36.458  14.332
24449W        W89269   2.988  25.596  12.806
24450W        W89270  19.038  16.090  14.460
24451W        W89271  44.348  11.835  14.400
24452W        W89272  25.519  14.051   3.321
24453W        W89273  25.955   1.440  12.032
24454W        W89274  25.007  13.689   1.769
24455W        W89275   1.663  38.218   2.724
24456W        W89276  36.622  25.625  14.967
24457W        W89277  37.521  25.185   3.387
24458W        W89278  11.796  28.600   2.561
24459W        W89279  43.378  26.477  12.578
24460W        W89280  11.405  42.630   2.820
24461W        W89281  33.823  41.853  11.008
24462W        W89282  36.845  39.483  14.361
24463W        W89283  24.953  10.148   2.600
24464W        W89284   0.318  26.530   2.311
24465W        W89285  25.174   4.766  14.848
24466W        W89286   7.444  12.741  10.604
24467W        W89287  16.596  36.417   2.821
24468W        W89288   8.527  43.001  12.452
24469W        W89289   2.842  26.605   4.519
24470W        W89290  31.134  31.982  11.270
24471W        W89291  13.272  37.784   4.255
24472W        W89292  22.876  30.760   1.885
24473W        W89293  10.387  21.833   4.281
24474W        W89294  10.439   9.386   3.409
24475W        W89295  13.137  34.490  11.491
24476W        W89296  34.109   7.262  12.372
24477W        W89297  12.965   3.140   0.371
24478W        W89298  20.776  34.471   0.522
24479W        W89299  32.083   7.426   0.483
24480W        W89300  33.424  23.059  11.061
24481W        W89301  10.219  20.227  14.020
24482W        W89302  13.291   6.452   4.740
24483W        W89303  10.349  44.042   0.286
24484W        W89304  27.759   8.969  10.989
24485W        W89305   1.030   6.978   3.174
24486W        W89306  30.691  19.554   4.104
24487W        W89307  38.918  35.480  14.429
24488W        W89308  35.010   2.499   0.718
24489W        W89309   5.283  12.887   4.413
24490W        W89310  41.052   9.644  11.707
24491W        W89311   2.202  25.972  10.746
24492W        W89312  44.552   0.883   3.173
24493W        W89313  21.114  30.995   3.772
24494W        W89314   5.471   6.412   4.607
24495W        W89315  34.134  27.514  10.282
24496W        W89316   8.691  28.416   1.329
24497W        W89317  11.285  20.000  12.492
24498W        W89318  29.793  24.589  11.221
24499W        W89319  25.625   0.860   0.846
24500W        W89320  18.228   5.312  12.595
24501W        W89321  29.759  18.151   3.819
24502W        W89322  36.911  30.942  11.809
24503W        W89323  38.345  33.404   4.541
24504W        W89324  17.372  39.108  14.014
24505W        W89325  28.602  29.425  14.260
24506W        W89326  10.562  31.990  14.368
24507W        W89327  39.036   2.169  13.893
24508W        W89328  15.292  44.960   2.794
24509W        W89329  19.040  42.349  12.021
24510W        W89330  10.637  14.447  12.557
24511W        W89331   0.905  39.855  10.917
24512W        W89332   5.234  29.587   0.383
24513W        W89333  36.935  22.495   3.392
24514W        W89334  37.365  15.772  10.649
24515W        W89335  20.658   3.791  11.534
24516W        W89336  14.719  34.954  10.745
24517W        W89337  43.131  18.378  11.496
24518W        W89338  20.564  20.732   1.298
24519W        W89339  18.531  38.757   4.229
24520W        W89340  17.466  39.505  12.651
24521W        W89341  18.314  29.137  10.252
24522W        W89342  19.290   9.734  11.918
24523W        W89343  22.504  22.026  12.143
24524W        W89344  33.509   3.778  12.698
24525W        W89345  11.409  31.666   3.293
24526W        W89346  12.361  33.691   3.430
24527W        W89347   6.596  25.898  13.479
24528W        W89348  32.562  36.411   0.765
24529W        W89349  34.927  16.835  11.192
24530W        W89350  22.277  39.019   3.164
24531W        W89351   3.388  20.505   0.821
24532W        W89352  33.623   5.151   3.041
24533W        W89353  20.115  19.581   0.691
24534W        W89354  28.391   6.436  10.829
24535W        W89355  15.156  12.589   1.297
24536W        W89356  15.118  15.361   3.812
24537W        W89357  44.061  16.664   4.285
24538W        W89358  15.890  18.922  14.006
24539W        W89359   0.357   2.652  11.700
24540W        W89360  17.545   4.345   0.195
24541W        W89361  37.122  29.873   1.646
24542W        W89362  15.776  44.825  14.006
24543W        W89363   1.942   0.638   2.326
24544W        W89364  26.714  37.001   1.409
24545W        W89365  42.871  43.403   3.697
24546W        W89366  31.677  29.638   1.136
24547W        W89367  27.694  32.635  12.039
24548W        W89368   0.726   7.944   3.519
24549W        W89369  14.520   2.168  13.781
24550W        W89370  35.115  43.934  13.890
24551W        W89371  44.852   0.307   4.454
24552W        W89372  12.410   1.981   1.375
24553W        W89373  23.142   3.236   0.744
24554W        W89374  32.633   8.738   2.694
24555W        W89375  14.552   7.649  11.176
24556W        W89376  10.867  18.563  12.958
24557W        W89377  29.418  32.086   1.292
24558W        W89378   8.297  17.209  11.083
24559W        W89379  17.183   2.922  11.913
24560W        W89380  10.104   7.437   0.760
24561W        W89381  42.401   2.691   2.664
24562W        W89382  39.460   4.427   3.372
24563W        W89383  35.886  36.562   3.389
24564W        W89384  15.976  20.505  12.024
24565W        W89385  35.881   8.763  11.600
24566W        W89386  36.406  25.657  10.271
24567W        W89387  44.209  22.626  14.121
24568W        W89388  12.054   1.792   4.742
24569W        W89389   0.632  22.186  10.693
24570W        W89390  31.497   0.191  12.909
24571W        W89391  41.993  27.528  14.293
24572W        W89392  44.677  37.815   2.681
24573W        W89393  24.014   0.330   2.280
24574W        W89394   9.261  19.448   2.741
24575W        W89395   0.416  34.807  11.950
24576W        W89396   4.501  14.890   1.796
24577W        W89397   6.934  31.587  14.895
24578W        W89398  41.316   1.988   0.728
24579W        W89399   8.814  33.480   0.256
24580W        W89400   5.389  42.408  12.512
24581W        W89401  44.914  34.402  11.539
24582W        W89402  31.010  37.925   2.339
24583W        W89403  19.685  28.460   4.413
24584W        W89404  32.751  29.408   0.312
24585W        W89405  21.428  43.420  14.639
24586W        W89406   9.067  15.720  11.064
24587W        W89407  18.134  21.081   1.480
24588W        W89408  40.702   6.391  12.527
24589W        W89409  42.041  33.447  10.893
24590W        W89410   4.756  11.660   0.360
24591W        W89411   1.274  43.782  11.066
24592W        W89412  39.023  10.604  13.874
24593W        W89413  41.907  42.478   0.948
24594W        W89414  31.573  39.614   4.359
24595W        W89415  37.336  35.466   4.632
24596W        W89416  31.046   7.634  14.142
24597W        W89417  36.940   9.268   3.781
24598W        W89418  26.007   0.487   4.204
24599W        W89419   3.823  41.383  14.414
24600W        W89420  39.405  12.783  13.538
24601W        W89421  21.103   1.888  10.740
24602W        W89422   8.846  35.595  14.441
24603W        W89423   9.452  29.565   0.837
24604W        W89424  43.725   9.459  10.674
24605W        W89425   4.013  40.381  11.726
24606W        W89426  27.136  29.270  11.147
24607W        W89427   5.433  29.830   0.851
24608W        W89428   6.388   2.805  12.316
24609W        W89429  24.282  39.378  10.048
24610W        W89430  11.114  19.152  14.966
24611W        W89431  28.087  40.334   3.374
24612W        W89432  35.025  22.585   2.406
24613W        W89433  18.953  19.646  13.308
24614W        W89434   9.192  35.282   2.442
24615W        W89435  37.111  34.348   1.259
24616W        W89436  29.170  44.537  11.037
24617W        W89437  29.068  42.876  14.272
24618W        W89438  15.140  10.692   3.857
24619W        W89439  21.022  10.423   3.123
24620W        W89440  35.858  34.109  12.888
24621W        W89441  16.811  23.192  11.814
24622W        W89442  23.717   0.667  13.160
24623W        W89443  24.648   6.916   2.768
24624W        W89444  27.147  24.108   0.293
24625W        W89445  42.798   7.253  12.506
24626W        W89446  43.437  38.562   1.711
24627W        W89447  36.675   7.808   2.752
24628W        W89448  23.436   3.452   4.972
24629W        W89449  27.761   5.982   0.283
24630W        W89450   3.322  43.252  12.936
24631W        W89451  33.533  32.117  10.094
24632W        W89452  44.368  22.686  11.474
24633W        W89453   2.425  34.804  11.155
24634W        W89454   8.600  20.337  14.943
24635W        W89455  30.426  36.411  11.962
24636W        W89456  33.811  39.627   5.157
24637W        W89457  17.549   3.913  11.159
24638W        W89458  22.616   4.031  14.863
24639W        W89459   6.722  39.936  14.488
24640W        W89460  12.692   6.895  14.388
24641W        W89461  20.494  15.280   3.259
24642W        W89462  41.148  32.706  13.824
24643W        W89463  14.601  18.324   2.257
24644W        W89464  41.172   4.269  14.286
24645W        W89465  36.888   8.784  11.699
24646W        W89466  27.200  23.916  14.384
24647W        W89467  12.381  31.176   1.295
24648W        W89468  40.038  39.411   0.934
24649W        W89469  39.547   8.806   2.693
24650W        W89470  34.012  16.834   1.277
24651W        W89471  36.016   5.490  11.504
24652W        W89472  33.503  14.470  14.015
24653W        W89473  33.558   9.134  11.709
24654W        W89474  40.428  32.114  13.766
24655W        W89475   5.700  17.543  11.852
24656W        W89476   9.790  19.070  12.898
24657W        W89477   2.075   3.903   2.741
24658W        W89478  18.728   4.793   0.446
24659W        W89479  41.402  20.704  12.635
24660W        W89480  21.690   5.400  12.529
24661W        W89481  38.752  35.062   0.815
24662W        W89482   5.823  34.407   4.327
24663W        W89483  11.513  31.651  12.096
24664W        W89484  24.442  33.456   2.241
24665W        W89485   6.643  44.643  13.639
24666W        W89486  10.153   3.860   0.287
24667W        W89487  33.674  33.489   1.277
24668W        W89488  10.257   8.680   0.448
24669W        W89489   1.796   1.804  10.644
24670W        W89490  18.644  31.412   1.914
24671W        W89491   2.698  16.022  12.995
24672W        W89492  22.156  44.621   1.455
24673W        W89493  28.661  38.496   1.368
24674W        W89494   7.624  18.793  13.810
24675W        W89495  24.637  40.810   1.544
24676W        W89496  17.729  12.010   4.685
24677W        W89497  34.622  10.370   4.561
24678W        W89498  18.122  15.340  12.012
24679W        W89499  17.842  31.644   4.158
24680W        W89500  35.945  21.017  10.474
24681W        W89501   9.381  29.538  14.638
24682W        W89502  44.244  10.833   4.109
24683W        W89503   9.751  30.863   2.651
24684W        W89504  14.747   4.488   4.691
24685W        W89505  43.016   3.205   3.165
24686W        W89506  38.301   7.157   0.475
24687W        W89507   5.235  12.826   2.214
24688W        W89508  23.365  34.657  10.299
24689W        W89509  28.935  30.648   3.317
24690W        W89510  37.768  24.568  10.807
24691W        W89511   1.775  20.666  11.208
24692W        W89512   7.482  38.815   3.789
24693W        W89513  38.266  18.238   3.270
24694W        W89514   7.881  33.434   4.781
24695W        W89515  37.391  31.198   1.901
24696W        W89516   2.983  21.053   3.742
24697W        W89517  33.311   4.304   3.338
24698W        W89518   0.394  20.099  13.002
24699W        W89519  38.650  16.142  11.527
24700W        W89520  36.976   9.908  13.360
24701W        W89521   5.195  11.708   2.913
24702W        W89522  12.556  20.501  11.555
24703W        W89523  34.539  40.255   0.827
24704W        W89524   7.622  35.506  13.992
24705W        W89525  40.998  39.575   4.194
24706W        W89526   1.439  34.438  14.371
24707W        W89527  11.680  30.662   0.029
24708W        W89528  10.916  39.514  13.851
24709W        W89529  17.288  33.479   0.248
24710W        W89530   8.098  39.620   2.822
24711W        W89531  31.511  24.757  13.031
24712W        W89532   3.922  23.992  12.489
24713W        W89533   1.720  42.328  12.955
24714W        W89534  36.819  41.297  12.756
24715W        W89535   8.700  11.664   4.178
24716W        W89536   1.344  20.495  12.976
24717W        W89537   1.847  27.679  13.579
24718W        W89538   2.204  26.999   3.808
24719W        W89539  15.288   3.946  12.351
24720W        W89540  30.605   2.063   1.915
24721W        W89541  13.140  31.660  11.267
24722W        W89542  11.848  19.336   0.829
24723W        W89543  27.404  34.393   2.312
24724W        W89544  26.615  17.648   4.040
24725W        W89545   3.635  42.435   1.258
24726W        W89546  43.514  41.585   2.876
24727W        W89547  11.702   0.900   1.437
24728W        W89548  12.724  15.550  12.975
24729W        W89549  39.966  16.835   4.642
24730W        W89550  31.414  12.054   4.592
24731W        W89551   3.521   8.399   4.547
24732W        W89552  38.300  16.269   4.025
24733W        W89553  31.026  11.519  14.807
24734W        W89554  25.676   4.646   2.769
24735W        W89555  25.462   6.574  14.857
24736W        W89556  18.064  33.068   1.429
24737W        W89557  15.244  32.431  13.085
24738W        W89558  10.115  33.526  11.678
24739W        W89559  32.444  21.637   2.720
24740W        W89560  38.494   0.321   3.212
24741W        W89561  28.395  33.139   0.858
24742W        W89562  31.465  29.624   0.210
24743W        W89563  38.681  40.923  12.525
24744W        W89564  19.035  33.215  14.955
24745W        W89565   6.337  21.936   0.159
24746W        W89566  44.526  35.797  11.968
24747W        W89567  16.713  10.864  13.960
24748W        W89568  34.655  35.019   0.725
24749W        W89569  31.209  34.548  14.718
24750W        W89570  40.219  14.740  12.596
24751W        W89571  34.504  38.358  12.449
24752W        W89572  44.270  23.100   0.346
24753W        W89573  20.535  32.449  11.600
24754W        W89574  37.801  14.156  11.154
24755W        W89575  27.376  19.112  11.387
24756W        W89576  13.059   7.874   1.794
24757W        W89577  11.900   7.283  12.896
24758W        W89578  28.905   6.329  10.727
24759W        W89579  39.941  13.288  10.436
24760W        W89580  22.085  22.674  10.107
24761W        W89581  27.380  26.987   1.287
24762W        W89582  14.698  10.213   4.179
24763W        W89583  18.918   2.211  10.420
24764W        W89584   2.213  42.092  14.890
24765W        W89585  41.860  25.756  13.866
24766W        W89586  12.252  38.441   4.225
24767W        W89587  32.332  11.618  13.432
24768W        W89588  10.887  30.096   2.644
24769W        W89589  40.955  12.652   2.341
24770W        W89590   9.445  18.519   3.654
24771W        W89591   8.830   6.876  13.155
24772W        W89592  37.211  39.876  12.612
24773W        W89593   8.413   7.027  13.452
24774W        W89594  25.989  20.257   1.459
24775W        W89595  27.709  36.370   5.362
24776W        W89596   4.920  36.818   4.402
24777W        W89597   7.780  12.073  13.015
24778W        W89598  24.165  31.921   3.088
24779W        W89599  33.449  25.769   5.202
24780W        W89600   6.785  36.518  12.557
24781W        W89601  19.805  21.014   4.118
24782W        W89602  21.940   3.835  14.007
24783W        W89603  22.430   0.080   3.982
24784W        W89604   2.061  22.669  10.861
24785W        W89605  13.125  39.031   1.910
24786W        W89606  13.555  33.224  13.925
24787W        W89607  18.840  41.803   4.667
24788W        W89608  27.115  20.859   4.442
24789W        W89609  37.362  28.234  14.340
24790W        W89610  38.696   3.136   2.428
24791W        W89611   1.387  31.263   3.138
24792W        W89612  20.714  34.603  11.214
24793W        W89613   4.808  12.043  12.128
24794W        W89614   7.419  31.437  14.794
24795W        W89615   1.523  29.168   3.230
24796W        W89616  14.795  27.299   3.929
24797W        W89617  41.062  15.732  10.263
24798W        W89618  38.483  10.620   2.238
24799W        W89619  23.069  34.865   5.082
24800W        W89620  41.403  18.235   0.395
24801W        W89621  44.943  27.720  12.420
24802W        W89622  12.759  34.181   3.522
24803W        W89623  22.625  15.190   3.854
24804W        W89624   4.144   4.253   3.242
24805W        W89625   9.790  34.126  10.779
24806W        W89626  44.662   3.862  11.566
24807W        W89627   0.372  26.227   4.900
24808W        W89628   4.388  27.600   2.281
24809W        W89629  25.098  20.681  12.785
24810W        W89630  37.736  34.649   2.768
24811W        W89631  41.489  42.484   2.758
24812W        W89632  20.438  19.286  14.405
24813W        W89633  30.433   4.673   0.874
24814W        W89634   6.735  24.068   3.203
24815W        W89635  39.686  34.547  13.071
24816W        W89636  15.002  34.216   0.165
24817W        W89637   3.178  24.154  11.977
24818W        W89638  26.033  35.789  12.662
24819W        W89639  14.807  37.839   3.273
24820W        W89640  38.338  14.417  12.468
24821W        W89641  22.024  20.910   0.426
24822W        W89642   3.925   3.671  11.269
24823W        W89643  44.173  25.416  12.617
24824W        W89644   5.153  37.408   2.765
24825W        W89645  12.310   1.508  12.170
24826W        W89646  38.796  11.240  12.650
24827W        W89647  35.508   2.991   3.796
24828W        W89648  30.592  39.393  10.456
24829W        W89649  28.759  10.066  11.569
24830W        W89650  37.087  36.610   0.395
24831W        W89651  40.010  28.352   4.767
24832W        W89652  35.602  29.938  11.098
24833W        W89653  14.744  13.335   4.445
24834W        W89654  36.147  26.070  11.874
24835W        W89655  11.318  35.425  12.551
24836W        W89656  20.788  11.825  13.147
24837W        W89657  43.347   8.046   2.358
24838W        W89658  28.337   1.910   1.717
24839W        W89659  15.553  14.046  11.943
24840W        W89660   0.303  34.847  13.573
24841W        W89661   6.526  17.549  14.387
24842W        W89662   2.886  23.709   3.652
24843W        W89663  25.024  44.529   0.438
24844W        W89664  21.548  27.883   3.687
24845W        W89665  33.513  40.560  13.951
24846W        W89666  34.554   7.253  10.766
24847W        W89667  16.032  11.431  10.360
24848W        W89668  27.626  17.092  11.489
24849W        W89669  36.605  28.130   2.196
24850W        W89670  37.067  18.478   2.405
24851W        W89671  38.593  38.379   2.644
24852W        W89672   9.291  28.962  10.404
24853W        W89673  21.095  35.459  12.350
24854W        W89674  35.496   4.211  12.168
24855W        W89675  19.456   9.790  12.820
24856W        W89676   2.836  23.565  11.920
24857W        W89677  40.080  14.660  10.807
24858W        W89678  10.344   7.028  12.971
24859W        W89679  10.253  30.869   0.528
24860W        W89680  38.981  37.085  12.550
24861W        W89681  10.729  36.763   2.913
24862W        W89682  44.208  22.617  10.985
24863W        W89683  33.354  36.821  11.500
24864W        W89684   7.360  35.681   0.802
24865W        W89685  43.934  21.428  11.121
24866W        W89686   1.243   3.271  12.665
24867W        W89687  38.442  10.985   0.292
24868W        W89688  22.235  44.999   0.229
24869W        W89689  30.062  25.369  10.718
24870W        W89690  23.068  28.621  14.889
24871W        W89691  19.496   3.492   3.712
24872W        W89692  41.869   9.260  14.326
24873W        W89693  27.178  43.236   3.337
24874W        W89694  34.326  33.130  14.408
24875W        W89695   1.567   5.428   2.303
24876W        W89696  32.144  27.076   2.377
24877W        W89697  39.831  20.058   3.607
24878W        W89698   1.684  10.556   0.427
24879W        W89699   9.465   8.899   3.751
24880W        W89700  22.281   6.328   3.660
24881W        W89701  17.479  37.749   0.739
24882W        W89702  35.888  32.433   4.592
24883W        W89703   6.867   4.890   3.288
24884W        W89704  44.923  20.355  11.014
24885W        W89705  23.728  26.332  11.173
24886W        W89706  29.542  35.158  10.107
24887W        W89707   7.186  35.441   0.341
24888W        W89708   9.815  26.445   2.197
24889W        W89709  29.230   3.283  10.843
24890W        W89710  30.315  27.185  10.671
24891W        W89711  11.115  29.099   1.141
24892W        W89712   9.369  27.976  11.222
24893W        W89713  12.917   4.735   2.470
24894W        W89714  16.273  30.096  14.505
24895W        W89715  26.570  14.363   1.767
24896W        W89716   0.542  36.904   4.073
24897W        W89717  23.685  40.829   4.066
24898W        W89718  10.002  23.738  12.533
24899W        W89719  22.311   8.297  12.207
24900W        W89720  24.201  42.907  14.244
24901W        W89721  27.721  23.296  12.122
24902W        W89722  30.062   0.685  11.023
24903W        W89723  23.216   9.767   3.226
24904W        W89724  30.183  21.556   3.308
24905W        W89725  11.301  31.541  11.620
24906W        W89726  43.771   6.834   4.677
24907W        W89727  43.065  34.336  12.466
24908W        W89728  26.931  15.773  14.202
24909W        W89729  17.544   9.751   3.296
24910W        W89730  35.463  36.385   1.185
24911W        W89731  18.723  16.522  13.449
24912W        W89732   8.177  16.624  13.357
24913W        W89733  37.160  11.203  14.981
24914W        W89734  33.427  11.258   4.655
24915W        W89735  32.654  17.035  13.455
24916W        W89736   5.394  41.793  13.337
24917W        W89737  28.541  18.507   0.007
24918W        W89738  22.057   2.237  13.850
24919W        W89739   0.569   6.330  12.138
24920W        W89740  25.191  38.904   4.199
24921W        W89741  42.113  21.789  12.443
24922W        W89742   1.032   9.302  12.571
24923W        W89743  30.610  26.941   0.265
24924W        W89744   6.323  30.025  10.912
24925W        W89745  20.169  21.360  13.048
24926W        W89746  10.398  39.590  13.828
24927W        W89747  22.695  11.307  11.478
24928W        W89748   8.125  12.468   2.189
24929W        W89749  21.657  42.615   3.266
24930W        W89750  28.556  25.535   1.183
24931W        W89751  12.193   7.776  11.585
24932W        W89752  22.225  26.959  11.981
24933W        W89753  32.347  14.157  14.972
24934W        W89754   6.238  10.765   0.574
24935W        W89755  17.570  37.266   0.920
24936W        W89756  25.053  15.508  10.849
24937W        W89757  12.124  42.544  14.294
24938W        W89758  21.102   5.316   2.697
24939W        W89759  34.662   8.575  11.512
24940W        W89760   6.880  11.793   0.883
24941W        W89761  37.819   2.415   2.051
24942W        W89762   3.452  13.662   2.848
24943W        W89763  38.138  26.003   4.566
24944W        W89764  13.806  39.069  14.847
24945W        W89765  25.388  31.360   0.475
24946W        W89766   6.115   7.335  12.606
24947W        W89767   2.043  44.367  12.477
24948W        W89768  14.591  34.078   1.501
24949W        W89769  21.495  11.378  12.919
24950W        W89770  16.654  20.199  12.009
24951W        W89771  16.334  14.209   1.197
24952W        W89772   8.172   1.774   0.971
24953W        W89773  13.291  12.029  11.127
24954W        W89774  18.427  10.224   1.270
24955W        W89775  21.117  34.927  12.063
24956W        W89776  24.987   3.483  12.002
24957W        W89777  40.326  35.501  14.618
24958W        W89778  26.578   1.617  13.383
24959W        W89779  36.415  13.748   3.614
24960W        W89780  24.554  14.151   4.207
24961W        W89781  16.998   0.468  12.460
24962W        W89782   8.055  25.759   3.609
24963W        W89783  24.507  38.581   3.042
24964W        W89784   1.750  13.034  12.483
24965W        W89785  44.328  14.154   3.186
24966W        W89786  31.379  14.433  14.774
24967W        W89787  27.989  38.065   2.137
24968W        W89788   7.447  16.515   1.124
24969W        W89789  20.676  17.289   2.160
24970W        W89790  39.213  28.143   3.753
24971W        W89791  28.005   4.945  12.700
24972W        W89792  19.076  13.017   3.950
24973W        W89793  44.567  17.519  13.879
24974W        W89794  31.350  37.836  10.470
24975W        W89795  19.948   3.386  14.380
24976W        W89796   8.355  43.409   3.584
24977W        W89797  38.753  30.430   3.155
24978W        W89798  11.123   9.139   0.969
24979W        W89799   9.846  31.117  10.477
24980W        W89800  36.378  34.884   3.680
24981W        W89801  44.394  18.236  14.588
24982W        W89802  25.561  14.672   1.596
24983W        W89803  11.852  23.266  10.323
24984W        W89804  15.116   6.181  11.208
24985W        W89805  19.234   7.818  12.925
24986W        W89806  19.516  39.509   1.002
24987W        W89807  29.120   5.955  14.958
24988W        W89808  15.745  28.228   3.609
24989W        W89809  26.258  29.824   1.214
24990W        W89810  23.946  38.362   4.807
24991W        W89811  13.783  20.428  10.987
24992W        W89812  20.392   4.313  13.316
24993W        W89813   8.256  44.990   4.877
24994W        W89814  22.342  30.587  12.365
24995W        W89815  19.695   4.875  11.860
24996W        W89816  11.335  44.899   0.254
24997W        W89817  26.727  20.959  14.345
24998W        W89818   2.952   2.499   2.231
24999W        W89819   7.681  21.235  14.808
25000W        W89820  14.625  11.166   2.680
25001W        W89821  16.795   1.305  11.614
25002W        W89822  38.538  24.714   0.273
25003W        W89823   5.672   1.854   2.379
25004W        W89824  24.730   2.578  11.964
25005W        W89825   4.991  17.577  13.898
25006W        W89826  20.517  12.182  11.581
25007W        W89827   1.999   9.711  12.915
25008W        W89828  34.525  40.383  14.896
25009W        W89829   8.476  21.429   1.845
25010W        W89830   2.320   4.373  12.080
25011W        W89831  33.430   6.175  13.356
25012W        W89832  33.233  28.684  14.707
25013W        W89833  38.007  37.766  11.044
25014W        W89834  25.477   3.264  14.949
25015W        W89835  24.070  13.103   3.095
25016W        W89836  18.697  44.482   2.599
25017W        W89837   1.326  39.919  12.201
25018W        W89838  26.087  12.617  13.334
25019W        W89839   4.141   7.321   0.764
25020W        W89840  44.412  28.881  11.983
25021W        W89841  16.381  24.276   1.401
25022W        W89842  37.568   5.419   4.162
25023W        W89843   3.242  33.151   1.793
25024W        W89844  14.868  15.290  12.237
25025W        W89845   5.874  10.581   1.793
25026W        W89846  36.393  13.481  11.970
25027W        W89847  29.395   1.784   4.587
25028W        W89848   4.184  44.632  14.819
25029W        W89849   8.314  38.789   4.166
25030W        W89850  41.376  18.632   2.477
25031W        W89851  33.406  12.330  12.087
25032W        W89852  42.927  20.487  10.274
25033W        W89853   3.963  39.467  11.868
25034W        W89854  21.197  40.010  11.122
25035W        W89855  15.833  27.709  11.607
25036W        W89856   9.681  26.560  12.136
25037W        W89857   0.526  29.247   3.184
25038W        W89858   5.963  26.946  11.560
25039W        W89859   6.392  12.834   1.943
25040W        W89860  10.604  26.212  11.903
25041W        W89861  40.817   7.441  10.894
25042W        W89862  28.388   2.246  12.552
25043W        W89863  40.261  25.196  13.354
25044W        W89864  33.976  44.146   1.737
25045W        W89865   8.380   5.310  14.837
25046W        W89866   7.334  37.908  10.696
25047W        W89867  42.859  21.026   2.667
25048W        W89868  26.735  42.308   2.983
25049W        W89869  11.183   0.046  11.706
25050W        W89870  40.842   0.933   2.817
25051W        W89871  32.654  21.532   4.187
25052W        W89872  19.188  27.945  13.381
25053W        W89873  31.120  32.061  10.743
25054W        W89874   1.674   5.831   2.765
25055W        W89875   3.634  19.616   2.233
25056W        W89876  18.449  34.479   4.693
25057W        W89877  10.854  26.062   3.124
25058W        W89878  30.892   0.154   1.760
25059W        W89879  39.008  28.009   0.335
25060W        W89880  44.688   1.703  14.556
25061W        W89881  24.617  13.675   4.949
25062W        W89882  30.754  24.527   5.390
25063W        W89883  36.515  42.078   3.740
25064W        W89884  24.640  11.459   4.983
25065W        W89885   3.430  36.795   0.247
25066W        W89886   3.838  19.460   5.073
25067W        W89887  34.264   5.464   2.173
25068W        W89888  19.602  18.240  12.426
25069W        W89889  42.391  10.785  13.329
25070W        W89890  14.023   8.598   1.284
25071W        W89891  36.007  21.593  12.445
25072W        W89892  10.751  30.601   3.615
25073W        W89893  29.057  38.536   3.630
25074W        W89894   2.813  44.219  10.277
25075W        W89895  23.719  13.544  10.769
25076W        W89896   2.437   9.976  14.412
25077W        W89897   5.417   7.643   2.989
25078W        W89898  16.293  17.032  13.872
25079W        W89899  30.263  11.842  12.845
25080W        W89900  22.786   9.209   3.617
25081W        W89901  13.078  40.819   3.656
25082W        W89902   6.022  26.723   2.200
25083W        W89903  24.980  20.269   2.455
25084W        W89904  40.812  44.771  12.475
25085W        W89905  38.956  35.667  14.940
25086W        W89906   2.380  33.368  12.019
25087W        W89907  42.265  44.514   1.619
25088W        W89908  12.244  44.941   0.296
25089W        W89909  19.210  11.823  12.136
25090W        W89910   5.809  37.077  14.484
25091W        W89911  41.629  16.762  10.697
25092W        W89912   0.332  21.997   0.748
25093W        W89913  44.896  31.082  12.851
25094W        W89914  34.032   7.237  10.698
25095W        W89915  35.955  37.802  12.208
25096W        W89916   0.764  44.348   4.442
25097W        W89917   9.322  14.048  11.398
25098W        W89918  37.013  42.957  11.031
25099W        W89919   2.412  26.762   2.559
25100W        W89920  43.838  31.558   4.429
25101W        W89921  38.925   7.759  14.489
25102W        W89922  38.327  13.338   1.759
25103W        W89923  31.025   9.967  14.832
25104W        W89924  26.500   0.422   1.292
25105W        W89925  12.741  22.491  13.007
25106W        W89926  26.502  42.076  10.432
25107W        W89927  25.541  35.480  12.503
25108W        W89928  30.179  33.633  10.271
25109W        W89929  31.659  13.209   1.444
25110W        W89930   7.022  30.326   1.763
25111W        W89931  30.044  35.096  11.872
25112W        W89932  25.111  34.837   0.378
25113W        W89933   8.471  40.365  10.786
25114W        W89934   6.124  18.236   1.882
25115W        W89935  44.916  42.691  11.194
25116W        W89936  21.648  20.992  11.834
25117W        W89937  14.290  44.861   4.908
25118W        W89938  21.139  43.412  12.495
25119W        W89939  20.724  28.553  11.699
25120W        W89940  36.547   4.721   4.528
25121W        W89941  31.251  34.176  10.644
25122W        W89942  43.561  23.412  11.808
25123W        W89943  33.227  15.708  12.583
25124W        W89944   7.195   0.843   2.357
25125W        W89945  30.865  13.851   2.801
25126W        W89946  30.943  40.034   1.279
25127W        W89947   0.280  33.533   2.887
25128W        W89948  35.524   0.727  10.735
25129W        W89949  28.488   6.685   0.846
25130W        W89950  14.223  44.843   4.405
25131W        W89951   9.622  21.112  12.491
25132W        W89952  39.554  37.492  13.589
25133W        W89953  25.694   0.795  14.765
25134W        W89954  22.445  34.065   0.860
25135W        W89955  37.462  10.629   2.141
25136W        W89956  17.723  16.889  10.638
25137W        W89957  29.284  43.619   3.339
25138W        W89958  33.599  38.587  10.919
25139W        W89959  21.065  18.015   3.218
25140W        W89960  27.963  24.060  13.208
25141W        W89961  38.163  25.285  11.084
25142W        W89962   2.930   5.379   1.915
25143W        W89963  35.782  44.442   1.831
25144W        W89964  13.722  16.205   0.918
25145W        W89965  37.366   6.298   4.612
25146W        W89966   9.265  12.625   5.049
25147W        W89967  36.057   1.946   2.723
25148W        W89968  12.238  31.907  13.343
25149W        W89969  18.142  23.346  12.118
25150W        W89970  43.762   7.603  14.244
25151W        W89971   1.006  16.300   4.111
25152W        W89972   8.343  35.017  11.970
25153W        W89973  40.301  17.576  11.555
25154W        W89974  30.500   3.757  10.534
25155W        W89975  33.362  17.333   2.059
25156W        W89976  28.969  11.931   2.260
25157W        W89977   0.468  32.963  12.349
25158W        W89978  16.856  16.815   2.877
25159W        W89979  28.467   2.924   1.918
25160W        W89980  13.289  23.511   4.321
25161W        W89981  20.328  17.815   2.699
25162W        W89982  30.132  17.564  10.719
25163W        W89983  36.506   5.409   1.799
25164W        W89984   0.693  26.054  14.900
25165W        W89985  32.877  10.089   4.131
25166W        W89986  33.652  10.948   1.304
25167W        W89987  26.560  13.822   1.754
25168W        W89988  40.567  30.491  10.808
25169W        W89989   1.216   2.013  14.311
25170W        W89990  19.706  20.236  12.380
25171W        W89991  40.820  43.338  12.897
25172W        W89992   8.884  21.893  14.430
25173W        W89993  30.500  32.905  10.695
25174W        W89994  42.085  28.713   4.136
25175W        W89995  37.587   2.251  12.174
25176W        W89996  37.314  42.381  12.846
25177W        W89997  29.643  42.828  13.490
25178W        W89998   3.475   0.741   0.289
25179W        W89999  40.002  19.410  11.138
25180W        W90000   0.581  24.420  12.401
25181W        W90001  24.700   9.719   2.378
25182W        W90002   8.323  19.786   0.449
25183W        W90003  17.857  35.027   0.464
25184W        W90004  29.337  39.278  11.682
25185W        W90005  19.022  15.562  10.777
25186W        W90006  35.852  35.626  12.836
25187W        W90007   1.287   0.606  11.565
25188W        W90008  40.291  32.164   3.615
25189W        W90009   3.712  38.459   4.571
25190W        W90010   1.956   6.218   4.090
25191W        W90011  23.177  16.216   0.389
25192W        W90012   7.134  27.996   2.844
25193W        W90013  24.480   5.445  13.035
25194W        W90014  40.379  34.504  10.855
25195W        W90015  23.086   7.842   1.953
25196W        W90016   9.396   9.693   0.237
25197W        W90017  26.769  35.280  12.399
25198W        W90018   3.932  36.871   0.057
25199W        W90019  12.386  38.455  14.554
25200W        W90020  22.066  23.738   1.466
25201W        W90021  28.075  37.031   1.874
25202W        W90022  43.506  38.757  10.706
25203W        W90023   6.826  30.113  14.959
25204W        W90024  44.245  12.883  13.919
25205W        W90025  22.330  28.211   0.456
25206W        W90026  29.047  14.631  14.237
25207W        W90027  27.056  13.073  10.589
25208W        W90028  27.237  15.074  13.459
25209W        W90029   5.726  18.506   0.928
25210W        W90030  18.276  31.661  11.935
25211W        W90031   0.731  20.092  12.514
25212W        W90032  27.980  18.211   3.297
25213W        W90033  22.017  38.418  10.432
25214W        W90034  35.040  27.000   1.761
25215W        W90035   4.303  10.623  11.148
25216W        W90036   2.757   1.116  11.586
25217W        W90037  36.315   0.754  11.923
25218W        W90038  22.365  37.122  13.605
25219W        W90039  39.573   3.366  14.858
25220W        W90040   9.808  15.976  13.058
25221W        W90041  41.905  15.637   3.651
25222W        W90042  39.563  14.653   2.162
25223W        W90043  14.224  31.925   1.728
25224W        W90044  44.749  33.577   2.797
25225W        W90045  19.679   8.372  12.464
25226W        W90046  27.252  29.494  14.862
25227W        W90047  31.332  20.300   5.493
25228W        W90048  17.055  35.149  10.690
25229W        W90049  43.223   6.949  13.006
25230W        W90050   3.783  31.443  13.230
25231W        W90051  36.244   0.529   2.950
25232W        W90052  25.737  38.906   4.199
25233W        W90053  43.958   2.876  12.582
25234W        W90054  20.095  29.644   1.183
25235W        W90055  18.207  33.574   1.417
25236W        W90056  36.843  40.797  12.492
25237W        W90057  10.050  21.059  13.432
25238W        W90058  29.205   7.458   2.861
25239W        W90059  17.737   1.356  12.379
25240W        W90060  18.084  32.431  14.391
25241W        W90061  11.258  13.229   2.387
25242W        W90062   6.506  25.893   5.163
25243W        W90063  39.775  23.169  13.940
25244W        W90064  42.916  11.139   1.836
25245W        W90065  17.675  14.888  12.748
25246W        W90066  13.314  41.762  11.473
25247W        W90067  24.743  35.084   2.479
25248W        W90068  11.822   2.020  13.971
25249W        W90069  38.955  13.114   2.839
25250W        W90070   1.386  38.743  14.777
25251W        W90071  29.027  24.099   2.697
25252W        W90072  44.064  17.668   2.899
25253W        W90073  25.426  26.567   9.705
25254W        W90074  26.094  31.640  13.502
25255W        W90075   6.681  40.283  12.033
25256W        W90076  14.762   3.812  10.554
25257W        W90077  10.321  18.567  14.847
25258W        W90078  14.602  34.614   3.851
25259W        W90079   6.908  22.966  12.492
25260W        W90080   1.482  20.936   2.807
25261W        W90081  35.667  32.097  13.249
25262W        W90082  30.451  35.575   4.424
25263W        W90083  41.481   7.329   4.460
25264W        W90084  41.767  17.748   4.523
25265W        W90085   8.406  39.016   3.729
25266W        W90086  30.229  26.510   2.594
25267W        W90087  21.130  28.610   4.604
25268W        W90088  20.801  36.813   4.117
25269W        W90089   2.225  39.521   2.138
25270W        W90090  12.320  17.817  12.925
25271W        W90091   9.813   1.140   0.311
25272W        W90092  38.051  43.005  10.885
25273W        W90093   2.489  21.184   3.761
25274W        W90094  43.614   7.823  13.315
25275W        W90095  10.970   4.051  11.700
25276W        W90096  10.126  11.114   0.523
25277W        W90097   5.670  23.009  12.034
25278W        W90098  12.693  31.528   0.735
25279W        W90099  24.181   6.715   2.751
25280W        W90100   9.381  20.261  14.264
25281W        W90101  40.494  10.252   4.631
25282W        W90102  11.054   7.001   3.657
25283W        W90103  16.355  13.159  13.719
25284W        W90104  41.492  20.506   0.768
25285W        W90105   2.299  16.634   0.500
25286W        W90106   8.879   4.955   2.952
25287W        W90107   3.888  17.534   4.493
25288W        W90108  14.725  19.576  10.496
25289W        W90109  27.497  15.223   0.761
25290W        W90110  28.381  21.354   0.297
25291W        W90111  14.809  30.545   1.246
25292W        W90112  17.722  18.725  13.040
25293W        W90113   7.746  13.018   0.498
25294W        W90114   4.810  32.270   0.423
25295W        W90115  43.992   0.629   2.415
25296W        W90116  36.254   3.786   1.330
25297W        W90117  34.981  33.749  11.176
25298W        W90118   7.000   4.775   0.761
25299W        W90119  36.435  43.820  11.651
25300W        W90120   6.262   3.974  12.071
25301W        W90121  14.233  24.195   1.333
25302W        W90122  14.097  10.111  12.493
25303W        W90123  26.990  29.852   3.653
25304W        W90124  11.257   3.183   3.231
25305W        W90125  40.304  25.010   9.994
25306W        W90126  30.247   2.305   0.415
25307W        W90127  17.705  33.170   4.584
25308W        W90128  31.206  33.106   0.124
25309W        W90129  38.651  24.181  11.503
25310W        W90130  15.316   2.062   1.392
25311W        W90131  32.902   4.241  12.525
25312W        W90132  32.469  37.027  11.466
25313W        W90133  27.939  29.717   2.353
25314W        W90134  19.715  11.908   1.766
25315W        W90135  40.154  44.540  11.258
25316W        W90136  16.626  42.701   0.772
25317W        W90137  10.431  18.696   2.030
25318W        W90138   5.660  41.789   2.852
25319W        W90139  14.229  19.460   4.266
25320W        W90140   8.770  39.641   3.736
25321W        W90141   6.668  27.308   9.801
25322W        W90142  24.586   6.372  14.254
25323W        W90143  27.774  25.758  12.437
25324W        W90144  43.852  43.326   1.316
25325W        W90145  37.841   8.783  14.568
25326W        W90146  44.732   7.857   2.414
25327W        W90147  38.036  23.580   1.762
25328W        W90148  16.254  23.142   2.111
25329W        W90149  43.254  12.603  13.852
25330W        W90150  25.759  41.288  12.655
25331W        W90151   5.252  19.955   0.262
25332W        W90152  22.974  31.761   5.403
25333W        W90153  22.559  41.237  13.149
25334W        W90154  27.098  32.653   1.890
25335W        W90155  12.230  36.465   1.123
25336W        W90156  32.069  15.561   5.361
25337W        W90157  18.869  16.125   3.922
25338W        W90158   5.376  14.649  14.274
25339W        W90159  43.021  43.954   3.736
25340W        W90160  38.934   7.644   4.567
25341W        W90161  40.254   8.026  11.752
25342W        W90162  25.687  40.600   2.160
25343W        W90163   4.006  14.310  13.093
25344W        W90164  22.882  23.817   3.695
25345W        W90165  32.699  29.584   4.180
25346W        W90166   6.456   6.823  12.977
25347W        W90167   4.745  25.235   1.749
25348W        W90168  40.946  19.002   0.305
25349W        W90169  10.143  14.762  10.695
25350W        W90170  30.997  21.246   3.331
25351W        W90171  28.431  43.092   1.775
25352W        W90172  12.786  25.580   3.344
25353W        W90173  22.210  44.710   3.094
25354W        W90174   5.491   3.108  12.170
25355W        W90175  11.893  42.065  14.601
25356W        W90176  38.338  29.545   2.119
25357W        W90177   0.977  34.292   0.417
25358W        W90178  23.137  16.896   0.977
25359W        W90179  20.616   8.092   1.358
25360W        W90180  11.211  32.929   2.622
25361W        W90181  17.478   8.057   1.508
25362W        W90182   3.399  30.557  13.470
25363W        W90183  16.759  14.307  13.021
25364W        W90184  22.068  19.033  13.752
25365W        W90185  37.504  26.407  14.792
25366W        W90186  30.092  33.435   4.385
25367W        W90187  44.884  17.974   1.362
25368W        W90188  40.567   8.615  12.529
25369W        W90189  32.324   8.107   1.295
25370W        W90190   7.470   1.464   4.152
25371W        W90191  20.924  18.263   0.962
25372W        W90192  30.682  10.937  12.043
25373W        W90193  13.136   4.878   2.923
25374W        W90194  19.850  41.426   3.267
25375W        W90195  28.685  13.753  13.066
25376W        W90196  27.657  35.530   1.790
25377W        W90197  19.291   1.114  13.914
25378W        W90198  17.344   0.455  10.749
25379W        W90199   2.514   0.806  13.841
25380W        W90200  10.770   2.857   1.958
25381W        W90201  32.663   9.996   2.368
25382W        W90202   7.656  34.170   2.833
25383W        W90203  37.284  15.932  11.129
25384W        W90204  30.080  34.684   9.670
25385W        W90205  21.240  13.771  10.544
25386W        W90206  41.783  32.107  11.120
25387W        W90207  17.856  25.432  11.585
25388W        W90208  31.447  29.498  11.531
25389W        W90209  41.123  24.465  11.099
25390W        W90210   3.049   2.354   3.600
25391W        W90211   4.192  27.508  12.077
25392W        W90212  27.810  34.357  13.971
25393W        W90213  24.001  10.859   4.557
25394W        W90214   3.882  21.065   2.624
25395W        W90215  39.177   4.961  14.902
25396W        W90216   4.258  22.066  14.361
25397W        W90217  13.837  14.733  14.265
25398W        W90218  24.500   2.738   0.385
25399W        W90219   5.437  22.278   0.849
25400W        W90220  32.339  10.721   1.624
25401W        W90221  35.433  18.584   0.504
25402W        W90222   4.238  11.772   3.783
25403W        W90223  25.556  33.764   1.977
25404W        W90224   4.946  13.855   1.198
25405W        W90225   8.870  40.046  10.606
25406W        W90226  42.906   0.977   3.753
25407W        W90227  24.093  15.655  11.236
25408W        W90228  23.827  29.292   4.108
25409W        W90229  33.276   5.277   2.174
25410W        W90230   7.255  40.228   0.304
25411W        W90231  24.144  30.059   2.242
25412W        W90232  43.297  40.798  14.590
25413W        W90233  41.862  37.149  12.924
25414W        W90234  36.766  43.420  14.196
25415W        W90235   9.764   6.478  11.410
25416W        W90236  16.833  44.890  11.331
25417W        W90237  37.116  21.645  13.817
25418W        W90238  30.055   5.926  13.543
25419W        W90239   6.628  26.916   0.407
25420W        W90240  26.192  14.325  10.950
25421W        W90241  18.825  23.632  11.044
25422W        W90242  37.331   5.611   1.945
25423W        W90243  30.521  23.674  14.516
25424W        W90244   0.393   3.474   2.611
25425W        W90245  24.085   9.423  11.241
25426W        W90246  43.849   5.018   1.698
25427W        W90247   9.201  15.067  13.790
25428W        W90248  11.626   1.297   3.423
25429W        W90249   7.657  43.035   3.325
25430W        W90250   9.255   2.462   0.526
25431W        W90251  26.228  18.638  11.523
25432W        W90252  14.073  20.059   4.127
25433W        W90253  14.118  25.395   3.613
25434W        W90254  19.044  40.044   4.254
25435W        W90255  25.069  26.606  12.029
25436W        W90256  32.374  41.996  12.468
25437W        W90257  29.031  16.620   1.340
25438W        W90258  27.245  17.783   0.865
25439W        W90259  33.956  40.767  11.626
25440W        W90260   2.975   2.180  11.480
25441W        W90261  10.822   6.083  11.449
25442W        W90262   7.022  14.324   4.768
25443W        W90263  34.731  41.004   4.164
25444W        W90264   4.750  40.998   4.039
25445W        W90265  13.177  43.500   2.645
25446W        W90266   2.407   0.912   1.267
25447W        W90267  41.775  39.707   3.610
25448W        W90268  13.810  17.072  10.928
25449W        W90269  28.666  26.035   4.611
25450W        W90270   4.949  28.965   1.154
25451W        W90271   6.294  37.511   3.923
25452W        W90272  35.880  44.681   2.696
25453W        W90273  39.501  12.276  13.611
25454W        W90274  26.204  27.672  12.889
25455W        W90275   6.169  27.039   0.128
25456W        W90276  18.483  42.705   2.223
25457W        W90277   5.842  24.107   3.092
25458W        W90278  35.450  15.673   0.003
25459W        W90279  14.619   3.380   0.987
25460W        W90280  20.156   8.142  11.045
25461W        W90281  29.497  22.712  12.963
25462W        W90282  44.281   6.814   4.643
25463W        W90283  25.056  16.150   2.234
25464W        W90284  38.558  12.869   1.741
25465W        W90285  26.871   9.731  10.480
25466W        W90286   3.346   9.130   0.947
25467W        W90287  29.421  42.110  12.984
25468W        W90288  35.616  29.254   2.254
25469W        W90289  35.488   5.224  13.999
25470W        W90290  28.033   5.800  11.563
25471W        W90291   6.668  44.584   0.277
25472W        W90292   9.019  24.326   3.430
25473W        W90293  21.091  37.418  11.188
25474W        W90294   1.905   7.792  14.047
25475W        W90295  32.049  35.440  12.337
25476W        W90296  38.250  12.661  14.156
25477W        W90297  33.858  25.220  12.990
25478W        W90298  13.324   0.944   4.091
25479W        W90299   8.016  38.534   2.896
25480W        W90300  25.509  22.169  12.854
25481W        W90301  34.874  35.005   1.265
25482W        W90302  28.659  41.563  11.516
25483W        W90303   9.734   7.250   3.199
25484W        W90304   9.309   4.425  13.866
25485W        W90305  36.684  25.707   5.463
25486W        W90306   1.804  10.835  11.773
25487W        W90307  21.558  13.788   4.517
25488W        W90308  13.368  35.346   0.338
25489W        W90309  37.763  24.993   3.775
25490W        W90310  13.482  36.929  11.598
25491W        W90311  18.710  31.746   1.483
25492W        W90312   0.172   3.324  13.431
25493W        W90313  33.131  25.399  11.516
25494W        W90314  19.440  23.515  13.006
25495W        W90315  29.067  27.574  14.359
25496W        W90316  37.033   4.344   3.302
25497W        W90317  18.177  34.866  14.884
25498W        W90318  27.429  30.140   1.366
25499W        W90319  19.598  34.421  12.937
25500W        W90320   1.433  19.698   4.507
25501W        W90321  38.463  26.954  13.436
25502W        W90322   2.630  27.498  10.660
25503W        W90323  17.682  11.924  13.997
25504W        W90324  38.496  34.269  13.596
25505W        W90325  14.192   4.141   1.199
25506W        W90326   8.335  32.005   1.124
25507W        W90327   8.327  30.221  10.598
25508W        W90328  38.750  17.101  14.210
25509W        W90329  26.914   9.928  12.935
25510W        W90330  17.678   4.449   4.519
25511W        W90331  32.344  26.400  11.885
25512W        W90332  24.013   9.004  11.951
25513W        W90333   7.354  19.265  14.309
25514W        W90334  18.280  38.252   2.637
25515W        W90335  39.828  15.443  14.313
25516W        W90336   3.218  23.382  14.764
25517W        W90337   0.930  15.165  11.048
25518W        W90338   8.316  23.497   3.823
25519W        W90339  31.317   5.732  13.117
25520W        W90340  37.505   9.357   0.941
25521W        W90341  33.757   1.289   2.262
25522W        W90342  13.885  19.080   4.181
25523W        W90343  24.434  14.083  12.362
25524W        W90344  11.042  29.670  12.854
25525W        W90345  23.242  13.175   2.474
25526W        W90346  22.933  22.334  12.710
25527W        W90347  31.054  30.644   0.955
25528W        W90348  34.074  27.675   3.730
25529W        W90349  35.938  31.936   3.184
25530W        W90350  42.384  38.444  13.885
25531W        W90351  26.410  24.096  10.233
25532W        W90352  22.095  38.946   4.254
25533W        W90353  15.617  37.044   1.873
25534W        W90354   0.512  26.180   3.064
25535W        W90355  40.057   2.872   3.191
25536W        W90356   2.274   2.636   3.926
25537W        W90357  24.255  14.615  11.169
25538W        W90358  31.643  30.464   2.419
25539W        W90359  10.722   3.931  13.812
25540W        W90360  17.692  26.543   4.704
25541W        W90361  27.413  39.366  12.492
25542W        W90362  41.409  14.151   4.938
25543W        W90363  41.578   0.576  13.050
25544W        W90364  22.121  21.368   0.645
25545W        W90365  13.325  36.994  14.743
25546W        W90366  27.816  23.800   1.289
25547W        W90367  15.488   1.584  11.658
25548W        W90368  38.029  20.552   2.716
25549W        W90369  27.394   3.509  11.222
25550W        W90370  18.776  27.570   3.182
25551W        W90371  38.301  32.253   2.376
25552W        W90372  18.338   1.901  14.042
25553W        W90373  44.700  19.564  13.311
25554W        W90374  28.582  29.224  14.820
25555W        W90375   3.042   9.691  12.170
25556W        W90376  27.115  14.194  14.705
25557W        W90377  23.032  37.541   1.372
25558W        W90378   2.262   4.225  12.980
25559W        W90379  29.299  13.113  14.200
25560W        W90380  35.052   7.485   0.192
25561W        W90381  24.246   8.276   0.332
25562W        W90382  15.793   5.393  14.598
25563W        W90383  29.275  31.410  11.415
25564W        W90384  16.677  15.144  12.897
25565W        W90385  40.879   3.474  12.469
25566W        W90386  15.625   7.240   3.811
25567W        W90387  23.583  25.656   0.488
25568W        W90388  37.909  20.164   3.285
25569W        W90389  20.982  14.278  13.058
25570W        W90390   1.725  25.652   2.016
25571W        W90391  33.430  15.727   0.309
25572W        W90392  19.259  16.722   1.778
25573W        W90393   2.557  33.201  11.573
25574W        W90394  36.889  33.134  11.098
25575W        W90395  41.137   3.414  11.973
25576W        W90396  28.103  16.585  10.503
25577W        W90397  33.943  17.890   0.295
25578W        W90398  38.062  13.754   0.942
25579W        W90399   2.841   5.721   3.587
25580W        W90400   6.659  21.691  12.006
25581W        W90401  10.052  42.032   1.889
25582W        W90402  39.335  11.470   4.197
25583W        W90403  32.669   4.614  14.413
25584W        W90404  11.546   8.466  13.302
25585W        W90405   3.705  24.032   4.603
25586W        W90406   9.002   3.412  14.576
25587W        W90407  40.589   2.917   4.822
25588W        W90408  17.266  27.401   4.109
25589W        W90409  13.937  15.191  13.590
25590W        W90410  28.567  20.768   2.181
25591W        W90411   0.747  16.685  14.801
25592W        W90412  33.676   6.744  11.736
25593W        W90413  36.031  12.105  13.779
25594W        W90414  43.812  18.870  13.962
25595W        W90415  19.372   1.856   2.333
25596W        W90416  11.812  30.084   1.860
25597W        W90417  28.042  19.320  11.191
25598W        W90418   2.958  21.203  13.579
25599W        W90419  43.416  19.759   2.394
25600W        W90420  14.489  42.793   1.374
25601W        W90421  43.994   3.205   3.189
25602W        W90422  33.167  37.052   2.819
25603W        W90423  11.277  10.329   0.769
25604W        W90424  28.104  31.601   4.323
25605W        W90425  37.936  27.082   3.712
25606W        W90426  22.059  34.076   2.347
25607W        W90427   5.823  15.384  10.776
25608W        W90428   5.699  39.475   1.232
25609W        W90429   6.084  41.450  12.654
25610W        W90430  25.218  24.537   1.438
25611W        W90431  34.843  25.693   0.807
25612W        W90432   0.417   9.736   0.353
25613W        W90433  34.086  44.204   0.304
25614W        W90434  44.151  11.779   0.380
25615W        W90435  44.509  33.011   0.643
25616W        W90436  19.840  11.598  10.899
25617W        W90437   8.431  12.125  11.216
25618W        W90438   6.438   6.302   0.716
25619W        W90439   9.407  17.160   3.737
25620W        W90440   7.509  22.194   1.324
25621W        W90441  38.869  16.073  12.489
25622W        W90442  29.849  37.216   2.300
25623W        W90443  41.048  12.878  14.481
25624W        W90444  27.283  14.957   3.853
25625W        W90445  40.846  23.220   1.789
25626W        W90446  23.590  14.727   3.157
25627W        W90447  18.216  10.230   3.522
25628W        W90448  20.524  38.818  11.565
25629W        W90449  36.486  16.287  12.623
25630W        W90450   9.662   5.406  10.593
25631W        W90451  40.484  40.784   2.014
25632W        W90452  18.604  44.386  13.876
25633W        W90453  13.050  40.388  10.430
25634W        W90454  40.186  27.540   0.831
25635W        W90455  17.600  38.738   0.519
25636W        W90456  32.190  12.121   3.624
25637W        W90457   0.021  16.179   1.852
25638W        W90458  23.607  23.884  13.637
25639W        W90459  36.079  29.194  14.904
25640W        W90460  14.666  34.945   3.382
25641W        W90461  19.549  39.464   1.532
25642W        W90462  40.331  29.691   0.346
25643W        W90463  16.674  24.037   2.342
25644W        W90464   8.981  37.483   5.093
25645W        W90465  18.360   1.319   4.332
25646W        W90466  21.572  26.229  10.343
25647W        W90467   9.633   3.399   1.384
25648W        W90468  10.344  12.707   4.119
25649W        W90469  20.180  22.275   2.126
25650W        W90470  19.237  20.601  14.089
25651W        W90471  39.093  22.008   1.006
25652W        W90472   1.755  31.356   1.984
25653W        W90473  38.832  25.624   0.548
25654W        W90474  39.797  27.171  13.845
25655W        W90475  17.604  32.571  11.666
25656W        W90476  35.507  24.123   0.467
25657W        W90477  24.396   6.733   0.500
25658W        W90478  30.487  39.526   0.498
25659W        W90479  26.252  41.267  13.995
25660W        W90480  11.310  15.745  14.799
25661W        W90481   6.400   1.240   0.874
25662W        W90482  12.471   8.830  14.728
25663W        W90483  18.847  26.887  12.936
25664W        W90484  40.042  28.021   4.371
25665W        W90485  27.923  13.335  11.992
25666W        W90486  34.124  18.782  10.822
25667W        W90487  30.567  14.122  10.767
25668W        W90488  14.911  24.930   0.664
25669W        W90489  35.397  11.325   0.191
25670W        W90490  38.286   4.677  11.586
25671W        W90491   1.645  16.070  13.093
25672W        W90492  42.327   7.844   2.681
25673W        W90493  25.556  18.298   3.153
25674W        W90494  36.813  40.699   3.657
25675W        W90495   0.041   0.305  11.224
25676W        W90496  19.060  17.973   1.207
25677W        W90497  35.140  39.340   5.001
25678W        W90498   2.979  26.021  14.790
25679W        W90499  31.595   5.832   3.722
25680W        W90500  42.470   3.472  14.603
25681W        W90501   6.959  14.641  13.928
25682W        W90502  39.571  20.297   3.220
25683W        W90503  15.752  17.951   0.552
25684W        W90504  18.957  23.009   4.564
25685W        W90505  42.292  31.678  14.502
25686W        W90506  42.791  39.367  11.530
25687W        W90507  27.918  44.975   0.292
25688W        W90508  44.397   0.548   4.532
25689W        W90509   3.394  15.086  14.068
25690W        W90510  14.057  22.256  11.660
25691W        W90511  22.087  22.601   2.677
25692W        W90512   2.331  22.630   2.258
25693W        W90513   0.423  32.504   4.984
25694W        W90514  16.330  37.277   2.652
25695W        W90515   9.918  23.646  10.427
25696W        W90516  40.232   2.899   2.699
25697W        W90517  37.033   3.956  10.712
25698W        W90518  40.925  33.684   4.895
25699W        W90519   2.598   2.538  11.416
25700W        W90520   4.796   9.695  13.246
25701W        W90521  42.231   7.202   9.984
25702W        W90522  13.537  36.547   9.925
25703W        W90523  24.471  12.067   1.896
25704W        W90524  20.675  37.511   0.293
25705W        W90525  31.158  17.810  12.900
25706W        W90526  17.869  28.927   3.666
25707W        W90527  32.172  22.587   2.637
25708W        W90528  35.905   5.300   0.509
25709W        W90529   2.240  10.864   1.237
25710W        W90530  28.444  23.366   5.034
25711W        W90531  13.265   6.287   3.789
25712W        W90532  13.768  10.220  14.480
25713W        W90533   2.173   0.299  14.116
25714W        W90534  26.216  30.703  11.390
25715W        W90535  34.578   5.431   2.592
25716W        W90536  41.307  41.343   0.697
25717W        W90537  43.179  26.033  12.991
25718W        W90538  36.636   9.698  14.984
25719W        W90539  14.175  36.371  13.354
25720W        W90540  17.289   5.708  11.118
25721W        W90541  30.591   0.741  10.653
25722W        W90542  40.939  21.100  10.355
25723W        W90543  22.562  19.322  13.117
25724W        W90544  24.248   7.792   0.567
25725W        W90545   1.146  34.104  14.958
25726W        W90546  28.453  11.272  13.080
25727W        W90547  30.104  23.405  12.909
25728W        W90548  43.382  23.058  14.918
25729W        W90549  11.396  16.100   4.022
25730W        W90550   4.200  22.190   2.724
25731W        W90551  14.626  41.975   4.231
25732W        W90552   6.314  35.809   4.626
25733W        W90553  23.115  11.253   0.926
25734W        W90554  35.409  38.860   4.935
25735W        W90555  13.030  27.945   0.253
25736W        W90556  44.864  26.367   0.876
25737W        W90557   0.524   9.204   0.291
25738W        W90558  34.974   0.314   0.466
25739W        W90559   1.246  23.184  14.838
25740W        W90560  25.785   3.058   2.510
25741W        W90561  12.535  22.470   0.708
25742W        W90562  44.111  18.236   2.160
25743W        W90563   0.564  18.657  14.047
25744W        W90564  14.746   9.368  10.748
25745W        W90565  32.351  14.423  11.497
25746W        W90566  28.457  22.699   3.905
25747W        W90567  35.515  30.418  10.898
25748W        W90568  41.894  15.261  14.136
25749W        W90569  44.817  36.433   2.521
25750W        W90570  27.108  41.288  14.915
25751W        W90571  16.168  33.976  13.698
25752W        W90572   2.535   4.198  13.430
25753W        W90573  16.676   9.668   2.302
25754W        W90574  26.032  44.837   0.902
25755W        W90575  25.032  20.615  14.845
25756W        W90576  32.957  32.352  12.434
25757W        W90577  18.662  11.358  13.682
25758W        W90578  28.992   7.420   1.720
25759W        W90579  31.998  42.369  11.048
25760W        W90580  44.955  13.891  12.438
25761W        W90581  26.514   2.152  13.335
25762W        W90582  28.488  25.688   2.121
25763W        W90583  26.544   5.559  14.566
25764W        W90584   3.813   2.154  11.177
25765W        W90585  17.995  10.029  10.709
25766W        W90586  28.578  44.510  13.891
25767W        W90587  23.618   0.770  13.673
25768W        W90588  42.636  20.347   0.977
25769W        W90589  32.926  13.301  10.237
25770W        W90590   7.657  11.786   4.371
25771W        W90591   0.244  32.201   3.000
25772W        W90592  31.131  39.832   4.241
25773W        W90593  27.619   0.367  13.074
25774W        W90594  39.384  23.953  12.090
25775W        W90595  11.774   9.725  11.585
25776W        W90596   8.859   6.249  11.814
25777W        W90597  21.036  21.567  13.386
25778W        W90598  20.158  32.360  14.059
25779W        W90599  34.026  44.823  13.925
25780W        W90600  33.712  13.207   4.251
25781W        W90601  11.708  12.597  14.394
25782W        W90602   2.807   4.508   2.111
25783W        W90603  25.664  17.246  10.360
25784W        W90604  43.040  30.332   4.547
25785W        W90605   1.785   1.927   3.877
25786W        W90606  18.607  43.863  13.716
25787W        W90607   2.315  24.607   4.007
25788W        W90608  14.561  13.225  14.342
25789W        W90609  13.780  25.220   1.882
25790W        W90610  31.828  27.070  11.225
25791W        W90611  40.299  29.427   0.789
25792W        W90612   8.076  36.697  12.625
25793W        W90613  15.838  15.323   0.858
25794W        W90614  36.943   0.263  13.920
25795W        W90615  13.119  16.398   1.752
25796W        W90616  21.550  42.962   3.646
25797W        W90617  22.148  27.169  11.083
25798W        W90618   7.676  19.689  13.834
25799W        W90619  35.659  19.697   0.588
25800W        W90620  40.755  35.255  11.044
25801W        W90621   7.984  39.534  12.896
25802W        W90622  19.084  43.847   3.522
25803W        W90623  41.817  19.155  13.570
25804W        W90624  11.548  18.266   4.648
25805W        W90625   5.537   9.776   4.159
25806W        W90626  21.025   0.409  13.164
25807W        W90627  23.227  14.094   0.361
25808W        W90628  21.720  37.499   0.267
25809W        W90629  14.615  19.191  11.179
25810W        W90630   0.255  24.480   2.692
25811W        W90631  27.735   3.419  14.515
25812W        W90632  35.654  43.021  12.554
25813W        W90633  10.815  13.127  14.468
25814W        W90634  27.081  39.070   3.582
25815W        W90635   6.125  18.633  12.390
25816W        W90636  19.654  11.854  11.325
25817W        W90637  43.417  13.237   4.573
25818W        W90638  36.891   3.666  11.113
25819W        W90639   1.236  37.908  14.555
25820W        W90640  41.464  21.224   4.830
25821W        W90641  27.151   2.695   0.644
25822W        W90642  33.015  31.643  14.372
25823W        W90643  10.544   5.313   4.678
25824W        W90644   2.816   7.612  10.552
25825W        W90645  33.455  18.057  11.129
25826W        W90646  41.783  43.733  12.098
25827W        W90647  16.539   1.614  11.926
25828W        W90648   1.215  37.901   5.062
25829W        W90649  11.859   3.812   3.874
25830W        W90650   9.232  29.223  12.438
25831W        W90651   7.595  11.268  14.168
25832W        W90652   3.419  17.237   5.203
25833W        W90653  39.518  13.654  13.368
25834W        W90654   3.797  40.210   4.152
25835W        W90655   5.266   9.562   4.546
25836W        W90656  25.973  33.719   4.214
25837W        W90657  27.638  43.982  14.786
25838W        W90658  39.947   9.083  14.860
25839W        W90659   0.858  30.627   5.067
25840W        W90660  24.641   5.597   3.032
25841W        W90661  43.078  24.073   4.168
25842W        W90662  15.356  21.964  13.241
25843W        W90663  16.711  11.684  10.928
25844W        W90664   8.674  37.366   4.646
25845W        W90665  27.836   7.219  10.401
25846W        W90666   3.481  40.797  12.808
25847W        W90667  17.207  11.124   0.926
25848W        W90668  27.971  13.679  14.959
25849W        W90669  37.972  17.076  12.641
25850W        W90670  13.513  16.036   1.774
25851W        W90671   5.992  40.459   1.354
25852W        W90672  29.725   5.826   0.810
25853W        W90673  35.228  36.542  11.278
25854W        W90674  32.499   6.810   4.875
25855W        W90675  28.619  40.042   3.425
25856W        W90676  36.644  11.171   0.021
25857W        W90677   0.141   6.307   0.464
25858W        W90678  14.692  35.333  13.867
25859W        W90679  26.179  17.785   2.362
25860W        W90680  34.520   5.582  13.428
25861W        W90681   4.966   9.326   0.401
25862W        W90682  24.560  30.138  11.577
25863W        W90683  29.903  23.790   0.742
25864W        W90684   5.411  44.192  11.214
25865W        W90685   3.232   5.952   1.766
25866W        W90686  21.203  11.417   5.266
25867W        W90687  37.381  44.185  14.262
25868W        W90688  43.033  32.188  14.919
25869W        W90689  16.156  39.761  12.504
25870W        W90690  28.080  17.486  11.554
25871W        W90691  44.261  15.400  13.452
25872W        W90692   1.817  10.686   2.263
25873W        W90693  28.086  32.702  10.160
25874W        W90694  34.508   8.964  12.002
25875W        W90695  28.919   8.316   1.375
25876W        W90696   4.499  42.893   4.632
25877W        W90697  29.487  30.060  11.972
25878W        W90698  29.649  23.544   0.031
25879W        W90699  30.008  15.284  12.000
25880W        W90700  36.865  16.042  12.341
25881W        W90701   4.346  37.333  11.541
25882W        W90702  23.799  40.034  12.491
25883W        W90703  41.159  18.289   2.153
25884W        W90704  10.800  36.736  14.997
25885W        W90705  21.554  25.426   1.350
25886W        W90706  19.144   9.766  14.784
25887W        W90707  38.622  30.660  13.563
25888W        W90708   6.666  22.056   5.334
25889W        W90709  30.946  41.520   3.205
25890W        W90710  37.270  24.441   4.299
25891W        W90711  25.874  32.685  12.601
25892W        W90712  28.982   7.454  11.757
25893W        W90713  33.837  42.513  14.439
25894W        W90714  28.222  30.886  13.783
25895W        W90715  18.026  41.433   2.302
25896W        W90716  44.326  35.053  12.437
25897W        W90717  21.373  37.241  10.048
25898W        W90718  16.619  13.598   2.379
25899W        W90719   2.822  15.817  10.216
25900W        W90720  18.052   5.279   4.231
25901W        W90721  22.631  40.810  10.494
25902W        W90722  17.078  29.885   4.117
25903W        W90723  22.077  12.548  11.330
25904W        W90724  28.558  38.948  10.104
25905W        W90725  44.021   1.936  11.543
25906W        W90726  12.991  20.055   1.437
25907W        W90727  43.419  11.295  10.625
25908W        W90728   5.411  39.981   2.531
25909W        W90729  23.108   0.290   3.453
25910W        W90730  43.968  27.372  11.581
25911W        W90731  14.837  11.779  13.265
25912W        W90732  11.039  22.004  13.809
25913W        W90733   1.708  10.380  11.599
25914W        W90734  27.398  24.510  12.526
25915W        W90735   0.307  27.463  14.785
25916W        W90736  39.925  14.303  12.558
25917W        W90737  17.540  43.029  12.990
25918W        W90738  42.590  28.559  14.016
25919W        W90739   6.880  38.846   4.530
25920W        W90740  24.964  39.409   4.159
25921W        W90741   6.192  31.135  12.483
25922W        W90742   2.451  10.349   3.688
25923W        W90743   4.879  15.995   4.230
25924W        W90744  44.491  16.019   2.173
25925W        W90745  35.550  22.003  10.963
25926W        W90746   6.348  36.898  13.385
25927W        W90747   2.426  15.246  10.777
25928W        W90748   0.634  23.670  13.598
25929W        W90749   3.312  37.038  13.583
25930W        W90750  39.500  44.514   0.292
25931W        W90751  39.398  36.339   1.138
25932W        W90752  31.129  13.206  14.761
25933W        W90753  30.117  14.643  11.451
25934W        W90754  40.687  28.960  11.621
25935W        W90755  33.466  36.619   1.284
25936W        W90756  35.396  29.866  14.571
25937W        W90757  29.503  19.138  13.816
25938W        W90758  38.403  26.518  13.779
25939W        W90759  16.234  24.007  12.531
25940W        W90760  13.214  39.508   1.162
25941W        W90761  25.555  18.094   4.973
25942W        W90762  26.348  23.700  13.532
25943W        W90763  42.741   5.497   4.401
25944W        W90764   8.169   9.790   3.645
25945W        W90765  41.028  24.258  13.360
25946W        W90766  16.240  21.929   4.097
25947W        W90767  17.680  43.241   4.182
25948W        W90768  13.365   7.268  12.164
25949W        W90769  33.974  18.806   4.619
25950W        W90770  22.262  43.025  12.542
25951W        W90771  32.745  30.404  13.567
25952W        W90772   5.791  10.771  13.001
25953W        W90773   1.582  34.138  13.927
25954W        W90774   9.763  26.447   1.242
25955W        W90775  35.418  22.536   3.684
25956W        W90776  33.570  40.797  13.500
25957W        W90777  37.031   7.860   0.305
25958W        W90778  10.288  24.971   4.409
25959W        W90779  33.052  19.529   1.541
25960W        W90780  17.113  41.851  13.247
25961W        W90781  22.779   8.881   2.310
25962W        W90782  12.244  32.889  11.972
25963W        W90783  11.171  10.805  14.341
25964W        W90784   8.603   9.350  11.652
25965W        W90785  17.832  17.440  12.473
25966W        W90786  16.112   1.103  14.336
25967W        W90787  22.550   4.882  13.204
25968W        W90788  37.020  40.386   4.265
25969W        W90789  20.934  26.600   0.962
25970W        W90790   2.429  20.389  14.931
25971W        W90791  34.005   6.825  13.548
25972W        W90792   3.760   6.283   4.484
25973W        W90793  34.075   2.876  14.782
25974W        W90794  20.750  22.668   1.450
25975W        W90795  26.347  44.131   2.737
25976W        W90796  23.306  25.237  10.545
25977W        W90797  24.208  21.087  14.840
25978W        W90798  22.576  25.088  11.208
25979W        W90799   2.720  10.174  13.878
25980W        W90800   5.208  15.736   4.592
25981W        W90801  23.305  13.269   2.968
25982W        W90802  39.002  24.958   2.554
25983W        W90803  16.043  23.547   1.857
25984W        W90804  25.417  30.494  12.487
25985W        W90805  25.903   9.287   2.791
25986W        W90806  35.041  38.986  13.441
25987W        W90807   8.307  36.005  12.927
25988W        W90808   8.866   7.380   2.677
25989W        W90809  44.672  42.797   3.751
25990W        W90810  37.312  10.151   3.581
25991W        W90811  16.888  30.105  10.870
25992W        W90812  27.483  33.519  14.776
25993W        W90813  36.770  31.483  10.543
25994W        W90814  13.732  31.128  12.021
25995W        W90815  36.606  21.098  13.295
25996W        W90816   5.921  32.619  14.045
25997W        W90817   2.494   7.313  10.268
25998W        W90818  43.245  41.332  10.739
25999W        W90819   9.924  35.799   4.770
26000W        W90820  13.214   1.493  12.041
26001W        W90821  40.961  41.648  13.181
26002W        W90822  37.952   1.221  14.040
26003W        W90823  19.118  23.325   1.323
26004W        W90824  39.971  13.755  10.977
26005W        W90825  21.217  26.541   2.047
26006W        W90826  15.227  44.253  12.481
26007W        W90827   8.337  22.620  13.473
26008W        W90828  19.599  13.112  10.706
26009W        W90829  44.487  43.736   3.659
26010W        W90830   8.832  21.742   4.487
26011W        W90831  25.977  26.991   1.235
26012W        W90832  36.927  34.492  13.258
26013W        W90833  41.297   1.997  12.943
26014W        W90834   4.971  14.636   1.700
26015W        W90835  44.740   3.452  14.420
26016W        W90836  35.899  16.294   1.302
26017W        W90837   5.155   8.266   4.118
26018W        W90838  21.257  39.879   5.218
26019W        W90839   8.786  31.144   0.733
26020W        W90840  13.351  35.069   1.830
26021W        W90841  18.113  44.451  11.615
26022W        W90842   4.220  41.195   5.091
26023W        W90843  18.455  20.165  14.227
26024W        W90844  19.207  34.328  11.456
26025W        W90845  38.492  25.400   3.355
26026W        W90846  40.221  40.828  14.974
26027W        W90847  20.130   3.230   0.636
26028W        W90848  25.677  33.905   4.603
26029W        W90849  23.536  30.340  13.447
26030W        W90850   1.109  33.956  11.056
26031W        W90851   4.196  42.323  10.716
26032W        W90852   0.766  14.729  10.751
26033W        W90853   0.402  42.292  12.471
26034W        W90854   8.547  35.109  13.479
26035W        W90855  40.957   8.855  14.690
26036W        W90856  23.129  18.870   4.601
26037W        W90857   9.194  39.095   0.659
26038W        W90858  23.763   5.798  11.514
26039W        W90859  17.689  12.428  13.986
26040W        W90860   9.359  38.214   4.079
26041W        W90861  25.175  30.120  12.843
26042W        W90862   1.939  44.473   1.368
26043W        W90863  42.993  28.725  14.424
26044W        W90864  23.919  14.332   2.926
26045W        W90865   2.401  41.810  13.279
26046W        W90866  24.444  38.900   9.951
26047W        W90867   3.924  39.230  14.797
26048W        W90868  23.300   2.876  12.076
26049W        W90869  39.724  13.064  12.787
26050W        W90870  10.207   9.147   0.204
26051W        W90871  18.194  32.422  13.819
26052W        W90872  30.385  16.070   2.866
26053W        W90873  11.135  34.432  11.610
26054W        W90874  41.853  12.222  10.382
26055W        W90875  18.780  34.043   4.543
26056W        W90876   2.882  42.004  11.154
26057W        W90877   7.300  35.514   1.336
26058W        W90878  39.299  14.728   3.119
26059W        W90879   4.474  27.642  11.077
26060W        W90880  33.352  43.900   2.799
26061W        W90881  15.206  30.635  12.728
26062W        W90882  41.485  13.567  12.914
26063W        W90883  31.637  11.415   3.357
26064W        W90884  39.726  21.728  13.991
26065W        W90885   6.949  31.542  11.561
26066W        W90886  27.268  12.748   1.953
26067W        W90887  13.537  44.450  13.886
26068W        W90888  40.911  38.703   2.372
26069W        W90889  10.578   8.215   0.803
26070W        W90890  32.005   4.320   3.434
26071W        W90891  33.041  31.088   1.777
26072W        W90892  42.013   7.524  12.897
26073W        W90893  34.508  26.734   1.746
26074W        W90894  19.060   2.684   0.796
26075W        W90895  11.292   6.896   0.383
26076W        W90896  32.715  37.429   3.727
26077W        W90897  18.069  25.627   2.071
26078W        W90898  29.944  36.668  11.947
26079W        W90899  40.040   5.337  13.308
26080W        W90900  10.814  26.249  10.982
26081W        W90901  23.586  35.051   4.370
26082W        W90902   4.218   2.416   2.573
26083W        W90903  44.725  37.354   0.312
26084W        W90904  42.233   3.295  13.018
26085W        W90905  16.134   4.883  11.337
26086W        W90906  12.055  23.806  14.878
26087W        W90907  43.290  21.146   1.948
26088W        W90908   2.923  12.867   1.979
26089W        W90909  26.162  11.605   0.853
26090W        W90910  13.347  42.229   1.648
26091W        W90911  21.884  12.658  10.553
26092W        W90912  10.174  41.745   5.069
26093W        W90913  30.652  21.492  11.556
26094W        W90914  30.903  13.278   2.109
26095W        W90915  40.977  41.197  10.697
26096W        W90916  44.817  25.715  13.200
26097W        W90917  38.081  19.059  11.696
26098W        W90918  10.115  10.148  10.971
26099W        W90919   3.628  18.325   4.131
26100W        W90920   5.840  34.135   0.838
26101W        W90921  41.650  24.823   0.265
26102W        W90922  27.419  30.066  14.964
26103W        W90923  43.081  10.467  13.802
26104W        W90924  19.131   9.850   0.767
26105W        W90925  14.351  33.499  13.904
26106W        W90926  29.168  32.435  12.207
26107W        W90927   0.967   1.933   1.687
26108W        W90928   2.149  14.167   1.720
26109W        W90929  10.819  24.212  13.429
26110W        W90930  32.108  35.087  14.770
26111W        W90931  25.098  18.333   0.930
26112W        W90932  16.682   9.091  13.557
26113W        W90933  18.260  41.281   4.164
26114W        W90934   3.893  19.167   4.377
26115W        W90935  35.859   2.757  14.365
26116W        W90936  17.199  30.460  13.460
26117W        W90937  40.362  39.105  10.797
26118W        W90938   8.683  24.753   5.047
26119W        W90939  25.395   2.936  10.522
26120W        W90940   7.717  44.564   2.901
26121W        W90941  18.116  12.674  13.783
26122W        W90942  14.744  18.188   0.364
26123W        W90943  17.254  35.103   1.264
26124W        W90944  11.699  35.380  13.957
26125W        W90945   7.086  19.130   4.557
26126W        W90946  24.426   3.785   4.770
26127W        W90947  12.246   4.504  11.415
26128W        W90948  14.897  34.296   2.536
26129W        W90949   3.929  32.098  13.915
26130W        W90950   2.706   0.363   3.176
26131W        W90951  13.194  36.351  14.440
26132W        W90952  30.038  27.682   0.268
26133W        W90953  19.007  10.161   3.074
26134W        W90954   6.010  26.949   4.084
26135W        W90955  18.008  28.322  14.339
26136W        W90956  21.128  42.001  14.411
26137W        W90957  44.497  20.042   1.529
26138W        W90958  44.928   2.343  11.634
26139W        W90959  28.655  14.651   1.411
26140W        W90960  37.239   7.582  14.163
26141W        W90961  15.616  21.625   4.661
26142W        W90962   6.153  35.890  12.408
26143W        W90963  32.141  18.545  14.119
26144W        W90964  35.061  34.804  11.208
26145W        W90965  18.767  29.088   2.290
26146W        W90966  39.864   9.303  14.378
26147W        W90967  16.787  31.614   0.029
26148W        W90968  35.458  13.754   0.749
26149W        W90969   9.952   0.758   2.724
26150W        W90970  40.486  14.282  12.526
26151W        W90971  20.471   7.241  13.533
26152W        W90972   6.133  34.033   1.746
26153W        W90973  41.285  36.885  11.948
26154W        W90974  23.126   3.498   3.697
26155W        W90975  35.552   4.221   0.746
26156W        W90976  20.246  12.183   0.016
26157W        W90977   3.941  36.520  11.219
26158W        W90978   4.012  30.068   4.605
26159W        W90979  36.929  35.487   4.304
26160W        W90980   2.473  14.800  13.664
26161W        W90981  24.889  22.001  10.649
26162W        W90982  13.676  30.936  14.850
26163W        W90983  20.841  40.055   4.617
26164W        W90984  35.409  29.190   0.296
26165W        W90985  42.440   8.000   1.680
26166W        W90986  38.403  28.376  13.641
26167W        W90987   0.320  17.188   1.150
26168W        W90988  24.421  32.868  11.187
26169W        W90989  37.551  27.554  11.568
26170W        W90990  14.270  10.756   1.447
26171W        W90991   3.456  31.635   4.511
26172W        W90992  41.306  17.861  14.201
26173W        W90993  10.241  28.220  12.608
26174W        W90994  35.894  37.286  12.149
26175W        W90995  21.560  18.961  13.884
26176W        W90996   9.188   6.267  14.349
26177W        W90997   0.422  43.452   0.007
26178W        W90998  17.376  14.756  11.591
26179W        W90999  33.489  30.755  10.376
26180W        W91000  37.118  43.444   1.162
26181W        W91001  40.885   2.139  13.795
26182W        W91002  38.571   6.888  14.389
26183W        W91003  42.843   6.733   1.901
26184W        W91004  38.462  25.150   4.736
26185W        W91005   4.546  10.674   0.294
26186W        W91006  13.969   7.723   0.880
26187W        W91007  28.134  37.993   1.653
26188W        W91008   4.169   8.369   4.517
26189W        W91009   5.823  28.000  10.669
26190W        W91010   4.523   3.225  10.600
26191W        W91011  38.888  15.087  12.365
26192W        W91012   3.028   9.477  10.953
26193W        W91013  41.495  14.483   1.175
26194W        W91014  12.217   7.564  10.567
26195W        W91015  27.710   4.165  12.905
26196W        W91016  18.344  34.882  12.361
26197W        W91017  39.810   4.038   1.435
26198W        W91018   0.247  28.142   0.176
26199W        W91019   7.755  16.153   2.799
26200W        W91020  24.427  12.443   2.730
26201W        W91021   3.996  13.170  14.798
26202W        W91022   9.726  21.473  11.198
26203W        W91023  23.339  32.188   1.787
26204W        W91024  44.748  24.868   2.076
26205W        W91025  27.044  14.159   1.727
26206W        W91026  19.730  29.134  10.398
26207W        W91027  23.031  21.700   4.411
26208W        W91028  15.324  23.568   1.225
26209W        W91029  10.113  13.269   0.888
26210W        W91030  27.593  25.701  11.968
26211W        W91031  39.777  27.262   3.665
26212W        W91032   1.393  13.778  14.621
26213W        W91033  37.186   2.181   1.384
26214W        W91034  39.029  20.683  11.429
26215W        W91035  39.365   9.918   0.760
26216W        W91036  19.064  19.291  10.615
26217W        W91037  11.740  39.556   1.707
26218W        W91038  22.548   6.289  11.380
26219W        W91039  19.278   8.888  13.257
26220W        W91040  24.422  30.750   1.527
26221W        W91041  42.905  15.177  10.172
26222W        W91042  37.478  44.841  13.378
26223W        W91043  32.479   4.400   2.640
26224W        W91044  42.529  41.383  14.664
26225W        W91045  43.298  16.321   0.374
26226W        W91046  30.692   5.131  13.628
26227W        W91047  42.357  39.311  13.005
26228W        W91048  14.287  13.682   2.382
26229W        W91049   7.321  37.937  14.341
26230W        W91050  31.612  19.689   4.196
26231W        W91051  25.258   3.192  12.762
26232W        W91052  35.482  23.734   4.969
26233W        W91053  14.686  25.994   4.410
26234W        W91054  26.982  37.515   4.753
26235W        W91055  15.029  31.080  10.654
26236W        W91056  30.145  26.434  14.777
26237W        W91057  30.443  30.187   4.876
26238W        W91058  24.123  32.376   3.333
26239W        W91059  39.456  28.304   3.009
26240W        W91060   5.696  42.759  14.253
26241W        W91061  42.052  20.097   4.044
26242W        W91062  32.318   7.261   0.903
26243W        W91063  38.018  22.995  12.554
26244W        W91064  31.677  25.968  14.850
26245W        W91065  30.506   4.199  14.781
26246W        W91066   0.678  13.108   1.822
26247W        W91067   6.275  16.221   1.762
26248W        W91068  12.348  19.496   1.791
26249W        W91069  25.624  42.396   4.374
26250W        W91070   7.608   0.571  11.106
26251W        W91071  21.751  25.170  13.112
26252W        W91072  23.313  18.802  10.269
26253W        W91073  30.980  37.527  13.893
26254W        W91074  41.084   2.914   3.039
26255W        W91075  29.521  24.777   2.112
26256W        W91076  11.355   7.623  13.446
26257W        W91077  25.612  21.790  11.147
26258W        W91078  25.622  42.278  14.308
26259W        W91079   1.465   7.499  14.912
26260W        W91080  18.036  12.908   0.524
26261W        W91081  19.833  44.808  11.255
26262W        W91082  30.942  32.080   1.358
26263W        W91083  14.415  44.057   4.589
26264W        W91084   9.914  39.910   2.608
26265W        W91085   4.125  31.131   1.797
26266W        W91086  20.265  26.598   4.646
26267W        W91087  13.721   9.824   2.291
26268W        W91088  34.543  34.486   3.402
26269W        W91089  20.953   7.857  13.069
26270W        W91090  12.744  17.956  12.601
26271W        W91091  34.531   5.403   1.728
26272W        W91092  11.319  17.788   4.616
26273W        W91093  25.142  27.459   3.466
26274W        W91094   6.279   0.287  10.502
26275W        W91095  28.675  26.712  12.386
26276W        W91096  36.982  41.750   3.774
26277W        W91097  15.674  41.063  12.022
26278W        W91098  31.848  19.560  10.980
26279W        W91099   6.279  36.416  12.554
26280W        W91100  23.927  35.802   1.178
26281W        W91101  21.954  16.716   3.335
26282W        W91102   8.872  36.591  12.323
26283W        W91103  39.971   0.235  12.090
26284W        W91104   2.802  36.093   1.754
26285W        W91105  33.302  35.008  14.822
26286W        W91106  37.003  38.080   0.286
26287W        W91107   7.496  44.001  10.719
26288W        W91108  28.721  32.519  14.897
26289W        W91109  18.809  20.435  11.464
26290W        W91110  31.050  15.736   2.287
26291W        W91111  13.795  11.164   0.810
26292W        W91112  17.544   9.151  10.059
26293W        W91113  42.240  31.435  14.063
26294W        W91114  28.521   4.904   0.260
26295W        W91115  23.263  13.182  14.531
26296W        W91116  36.258   5.438   4.747
26297W        W91117  44.072  40.890   4.783
26298W        W91118   7.370  14.269  14.743
26299W        W91119  29.054  31.314  12.769
26300W        W91120  38.454  36.149  11.442
26301W        W91121  39.001   6.443  12.920
26302W        W91122   7.185  42.635   5.022
26303W        W91123  40.472   9.826   1.617
26304W        W91124   9.924   7.732   4.005
26305W        W91125  10.138  38.102   0.408
26306W        W91126  20.487  20.223   4.226
26307W        W91127   9.366  19.938   2.647
26308W        W91128  18.812  28.726  14.475
26309W        W91129  12.165  23.409   2.677
26310W        W91130  10.382   8.928   4.265
26311W        W91131  36.986   5.407   1.620
26312W        W91132   0.793  42.271   0.485
26313W        W91133  27.259  18.646  11.176
26314W        W91134  14.644  12.243  14.538
26315W        W91135  24.999  10.074  13.775
26316W        W91136   3.049  32.044  13.584
26317W        W91137  36.695  44.693  11.120
26318W        W91138  40.061   2.309   0.451
26319W        W91139   2.440   7.983   1.246
26320W        W91140  23.027  44.534  10.912
26321W        W91141   2.317  27.433   4.809
26322W        W91142  19.898   8.653   3.448
26323W        W91143  23.217   7.293   0.232
26324W        W91144  36.833  28.913  13.033
26325W        W91145  31.149   1.333   4.788
26326W        W91146  20.772  10.440   1.777
26327W        W91147   1.992  15.893  11.527
26328W        W91148   5.453  35.803  11.482
26329W        W91149  23.769  20.155   0.008
26330W        W91150   7.498  44.633  10.676
26331W        W91151  26.321  21.200   1.452
26332W        W91152  16.442  39.987   1.639
26333W        W91153  31.722  22.966  11.648
26334W        W91154  22.982   9.444   1.179
26335W        W91155   8.781  38.030   3.055
26336W        W91156  19.420  20.279  11.056
26337W        W91157  28.472  30.138  10.585
26338W        W91158   5.558  42.928  13.770
26339W        W91159  21.726  29.325  12.545
26340W        W91160  16.882  10.618   0.331
26341W        W91161   0.282  21.496   0.848
26342W        W91162  15.386   1.213   3.675
26343W        W91163  23.916  22.504  14.749
26344W        W91164  26.511   3.611  13.570
26345W        W91165  27.692  17.015  12.392
26346W        W91166   4.317   2.791   1.674
26347W        W91167   0.790  31.028   1.393
26348W        W91168   7.726   9.785  14.853
26349W        W91169  14.787  44.906   2.618
26350W        W91170   7.594  42.813  12.899
26351W        W91171  42.379  10.689  12.802
26352W        W91172   7.246  26.703   1.810
26353W        W91173  15.782   6.480  12.337
26354W        W91174  19.281  16.971   1.316
26355W        W91175  24.035  23.348  14.388
26356W        W91176  42.495   1.694  10.729
26357W        W91177  17.702  12.947  13.967
26358W        W91178  43.404   4.075  11.591
26359W        W91179  26.463  12.274   2.723
26360W        W91180   6.869  15.711   2.199
26361W        W91181  18.694  16.728   3.232
26362W        W91182  27.680  39.582  14.465
26363W        W91183  37.095  42.686  10.606
26364W        W91184  34.579  31.703   2.625
26365W        W91185  26.802  37.231  10.974
26366W        W91186  40.098   5.913   3.551
26367W        W91187   6.895  29.916  11.166
26368W        W91188  15.287  32.532   2.438
26369W        W91189  27.035  40.505  11.422
26370W        W91190  22.431  33.650   4.216
26371W        W91191  41.929  12.262  11.494
26372W        W91192  32.031  26.132   3.165
26373W        W91193  13.038  41.350   3.657
26374W        W91194   5.995  38.946  11.511
26375W        W91195  43.982  35.857   0.306
26376W        W91196  11.025   5.821  13.408
26377W        W91197  35.356  22.656  13.105
26378W        W91198  36.034  16.108   3.089
26379W        W91199  40.515  39.935  12.130
26380W        W91200  27.127  36.471   3.621
26381W        W91201  42.759  21.022  13.938
26382W        W91202   7.827  20.963   3.997
26383W        W91203  33.823  38.551  13.084
26384W        W91204  44.926  16.823   1.030
26385W        W91205  39.353  31.177  10.789
26386W        W91206   1.803  27.501   0.495
26387W        W91207  25.164  22.673   4.222
26388W        W91208  29.628  10.066   1.156
26389W        W91209  31.575  11.369  11.689
26390W        W91210   7.832  31.471   0.581
26391W        W91211  39.016   6.185  11.901
26392W        W91212   9.685  15.261   3.109
26393W        W91213  31.094  32.450  11.066
26394W        W91214  33.873  28.004   4.587
26395W        W91215  30.146  29.444   3.267
26396W        W91216  18.937  15.279   2.886
26397W        W91217  20.149  16.187  13.912
26398W        W91218  23.771   7.543  10.433
26399W        W91219  22.064  38.725   1.766
26400W        W91220  32.630   8.891  10.751
26401W        W91221   9.437  18.404   4.501
26402W        W91222  41.982  32.654  12.810
26403W        W91223   6.605  16.440  11.085
26404W        W91224  19.599  23.787   0.620
26405W        W91225   9.900  42.893   2.754
26406W        W91226   9.326  35.067   1.719
26407W        W91227  21.055  41.328  13.947
26408W        W91228  25.166  24.597  14.690
26409W        W91229  27.950  26.309  13.850
26410W        W91230  30.001  31.308   3.787
26411W        W91231  32.140  26.852  10.776
26412W        W91232  40.795  28.871  12.880
26413W        W91233   1.208  20.429   0.746
26414W        W91234  22.120  27.429   4.521
26415W        W91235  26.615  24.489   0.906
26416W        W91236   9.099  41.546   1.284
26417W        W91237   9.394  42.060  11.530
26418W        W91238  36.931  38.415  10.669
26419W        W91239   0.926   5.169  13.331
26420W        W91240   7.268  36.428   2.847
26421W        W91241  24.366  17.931   2.711
26422W        W91242  34.683  42.314  13.643
26423W        W91243  23.128  25.640  13.808
26424W        W91244  44.706  17.272  10.292
26425W        W91245  38.222  23.903  13.478
26426W        W91246  34.267  34.957  10.513
26427W        W91247   8.278   6.379   3.359
26428W        W91248   0.885   0.439  14.291
26429W        W91249   6.726  10.646   4.552
26430W        W91250  32.650   2.860   2.756
26431W        W91251  16.627  19.787  14.451
26432W        W91252   0.751  44.274  12.429
26433W        W91253   4.921  18.163  14.004
26434W        W91254   8.739   7.642  14.891
26435W        W91255   3.180  18.844  13.347
26436W        W91256  38.017  21.635  12.500
26437W        W91257  26.909   4.438  11.195
26438W        W91258  11.172  43.348   0.019
26439W        W91259  18.255  38.133   4.435
26440W        W91260   9.728  36.026   2.161
26441W        W91261  13.487  16.110  14.976
26442W        W91262  35.661   2.007   1.355
26443W        W91263  43.021  28.179   3.705
26444W        W91264  16.581  37.529  13.562
26445W        W91265  43.506   1.328  13.888
26446W        W91266  44.055  37.056  11.401
26447W        W91267  36.514  18.357  13.431
26448W        W91268  17.127  31.112   3.573
26449W        W91269  22.657   2.231  10.243
26450W        W91270   0.252   3.832  13.331
26451W        W91271   9.623  30.443   0.891
26452W        W91272  41.315  20.403  14.116
26453W        W91273  35.683  14.284   3.861
26454W        W91274  25.069  10.780   3.724
26455W        W91275   7.759  35.186   3.800
26456W        W91276  10.260  40.834   1.940
26457W        W91277  41.972  15.816   1.383
26458W        W91278  33.835  35.489  14.309
26459W        W91279   3.095  16.243  12.438
26460W        W91280  22.747  14.320   0.414
26461W        W91281  44.637  22.126  13.360
26462W        W91282  14.900   6.242   4.980
26463W        W91283  18.793  44.705   1.276
26464W        W91284  44.765  28.050   0.374
26465W        W91285  27.012  30.051  13.473
26466W        W91286  25.974   9.144  11.355
26467W        W91287  30.412   8.715  13.367
26468W        W91288   7.110  30.144  12.428
26469W        W91289   1.673  41.899   0.508
26470W        W91290  21.219  23.578  13.464
26471W        W91291  22.234   9.774  10.375
26472W        W91292  40.787  31.991   0.392
26473W        W91293  39.147  29.577   1.770
26474W        W91294   8.762  14.624   4.863
26475W        W91295  27.901  36.765   2.290
26476W        W91296  33.622  41.528  13.282
26477W        W91297  41.943   7.971   3.244
26478W        W91298  10.016  24.899  10.627
26479W        W91299  16.143  13.460  12.024
26480W        W91300  31.033  31.236   2.032
26481W        W91301  24.542  34.859  13.869
26482W        W91302  42.453  12.424   2.788
26483W        W91303  10.911  40.921  11.962
26484W        W91304  40.218  16.013  12.883
26485W        W91305  25.210  41.954  11.166
26486W        W91306   7.719  12.286   2.832
26487W        W91307  11.352   1.941  13.301
26488W        W91308  31.020  38.367   0.728
26489W        W91309  33.923  14.967   2.627
26490W        W91310  33.777  29.025  13.091
26491W        W91311  32.564  43.753  12.026
26492W        W91312   7.237  31.374  11.154
26493W        W91313  42.951  19.564   3.204
26494W        W91314  12.838  36.607   4.607
26495W        W91315  39.382  11.380  14.860
26496W        W91316  41.769   7.330  11.496
26497W        W91317  12.189  11.128   3.595
26498W        W91318  18.220  39.510  14.219
26499W        W91319   8.733  16.883  12.972
26500W        W91320  34.133  41.611  13.491
26501W        W91321  20.046  38.043  11.176
26502W        W91322   5.893  39.912   2.694
26503W        W91323  20.509  33.870  11.908
26504W        W91324  23.936   2.252   4.084
26505W        W91325   7.703  26.351   4.072
26506W        W91326   8.559  18.638  12.388
26507W        W91327  44.708   3.950   3.696
26508W        W91328   9.667   6.320   0.407
26509W        W91329  29.407  36.877  10.489
26510W        W91330  33.965  29.876  11.663
26511W        W91331  18.577   0.242   1.202
26512W        W91332  22.714  39.969   4.573
26513W        W91333   4.836  23.695   3.166
26514W        W91334   8.235  12.628   4.190
26515W        W91335   9.508  29.418  10.269
26516W        W91336  39.237  35.827   1.783
26517W        W91337   0.415  26.970   2.615
26518W        W91338  44.688   0.937  12.543
26519W        W91339   5.005  35.038   4.289
26520W        W91340  17.508   6.989  10.772
26521W        W91341   5.138  44.436  12.528
26522W        W91342   1.996  36.400   2.838
26523W        W91343  43.402   1.762   1.375
26524W        W91344  27.948  12.071   4.307
26525W        W91345  21.343   6.497   1.159
26526W        W91346  11.189  13.222  12.894
26527W        W91347  37.902  19.318  14.465
26528W        W91348   7.148  22.611   2.632
26529W        W91349  14.808  34.613  11.138
26530W        W91350  17.579  39.410  10.164
26531W        W91351   1.959  37.607  11.581
26532W        W91352  25.706  23.988   1.934
26533W        W91353  35.962  31.047  11.380
26534W        W91354   5.472   3.030   2.806
26535W        W91355   9.865  18.461   2.674
26536W        W91356  23.506  12.840   0.217
26537W        W91357  40.367   0.658   2.799
26538W        W91358  33.069  18.538   1.235
26539W        W91359  40.072  41.814  13.573
26540W        W91360  21.509  39.786  13.440
26541W        W91361  27.671  16.888   2.991
26542W        W91362   5.677  43.449  13.616
26543W        W91363  32.039   6.804   0.834
26544W        W91364  27.417  37.162  12.101
26545W        W91365   3.313   3.202   3.088
26546W        W91366  38.514  23.288   3.653
26547W        W91367  41.310  17.504   4.556
26548W        W91368  24.754  44.178   0.755
26549W        W91369  20.201  22.826   3.702
26550W        W91370  40.778  21.627   0.957
26551W        W91371  44.699   3.354  11.595
26552W        W91372  22.641   6.221  14.273
26553W        W91373  22.973  14.392  12.233
26554W        W91374  17.307  43.366  12.374
26555W        W91375  19.161  40.832   3.945
26556W        W91376  42.483  16.389   4.173
26557W        W91377   0.443  11.712   0.009
26558W        W91378  25.089  15.328  14.550
26559W        W91379   8.378   8.506   0.779
26560W        W91380  17.362   7.886  12.976
26561W        W91381  42.904   7.895  14.749
26562W        W91382   9.403  23.593  11.335
26563W        W91383   0.059  21.574  11.344
26564W        W91384  19.355  38.432   0.456
26565W        W91385   4.061  16.106   4.683
26566W        W91386   6.455  15.068   4.621
26567W        W91387  32.171  13.301  13.905
26568W        W91388  24.571  13.078  14.779
26569W        W91389   8.344   5.679  11.563
26570W        W91390  33.825  17.633   2.321
26571W        W91391   9.323  33.977  10.617
26572W        W91392  42.955  17.644  12.055
26573W        W91393   1.169  17.263  14.475
26574W        W91394  34.499  38.924  13.827
26575W        W91395  36.428  16.510  12.154
26576W        W91396  40.841  28.518   1.474
26577W        W91397  16.696  15.704   1.783
26578W        W91398  11.771  25.420   1.469
26579W        W91399  23.651   3.538   3.595
26580W        W91400  39.004  37.982  13.652
26581W        W91401  44.082  27.229  10.704
26582W        W91402  19.449  34.620  14.721
26583W        W91403  41.513  34.345  13.786
26584W        W91404  39.656  23.876  13.510
26585W        W91405  36.881   4.180   3.805
26586W        W91406   3.948  28.573   3.366
26587W        W91407  22.701  24.167   2.141
26588W        W91408  32.600  43.808   3.366
26589W        W91409   3.492  39.343   2.791
26590W        W91410  10.377   7.402   4.075
26591W        W91411  43.226  27.731  10.962
26592W        W91412  20.274  14.368   2.446
26593W        W91413  38.334  36.097   3.765
26594W        W91414  39.529  44.040   3.727
26595W        W91415  39.528  23.139   2.899
26596W        W91416  24.440  21.839   1.390
26597W        W91417  17.680  42.676   3.199
26598W        W91418  31.101  22.362   3.549
26599W        W91419  16.070  38.931  12.846
26600W        W91420  19.957   3.356  11.338
26601W        W91421  29.999  20.400   3.290
26602W        W91422  15.246  32.709  13.535
26603W        W91423  13.308  18.250   2.873
26604W        W91424  14.350  24.669   3.373
26605W        W91425  27.796  19.776   0.368
26606W        W91426  34.347  40.588  12.900
26607W        W91427  35.062  43.426   2.234
26608W        W91428  19.080   6.778  14.748
26609W        W91429   9.903  24.162   2.386
26610W        W91430  18.177  25.207  14.470
26611W        W91431  11.722  28.836   0.515
26612W        W91432   3.828   7.453   1.738
26613W        W91433   5.739  12.765  12.559
26614W        W91434   6.986  21.663   1.805
26615W        W91435  30.880  15.811   4.177
26616W        W91436  26.388  12.853   0.743
26617W        W91437  44.848  18.563   0.746
26618W        W91438   0.626  35.011   4.431
26619W        W91439   4.413   7.900   4.600
26620W        W91440   2.849  10.268  11.088
26621W        W91441   7.924   7.360  12.108
26622W        W91442  26.694  13.680   0.338
26623W        W91443  17.740  25.325   4.044
26624W        W91444  33.454   6.385   0.707
26625W        W91445   5.223  16.416  11.101
26626W        W91446  30.974   1.488  13.038
26627W        W91447   4.341  30.952   0.741
26628W        W91448  26.068   7.276   1.717
26629W        W91449  43.706   6.406   3.266
26630W        W91450  35.000  12.170   2.585
26631W        W91451   6.975   2.868  12.955
26632W        W91452  14.540  42.968   0.567
26633W        W91453  17.789  37.988  14.940
26634W        W91454  37.807  19.770  11.520
26635W        W91455  37.030  16.835  14.224
26636W        W91456  32.926  16.506  14.365
26637W        W91457  32.112  25.307   0.246
26638W        W91458  15.207  33.197  10.566
26639W        W91459  18.947  17.806   3.541
26640W        W91460  11.160  11.257   3.289
26641W        W91461  22.760   6.160  13.755
26642W        W91462  38.899  42.446  13.941
26643W        W91463   9.559  34.435   4.057
26644W        W91464   5.784  27.684   4.184
26645W        W91465  10.577  24.883  10.696
26646W        W91466   5.177   3.004   3.630
26647W        W91467  22.274  18.540  12.564
26648W        W91468  14.576  12.795  13.515
26649W        W91469  18.962  26.686  14.166
26650W        W91470  12.646  33.613  11.506
26651W        W91471  20.967  34.180  13.020
26652W        W91472   9.227  10.565   3.339
26653W        W91473  40.547  44.523  12.127
26654W        W91474  43.538  10.444  11.400
26655W        W91475  32.181   0.309  14.817
26656W        W91476  32.415  35.091   3.658
26657W        W91477   4.411  29.473  13.166
26658W        W91478   8.851  40.599   2.655
26659W        W91479  19.095   0.310   2.886
26660W        W91480  14.273  44.392  10.619
26661W        W91481   3.739  21.240  12.905
26662W        W91482  27.485   2.422  12.578
26663W        W91483  39.191  15.684   1.733
26664W        W91484   5.761  43.164  14.589
26665W        W91485  31.511  43.810  12.064
26666W        W91486  28.408   1.165  12.475
26667W        W91487   6.804  19.385   3.136
26668W        W91488  35.100  11.089  13.917
26669W        W91489  25.395   5.922   0.913
26670W        W91490  33.605  31.385  11.836
26671W        W91491  24.727  42.699  13.922
26672W        W91492   8.880  33.545  13.869
26673W        W91493  12.663  22.252   3.325
26674W        W91494  14.258  36.371   0.795
26675W        W91495  41.522  27.657   0.063
26676W        W91496  21.962  38.294  10.939
26677W        W91497  40.802  10.155   2.753
26678W        W91498  29.648  10.420   1.514
26679W        W91499  19.183  28.187  11.513
26680W        W91500  23.947  21.466   3.036
26681W        W91501   0.730  26.583   2.775
26682W        W91502  40.231  37.395   2.842
26683W        W91503  27.650  25.284   2.257
26684W        W91504   7.951  38.614  13.834
26685W        W91505  34.634  37.006  12.746
26686W        W91506   8.050  36.790   2.263
26687W        W91507  11.215   0.691  14.823
26688W        W91508  23.737  16.624  11.187
26689W        W91509  30.092   6.655  11.510
26690W        W91510   0.358   7.394  13.437
26691W        W91511  16.379   5.823   1.648
26692W        W91512   4.347  28.867  11.998
26693W        W91513  21.801  38.289   3.052
26694W        W91514  35.257   1.312  13.229
26695W        W91515   3.772  12.633  14.252
26696W        W91516  14.860  28.489   2.023
26697W        W91517  32.860   2.938   0.293
26698W        W91518  10.155  20.662  13.728
26699W        W91519  24.420   2.850   3.682
26700W        W91520  19.567   4.345  10.989
26701W        W91521  11.347  23.465   4.113
26702W        W91522  24.394  11.152   0.925
26703W        W91523   1.882  27.213   3.179
26704W        W91524  14.134  17.251  11.589
26705W        W91525  10.855  40.827   2.384
26706W        W91526  26.711  28.175   3.129
26707W        W91527  19.030  12.666  14.176
26708W        W91528  44.539  29.470  12.684
26709W        W91529  18.179  16.676   3.113
26710W        W91530  39.112  16.958   2.841
26711W        W91531  41.404  12.734  11.645
26712W        W91532   8.712  14.186  12.046
26713W        W91533  21.294   0.383   0.837
26714W        W91534  21.690  39.809  11.739
26715W        W91535  35.576  16.105   1.698
26716W        W91536  34.894   3.226   2.743
26717W        W91537  12.152  39.362  11.110
26718W        W91538  33.241  40.322   0.444
26719W        W91539   3.662  44.948   0.924
26720W        W91540   7.222   9.657  14.893
26721W        W91541  23.492  23.373  13.674
26722W        W91542  32.874  23.943  13.171
26723W        W91543  15.630  27.722   3.647
26724W        W91544   2.129  31.078  10.515
26725W        W91545  25.765  15.406  11.111
26726W        W91546  29.105  22.609   4.563
26727W        W91547   5.830  32.299  10.727
26728W        W91548  18.773  39.568  13.008
26729W        W91549  38.113  44.773   1.670
26730W        W91550  12.750  40.591  13.612
26731W        W91551  15.039  23.054   1.341
26732W        W91552  40.229  23.449  11.161
26733W        W91553   3.448   0.246  14.707
26734W        W91554  25.134  22.525  14.373
26735W        W91555  36.509  38.080   0.422
26736W        W91556   0.445  16.981  11.461
26737W        W91557  23.963   0.301  12.807
26738W        W91558   7.087   6.609   2.184
26739W        W91559  17.555  18.979   0.320
26740W        W91560  32.821  37.333   5.104
26741W        W91561  40.055  35.000   1.785
26742W        W91562  13.400   8.795   3.177
26743W        W91563   1.417  31.848   1.230
26744W        W91564   7.622   0.287  10.552
26745W        W91565   9.728  17.052   2.655
26746W        W91566  13.536  29.072  14.411
26747W        W91567  42.330  43.361   4.295
26748W        W91568  38.515   7.012  12.513
26749W        W91569  37.948  19.846  12.012
26750W        W91570  39.908  11.149  13.980
26751W        W91571  11.232   2.715  12.901
26752W        W91572  32.508  12.569  12.481
26753W        W91573   8.755  41.678   0.206
26754W        W91574   8.889  43.541  11.176
26755W        W91575   8.436  18.111   3.756
26756W        W91576   7.095   3.014  13.456
26757W        W91577  26.183  13.842   4.124
26758W        W91578   7.210  28.661  14.039
26759W        W91579  19.763  44.285   2.351
26760W        W91580  21.180  33.186  10.521
26761W        W91581  34.299   3.867   4.499
26762W        W91582  32.702  20.264   1.471
26763W        W91583  21.196  21.710  12.079
26764W        W91584   1.306  25.583  14.491
26765W        W91585   9.059  22.570  10.174
26766W        W91586  14.400  12.514  13.919
26767W        W91587  10.564  12.791   4.559
26768W        W91588  32.851  34.355  13.400
26769W        W91589  38.815   0.863  12.463
26770W        W91590  30.497  12.113   0.769
26771W        W91591   6.758   5.846  11.642
26772W        W91592  19.589   2.312  10.386
26773W        W91593  12.388  12.711   3.188
26774W        W91594   9.556  14.966  11.316
26775W        W91595  27.124  32.932   1.393
26776W        W91596  26.537   6.184   0.969
26777W        W91597   2.904  16.494  12.841
26778W        W91598  29.647  38.741   4.102
26779W        W91599   1.528   3.231  14.798
26780W        W91600  27.776  37.357  13.024
26781W        W91601  13.802  38.801  10.399
26782W        W91602  14.729  24.620  10.670
26783W        W91603   0.168  14.534  12.539
26784W        W91604  44.820  17.626  14.925
26785W        W91605  31.325  30.978   0.673
26786W        W91606  25.425  22.510   4.617
26787W        W91607  29.662   8.848   1.688
26788W        W91608  37.589   1.872   3.733
26789W        W91609  36.012  16.628   2.896
26790W        W91610  37.552  17.002   5.372
26791W        W91611  32.708  14.582   0.065
26792W        W91612   5.876  39.553   2.302
26793W        W91613   1.951  12.214  13.499
26794W        W91614  15.750  20.269   4.598
26795W        W91615   0.249  18.193  10.741
26796W        W91616  36.213  21.160  12.304
26797W        W91617   5.285   5.930   3.838
26798W        W91618   7.681   9.548   3.970
26799W        W91619  40.794  20.112  12.052
26800W        W91620  42.604   1.860   2.159
26801W        W91621  33.316  32.676  12.223
26802W        W91622  42.829  22.733   5.011
26803W        W91623  20.764  33.157   0.896
26804W        W91624  39.283  35.027   4.407
26805W        W91625   5.986  35.073   2.301
26806W        W91626   7.219  21.327  11.647
26807W        W91627   5.760  12.722   4.335
26808W        W91628  26.480   3.892  14.333
26809W        W91629  22.752  15.290  13.970
26810W        W91630  17.267  41.502   4.260
26811W        W91631  34.071  40.401   1.927
26812W        W91632  41.053  32.139  13.106
26813W        W91633   5.865  20.269   2.888
26814W        W91634  17.620  33.623  10.516
26815W        W91635  13.674   2.778  14.994
26816W        W91636  37.904  32.168  10.056
26817W        W91637   9.389  32.669  13.981
26818W        W91638  38.132  31.900  13.929
26819W        W91639  11.712  44.940   1.042
26820W        W91640  38.808  26.709   4.581
26821W        W91641  10.799  21.183  14.339
26822W        W91642   3.213   7.637   3.299
26823W        W91643  25.202  40.310   0.421
26824W        W91644   1.816  43.639  12.958
26825W        W91645  37.507  30.110  12.980
26826W        W91646  14.696   4.984  10.552
26827W        W91647   4.427  21.095  14.006
26828W        W91648  11.616  36.520   0.060
26829W        W91649   4.371  40.756   4.712
26830W        W91650  34.882  23.771  14.940
26831W        W91651  16.068   6.899  12.487
26832W        W91652  29.562  44.103   1.773
26833W        W91653  14.206  40.401  13.967
26834W        W91654   8.775  23.608  13.249
26835W        W91655  22.227  20.334   2.813
26836W        W91656  14.598  34.760   0.886
26837W        W91657   4.943  13.039  13.874
26838W        W91658   7.287   4.195   2.360
26839W        W91659  34.269  42.965  14.962
26840W        W91660  16.168  35.165  12.605
26841W        W91661   3.230  13.755   1.117
26842W        W91662  29.705  40.901  14.183
26843W        W91663  35.139  15.819  11.808
26844W        W91664  29.361  13.546  13.923
26845W        W91665   5.854  41.501   2.459
26846W        W91666  37.507  10.981   3.225
26847W        W91667   1.439  14.744   2.860
26848W        W91668  10.849  39.564   4.265
26849W        W91669  22.681  23.577   2.825
26850W        W91670  40.682  43.339   2.865
26851W        W91671  30.990  11.850  14.391
26852W        W91672  12.748   5.600   4.751
26853W        W91673  34.400   1.091  13.419
26854W        W91674  34.448  20.095  11.007
26855W        W91675   4.207  30.733  14.239
26856W        W91676   4.292   4.971   0.548
26857W        W91677  17.121  39.330  13.595
26858W        W91678   7.794  44.552  11.091
26859W        W91679  27.509  41.755   2.779
26860W        W91680  28.998  38.344  12.540
26861W        W91681  23.412  38.601  13.607
26862W        W91682  25.950  41.784   4.969
26863W        W91683  10.485  29.596  13.107
26864W        W91684  28.307  38.476  11.060
26865W        W91685  29.478  39.960  12.069
26866W        W91686  34.378  39.841   3.679
26867W        W91687  28.433   3.326   3.142
26868W        W91688  12.612  44.895  10.421
26869W        W91689  14.847  21.163  11.592
26870W        W91690  41.386  41.992   0.435
26871W        W91691  16.129  34.048   4.858
26872W        W91692  30.584  29.705   3.208
26873W        W91693   1.685  35.106   0.834
26874W        W91694  23.281  41.059  13.428
26875W        W91695  25.786   4.691   0.456
26876W        W91696  17.707  22.064   0.231
26877W        W91697  25.031   6.485  10.775
26878W        W91698  28.227  17.006  11.626
26879W        W91699  43.055  39.907   0.124
26880W        W91700  11.587  11.228   2.999
26881W        W91701  20.919  38.478  13.327
26882W        W91702   3.688  36.515  13.686
26883W        W91703  29.947   2.817   1.446
26884W        W91704  21.060  24.605  13.541
26885W        W91705  37.997  18.701  12.087
26886W        W91706  32.082  25.055   3.169
26887W        W91707  39.507  34.052  13.628
26888W        W91708  10.363  21.921   2.474
26889W        W91709  39.380   5.425  14.903
26890W        W91710  34.482  38.702  12.020
26891W        W91711  23.541  23.544   1.426
26892W        W91712  13.622   9.754  12.111
26893W        W91713  42.045  25.593   0.269
26894W        W91714  13.486  32.694   3.998
26895W        W91715   9.420  13.167  13.984
26896W        W91716  33.661   6.934   3.252
26897W        W91717  43.047  31.458  11.143
26898W        W91718  17.488  34.110  12.977
26899W        W91719  12.942  37.306  10.736
26900W        W91720  39.064  16.995   4.647
26901W        W91721  17.216  21.450  10.734
26902W        W91722  25.934  25.056  14.920
26903W        W91723  38.673   9.687  11.996
26904W        W91724  18.819   6.557   4.125
26905W        W91725   0.183  26.922   4.100
26906W        W91726  15.837   4.451   4.557
26907W        W91727  40.772  29.589  14.466
26908W        W91728  25.492  34.053  14.886
26909W        W91729  32.258  16.569   0.150
26910W        W91730  34.158  43.879  13.805
26911W        W91731  43.942  28.539  14.500
26912W        W91732  31.729  38.109   1.767
26913W        W91733  37.291  29.760  14.441
26914W        W91734   8.049  22.476  10.798
26915W        W91735  42.752  35.399   1.844
26916W        W91736  16.764  34.914  14.724
26917W        W91737  19.583  18.711   3.720
26918W        W91738  15.565  14.302   2.823
26919W        W91739   4.817  14.748   0.357
26920W        W91740  13.846  21.019  12.376
26921W        W91741  37.476  42.511   1.388
26922W        W91742   1.300  17.328   2.445
26923W        W91743   4.355  26.557   1.708
26924W        W91744   3.212  33.044  14.626
26925W        W91745   1.304  10.157  14.731
26926W        W91746  26.577  32.978  10.885
26927W        W91747  26.361  19.287  13.984
26928W        W91748  22.539   3.014  14.813
26929W        W91749  27.153  15.852   1.940
26930W        W91750  36.545  20.819   0.325
26931W        W91751  34.911  37.424   2.202
26932W        W91752  35.538  24.627   0.297
26933W        W91753  33.089   7.352   0.409
26934W        W91754   1.411  21.567  12.884
26935W        W91755  30.950   0.118   2.278
26936W        W91756  19.828  39.033   4.126
26937W        W91757  18.158  23.194   4.208
26938W        W91758   6.483  39.011  11.579
26939W        W91759   3.417  43.405   1.882
26940W        W91760  40.303  11.855  14.957
26941W        W91761  28.252  27.829   2.322
26942W        W91762   6.276  18.034   2.338
26943W        W91763  19.697  15.126   0.968
26944W        W91764  39.380  26.764  10.680
26945W        W91765   7.199  20.308   3.405
26946W        W91766  21.629  25.578  14.490
26947W        W91767  41.755   4.914   2.812
26948W        W91768  29.544   4.924   4.268
26949W        W91769   6.214   0.799  13.265
26950W        W91770  19.095  25.159  10.446
26951W        W91771  40.932   8.380  13.988
26952W        W91772  42.928  19.536   4.072
26953W        W91773  23.043  19.193  10.023
26954W        W91774  40.656  15.250  13.907
26955W        W91775   3.947  26.544   3.727
26956W        W91776  19.256  28.471  14.589
26957W        W91777  14.690  35.898   2.948
26958W        W91778  40.356  38.927  13.954
26959W        W91779  20.104  30.328  10.810
26960W        W91780  15.134  29.231   1.324
26961W        W91781  22.309  16.314  14.855
26962W        W91782  41.847   7.629   2.756
26963W        W91783  30.144   6.805  14.505
26964W        W91784   6.419  15.756   1.981
26965W        W91785  32.298  24.445   2.794
26966W        W91786  20.612  35.353  12.525
26967W        W91787   0.301  24.488  14.848
26968W        W91788  41.865  17.062  14.810
26969W        W91789   7.091  37.742  11.129
26970W        W91790   1.665   5.861  13.511
26971W        W91791   6.807  21.563   2.306
26972W        W91792  34.451  12.295   1.073
26973W        W91793   6.181  23.503  14.458
26974W        W91794   6.956  31.408  10.490
26975W        W91795  36.018  22.177   3.168
26976W        W91796   7.142  28.036  14.388
26977W        W91797  12.390  18.861   0.222
26978W        W91798  37.487  26.245   1.634
26979W        W91799   5.756  36.123  12.728
26980W        W91800  29.883  11.893  10.514
26981W        W91801   1.422   6.318  13.085
26982W        W91802  26.653  25.684   0.030
26983W        W91803  44.739  22.413  10.182
26984W        W91804  21.741  10.582   1.235
26985W        W91805  25.612  41.823  11.963
26986W        W91806  33.415  18.627   1.647
26987W        W91807  30.031  19.290   3.633
26988W        W91808  30.944  20.735   0.204
26989W        W91809  26.443  28.611   1.420
26990W        W91810  25.472  33.327  13.918
26991W        W91811  21.952  20.927   3.266
26992W        W91812  40.051   0.059  13.786
26993W        W91813  40.298  25.069   2.166
26994W        W91814   8.089  23.930   3.191
26995W        W91815  33.976  20.090   3.271
26996W        W91816  13.321  11.193  10.791
26997W        W91817   9.958  44.938   0.258
26998W        W91818   3.453  44.819  13.828
26999W        W91819  10.164  26.823   2.268
27000W        W91820  28.227   7.741   1.972
27001W        W91821  14.333  25.914   0.552
27002W        W91822  31.530  10.469   3.165
27003W        W91823  19.473  39.529   3.736
27004W        W91824  43.790  26.241  12.092
27005W        W91825  41.990  31.450   3.670
27006W        W91826  20.002  33.407   4.662
27007W        W91827  10.454  33.896   4.222
27008W        W91828   3.668  16.139  12.413
27009W        W91829  36.086  39.979   3.635
27010W        W91830  10.996  18.887  10.678
27011W        W91831  10.136   1.643   3.672
27012W        W91832  14.402   7.135   2.107
27013W        W91833  14.222   0.316   4.672
27014W        W91834   8.859  20.104  13.533
27015W        W91835  28.698  19.751  14.554
27016W        W91836  35.127  10.846   0.315
27017W        W91837  39.300  43.722  13.982
27018W        W91838  11.453  36.110   3.785
27019W        W91839  43.982  10.011   0.647
27020W        W91840  35.272  41.394   1.739
27021W        W91841  16.968  21.058   2.635
27022W        W91842  21.021  23.864   3.954
27023W        W91843  27.061  10.297   3.224
27024W        W91844  35.136  31.157  14.007
27025W        W91845  15.083  28.415   3.142
27026W        W91846  25.721  31.656   5.057
27027W        W91847  17.234  39.051   4.587
27028W        W91848  43.618  12.242  11.990
27029W        W91849   2.369   6.949   1.396
27030W        W91850  34.135   7.847   4.382
27031W        W91851  23.168  37.108  11.456
27032W        W91852   6.005  35.968   1.199
27033W        W91853  13.680  44.809  13.433
27034W        W91854  26.065  23.108   2.645
27035W        W91855  25.373  25.663   3.700
27036W        W91856  13.680   8.632  14.313
27037W        W91857  15.734   4.332  12.346
27038W        W91858  19.520  40.377  11.445
27039W        W91859   8.173  43.785  12.794
27040W        W91860  21.960  44.943   2.740
27041W        W91861   5.784  40.573   4.191
27042W        W91862  41.519  36.399   0.725
27043W        W91863  25.569  40.812  11.844
27044W        W91864  23.564  42.530   1.250
27045W        W91865  15.172  23.501  11.906
27046W        W91866  20.235  41.781   4.331
27047W        W91867  37.521  26.603   4.176
27048W        W91868  26.690  38.233  10.676
27049W        W91869   2.284  15.823  12.589
27050W        W91870   7.885  24.437   2.701
27051W        W91871  23.167   8.312   4.436
27052W        W91872  29.038  31.118  13.268
27053W        W91873  41.438  18.785   4.107
27054W        W91874  17.295  39.934   1.238
27055W        W91875  39.226   1.542  10.779
27056W        W91876  32.941   6.844  12.259
27057W        W91877  35.716  24.985   5.239
27058W        W91878   3.265  39.857  14.815
27059W        W91879   2.582  17.930  10.298
27060W        W91880  14.819   5.665   2.790
27061W        W91881  13.605  32.881   1.353
27062W        W91882  32.660   1.025  11.700
27063W        W91883  42.331   3.314   3.703
27064W        W91884  16.700  38.484  12.371
27065W        W91885  19.975  24.193  11.718
27066W        W91886  24.793  17.575   4.640
27067W        W91887  27.607  10.215  13.233
27068W        W91888  26.980   4.435  13.453
27069W        W91889  27.462  38.798   4.671
27070W        W91890  14.228  34.066  10.645
27071W        W91891   5.739  41.767  12.430
27072W        W91892  27.363  15.975  13.159
27073W        W91893  31.589  13.524  10.765
27074W        W91894  33.807  33.823   1.704
27075W        W91895   1.947   0.042  11.143
27076W        W91896   2.655  23.849  12.884
27077W        W91897  40.151  14.275  13.020
27078W        W91898   8.657  43.549   4.056
27079W        W91899  14.134  18.867   2.677
27080W        W91900   7.901  10.838   3.636
27081W        W91901  42.748  17.173   3.808
27082W        W91902   1.977  44.294  10.618
27083W        W91903  19.591  19.172  13.854
27084W        W91904  20.947  26.848  13.068
27085W        W91905  12.440  31.689   1.277
27086W        W91906  35.860   7.243  14.151
27087W        W91907  24.635  27.378   2.643
27088W        W91908  18.258   8.357   3.737
27089W        W91909   0.209  44.198   4.095
27090W        W91910  10.299  25.448   4.132
27091W        W91911   6.941  32.953   0.475
27092W        W91912  41.063  27.629   1.392
27093W        W91913  27.872  43.919  11.207
27094W        W91914  10.568  25.198  13.342
27095W        W91915   5.015  23.978   3.566
27096W        W91916  24.181  19.266   1.778
27097W        W91917  36.078  13.529   2.319
27098W        W91918  24.737  18.245   9.873
27099W        W91919  25.379  20.692  11.231
27100W        W91920  12.124  39.740  11.490
27101W        W91921  40.951  13.043   0.821
27102W        W91922  21.809  36.591   4.994
27103W        W91923  25.236  37.547  14.441
27104W        W91924   1.703   5.473  12.588
27105W        W91925  11.149  14.531  12.511
27106W        W91926  38.218  35.638   1.758
27107W        W91927  17.298   8.776  13.004
27108W        W91928   6.312  26.635   4.838
27109W        W91929   0.943   7.806  11.759
27110W        W91930  36.342  29.640  10.743
27111W        W91931  39.887  30.036   1.932
27112W        W91932  21.523  27.293  11.614
27113W        W91933  29.326   0.447   2.126
27114W        W91934  12.086  34.856   0.398
27115W        W91935  12.280  21.031  10.280
27116W        W91936  31.385  34.317   0.548
27117W        W91937  24.544  24.729   0.437
27118W        W91938  30.726   2.427  14.489
27119W        W91939  19.161  26.582  13.697
27120W        W91940  21.185  25.672  11.958
27121W        W91941   0.775  13.283  11.117
27122W        W91942  12.156  21.281   1.267
27123W        W91943  13.608  29.931   0.199
27124W        W91944  16.256  33.664   0.712
27125W        W91945   2.244  43.365   3.478
27126W        W91946  22.113  44.793  12.972
27127W        W91947  43.334   3.938   4.150
27128W        W91948  12.981  10.741  14.451
27129W        W91949  38.367  42.246   4.172
27130W        W91950  39.531  32.560   1.121
27131W        W91951  23.148  35.906  14.722
27132W        W91952   2.917   4.044   2.651
27133W        W91953  16.849  14.909  14.415
27134W        W91954  19.620   5.808  14.910
27135W        W91955  34.802  37.457   4.586
27136W        W91956  28.074  28.507  14.255
27137W        W91957  32.407  26.114   1.297
27138W        W91958   7.590  37.051   2.261
27139W        W91959  34.047  35.373   1.612
27140W        W91960   6.364  43.999   2.137
27141W        W91961  16.142  23.992   3.153
27142W        W91962  17.066  41.673   0.120
27143W        W91963  29.316  43.370  13.471
27144W        W91964  38.598  26.213   2.256
27145W        W91965  24.799  30.718   1.890
27146W        W91966  28.947   9.449  13.915
27147W        W91967  33.109  31.849   5.107
27148W        W91968  14.301   7.239   4.151
27149W        W91969  44.460  14.397  10.441
27150W        W91970  26.470  17.420  12.071
27151W        W91971  14.682  22.694  13.602
27152W        W91972   4.773  11.640   2.635
27153W        W91973  23.099  32.959   2.714
27154W        W91974   4.478  10.718  14.193
27155W        W91975  16.081  31.277  10.206
27156W        W91976   3.317  44.962   1.307
27157W        W91977   6.814  15.618  14.723
27158W        W91978  38.431  38.601   3.565
27159W        W91979   8.434  24.497  14.899
27160W        W91980  30.377  10.187  13.612
27161W        W91981  29.062   2.897   0.386
27162W        W91982   1.996   0.801  13.845
27163W        W91983  42.397  44.983  12.891
27164W        W91984  33.175  12.961  10.514
27165W        W91985   6.792  27.129   2.630
27166W        W91986  16.751  32.451  12.804
27167W        W91987  38.386  13.104  12.863
27168W        W91988  18.016  13.658   3.386
27169W        W91989   3.771  39.349   2.237
27170W        W91990  12.859  38.583  13.454
27171W        W91991   4.410  32.100  11.200
27172W        W91992  28.407  26.512  13.610
27173W        W91993  34.181  14.128   4.184
27174W        W91994  37.758  30.242  11.123
27175W        W91995  31.511  44.970   0.974
27176W        W91996  25.950   9.302  14.033
27177W        W91997   0.971  18.527   1.240
27178W        W91998  25.619  25.032   1.763
27179W        W91999  11.215  13.764   1.662
27180W        W92000  34.130  16.687  14.892
27181W        W92001  33.661  41.590  13.779
27182W        W92002  33.864  17.247   1.973
27183W        W92003   8.359  37.291   2.642
27184W        W92004  28.353   0.452   0.829
27185W        W92005  11.454  26.692  10.820
27186W        W92006  12.918  31.800  10.796
27187W        W92007  14.026  20.738   0.877
27188W        W92008  20.443   0.774   0.823
27189W        W92009   5.165  34.423   2.124
27190W        W92010  42.893  36.361   3.682
27191W        W92011  34.183  22.959   4.012
27192W        W92012   5.304  40.059  11.996
27193W        W92013  26.071   7.176   1.192
27194W        W92014  30.436  27.193  14.318
27195W        W92015  39.059  11.345  14.465
27196W        W92016   4.030  28.532  13.897
27197W        W92017  42.961  35.956  14.066
27198W        W92018   8.658  24.489   1.463
27199W        W92019  18.038  26.021  14.892
27200W        W92020  10.245  14.248   2.901
27201W        W92021  40.229   2.218   0.984
27202W        W92022  21.094  33.924  14.187
27203W        W92023  28.007   7.845  12.395
27204W        W92024   7.322  15.604   1.892
27205W        W92025  34.531  25.686   1.913
27206W        W92026  31.954  41.366  11.249
27207W        W92027  17.026  33.495   4.290
27208W        W92028  31.134  34.171   2.318
27209W        W92029  13.883  14.651   3.849
27210W        W92030  33.672  19.592   0.961
27211W        W92031  39.961  34.795   2.253
27212W        W92032  13.181  35.454   3.741
27213W        W92033  39.773   7.758   3.235
27214W        W92034  18.168  18.510   2.415
27215W        W92035  28.148  34.172  11.854
27216W        W92036   9.355  21.609   3.197
27217W        W92037  41.591  14.395  13.102
27218W        W92038  43.699  24.605   4.625
27219W        W92039   6.712  43.583  14.747
27220W        W92040  13.239  41.542  12.396
27221W        W92041   2.798  42.895  14.605
27222W        W92042   0.581  11.311   3.474
27223W        W92043   6.934  20.555  12.483
27224W        W92044   0.784  21.267   1.727
27225W        W92045   3.419  24.979  10.783
27226W        W92046   2.832  27.079   1.453
27227W        W92047  36.450  44.927   1.549
27228W        W92048  36.074  15.380  11.816
27229W        W92049  19.690   2.894   1.561
27230W        W92050  20.065  33.218   0.344
27231W        W92051  35.204  24.184   3.665
27232W        W92052  25.554   4.805   1.864
27233W        W92053  35.138  11.208  10.218
27234W        W92054  40.999   2.673   3.894
27235W        W92055  35.615  18.874   3.224
27236W        W92056  10.193  40.809  10.822
27237W        W92057  29.951   4.704   0.307
27238W        W92058  39.420  25.035  13.722
27239W        W92059  21.772   2.462   3.166
27240W        W92060  22.639  25.308   3.632
27241W        W92061  17.528   7.349   2.230
27242W        W92062  16.649  18.594   4.472
27243W        W92063   8.403  43.333   0.904
27244W        W92064  12.173  37.580   1.949
27245W        W92065   2.010  17.771   3.430
27246W        W92066   1.681  43.113  12.866
27247W        W92067  34.336  19.549   0.199
27248W        W92068  32.341  12.404   2.367
27249W        W92069  14.652  22.956  11.505
27250W        W92070  25.473  38.897   1.990
27251W        W92071  17.192   8.678   2.662
27252W        W92072   2.801  11.852   2.025
27253W        W92073  42.365  14.093   0.817
27254W        W92074  43.003  28.913  13.154
27255W        W92075  35.885  27.170  10.654
27256W        W92076  21.542  42.107  13.108
27257W        W92077  40.883  29.814  13.554
27258W        W92078  29.135  38.572   1.097
27259W        W92079   0.429  29.649  11.593
27260W        W92080  22.217  20.505   1.731
27261W        W92081  30.416  30.431   4.094
27262W        W92082  17.068  19.537  11.685
27263W        W92083  33.878  14.650   3.021
27264W        W92084  44.377  15.519   4.136
27265W        W92085  23.492  11.836  14.342
27266W        W92086  24.022  24.874   3.188
27267W        W92087  20.261  43.775  12.933
27268W        W92088  38.702   8.810   4.580
27269W        W92089  41.424   2.965   3.823
27270W        W92090  12.244   8.671   0.369
27271W        W92091   4.477   7.756  14.346
27272W        W92092   3.225  34.519   4.028
27273W        W92093  37.036  18.784  14.549
27274W        W92094  28.658   5.747   2.376
27275W        W92095   0.893  28.070   4.365
27276W        W92096  38.785   5.672  12.587
27277W        W92097   3.685  26.697  11.864
27278W        W92098  29.840  43.147   1.877
27279W        W92099  15.079  18.298   2.488
27280W        W92100  36.500  26.795   0.640
27281W        W92101  15.886  31.485   3.637
27282W        W92102  19.837  39.444  14.270
27283W        W92103  24.082  44.652  12.007
27284W        W92104   9.040   1.982  13.882
27285W        W92105  30.259  32.000  11.464
27286W        W92106  40.302  25.490  12.062
27287W        W92107  33.118  31.368   1.336
27288W        W92108   0.560  13.984   3.653
27289W        W92109   7.155  13.370  12.485
27290W        W92110  27.165   0.606   1.800
27291W        W92111  29.222  23.677  11.161
27292W        W92112   5.635  31.334  13.342
27293W        W92113  20.317  12.357  11.132
27294W        W92114  30.036  44.954   3.658
27295W        W92115  36.018  30.423   4.887
27296W        W92116  11.577   3.151   5.118
27297W        W92117  26.397  25.022  13.486
27298W        W92118   7.465  26.647   0.728
27299W        W92119  43.927  28.250   2.630
27300W        W92120  26.876  29.335  10.339
27301W        W92121  28.518   1.384  14.553
27302W        W92122  35.352  17.897   2.181
27303W        W92123   3.711   2.153  12.006
27304W        W92124  42.121  10.515   1.759
27305W        W92125  20.591   5.621  12.821
27306W        W92126  15.206  33.197  14.414
27307W        W92127  29.401  10.938  14.780
27308W        W92128   8.018  17.795  12.308
27309W        W92129  21.801   3.047  11.212
27310W        W92130  24.161  35.852   0.205
27311W        W92131  35.165  43.141   1.816
27312W        W92132  24.491   1.381  12.157
27313W        W92133  34.455  40.977  11.665
27314W        W92134  44.536   0.033  13.792
27315W        W92135  34.762  36.514  11.450
27316W        W92136  39.347  24.691  14.545
27317W        W92137   7.312   1.466  11.622
27318W        W92138  16.990  28.168   2.206
27319W        W92139  24.774  42.993   4.603
27320W        W92140  15.638  35.509   1.559
27321W        W92141   3.681  42.618   2.342
27322W        W92142  33.816  19.660  11.654
27323W        W92143   3.345  34.793   4.631
27324W        W92144  32.994  30.636  13.113
27325W        W92145  18.037  33.403  11.646
27326W        W92146  22.890  20.688   0.221
27327W        W92147  36.908   2.450   1.806
27328W        W92148  35.369  36.439  10.788
27329W        W92149  28.741  31.010  12.481
27330W        W92150  42.904  15.242  13.504
27331W        W92151   0.291  26.108   1.669
27332W        W92152  40.879  43.727   0.866
27333W        W92153  32.706  37.959   4.625
27334W        W92154  32.337  35.127   1.258
27335W        W92155  42.806  22.045  14.070
27336W        W92156  15.806   2.363   2.084
27337W        W92157  35.607  11.701  13.510
27338W        W92158  44.853  21.307   1.694
27339W        W92159   2.033  36.827   1.260
27340W        W92160  24.226  33.980   3.495
27341W        W92161  30.285  30.432   1.232
27342W        W92162  42.021  33.506   3.290
27343W        W92163  24.099   9.255  14.005
27344W        W92164  35.559  17.859   3.214
27345W        W92165  23.960  16.880  14.310
27346W        W92166  14.825  38.391  12.848
27347W        W92167   8.463  12.299  12.170
27348W        W92168  42.433  10.063   3.554
27349W        W92169   0.254   9.349   4.383
27350W        W92170  43.843  31.393  13.843
27351W        W92171   0.209   3.900  12.084
27352W        W92172  28.020  10.901   1.317
27353W        W92173  39.814  10.595  14.870
27354W        W92174  39.033  34.645   0.746
27355W        W92175  32.083  13.760   2.305
27356W        W92176  25.014  32.039   3.149
27357W        W92177  11.143   2.684   3.228
27358W        W92178  35.785  11.985  14.507
27359W        W92179  39.779  27.161   4.588
27360W        W92180  44.114  43.158  10.987
27361W        W92181  20.944  42.739   1.379
27362W        W92182  13.879  32.598  11.549
27363W        W92183  26.985  11.293   1.944
27364W        W92184  37.864  13.834  10.701
27365W        W92185  19.755  18.367   2.306
27366W        W92186   9.611  42.487   2.660
27367W        W92187   0.156  18.399   0.341
27368W        W92188  30.956  19.431   3.149
27369W        W92189  43.318   0.725  10.318
27370W        W92190  12.811  28.389   2.729
27371W        W92191   5.344  19.202  12.472
27372W        W92192  36.797  40.446  12.889
27373W        W92193  39.957  43.693  11.150
27374W        W92194  28.933   3.385   0.486
27375W        W92195  44.410  27.049   0.378
27376W        W92196   9.966   0.498   4.173
27377W        W92197  28.386  14.083  13.468
27378W        W92198   6.223   4.026  14.739
27379W        W92199  14.215  10.738   4.062
27380W        W92200   8.468  10.272  14.627
27381W        W92201  40.995  37.288   0.827
27382W        W92202  25.709   9.244   0.580
27383W        W92203  20.679  34.032  14.518
27384W        W92204  13.397  31.980   2.791
27385W        W92205  29.538  37.577   1.921
27386W        W92206  24.736  19.611   0.733
27387W        W92207  26.639  10.882   3.904
27388W        W92208  23.220  33.874  11.580
27389W        W92209   1.449  37.465  12.822
27390W        W92210   4.165  31.090   4.079
27391W        W92211  14.103   4.608   0.498
27392W        W92212   5.397  10.355  12.841
27393W        W92213  30.850  20.027   1.925
27394W        W92214  16.862  16.677   4.751
27395W        W92215  11.849  24.286   2.565
27396W        W92216  17.560   4.481  13.403
27397W        W92217  25.375   6.418   2.333
27398W        W92218  10.254  35.610   2.182
27399W        W92219  24.730   2.373   4.515
27400W        W92220  38.079  27.600  11.599
27401W        W92221  23.578  18.204  11.903
27402W        W92222  13.188  36.364  13.411
27403W        W92223  10.812  27.961  12.469
27404W        W92224   2.133  22.269  11.683
27405W        W92225  30.931  30.376   4.153
27406W        W92226  37.901  21.528  14.329
27407W        W92227  16.714  26.090  12.033
27408W        W92228  12.556   6.947   0.844
27409W        W92229   6.683   1.389   2.950
27410W        W92230   2.489  20.292   4.137
27411W        W92231  30.132  18.119  14.982
27412W        W92232  37.803  15.744  13.071
27413W        W92233   0.479  26.158   1.205
27414W        W92234  12.218  30.408  14.843
27415W        W92235   2.418   4.914   9.709
27416W        W92236  14.632  18.942  12.009
27417W        W92237  13.886   7.351  14.929
27418W        W92238  25.930   7.474   3.246
27419W        W92239  28.731  17.150  11.525
27420W        W92240  19.804  44.031  14.354
27421W        W92241  29.921  24.893  14.375
27422W        W92242   1.347  34.519   2.747
27423W        W92243   0.459  42.903   4.179
27424W        W92244  43.274  30.634  13.969
27425W        W92245  26.985  11.159   0.530
27426W        W92246   5.143  20.837   1.214
27427W        W92247   1.911  15.113   4.614
27428W        W92248  20.392  14.295  10.153
27429W        W92249  16.831   0.289   2.801
27430W        W92250  14.766  23.209  13.452
27431W        W92251  38.742   7.675  13.949
27432W        W92252   3.501  14.637   1.818
27433W        W92253  18.521   5.710  14.610
27434W        W92254  30.758  18.598   2.820
27435W        W92255   4.976   3.119  12.012
27436W        W92256  23.982   3.034   2.928
27437W        W92257  40.931   1.512   2.852
27438W        W92258   4.254  27.033   0.404
27439W        W92259  12.531  24.234  13.008
27440W        W92260  13.630   9.706  14.441
27441W        W92261   1.099  14.626  13.990
27442W        W92262  44.425  22.133  11.656
27443W        W92263   0.756  38.114  14.923
27444W        W92264   1.441  42.249  14.335
27445W        W92265  28.229  31.390  13.868
27446W        W92266  28.705  33.389  12.317
27447W        W92267  28.009  44.529  13.909
27448W        W92268  43.536   9.997  11.167
27449W        W92269  38.568  20.528   1.847
27450W        W92270  38.565   8.749  10.896
27451W        W92271  20.221  25.602   1.642
27452W        W92272  22.500  44.767  14.820
27453W        W92273  32.593  43.460   2.119
27454W        W92274  31.515  32.654  11.238
27455W        W92275   6.535  41.353  11.671
27456W        W92276  13.723  37.555   0.200
27457W        W92277  35.088   8.109   4.610
27458W        W92278  15.717  22.710   0.037
27459W        W92279   5.348   2.497  11.436
27460W        W92280  12.204  32.977   0.870
27461W        W92281  17.009  32.994  14.826
27462W        W92282  13.610  14.014   1.685
27463W        W92283  22.672  31.709  10.958
27464W        W92284  18.075   8.984   5.474
27465W        W92285  15.612  31.610  11.078
27466W        W92286   3.807   8.852   1.025
27467W        W92287  32.842  23.442   0.780
27468W        W92288  10.360  14.121   1.458
27469W        W92289  39.020  11.910  12.128
27470W        W92290   6.300  28.691  11.857
27471W        W92291  10.058  17.147  13.426
27472W        W92292  20.602  26.575  14.695
27473W        W92293  41.386  19.500  13.689
27474W        W92294   4.206  33.634  12.564
27475W        W92295  32.145   4.852  11.613
27476W        W92296  43.905  36.951  12.353
27477W        W92297  42.420  15.926   2.816
27478W        W92298  19.146   6.649   3.732
27479W        W92299  18.178   3.469   3.746
27480W        W92300   4.532  36.879   1.903
27481W        W92301  22.246   4.200  10.582
27482W        W92302  31.072  41.833  12.094
27483W        W92303  11.911  22.844   2.037
27484W        W92304  21.398  24.791   4.156
27485W        W92305   6.041  38.879  10.144
27486W        W92306  22.015  26.035   0.250
27487W        W92307  36.566  31.550  13.542
27488W        W92308  15.380  28.946   9.690
27489W        W92309   9.836  33.607  10.977
27490W        W92310  39.999  26.009  14.958
27491W        W92311  38.635  36.381   0.432
27492W        W92312  27.696  17.635  10.146
27493W        W92313  20.811  16.327  12.039
27494W        W92314   6.448   2.767   1.248
27495W        W92315  12.881  31.211  11.167
27496W        W92316  33.226   7.499  13.339
27497W        W92317  40.800  15.170   4.649
27498W        W92318  40.011  20.721  10.557
27499W        W92319  37.628  16.234  10.906
27500W        W92320  37.762   0.466   2.739
27501W        W92321   0.874  24.613  13.268
27502W        W92322  14.246  17.727  13.171
27503W        W92323  21.579  36.440   0.006
27504W        W92324  44.384  20.207  12.223
27505W        W92325  35.334  17.629  12.474
27506W        W92326  34.480   4.464  12.593
27507W        W92327  43.509  31.087  13.549
27508W        W92328  23.171  34.914  11.494
27509W        W92329  29.632  25.174  12.986
27510W        W92330   5.132   7.384  12.158
27511W        W92331  37.963  23.427  12.923
27512W        W92332  40.371  20.186   1.638
27513W        W92333   1.413  12.011  11.697
27514W        W92334   4.158  21.691  13.017
27515W        W92335  23.418  32.180  11.133
27516W        W92336   9.450   5.670  12.718
27517W        W92337  14.599   2.624   0.306
27518W        W92338  13.259   4.955   4.859
27519W        W92339  24.100  28.627  11.278
27520W        W92340  23.285  39.975  12.504
27521W        W92341  44.275  10.094  14.903
27522W        W92342  16.148  39.237  12.435
27523W        W92343   8.569  15.846   9.819
27524W        W92344   2.892  42.822  13.264
27525W        W92345  14.658  36.472  10.939
27526W        W92346  44.194  20.313   4.609
27527W        W92347  36.481  17.397  10.285
27528W        W92348  26.923  29.592   4.087
27529W        W92349  25.137  21.234   1.231
27530W        W92350   9.093   4.467   0.840
27531W        W92351  24.900   9.851   4.171
27532W        W92352  10.809  19.966   3.483
27533W        W92353  33.908  39.951   4.459
27534W        W92354  24.545  12.283  12.615
27535W        W92355   3.664  39.617  12.285
27536W        W92356  14.289  43.282  14.753
27537W        W92357   8.811  26.391  13.588
27538W        W92358  22.987   1.417  12.507
27539W        W92359  34.050  24.055  12.116
27540W        W92360  22.296  36.851  11.174
27541W        W92361  35.785  43.486   4.160
27542W        W92362  29.348  18.725  13.014
27543W        W92363  13.027  38.122  11.252
27544W        W92364  26.209   0.447  11.134
27545W        W92365  17.586  22.739  14.865
27546W        W92366  32.554  30.035  11.827
27547W        W92367   6.928  42.262   3.180
27548W        W92368  41.841   2.376   3.905
27549W        W92369  44.278  21.288   0.457
27550W        W92370  11.899  24.536  11.344
27551W        W92371  25.985  16.954  12.971
27552W        W92372  11.903   8.291  12.959
27553W        W92373  11.025  10.123  11.487
27554W        W92374  14.737   1.258   3.103
27555W        W92375  32.648   8.685   4.060
27556W        W92376  20.609  30.066   3.099
27557W        W92377  15.833  10.828  13.776
27558W        W92378   7.331  28.793   5.428
27559W        W92379  42.544  33.064   3.807
27560W        W92380  18.120  28.782   2.262
27561W        W92381   0.255   5.193  11.527
27562W        W92382  30.329  28.063   3.534
27563W        W92383  30.517  25.588   2.845
27564W        W92384  36.312  23.228   0.020
27565W        W92385   0.196  26.940  14.801
27566W        W92386  36.615  17.691   0.026
27567W        W92387  16.731  43.866  14.658
27568W        W92388  16.567  34.516   1.303
27569W        W92389  31.532   1.871  10.771
27570W        W92390   9.384   4.817   4.026
27571W        W92391  10.622  38.922   0.914
27572W        W92392  25.417  44.434   2.861
27573W        W92393   7.585  38.495   0.744
27574W        W92394   7.854  29.028   3.677
27575W        W92395   1.949  36.077   4.606
27576W        W92396  38.517  17.287  11.956
27577W        W92397  27.485  39.317   4.661
27578W        W92398  31.175  25.040  11.178
27579W        W92399  15.511  23.182   4.211
27580W        W92400   2.981  20.685  13.438
27581W        W92401  10.391  23.504  10.682
27582W        W92402   8.241   8.423  12.511
27583W        W92403   9.810   3.303  12.482
27584W        W92404  24.592  18.684  13.829
27585W        W92405  41.602  10.558   2.811
27586W        W92406  24.967  39.144   2.754
27587W        W92407  43.812   3.913  13.323
27588W        W92408  30.914  10.983   4.057
27589W        W92409  25.430  38.391   2.780
27590W        W92410  18.511  42.762   4.571
27591W        W92411   8.951  14.789  10.291
27592W        W92412  13.565  18.532   0.459
27593W        W92413  30.670  35.113  13.133
27594W        W92414  34.414  12.217  10.618
27595W        W92415  24.179   8.068   2.671
27596W        W92416  44.507  39.537   0.480
27597W        W92417  15.058   2.875  13.776
27598W        W92418  21.108  26.014  12.577
27599W        W92419  41.762  35.801   3.315
27600W        W92420  35.288  10.745   4.097
27601W        W92421  14.286   4.818   4.857
27602W        W92422  14.502   6.953  14.426
27603W        W92423  29.496  34.587   1.806
27604W        W92424  29.295   2.292   5.102
27605W        W92425  22.463  30.165   0.858
27606W        W92426  26.039  43.897  11.072
27607W        W92427  38.405  11.848   4.961
27608W        W92428   3.759  27.661   1.487
27609W        W92429  29.434   6.888   4.782
27610W        W92430   1.208  40.550   3.720
27611W        W92431  10.262  18.465  13.508
27612W        W92432   3.374  10.279  10.831
27613W        W92433  20.405   9.231  14.835
27614W        W92434  30.592  17.858  11.594
27615W        W92435  11.485  19.030   3.985
27616W        W92436  28.155  38.884   5.060
27617W        W92437  22.848  33.507  14.164
27618W        W92438  23.636  21.125  13.968
27619W        W92439  34.099   5.206   3.855
27620W        W92440   6.739  40.409   1.700
27621W        W92441  43.751  21.456   2.772
27622W        W92442  42.294  39.326   3.678
27623W        W92443  34.527   4.032   0.420
27624W        W92444  15.587  35.280  11.204
27625W        W92445  29.019  29.689  12.305
27626W        W92446  35.515   7.787   2.703
27627W        W92447   5.596  20.313   1.900
27628W        W92448  12.225  26.723   2.317
27629W        W92449  29.793  28.502  10.618
27630W        W92450   7.782  30.672  13.361
27631W        W92451  15.446  13.440  13.499
27632W        W92452   9.115  13.650   3.791
27633W        W92453   7.703  41.615   4.640
27634W        W92454  36.982  42.171   2.880
27635W        W92455  23.252   1.474   1.757
27636W        W92456  44.325  35.470   0.445
27637W        W92457  29.602  33.091  11.165
27638W        W92458  21.143  12.717   0.046
27639W        W92459  26.107  41.032  11.162
27640W        W92460  23.152   9.920  11.568
27641W        W92461  25.887  31.532  11.446
27642W        W92462  12.387  23.695   2.305
27643W        W92463   4.434   9.289  11.633
27644W        W92464  39.469   0.332   0.896
27645W        W92465  38.137  40.869   3.234
27646W        W92466   7.679   5.236   2.379
27647W        W92467  26.958  35.859  11.553
27648W        W92468  39.657  28.041   4.007
27649W        W92469   6.372  34.202   0.817
27650W        W92470  13.390  31.814   5.419
27651W        W92471  22.794  36.369   3.578
27652W        W92472  39.350  42.420   0.397
27653W        W92473  29.973   6.683   1.823
27654W        W92474  30.661  10.321   4.577
27655W        W92475   2.788  24.906   0.401
27656W        W92476   6.379  32.277  10.311
27657W        W92477  26.324  26.355  11.493
27658W        W92478   1.864  12.492   0.778
27659W        W92479  31.613  12.561   2.708
27660W        W92480   2.545  32.576  12.653
27661W        W92481  23.792   1.142  11.169
27662W        W92482  30.639  15.589   3.771
27663W        W92483  35.239  34.373   2.709
27664W        W92484  34.794  27.954  12.896
27665W        W92485  22.141  24.903   3.809
27666W        W92486  43.502   1.920   2.305
27667W        W92487  24.631   3.261   0.945
27668W        W92488  24.697  16.603   9.833
27669W        W92489  40.830  44.740   1.898
27670W        W92490   0.884   1.193   2.324
27671W        W92491   7.354  30.711  13.017
27672W        W92492   7.324  37.882  12.842
27673W        W92493  44.795   4.747   2.987
27674W        W92494   5.914   3.041  10.634
27675W        W92495  27.179  36.572   0.664
27676W        W92496  40.026  35.892  10.640
27677W        W92497  24.028   4.867  11.179
27678W        W92498  17.699  39.351  11.039
27679W        W92499  16.015  30.642  11.222
27680W        W92500   0.499   0.819   0.757
27681W        W92501  21.998  44.125   1.457
27682W        W92502   8.394  12.887   2.019
27683W        W92503  11.396  36.269  10.488
27684W        W92504  32.529  16.664   2.305
27685W        W92505  34.992  44.442   0.779
27686W        W92506  33.503   3.120  12.060
27687W        W92507   7.811  29.985  13.849
27688W        W92508  37.865  23.507   4.240
27689W        W92509  15.554   7.599  13.447
27690W        W92510  32.534  10.576  12.561
27691W        W92511  18.164  26.485  13.936
27692W        W92512  26.653  12.213  14.038
27693W        W92513  29.523  38.950  12.986
27694W        W92514  26.232  17.657   0.945
27695W        W92515  41.794   9.269  14.828
27696W        W92516  29.997  38.768   1.461
27697W        W92517  19.590  16.228  12.570
27698W        W92518  18.680   3.464   3.146
27699W        W92519   1.659  24.312  12.985
27700W        W92520  39.043   2.717  13.316
27701W        W92521  28.039  44.314   4.645
27702W        W92522  22.606  31.460  14.038
27703W        W92523  37.341   8.313  11.104
27704W        W92524  26.216  33.591   3.313
27705W        W92525   4.222  19.093   0.522
27706W        W92526  32.100  40.402  12.666
27707W        W92527  35.448  27.041  11.206
27708W        W92528   1.245  31.120   0.657
27709W        W92529  35.646  44.884   0.468
27710W        W92530  35.654  14.518  14.467
27711W        W92531  19.205  12.127   4.428
27712W        W92532  26.041  19.007  12.784
27713W        W92533  22.881   3.892   0.284
27714W        W92534  35.379  23.655   3.637
27715W        W92535  14.694  25.755  12.075
27716W        W92536  44.856  25.689  11.918
27717W        W92537  24.268  31.957   1.423
27718W        W92538  29.961  30.850  11.095
27719W        W92539  30.137  15.584   3.813
27720W        W92540  27.509  20.987  14.823
27721W        W92541  43.553  32.085  13.472
27722W        W92542  12.291  32.732   1.326
27723W        W92543  41.996   4.688   4.680
27724W        W92544  23.537  12.567   4.980
27725W        W92545  23.811   3.336  13.299
27726W        W92546  34.321  33.107   1.281
27727W        W92547  26.721   2.037   5.040
27728W        W92548   5.961  38.385   4.811
27729W        W92549  20.531   3.465   1.688
27730W        W92550  28.591  12.654  12.598
27731W        W92551  43.635  36.771  11.496
27732W        W92552  35.050  26.739  14.824
27733W        W92553  21.070  20.640  10.148
27734W        W92554  29.255  28.101  14.360
27735W        W92555  35.934   1.309  11.295
27736W        W92556  37.646  37.570  10.689
27737W        W92557  43.447  22.704  14.541
27738W        W92558  31.101  39.560   1.282
27739W        W92559  22.428  42.327   4.526
27740W        W92560  36.156   7.565  10.771
27741W        W92561  10.156  21.789  11.305
27742W        W92562  14.872  43.806   4.707
27743W        W92563  43.304  23.991  11.735
27744W        W92564   6.234   5.002   1.295
27745W        W92565   4.283   6.856  14.505
27746W        W92566  24.315  10.366   5.391
27747W        W92567  44.479   4.011   1.357
27748W        W92568  34.928  24.085   0.806
27749W        W92569  33.181   5.252   3.735
27750W        W92570  25.753  10.220   1.357
27751W        W92571  24.282   9.219  12.533
27752W        W92572  38.557  32.507   1.981
27753W        W92573  19.510  21.209   0.305
27754W        W92574  41.310  21.718   2.658
27755W        W92575  22.937  26.299  11.494
27756W        W92576  28.861  16.760  14.867
27757W        W92577   0.387  37.456  13.017
27758W        W92578  36.107  25.724   1.558
27759W        W92579  28.437   7.599  14.484
27760W        W92580  25.667  13.811   4.119
27761W        W92581  16.939   0.836   0.997
27762W        W92582  37.163  12.100  14.714
27763W        W92583  13.809  41.047   1.447
27764W        W92584  10.860  29.176  12.935
27765W        W92585   3.864   4.153  13.326
27766W        W92586  22.284  30.103  11.478
27767W        W92587   5.301  14.047  12.594
27768W        W92588  28.523  19.696   2.896
27769W        W92589  32.893  35.588  11.180
27770W        W92590  29.663   1.426   4.863
27771W        W92591  25.933  39.964   1.596
27772W        W92592  26.230  11.081  14.318
27773W        W92593  18.686  32.066  13.798
27774W        W92594   8.223  31.648   1.486
27775W        W92595  12.491  35.897   3.994
27776W        W92596  21.629   5.318   4.351
27777W        W92597  18.802  37.716  12.600
27778W        W92598  23.152  40.095   3.323
27779W        W92599  21.373   3.798   0.879
27780W        W92600  40.340  27.173  10.412
27781W        W92601  16.202  34.937   1.431
27782W        W92602  17.897  38.744  12.907
27783W        W92603   1.322  14.787   4.981
27784W        W92604  12.632   1.888   3.120
27785W        W92605   8.854  34.912  13.888
27786W        W92606   7.654  22.552  14.370
27787W        W92607   3.390  36.567   2.728
27788W        W92608  11.047  33.089  12.997
27789W        W92609  35.664   0.754  14.085
27790W        W92610  16.581   4.132  12.039
27791W        W92611  23.130   8.922  13.896
27792W        W92612  23.300   4.439  12.057
27793W        W92613  12.047  11.242  13.650
27794W        W92614  25.826  44.000   2.871
27795W        W92615  21.672  35.976   1.355
27796W        W92616  39.156   8.509   4.567
27797W        W92617  38.656  26.663  10.811
27798W        W92618  31.171  18.722  14.347
27799W        W92619  28.506  34.765  13.043
27800W        W92620  38.039  33.712  10.390
27801W        W92621   9.903   7.302  13.093
27802W        W92622   9.768  28.437  12.718
27803W        W92623  26.644  36.015   3.114
27804W        W92624   5.184  21.717  12.880
27805W        W92625  15.183  34.704   0.267
27806W        W92626  24.516  10.178  10.259
27807W        W92627   9.170   2.050  11.531
27808W        W92628  14.240   0.397  13.949
27809W        W92629  32.081  21.815   2.179
27810W        W92630  41.178   9.661   4.056
27811W        W92631  16.870  26.240  10.817
27812W        W92632  14.250  12.095   4.055
27813W        W92633   8.417  20.547   3.155
27814W        W92634  13.147  22.716  13.199
27815W        W92635  42.239   6.343  13.957
27816W        W92636   6.452  12.834  12.061
27817W        W92637  43.952  43.560  14.077
27818W        W92638  10.245  36.748   4.034
27819W        W92639  14.515  27.127   3.123
27820W        W92640  36.545  20.082   4.760
27821W        W92641  27.128  41.133   5.075
27822W        W92642  30.104  22.644   3.683
27823W        W92643  24.096  24.516  12.851
27824W        W92644  11.297  41.568   1.198
27825W        W92645  34.100  17.461  10.203
27826W        W92646  29.112  42.565  10.786
27827W        W92647  32.196  18.609   2.867
27828W        W92648  24.014   4.170  13.984
27829W        W92649  22.548  42.832  11.721
27830W        W92650  33.142  30.166   1.907
27831W        W92651  43.020   4.747   3.230
27832W        W92652  44.787  31.202  11.318
27833W        W92653  35.087  23.651  10.321
27834W        W92654  39.069  18.177  11.545
27835W        W92655  33.033  23.746   4.032
27836W        W92656  20.485   5.976  13.802
27837W        W92657  25.532  19.657  14.755
27838W        W92658  28.075  13.059   3.239
27839W        W92659  12.297   6.049   1.897
27840W        W92660  26.029  10.316  14.887
27841W        W92661  11.114  22.591   1.924
27842W        W92662  26.820  17.064  11.939
27843W        W92663  24.051   9.599  12.822
27844W        W92664  28.717  35.072  13.380
27845W        W92665   0.799  42.595   5.087
27846W        W92666   9.656  28.549   1.445
27847W        W92667  22.038   6.673  11.431
27848W        W92668  34.839  19.105   3.188
27849W        W92669  23.834  18.925  10.232
27850W        W92670   0.982  16.396  14.376
27851W        W92671  38.391  41.017  14.531
27852W        W92672   0.912  14.904  14.408
27853W        W92673   0.529   1.760  12.197
27854W        W92674  39.872  18.240  12.817
27855W        W92675  12.329  14.860   0.881
27856W        W92676   9.248  34.516  10.644
27857W        W92677  13.879  43.946   4.612
27858W        W92678  16.814  19.712  12.094
27859W        W92679  26.560  30.232   1.052
27860W        W92680  26.232   7.143  12.551
27861W        W92681  31.959  43.238  12.564
27862W        W92682  13.797  30.667  12.924
27863W        W92683  25.992  10.683   1.382
27864W        W92684  39.247   5.848  12.460
27865W        W92685   3.211  21.263   1.325
27866W        W92686  41.912  19.165  10.965
27867W        W92687  29.068  30.589  13.313
27868W        W92688  23.713   4.148  12.147
27869W        W92689  29.393  20.200  11.510
27870W        W92690  15.781  19.511  11.991
27871W        W92691   9.345   3.758   3.869
27872W        W92692  22.739  20.665  14.344
27873W        W92693  25.205  33.682   3.720
27874W        W92694  15.102   1.970   0.913
27875W        W92695  32.543   7.082  10.795
27876W        W92696   9.707  26.242   4.043
27877W        W92697  27.514  16.872   1.244
27878W        W92698  39.886  18.002   1.280
27879W        W92699  44.793  13.077  11.164
27880W        W92700  28.881  33.791   0.801
27881W        W92701  41.376   5.822  10.891
27882W        W92702   5.203   1.793  14.135
27883W        W92703  11.279   9.436  12.759
27884W        W92704  21.620   1.253   2.774
27885W        W92705  11.187  18.572   0.658
27886W        W92706  39.617  27.078  10.216
27887W        W92707  39.077  22.405  11.581
27888W        W92708  22.534  28.098  10.761
27889W        W92709   1.963  30.455  11.177
27890W        W92710   6.914   0.948   0.360
27891W        W92711  32.646   9.303   0.522
27892W        W92712  41.559   9.723   3.684
27893W        W92713  42.079  16.455   0.779
27894W        W92714  28.950  24.146  13.562
27895W        W92715   8.575   8.138   0.012
27896W        W92716  25.725  42.266   1.387
27897W        W92717  37.415   8.205   3.149
27898W        W92718  10.699  37.556  12.946
27899W        W92719  11.675  25.473  13.900
27900W        W92720  20.229  43.717  14.289
27901W        W92721   9.363  20.983  10.081
27902W        W92722  17.370  24.099   3.722
27903W        W92723  11.097  42.782   3.211
27904W        W92724  42.785   6.621  14.338
27905W        W92725  38.430  23.175   0.814
27906W        W92726  18.700  27.152  14.265
27907W        W92727  35.651  10.306   9.790
27908W        W92728  42.501  38.937  13.377
27909W        W92729   4.290  11.413   1.923
27910W        W92730  10.424  15.826   1.887
27911W        W92731  27.436   0.891   3.735
27912W        W92732  10.219  43.834  10.194
27913W        W92733   3.421   5.742  10.690
27914W        W92734  18.957  24.794   0.109
27915W        W92735  32.554  20.722   1.671
27916W        W92736  38.506   9.106  13.822
27917W        W92737  40.022  41.493   2.576
27918W        W92738  33.120  35.173   0.909
27919W        W92739  22.201  29.884   1.231
27920W        W92740   9.716  15.118   5.029
27921W        W92741  35.993  20.978   2.546
27922W        W92742   4.733   5.795  14.818
27923W        W92743  11.409  26.528   2.651
27924W        W92744  11.859  20.241  11.966
27925W        W92745  43.909  16.206  12.317
27926W        W92746  43.056   3.262   4.117
27927W        W92747  28.878   0.291  10.697
27928W        W92748  27.037   3.938  13.386
27929W        W92749  13.580  14.384   0.435
27930W        W92750  35.504  39.033  11.178
27931W        W92751  14.601   0.768   3.113
27932W        W92752  30.545  38.588  14.335
27933W        W92753   1.017  30.242  10.770
27934W        W92754  23.031  31.986  13.086
27935W        W92755  11.793  13.362   4.542
27936W        W92756  18.237  39.991   3.327
27937W        W92757  13.843  12.424  13.071
27938W        W92758   7.871  10.748   4.606
27939W        W92759  30.174  37.125  11.935
27940W        W92760   2.194   3.986   3.247
27941W        W92761  34.436  34.470  10.701
27942W        W92762  36.786  35.643   1.795
27943W        W92763  25.053  42.278  13.913
27944W        W92764  33.431  32.690   3.664
27945W        W92765   5.010  15.725   0.037
27946W        W92766  18.098   0.757  12.135
27947W        W92767  24.428  43.624   2.688
27948W        W92768  12.773  22.964  11.436
27949W        W92769   2.709   6.341   2.216
27950W        W92770  11.023  38.132   1.460
27951W        W92771  34.126  33.925  11.216
27952W        W92772   0.121  11.158   3.365
27953W        W92773   2.337  17.181   1.571
27954W        W92774  26.736  29.925  13.903
27955W        W92775   6.904  35.342  11.106
27956W        W92776   2.938  15.931  12.051
27957W        W92777   0.144  22.675  13.842
27958W        W92778  30.469  22.237  11.177
27959W        W92779   8.668  38.547  12.079
27960W        W92780  15.809  18.940   2.003
27961W        W92781  11.316  11.130  14.728
27962W        W92782  14.806  22.238   3.881
27963W        W92783  34.946  36.570  12.739
27964W        W92784  14.209  23.994   0.857
27965W        W92785  17.306  23.124   3.532
27966W        W92786   0.808  37.015  11.508
27967W        W92787  42.322  23.802  14.019
27968W        W92788  23.002  21.523   1.236
27969W        W92789  25.966   6.373   3.128
27970W        W92790  24.643  32.865   2.300
27971W        W92791  36.854   5.473  13.609
27972W        W92792  26.481   4.768   1.346
27973W        W92793  16.258  12.214   3.143
27974W        W92794  15.132  14.544   2.679
27975W        W92795  12.922  34.925  11.625
27976W        W92796   2.910  39.177  12.621
27977W        W92797  39.067  31.484  13.889
27978W        W92798  22.051  43.719   3.746
27979W        W92799  44.351  18.326   0.091
27980W        W92800  25.679  20.739  14.060
27981W        W92801  41.265  44.450  12.511
27982W        W92802  44.653  14.929  11.472
27983W        W92803  13.269  40.770   4.133
27984W        W92804  19.316  13.858   1.407
27985W        W92805  32.734   0.659   3.222
27986W        W92806   8.875  25.448  11.559
27987W        W92807   0.510  26.406  13.404
27988W        W92808  29.913  40.169  13.902
27989W        W92809   9.181  21.604   0.349
27990W        W92810  18.831  15.173  13.625
27991W        W92811  40.753  39.440  13.834
27992W        W92812  43.708  11.218  11.030
27993W        W92813  43.498  10.310   1.791
27994W        W92814  39.552  36.535   2.810
27995W        W92815  38.778  39.410   1.579
27996W        W92816  39.939   5.575   2.710
27997W        W92817  28.934  12.218   4.000
27998W        W92818   8.322  20.471  10.788
27999W        W92819  30.924  19.656   2.287
28000W        W92820  26.425   3.432  14.028
28001W        W92821   7.173   7.165  10.985
28002W        W92822   3.242   3.273   2.572
28003W        W92823  11.147  43.781  13.058
28004W        W92824   6.661  24.253   1.317
28005W        W92825  14.109  10.368   1.799
28006W        W92826  26.503  42.972  10.374
28007W        W92827  22.627   7.795   3.757
28008W        W92828  17.195   1.000  11.650
28009W        W92829  43.940  16.077  10.640
28010W        W92830  17.227  35.963  12.881
28011W        W92831  30.503   4.656   0.008
28012W        W92832   0.748  28.470  13.376
28013W        W92833  42.403   3.785  12.881
28014W        W92834  40.617  14.462   4.293
28015W        W92835  26.439  14.249   0.922
28016W        W92836  22.582  26.465  10.531
28017W        W92837  28.143  13.576  11.562
28018W        W92838  38.283  41.854  14.709
28019W        W92839  29.426  31.744   2.719
28020W        W92840  34.243  41.372  14.422
28021W        W92841   6.909  33.717  12.916
28022W        W92842  16.368  24.136  14.061
28023W        W92843  12.156  34.355   4.206
28024W        W92844   6.489  16.986   3.961
28025W        W92845  21.821  30.598  12.072
28026W        W92846  26.638  18.460  12.101
28027W        W92847   7.619  13.351   1.863
28028W        W92848  26.811  44.491  13.377
28029W        W92849  18.590   2.823  12.582
28030W        W92850  31.710   4.427  14.362
28031W        W92851  39.864   9.820  12.403
28032W        W92852  26.131  42.271   0.388
28033W        W92853  42.259  15.430   2.722
28034W        W92854  31.578  15.679   2.356
28035W        W92855  43.276  41.265  13.335
28036W        W92856   1.736  43.294  13.356
28037W        W92857  11.507   3.985  14.881
28038W        W92858  29.192  38.089  12.956
28039W        W92859  10.187  34.312   9.913
28040W        W92860  38.042  14.258   0.474
28041W        W92861   2.338   6.677  11.090
28042W        W92862  18.692   1.361   3.934
28043W        W92863  14.885  14.779   9.789
28044W        W92864   4.339  39.619  11.118
28045W        W92865  34.493  38.456   3.168
28046W        W92866  14.298  39.336   2.361
28047W        W92867  17.237  14.586  12.624
28048W        W92868  13.626  31.984  12.509
28049W        W92869  20.776  33.558   2.244
28050W        W92870  22.503  13.517   3.698
28051W        W92871  44.681   5.790   4.582
28052W        W92872   4.856  26.509  14.514
28053W        W92873  36.890  11.559  11.993
28054W        W92874  20.503  13.250   4.320
28055W        W92875  38.137  34.092  12.644
28056W        W92876   7.929   7.875  14.403
28057W        W92877  34.742  44.616  14.463
28058W        W92878   3.202  27.914  12.072
28059W        W92879  41.857   3.055  13.432
28060W        W92880  18.586  17.015   0.417
28061W        W92881  36.924  19.621   1.331
28062W        W92882  34.747  29.372  13.563
28063W        W92883  35.959  27.074  11.153
28064W        W92884   0.660  41.474  10.511
28065W        W92885   1.765  23.563   2.630
28066W        W92886  27.587  17.361  10.584
28067W        W92887  16.832  39.577  14.701
28068W        W92888  25.117  12.461  10.622
28069W        W92889   8.373   0.640   3.674
28070W        W92890  42.013  12.759   0.195
28071W        W92891   0.958  11.610  12.119
28072W        W92892  24.676   9.273   3.640
28073W        W92893  14.635  33.935   3.289
28074W        W92894  12.740  18.273  11.162
28075W        W92895  27.128  11.355  11.982
28076W        W92896   5.946  20.539  12.288
28077W        W92897  32.637  25.083   0.416
28078W        W92898  33.312   1.062   2.434
28079W        W92899  39.466   9.632  14.335
28080W        W92900  14.788   0.321   2.935
28081W        W92901  31.888  38.829   3.582
28082W        W92902  13.221  26.207   0.009
28083W        W92903  12.438  41.416   2.902
28084W        W92904   0.517  24.496  14.339
28085W        W92905   1.487   3.711  12.590
28086W        W92906  25.510  30.434   0.348
28087W        W92907  42.940  39.867   2.137
28088W        W92908  23.670   8.741  13.663
28089W        W92909  41.344  15.730  10.698
28090W        W92910  29.625  21.788  12.618
28091W        W92911  36.881  27.162  11.134
28092W        W92912  13.321  34.148   4.240
28093W        W92913  14.365  28.952   9.951
28094W        W92914  38.029  36.989   1.488
28095W        W92915  17.648  18.569   2.209
28096W        W92916   0.480  16.407   4.222
28097W        W92917   0.951   5.666  11.918
28098W        W92918  27.657  23.012  13.987
28099W        W92919  28.102   3.528   1.203
28100W        W92920  30.970   8.875   1.188
28101W        W92921  44.052  13.493  11.731
28102W        W92922  13.039  35.486   3.232
28103W        W92923  20.650  37.861  11.659
28104W        W92924   8.883  10.505  14.342
28105W        W92925  24.705   2.257  13.802
28106W        W92926  26.231  40.994   0.864
28107W        W92927  30.992  14.591  11.258
28108W        W92928  41.276  18.052  11.119
28109W        W92929  15.377  44.244  13.490
28110W        W92930  37.568  29.136   1.699
28111W        W92931  29.690  18.546  12.073
28112W        W92932  38.262  42.626  13.187
28113W        W92933  11.426  35.865  12.168
28114W        W92934  17.282  44.079  12.929
28115W        W92935   0.570  21.839   3.743
28116W        W92936   3.413  28.567   3.814
28117W        W92937  14.056   7.759   1.760
28118W        W92938  24.726  44.952   4.212
28119W        W92939  37.419  11.368  12.417
28120W        W92940  27.937  17.164  10.186
28121W        W92941  42.482  19.813   4.076
28122W        W92942  22.942  38.139  11.331
28123W        W92943  36.456   2.190   4.088
28124W        W92944  34.208  34.342  12.523
28125W        W92945   1.228   1.851   0.992
28126W        W92946   3.785  21.459   2.960
28127W        W92947  37.793   8.894   0.939
28128W        W92948  15.582  35.875  12.553
28129W        W92949  27.804  30.882   1.028
28130W        W92950  21.591  42.463  10.658
28131W        W92951   7.219  11.165  14.518
28132W        W92952  20.215   4.567   2.399
28133W        W92953  41.429  28.205   0.943
28134W        W92954  41.080  21.530  14.301
28135W        W92955  11.685  32.992   0.805
28136W        W92956  22.036   5.621   0.439
28137W        W92957  16.267   8.562   0.945
28138W        W92958   5.217  18.570   2.842
28139W        W92959  30.945  23.968  14.795
28140W        W92960  21.478  33.168   0.296
28141W        W92961  39.319  22.639   2.802
28142W        W92962   5.150  21.076  12.443
28143W        W92963   2.545   3.679   2.957
28144W        W92964  11.258   8.300   0.056
28145W        W92965   3.744  35.988  12.400
28146W        W92966   6.363   4.074   3.866
28147W        W92967  28.669   1.254  10.696
28148W        W92968   9.077  16.227  14.909
28149W        W92969  25.203  40.808   2.183
28150W        W92970  25.665  22.633   4.172
28151W        W92971  20.082  23.986  11.134
28152W        W92972  25.674  42.576   0.628
28153W        W92973  25.067  37.567  11.166
28154W        W92974  30.328  34.888   3.085
28155W        W92975  26.398  40.055   3.307
28156W        W92976  35.340  16.705  14.184
28157W        W92977  21.728  21.087  10.482
28158W        W92978  39.869  12.242   2.977
28159W        W92979   2.724  37.531   3.648
28160W        W92980  43.486   9.182  12.051
28161W        W92981  38.679  25.710  13.793
28162W        W92982  17.868  39.311   9.745
28163W        W92983  26.442  25.265  11.931
28164W        W92984  10.781  21.629  10.710
28165W        W92985   5.817   8.319  14.975
28166W        W92986   2.028  17.153   4.497
28167W        W92987  25.627   1.004   3.239
28168W        W92988  39.849  31.235  13.543
28169W        W92989   1.230  22.865   1.227
28170W        W92990  27.216  35.426  10.116
28171W        W92991  43.731  16.827  13.978
28172W        W92992  37.569  40.367   4.178
28173W        W92993  40.011  36.351   2.571
28174W        W92994  11.706  38.164   2.101
28175W        W92995  30.516  43.477  11.154
28176W        W92996   5.254   5.482  11.894
28177W        W92997  37.827  35.346  12.025
28178W        W92998   4.855  28.133   0.508
28179W        W92999  18.128   2.955   2.807
28180W        W93000  30.665  27.556  13.413
28181W        W93001  19.532   0.310  11.782
28182W        W93002  34.638  25.716  11.172
28183W        W93003  14.318  16.731  12.918
28184W        W93004  17.927  37.921   0.447
28185W        W93005   1.358   0.932   3.057
28186W        W93006  18.283   2.755  10.620
28187W        W93007  40.278  32.057   2.193
28188W        W93008  39.799  20.215   4.575
28189W        W93009  16.102   3.537  11.133
28190W        W93010   0.514  31.492   3.149
28191W        W93011  30.443  15.531  11.797
28192W        W93012  10.830  32.035  13.932
28193W        W93013   7.831  17.713   0.738
28194W        W93014  35.988  25.716  13.439
28195W        W93015   0.920  38.710  10.624
28196W        W93016  19.822  12.566  10.014
28197W        W93017   5.297  36.387  12.147
28198W        W93018  39.630  16.032  11.804
28199W        W93019   1.967  17.274  12.471
28200W        W93020  39.092   7.423  11.164
28201W        W93021   0.500  35.541  14.534
28202W        W93022  16.540   8.748  11.729
28203W        W93023  11.396   1.908   2.852
28204W        W93024  14.436  38.087  14.941
28205W        W93025   6.403  26.034   5.669
28206W        W93026  13.514  15.230   0.512
28207W        W93027  17.130  11.601  10.135
28208W        W93028  39.420  28.667   2.237
28209W        W93029  30.969   9.106  13.840
28210W        W93030   8.914   6.940  11.202
28211W        W93031   2.395   6.388   2.653
28212W        W93032   7.112  37.294  14.096
28213W        W93033  44.329  20.923   3.700
28214W        W93034  41.993  41.470   1.877
28215W        W93035  38.995  44.584   5.035
28216W        W93036  15.701  20.793  12.383
28217W        W93037  29.122  36.223  10.556
28218W        W93038  19.116  18.214  13.318
28219W        W93039  24.481  38.982   2.754
28220W        W93040  37.904   0.484   1.828
28221W        W93041  35.081  19.917  11.690
28222W        W93042  27.167  35.582  11.955
28223W        W93043   9.785  15.769  14.761
28224W        W93044  42.248  42.007   4.171
28225W        W93045   0.231  25.573   1.741
28226W        W93046   8.265   6.701   2.637
28227W        W93047  18.462  25.686   2.829
28228W        W93048  17.165  11.244  11.561
28229W        W93049  26.958  42.806  11.916
28230W        W93050  17.545  19.647  13.024
28231W        W93051   4.823  22.568   2.178
28232W        W93052  13.617  28.197   4.244
28233W        W93053   7.805   3.587   3.198
28234W        W93054  17.516  18.825  14.430
28235W        W93055  19.971  23.341   5.034
28236W        W93056   8.751  35.856   1.865
28237W        W93057  16.443  33.622   9.697
28238W        W93058  32.937  26.120   5.093
28239W        W93059  44.997   0.011   0.153
28240W        W93060   8.137  16.797   4.606
28241W        W93061  41.958  36.807  13.512
28242W        W93062   3.340  10.447  14.809
28243W        W93063  11.388  16.727  12.972
28244W        W93064  31.964  34.265  13.894
28245W        W93065  41.403  43.976  12.366
28246W        W93066  43.386  33.435   2.823
28247W        W93067  14.391  13.203   2.575
28248W        W93068  22.054  20.482   1.217
28249W        W93069  24.885  14.132  12.617
28250W        W93070  30.328   0.427   1.263
28251W        W93071   1.901   4.823   2.710
28252W        W93072   1.359  27.025   1.161
28253W        W93073   7.828  24.998  14.050
28254W        W93074  31.157  41.760  13.898
28255W        W93075   9.674  10.482  13.454
28256W        W93076   9.763  10.438  13.962
28257W        W93077  33.420  38.627  12.269
28258W        W93078   1.086  37.218   2.000
28259W        W93079   1.778  13.799   1.833
28260W        W93080  28.545   4.166   2.236
28261W        W93081  28.033  40.524   2.331
28262W        W93082  34.925  40.473   3.625
28263W        W93083  35.942  38.074  13.535
28264W        W93084  24.163  12.871   2.645
28265W        W93085  11.155  18.950   9.825
28266W        W93086  29.446   9.259  14.831
28267W        W93087  44.871  30.510   3.796
28268W        W93088  17.974  36.917   1.907
28269W        W93089  10.401  41.653   2.328
28270W        W93090  16.228  31.071  14.291
28271W        W93091   1.233  18.790  11.499
28272W        W93092  15.384   9.883  10.520
28273W        W93093   7.500  26.786   1.363
28274W        W93094  38.476  30.380  10.718
28275W        W93095  15.678  19.715   1.468
28276W        W93096   1.377  25.043  14.515
28277W        W93097  30.462  18.031   0.405
28278W        W93098  10.341  37.565   3.747
28279W        W93099  33.136  42.311   0.665
28280W        W93100  31.820  43.696   1.739
28281W        W93101  15.564  42.717  14.317
28282W        W93102  25.427  17.729   4.534
28283W        W93103  29.501  14.580  12.438
28284W        W93104  37.882   4.217  14.010
28285W        W93105  29.512  36.849  14.433
28286W        W93106  31.452  30.395   4.152
28287W        W93107  28.981   5.111   0.365
28288W        W93108  34.563  24.295   2.362
28289W        W93109  34.899   0.991  12.011
28290W        W93110  32.514  15.329   2.576
28291W        W93111  19.012  24.125  10.775
28292W        W93112  21.364  20.986   2.085
28293W        W93113   8.771  29.045  10.431
28294W        W93114   5.930   3.072   3.818
28295W        W93115  36.165  20.479   2.564
28296W        W93116  13.056  36.586   1.249
28297W        W93117  41.146  40.721   3.796
28298W        W93118   3.740  39.708   1.770
28299W        W93119  19.063  31.212   2.670
28300W        W93120  35.545   3.988  14.439
28301W        W93121  24.307  36.281  14.051
28302W        W93122  35.883  29.443  11.947
28303W        W93123  31.772  20.157   1.201
28304W        W93124   6.790   8.356   1.835
28305W        W93125  40.437  11.079  14.453
28306W        W93126  36.292  37.357  14.757
28307W        W93127   8.166  25.113  13.384
28308W        W93128  41.782  26.060   1.504
28309W        W93129  23.007  20.773  10.318
28310W        W93130  14.545   6.175   4.060
28311W        W93131  27.660  13.658   3.278
28312W        W93132  29.255  34.198  10.448
28313W        W93133   3.904  36.367   3.376
28314W        W93134  30.499   0.929   0.379
28315W        W93135  43.072  20.905  13.530
28316W        W93136   5.928  39.764  13.722
28317W        W93137  22.649  29.511  14.080
28318W        W93138   2.776  39.090  14.603
28319W        W93139  23.041  24.229  13.327
28320W        W93140  33.976  10.551  11.926
28321W        W93141  20.202  32.223   0.496
28322W        W93142  36.365  13.222   3.692
28323W        W93143   1.718  27.013  12.516
28324W        W93144  44.366  29.348  14.615
28325W        W93145  10.268  22.970   2.273
28326W        W93146  12.260  26.846   4.058
28327W        W93147  23.190   5.168  12.586
28328W        W93148  44.145  44.675   2.891
28329W        W93149  17.661   4.695  11.017
28330W        W93150  37.484  21.641   2.647
28331W        W93151  41.437  41.855   4.563
28332W        W93152  13.438  23.194  10.376
28333W        W93153   7.209  23.467   3.140
28334W        W93154  35.867  25.013   0.412
28335W        W93155  40.587  36.829  12.971
28336W        W93156  27.566  20.482  13.985
28337W        W93157   5.093  43.941   4.111
28338W        W93158  15.691  18.078  13.322
28339W        W93159  13.127  26.952   1.742
28340W        W93160  19.495  25.003  13.849
28341W        W93161  17.673  11.156   0.657
28342W        W93162  35.374  37.308   2.393
28343W        W93163   6.499  13.244  12.856
28344W        W93164  33.312  27.156   1.233
28345W        W93165  38.436   7.409  14.351
28346W        W93166  44.415  26.005  11.523
28347W        W93167  11.331  22.986  11.058
28348W        W93168  30.948  38.031  10.816
28349W        W93169  43.432  31.845  14.742
28350W        W93170  17.666  10.668  12.184
28351W        W93171  19.563  29.180   3.266
28352W        W93172  43.937  28.406   4.182
28353W        W93173  21.837  37.827   2.825
28354W        W93174   8.407   5.747  11.061
28355W        W93175  18.149   6.685   0.824
28356W        W93176  13.648  15.308   0.014
28357W        W93177   4.704  19.910   4.752
28358W        W93178  10.837  39.376   0.703
28359W        W93179  29.199  24.831   3.103
28360W        W93180  35.948  17.311   1.573
28361W        W93181  28.754  22.186   0.898
28362W        W93182  43.852   7.265  12.569
28363W        W93183  25.194  11.304   2.166
28364W        W93184  41.937  12.744   4.663
28365W        W93185  44.334  43.703   1.452
28366W        W93186  31.918  19.789   3.792
28367W        W93187  23.382  37.848   4.218
28368W        W93188  25.471  22.887  14.863
28369W        W93189   6.280   5.783  11.911
28370W        W93190   2.339   1.527   0.428
28371W        W93191  26.662   1.213  14.349
28372W        W93192  26.545  30.467   0.555
28373W        W93193  11.350   0.310   1.154
28374W        W93194  28.125   7.412  11.671
28375W        W93195  25.554   4.198  11.656
28376W        W93196  22.491  34.821  11.156
28377W        W93197  32.525   5.962  14.886
28378W        W93198  26.004  41.472  10.906
28379W        W93199  20.585  28.523   4.530
28380W        W93200   9.159   3.347   4.688
28381W        W93201   7.862  31.101   2.838
28382W        W93202  30.872  38.899  12.091
28383W        W93203  32.721  41.149  12.478
28384W        W93204  41.533  17.112   1.009
28385W        W93205  18.727  44.773  12.412
28386W        W93206  20.728  30.020   0.476
28387W        W93207  18.174   8.316  14.025
28388W        W93208  13.348  10.244   1.141
28389W        W93209  38.519  44.936   1.326
28390W        W93210  23.547  42.886  10.591
28391W        W93211   9.433  43.748  13.420
28392W        W93212  13.344  35.214  10.975
28393W        W93213  24.050   7.708  14.779
28394W        W93214   7.246  35.457  14.350
28395W        W93215  36.606  14.208   3.701
28396W        W93216  43.055  14.725  14.930
28397W        W93217   4.996   0.183  14.499
28398W        W93218   6.644  24.664  11.452
28399W        W93219   2.149  16.175  13.915
28400W        W93220  30.083  44.984   2.614
28401W        W93221  17.561   1.904   1.798
28402W        W93222  14.577  14.198  14.307
28403W        W93223  25.800  20.103  14.833
28404W        W93224  41.966  10.910  13.026
28405W        W93225  37.647  30.448  13.837
28406W        W93226  44.964  33.854  13.800
28407W        W93227  22.214   7.723   1.995
28408W        W93228  31.543  24.542   0.064
28409W        W93229  22.770   8.426  11.086
28410W        W93230  28.410  32.134   1.629
28411W        W93231   6.328   9.283  11.275
28412W        W93232  11.177  12.090  11.616
28413W        W93233  11.054  29.073  14.833
28414W        W93234  25.810  25.252   1.326
28415W        W93235   6.381   3.258  12.021
28416W        W93236  15.598  24.420  13.452
28417W        W93237  28.174  35.547   0.277
28418W        W93238   8.941   3.419   4.178
28419W        W93239  22.919  30.910   0.577
28420W        W93240  17.864  28.166  12.129
28421W        W93241  31.245  14.880  12.180
28422W        W93242  21.473  19.808  14.866
28423W        W93243  19.485  22.918  12.228
28424W        W93244  25.939  28.514   1.381
28425W        W93245  40.957   5.165   0.755
28426W        W93246  33.592  36.711   0.560
28427W        W93247  41.222  38.860  10.620
28428W        W93248  20.577   3.351  10.180
28429W        W93249  35.720  27.936   0.673
28430W        W93250   1.449  38.995   1.984
28431W        W93251  19.262  10.086  13.983
28432W        W93252  25.013  32.955  13.506
28433W        W93253  34.745  33.026  10.715
28434W        W93254  34.474  16.475  12.548
28435W        W93255  12.119  42.818   0.917
28436W        W93256  20.071   7.656   3.731
28437W        W93257  22.504  25.015   2.210
28438W        W93258  13.609   1.987  11.795
28439W        W93259   1.779  14.546   4.177
28440W        W93260   1.069  15.523   4.593
28441W        W93261  22.618  28.993  14.561
28442W        W93262  25.604   9.688   0.334
28443W        W93263  20.188  14.313   1.012
28444W        W93264  44.495   6.255   2.744
28445W        W93265  16.561  15.719  14.079
28446W        W93266  40.020   8.643   0.960
28447W        W93267  26.888  24.614  11.676
28448W        W93268  17.379  19.459  14.862
28449W        W93269  13.301  26.018   1.529
28450W        W93270  39.935  22.458  14.932
28451W        W93271   7.376  32.084   4.585
28452W        W93272  27.483  41.557   0.661
28453W        W93273  15.058  42.084  12.814
28454W        W93274  40.075  39.724  10.752
28455W        W93275  42.853  32.706   2.662
28456W        W93276  31.743  41.862   2.739
28457W        W93277  23.466   4.925  13.482
28458W        W93278  22.019   1.276   2.390
28459W        W93279  21.235   0.974  14.879
28460W        W93280  26.642  17.021   2.892
28461W        W93281  40.392   7.753   1.178
28462W        W93282   5.870  24.165  12.109
28463W        W93283  38.413  32.124  10.864
28464W        W93284  30.955   7.369   1.508
28465W        W93285  25.291  21.652  12.604
28466W        W93286   7.815  31.870  12.637
28467W        W93287  26.697   2.189   2.279
28468W        W93288  35.888  13.829   3.708
28469W        W93289  41.149  10.748   1.872
28470W        W93290  40.347  26.424  11.553
28471W        W93291  13.283   6.903  11.130
28472W        W93292  12.708  37.093   4.725
28473W        W93293  19.554  36.804  13.332
28474W        W93294  24.529   8.792  10.652
28475W        W93295  15.404  16.403   3.595
28476W        W93296  37.553  38.358   4.097
28477W        W93297   2.714  10.559   2.401
28478W        W93298  35.945  37.004  11.240
28479W        W93299  37.754   7.263   3.679
28480W        W93300   1.810  28.507   4.568
28481W        W93301   5.640  13.066   1.454
28482W        W93302   5.067  40.369  13.880
28483W        W93303  27.241  14.739  11.252
28484W        W93304  25.613  11.665  14.989
28485W        W93305   5.107   8.815   0.608
28486W        W93306   9.350  34.764  11.179
28487W        W93307  36.990  26.177  12.146
28488W        W93308   2.255  20.620  13.090
28489W        W93309  23.800  31.169  11.095
28490W        W93310  20.181   4.128   3.758
28491W        W93311  38.366  41.885   2.350
28492W        W93312  26.762   6.365  12.887
28493W        W93313  38.449  42.323  14.203
28494W        W93314  37.518  37.008   1.636
28495W        W93315   3.374  36.555   4.632
28496W        W93316   7.526   4.792  12.193
28497W        W93317  36.927  14.594   3.650
28498W        W93318   3.277   0.694   3.710
28499W        W93319  26.545  31.448  13.358
28500W        W93320  33.654   6.531   4.075
28501W        W93321  43.307  43.664   4.041
28502W        W93322  17.293  12.083   2.840
28503W        W93323  32.986  24.085  13.654
28504W        W93324  21.568  11.597   4.557
28505W        W93325  21.632  21.658   1.371
28506W        W93326  29.665  10.129  11.771
28507W        W93327   3.334   6.303  12.031
28508W        W93328  37.781  36.965  13.684
28509W        W93329  25.506  21.795  12.078
28510W        W93330  31.037  42.672   2.717
28511W        W93331  26.030   8.468   1.828
28512W        W93332  15.185   0.997  11.044
28513W        W93333  21.752  30.070  11.421
28514W        W93334  11.069  25.092  13.342
28515W        W93335  17.767   9.417  10.685
28516W        W93336  41.773  15.766  13.718
28517W        W93337  31.780  36.582  12.359
28518W        W93338  39.663  11.700   2.096
28519W        W93339  25.541  28.701  12.449
28520W        W93340  16.518  35.608  13.990
28521W        W93341   7.263  37.451  14.569
28522W        W93342  19.316  33.095   2.422
28523W        W93343  23.763  41.463   2.111
28524W        W93344   2.284  16.557   3.180
28525W        W93345  42.872  30.185   2.220
28526W        W93346   0.732  42.250  10.871
28527W        W93347  44.950  24.559   4.615
28528W        W93348  10.069  32.443   1.279
28529W        W93349  31.810  20.115   2.177
28530W        W93350  19.230   3.959  10.735
28531W        W93351  18.672  24.137  11.180
28532W        W93352   4.834  33.124  14.040
28533W        W93353  24.087  10.344  11.210
28534W        W93354  25.626  26.704   0.405
28535W        W93355  31.241  34.451  11.089
28536W        W93356  41.302   8.496  14.492
28537W        W93357  17.755  44.520   3.670
28538W        W93358   4.209  30.222  14.420
28539W        W93359   2.286  18.841  14.858
28540W        W93360  22.456  13.238  14.933
28541W        W93361  25.153   8.920  12.535
28542W        W93362  40.027  40.287   1.624
28543W        W93363   0.664  32.045   3.270
28544W        W93364   8.763   8.167   0.871
28545W        W93365   6.440  25.487  12.176
28546W        W93366   2.406  20.223   0.406
28547W        W93367  39.564  14.265   0.369
28548W        W93368  18.113  10.625   3.176
28549W        W93369   6.182  22.603  14.265
28550W        W93370  31.003  17.805   2.382
28551W        W93371  11.827  24.957  11.047
28552W        W93372  29.665  19.057   3.949
28553W        W93373  42.561  14.580  11.139
28554W        W93374  42.838   3.871  14.573
28555W        W93375  29.392   9.229  14.056
28556W        W93376  21.227  18.588  10.740
28557W        W93377  39.893  13.425  14.282
28558W        W93378  20.691  39.317  11.109
28559W        W93379   0.450  26.475  12.487
28560W        W93380  27.417  37.427  10.083
28561W        W93381  32.342   0.936   4.585
28562W        W93382  38.834  21.341  14.292
28563W        W93383  30.623  27.246   3.620
28564W        W93384  38.523  31.527  13.894
28565W        W93385  21.334  21.822  11.208
28566W        W93386  12.663  40.494   3.740
28567W        W93387  32.597  43.748   1.479
28568W        W93388  25.975   2.333  14.843
28569W        W93389  17.070  39.381   1.007
28570W        W93390  37.726  26.988   4.935
28571W        W93391  36.384  22.392   4.069
28572W        W93392  42.886  29.235   3.896
28573W        W93393  26.948  10.835   4.758
28574W        W93394  44.520  34.193   4.180
28575W        W93395  41.858  42.901   0.323
28576W        W93396   5.181   3.956  11.656
28577W        W93397  38.533  36.353   1.321
28578W        W93398  41.404  18.587  14.815
28579W        W93399  24.600  10.269  11.149
28580W        W93400  27.886  14.089  13.424
28581W        W93401  18.479  33.446   0.886
28582W        W93402  38.233   4.400   4.556
28583W        W93403  36.889  20.810  14.951
28584W        W93404  43.712  13.222   0.288
28585W        W93405  33.018  28.460   3.085
28586W        W93406  41.471  29.330   3.909
28587W        W93407  34.932  25.171   0.740
28588W        W93408  11.091   6.330  13.890
28589W        W93409  29.455   9.058   4.895
28590W        W93410  33.602  18.295   1.307
28591W        W93411  24.468   0.286  11.676
28592W        W93412  33.402  32.464  11.508
28593W        W93413  25.010   7.768  12.044
28594W        W93414   3.379  23.252   0.505
28595W        W93415   5.603  36.153  13.573
28596W        W93416  17.807  32.471   2.333
28597W        W93417  21.097   5.871  10.654
28598W        W93418  32.937   0.251   2.902
28599W        W93419   8.940  32.017   3.045
28600W        W93420  19.532  34.084  14.307
28601W        W93421   9.640   4.785  14.062
28602W        W93422   2.081   0.950   0.872
28603W        W93423  19.045  33.420  10.961
28604W        W93424  17.643  26.724   3.743
28605W        W93425  42.850   6.810   0.685
28606W        W93426  21.025  31.431  12.518
28607W        W93427  24.798  34.494   4.135
28608W        W93428   9.622  33.372  12.491
28609W        W93429  39.866  43.203   4.288
28610W        W93430  22.965  37.227   5.354
28611W        W93431  42.701   7.141  14.111
28612W        W93432  19.277  15.334   0.736
28613W        W93433  33.571  25.768  13.573
28614W        W93434  29.083  20.533  10.654
28615W        W93435  30.371  33.588   0.916
28616W        W93436  26.220   6.399  12.890
28617W        W93437  29.167   7.191  12.596
28618W        W93438  43.795  32.197   3.573
28619W        W93439   5.709  36.836  14.024
28620W        W93440  16.636  39.030  12.371
28621W        W93441  27.634  33.325   3.110
28622W        W93442   5.823  27.535   2.603
28623W        W93443  34.961  16.696   3.013
28624W        W93444   2.410  28.346   3.670
28625W        W93445   1.137  17.179  12.890
28626W        W93446  23.087  31.961  14.823
28627W        W93447   0.444  37.836   0.715
28628W        W93448  11.060  28.971  12.126
28629W        W93449  24.894  18.703  12.050
28630W        W93450  31.589   9.153   3.607
28631W        W93451   4.319  15.151   0.873
28632W        W93452  43.861   5.088   2.784
28633W        W93453  23.017   9.833  14.375
28634W        W93454  16.268   7.310  13.432
28635W        W93455  38.635  11.724   0.914
28636W        W93456  13.693  23.174  11.384
28637W        W93457  20.491   1.661  10.971
28638W        W93458  13.396  26.105  14.025
28639W        W93459  20.740   1.661  11.397
28640W        W93460  30.396  19.071  12.025
28641W        W93461  37.933   7.807   4.967
28642W        W93462  28.176  37.550  11.083
28643W        W93463   4.188  23.209  12.103
28644W        W93464  35.677   6.666  12.931
28645W        W93465  22.368  21.960  14.425
28646W        W93466  18.555  21.475  12.374
28647W        W93467  42.967   8.171   0.174
28648W        W93468  15.971  35.359   1.196
28649W        W93469  36.466  10.051  12.847
28650W        W93470  33.862  12.784   4.563
28651W        W93471  33.007  13.935   0.696
28652W        W93472   0.800  12.308   1.194
28653W        W93473  43.090  29.051  10.385
28654W        W93474  43.425  27.440  12.615
28655W        W93475  21.573  39.348   3.713
28656W        W93476   5.986   7.719   0.794
28657W        W93477  18.246   1.300  14.896
28658W        W93478  29.611   2.695   4.241
28659W        W93479  12.850  34.510   0.720
28660W        W93480  42.993   7.932  13.961
28661W        W93481  16.547  22.917   0.305
28662W        W93482   8.727  36.531  13.339
28663W        W93483   7.698  34.183  12.993
28664W        W93484  16.985  10.685  12.270
28665W        W93485  26.970  29.028   2.757
28666W        W93486  39.904  30.232  12.559
28667W        W93487  13.098  39.899  11.561
28668W        W93488  32.462   4.258   4.116
28669W        W93489  23.596  14.060  14.950
28670W        W93490  21.654   6.480   0.373
28671W        W93491  14.813   0.920  12.292
28672W        W93492  35.445  27.512   0.786
28673W        W93493   0.208  29.896  14.320
28674W        W93494  34.605  42.884  14.273
28675W        W93495  19.952  27.546  13.336
28676W        W93496   1.589  36.002  12.025
28677W        W93497   6.441  18.866  11.082
28678W        W93498   4.587  17.641  12.078
28679W        W93499   5.328  14.581  12.314
28680W        W93500  43.419  35.002  11.933
28681W        W93501  35.974   0.916  10.964
28682W        W93502  19.174  40.850  14.296
28683W        W93503  35.052  25.594   0.341
28684W        W93504  40.330  37.932  14.414
28685W        W93505  30.221  17.590  13.060
28686W        W93506   7.124  24.057   1.665
28687W        W93507   4.954  28.275   4.971
28688W        W93508   8.126   8.368   2.230
28689W        W93509  14.563  32.112  12.814
28690W        W93510  36.918  40.433  12.009
28691W        W93511  41.435   9.682   2.604
28692W        W93512  26.194  25.313  13.118
28693W        W93513  10.560   4.503  14.957
28694W        W93514  24.008  11.278  10.695
28695W        W93515  33.532   5.369  14.883
28696W        W93516   4.358  41.124  12.006
28697W        W93517  37.287   4.283  13.539
28698W        W93518  12.063  37.873   2.352
28699W        W93519  14.087   6.253   3.153
28700W        W93520  26.222   3.904  13.886
28701W        W93521  13.380  31.655   4.541
28702W        W93522  26.974  28.970  11.536
28703W        W93523  30.571  17.845  10.744
28704W        W93524   9.394  10.092   3.314
28705W        W93525   6.001  17.607  14.381
28706W        W93526   9.849  24.934  11.104
28707W        W93527  23.921   7.257   1.387
28708W        W93528  26.191  23.210  13.762
28709W        W93529  31.106  20.698   4.558
28710W        W93530  30.173  25.758   1.898
28711W        W93531  17.641  25.207  11.172
28712W        W93532  26.269  38.304   0.406
28713W        W93533   7.525   4.598  11.183
28714W        W93534   8.378   2.704   1.999
28715W        W93535  32.980  21.711   2.691
28716W        W93536  28.764  27.962  14.490
28717W        W93537   1.790  32.852  12.188
28718W        W93538  42.440   0.255  11.169
28719W        W93539  20.444  15.626   1.066
28720W        W93540  32.502  26.607  10.498
28721W        W93541  40.486  22.679   9.972
28722W        W93542  35.453  22.216   0.218
28723W        W93543  39.067   2.996   3.383
28724W        W93544  40.940  33.397   0.647
28725W        W93545   7.187  29.189   4.382
28726W        W93546  43.574  33.105   3.160
28727W        W93547   3.268  15.200  11.758
28728W        W93548  35.348   7.887  11.659
28729W        W93549  15.297   8.980  10.739
28730W        W93550  36.640  38.741  12.466
28731W        W93551  33.756  19.212  13.842
28732W        W93552   7.689  19.368  13.403
28733W        W93553  39.234  14.358  10.331
28734W        W93554  19.218  29.502   0.613
28735W        W93555  15.542   0.262  14.228
28736W        W93556  15.610  27.483   4.101
28737W        W93557  14.090   9.252  13.839
28738W        W93558  11.326  16.345  14.373
28739W        W93559  37.416  32.812  10.160
28740W        W93560   0.268  15.271  11.890
28741W        W93561  38.809  32.817   4.604
28742W        W93562  17.828   4.311   1.046
28743W        W93563  35.978  35.789   2.840
28744W        W93564  41.861  40.248  12.154
28745W        W93565   1.812  12.681   3.764
28746W        W93566   1.207  39.763   4.141
28747W        W93567  42.579  36.159   4.085
28748W        W93568   2.384   4.716  14.529
28749W        W93569   6.758  26.609   2.617
28750W        W93570  35.852   4.926  14.314
28751W        W93571  20.612  34.933  14.247
28752W        W93572  30.268   1.761   3.798
28753W        W93573  34.786  28.727   1.976
28754W        W93574  26.964  20.250   1.298
28755W        W93575  14.603  44.990   4.099
28756W        W93576  31.085  26.281  14.956
28757W        W93577  21.960  28.229   1.472
28758W        W93578   4.305  43.947  10.533
28759W        W93579  22.832  24.696  11.012
28760W        W93580   7.384   7.443   2.242
28761W        W93581   4.066  37.160  13.975
28762W        W93582  21.239   5.654  14.834
28763W        W93583  26.080  20.005   1.891
28764W        W93584   8.345  10.356   1.242
28765W        W93585   1.497  32.398  13.353
28766W        W93586  27.793  34.403   5.834
28767W        W93587  18.306  17.651   2.739
28768W        W93588  30.997   5.421   2.288
28769W        W93589  13.644  33.635   3.226
28770W        W93590  25.086  15.830   0.785
28771W        W93591  19.999  39.119  10.713
28772W        W93592  40.056   5.241  11.551
28773W        W93593   5.487  17.674   0.455
28774W        W93594   2.767  40.055   3.147
28775W        W93595  26.203   2.181   0.293
28776W        W93596  22.189  24.386   3.785
28777W        W93597  28.852  29.824   3.260
28778W        W93598  44.253  27.205   1.945
28779W        W93599  18.337  28.159  10.566
28780W        W93600   6.375  37.035  11.108
28781W        W93601  41.795  12.317  10.991
28782W        W93602  32.584  14.418  13.864
28783W        W93603  34.266  22.161  12.790
28784W        W93604  36.374   5.890   2.008
28785W        W93605  14.758  42.506   1.736
28786W        W93606  25.317   4.525   0.311
28787W        W93607  20.322   1.839   0.677
28788W        W93608  39.675  41.830   1.805
28789W        W93609  10.960  19.477   5.019
28790W        W93610  22.945  29.607  11.395
28791W        W93611  12.350  41.469   4.749
28792W        W93612  15.315  30.569   1.146
28793W        W93613  24.925  32.562  11.157
28794W        W93614  14.157  17.078   0.046
28795W        W93615  39.841  42.295   0.338
28796W        W93616  17.168  44.039   2.381
28797W        W93617  37.050  39.033  12.613
28798W        W93618   5.492   1.524  12.918
28799W        W93619  29.517  39.105  11.223
28800W        W93620  40.321  41.847  14.867
28801W        W93621  27.768  37.113   0.271
28802W        W93622  31.564  41.965   1.346
28803W        W93623  39.996  22.166  13.860
28804W        W93624  23.678  35.771  10.989
28805W        W93625  19.109  25.146  14.772
28806W        W93626   5.871  43.062   0.831
28807W        W93627  19.798  25.567  14.882
28808W        W93628  21.125  38.382   3.928
28809W        W93629  43.662  43.974  12.611
28810W        W93630  18.641  27.124   2.974
28811W        W93631  14.247  28.159  12.689
28812W        W93632   8.393   3.957   1.326
28813W        W93633  18.003  22.725   0.462
28814W        W93634   1.957  40.957   0.807
28815W        W93635  33.609  11.515   5.089
28816W        W93636  10.878  16.382   1.698
28817W        W93637  15.367  30.169   2.743
28818W        W93638  20.807  32.187   2.687
28819W        W93639   0.450  20.596   1.856
28820W        W93640  28.217  31.921   3.616
28821W        W93641  28.630  35.622   1.882
28822W        W93642  25.748  20.039  13.382
28823W        W93643  23.305   9.239  10.709
28824W        W93644  24.104  10.850   5.381
28825W        W93645  15.619  42.152   1.727
28826W        W93646   4.271  12.129  13.349
28827W        W93647   8.418  28.560   1.763
28828W        W93648  15.381  17.653   0.231
28829W        W93649  24.194  36.331   2.401
28830W        W93650  30.237  25.236   1.771
28831W        W93651   6.350  26.720  10.654
28832W        W93652  25.903  26.075   2.398
28833W        W93653  27.570  11.348  11.232
28834W        W93654   1.830   7.255  10.921
28835W        W93655  43.494  41.010   1.963
28836W        W93656  11.587  26.312   1.766
28837W        W93657  35.390  31.403   1.893
28838W        W93658   2.683  11.239   4.154
28839W        W93659  36.001  21.049   4.276
28840W        W93660   3.372  13.161   1.893
28841W        W93661  33.912  10.478  14.365
28842W        W93662  10.817   3.400   4.123
28843W        W93663  21.931  15.785   2.117
28844W        W93664   4.190  31.494   1.406
28845W        W93665   8.112   5.446  14.306
28846W        W93666  24.530  22.923  14.928
28847W        W93667  23.210   4.222   1.757
28848W        W93668  27.922  42.245  13.538
28849W        W93669  16.608  17.378  11.653
28850W        W93670   9.265  35.509   1.983
28851W        W93671  33.167   4.468  12.138
28852W        W93672  25.870   5.124   2.411
28853W        W93673  21.519   4.654   3.633
28854W        W93674  43.197  34.549   5.062
28855W        W93675  31.332  16.232  13.773
28856W        W93676  24.193  26.578   3.762
28857W        W93677  15.556  18.394  14.691
28858W        W93678  17.549   2.918   3.648
28859W        W93679  26.064  19.321   2.682
28860W        W93680  44.365  31.090  11.617
28861W        W93681  37.600   4.442   2.669
28862W        W93682   3.527   6.332   0.251
28863W        W93683  39.092  11.890  14.498
28864W        W93684  31.551   6.347  10.422
28865W        W93685  29.747  40.780   4.188
28866W        W93686  40.304  35.452   1.730
28867W        W93687  31.832  31.593   3.708
28868W        W93688   1.085  25.623   2.728
28869W        W93689   9.308  33.620   0.347
28870W        W93690   1.996  41.055  12.349
28871W        W93691  42.195  24.080   3.696
28872W        W93692  31.496  37.746   1.442
28873W        W93693  28.274   1.801  11.187
28874W        W93694  30.578   7.237   4.551
28875W        W93695  14.759  20.165  11.617
28876W        W93696  15.222  39.117   2.294
28877W        W93697   4.399  38.797   0.970
28878W        W93698  18.299  17.654  14.309
28879W        W93699   5.232  30.972  13.547
28880W        W93700  20.758  13.311   2.930
28881W        W93701  33.429  26.682   2.425
28882W        W93702  21.033   4.893  13.067
28883W        W93703  27.931  36.455   3.202
28884W        W93704  40.745  11.725   0.277
28885W        W93705  27.295   5.990   1.217
28886W        W93706  16.237  34.068  10.893
28887W        W93707  17.056  42.475  13.797
28888W        W93708  30.432  21.978  14.508
28889W        W93709  37.645   0.838   3.256
28890W        W93710  22.203  15.583   0.432
28891W        W93711   3.921   7.211  12.351
28892W        W93712  32.450  18.537  14.996
28893W        W93713  26.580  42.911  14.014
28894W        W93714  37.089  12.694   2.091
28895W        W93715  29.062  14.626  13.410
28896W        W93716  39.386  10.940   2.597
28897W        W93717   1.415  11.910   4.327
28898W        W93718  13.479   3.296  13.336
28899W        W93719  27.572  14.277  13.023
28900W        W93720  27.594   5.061  11.479
28901W        W93721  20.734  31.386  13.576
28902W        W93722  33.557  18.375   2.362
28903W        W93723   5.432  16.707  10.563
28904W        W93724  19.444  13.334   4.153
28905W        W93725   9.135  34.311   3.136
28906W        W93726   8.982  20.274  13.071
28907W        W93727   0.415  18.173  14.940
28908W        W93728   5.398  14.900   1.834
28909W        W93729   7.937  12.606   0.767
28910W        W93730  30.130  33.167   1.269
28911W        W93731  40.565   2.150   0.428
28912W        W93732  19.409  17.222   0.880
28913W        W93733  39.512  32.328   0.294
28914W        W93734  25.735   8.376  13.019
28915W        W93735  42.123  35.313  13.364
28916W        W93736   7.864  39.084  14.069
28917W        W93737  43.841  13.996   3.359
28918W        W93738  22.160  40.412   1.386
28919W        W93739  24.462  43.973   0.354
28920W        W93740  25.661  28.498   1.819
28921W        W93741  19.603  18.852   2.348
28922W        W93742   6.264  18.972   0.409
28923W        W93743  29.539  20.716   2.484
28924W        W93744  25.093  14.662   4.140
28925W        W93745  39.833   4.194  12.070
28926W        W93746   1.459  29.158   1.912
28927W        W93747  35.994   3.931  13.495
28928W        W93748  26.202  28.280   1.785
28929W        W93749  35.929  23.563   0.013
28930W        W93750  12.379  19.551  10.679
28931W        W93751  41.462  17.815   1.456
28932W        W93752  29.505  36.960   0.754
28933W        W93753   5.350   6.916   1.831
28934W        W93754  25.449   1.015  13.953
28935W        W93755  34.376  43.473   4.475
28936W        W93756  15.671  20.207   3.559
28937W        W93757   1.798   9.164  13.024
28938W        W93758  43.487  23.174  14.314
28939W        W93759  38.443  30.916   2.860
28940W        W93760  15.886  33.629  13.959
28941W        W93761  43.984  23.281   0.802
28942W        W93762  26.990   2.223  11.372
28943W        W93763   2.203  23.085   2.035
28944W        W93764   4.696   3.696  13.466
28945W        W93765  41.536  32.924   1.146
28946W        W93766  35.840   3.959  11.471
28947W        W93767  35.063  42.483   3.655
28948W        W93768  25.307  36.948  14.757
28949W        W93769  40.563   9.557  10.238
28950W        W93770  12.838  40.480   2.770
28951W        W93771  21.608  32.038  13.042
28952W        W93772  10.826  21.965   4.537
28953W        W93773   5.657  38.851  13.422
28954W        W93774   5.052  38.778   2.823
28955W        W93775  43.225  22.293  14.275
28956W        W93776   2.551  33.926   1.766
28957W        W93777  24.202  10.300   0.377
28958W        W93778  40.828  38.064  13.489
28959W        W93779  41.139  26.758  13.853
28960W        W93780  20.800   4.293  11.595
28961W        W93781  30.018  28.032  13.047
28962W        W93782  20.816  19.664   1.415
28963W        W93783  26.019  25.901   0.377
28964W        W93784  13.590   8.024  13.530
28965W        W93785   0.166  11.974   0.402
28966W        W93786  41.689   9.173   1.675
28967W        W93787  40.032  38.487  12.844
28968W        W93788  22.142  34.805   2.852
28969W        W93789   8.096   8.877   1.884
28970W        W93790  29.033   6.111   0.457
28971W        W93791  14.620  12.549   0.446
28972W        W93792   2.833  15.742   3.214
28973W        W93793   5.271   5.087   3.587
28974W        W93794  13.216  14.064  10.773
28975W        W93795  15.328   1.530  10.658
28976W        W93796   8.814   2.826  14.422
28977W        W93797  29.227   7.543   0.527
28978W        W93798  12.252  26.488  11.166
28979W        W93799  41.344  10.809   4.637
28980W        W93800  11.732   1.843   1.892
28981W        W93801   9.782  31.588  10.214
28982W        W93802  35.903   4.498  12.352
28983W        W93803   4.107  36.410  13.377
28984W        W93804   3.665  44.072  11.933
28985W        W93805  23.979  12.802   3.556
28986W        W93806   5.760  22.251   0.440
28987W        W93807  43.036  18.073  12.324
28988W        W93808  11.798  18.146   2.586
28989W        W93809  40.675  43.976  14.306
28990W        W93810  36.354   8.739  12.616
28991W        W93811   9.239  10.811   4.369
28992W        W93812  20.783  23.434  14.256
28993W        W93813   2.369   0.284  12.058
28994W        W93814  43.235  38.304  13.872
28995W        W93815   7.704   6.447  13.392
28996W        W93816  25.751   2.754  13.502
28997W        W93817  38.091   6.436   2.300
28998W        W93818   3.934  18.007  14.917
28999W        W93819  42.417  30.057   1.957
29000W        W93820   6.403  13.097  11.626
29001W        W93821   8.367  42.391  10.625
29002W        W93822  40.874  34.942   2.378
29003W        W93823   2.330  12.590  13.530
29004W        W93824  38.378  35.007  10.751
29005W        W93825  16.317  31.143   0.713
29006W        W93826  28.836  12.859  10.926
29007W        W93827  34.194  28.941  12.812
29008W        W93828  42.433   8.343   2.386
29009W        W93829  37.940  38.289   0.761
29010W        W93830  42.172  33.071   0.362
29011W        W93831  35.870  41.028  10.681
29012W        W93832   2.267  41.003   2.303
29013W        W93833  32.978  38.607  11.538
29014W        W93834   4.145  24.193   4.379
29015W        W93835  34.529  15.930  13.397
29016W        W93836  27.694   3.336  11.592
29017W        W93837  26.924  14.635   0.434
29018W        W93838  14.304  30.390  13.819
29019W        W93839  19.757  26.411   0.231
29020W        W93840  38.212  12.591   3.690
29021W        W93841  22.090  17.856   3.665
29022W        W93842   1.535   7.244  14.492
29023W        W93843  38.899  20.405   3.085
29024W        W93844  34.106  34.754   1.907
29025W        W93845  18.231  25.564   4.730
29026W        W93846  25.977   5.263   1.745
29027W        W93847  36.041  39.858   2.142
29028W        W93848  19.154  13.914   2.402
29029W        W93849  40.087   4.360  11.622
29030W        W93850  37.370   1.134   1.811
29031W        W93851  43.970  28.401   1.374
29032W        W93852  28.043  43.003   1.426
29033W        W93853   2.669   5.376  12.460
29034W        W93854  17.631  30.924  11.470
29035W        W93855  14.822  39.151   0.493
29036W        W93856  26.665   5.903   4.994
29037W        W93857   0.486  22.050  14.564
29038W        W93858  41.547  40.480   2.921
29039W        W93859  30.320  20.542  12.880
29040W        W93860  17.345   5.695   1.332
29041W        W93861  39.732  32.026   2.377
29042W        W93862  20.510   1.451  13.135
29043W        W93863  31.573  35.949  14.562
29044W        W93864   1.150  39.509   3.701
29045W        W93865  20.195   6.470   4.527
29046W        W93866  30.923  33.444  10.989
29047W        W93867   1.157  33.864  11.581
29048W        W93868  18.098  40.733   1.469
29049W        W93869  13.104  35.862  14.514
29050W        W93870  28.632  36.465  12.550
29051W        W93871  31.311  44.894  14.733
29052W        W93872  34.446   3.679  13.897
29053W        W93873  34.515  28.097  13.916
29054W        W93874   4.115  37.630   3.594
29055W        W93875  17.110   7.127  11.167
29056W        W93876  20.527  10.184  13.852
29057W        W93877  16.317  35.574   0.738
29058W        W93878  21.252  15.925  10.545
29059W        W93879   5.303  33.920  13.849
29060W        W93880  10.917  23.396   3.774
29061W        W93881  12.085  41.712   3.139
29062W        W93882  32.429  30.085  13.323
29063W        W93883   3.466   0.950  13.673
29064W        W93884   2.328   4.144   3.713
29065W        W93885  40.950  41.149  13.086
29066W        W93886  31.151  35.923   4.615
29067W        W93887   8.808  35.883   0.087
29068W        W93888   7.280  19.563   0.517
29069W        W93889   3.351  11.188   0.567
29070W        W93890   2.741  11.135   3.257
29071W        W93891  37.290  43.756   5.019
29072W        W93892  38.311  24.192   0.924
29073W        W93893  18.834  11.654   3.659
29074W        W93894   8.033  42.743   0.462
29075W        W93895  27.268  10.352  11.553
29076W        W93896  22.946  13.930  12.048
29077W        W93897  12.198   0.990   4.623
29078W        W93898  15.886   0.007  11.340
29079W        W93899   2.244   2.863   0.712
29080W        W93900   7.067  10.705   1.274
29081W        W93901  26.681  41.594   1.937
29082W        W93902  37.130   0.414   1.191
29083W        W93903  44.477  42.504   1.674
29084W        W93904  14.833  16.422  13.361
29085W        W93905   3.299   2.801  13.550
29086W        W93906   2.144   5.441   5.052
29087W        W93907  34.168  12.641  11.279
29088W        W93908  28.605  34.135  12.143
29089W        W93909   1.300   1.531  12.649
29090W        W93910  12.741  38.553  10.562
29091W        W93911  35.009  19.316  10.759
29092W        W93912  37.451  29.491  14.867
29093W        W93913   4.369  42.831  10.631
29094W        W93914  17.038  41.123   2.197
29095W        W93915  14.111  39.665  11.483
29096W        W93916  43.315  39.826  14.180
29097W        W93917  21.009  24.648  10.742
29098W        W93918  27.642  27.571   1.416
29099W        W93919   2.776  39.607  14.676
29100W        W93920  17.011   6.454   3.917
29101W        W93921  42.851  12.081   4.116
29102W        W93922  14.153  20.938   0.420
29103W        W93923  34.075  15.929  11.657
29104W        W93924   1.269   5.746  12.568
29105W        W93925  44.269  34.862  12.913
29106W        W93926  12.863  25.722   0.362
29107W        W93927  21.714  21.149   2.431
29108W        W93928  12.053  29.336  14.658
29109W        W93929  39.397   4.275   1.715
29110W        W93930  17.961   7.339   0.253
29111W        W93931  24.984  42.933  10.363
29112W        W93932  25.025  14.851  10.739
29113W        W93933  24.000  40.227  10.721
29114W        W93934  11.374  19.589  14.906
29115W        W93935   7.759  35.684   3.003
29116W        W93936  42.720  38.955   4.564
29117W        W93937  25.148  33.349   0.763
29118W        W93938  17.809   5.926   0.402
29119W        W93939  35.640  10.764  12.108
29120W        W93940  14.372  17.841   0.877
29121W        W93941  10.210  43.945  11.210
29122W        W93942  18.838  40.002  11.099
29123W        W93943  17.967  35.670   5.488
29124W        W93944  40.845  25.738  14.188
29125W        W93945  13.864   4.835   9.973
29126W        W93946  44.874  26.692   3.664
29127W        W93947  25.696  14.259  13.369
29128W        W93948   5.216   3.842  12.584
29129W        W93949  40.473   6.844  12.486
29130W        W93950   4.508   6.256  11.421
29131W        W93951  26.207  41.867   0.713
29132W        W93952  28.246  14.791  12.131
29133W        W93953   9.963  23.167   3.681
29134W        W93954  38.171  14.908   5.186
29135W        W93955  21.500  35.076  12.344
29136W        W93956  20.136  22.247  11.911
29137W        W93957  31.678  16.866   0.455
29138W        W93958  31.356  15.637  14.873
29139W        W93959  29.656  22.433   3.298
29140W        W93960  31.926   2.473   0.498
29141W        W93961  44.215  34.963   4.456
29142W        W93962  20.933   0.545  14.931
29143W        W93963  34.160  42.724  14.062
29144W        W93964  38.083  37.757  10.134
29145W        W93965   4.828   5.316  14.092
29146W        W93966  12.089  27.445  14.434
29147W        W93967  35.450  29.651  12.558
29148W        W93968  12.673   3.044  11.733
29149W        W93969   1.795  12.699  13.330
29150W        W93970  24.623   6.916  13.517
29151W        W93971  44.813   7.764   4.440
29152W        W93972  30.413  38.605   0.301
29153W        W93973  25.050  28.755   4.785
29154W        W93974  33.729   5.439  13.753
29155W        W93975  26.215  12.151  13.164
29156W        W93976  34.611  32.410   4.255
29157W        W93977  24.064  42.283  10.567
29158W        W93978   5.282  33.035  11.055
29159W        W93979   6.747  24.884  10.738
29160W        W93980  26.150  30.231  12.206
29161W        W93981  29.403  25.066  14.329
29162W        W93982  34.201  13.842  11.760
29163W        W93983  31.142  40.326   0.051
29164W        W93984  40.122  40.355   0.257
29165W        W93985   5.965   3.804   0.512
29166W        W93986  19.087   4.191  11.175
29167W        W93987  39.020  13.303   0.181
29168W        W93988  39.972  27.257  14.345
29169W        W93989  42.338   2.235  11.994
29170W        W93990  16.538  44.447  14.868
29171W        W93991   8.940  21.672  10.557
29172W        W93992   5.286  39.835   3.351
29173W        W93993   4.435  19.571   3.272
29174W        W93994   0.491  31.638  11.811
29175W        W93995  26.557  40.505   2.626
29176W        W93996   0.715  36.995  10.419
29177W        W93997  43.009  37.664  13.428
29178W        W93998  19.969  43.351   3.643
29179W        W93999  24.897   2.098  11.911
29180W        W94000   3.475  13.179  14.772
29181W        W94001  17.299   0.119   1.296
29182W        W94002   9.402  31.888  10.367
29183W        W94003  13.956  36.904   1.473
29184W        W94004  20.419  41.907  11.884
29185W        W94005  22.750  16.650  11.586
29186W        W94006  38.447   1.784  14.518
29187W        W94007  43.446  22.619   2.656
29188W        W94008  37.426  13.023  13.339
29189W        W94009  41.969  39.425   4.474
29190W        W94010   5.740  16.450  13.519
29191W        W94011   7.943  18.659   2.695
29192W        W94012  37.125  35.458   1.390
29193W        W94013  42.219  44.005   3.381
29194W        W94014  21.752  44.972   1.351
29195W        W94015   2.688  42.905   2.096
29196W        W94016  15.778  21.614   0.015
29197W        W94017  32.331  28.268  11.562
29198W        W94018  15.128  22.017   1.318
29199W        W94019  33.176   4.783   4.604
29200W        W94020  10.171   6.784   1.514
29201W        W94021  27.905  35.974  12.351
29202W        W94022   8.981   9.195   4.606
29203W        W94023  23.703  43.448   3.204
29204W        W94024  40.957  11.110   2.183
29205W        W94025   1.480  19.009   1.798
29206W        W94026   9.853   7.466  11.193
29207W        W94027  39.637  21.275  12.091
29208W        W94028  29.689  17.958   1.513
29209W        W94029   6.689  20.071  11.559
29210W        W94030  25.561  39.230   1.064
29211W        W94031  27.290  11.667  14.467
29212W        W94032  43.375  16.519  11.617
29213W        W94033   1.927   1.458   1.709
29214W        W94034  29.043  17.549  14.459
29215W        W94035  30.549  30.986   0.052
29216W        W94036   5.069   5.878  10.085
29217W        W94037  11.145  23.064   1.655
29218W        W94038  15.334  36.249  12.944
29219W        W94039  43.961  13.266   4.910
29220W        W94040  22.961  25.169  13.133
29221W        W94041  16.149  39.905   2.060
29222W        W94042  11.594  25.986   3.896
29223W        W94043  40.327   8.192  12.711
29224W        W94044  23.608   2.981   3.298
29225W        W94045  11.823   1.024   1.969
29226W        W94046  19.578  35.325   3.708
29227W        W94047  33.380  34.903   2.234
29228W        W94048  21.086  12.516   4.342
29229W        W94049  39.846  31.381   3.301
29230W        W94050  19.994   3.872  11.186
29231W        W94051  35.870  17.670  12.584
29232W        W94052  29.963  33.628   3.173
29233W        W94053  36.185  43.366  13.456
29234W        W94054  25.954   7.261   4.185
29235W        W94055  31.851  14.329  14.991
29236W        W94056  42.449   3.927   2.276
29237W        W94057  36.411  12.792  14.258
29238W        W94058  39.832  11.138   2.809
29239W        W94059  44.677  23.734  12.706
29240W        W94060  37.336  11.149  13.009
29241W        W94061  24.454  11.626  11.257
29242W        W94062  13.739  28.366  14.965
29243W        W94063  35.068  29.768  14.992
29244W        W94064  42.573  23.511   0.483
29245W        W94065  16.839   0.287  14.362
29246W        W94066   4.838  15.084   4.113
29247W        W94067  19.571  16.218  11.689
29248W        W94068  21.821  43.817  11.186
29249W        W94069   6.232  20.868  14.335
29250W        W94070  44.471   7.333  11.811
29251W        W94071  11.726  31.680   2.794
29252W        W94072   0.934  33.190  14.523
29253W        W94073  38.034  15.567  12.489
29254W        W94074  20.869  18.006   4.556
29255W        W94075  27.632  18.517   3.519
29256W        W94076  38.441  32.027  10.343
29257W        W94077  22.562  22.433  10.229
29258W        W94078   5.691   3.978   0.932
29259W        W94079  14.093   6.713   2.920
29260W        W94080   2.381  40.769   2.796
29261W        W94081  15.008   2.957   0.241
29262W        W94082   4.015   8.873   4.564
29263W        W94083  33.043  36.913   2.307
29264W        W94084   4.317  11.423   4.177
29265W        W94085   4.957  14.262  10.720
29266W        W94086  28.524  20.964  13.959
29267W        W94087  14.106  43.418   3.758
29268W        W94088   3.779   2.636   3.844
29269W        W94089   7.467  14.591  11.406
29270W        W94090   4.345  20.289   3.569
29271W        W94091   4.715   0.484   1.734
29272W        W94092   2.064  34.665   2.147
29273W        W94093  43.880  13.678   1.993
29274W        W94094   9.280  30.978   2.836
29275W        W94095   4.228  37.359  14.407
29276W        W94096  38.449  18.543   1.955
29277W        W94097  33.135  12.318  14.843
29278W        W94098  31.644   4.720   3.617
29279W        W94099  39.103  10.360  12.911
29280W        W94100  13.303   8.750  11.293
29281W        W94101   1.287   6.756  13.349
29282W        W94102   6.346   7.183  14.030
29283W        W94103   8.379  42.415   1.829
29284W        W94104  14.795  27.202  13.069
29285W        W94105   0.251   4.850   3.727
29286W        W94106  30.670  28.707  10.857
29287W        W94107  17.657  20.567  12.890
29288W        W94108  24.428  43.346   0.006
29289W        W94109  36.202   1.691  12.780
29290W        W94110  38.350  17.731  11.210
29291W        W94111  41.556  30.625   1.887
29292W        W94112   6.967  24.632   2.558
29293W        W94113   9.828  12.281   2.505
29294W        W94114  17.053  34.977  11.722
29295W        W94115  12.313   4.504   4.304
29296W        W94116  24.636  14.870   0.373
29297W        W94117  24.713  31.079   1.214
29298W        W94118  24.540  33.599  10.762
29299W        W94119   2.182  43.960  13.404
29300W        W94120  17.739  27.490  11.560
29301W        W94121   9.637  43.840   2.247
29302W        W94122  29.966  42.210  14.848
29303W        W94123  15.853  14.293   4.037
29304W        W94124  38.883  38.990   4.612
29305W        W94125  37.135   5.726  13.996
29306W        W94126  17.046  14.723   3.754
29307W        W94127   9.497  17.262   2.235
29308W        W94128  24.430   3.166   4.105
29309W        W94129  21.288   2.357   4.127
29310W        W94130  37.608   9.035   1.761
29311W        W94131  44.631  32.387  11.060
29312W        W94132   5.570   9.226   1.095
29313W        W94133  22.568  27.488   1.428
29314W        W94134  28.622  25.538  13.789
29315W        W94135  24.504  13.325   1.417
29316W        W94136  43.111  34.954   0.902
29317W        W94137   6.678   1.583  12.539
29318W        W94138  14.851   9.209  12.106
29319W        W94139  41.099  14.009   0.357
29320W        W94140   1.217  26.650  12.944
29321W        W94141  21.459  22.549  13.006
29322W        W94142  12.394  15.683   1.851
29323W        W94143  34.344  30.600   0.760
29324W        W94144  33.541  35.833  13.408
29325W        W94145   6.312  41.838  11.746
29326W        W94146  22.224   5.993   2.765
29327W        W94147  31.118  15.302   3.243
29328W        W94148  39.466   1.710  12.814
29329W        W94149  27.156  41.363   2.721
29330W        W94150   1.317  44.816  11.205
29331W        W94151  35.631  21.309   4.531
29332W        W94152  25.443  43.997  13.903
29333W        W94153   4.965  18.570  12.020
29334W        W94154  26.744   8.268   2.994
29335W        W94155  26.795  14.851  13.990
29336W        W94156  22.112  20.497   4.649
29337W        W94157   7.144  19.134  11.518
29338W        W94158  14.738  26.561  11.026
29339W        W94159  14.716  29.678   2.608
29340W        W94160   1.064  33.902   2.659
29341W        W94161  34.051  15.010   4.573
29342W        W94162  41.602  25.325  14.008
29343W        W94163   0.526   0.424  12.116
29344W        W94164  30.424   0.300   3.516
29345W        W94165  29.020  35.062  12.309
29346W        W94166   2.672  19.215  11.636
29347W        W94167  10.914  42.843  12.917
29348W        W94168  33.998  18.038  10.311
29349W        W94169   4.142  37.833   0.901
29350W        W94170  36.576   1.299   2.166
29351W        W94171  36.060  21.724  14.747
29352W        W94172  21.966  31.623  10.440
29353W        W94173  15.365  18.856  13.918
29354W        W94174  16.317  42.515   2.774
29355W        W94175   9.086  27.961   2.245
29356W        W94176  27.471  39.403  13.932
29357W        W94177  14.027  43.007  11.630
29358W        W94178  10.389  12.271   1.775
29359W        W94179   7.245  41.364  13.733
29360W        W94180  13.853  25.456  14.951
29361W        W94181  12.242  13.283  14.516
29362W        W94182  39.503  22.793   2.358
29363W        W94183  25.744  12.670   1.827
29364W        W94184  41.114   5.022  10.257
29365W        W94185  35.451   0.535  14.705
29366W        W94186  24.193  31.095   1.201
29367W        W94187  44.314  35.467  12.981
29368W        W94188  43.297  39.349   0.030
29369W        W94189  33.074   4.880   0.437
29370W        W94190  22.753  19.669   0.372
29371W        W94191  35.402   6.227  12.091
29372W        W94192  29.551   5.883   3.873
29373W        W94193  29.874  14.460   2.454
29374W        W94194   9.084  24.644  12.040
29375W        W94195  19.846   6.952   3.269
29376W        W94196   8.384  25.447   1.898
29377W        W94197  30.602  39.490  12.869
29378W        W94198   7.149  31.386   2.682
29379W        W94199  16.553   8.951   1.604
29380W        W94200   3.256   2.925  11.135
29381W        W94201   3.413  12.842  10.770
29382W        W94202   6.797  42.761  10.664
29383W        W94203   4.345   3.826  12.061
29384W        W94204  33.878  37.522   2.218
29385W        W94205   2.774   0.497  13.519
29386W        W94206  16.271  13.397  11.517
29387W        W94207  23.491   1.563   4.110
29388W        W94208   7.673   4.716  14.892
29389W        W94209  15.129  44.957  12.938
29390W        W94210  10.343  37.312  11.071
29391W        W94211   0.407  22.060   0.086
29392W        W94212  38.172  33.188   2.053
29393W        W94213   0.463   1.812   3.294
29394W        W94214  19.127  36.799  14.399
29395W        W94215  11.094  30.054   1.220
29396W        W94216   0.159  27.594  11.958
29397W        W94217   3.710  39.442  14.329
29398W        W94218   6.263   6.085   1.971
29399W        W94219   1.902  10.778   4.346
29400W        W94220   5.403  38.418   3.194
29401W        W94221  38.434  12.734  13.227
29402W        W94222  33.693   9.565   3.152
29403W        W94223  24.330  35.477   4.127
29404W        W94224   0.452  32.580   3.352
29405W        W94225  34.866  16.320  12.019
29406W        W94226  12.357  24.726  13.074
29407W        W94227   2.501  21.670   0.297
29408W        W94228  36.864  15.064   1.432
29409W        W94229  11.882  34.348  14.052
29410W        W94230  12.793  12.353   2.449
29411W        W94231  28.996  42.787  11.226
29412W        W94232  21.500  27.917   2.924
29413W        W94233  26.447  40.469  13.671
29414W        W94234  19.179   7.919   0.371
29415W        W94235  36.304  31.456  12.634
29416W        W94236  34.617  31.025   4.104
29417W        W94237   9.119  18.492  14.976
29418W        W94238  30.482  19.720  11.913
29419W        W94239  34.503  21.688  11.445
29420W        W94240  15.861   1.924   0.451
29421W        W94241  37.956  28.404   4.819
29422W        W94242   5.842  27.668  13.928
29423W        W94243  14.514  44.558   3.805
29424W        W94244  18.606  10.784   2.193
29425W        W94245  34.036  13.079   1.492
29426W        W94246  21.517   2.036  11.106
29427W        W94247  27.941  20.050   1.280
29428W        W94248   5.297  41.402   0.735
29429W        W94249  36.106  41.964  12.395
29430W        W94250  36.393  38.364   2.975
29431W        W94251  44.435  21.790  10.573
29432W        W94252  26.186  42.364  10.901
29433W        W94253  42.172   4.004  11.072
29434W        W94254  43.367  41.168  14.169
29435W        W94255  34.818  36.953   0.297
29436W        W94256   7.763  20.289   3.602
29437W        W94257   4.734   3.949   0.775
29438W        W94258  15.159  12.108  14.434
29439W        W94259  33.802  13.345   3.005
29440W        W94260  21.767  24.958  10.978
29441W        W94261  15.175   4.377  13.120
29442W        W94262   5.546   3.441  10.665
29443W        W94263  22.744  13.227  14.489
29444W        W94264   2.244  10.260  14.817
29445W        W94265  32.401  43.765   0.973
29446W        W94266  25.167  19.546   0.407
29447W        W94267  22.763  13.785  13.862
29448W        W94268  18.658  17.304  14.069
29449W        W94269  11.738  43.880   4.724
29450W        W94270  32.648  43.042   1.735
29451W        W94271  27.005  22.123   0.039
29452W        W94272  37.570  18.667  12.895
29453W        W94273  10.183  10.544  13.630
29454W        W94274  23.514  10.222  13.984
29455W        W94275  28.106  21.587  10.693
29456W        W94276  41.240  26.618  11.778
29457W        W94277  12.342   1.010  13.373
29458W        W94278   8.240   3.291   3.259
29459W        W94279  28.520  18.763   0.455
29460W        W94280  34.024  26.968   1.706
29461W        W94281   2.328  21.471   3.391
29462W        W94282  12.248  14.101   1.388
29463W        W94283  32.495  43.856  10.721
29464W        W94284  17.480   7.067  11.588
29465W        W94285  40.887  38.891   4.794
29466W        W94286  18.784   4.957  12.998
29467W        W94287  28.189  42.256  12.928
29468W        W94288  13.157  31.408  13.004
29469W        W94289  28.265  12.183   3.499
29470W        W94290   4.137  27.692  14.973
29471W        W94291   9.953  37.395  10.640
29472W        W94292  44.873  31.676  11.177
29473W        W94293  43.974   4.808  11.856
29474W        W94294  40.581  41.790   2.188
29475W        W94295  28.105  19.299   5.057
29476W        W94296  12.843   7.237   2.822
29477W        W94297  14.007   9.186   1.917
29478W        W94298  43.544  41.136   2.671
29479W        W94299  20.088  40.382   4.704
29480W        W94300   6.210  31.101   1.729
29481W        W94301   3.838  21.996  11.012
29482W        W94302  19.503   9.696   1.671
29483W        W94303  29.540  28.520  14.463
29484W        W94304  11.262  26.051   3.481
29485W        W94305  34.848  14.011   1.824
29486W        W94306  37.385  26.666  14.337
29487W        W94307  31.718  11.162  13.488
29488W        W94308  23.425  44.505  14.841
29489W        W94309  18.270   9.631   0.705
29490W        W94310  28.492  31.985  10.459
29491W        W94311  11.014   6.482   2.736
29492W        W94312   0.199  13.572   3.620
29493W        W94313  26.025  19.102   0.227
29494W        W94314   9.406  30.058  14.023
29495W        W94315  38.486  34.054  10.503
29496W        W94316  26.279  32.862  12.958
29497W        W94317   7.764  36.803   0.351
29498W        W94318  13.887  22.296   1.075
29499W        W94319  44.928  17.237   4.158
29500W        W94320   4.328  37.322  13.530
29501W        W94321   5.270  13.193  14.245
29502W        W94322  14.905  22.567  12.696
29503W        W94323  39.314  23.649   2.286
29504W        W94324  33.996  25.448   2.822
29505W        W94325  37.242  34.551   2.926
29506W        W94326  17.031  13.435   2.108
29507W        W94327   2.248   0.837  13.406
29508W        W94328  37.092  43.358  11.508
29509W        W94329   4.196   4.993   2.806
29510W        W94330  34.144  27.912   2.800
29511W        W94331  16.935  30.454   4.498
29512W        W94332  37.350   6.258   1.221
29513W        W94333   2.716   3.757   0.780
29514W        W94334  15.672  36.267   0.921
29515W        W94335  29.641  25.043   0.865
29516W        W94336  33.105  28.432   2.100
29517W        W94337  43.723  32.645   0.952
29518W        W94338  18.121  13.187   3.598
29519W        W94339  19.308  32.829   1.003
29520W        W94340  20.313  12.690   4.187
29521W        W94341  31.843   8.609   3.212
29522W        W94342  17.777   3.285  13.591
29523W        W94343  13.911  10.953  14.088
29524W        W94344   4.444  36.267   4.040
29525W        W94345  43.861  19.735  13.559
29526W        W94346  36.904   2.275   4.869
29527W        W94347   6.450  15.752   2.502
29528W        W94348  26.225  11.770   1.761
29529W        W94349  37.355  12.113   0.346
29530W        W94350  30.379   2.641   2.603
29531W        W94351  15.721  15.771  12.357
29532W        W94352  24.557   5.948  13.172
29533W        W94353   7.732  36.986  14.831
29534W        W94354  21.627   9.580  12.048
29535W        W94355  30.029  11.460   1.931
29536W        W94356  37.037  27.460  13.526
29537W        W94357  32.441  18.631   3.653
29538W        W94358   6.832   5.715  14.220
29539W        W94359  32.508  11.069  11.230
29540W        W94360   8.201  21.085  13.978
29541W        W94361   1.002  20.484  13.451
29542W        W94362  15.158  42.262   2.000
29543W        W94363  33.089  16.067  13.432
29544W        W94364  23.227  14.224   4.861
29545W        W94365  26.213  42.783   2.799
29546W        W94366  41.625  33.198   4.893
29547W        W94367   8.278   3.927  14.873
29548W        W94368  22.680  11.539   0.833
29549W        W94369  24.017  30.657  14.067
29550W        W94370  19.684  44.783  14.722
29551W        W94371   1.450   6.947   4.671
29552W        W94372  36.521   8.872  14.485
29553W        W94373  23.719  25.195   1.410
29554W        W94374  29.653  28.716   3.250
29555W        W94375  26.945  33.400  11.528
29556W        W94376  20.619  10.122  11.065
29557W        W94377  43.977  32.607   2.399
29558W        W94378  20.804  40.583  14.243
29559W        W94379  35.882  41.069  14.136
29560W        W94380   5.675  36.533   0.655
29561W        W94381  40.348  39.085  13.469
29562W        W94382  32.040  40.656   1.657
29563W        W94383   1.165  41.572  11.198
29564W        W94384   3.770   5.313   4.077
29565W        W94385  39.098  35.946  13.091
29566W        W94386   5.300  16.970  12.990
29567W        W94387  19.512  24.660   2.390
29568W        W94388   7.621   0.819  14.356
29569W        W94389  41.059  11.739   4.153
29570W        W94390  36.332  12.411   1.758
29571W        W94391  14.074   2.534   4.118
29572W        W94392  44.547   3.651  11.076
29573W        W94393  11.499  35.438   1.731
29574W        W94394  17.851  35.497  13.115
29575W        W94395  39.106  25.861  14.007
29576W        W94396  15.093  37.642   1.564
29577W        W94397  21.915  12.226  13.090
29578W        W94398  10.651  39.855  11.574
29579W        W94399  39.695  42.926  11.190
29580W        W94400  38.547  11.229  14.299
29581W        W94401  27.289   7.377   2.739
29582W        W94402  30.111  20.407  10.743
29583W        W94403  39.587   7.407   0.782
29584W        W94404  27.514  14.763   4.708
29585W        W94405  26.515  14.201   2.386
29586W        W94406  41.793  44.870   4.635
29587W        W94407  10.237  23.139   1.277
29588W        W94408  20.806  14.261  14.962
29589W        W94409  29.501  40.945   2.832
29590W        W94410  43.014  35.445   1.347
29591W        W94411  37.332   1.305   0.785
29592W        W94412   1.443  34.957  14.469
29593W        W94413  40.189  35.037   0.710
29594W        W94414  18.655  41.952  13.773
29595W        W94415  13.024  12.766   4.178
29596W        W94416  34.909  31.913  13.509
29597W        W94417   0.010  10.178   4.885
29598W        W94418  25.271  26.943  11.144
29599W        W94419  38.077  30.058  10.702
29600W        W94420  21.307   1.099   1.910
29601W        W94421   1.701   8.449   2.835
29602W        W94422  28.958   3.770  12.545
29603W        W94423   8.327  12.803   0.494
29604W        W94424  26.490  34.990  12.060
29605W        W94425  41.947  39.579  14.509
29606W        W94426  25.534  35.329  11.994
29607W        W94427  37.792  20.713   3.656
29608W        W94428  29.651  12.261   1.173
29609W        W94429  10.145   6.994   2.409
29610W        W94430   3.807  26.589  14.563
29611W        W94431   2.511   1.354   3.714
29612W        W94432  40.082  37.109   1.363
29613W        W94433  44.894   0.816   4.841
29614W        W94434  44.855  40.573   1.477
29615W        W94435  24.289  22.978  12.998
29616W        W94436  41.703  16.635   4.395
29617W        W94437  22.766  44.786  13.534
29618W        W94438  25.216   7.795   2.240
29619W        W94439   3.598  17.523  12.282
29620W        W94440  42.020  37.667  10.658
29621W        W94441   9.185  15.050   0.919
29622W        W94442  22.019  34.873  12.915
29623W        W94443  20.482  16.418  10.909
29624W        W94444  43.501  26.677  14.014
29625W        W94445  35.063  36.424  12.266
29626W        W94446   0.184  24.991   2.872
29627W        W94447   5.334  12.158  14.897
29628W        W94448  36.086  33.288  11.862
29629W        W94449  28.440  42.077   2.396
29630W        W94450   4.331   0.854  13.490
29631W        W94451  22.674  26.104  14.765
29632W        W94452  34.089  24.933   2.794
29633W        W94453  41.494  19.380  13.212
29634W        W94454  27.415  43.897   4.397
29635W        W94455  26.557  43.879  14.268
29636W        W94456  17.416  37.384  13.930
29637W        W94457  14.286  16.140  10.749
29638W        W94458  25.959  17.279  11.563
29639W        W94459  13.037  17.204   0.308
29640W        W94460  15.436  23.050  11.968
29641W        W94461   4.546  15.267   3.170
29642W        W94462  41.215  41.546   0.247
29643W        W94463  44.455   1.597  10.698
29644W        W94464  30.545  17.754   5.042
29645W        W94465  43.693   0.992  11.997
29646W        W94466  30.248  36.512   9.965
29647W        W94467  38.806   1.120  14.022
29648W        W94468  35.327   2.433   2.461
29649W        W94469  13.624  44.795   0.313
29650W        W94470   2.317  41.078  11.146
29651W        W94471   0.512  35.498   3.185
29652W        W94472  43.716  14.119  14.421
29653W        W94473  39.391  30.042   1.732
29654W        W94474  39.844  20.054   2.789
29655W        W94475  38.064  38.865  11.050
29656W        W94476  13.214  27.579   4.556
29657W        W94477  29.653  22.478   1.961
29658W        W94478  10.383  16.666  14.111
29659W        W94479  40.584   9.874  14.799
29660W        W94480  21.253  12.518   0.532
29661W        W94481  30.839   8.698   2.429
29662W        W94482  16.116   7.290  12.956
29663W        W94483   3.533  40.659  12.332
29664W        W94484  28.833   5.038  11.198
29665W        W94485  29.794   6.834   1.357
29666W        W94486  13.141  21.037   3.193
29667W        W94487  28.329  26.770  10.036
29668W        W94488  27.154  24.370   1.464
29669W        W94489  30.561  42.340   1.017
29670W        W94490  32.535  25.152   2.894
29671W        W94491   8.398  19.687   9.606
29672W        W94492  13.147  33.859   1.449
29673W        W94493  34.891   3.021   4.555
29674W        W94494   2.866  31.981  12.534
29675W        W94495  27.569  43.773   3.895
29676W        W94496  36.199  28.906   4.118
29677W        W94497  25.766   4.165   2.642
29678W        W94498  35.995   1.466  14.517
29679W        W94499  24.955   1.426  10.706
29680W        W94500   0.387   2.624  12.753
29681W        W94501  31.205  25.148   0.716
29682W        W94502  34.409  31.433   0.412
29683W        W94503  29.311  15.705   1.719
29684W        W94504  27.051  21.133  13.034
29685W        W94505  37.390   4.349   2.212
29686W        W94506   9.360  40.286  12.418
29687W        W94507  27.978  32.164  12.069
29688W        W94508  12.586   1.125  12.379
29689W        W94509  28.707  15.920  12.852
29690W        W94510  32.906   7.870  13.171
29691W        W94511   6.288  12.241  13.581
29692W        W94512  18.780  30.847  12.039
29693W        W94513  33.067   5.810  10.966
29694W        W94514  17.983  30.529  14.312
29695W        W94515  43.744   7.761  12.331
29696W        W94516  32.603  20.571  10.651
29697W        W94517   2.250  33.986  14.713
29698W        W94518   3.203   9.467  11.479
29699W        W94519  18.251  19.571  12.478
29700W        W94520  14.391   8.153  11.114
29701W        W94521  44.314   7.470  14.931
29702W        W94522  14.062  29.268  13.958
29703W        W94523  31.906  40.418  11.693
29704W        W94524   6.352  41.368   5.303
29705W        W94525  18.986  32.443  12.659
29706W        W94526   0.813   7.712   0.407
29707W        W94527  21.855  12.682   3.017
29708W        W94528   7.470  12.295  12.007
29709W        W94529  39.833   0.969  14.925
29710W        W94530   3.305  44.542   0.855
29711W        W94531   6.431  10.479   0.036
29712W        W94532  27.153  25.936  11.886
29713W        W94533   0.449  19.682  11.476
29714W        W94534   5.015   2.920  13.034
29715W        W94535  27.459  29.888  10.994
29716W        W94536  15.958  38.053   1.186
29717W        W94537  19.149  16.147  13.499
29718W        W94538   9.873  25.709   5.235
29719W        W94539  42.835  12.897  12.089
29720W        W94540  11.843   7.750   0.411
29721W        W94541  21.458  13.835  10.054
29722W        W94542  39.561  22.130  12.981
29723W        W94543   0.050  43.685   2.772
29724W        W94544  12.724   5.228  12.971
29725W        W94545  16.534   5.355   1.484
29726W        W94546  14.731  41.437  13.289
29727W        W94547   9.790  26.690  14.461
29728W        W94548  21.652  14.877  14.313
29729W        W94549  21.791  24.635  11.383
29730W        W94550  14.290  31.919   2.727
29731W        W94551   3.551  18.387  14.775
29732W        W94552  40.512  32.453   1.448
29733W        W94553  40.806   9.334   3.301
29734W        W94554  38.350  39.136  12.429
29735W        W94555  19.261   3.978  12.469
29736W        W94556  25.127  13.698  12.848
29737W        W94557  27.269  27.151   4.105
29738W        W94558   0.327  44.094   0.849
29739W        W94559  18.682  22.964  13.846
29740W        W94560  34.459  25.696   2.988
29741W        W94561  17.217   5.021   3.840
29742W        W94562  31.124  40.819   3.989
29743W        W94563   3.444  29.116  12.618
29744W        W94564   7.635  40.610   0.241
29745W        W94565  35.819  27.158   3.247
29746W        W94566  40.331  28.220   2.182
29747W        W94567  43.016  26.918  13.857
29748W        W94568  36.893   6.357   4.784
29749W        W94569  22.179  14.676   2.815
29750W        W94570  19.247  10.110   1.863
29751W        W94571  17.781  17.096  11.140
29752W        W94572  15.787  13.537   3.776
29753W        W94573   5.497  33.460  11.992
29754W        W94574  31.464  28.011   1.314
29755W        W94575  29.064  34.256  11.894
29756W        W94576  44.508  29.550  11.202
29757W        W94577  21.851  32.277  14.529
29758W        W94578  41.126   3.930   3.290
29759W        W94579  33.423   2.699   4.092
29760W        W94580  14.123  20.143  12.606
29761W        W94581   9.650  26.144   1.654
29762W        W94582   4.638  21.690  12.003
29763W        W94583  24.470   4.517   0.117
29764W        W94584  31.679  44.715  13.002
29765W        W94585   5.904  37.846   2.805
29766W        W94586  15.189  18.081  13.432
29767W        W94587  41.847  20.466  13.937
29768W        W94588  37.531  38.155   3.621
29769W        W94589  44.889  44.052   3.590
29770W        W94590  26.531  34.921   2.381
29771W        W94591  26.430  33.904   2.895
29772W        W94592  20.577   5.293  14.439
29773W        W94593  29.907  44.730  12.107
29774W        W94594  44.622   1.803   2.248
29775W        W94595   5.763  38.030   4.487
29776W        W94596  21.001  12.085  14.432
29777W        W94597  26.314  35.384   2.185
29778W        W94598  30.411  23.917   9.840
29779W        W94599  20.529   6.446   2.183
29780W        W94600  15.416  28.036   4.315
29781W        W94601  29.064  16.042  13.516
29782W        W94602  18.039  29.114   0.627
29783W        W94603  34.083  34.493   4.661
29784W        W94604  28.034  42.593  14.924
29785W        W94605  32.068  36.022   2.753
29786W        W94606  26.489  14.662  12.590
29787W        W94607   1.513  28.195  13.415
29788W        W94608  36.283   7.354   3.716
29789W        W94609   5.925   0.035   4.596
29790W        W94610  26.621   2.426  12.918
29791W        W94611   3.673  17.266   0.399
29792W        W94612  37.077  29.112   3.213
29793W        W94613  12.776  34.026   2.557
29794W        W94614  42.665  37.979  12.893
29795W        W94615  17.092  22.733   0.971
29796W        W94616  38.862   6.176  12.420
29797W        W94617  24.520  37.750   2.727
29798W        W94618  24.140   7.687  13.268
29799W        W94619  13.807  37.510  12.961
29800W        W94620  43.458  33.462  11.641
29801W        W94621  21.557  12.493  13.828
29802W        W94622  16.223  19.801   3.195
29803W        W94623  28.439  39.035   4.648
29804W        W94624  24.455  38.413  12.048
29805W        W94625   9.853  24.509  14.421
29806W        W94626  42.090  11.750   4.086
29807W        W94627  30.177  31.988   2.274
29808W        W94628  39.720  37.310   3.533
29809W        W94629  28.525  12.724  13.123
29810W        W94630   4.479  26.790   2.656
29811W        W94631   7.670  19.165   5.116
29812W        W94632  30.925  21.213  14.483
29813W        W94633  39.858  35.226   3.742
29814W        W94634  40.988   2.896   1.735
29815W        W94635  31.900   6.003   0.417
29816W        W94636   0.034  33.990   2.677
29817W        W94637  36.130  27.618  13.042
29818W        W94638  27.444   0.701   4.535
29819W        W94639  20.268  25.619   3.204
29820W        W94640  23.639   8.208  12.789
29821W        W94641  19.531  10.514   4.957
29822W        W94642   7.068  19.878   1.824
29823W        W94643   4.730  41.048  12.866
29824W        W94644  13.136  22.072  11.810
29825W        W94645   4.899  38.973  10.816
29826W        W94646  26.180   6.725   1.397
29827W        W94647  19.269  41.783  11.179
29828W        W94648  33.432  22.764   4.514
29829W        W94649  36.270  19.653   4.752
29830W        W94650  32.863  40.356   2.895
29831W        W94651  44.476  18.953  11.988
29832W        W94652  43.734  11.181  13.407
29833W        W94653  32.576  25.867  13.104
29834W        W94654  43.252  12.090   2.356
29835W        W94655  31.066  26.659  14.031
29836W        W94656   3.647  12.666  13.371
29837W        W94657   9.055  28.488   2.776
29838W        W94658  21.288  34.574  13.892
29839W        W94659   9.250  33.999  13.599
29840W        W94660  36.135  16.262  13.902
29841W        W94661  33.114  25.453  10.580
29842W        W94662  22.496  19.778  14.914
29843W        W94663  22.293   8.564  10.952
29844W        W94664  42.587  30.112  14.173
29845W        W94665  44.220  34.714  12.047
29846W        W94666  24.633  44.239  12.641
29847W        W94667  20.123   1.723  14.019
29848W        W94668   6.546  11.898   1.899
29849W        W94669  33.736   9.774  11.096
29850W        W94670   5.949  40.027  11.525
29851W        W94671   7.345  40.289  12.559
29852W        W94672  12.891  33.829   0.907
29853W        W94673   6.102   8.745  14.924
29854W        W94674  13.013  15.299   0.360
29855W        W94675   2.335  25.549  11.646
29856W        W94676  21.727  44.433   4.616
29857W        W94677  40.816  28.503  13.268
29858W        W94678  44.249  22.097   1.605
29859W        W94679  14.325  12.818   1.325
29860W        W94680  15.689   6.341  13.013
29861W        W94681  10.650  35.941   3.113
29862W        W94682  33.745  22.300  14.343
29863W        W94683   3.151   1.484  12.476
29864W        W94684  40.099  12.141   4.247
29865W        W94685  35.810   3.425   2.355
29866W        W94686  12.717  44.392   2.687
29867W        W94687  32.832  33.029   4.029
29868W        W94688  12.259  12.970  12.391
29869W        W94689  11.998  24.556   1.561
29870W        W94690  12.153  40.082  10.637
29871W        W94691  43.204  28.215  12.179
29872W        W94692  40.946  36.292   0.872
29873W        W94693  44.267   8.086  10.729
29874W        W94694   0.218  23.405   0.683
29875W        W94695  19.074  23.190   2.178
29876W        W94696  20.572  38.002   0.443
29877W        W94697  12.383  36.146  14.014
29878W        W94698  29.462  43.324  12.557
29879W        W94699  22.999   8.041   4.020
29880W        W94700  11.726  43.036   3.420
29881W        W94701  33.896   3.140  11.085
29882W        W94702  36.042  26.763   2.344
29883W        W94703   2.332   7.768  14.378
29884W        W94704   8.630   3.928  10.907
29885W        W94705  36.371  35.279   1.663
29886W        W94706  39.801  27.612  13.531
29887W        W94707  18.252  15.439   4.988
29888W        W94708   2.511  34.320  11.050
29889W        W94709  37.940   7.280  14.516
29890W        W94710  24.293  22.639  12.515
29891W        W94711  42.556   7.213  12.049
29892W        W94712   6.588  29.950  14.531
29893W        W94713  19.547  23.172   3.303
29894W        W94714  21.238  31.158   2.821
29895W        W94715  15.657  20.240   4.076
29896W        W94716  31.788  37.968  11.158
29897W        W94717  14.509  37.983   0.976
29898W        W94718  29.725  24.608  12.051
29899W        W94719  19.371   1.317   4.561
29900W        W94720  28.025   3.619  13.446
29901W        W94721  38.806  33.240   4.239
29902W        W94722  18.103  21.977  14.923
29903W        W94723   6.665   9.861   3.835
29904W        W94724   1.693  23.834   0.952
29905W        W94725   9.718  43.986  14.467
29906W        W94726  11.643  35.021   2.558
29907W        W94727  24.256  44.537   3.647
29908W        W94728  33.137  24.959  12.414
29909W        W94729  13.239  25.127  11.270
29910W        W94730  23.347   6.711   3.973
29911W        W94731   7.969   2.401   2.134
29912W        W94732  34.930   2.736  11.601
29913W        W94733   3.715  26.699   3.288
29914W        W94734  13.587   5.496  11.993
29915W        W94735  44.984  40.416  11.549
29916W        W94736   8.767  37.613   3.803
29917W        W94737  23.079  43.047   0.812
29918W        W94738  42.100   7.225   0.787
29919W        W94739  12.130  25.742  12.598
29920W        W94740  31.600  27.097  12.618
29921W        W94741  40.431  15.105   0.323
29922W        W94742  12.594  28.522   9.819
29923W        W94743  14.870  35.068   3.845
29924W        W94744   9.243   0.244  12.443
29925W        W94745  42.499   7.266  13.369
29926W        W94746  33.433  21.100  11.972
29927W        W94747  33.629  27.531   1.405
29928W        W94748  41.957  10.826  11.922
29929W        W94749  42.858  27.918  13.140
29930W        W94750   3.373  42.298  11.256
29931W        W94751  10.488   5.515   1.224
29932W        W94752  16.026  23.582  12.870
29933W        W94753  29.524  32.604   0.605
29934W        W94754  20.023  34.684  12.105
29935W        W94755  15.952  21.062   2.764
29936W        W94756  39.508  15.183   4.393
29937W        W94757  28.153  13.277   0.428
29938W        W94758  16.122  26.208   2.829
29939W        W94759  36.861  24.203   4.117
29940W        W94760  41.489  35.141  10.936
29941W        W94761  43.942  23.523   1.267
29942W        W94762  28.583  21.648  12.819
29943W        W94763  36.351  20.795   3.547
29944W        W94764  42.542  27.040  14.049
29945W        W94765  14.536  22.189  11.514
29946W        W94766  19.275  31.715   0.319
29947W        W94767   3.822  22.009   3.654
29948W        W94768  44.548   4.393  13.008
29949W        W94769  29.165  29.645  10.385
29950W        W94770   1.628  28.210   5.010
29951W        W94771  20.492  30.434   1.420
29952W        W94772   1.907  36.015   3.726
29953W        W94773  28.630  33.291  11.378
29954W        W94774  27.693  29.225  14.800
29955W        W94775  42.000  13.402   4.068
29956W        W94776  27.526  20.241  14.438
29957W        W94777   4.415  20.275  13.340
29958W        W94778  43.325  20.792  10.399
29959W        W94779   0.682   2.872   3.884
29960W        W94780   8.764  17.721  11.402
29961W        W94781  39.085   3.949   0.508
29962W        W94782   7.431  42.401  11.939
29963W        W94783  22.191  31.651  14.311
29964W        W94784  32.628   6.722   2.857
29965W        W94785  11.972  38.636   1.953
29966W        W94786  43.699  18.618  11.632
29967W        W94787  17.491  14.723  10.997
29968W        W94788  34.582  21.720   2.353
29969W        W94789   7.451  40.472  10.641
29970W        W94790  28.820  30.073   0.385
29971W        W94791  18.785  35.858  12.964
29972W        W94792   9.870  15.357   1.321
29973W        W94793   6.068  11.615   0.048
29974W        W94794   5.042   3.271   4.750
29975W        W94795  39.279  24.513   3.852
29976W        W94796  30.049  39.719   1.288
29977W        W94797  20.421  16.737  12.725
29978W        W94798  32.738  29.025   3.451
29979W        W94799   8.337  29.077  14.575
29980W        W94800   4.213  19.137  14.520
29981W        W94801  21.030   4.749   0.906
29982W        W94802   3.892  43.269   0.868
29983W        W94803  42.270  37.826  12.588
29984W        W94804   0.545   4.636  11.142
29985W        W94805  17.341   3.368   0.110
29986W        W94806  42.940  30.114  13.776
29987W        W94807  15.561   6.848  11.149
29988W        W94808   7.153   1.017  14.258
29989W        W94809  38.890   1.607  14.293
29990W        W94810  24.506  27.396  13.380
29991W        W94811  43.400  10.677   3.144
29992W        W94812  44.716   4.516   2.544
29993W        W94813  36.796   0.883  11.086
29994W        W94814  24.470  36.993   0.685
29995W        W94815  20.114  20.035   0.971
29996W        W94816  41.597   6.593  14.870
29997W        W94817  17.079   7.844   3.240
29998W        W94818  20.466  32.347  14.832
29999W        W94819  22.543   3.551   1.946
30000W        W94820  32.388  44.217  12.064
30001W        W94821  16.129  35.114  12.090
30002W        W94822   8.642  17.784  10.499
30003W        W94823  23.983  27.478   1.706
30004W        W94824  10.883  26.144   0.836
30005W        W94825  20.919   8.711  14.336
30006W        W94826  11.768  14.318   1.318
30007W        W94827   3.558  26.096  12.958
30008W        W94828  29.034   6.748  13.308
30009W        W94829   7.300  13.147   0.926
30010W        W94830  18.097  14.134   3.186
30011W        W94831  20.092  34.131   5.007
30012W        W94832   4.694  31.145   4.097
30013W        W94833   9.415   1.818   2.309
30014W        W94834  16.036  27.782   2.827
30015W        W94835  39.302  41.450   4.675
30016W        W94836  33.765  38.557   3.917
30017W        W94837   9.121  31.484   5.316
30018W        W94838   1.016  19.478   3.815
30019W        W94839   8.919   6.279  12.841
30020W        W94840  35.197  31.590   3.448
30021W        W94841  32.421   3.114  13.509
30022W        W94842   4.584  26.966  10.905
30023W        W94843  44.564  34.633   0.202
30024W        W94844  36.528  39.646   2.850
30025W        W94845  24.152  23.741  12.480
30026W        W94846  24.798   3.923  14.415
30027W        W94847   7.722  25.484   2.649
30028W        W94848  33.528  34.870  13.619
30029W        W94849  40.234   3.186   3.699
30030W        W94850  43.189  34.293   2.803
30031W        W94851  15.268  15.616  12.175
30032W        W94852  28.425  11.717   4.227
30033W        W94853  10.301  11.965   0.189
30034W        W94854  23.148   3.757   2.011
30035W        W94855  20.315  35.799   3.529
30036W        W94856  42.923  41.121  14.410
30037W        W94857  33.318  20.375   2.235
30038W        W94858  42.399  33.284  14.931
30039W        W94859   7.069  29.197  13.999
30040W        W94860  40.833  15.837  10.721
30041W        W94861   9.734  17.772  11.544
30042W        W94862  29.204  16.650  14.465
30043W        W94863   2.376  38.831  14.361
30044W        W94864  25.157   0.651   0.934
30045W        W94865  23.386  39.779   0.227
30046W        W94866  41.959  36.981   2.757
30047W        W94867  35.297   8.589   3.746
30048W        W94868  38.202  41.431  14.297
30049W        W94869  28.648  17.970  11.907
30050W        W94870  16.513   3.878  12.916
30051W        W94871   7.858   4.643   1.734
30052W        W94872  27.398  13.992  13.414
30053W        W94873  41.862  32.928  14.823
30054W        W94874  20.201  41.958  12.333
30055W        W94875  41.931  24.660  13.263
30056W        W94876  32.705  32.938   0.122
30057W        W94877  21.776  12.232  14.813
30058W        W94878   3.237  27.948   3.707
30059W        W94879   4.802  34.215  10.582
30060W        W94880  20.528   6.289   0.373
30061W        W94881   3.302  27.131  11.089
30062W        W94882  35.417  36.311   3.281
30063W        W94883   2.395   3.752  13.126
30064W        W94884  14.643  44.890  13.083
30065W        W94885  26.708   0.252   1.751
30066W        W94886  20.045  21.024   1.807
30067W        W94887   7.997   9.342  10.672
30068W        W94888  32.746  43.469   0.203
30069W        W94889  42.440  32.716   4.164
30070W        W94890  40.965  24.451   1.653
30071W        W94891   0.370  38.775   0.758
30072W        W94892  30.263   3.161  12.482
30073W        W94893  37.887  33.034   4.488
30074W        W94894  41.864  17.262  13.815
30075W        W94895   9.705  16.505  13.033
30076W        W94896  25.601  37.144   4.419
30077W        W94897  35.416  22.574  11.966
30078W        W94898  22.752  28.630   1.357
30079W        W94899  15.466  24.556  14.932
30080W        W94900  15.870  27.722  14.371
30081W        W94901  16.904  20.053  11.474
30082W        W94902  34.655  18.716  12.421
30083W        W94903  12.696  26.062   5.038
30084W        W94904  18.806  30.918  14.332
30085W        W94905  28.712  23.337   4.611
30086W        W94906  11.285  15.184   2.634
30087W        W94907  23.079  17.015   3.273
30088W        W94908  42.862   0.937   2.866
30089W        W94909   3.127  39.774   1.150
30090W        W94910   4.288  27.438   4.116
30091W        W94911  28.427  38.763  14.326
30092W        W94912  18.946  39.957  10.205
30093W        W94913  14.289  42.546   4.402
30094W        W94914  34.154  33.450  14.793
30095W        W94915   6.803  21.155   1.883
30096W        W94916  41.764   7.843   4.893
30097W        W94917   0.659  11.672  12.547
30098W        W94918   8.396  22.525   1.637
30099W        W94919  30.905  36.426  13.829
30100W        W94920  18.585  18.848   1.311
30101W        W94921  20.494   3.342   3.029
30102W        W94922  30.913  21.914  11.236
30103W        W94923  13.267  44.243  14.725
30104W        W94924  21.994  18.137   0.311
30105W        W94925   0.298  22.185   3.983
30106W        W94926  13.548   1.337   2.460
30107W        W94927  19.702  32.644   1.420
30108W        W94928   0.497  37.627   4.636
30109W        W94929  33.922  40.054   3.706
30110W        W94930  13.245   6.491  13.777
30111W        W94931  36.442   5.158   4.229
30112W        W94932  41.463  26.127   4.952
30113W        W94933  15.665  25.588  12.504
30114W        W94934  31.917  20.173   2.693
30115W        W94935  17.311  26.466   3.301
30116W        W94936  42.798   8.310   3.148
30117W        W94937  21.707   0.822  11.196
30118W        W94938  13.145  13.085   0.431
30119W        W94939  20.273  43.272  10.507
30120W        W94940  20.161  25.724   4.671
30121W        W94941  30.718  30.017  11.482
30122W        W94942  15.148  20.021   2.380
30123W        W94943  18.486  21.588   2.416
30124W        W94944   9.574  19.128   4.438
30125W        W94945  42.214  13.665   1.098
30126W        W94946  32.948  24.683  11.084
30127W        W94947  28.022  22.157  12.466
30128W        W94948  36.872  31.839  13.911
30129W        W94949  19.768   9.569   2.290
30130W        W94950  16.528   5.177  13.933
30131W        W94951  19.164  26.982  14.517
30132W        W94952  40.319  23.696   3.610
30133W        W94953  35.485  39.931   0.265
30134W        W94954  18.230  44.278   3.848
30135W        W94955  10.045  21.454   0.186
30136W        W94956   5.659  10.485  11.490
30137W        W94957  29.367   2.652   0.728
30138W        W94958  39.820  21.953  14.870
30139W        W94959  10.442  41.547   4.132
30140W        W94960  12.773  44.428  10.654
30141W        W94961  28.988  21.519  10.616
30142W        W94962  29.722  37.982  12.996
30143W        W94963  32.161  35.474   3.417
30144W        W94964  30.525  22.745  11.148
30145W        W94965  43.572   7.930  13.857
30146W        W94966  43.090  11.222   4.430
30147W        W94967  40.225   7.794   2.080
30148W        W94968  21.627  28.458  14.962
30149W        W94969  40.533   9.159  14.199
30150W        W94970  30.447  13.467   0.192
30151W        W94971  33.625  11.271  14.000
30152W        W94972  32.692   4.094  14.283
30153W        W94973  21.757  23.023   0.220
30154W        W94974  13.108   1.009   0.096
30155W        W94975  12.304  22.070  12.336
30156W        W94976  39.615   7.865   1.652
30157W        W94977  41.022  33.598   2.595
30158W        W94978   5.320  10.254   4.119
30159W        W94979  11.587  34.783  10.436
30160W        W94980   7.681  16.695  14.299
30161W        W94981   0.689  20.093   4.652
30162W        W94982  17.233  33.421  13.337
30163W        W94983  26.941  38.861  11.308
30164W        W94984  22.470  32.936  13.590
30165W        W94985   5.523  15.101  14.021
30166W        W94986  22.675  25.406   4.537
30167W        W94987  33.248  25.098  10.204
30168W        W94988  15.212  20.524   2.683
30169W        W94989  17.002  30.421   1.396
30170W        W94990  14.860   4.245  11.276
30171W        W94991  20.041  24.643  12.103
30172W        W94992  14.950   1.779   3.654
30173W        W94993  32.989   4.565  10.550
30174W        W94994  27.503  24.019   1.677
30175W        W94995  29.587  42.066  13.817
30176W        W94996  20.628  17.092   4.552
30177W        W94997  40.091  15.585  13.295
30178W        W94998  36.406   0.688   3.601
30179W        W94999  30.073  33.409  14.928
30180W        W95000  28.102  10.423   9.925
30181W        W95001  21.474  25.950   4.640
30182W        W95002  38.305  15.114  14.986
30183W        W95003   1.965   6.405  12.323
30184W        W95004  18.635  37.596   1.967
30185W        W95005  20.318   7.073   9.936
30186W        W95006  28.476  11.211   1.181
30187W        W95007  17.006  17.111  10.761
30188W        W95008  31.433  44.504   2.675
30189W        W95009   1.636  31.105  10.706
30190W        W95010   2.351  40.680  10.255
30191W        W95011  16.358  10.670   0.339
30192W        W95012  21.273  22.127   0.348
30193W        W95013  33.118   6.261   0.262
30194W        W95014  24.565  40.287  14.776
30195W        W95015  19.162  17.312  13.024
30196W        W95016   2.896  35.948  14.445
30197W        W95017  17.415  35.549  14.895
30198W        W95018   3.497  31.851  13.803
30199W        W95019  41.762  20.135   1.768
30200W        W95020  29.075  20.490  13.393
30201W        W95021   2.455  41.602   1.415
30202W        W95022  34.678  26.571  12.980
30203W        W95023  39.977  15.323   4.516
30204W        W95024  10.675  17.864   2.760
30205W        W95025   4.288  38.083  12.979
30206W        W95026  27.013  33.493   0.979
30207W        W95027   4.517   0.360  13.243
30208W        W95028  24.613   0.463   4.510
30209W        W95029  12.992   5.718  14.293
30210W        W95030   9.823   4.155  11.140
30211W        W95031  43.818  12.870  13.132
30212W        W95032  19.873  32.094   0.956
30213W        W95033  26.062   4.162   0.871
30214W        W95034  40.949  34.248  13.746
30215W        W95035  14.160   4.960  13.410
30216W        W95036   0.936  14.003   4.922
30217W        W95037  18.770  32.561   3.151
30218W        W95038  27.484   1.857   0.260
30219W        W95039  36.024   2.331  14.616
30220W        W95040  24.138  13.116  14.499
30221W        W95041  20.866  44.968  12.240
30222W        W95042  44.300  14.174  11.437
30223W        W95043   1.319  35.450   2.533
30224W        W95044  18.267   3.649   1.028
30225W        W95045  29.566  16.725   2.545
30226W        W95046  27.462  26.732   0.415
30227W        W95047  44.857  33.949   1.803
30228W        W95048  28.841   0.016   3.155
30229W        W95049   2.567   9.817  12.051
30230W        W95050  28.534  24.968   2.794
30231W        W95051  21.758   7.401  13.077
30232W        W95052  40.233   3.948  14.970
30233W        W95053  38.005  39.584   2.312
30234W        W95054  38.116  21.053  13.574
30235W        W95055  36.862  26.810   0.232
30236W        W95056  28.209  25.111   3.859
30237W        W95057   1.800   5.325   2.747
30238W        W95058  24.666   2.962  14.941
30239W        W95059  40.862  31.214  13.852
30240W        W95060  16.309  17.706  14.801
30241W        W95061  32.292  36.307  13.372
30242W        W95062  41.088   4.403  11.504
30243W        W95063  38.132  44.699  10.997
30244W        W95064   4.366  40.854  13.307
30245W        W95065  13.079   2.698   3.655
30246W        W95066   4.132   4.429   3.734
30247W        W95067  38.418  29.690  14.642
30248W        W95068  39.815  15.712  10.735
30249W        W95069   4.879   2.799   1.212
30250W        W95070  10.863  31.709   0.559
30251W        W95071   4.854  36.593  12.304
30252W        W95072  30.189  16.190  12.904
30253W        W95073   0.494  25.670   4.623
30254W        W95074   6.264  36.247   3.665
30255W        W95075  33.162  24.283  12.827
30256W        W95076  40.784  23.668  12.005
30257W        W95077  11.039  32.185  11.056
30258W        W95078  14.928  15.398  11.101
30259W        W95079  15.264  31.413  13.858
30260W        W95080  12.476  41.469   3.411
30261W        W95081   1.312  40.359  11.929
30262W        W95082  21.582  15.753   1.333
30263W        W95083  39.563  24.229   1.668
30264W        W95084  35.757  40.882  13.277
30265W        W95085  40.892  18.052   3.099
30266W        W95086   4.685  23.178  11.957
30267W        W95087  33.232  31.103  11.553
30268W        W95088  33.010   3.682  12.532
30269W        W95089  21.293  42.007  12.649
30270W        W95090  29.085  34.530   0.343
30271W        W95091  38.730  30.546  10.293
30272W        W95092  30.729  39.348   2.785
30273W        W95093  19.746  43.300  10.501
30274W        W95094  10.294   8.187  10.873
30275W        W95095  26.879  10.065   2.738
30276W        W95096  32.805  44.951   0.226
30277W        W95097  35.000  28.573  12.500
30278W        W95098  12.585   3.465   2.203
30279W        W95099  20.228  22.648  11.511
30280W        W95100  41.047   1.298   4.656
30281W        W95101  17.207  33.130  14.333
30282W        W95102  35.556  14.708   2.386
30283W        W95103   2.962  18.458   2.659
30284W        W95104  11.656  23.691  14.547
30285W        W95105  12.097  32.514   4.031
30286W        W95106  11.088  10.082   2.347
30287W        W95107  34.885  36.792   1.709
30288W        W95108  32.244  30.568   1.536
30289W        W95109  38.212   0.397   3.668
30290W        W95110  44.809  35.696   1.786
30291W        W95111  12.518  25.213   3.144
30292W        W95112  33.690  35.011   4.090
30293W        W95113   4.039   0.318  14.084
30294W        W95114  24.561  17.077   3.151
30295W        W95115  35.876  37.957   3.437
30296W        W95116   4.242  35.431  13.820
30297W        W95117   7.788  29.957  14.784
30298W        W95118   9.843  20.672   2.636
30299W        W95119  41.542   9.206  10.433
30300W        W95120  19.341  17.859  14.258
30301W        W95121  40.312  41.965   2.587
30302W        W95122  21.598  24.305   4.177
30303W        W95123  12.636  11.385   3.635
30304W        W95124  26.476   5.792  10.726
30305W        W95125  29.543   9.089   2.125
30306W        W95126  35.154  32.019  13.055
30307W        W95127  31.491  10.383  14.332
30308W        W95128  13.991  33.222   1.418
30309W        W95129  15.496  24.619  11.191
30310W        W95130  39.042  25.659   3.142
30311W        W95131   7.196   9.941  12.151
30312W        W95132  34.674  33.485  14.898
30313W        W95133  40.296  32.515   4.808
30314W        W95134  21.710  18.078  11.464
30315W        W95135  18.442  41.357   0.890
30316W        W95136   3.218  38.992   4.500
30317W        W95137   9.146  14.866  11.631
30318W        W95138  29.917  41.959   3.693
30319W        W95139   5.945  37.297  14.029
30320W        W95140  36.895  26.374  13.481
30321W        W95141  23.071  12.262  14.956
30322W        W95142  14.325  30.352  10.387
30323W        W95143  28.757   0.777  13.374
30324W        W95144   2.030  24.222   0.931
30325W        W95145  23.229   2.729   2.240
30326W        W95146  36.808  10.207   1.738
30327W        W95147  25.115  43.798  11.209
30328W        W95148   3.475  26.210   3.246
30329W        W95149  13.195  25.055   4.482
30330W        W95150   7.938   9.121   3.111
30331W        W95151  24.067  16.665   2.042
30332W        W95152  13.420   7.034   4.294
30333W        W95153   0.147  26.852  12.025
30334W        W95154  29.122   4.687  14.349
30335W        W95155  18.617  33.922   2.724
30336W        W95156  39.190  36.881  11.199
30337W        W95157   1.558   6.782   2.874
30338W        W95158   0.290  16.669  13.545
30339W        W95159  23.089  43.564  14.053
30340W        W95160  12.657  19.691  11.168
30341W        W95161  21.587  15.797   0.314
30342W        W95162  17.687  23.056   2.233
30343W        W95163  38.432  18.304   1.477
30344W        W95164   1.536   9.326  12.602
30345W        W95165   9.193  16.815   2.199
30346W        W95166   7.025  13.173   4.133
30347W        W95167  23.032   1.284   4.124
30348W        W95168  44.015   0.340  13.609
30349W        W95169  10.518  44.353   2.564
30350W        W95170  20.084  18.096   1.430
30351W        W95171  37.581  37.522   0.337
30352W        W95172  20.022   7.956  14.976
30353W        W95173  12.718  31.651  13.054
30354W        W95174   8.312  39.251   2.544
30355W        W95175  37.882  25.900  14.451
30356W        W95176  38.605  44.721   1.812
30357W        W95177  16.786   2.867   3.212
30358W        W95178  44.076   0.858   3.774
30359W        W95179  38.839  11.929   0.381
30360W        W95180  23.189  26.449   0.471
30361W        W95181  29.954   7.849  13.000
30362W        W95182  25.164  29.832  11.893
30363W        W95183   1.212   4.174   4.228
30364W        W95184  37.678  12.639   3.773
30365W        W95185   5.112  34.531   1.242
30366W        W95186  42.428  23.237   0.042
30367W        W95187  17.051  27.971   0.008
30368W        W95188  29.144  41.085  10.710
30369W        W95189  13.114   4.400   4.236
30370W        W95190  17.237  40.017   3.574
30371W        W95191   9.470   8.630  14.249
30372W        W95192  21.301   3.686  10.693
30373W        W95193  41.777  17.690   2.307
30374W        W95194  43.265  36.390   0.240
30375W        W95195  25.945  17.476   2.725
30376W        W95196  10.581  20.107   2.733
30377W        W95197  18.495  44.923   0.787
30378W        W95198  30.429   4.732  13.776
30379W        W95199  31.533  30.385   3.308
30380W        W95200   0.979  31.753  12.651
30381W        W95201   3.980   5.791   1.177
30382W        W95202   9.400  12.231   0.778
30383W        W95203  30.618  32.611   1.713
30384W        W95204   5.423  19.148  11.054
30385W        W95205  38.553  42.943  13.508
30386W        W95206   7.071  14.746   2.824
30387W        W95207  10.227  21.820  13.828
30388W        W95208  22.711  16.206  14.553
30389W        W95209  36.854  18.220   2.830
30390W        W95210  44.231  23.086  11.170
30391W        W95211   5.238  12.628   2.716
30392W        W95212  10.331  19.687  14.829
30393W        W95213  27.436  23.715  12.071
30394W        W95214  29.829   7.935  12.504
30395W        W95215  23.769  37.417  13.914
30396W        W95216  21.658  31.890  10.773
30397W        W95217  34.258  14.159   3.366
30398W        W95218  11.998   1.722   0.242
30399W        W95219  31.053  26.505  13.036
30400W        W95220   7.064  27.801   2.371
30401W        W95221  13.569   5.027  14.326
30402W        W95222  33.095  12.245  11.073
30403W        W95223   4.001  40.776   1.826
30404W        W95224  40.186  21.587  10.780
30405W        W95225  26.198   3.963   2.868
30406W        W95226  18.946  14.911   4.614
30407W        W95227  28.140  35.948   0.927
30408W        W95228   7.507  39.198  11.224
30409W        W95229  18.108  21.830  13.085
30410W        W95230  28.629   0.360  14.069
30411W        W95231  33.404   5.673  12.467
30412W        W95232  43.386   7.535   2.243
30413W        W95233  30.941  17.691  14.936
30414W        W95234   3.024  17.138   3.640
30415W        W95235  25.199  23.376   2.632
30416W        W95236  36.113  27.125  14.788
30417W        W95237   2.192  39.539  14.246
30418W        W95238  22.985   0.403  14.781
30419W        W95239  21.351   5.962   9.784
30420W        W95240  35.454  36.128  12.071
30421W        W95241  36.123  41.866  13.283
30422W        W95242   9.133   9.327   3.735
30423W        W95243  40.470   9.066   3.715
30424W        W95244  13.680   2.245  13.309
30425W        W95245   0.006   2.541   3.632
30426W        W95246  30.408  22.774  14.304
30427W        W95247  22.017  30.538   0.359
30428W        W95248  29.533  42.899   0.359
30429W        W95249  35.195  17.600  14.792
30430W        W95250  34.385  24.047  11.714
30431W        W95251   8.350  39.574  13.873
30432W        W95252  35.525  19.121  13.760
30433W        W95253   4.397   5.342  12.898
30434W        W95254  24.417  16.399  10.226
30435W        W95255  10.617  35.208  14.834
30436W        W95256  40.777  22.097  12.536
30437W        W95257  18.652  44.533   1.812
30438W        W95258  19.988   3.193   5.210
30439W        W95259  11.227   2.288   2.358
30440W        W95260   6.877  13.652  10.646
30441W        W95261   2.503  30.610   0.049
30442W        W95262   7.349  22.487  12.028
30443W        W95263  22.970  22.756  10.221
30444W        W95264  26.178  44.623   0.443
30445W        W95265  25.718  11.254   3.172
30446W        W95266  35.271  31.472  14.407
30447W        W95267   7.920  30.075   4.588
30448W        W95268  33.522  27.117   1.716
30449W        W95269  11.810  10.681  13.615
30450W        W95270   4.758  39.196   0.968
30451W        W95271  19.594  30.966  10.516
30452W        W95272   2.194   7.499  12.593
30453W        W95273  38.922  20.790  11.906
30454W        W95274  29.139  23.849   2.254
30455W        W95275  37.033  39.889   0.686
30456W        W95276  35.129  43.082   4.644
30457W        W95277  30.438   9.783   0.466
30458W        W95278  30.032   1.111   5.074
30459W        W95279   5.045  41.213  12.491
30460W        W95280  24.941   2.657  11.090
30461W        W95281  33.857   9.269  13.507
30462W        W95282  41.898  35.141   2.746
30463W        W95283  11.668  24.425   3.732
30464W        W95284  40.022  16.724  11.716
30465W        W95285  11.956  19.273  13.480
30466W        W95286   1.325  26.545   3.924
30467W        W95287   5.841   7.757   2.623
30468W        W95288  19.702  21.129  10.856
30469W        W95289  10.144  34.123   4.603
30470W        W95290  26.865   9.265   2.400
30471W        W95291   7.417  43.037  13.554
30472W        W95292   9.927  38.966  13.089
30473W        W95293   4.839  12.317  12.732
30474W        W95294  22.055  19.189  11.698
30475W        W95295  30.159   8.330  12.731
30476W        W95296  35.810  16.389  12.972
30477W        W95297  24.642  29.512   1.013
30478W        W95298  44.003   6.209  10.730
30479W        W95299  37.985   7.127   1.903
30480W        W95300  34.380  28.001   2.333
30481W        W95301   8.822   4.339  12.923
30482W        W95302   2.956  21.275   4.604
30483W        W95303  34.534  38.733   0.824
30484W        W95304  33.608  43.643   4.946
30485W        W95305  27.003  25.265   3.400
30486W        W95306  36.613  36.563  11.147
30487W        W95307  13.225  40.834   2.782
30488W        W95308   9.308  19.152  13.540
30489W        W95309  31.673  24.670   1.467
30490W        W95310  40.865  32.214   4.238
30491W        W95311  35.823  26.479  11.699
30492W        W95312  26.754   9.719   4.605
30493W        W95313  29.220  21.390  13.516
30494W        W95314  33.583  44.851  12.082
30495W        W95315  17.532  17.121  11.635
30496W        W95316  29.411  41.260   3.349
30497W        W95317  23.336  12.077   5.082
30498W        W95318  33.445  30.250   2.786
30499W        W95319  19.396  10.246  12.553
30500W        W95320   7.911  10.918   0.808
30501W        W95321   6.917  15.005   1.059
30502W        W95322   1.232  16.038  11.982
30503W        W95323  15.636   6.617   4.577
30504W        W95324  22.537  26.442   2.385
30505W        W95325   8.134  23.223  12.059
30506W        W95326  20.076  28.029   3.835
30507W        W95327  41.872   9.679  12.539
30508W        W95328   5.814  30.086  13.633
30509W        W95329  39.605   2.989   0.207
30510W        W95330   3.719  39.183   1.169
30511W        W95331  19.569  12.575  14.775
30512W        W95332   5.459  31.034  12.950
30513W        W95333  23.580  39.835   4.324
30514W        W95334  14.175  10.077   2.221
30515W        W95335  43.551   0.012  10.838
30516W        W95336  16.945   8.148  11.909
30517W        W95337  24.114  26.376   2.963
30518W        W95338   8.755  34.115   3.885
30519W        W95339  17.121  44.274  13.982
30520W        W95340  39.075   4.690   4.577
30521W        W95341  26.129  11.182   4.413
30522W        W95342  19.758  33.969  14.752
30523W        W95343  25.071  25.092  11.662
30524W        W95344  15.817   6.814   0.898
30525W        W95345   7.228  30.626   2.289
30526W        W95346  16.673  24.203  11.544
30527W        W95347  22.103  24.249   4.844
30528W        W95348  30.464  20.766   1.477
30529W        W95349  43.226   0.079   2.900
30530W        W95350  15.244  22.228  14.007
30531W        W95351  34.854  11.720   2.341
30532W        W95352  41.468  18.081  14.905
30533W        W95353  38.039  14.671   2.614
30534W        W95354  19.824  13.841   1.435
30535W        W95355  11.065  12.746  12.698
30536W        W95356  17.704   0.959   1.282
30537W        W95357   3.249  42.993   0.325
30538W        W95358   4.929  44.122  14.513
30539W        W95359  28.624  25.437   1.686
30540W        W95360  10.875  44.516  10.411
30541W        W95361  16.409  18.230   2.001
30542W        W95362  20.781  10.878   2.787
30543W        W95363  20.662  17.296   0.247
30544W        W95364   7.233  32.452  14.821
30545W        W95365  40.300  39.931   2.413
30546W        W95366   9.289  31.514   3.793
30547W        W95367  16.324  26.852  11.889
30548W        W95368  11.301  21.808  12.929
30549W        W95369   9.633  43.337   2.665
30550W        W95370  15.312  25.149  11.563
30551W        W95371  19.024  44.350   2.164
30552W        W95372  17.165  26.179  13.301
30553W        W95373  39.889  27.456  11.920
30554W        W95374  38.907  34.151   2.726
30555W        W95375   9.680  33.572   1.295
30556W        W95376  32.498   8.401  10.720
30557W        W95377  38.476  44.363   3.577
30558W        W95378  30.519  42.411   1.976
30559W        W95379  16.271  23.262  14.639
30560W        W95380  35.481  41.269  13.810
30561W        W95381  30.048   2.976   2.954
30562W        W95382  43.845  25.188   4.030
30563W        W95383  29.692  32.042   3.086
30564W        W95384   1.271   0.442   1.018
30565W        W95385  12.195   0.732   0.820
30566W        W95386  43.430  26.150   0.432
30567W        W95387  32.900  14.552  13.290
30568W        W95388   2.243  42.463  10.760
30569W        W95389  30.470  31.498   3.686
30570W        W95390   6.750  20.076  12.473
30571W        W95391  14.656   2.524   2.727
30572W        W95392   1.432  41.959   2.275
30573W        W95393  28.566  11.770  12.937
30574W        W95394   8.649  28.187  11.896
30575W        W95395  31.089  39.589   4.689
30576W        W95396  19.616  33.975   1.891
30577W        W95397  41.730   5.257   3.189
30578W        W95398   5.853  32.009  11.867
30579W        W95399  42.505  28.909  13.285
30580W        W95400  40.296  39.005  10.286
30581W        W95401  13.735   3.157  11.215
30582W        W95402  44.346  27.467   0.046
30583W        W95403  15.260   2.912   1.080
30584W        W95404   0.549  43.218   1.248
30585W        W95405  25.430  15.536   4.850
30586W        W95406  13.178   6.031  12.908
30587W        W95407  22.981   1.001   3.683
30588W        W95408  14.368  28.340   1.821
30589W        W95409  31.261  33.424   2.891
30590W        W95410  20.794  22.531  10.688
30591W        W95411   8.782   8.186  12.718
30592W        W95412  25.960  14.297   4.020
30593W        W95413  16.822  36.605  13.581
30594W        W95414  32.063   1.907   3.918
30595W        W95415   7.430  10.334   1.176
30596W        W95416  22.198  42.778   0.511
30597W        W95417  39.255  23.981  10.637
30598W        W95418  15.555  15.748   0.923
30599W        W95419   2.875   4.483  14.436
30600W        W95420  33.116   7.932   1.626
30601W        W95421  21.269  11.281  13.394
30602W        W95422  44.520   1.443   0.422
30603W        W95423  22.696  33.909  11.634
30604W        W95424  32.926  17.634   1.388
30605W        W95425  19.333   8.380  13.976
30606W        W95426  20.209  19.601   0.190
30607W        W95427  24.581  23.111  11.436
30608W        W95428  14.561   5.701   3.701
30609W        W95429   7.553  14.307  12.568
30610W        W95430  28.254  10.159  11.530
30611W        W95431  41.017  16.648   3.887
30612W        W95432  39.554  14.469  12.907
30613W        W95433  25.764  44.162   3.710
30614W        W95434  31.289  43.574   4.442
30615W        W95435  22.091  19.066  12.723
30616W        W95436  35.378  43.595  13.601
30617W        W95437  43.742  17.679  12.863
30618W        W95438   1.710  43.354   3.406
30619W        W95439  20.545   5.266   0.315
30620W        W95440  39.120  35.460   0.454
30621W        W95441   2.916   8.978  13.384
30622W        W95442   2.742   7.703  12.029
30623W        W95443   2.306  42.571  12.062
30624W        W95444  34.442  42.759  12.048
30625W        W95445   8.237   0.563   0.393
30626W        W95446  24.542  36.435  14.884
30627W        W95447  39.312   5.974  13.526
30628W        W95448  14.917  22.176  14.421
30629W        W95449  14.202  24.105  13.301
30630W        W95450  26.372   7.588   2.064
30631W        W95451  43.103  18.769   3.329
30632W        W95452  41.842  20.397   4.928
30633W        W95453  19.223  11.688   0.882
30634W        W95454  22.256  22.742  14.754
30635W        W95455   2.472  21.963   3.332
30636W        W95456   2.057  32.383  11.073
30637W        W95457  17.434  18.223   1.915
30638W        W95458   4.634   8.699  10.763
30639W        W95459  28.929  20.558   3.309
30640W        W95460   5.771  11.094   1.880
30641W        W95461  17.171   0.280  13.420
30642W        W95462  31.431  40.026  14.734
30643W        W95463  18.042  34.327   0.095
30644W        W95464  31.648  13.219  11.197
30645W        W95465   6.791  21.110  14.038
30646W        W95466  18.729  24.202  10.333
30647W        W95467  36.521  31.412   3.922
30648W        W95468   4.234  11.458  10.528
30649W        W95469  20.593   3.426  11.171
30650W        W95470  15.516   4.348   3.690
30651W        W95471   7.769   2.280   3.571
30652W        W95472   6.811   8.119   2.293
30653W        W95473  43.517   0.412  13.532
30654W        W95474  38.050  38.665  14.274
30655W        W95475   3.378  41.353   1.655
30656W        W95476  28.124  21.518  13.088
30657W        W95477  16.342  36.065  13.843
30658W        W95478   5.770   5.678  11.993
30659W        W95479  34.630   5.665  12.050
30660W        W95480  13.298  34.452  12.004
30661W        W95481  20.418  32.776  13.946
30662W        W95482   9.936  14.976  12.190
30663W        W95483  10.015  31.170   3.395
30664W        W95484   7.910  20.643   0.741
30665W        W95485  14.397  32.606  11.429
30666W        W95486  25.451   4.889  13.504
30667W        W95487  33.268  36.063  14.400
30668W        W95488  19.846  27.930   1.377
30669W        W95489  29.462   9.583   1.221
30670W        W95490  23.718  27.268  13.546
30671W        W95491  39.130   2.987  14.943
30672W        W95492  35.288  10.298  10.150
30673W        W95493  24.980  17.297   2.730
30674W        W95494  10.103  35.408   4.489
30675W        W95495  31.097  26.221   2.346
30676W        W95496  20.680   6.106   1.672
30677W        W95497   9.655   7.127   2.298
30678W        W95498  25.252  14.749  14.041
30679W        W95499  11.864  15.134  11.110
30680W        W95500  44.729  37.061   0.831
30681W        W95501  15.662  31.799  14.423
30682W        W95502   9.394  39.258  13.013
30683W        W95503  14.087   4.221  14.411
30684W        W95504  10.334  18.962   0.828
30685W        W95505   8.811   6.773  13.665
30686W        W95506  39.787  17.215   3.825
30687W        W95507  22.977  30.009   4.090
30688W        W95508  23.347  43.569  11.655
30689W        W95509   8.821  26.081  10.364
30690W        W95510  41.761  42.792  11.980
30691W        W95511  37.397  16.739   3.175
30692W        W95512  10.658   9.060  13.965
30693W        W95513  36.841  43.869   3.747
30694W        W95514  17.362  41.387   1.751
30695W        W95515  12.934  20.869   2.742
30696W        W95516  30.663  16.258  10.345
30697W        W95517  26.528  37.337   0.503
30698W        W95518   2.682  25.666   4.638
30699W        W95519  17.309   3.427   3.700
30700W        W95520  18.687  27.641   5.173
30701W        W95521  18.075   9.150   0.874
30702W        W95522  15.561  12.944  13.472
30703W        W95523  40.806  28.464   2.000
30704W        W95524  11.616  25.306   3.260
30705W        W95525  42.105   3.297  11.931
30706W        W95526  27.918  39.891  14.882
30707W        W95527  12.167  28.690  10.777
30708W        W95528   8.189  11.741  12.929
30709W        W95529  37.014   8.462   3.306
30710W        W95530  44.793  26.199  11.792
30711W        W95531  34.470  39.095  10.626
30712W        W95532  24.525  39.985   2.821
30713W        W95533  37.304  16.334   1.934
30714W        W95534   0.169  20.092   2.175
30715W        W95535  39.289   0.135  12.427
30716W        W95536  33.945  28.357   3.039
30717W        W95537  16.662  28.607  11.029
30718W        W95538  27.864  10.666  13.228
30719W        W95539  40.012  11.908  14.444
30720W        W95540  27.643   8.101  10.643
30721W        W95541  44.358  27.516   2.403
30722W        W95542  23.286  34.917   2.813
30723W        W95543  41.205   4.698   1.640
30724W        W95544  34.686  20.322  14.380
30725W        W95545  16.181  12.110  13.042
30726W        W95546   5.803  12.116   1.493
30727W        W95547  21.197  17.576  12.031
30728W        W95548  27.082  41.389   1.724
30729W        W95549   0.139  41.316   1.794
30730W        W95550  42.250  26.594  11.559
30731W        W95551  37.380  39.198   2.823
30732W        W95552  37.530  38.004  10.946
30733W        W95553   5.284  43.761   2.811
30734W        W95554   3.342  34.892   2.396
30735W        W95555  41.923  24.806   4.300
30736W        W95556  30.164   5.141   3.296
30737W        W95557  13.115  32.726   0.133
30738W        W95558  31.134  41.407  14.299
30739W        W95559  39.900  42.453  11.170
30740W        W95560  44.943  17.959   4.613
30741W        W95561  17.455  32.189   3.151
30742W        W95562  23.818  21.471   0.871
30743W        W95563   5.666  36.404  14.818
30744W        W95564  36.971  23.620  13.867
30745W        W95565   5.548  30.455   4.938
30746W        W95566  32.097  43.018  13.483
30747W        W95567  41.063  29.648   3.218
30748W        W95568  28.442  20.504  11.939
30749W        W95569   1.468  40.481  10.597
30750W        W95570  37.437   3.347  13.625
30751W        W95571  41.305   0.256  10.995
30752W        W95572  28.521  38.264  14.470
30753W        W95573   9.236  14.664  14.105
30754W        W95574  39.799  22.317  12.566
30755W        W95575  25.969   7.266   2.229
30756W        W95576  36.818  14.083  11.886
30757W        W95577  38.320  15.292  14.390
30758W        W95578   7.848  42.215  10.677
30759W        W95579  10.825  33.446   0.249
30760W        W95580  37.300   1.400   2.677
30761W        W95581  34.968   4.985  14.743
30762W        W95582  42.752   4.906   0.053
30763W        W95583  11.195  40.721  13.589
30764W        W95584  31.401  34.047   1.760
30765W        W95585  23.246  40.909  14.315
30766W        W95586   0.477  38.912  11.563
30767W        W95587  23.660  43.036   2.019
30768W        W95588   9.910  17.416  11.191
30769W        W95589  36.682  30.601   4.217
30770W        W95590  43.857  40.398  12.388
30771W        W95591  27.593   8.733  13.558
30772W        W95592   2.067  33.875   4.343
30773W        W95593   3.899   1.421   3.233
30774W        W95594  31.461  29.945   1.796
30775W        W95595  38.593   8.144   2.848
30776W        W95596  15.648  12.284   4.379
30777W        W95597  31.544   8.766   4.102
30778W        W95598   1.435  14.160   4.252
30779W        W95599  42.615  11.430  11.590
30780W        W95600  30.868  37.256   4.815
30781W        W95601  40.035   4.348   0.308
30782W        W95602  17.001  31.885   5.062
30783W        W95603  16.129  41.263  12.719
30784W        W95604  35.624   8.883  14.477
30785W        W95605   4.263  42.603  13.893
30786W        W95606  44.323   2.288   4.103
30787W        W95607   6.961  26.958   1.411
30788W        W95608  24.607   2.442  12.447
30789W        W95609  32.937  30.391  12.560
30790W        W95610   8.341  36.915  13.112
30791W        W95611  19.647  43.781  14.882
30792W        W95612  31.563  28.858  10.738
30793W        W95613  23.231  26.008   3.852
30794W        W95614   3.382   9.149   4.059
30795W        W95615  28.102  22.790  10.136
30796W        W95616  24.175  40.075   3.206
30797W        W95617  25.094  22.915  12.600
30798W        W95618  20.317  29.595   1.679
30799W        W95619  22.177  42.790  12.105
30800W        W95620   1.160  23.219   4.455
30801W        W95621   0.720  36.383   4.139
30802W        W95622   1.710  40.731  12.039
30803W        W95623   4.980  41.953   1.923
30804W        W95624  21.166  35.756   3.611
30805W        W95625  30.672   4.466  14.356
30806W        W95626  28.546   9.760   2.403
30807W        W95627  44.180  42.719   3.621
30808W        W95628   6.111  20.413   0.305
30809W        W95629  12.280   2.028  12.176
30810W        W95630   1.939  37.008   3.424
30811W        W95631   0.473  25.214   0.480
30812W        W95632   6.696   6.899  11.633
30813W        W95633   7.829   1.711   0.026
30814W        W95634   7.794  31.518   4.757
30815W        W95635  38.053  31.031   4.655
30816W        W95636  21.689   2.634   0.295
30817W        W95637  22.672  12.762   4.171
30818W        W95638  17.224  30.024  13.051
30819W        W95639  17.282  44.199  13.468
30820W        W95640  33.065  24.606   4.393
30821W        W95641  16.800  23.639  12.070
30822W        W95642  28.170  29.462   3.677
30823W        W95643  39.386  34.070  10.550
30824W        W95644  44.954  16.840   0.505
30825W        W95645  17.820   1.685   3.195
30826W        W95646   3.129   3.769  13.414
30827W        W95647   2.848  36.086   3.544
30828W        W95648   0.397  28.759  11.087
30829W        W95649  14.245   7.598   2.252
30830W        W95650  32.838  44.038  12.335
30831W        W95651  30.452  33.866  12.428
30832W        W95652  23.064   1.636   2.415
30833W        W95653  34.340   0.775   1.981
30834W        W95654  39.428  15.283  12.667
30835W        W95655  13.698   3.642   4.528
30836W        W95656  11.064  38.502  14.313
30837W        W95657  43.267  14.797  14.446
30838W        W95658  25.200  27.506  14.319
30839W        W95659   6.219  43.437   3.323
30840W        W95660  11.609  44.374  14.386
30841W        W95661   5.618  33.832  12.885
30842W        W95662   7.646  10.029   2.689
30843W        W95663  43.716   5.211   4.147
30844W        W95664  28.452  39.340  13.811
30845W        W95665  20.677  16.023   2.843
30846W        W95666  36.451  34.675  14.373
30847W        W95667  36.792  28.422  11.671
30848W        W95668   9.391  33.553  13.889
30849W        W95669  34.612  41.350  13.488
30850W        W95670  12.723  23.581  13.568
30851W        W95671  32.586  14.270   4.233
30852W        W95672  43.422   0.736  13.014
30853W        W95673   7.275  44.745  11.122
30854W        W95674  38.006  12.565   4.155
30855W        W95675   7.380   3.789  10.686
30856W        W95676   1.473  34.480  12.384
30857W        W95677  36.929  41.298   4.346
30858W        W95678  35.438   1.315   4.960
30859W        W95679  41.174  14.748   4.571
30860W        W95680  29.418  25.343   4.801
30861W        W95681  16.573   0.417  13.165
30862W        W95682   9.158   4.823   1.376
30863W        W95683  38.447  26.708   0.391
30864W        W95684   3.981  31.105  13.823
30865W        W95685  17.410  39.075   9.795
30866W        W95686  12.530  14.210  12.587
30867W        W95687  10.786  30.731   5.073
30868W        W95688  35.503  20.614   3.813
30869W        W95689   2.465  11.600   1.714
30870W        W95690  38.626  19.567  13.322
30871W        W95691  13.182   2.430  13.390
30872W        W95692  30.997  41.463  11.697
30873W        W95693  36.952  39.144  11.644
30874W        W95694  36.812  25.970   1.597
30875W        W95695  39.006  23.560   0.412
30876W        W95696  21.779   8.441  13.083
30877W        W95697  14.846  40.882   3.149
30878W        W95698   6.093  24.378   4.078
30879W        W95699   7.868  16.335   0.878
30880W        W95700   6.448  18.668   3.142
30881W        W95701  29.147  27.467   3.699
30882W        W95702  23.653  38.675  11.986
30883W        W95703  42.789  42.339   2.345
30884W        W95704   9.283  26.640  10.560
30885W        W95705   3.913  20.164  14.999
30886W        W95706   1.683   2.380  12.951
30887W        W95707   0.293  19.449  10.980
30888W        W95708  26.149  20.262  12.221
30889W        W95709  33.917  34.555   0.995
30890W        W95710  41.344  16.808  11.529
30891W        W95711  33.447  22.522  11.039
30892W        W95712   5.230  44.390  13.783
30893W        W95713  41.570  28.924   1.878
30894W        W95714  39.324  35.867   2.628
30895W        W95715  35.716  22.622   0.446
30896W        W95716   8.711  33.886   4.825
30897W        W95717  28.102   3.324  14.859
30898W        W95718  27.097  19.776   3.331
30899W        W95719  31.612  43.163  13.615
30900W        W95720   7.377  18.814  14.991
30901W        W95721  25.558  29.711  11.549
30902W        W95722  37.460   8.610   4.092
30903W        W95723  35.543   1.664  10.647
30904W        W95724   2.791  22.706   4.933
30905W        W95725  36.372   6.880   0.809
30906W        W95726  28.899  13.143  11.743
30907W        W95727  13.163   2.000  12.037
30908W        W95728  20.077  36.195   1.778
30909W        W95729  23.627  16.637   0.784
30910W        W95730  28.543   6.443  11.985
30911W        W95731  12.850   0.371   1.398
30912W        W95732  44.783  39.593  13.429
30913W        W95733  27.219   6.825   2.226
30914W        W95734  22.082   2.833   2.315
30915W        W95735  18.300   4.499   3.663
30916W        W95736  30.545  14.453   0.370
30917W        W95737   1.419  23.016   1.696
30918W        W95738  29.216   0.415  12.041
30919W        W95739   3.926  39.347   4.578
30920W        W95740  43.597  14.817   2.366
30921W        W95741   9.121   5.369   3.184
30922W        W95742   0.445  10.333  12.041
30923W        W95743  38.474  17.771   3.329
30924W        W95744   1.712  38.705   0.647
30925W        W95745   7.641  15.798  13.586
30926W        W95746  20.559  43.020   3.264
30927W        W95747  31.040  37.214   1.248
30928W        W95748  35.627   4.679   3.151
30929W        W95749   9.890  27.264   9.726
30930W        W95750  32.023  22.299  10.585
30931W        W95751  32.904  42.582   1.656
30932W        W95752  33.019  20.663  12.813
30933W        W95753   3.795   8.884   2.457
30934W        W95754  15.126  33.700  14.431
30935W        W95755  43.013  24.942  12.099
30936W        W95756  30.710  41.797  11.109
30937W        W95757  28.690  26.669   0.956
30938W        W95758  41.105  15.281   0.919
30939W        W95759   8.208   8.672  11.493
30940W        W95760  24.457  23.472  12.175
30941W        W95761  21.069  24.997  14.349
30942W        W95762  30.191   2.048   0.890
30943W        W95763   7.208  37.347   4.392
30944W        W95764  11.677   3.835   3.383
30945W        W95765  29.639  26.597   0.759
30946W        W95766  30.887  37.903   3.717
30947W        W95767  36.312  16.204   9.755
30948W        W95768  40.851   3.924  11.504
30949W        W95769   4.807  22.069  12.591
30950W        W95770  21.960  30.064   2.508
30951W        W95771  20.280  39.495   0.458
30952W        W95772  37.463   3.234   0.065
30953W        W95773  19.648   4.566   1.858
30954W        W95774   7.677  26.768  11.923
30955W        W95775   7.843  28.863  12.926
30956W        W95776  20.251  38.373   3.701
30957W        W95777  36.391  14.743   4.554
30958W        W95778  35.512  22.602   2.177
30959W        W95779  44.909  19.316  14.295
30960W        W95780   1.344  12.553  13.052
30961W        W95781  19.902  38.914   1.797
30962W        W95782   3.706   0.811  11.548
30963W        W95783  20.725  24.116   0.525
30964W        W95784   5.185  21.950   2.716
30965W        W95785   4.859  35.658  12.520
30966W        W95786   0.900  25.713   4.266
30967W        W95787  11.207  24.294  11.616
30968W        W95788  38.646  28.452   2.682
30969W        W95789  40.959  11.133   0.743
30970W        W95790   8.811   3.489  13.240
30971W        W95791  31.116  22.109  11.670
30972W        W95792  44.564  29.841   2.174
30973W        W95793  44.301   2.049   4.557
30974W        W95794  15.952  41.202   4.438
30975W        W95795   8.923  39.116   3.763
30976W        W95796  18.198  27.681  11.695
30977W        W95797  28.206  42.718   0.994
30978W        W95798  21.760  23.869   2.422
30979W        W95799   8.807  20.083   3.691
30980W        W95800   1.698   2.809  12.079
30981W        W95801  22.723   3.259  12.669
30982W        W95802  11.779   0.234   3.049
30983W        W95803  32.500  12.647   4.467
30984W        W95804  13.291  17.364  13.014
30985W        W95805   8.688   5.840  13.073
30986W        W95806  36.337  28.667   0.343
30987W        W95807   2.312  10.255  12.111
30988W        W95808   5.105  37.577  14.554
30989W        W95809  16.734  22.253   4.102
30990W        W95810  36.267  18.728  12.428
30991W        W95811  13.819  21.158  11.537
30992W        W95812   6.236  22.103  10.463
30993W        W95813  28.809  14.361   1.870
30994W        W95814  15.069   1.521   2.329
30995W        W95815   6.346  33.680  11.720
30996W        W95816  39.236  39.306   0.330
30997W        W95817   9.656  15.539   4.071
30998W        W95818  42.950  37.551   0.461
30999W        W95819  26.542  31.912  14.324
31000W        W95820  13.678  24.045  13.919
31001W        W95821  40.988  24.303  13.883
31002W        W95822  23.556   8.648  12.409
31003W        W95823   6.374  40.653   4.734
31004W        W95824  40.909  32.133  10.715
31005W        W95825  36.861  40.830  13.958
31006W        W95826  25.251  10.298   4.685
31007W        W95827  10.226   0.698   2.299
31008W        W95828   8.236  37.505   5.120
31009W        W95829   4.637  33.019   2.802
31010W        W95830  39.272   6.569  12.127
31011W        W95831   9.679  40.508  13.027
31012W        W95832  27.547  36.870  12.882
31013W        W95833  36.869  12.174  11.557
31014W        W95834  37.497  43.533  11.193
31015W        W95835   7.239  19.765  15.000
31016W        W95836  23.679  17.882  13.326
31017W        W95837  11.459  44.340  10.279
31018W        W95838  11.494  30.629   0.822
31019W        W95839  21.493  23.310   1.572
31020W        W95840  12.866  37.120  13.991
31021W        W95841   8.280  20.060   2.310
31022W        W95842  24.708  41.373  13.565
31023W        W95843  37.093   1.490  13.255
31024W        W95844  17.109  44.502  11.549
31025W        W95845  12.321  29.068   1.920
31026W        W95846  10.240  18.772  13.069
31027W        W95847  36.291  29.139  12.096
31028W        W95848  13.250  18.675  12.626
31029W        W95849  31.223  37.919   1.855
31030W        W95850  17.806  35.024   4.427
31031W        W95851  15.572  39.880   1.236
31032W        W95852   0.688  12.605   1.973
31033W        W95853  28.166  24.084  14.423
31034W        W95854  17.257  18.002  14.321
31035W        W95855  41.322  17.110  11.947
31036W        W95856  10.276   9.255  11.547
31037W        W95857  25.684   4.705  14.903
31038W        W95858   2.324  29.381   3.701
31039W        W95859  35.212   7.099  12.090
31040W        W95860   5.344  27.253   1.321
31041W        W95861  14.889  28.651   2.692
31042W        W95862  34.899  35.546  10.587
31043W        W95863  16.156   2.498   1.372
31044W        W95864  42.020  20.055  13.611
31045W        W95865  21.799  21.538   4.575
31046W        W95866  13.677   3.002   4.043
31047W        W95867  41.500  37.919   3.292
31048W        W95868  30.482  11.288   4.108
31049W        W95869   5.318  16.403   3.370
31050W        W95870  18.073  16.319  14.308
31051W        W95871  39.439  26.430   3.838
31052W        W95872  24.505  32.631   4.564
31053W        W95873   0.491   3.814  10.736
31054W        W95874  15.108  12.615  14.495
31055W        W95875   8.269  24.214  12.079
31056W        W95876  15.688  40.068   2.751
31057W        W95877  15.142  36.830   9.771
31058W        W95878  43.376  11.001   3.580
31059W        W95879   3.946  27.852  14.514
31060W        W95880   3.717  33.434   4.527
31061W        W95881   9.627  19.462  11.684
31062W        W95882  41.458  24.681   4.510
31063W        W95883  22.164   5.407   0.888
31064W        W95884  44.254  32.845  14.771
31065W        W95885  23.506  41.776   2.444
31066W        W95886   1.054   8.725   4.010
31067W        W95887  13.405  37.509  10.711
31068W        W95888  15.882   6.036   9.974
31069W        W95889   6.192  34.473   3.983
31070W        W95890  37.083  27.944   1.631
31071W        W95891   1.142  33.589  10.370
31072W        W95892  39.773  39.354   1.417
31073W        W95893  29.492  23.595   1.019
31074W        W95894  26.681  24.367   1.707
31075W        W95895  10.772  33.964   1.062
31076W        W95896   3.347   2.859   2.226
31077W        W95897  36.547  26.814   3.637
31078W        W95898  41.920  16.116  14.333
31079W        W95899  32.604   1.836  12.189
31080W        W95900   5.903  33.639  10.806
31081W        W95901   7.818   7.380   0.993
31082W        W95902  41.896  39.151   1.575
31083W        W95903  34.622  22.294  10.825
31084W        W95904  28.372   6.912  11.041
31085W        W95905  31.061  26.737   2.377
31086W        W95906  13.382  35.377  11.556
31087W        W95907  35.594  18.709  14.538
31088W        W95908  14.364   1.315  14.782
31089W        W95909  37.080  27.485   3.325
31090W        W95910  42.628  38.619  10.778
31091W        W95911  40.917  12.203  11.497
31092W        W95912  19.723   7.748  14.596
31093W        W95913  31.591  33.963  13.578
31094W        W95914  24.731  41.361  11.744
31095W        W95915  15.751   2.831  10.739
31096W        W95916  40.083  17.423   2.677
31097W        W95917  31.117  17.259   1.635
31098W        W95918   6.427  28.392   0.426
31099W        W95919  33.389  18.392   0.843
31100W        W95920  43.400  14.625   0.365
31101W        W95921  34.313  44.399  10.909
31102W        W95922   0.235  38.006  12.883
31103W        W95923  16.018   6.246   2.384
31104W        W95924  37.689  12.848   0.676
31105W        W95925   1.824  19.135   1.021
31106W        W95926  13.853  24.157   1.697
31107W        W95927  22.061  40.862   0.404
31108W        W95928  21.581   9.187  13.727
31109W        W95929  26.429  34.451   3.632
31110W        W95930  35.196  25.106  12.290
31111W        W95931  43.007   1.214   3.274
31112W        W95932  13.225  32.204   5.124
31113W        W95933   3.345  31.390   3.151
31114W        W95934  22.299  10.678  13.741
31115W        W95935  17.314  19.256  11.223
31116W        W95936  18.811  21.245   2.168
31117W        W95937  24.030  24.092  13.866
31118W        W95938  44.271   1.527   4.502
31119W        W95939  24.450  31.257  12.934
31120W        W95940  10.258  40.259   2.797
31121W        W95941  22.942   2.971  11.633
31122W        W95942  37.094  17.578  13.362
31123W        W95943   4.862   8.275  11.651
31124W        W95944  28.135  19.823  11.191
31125W        W95945  26.601   5.428  11.531
31126W        W95946  21.676   2.706  12.456
31127W        W95947  20.092   0.336   2.249
31128W        W95948  26.000   0.367   0.798
31129W        W95949   6.704  19.166  10.733
31130W        W95950  20.077  23.981   2.305
31131W        W95951  22.423  24.660   4.170
31132W        W95952  33.434  32.545   0.798
31133W        W95953  11.146  14.348   2.445
31134W        W95954  18.544  12.902   2.806
31135W        W95955   4.292  28.861   4.533
31136W        W95956   2.403  24.145   0.282
31137W        W95957   1.316  23.987   3.395
31138W        W95958  25.276  24.018   1.354
31139W        W95959  11.739  35.121  12.522
31140W        W95960  17.707  38.481  12.529
31141W        W95961  20.633   3.276  13.403
31142W        W95962  32.024  17.322  12.245
31143W        W95963   0.249  31.189  14.075
31144W        W95964   9.610   4.754  11.900
31145W        W95965  20.494  37.459  10.656
31146W        W95966  16.677  13.408  14.063
31147W        W95967   4.762  11.739   3.648
31148W        W95968  43.964  38.596  11.609
31149W        W95969  43.378  43.249   2.245
31150W        W95970  13.057   5.708  10.645
31151W        W95971  44.314  25.628  13.068
31152W        W95972  14.611   0.746  10.824
31153W        W95973  16.649  16.532   3.286
31154W        W95974   3.997  25.796  14.817
31155W        W95975  35.440  27.014   0.265
31156W        W95976  21.126   1.266   3.502
31157W        W95977  23.571  27.439   4.306
31158W        W95978  32.055  43.587   3.216
31159W        W95979   3.953  12.207   1.267
31160W        W95980  40.988   5.677   3.145
31161W        W95981  28.534  42.856  12.546
31162W        W95982   2.658  24.623   1.358
31163W        W95983   6.337  30.537  12.473
31164W        W95984  38.087  22.170   4.588
31165W        W95985  18.571  36.921   2.524
31166W        W95986  36.083  38.914   0.891
31167W        W95987  40.424  11.119   2.257
31168W        W95988  38.394  31.583   4.037
31169W        W95989  27.079  11.375   3.278
31170W        W95990  15.162  37.735  10.223
31171W        W95991  14.604   7.713  11.907
31172W        W95992  11.732   8.448   3.099
31173W        W95993  31.592   3.275  12.835
31174W        W95994  14.263  27.664  12.490
31175W        W95995  33.021  23.260   2.695
31176W        W95996  30.758  32.933   0.346
31177W        W95997  32.876  37.413  12.698
31178W        W95998  34.965  41.134  13.804
31179W        W95999   9.290  22.628   2.723
31180W        W96000  25.230  12.138   1.238
31181W        W96001  29.948  20.651  13.277
31182W        W96002   2.531  18.522   0.437
31183W        W96003  15.681   1.011   4.243
31184W        W96004  41.912  11.762   9.923
31185W        W96005   6.864  20.284  11.996
31186W        W96006   2.453   0.495   2.232
31187W        W96007  40.638  21.128  13.084
31188W        W96008  42.563  41.708   3.214
31189W        W96009  25.165  44.803   4.539
31190W        W96010  26.796  20.333  10.713
31191W        W96011   2.732  14.360   0.300
31192W        W96012  19.968  44.543  11.791
31193W        W96013   7.819  27.621   3.332
31194W        W96014   0.156  16.600   4.580
31195W        W96015  22.984  35.345  12.393
31196W        W96016  13.056  43.905   1.293
31197W        W96017  34.566  39.934   2.286
31198W        W96018  32.145   0.664   4.066
31199W        W96019  34.737  23.159  10.119
31200W        W96020  31.002  38.897   2.745
31201W        W96021  28.677  22.574   2.201
31202W        W96022  10.363   0.528   3.017
31203W        W96023  12.033  12.342   3.347
31204W        W96024  43.285  19.239   4.313
31205W        W96025  20.321  24.489   1.729
31206W        W96026  13.829  32.913  12.496
31207W        W96027  14.725  13.519  11.421
31208W        W96028   9.601  16.216  12.626
31209W        W96029  15.505  18.085   2.270
31210W        W96030  34.057  43.427  14.757
31211W        W96031  28.232  27.885   4.006
31212W        W96032  40.040  29.483   4.144
31213W        W96033  15.295  33.630   0.696
31214W        W96034  17.829   5.222   0.677
31215W        W96035  41.443  28.624   1.367
31216W        W96036  25.160  39.275   1.372
31217W        W96037  33.229  29.896   3.131
31218W        W96038  22.770   0.483   3.764
31219W        W96039  22.589   1.558   4.082
31220W        W96040  21.914   5.245   3.256
31221W        W96041  23.251  44.050   1.805
31222W        W96042   5.169  29.536   3.622
31223W        W96043  32.369  15.049  14.491
31224W        W96044  32.879  17.084  12.133
31225W        W96045  31.582  18.306   0.261
31226W        W96046  35.738  40.786  11.130
31227W        W96047   6.711   3.773  13.386
31228W        W96048  17.029  10.236   2.699
31229W        W96049  21.972   2.171  10.860
31230W        W96050  42.235  44.452  12.636
31231W        W96051  16.788  24.439  13.418
31232W        W96052  28.161  17.269   1.349
31233W        W96053  24.911  27.691   3.866
31234W        W96054  20.906  23.831   0.904
31235W        W96055  15.653  15.037   1.257
31236W        W96056  42.173  27.105  11.624
31237W        W96057  11.639  11.600   4.450
31238W        W96058  18.275  33.882  12.486
31239W        W96059   4.806   9.906  11.147
31240W        W96060  22.902  19.273   2.127
31241W        W96061  31.630  38.613   4.006
31242W        W96062  12.810  25.084   1.969
31243W        W96063  32.857   4.253   3.743
31244W        W96064  31.363  12.678  12.056
31245W        W96065   0.214  33.901   2.196
31246W        W96066  30.449  31.457   0.270
31247W        W96067   2.024  13.791   2.711
31248W        W96068   0.719  44.537   0.866
31249W        W96069   3.899  20.616   2.261
31250W        W96070  21.732  11.826  12.807
31251W        W96071  19.339  40.629  13.850
31252W        W96072  14.215  35.361  14.778
31253W        W96073  42.105  12.316  12.852
31254W        W96074  25.697   8.839  13.907
31255W        W96075  36.467   6.499   4.089
31256W        W96076   5.306  32.356   0.997
31257W        W96077  30.914   2.880  11.223
31258W        W96078   1.728  10.195  12.968
31259W        W96079  40.910  18.787  14.792
31260W        W96080  20.553  11.222   3.962
31261W        W96081  31.197  19.372   4.097
31262W        W96082  39.344  17.508  14.821
31263W        W96083  16.233  28.218   3.811
31264W        W96084  32.851  36.591  10.630
31265W        W96085  13.698   8.130  14.474
31266W        W96086  35.887  40.381   3.923
31267W        W96087  30.650   4.695   4.582
31268W        W96088  40.074   5.492  10.706
31269W        W96089  40.300  31.454  11.608
31270W        W96090  29.773  27.788   2.104
31271W        W96091  43.142  26.733   5.034
31272W        W96092   1.208  34.652  11.072
31273W        W96093  17.557  32.500  12.182
31274W        W96094  31.472  30.731  11.056
31275W        W96095   4.462   0.776  12.596
31276W        W96096  25.752  23.003  13.987
31277W        W96097  18.493   9.074  14.780
31278W        W96098  18.339  18.129  11.986
31279W        W96099  37.120  18.119   2.039
31280W        W96100  39.279  44.629  12.520
31281W        W96101  29.917  38.554  13.519
31282W        W96102   0.738  24.710   3.650
31283W        W96103  12.264  27.619  14.889
31284W        W96104  13.162  21.600  10.179
31285W        W96105  32.167  37.030   4.525
31286W        W96106  19.365  27.154  12.891
31287W        W96107  24.412  34.889  12.474
31288W        W96108  15.146   0.028   3.264
31289W        W96109  16.343  37.246   1.386
31290W        W96110  42.993   3.777  10.714
31291W        W96111   8.251  40.413   1.000
31292W        W96112  25.497  17.928  14.411
31293W        W96113  21.975  43.378  12.814
31294W        W96114   7.863  38.548  11.624
31295W        W96115  27.942   5.826   3.094
31296W        W96116  15.348  41.821  14.377
31297W        W96117  27.932   2.323  12.317
31298W        W96118  44.203  18.415   4.989
31299W        W96119   0.213  42.766   4.674
31300W        W96120  38.151  38.230   1.255
31301W        W96121  26.602  28.184  11.542
31302W        W96122  14.609  33.040  13.007
31303W        W96123  43.763  12.194   3.140
31304W        W96124  18.651  24.628   4.914
31305W        W96125   5.458  39.630   2.896
31306W        W96126  12.087  34.553  11.188
31307W        W96127  44.440  34.378  12.814
31308W        W96128  13.658  14.333   2.289
31309W        W96129  30.306  26.667   3.981
31310W        W96130   6.277  43.059   1.910
31311W        W96131  37.031  44.759   3.572
31312W        W96132  10.116  43.789   3.202
31313W        W96133  32.648  22.139   1.827
31314W        W96134  33.787  18.943   4.107
31315W        W96135  37.860  37.613  11.534
31316W        W96136  38.898   2.773   4.316
31317W        W96137  17.302  25.648   2.437
31318W        W96138  15.113  16.014  14.370
31319W        W96139  40.500  29.189  11.200
31320W        W96140   9.187  37.577  12.525
31321W        W96141   6.381  14.099   2.823
31322W        W96142   4.171  24.111   5.381
31323W        W96143  13.220  24.238  14.097
31324W        W96144  10.508   0.517   4.168
31325W        W96145  11.645   0.907  12.004
31326W        W96146  22.040  40.447  11.135
31327W        W96147   5.325   7.183  12.617
31328W        W96148  35.101  43.938   2.230
31329W        W96149  34.884   4.577   1.938
31330W        W96150  21.370  15.052   3.377
31331W        W96151  18.088  41.952   2.205
31332W        W96152  18.192  36.940  13.095
31333W        W96153  10.211  17.434   5.040
31334W        W96154  21.211  29.862  10.448
31335W        W96155  28.093   9.212  14.568
31336W        W96156  28.311  22.863   5.107
31337W        W96157  22.773  29.048   3.763
31338W        W96158  17.260  34.512  14.982
31339W        W96159  43.426  17.091  10.905
31340W        W96160  36.064  19.252  11.573
31341W        W96161  28.435  24.224  13.450
31342W        W96162  37.311   7.825   0.781
31343W        W96163  22.378  40.892  14.636
31344W        W96164   5.399  10.683   1.984
31345W        W96165   0.879   4.918   2.916
31346W        W96166  37.166  43.476   4.588
31347W        W96167   8.881   5.894  13.549
31348W        W96168   4.675  42.338  14.084
31349W        W96169  25.731  14.321  11.158
31350W        W96170  21.276  21.810   4.593
31351W        W96171  31.914  13.795  14.925
31352W        W96172  35.863  32.285   1.680
31353W        W96173  10.444  11.925  12.477
31354W        W96174   0.951  23.327  14.446
31355W        W96175  33.486  25.718   4.691
31356W        W96176   8.858  16.027   0.918
31357W        W96177  26.306  27.009  11.148
31358W        W96178  23.515  27.408  13.109
31359W        W96179  36.496  30.222   4.965
31360W        W96180  11.864   5.541   1.852
31361W        W96181  17.803  10.363  14.939
31362W        W96182   3.673   0.609  10.238
31363W        W96183  28.611  15.067   0.352
31364W        W96184   6.292   1.327   3.817
31365W        W96185   2.358  36.506  12.155
31366W        W96186  17.151  22.836   1.829
31367W        W96187  23.167   0.487  11.900
31368W        W96188   3.394  25.229   2.440
31369W        W96189  43.320   4.986  12.623
31370W        W96190   3.849  34.697   4.461
31371W        W96191  20.979  28.116   4.500
31372W        W96192  35.307  38.106   0.163
31373W        W96193  15.143  31.944   3.594
31374W        W96194   8.881   0.067   3.240
31375W        W96195  36.984  37.370   3.739
31376W        W96196   7.856  12.759  11.458
31377W        W96197   7.209  36.661   2.251
31378W        W96198   2.997  26.790   5.008
31379W        W96199  11.891  42.955   3.904
31380W        W96200   6.221   5.442  14.712
31381W        W96201  24.389  39.442   1.715
31382W        W96202  39.747  20.171   0.093
31383W        W96203  20.281  37.148   1.784
31384W        W96204  13.333  33.434  12.127
31385W        W96205   8.895  31.088   5.030
31386W        W96206  39.267   9.841  11.697
31387W        W96207  16.650  29.803   3.213
31388W        W96208  20.685  25.753   1.448
31389W        W96209  12.955  25.709   1.260
31390W        W96210   6.722   8.903   3.648
31391W        W96211   6.722  18.743   3.652
31392W        W96212  23.837   3.954   0.254
31393W        W96213  10.361  24.392  14.572
31394W        W96214  15.640  36.788   0.950
31395W        W96215   3.006  16.218  10.997
31396W        W96216  21.134  41.349  13.008
31397W        W96217  13.861  41.737   0.407
31398W        W96218  23.835  33.651   3.580
31399W        W96219  15.232  11.192   2.465
31400W        W96220  21.864  30.156  14.462
31401W        W96221  18.464  43.413  13.040
31402W        W96222  14.707   0.953   1.805
31403W        W96223  27.396  39.137  14.418
31404W        W96224   8.330  12.302  14.281
31405W        W96225  12.414  41.764  11.384
31406W        W96226  17.655  37.202  13.335
31407W        W96227  23.280  38.019  13.354
31408W        W96228  19.455  33.682   4.253
31409W        W96229  26.923  27.945   3.610
31410W        W96230   6.869   6.078   1.042
31411W        W96231  36.209  13.041   2.355
31412W        W96232  22.063  39.578  11.442
31413W        W96233  44.747  10.541   4.607
31414W        W96234  10.323   8.827  11.941
31415W        W96235  18.127   1.354   0.888
31416W        W96236  10.457  18.238   2.265
31417W        W96237  39.902  23.148   3.259
31418W        W96238  30.567  35.408   2.729
31419W        W96239  30.522  18.154  12.071
31420W        W96240  22.699  13.793   0.382
31421W        W96241  36.417  30.528   0.973
31422W        W96242  35.404  19.489   1.551
31423W        W96243  15.615  29.604  14.869
31424W        W96244  13.441   0.139  10.775
31425W        W96245   5.416   3.243   1.928
31426W        W96246  17.636  41.923  14.018
31427W        W96247  16.551  44.420   2.810
31428W        W96248  40.971  34.099  14.233
31429W        W96249  33.410  21.748  10.722
31430W        W96250  42.715  11.722   5.004
31431W        W96251  33.842  22.735  12.104
31432W        W96252   5.752  35.026   0.907
31433W        W96253  10.033  10.210   9.956
31434W        W96254   7.581  28.241   4.591
31435W        W96255   4.738  24.040  12.127
31436W        W96256   6.747  26.054  12.590
31437W        W96257  34.666  44.791   4.074
31438W        W96258   6.225  18.507   3.579
31439W        W96259  23.833  25.769   3.540
31440W        W96260   5.707  22.041   4.148
31441W        W96261  22.077  39.222   1.931
31442W        W96262  20.753  11.847  14.886
31443W        W96263  34.301  20.711  12.602
31444W        W96264  28.380  34.124   0.931
31445W        W96265  20.791   6.622   4.160
31446W        W96266  43.290  28.051   3.267
31447W        W96267   7.826  28.763   0.331
31448W        W96268  43.418   9.195   4.366
31449W        W96269  35.581  14.141  11.577
31450W        W96270   1.924  10.868  13.905
31451W        W96271  30.161  19.545   4.073
31452W        W96272  31.658  14.642   0.729
31453W        W96273  33.347  10.540  12.949
31454W        W96274   5.726  11.157   1.286
31455W        W96275  31.661  36.942   4.574
31456W        W96276  24.061  34.112  12.185
31457W        W96277  11.328   2.737  14.514
31458W        W96278  17.320  31.120   0.827
31459W        W96279  10.860  40.881  13.969
31460W        W96280  33.525   0.850   0.189
31461W        W96281  41.267  42.252   4.096
31462W        W96282   9.073  30.890   4.588
31463W        W96283   3.650   5.764  14.188
31464W        W96284  34.365  38.986   2.246
31465W        W96285  20.292  40.345  12.689
31466W        W96286  16.505  26.651  14.807
31467W        W96287  15.717  30.660  12.599
31468W        W96288  14.042  40.032   1.813
31469W        W96289  36.983  25.008   4.945
31470W        W96290  32.962  43.461   1.722
31471W        W96291  27.966  10.384   3.390
31472W        W96292  36.999  13.699   2.910
31473W        W96293  19.611   3.766   4.616
31474W        W96294  17.691  44.936   0.371
31475W        W96295  35.271   3.767  14.814
31476W        W96296  44.214  35.318   2.813
31477W        W96297   3.994  11.047   2.853
31478W        W96298   9.030  13.630   2.305
31479W        W96299  22.130  37.185  11.587
31480W        W96300  23.220  17.403   1.917
31481W        W96301   7.254   8.377   0.321
31482W        W96302  39.441   4.945   4.280
31483W        W96303  38.883  17.075   1.788
31484W        W96304  10.455  23.971   2.306
31485W        W96305  25.253  42.064   3.763
31486W        W96306   2.177   3.147   1.692
31487W        W96307   7.372  16.234   3.120
31488W        W96308  27.037  32.075  10.897
31489W        W96309  18.174   3.155   0.895
31490W        W96310  11.322  40.494   3.791
31491W        W96311  36.981  33.922  11.540
31492W        W96312  27.180  43.273  11.007
31493W        W96313  21.971  25.658   2.730
31494W        W96314  43.958  43.378   2.276
31495W        W96315   7.812  30.418  11.914
31496W        W96316  36.482  33.594   0.562
31497W        W96317  12.111  20.284  12.763
31498W        W96318  42.602  11.850  10.853
31499W        W96319  11.077  14.738   3.775
31500W        W96320  37.902  33.463   2.424
31501W        W96321  37.728  40.127   1.675
31502W        W96322   3.897  27.674  11.702
31503W        W96323  34.595  23.017  13.413
31504W        W96324   0.013  37.465   1.874
31505W        W96325   6.006  22.811   5.462
31506W        W96326   2.821  34.342  11.868
31507W        W96327  21.222  13.836  13.781
31508W        W96328  12.347   0.711  13.784
31509W        W96329  15.964  38.124  14.741
31510W        W96330   6.668  10.810  10.736
31511W        W96331  30.125  30.941   1.239
31512W        W96332   8.178  11.891   0.697
31513W        W96333  18.344  23.960   1.281
31514W        W96334  30.873  14.404  14.279
31515W        W96335  33.601  35.978  11.655
31516W        W96336  16.700  15.794   3.724
31517W        W96337  27.541  21.035   0.801
31518W        W96338   5.378  37.747  12.217
31519W        W96339   4.033   2.939  11.991
31520W        W96340  30.856  21.026  11.668
31521W        W96341  17.610   0.259   4.310
31522W        W96342  25.694  25.188   3.555
31523W        W96343  41.369  19.483  14.634
31524W        W96344  41.070  25.629   4.549
31525W        W96345  10.563  11.239  14.785
31526W        W96346  24.054  39.894   1.870
31527W        W96347  27.126  34.679   3.200
31528W        W96348  21.439  39.878   2.821
31529W        W96349  12.244   8.575   4.653
31530W        W96350  42.279  17.540   2.149
31531W        W96351  11.627  28.351   4.998
31532W        W96352  41.532  30.246   3.709
31533W        W96353  25.938  14.003  12.517
31534W        W96354  26.442  20.249   1.227
31535W        W96355  15.525  30.840   0.472
31536W        W96356  26.715  41.447   4.911
31537W        W96357  39.531  21.217   4.697
31538W        W96358   1.876   0.996   1.339
31539W        W96359  42.926  24.068  13.916
31540W        W96360  12.980   8.176   3.598
31541W        W96361  33.403  22.920   0.943
31542W        W96362  29.931   7.051   3.686
31543W        W96363  32.144  39.503  14.975
31544W        W96364  29.904   3.905  12.500
31545W        W96365  41.314   9.722   4.558
31546W        W96366  30.844  25.353   4.899
31547W        W96367  13.266  43.537  12.497
31548W        W96368  26.652   9.305  12.155
31549W        W96369   9.421   7.669   3.157
31550W        W96370  27.741  34.290  12.171
31551W        W96371  10.419  27.005   3.406
31552W        W96372  16.740  29.977   4.556
31553W        W96373  42.276  25.578   1.170
31554W        W96374  38.535  16.755   0.715
31555W        W96375  37.396  32.604   0.940
31556W        W96376  14.212  15.792   1.459
31557W        W96377   0.042   0.825  11.940
31558W        W96378  18.128  28.555   1.798
31559W        W96379  44.100   9.151   0.922
31560W        W96380  29.725  41.433   4.978
31561W        W96381  25.918  22.783   3.725
31562W        W96382  17.118   5.091   3.292
31563W        W96383  38.158  39.621  14.412
31564W        W96384  31.496  12.551   2.145
31565W        W96385  20.079  21.254   5.108
31566W        W96386   7.731  12.826  13.752
31567W        W96387  18.083   3.919  14.307
31568W        W96388  25.567   5.272  11.643
31569W        W96389  22.017  18.907   4.525
31570W        W96390  42.883   9.304  11.178
31571W        W96391   4.750  19.831  14.457
31572W        W96392  35.923  32.469   1.185
31573W        W96393   2.491   9.851   0.491
31574W        W96394   3.361   8.011  11.240
31575W        W96395  34.080  24.215  13.045
31576W        W96396  43.611  34.679   1.881
31577W        W96397  34.412  31.319   3.727
31578W        W96398  13.601  30.069  10.307
31579W        W96399  18.226  29.665   4.024
31580W        W96400  33.175   7.377   2.409
31581W        W96401  28.995  35.555  14.518
31582W        W96402  15.141  19.652   4.598
31583W        W96403  40.512   0.172   2.843
31584W        W96404   0.940  17.516  12.566
31585W        W96405  29.984   4.298   4.492
31586W        W96406  36.337  35.411  13.030
31587W        W96407  42.308   5.403  13.914
31588W        W96408   0.348  33.958  10.958
31589W        W96409  41.336  17.257   5.049
31590W        W96410   9.094  19.180   4.130
31591W        W96411  27.949  37.322   1.459
31592W        W96412  27.216  12.490   2.423
31593W        W96413  16.627  37.815  12.111
31594W        W96414   7.286  32.096   0.201
31595W        W96415  37.196  37.056   1.229
31596W        W96416  22.113  31.969  13.492
31597W        W96417  35.014  29.128   3.829
31598W        W96418  28.509  17.648   1.159
31599W        W96419  30.974  22.141  14.392
31600W        W96420  12.383  29.634   3.071
31601W        W96421   0.228  27.883   0.623
31602W        W96422  26.212  31.505   4.675
31603W        W96423  37.544  15.237   4.625
31604W        W96424  31.726  26.898  13.446
31605W        W96425  34.130  42.089   3.642
31606W        W96426  28.181  44.021   1.960
31607W        W96427  14.762  38.252  11.880
31608W        W96428  31.440  44.086  11.624
31609W        W96429  30.026  16.681  12.954
31610W        W96430  43.463  33.371   0.031
31611W        W96431  21.740  22.065  13.713
31612W        W96432  35.113  26.707   1.293
31613W        W96433   0.816  44.584  11.100
31614W        W96434  13.543  13.859   0.322
31615W        W96435  14.760  24.046  11.565
31616W        W96436  12.448   1.833  13.132
31617W        W96437  10.260   0.393  14.941
31618W        W96438  21.616  34.116  11.865
31619W        W96439   0.356  31.096  12.618
31620W        W96440  15.452  21.693   2.119
31621W        W96441  40.601  11.081  10.197
31622W        W96442  29.404  38.462  13.397
31623W        W96443  20.634  29.503  13.399
31624W        W96444  35.161  37.468  11.683
31625W        W96445  21.736  29.489   0.948
31626W        W96446   7.879   7.720   4.062
31627W        W96447   8.678   0.406   2.886
31628W        W96448  24.649  22.708  14.290
31629W        W96449   3.921  37.600   2.799
31630W        W96450   7.559  17.057   5.077
31631W        W96451  37.455  44.307   2.231
31632W        W96452  37.609  42.816  13.185
31633W        W96453  34.948  37.855  11.427
31634W        W96454  15.889   3.503  11.611
31635W        W96455   2.472  12.165   2.770
31636W        W96456  27.259   6.393   1.648
31637W        W96457   6.902  22.563   3.303
31638W        W96458  24.222  32.966  10.731
31639W        W96459  10.076  36.908  14.388
31640W        W96460  23.586  15.759  11.434
31641W        W96461  38.107  25.487   2.388
31642W        W96462  38.813  37.363   1.769
31643W        W96463  34.187  11.644  14.846
31644W        W96464  14.222  25.397   2.752
31645W        W96465  36.833  21.352  10.767
31646W        W96466  40.396  22.728  11.637
31647W        W96467   4.120  38.495  14.326
31648W        W96468  22.071   7.601  13.439
31649W        W96469  31.383  12.103   0.916
31650W        W96470  32.793   1.436  14.965
31651W        W96471  25.901  35.466   0.704
31652W        W96472   7.951  13.046  14.194
31653W        W96473  15.323  40.468   4.617
31654W        W96474  12.212  33.393   4.401
31655W        W96475   2.830   4.915   3.538
31656W        W96476  10.347   7.718  11.135
31657W        W96477  19.765  29.427   3.668
31658W        W96478   4.338  18.143  12.048
31659W        W96479  28.722   4.725   2.184
31660W        W96480  42.808   3.879  14.036
31661W        W96481   1.878  21.129  11.403
31662W        W96482  32.581  35.573   3.721
31663W        W96483  10.735   7.729   4.430
31664W        W96484  31.485   9.478  13.101
31665W        W96485  10.138  44.012   0.791
31666W        W96486  31.159  14.353  12.148
31667W        W96487  33.864  41.337   4.181
31668W        W96488   3.839  34.482   0.456
31669W        W96489  16.168  42.884   1.814
31670W        W96490  40.495  38.089  12.164
31671W        W96491   1.197  30.698   3.249
31672W        W96492  39.638   6.730   0.384
31673W        W96493  18.695  34.295  14.005
31674W        W96494  13.122  14.989   9.875
31675W        W96495  30.599  21.550  14.790
31676W        W96496  38.949   9.898   0.434
31677W        W96497  14.718  40.287  13.842
31678W        W96498  29.509  35.160  12.074
31679W        W96499  16.420  28.837  10.578
31680W        W96500  16.213  44.079   4.297
31681W        W96501   1.503  18.570   3.992
31682W        W96502  32.816  24.079   1.411
31683W        W96503  15.637   1.395  13.793
31684W        W96504   9.857  29.967   0.824
31685W        W96505   5.443  43.518   2.355
31686W        W96506  12.644  44.342   3.729
31687W        W96507  28.567  19.011   0.007
31688W        W96508   4.735   2.768   3.265
31689W        W96509   2.947  43.967   2.733
31690W        W96510  23.026   0.729  11.469
31691W        W96511  19.653  24.821  11.187
31692W        W96512  19.526  42.789   2.999
31693W        W96513  17.023  16.810   0.826
31694W        W96514   8.941  18.077   3.671
31695W        W96515  39.996   0.348  10.653
31696W        W96516  38.046  15.786  14.456
31697W        W96517  15.145  42.256   1.500
31698W        W96518  15.522  29.585  11.110
31699W        W96519  28.096  28.620   4.183
31700W        W96520  14.434  35.461  13.436
31701W        W96521  13.363   7.779  13.944
31702W        W96522  34.237  26.789   0.781
31703W        W96523   8.014  32.583  14.335
31704W        W96524  38.923   6.985  12.902
31705W        W96525   6.100  23.103  14.048
31706W        W96526  18.015  19.278  11.522
31707W        W96527  39.591  31.955  11.166
31708W        W96528  22.909  18.631   4.186
31709W        W96529   1.792  44.290   3.428
31710W        W96530   2.259   2.910  11.422
31711W        W96531  37.102  17.229   4.469
31712W        W96532  18.266   2.029  10.990
31713W        W96533  37.452  35.072   2.744
31714W        W96534  39.396   1.828  14.778
31715W        W96535  35.337   7.191   1.339
31716W        W96536  35.419  41.282  13.288
31717W        W96537  44.924   4.960  12.674
31718W        W96538  24.175   2.869   1.522
31719W        W96539  24.535  29.500   1.538
31720W        W96540  23.487   1.920   3.328
31721W        W96541  30.039   8.731   1.351
31722W        W96542  39.519  38.472   2.489
31723W        W96543  41.193  16.583   4.352
31724W        W96544  42.539  28.038   4.145
31725W        W96545  26.388  15.557  11.835
31726W        W96546  39.970  22.121   3.426
31727W        W96547  18.761  13.085  13.844
31728W        W96548  24.133  28.369   1.844
31729W        W96549   1.964   8.126   3.180
31730W        W96550   3.149  22.266   3.809
31731W        W96551  21.067   2.205   2.857
31732W        W96552  27.993  39.278   4.714
31733W        W96553  21.520  10.927   4.064
31734W        W96554   4.132  43.877   0.693
31735W        W96555   0.604   7.962   0.841
31736W        W96556  35.688  43.327  13.301
31737W        W96557   6.779  32.652   0.041
31738W        W96558  12.635   7.586  11.155
31739W        W96559  33.975  17.602   0.889
31740W        W96560  35.752  37.384  10.944
31741W        W96561  14.900   3.471   0.272
31742W        W96562  23.591  34.643  11.599
31743W        W96563  12.315   3.782  12.993
31744W        W96564  12.192  37.304   0.446
31745W        W96565  22.004  25.431   1.633
31746W        W96566  41.011  29.040   3.125
31747W        W96567  12.117  39.510   2.696
31748W        W96568   7.222  20.358   0.009
31749W        W96569  10.331  40.859  14.996
31750W        W96570  42.237  22.225  12.733
31751W        W96571  17.332  13.850  13.855
31752W        W96572  36.787  23.084   0.964
31753W        W96573  16.689  12.143  11.204
31754W        W96574  38.185  20.361   3.704
31755W        W96575  18.048  43.440   0.816
31756W        W96576   2.351   8.062  14.824
31757W        W96577  13.700  37.933   4.020
31758W        W96578   9.118  34.880  10.284
31759W        W96579  17.522  11.145   3.955
31760W        W96580   6.202  42.469   4.305
31761W        W96581   4.626   4.572  13.451
31762W        W96582  30.536   6.691   2.736
31763W        W96583  29.210   5.670   0.819
31764W        W96584  35.346   0.612   1.254
31765W        W96585  33.322  28.932  11.035
31766W        W96586  22.050  39.063  11.376
31767W        W96587   2.017  38.117  11.610
31768W        W96588   2.636   5.467   2.353
31769W        W96589  26.685  18.469   4.634
31770W        W96590  21.549   2.700  13.243
31771W        W96591  40.302   4.173   3.597
31772W        W96592   5.865  12.922  13.843
31773W        W96593  41.747  12.294   2.895
31774W        W96594  12.555   2.211  14.724
31775W        W96595  31.976  41.774   3.252
31776W        W96596  26.464  17.472   2.690
31777W        W96597  14.246   5.475   0.347
31778W        W96598  14.622  17.065  14.785
31779W        W96599   0.985   8.117  13.627
31780W        W96600  14.535  34.220   2.885
31781W        W96601  31.934  40.592   3.671
31782W        W96602  19.805  27.414   1.499
31783W        W96603   6.171  14.872   2.647
31784W        W96604  12.252  14.821   2.210
31785W        W96605   4.848  41.369  12.054
31786W        W96606   4.980  28.122  13.019
31787W        W96607  35.109  29.510  11.556
31788W        W96608   3.716  20.386   3.749
31789W        W96609  20.440  41.817   2.881
31790W        W96610  33.116  20.191   1.160
31791W        W96611   1.335  13.809  11.333
31792W        W96612  39.099  15.547   2.847
31793W        W96613  28.478  11.407   4.873
31794W        W96614  42.214  40.160  14.970
31795W        W96615  30.083  27.062  11.135
31796W        W96616  39.539  26.988  11.104
31797W        W96617  34.896   5.747  12.515
31798W        W96618  20.330  39.828  12.505
31799W        W96619   5.656  19.285   3.635
31800W        W96620  24.532  17.697   1.305
31801W        W96621  31.110  28.605  13.940
31802W        W96622  15.050   5.851   3.664
31803W        W96623  18.806  41.439   3.211
31804W        W96624  44.069  22.463   1.265
31805W        W96625  37.156  42.957   0.456
31806W        W96626  29.456  12.054  13.011
31807W        W96627  34.440   8.474  12.144
31808W        W96628  32.913  36.172  11.141
31809W        W96629  33.365  15.982  12.125
31810W        W96630  40.444  44.951   0.305
31811W        W96631   8.036  15.780   9.978
31812W        W96632  36.973   3.510   2.957
31813W        W96633  15.893  19.377   3.263
31814W        W96634  43.709  22.019   3.341
31815W        W96635  33.192  31.442  14.808
31816W        W96636  22.690  24.793  14.089
31817W        W96637  37.264  38.007   1.278
31818W        W96638  39.309  21.250  10.624
31819W        W96639  10.411  38.793  13.558
31820W        W96640   1.215   0.905  13.343
31821W        W96641  43.841  42.367   4.940
31822W        W96642  36.016  11.095  13.849
31823W        W96643  21.964  28.423  14.125
31824W        W96644   3.800  24.274   1.481
31825W        W96645  18.065  38.441   0.667
31826W        W96646  24.929  17.565  10.666
31827W        W96647  21.692  19.859   1.248
31828W        W96648  12.952  24.267   1.193
31829W        W96649   2.165  29.804  14.815
31830W        W96650  40.953  39.386  12.540
31831W        W96651  31.628   9.429  13.911
31832W        W96652   5.784  23.576   3.182
31833W        W96653  41.172  36.963  14.788
31834W        W96654  22.530  33.600   3.231
31835W        W96655  29.289  19.082   3.568
31836W        W96656  39.420  23.512  10.394
31837W        W96657  32.896   3.407   0.561
31838W        W96658  16.991  34.211   4.694
31839W        W96659  10.203  38.372  11.014
31840W        W96660  34.696  22.792   4.250
31841W        W96661  39.569  23.023  14.412
31842W        W96662   0.202  17.738  11.529
31843W        W96663  27.042  20.066  14.342
31844W        W96664  41.288  42.452   3.629
31845W        W96665  27.976  42.932   2.945
31846W        W96666   5.852   8.570  13.566
31847W        W96667  35.912  33.112   2.025
31848W        W96668  33.568  36.925   2.418
31849W        W96669  20.465  27.364  13.871
31850W        W96670  44.696   0.486   0.955
31851W        W96671  19.227   9.925   2.646
31852W        W96672  10.829  34.599  12.036
31853W        W96673   2.270  37.901  14.797
31854W        W96674  32.791   9.598  14.305
31855W        W96675  37.829   7.217  10.561
31856W        W96676  34.129   9.071   5.065
31857W        W96677  42.479  24.627  10.473
31858W        W96678  43.258  41.969   4.360
31859W        W96679  13.571  13.407  12.894
31860W        W96680  33.444   4.160   1.256
31861W        W96681  20.950  44.310   3.029
31862W        W96682  11.105   0.696  10.896
31863W        W96683  11.148   4.441  10.976
31864W        W96684   9.925  35.925  12.007
31865W        W96685   3.427  35.797   2.336
31866W        W96686  16.248  33.512   1.690
31867W        W96687   2.777  28.850  13.321
31868W        W96688  27.950  37.829   5.060
31869W        W96689  17.908  32.406   4.531
31870W        W96690  36.260  23.519  12.540
31871W        W96691   2.444  26.088   3.268
31872W        W96692  23.620  11.183  10.389
31873W        W96693  41.105  29.170  14.236
31874W        W96694  38.723  26.471  11.332
31875W        W96695   1.124  22.683  14.839
31876W        W96696   3.230  39.988  10.664
31877W        W96697   3.379   3.440  10.752
31878W        W96698   8.111   4.906   0.879
31879W        W96699  31.988   1.626   0.983
31880W        W96700  11.912  14.701  11.417
31881W        W96701  17.620  41.196  10.808
31882W        W96702  39.928   6.831  13.777
31883W        W96703   6.712  10.485   2.857
31884W        W96704  26.165  27.351  11.622
31885W        W96705  35.519  21.317  10.652
31886W        W96706  21.158  26.631   0.446
31887W        W96707  17.046  20.624   2.304
31888W        W96708  36.335  12.694   4.132
31889W        W96709   0.011  40.637  13.076
31890W        W96710  16.227  28.419  10.831
31891W        W96711  16.979   4.838  10.344
31892W        W96712  26.604  20.254  14.123
31893W        W96713  19.245  17.537  14.893
31894W        W96714  16.015  25.584  11.407
31895W        W96715   1.582  11.142  11.473
31896W        W96716  27.479   0.562   0.983
31897W        W96717  28.691  24.026  12.513
31898W        W96718   3.811  38.707  13.935
31899W        W96719  15.787   5.122   0.443
31900W        W96720  30.698  36.556   4.178
31901W        W96721   6.165   4.968  14.976
31902W        W96722  36.036  19.898  12.889
31903W        W96723  36.423   4.444   0.717
31904W        W96724  34.459   7.696   1.343
31905W        W96725  42.247  32.618  13.645
31906W        W96726  40.668   5.953   1.485
31907W        W96727  32.847  20.875  14.846
31908W        W96728  29.548   9.251   3.880
31909W        W96729   4.175  19.624  13.823
31910W        W96730  18.666  17.250   3.158
31911W        W96731  19.463  36.553   0.884
31912W        W96732  43.312  17.086  13.451
31913W        W96733  13.106   9.809  11.943
31914W        W96734  41.188   4.369  12.904
31915W        W96735   0.943  14.504   1.186
31916W        W96736  35.989  26.485  14.631
31917W        W96737  10.345  27.031   3.929
31918W        W96738  26.628  39.264   2.390
31919W        W96739   7.849  19.168  12.532
31920W        W96740  33.658   8.223   3.549
31921W        W96741  25.577  36.580   3.335
31922W        W96742  38.499  43.298  11.328
31923W        W96743  36.281   1.507   4.689
31924W        W96744  26.422  25.545  13.548
31925W        W96745  23.227   0.247   1.425
31926W        W96746  31.454  19.715   0.326
31927W        W96747  23.513  44.138  12.575
31928W        W96748   4.848  40.242  12.713
31929W        W96749  25.924  39.399   1.399
31930W        W96750  30.956  38.632  14.782
31931W        W96751  35.271   0.575  11.565
31932W        W96752  21.721  42.715  14.310
31933W        W96753  18.750   4.218   3.679
31934W        W96754  18.071  15.912  14.673
31935W        W96755  39.055   1.224   2.413
31936W        W96756  13.580  19.592  10.195
31937W        W96757   8.902   8.865   3.698
31938W        W96758   4.420   0.366  12.240
31939W        W96759  14.644  16.595   2.430
31940W        W96760   3.184  37.439  12.599
31941W        W96761   5.773   3.970   0.016
31942W        W96762   0.570  14.829  14.972
31943W        W96763  16.133   7.463   3.768
31944W        W96764  34.144  18.523   2.364
31945W        W96765  10.110  23.768   2.632
31946W        W96766  29.950  30.302  14.256
31947W        W96767   5.922  30.456  11.609
31948W        W96768  38.492  11.315  11.878
31949W        W96769   4.426  38.507   2.270
31950W        W96770  23.503  14.588   0.824
31951W        W96771  27.725  12.199  11.056
31952W        W96772  38.383   5.725   3.930
31953W        W96773   7.666  43.781   1.645
31954W        W96774  16.731  40.468   3.125
31955W        W96775   9.181  24.153   3.927
31956W        W96776  37.468  17.717  10.298
31957W        W96777  26.249  23.293  12.879
31958W        W96778  32.940  13.671  14.713
31959W        W96779  19.529  30.924   3.746
31960W        W96780  27.189  29.588  13.977
31961W        W96781  22.771   1.367   0.824
31962W        W96782   8.674  14.723   3.849
31963W        W96783  28.719  35.460   3.573
31964W        W96784   2.916  34.542  12.343
31965W        W96785  14.770  33.690  11.099
31966W        W96786  30.550  27.433   0.440
31967W        W96787  22.578  35.542   0.493
31968W        W96788   0.036   1.348   0.832
31969W        W96789   9.442   7.185  13.928
31970W        W96790  10.597  19.492   3.585
31971W        W96791  15.864  30.132  12.422
31972W        W96792  31.877  17.196   4.564
31973W        W96793  33.041  27.425  12.459
31974W        W96794  42.815   4.906  13.343
31975W        W96795  43.305  16.372  13.035
31976W        W96796  18.900  30.478   2.296
31977W        W96797  41.866   0.082   3.801
31978W        W96798  22.613  31.869  11.844
31979W        W96799   5.338  14.215   4.202
31980W        W96800  31.720  35.019  12.161
31981W        W96801   7.675  16.642   4.776
31982W        W96802   1.178  24.183  11.025
31983W        W96803  38.412   5.509  10.455
31984W        W96804  18.818  18.652   0.903
31985W        W96805   1.001  25.034   1.931
31986W        W96806  20.226  24.538  14.483
31987W        W96807  29.089  23.080  12.512
31988W        W96808   4.838  10.969   1.336
31989W        W96809   4.141  18.317  12.501
31990W        W96810  13.325  31.055  14.471
31991W        W96811  17.286  21.612   4.281
31992W        W96812  27.395  40.274  10.743
31993W        W96813  12.386  26.071  13.944
31994W        W96814  30.382  12.520   0.412
31995W        W96815  30.936  16.614  12.936
31996W        W96816  44.731  17.464   4.590
31997W        W96817  25.656  17.075   5.094
31998W        W96818  33.432  28.534  10.716
31999W        W96819  29.121   8.693  13.384
32000W        W96820  34.488  13.083  14.584
32001W        W96821   5.094   0.284   2.924
32002W        W96822  30.903  25.936   0.305
32003W        W96823  27.643  15.045   1.857
32004W        W96824  41.465   3.798   4.715
32005W        W96825  42.966  18.094   3.088
32006W        W96826  13.935  13.607   4.613
32007W        W96827  35.176  43.582  11.163
32008W        W96828  13.658  33.073  11.534
32009W        W96829  38.805   1.420  11.083
32010W        W96830  34.936  14.069  10.725
32011W        W96831   7.954  33.527   0.764
32012W        W96832  13.230  17.170  13.504
32013W        W96833   5.448  28.599   4.127
32014W        W96834   7.973  37.416   4.136
32015W        W96835  24.366  15.685   3.660
32016W        W96836  24.609   0.473  12.165
32017W        W96837  19.034  37.013   2.750
32018W        W96838  40.567  42.841   2.731
32019W        W96839  41.366   1.750   1.187
32020W        W96840  14.170   3.789   0.786
32021W        W96841  10.231   6.175   4.544
32022W        W96842   7.639  12.782  11.920
32023W        W96843   4.720  29.462  14.343
32024W        W96844  41.755  38.777  13.591
32025W        W96845  24.395  39.777  14.825
32026W        W96846   5.982   7.636  11.975
32027W        W96847  10.634  12.755   0.335
32028W        W96848  44.257   7.583  10.570
32029W        W96849  39.827  34.697   3.646
32030W        W96850  18.545  35.578   1.289
32031W        W96851  35.622  32.590   2.365
32032W        W96852   5.876  16.263  14.331
32033W        W96853  30.572  24.220   3.124
32034W        W96854  40.815  43.002  14.353
32035W        W96855  11.858  36.963  14.923
32036W        W96856  11.838  36.039   4.700
32037W        W96857  11.037  32.931   3.758
32038W        W96858   9.830  43.947   0.358
32039W        W96859  16.824  11.091   2.079
32040W        W96860  38.516  20.695   2.887
32041W        W96861  38.839  21.575   1.133
32042W        W96862  13.756  34.187  12.927
32043W        W96863  34.315  17.727   1.312
32044W        W96864  33.607  33.937  13.829
32045W        W96865  31.406  23.146  14.921
32046W        W96866   5.248  23.629  11.547
32047W        W96867  17.525  41.194  13.440
32048W        W96868   2.407   4.236  14.360
32049W        W96869   8.768  44.460   2.345
32050W        W96870  41.289  41.183   2.274
32051W        W96871   0.820  34.201  14.519
32052W        W96872  34.843  37.363  10.785
32053W        W96873  12.179  24.742  14.498
32054W        W96874  41.796  30.903  10.733
32055W        W96875  28.083  16.273   3.304
32056W        W96876  22.148   5.128  13.472
32057W        W96877  31.185  14.790   0.800
32058W        W96878  17.717  34.503  10.269
32059W        W96879   1.736   3.689  14.889
32060W        W96880  43.108  16.713  10.759
32061W        W96881  22.016  44.992  14.747
32062W        W96882   7.690  34.524  13.415
32063W        W96883   3.674  26.983   3.730
32064W        W96884  12.234   2.136   4.413
32065W        W96885  35.067  41.826   1.457
32066W        W96886  22.935  22.843  12.855
32067W        W96887  27.567  34.187   4.453
32068W        W96888   6.283  15.565  11.001
32069W        W96889  24.450  41.368  14.049
32070W        W96890  43.094  31.343  13.359
32071W        W96891  37.118  28.292   2.119
32072W        W96892   1.048  31.952  12.004
32073W        W96893  37.701  30.426   4.973
32074W        W96894  26.870  32.900  14.521
32075W        W96895  44.935  15.144  11.021
32076W        W96896  41.605  18.441   3.771
32077W        W96897  41.803  38.830  14.910
32078W        W96898  36.452   3.290   3.713
32079W        W96899  40.725  23.831  14.530
32080W        W96900  16.032  23.112   4.728
32081W        W96901  14.229   8.134   1.201
32082W        W96902  29.448  24.951   1.591
32083W        W96903  14.274  28.102  11.660
32084W        W96904  35.569  28.084   1.133
32085W        W96905  30.673   7.066   1.167
32086W        W96906   0.199  36.063  13.775
32087W        W96907  35.118   0.100  11.513
32088W        W96908  22.883   2.329  13.008
32089W        W96909  36.911  34.164  11.994
32090W        W96910  30.916  17.512   3.794
32091W        W96911  31.385  30.487  11.489
32092W        W96912  17.306  13.103  14.807
32093W        W96913   6.838  24.408  11.886
32094W        W96914  37.415   1.176  11.960
32095W        W96915   8.342   9.122  11.270
32096W        W96916  23.798  22.510   4.318
32097W        W96917  14.121  13.785   1.355
32098W        W96918  20.236   7.395   0.853
32099W        W96919   2.865   0.992  12.288
32100W        W96920  44.803  34.466   2.700
32101W        W96921  33.850  29.994   2.080
32102W        W96922   6.654  24.754   2.146
32103W        W96923  22.051   6.207  10.659
32104W        W96924   4.813  32.636  13.813
32105W        W96925   7.196  11.045  13.869
32106W        W96926  43.524  30.391  12.354
32107W        W96927  41.393  43.790  11.201
32108W        W96928   0.122  31.120  10.664
32109W        W96929  12.722  19.045  13.033
32110W        W96930  14.513  26.448  12.802
32111W        W96931  44.447  44.947  11.546
32112W        W96932   8.707   0.273  14.705
32113W        W96933   8.772  18.729  10.557
32114W        W96934  29.903  20.177  14.083
32115W        W96935   4.481  29.200   2.704
32116W        W96936  28.532   5.181  13.956
32117W        W96937  40.225   5.459   2.286
32118W        W96938  16.799  17.550  12.539
32119W        W96939  36.275  39.747  12.431
32120W        W96940  11.606   7.028  12.540
32121W        W96941  16.913  28.507  13.809
32122W        W96942  15.014  13.821  12.644
32123W        W96943  38.790  11.700   1.750
32124W        W96944   5.805   7.111   2.169
32125W        W96945  18.344  23.233   0.851
32126W        W96946  38.908  12.613   2.770
32127W        W96947  40.132   3.700   1.893
32128W        W96948  39.873  31.569  12.843
32129W        W96949  17.084  26.044   3.139
32130W        W96950  34.475   1.092  13.935
32131W        W96951  40.286  35.022  14.783
32132W        W96952  43.865  37.304   1.378
32133W        W96953  20.745   2.294   2.195
32134W        W96954  34.645   5.115   2.147
32135W        W96955  13.853   0.694  11.943
32136W        W96956  38.734  28.822  13.813
32137W        W96957  26.052   1.697  12.912
32138W        W96958   0.439  44.415   0.463
32139W        W96959  29.188   1.925  12.145
32140W        W96960  23.788  10.749  10.149
32141W        W96961  31.220  44.019  13.411
32142W        W96962  41.499  13.090  13.136
32143W        W96963  33.073  36.411   1.521
32144W        W96964   7.615  40.881  13.459
32145W        W96965  21.113  43.704   1.228
32146W        W96966  43.967  38.509   1.806
32147W        W96967  44.464   8.790   2.260
32148W        W96968   9.307  27.567  10.421
32149W        W96969   3.307  44.390  12.211
32150W        W96970  18.009   7.639  14.823
32151W        W96971  41.355   2.294   1.162
32152W        W96972  29.695  23.104   0.794
32153W        W96973  14.112  42.763   3.533
32154W        W96974   5.366  26.908   3.134
32155W        W96975  21.321  29.071   4.040
32156W        W96976  33.073  24.464  13.319
32157W        W96977  23.112  44.024  10.748
32158W        W96978  15.807   8.002  13.715
32159W        W96979  21.975   8.080   4.988
32160W        W96980  23.268  14.052  14.580
32161W        W96981  17.259  23.034   1.358
32162W        W96982  10.241  15.188  13.789
32163W        W96983   2.782   1.833  12.411
32164W        W96984  23.931  38.626  13.392
32165W        W96985  28.911  43.857   2.516
32166W        W96986  36.070  18.617   3.256
32167W        W96987   2.632  20.796   3.477
32168W        W96988   7.866  13.210  11.736
32169W        W96989  39.871  20.767  11.524
32170W        W96990   1.783   5.777  12.177
32171W        W96991  27.601  36.693  14.535
32172W        W96992  13.484   0.247  14.366
32173W        W96993  35.288  39.373   3.721
32174W        W96994   0.453  43.482   0.548
32175W        W96995  30.565  36.893   2.839
32176W        W96996  44.860  35.224   0.990
32177W        W96997  11.851  42.751  14.696
32178W        W96998  28.995   8.839   5.059
32179W        W96999  19.633  39.610  12.071
32180W        W97000  30.379  18.534   0.477
32181W        W97001  21.215  25.497  13.756
32182W        W97002   2.473  10.360  13.466
32183W        W97003  23.088   7.898   3.503
32184W        W97004  12.347  26.139  14.861
32185W        W97005  25.432  29.463   4.130
32186W        W97006  39.535  35.891  12.780
32187W        W97007   4.920  30.085   2.664
32188W        W97008   5.163   7.737  10.622
32189W        W97009  19.274  14.255   2.798
32190W        W97010   2.186   9.947   3.911
32191W        W97011   3.112   7.183   0.429
32192W        W97012   0.413  43.296   3.578
32193W        W97013   7.892  11.615   2.314
32194W        W97014  25.564   1.898  14.907
32195W        W97015   8.633  38.437   4.345
32196W        W97016  16.576  35.508   0.283
32197W        W97017   6.751   5.183   1.100
32198W        W97018  34.581  24.945  12.509
32199W        W97019   9.193  11.021   3.159
32200W        W97020  43.420  13.946   2.617
32201W        W97021  18.014   9.430   3.724
32202W        W97022   6.340  14.505  12.536
32203W        W97023  20.429  33.350  11.928
32204W        W97024   6.687  12.047   1.401
32205W        W97025  20.135   5.367  13.563
32206W        W97026  36.884  24.058   0.716
32207W        W97027  16.101  12.902   4.506
32208W        W97028  36.340   6.989   4.132
32209W        W97029  37.473  25.494  11.634
32210W        W97030  30.845  30.902  14.594
32211W        W97031  10.227  24.557  12.800
32212W        W97032  38.400  33.505   1.096
32213W        W97033  37.599  35.472  14.977
32214W        W97034  20.799  19.210  13.399
32215W        W97035  10.939  25.473  14.650
32216W        W97036  37.539  24.615  14.249
32217W        W97037  19.909  33.512   0.749
32218W        W97038  37.151  44.853   0.228
32219W        W97039  38.808  37.564   3.843
32220W        W97040  11.691   7.526  12.484
32221W        W97041  13.286  27.522   0.141
32222W        W97042  36.806  12.265   1.872
32223W        W97043  18.931  18.654   1.792
32224W        W97044  15.545  41.613   3.641
32225W        W97045  18.275  41.428  13.543
32226W        W97046  27.925   2.468  13.930
32227W        W97047   6.254   0.324  11.087
32228W        W97048  44.957  11.867  13.244
32229W        W97049  41.055   6.186  11.138
32230W        W97050  38.462  31.000  13.935
32231W        W97051  11.873  27.765   9.920
32232W        W97052  23.429  40.496   2.182
32233W        W97053  27.111  24.624   1.022
32234W        W97054  38.640  44.877   0.393
32235W        W97055  22.489  15.250  10.701
32236W        W97056  20.803  31.530   0.325
32237W        W97057  13.202  36.379   3.737
32238W        W97058   8.698   7.217  14.436
32239W        W97059  13.611  13.748   1.232
32240W        W97060  13.093  20.809  12.824
32241W        W97061  21.969  11.134   3.712
32242W        W97062  32.622   0.752  11.237
32243W        W97063  25.079  35.400  12.211
32244W        W97064  24.448  23.915   3.162
32245W        W97065  33.592  17.968   4.183
32246W        W97066   3.091  16.119   0.834
32247W        W97067  41.216  44.449  13.770
32248W        W97068  16.505  27.181  10.491
32249W        W97069   3.675  37.794  14.971
32250W        W97070  31.786  40.165  12.127
32251W        W97071  37.180  16.637  12.828
32252W        W97072  27.974   7.747  10.410
32253W        W97073   3.693   2.842   3.379
32254W        W97074  36.588  38.084  14.295
32255W        W97075  13.986  13.365   2.136
32256W        W97076  31.952  28.055   3.120
32257W        W97077  22.577   7.219   1.439
32258W        W97078   2.295  18.971   0.742
32259W        W97079   8.214  26.560   4.309
32260W        W97080  13.836  11.546  12.443
32261W        W97081  28.960   8.207   2.367
32262W        W97082  23.405   4.921   1.803
32263W        W97083   5.900  41.471  13.949
32264W        W97084  25.185  13.381  10.471
32265W        W97085  21.829  16.224  14.693
32266W        W97086  38.876  21.126   1.394
32267W        W97087   5.338  42.546   4.740
32268W        W97088  19.444  38.380   3.262
32269W        W97089   0.929  34.113   3.555
32270W        W97090   6.234  29.746   4.284
32271W        W97091  23.319  27.334   0.262
32272W        W97092  29.582  21.191  10.437
32273W        W97093   5.852   7.627  13.258
32274W        W97094   8.826  30.016  10.506
32275W        W97095  38.099   8.357  12.487
32276W        W97096   8.219  13.146  11.065
32277W        W97097  26.629  13.289   1.641
32278W        W97098  26.827   8.177   0.270
32279W        W97099  12.704  36.621   2.380
32280W        W97100  12.334  35.049  13.080
32281W        W97101  14.378  16.304   4.923
32282W        W97102  33.083  31.025  10.607
32283W        W97103   1.626  28.569  11.628
32284W        W97104   2.211  28.072   1.512
32285W        W97105  10.672   9.159  14.469
32286W        W97106   9.225   9.996  11.913
32287W        W97107  18.918  34.725  11.115
32288W        W97108  34.417  20.056   3.716
32289W        W97109  37.833  26.600   4.592
32290W        W97110  15.607  19.298  13.782
32291W        W97111  20.300  19.259  11.538
32292W        W97112  26.014  23.460   1.155
32293W        W97113  37.025  44.300   1.269
32294W        W97114  13.309  12.322   0.938
32295W        W97115   1.028  15.901  14.484
32296W        W97116   3.968  28.129  12.379
32297W        W97117  39.529   0.152  10.994
32298W        W97118  27.605  21.039   3.670
32299W        W97119  18.600  27.375  12.979
32300W        W97120  30.528  27.656   1.686
32301W        W97121  43.538  39.797  13.142
32302W        W97122  42.948  39.840  13.802
32303W        W97123   3.328  37.589  13.452
32304W        W97124  41.911  41.544   4.103
32305W        W97125  14.142  36.352   5.376
32306W        W97126  14.495  41.264  12.315
32307W        W97127   1.218   3.725  14.875
32308W        W97128  42.541  10.436   3.082
32309W        W97129  44.070  34.589  14.992
32310W        W97130  39.360  12.407   1.700
32311W        W97131  14.721  36.629   0.847
32312W        W97132  33.707  34.746   4.979
32313W        W97133   6.882  18.548   4.251
32314W        W97134  15.625  41.520  12.881
32315W        W97135  16.825  31.461   2.337
32316W        W97136  42.413  26.062   1.281
32317W        W97137  29.476  42.944  11.010
32318W        W97138  34.928   1.788  14.903
32319W        W97139  42.468  38.367   1.768
32320W        W97140  30.913  30.139   4.655
32321W        W97141  40.715   5.819  11.616
32322W        W97142  24.688  29.287  14.349
32323W        W97143  34.534  35.504   2.437
32324W        W97144  39.573  17.815  13.501
32325W        W97145   1.277  31.861   0.419
32326W        W97146  13.324  26.590   0.364
32327W        W97147  11.455  19.124  10.769
32328W        W97148   1.211  40.047  13.420
32329W        W97149  12.924  13.265   2.897
32330W        W97150   8.381  32.095   4.390
32331W        W97151  44.042  13.244   2.305
32332W        W97152  10.158  39.784   0.228
32333W        W97153  34.043  43.451  14.231
32334W        W97154  22.791   0.701   3.280
32335W        W97155  41.816  41.330  11.614
32336W        W97156  17.051   1.905   2.757
32337W        W97157   9.895  23.564  11.488
32338W        W97158  25.245  34.902   1.231
32339W        W97159  28.652  27.556   4.088
32340W        W97160  39.319  19.269  10.684
32341W        W97161  13.992  43.761  11.189
32342W        W97162  41.334  30.014  13.664
32343W        W97163  39.397   2.815   4.177
32344W        W97164  40.963  38.894   2.861
32345W        W97165   0.431   3.638   4.490
32346W        W97166  33.033  35.569  12.913
32347W        W97167   2.314  19.484   2.227
32348W        W97168  43.418  18.568  10.646
32349W        W97169  39.013  33.174   2.904
32350W        W97170   0.499  20.944  10.157
32351W        W97171  20.824  22.066   4.754
32352W        W97172  10.207   7.768   5.011
32353W        W97173   3.807  19.585   3.223
32354W        W97174  11.068  26.562   4.327
32355W        W97175   5.720  26.566   1.787
32356W        W97176  36.361  23.041  14.399
32357W        W97177  15.423   4.242   2.755
32358W        W97178  20.489   0.985  13.352
32359W        W97179  33.900  40.854  12.976
32360W        W97180  14.599  32.921  12.488
32361W        W97181  43.655  14.923   2.907
32362W        W97182  30.457   9.210  14.732
32363W        W97183  29.392  11.414  10.777
32364W        W97184   0.282  40.532   0.364
32365W        W97185  28.700  42.209  10.759
32366W        W97186  32.109  41.845  13.844
32367W        W97187  36.036   3.825   2.619
32368W        W97188  35.970  39.991  12.024
32369W        W97189  14.322  18.238  13.543
32370W        W97190  24.172   7.099   1.872
32371W        W97191  41.844  13.145  14.899
32372W        W97192  37.027   2.090   0.778
32373W        W97193  25.002  30.444  11.618
32374W        W97194  27.864  19.765   5.055
32375W        W97195  37.513  15.276  13.027
32376W        W97196  18.470  15.759   2.153
32377W        W97197  33.537  14.280  12.182
32378W        W97198  12.235  30.289  13.952
32379W        W97199  38.420   9.252  12.079
32380W        W97200  24.147  23.168   3.693
32381W        W97201  16.217  23.127  10.671
32382W        W97202   1.266  14.035  10.449
32383W        W97203  28.182  24.627  14.710
32384W        W97204  44.705   2.715   0.591
32385W        W97205  42.476  32.140  13.612
32386W        W97206  37.753  19.388  13.349
32387W        W97207  29.143  12.760  13.882
32388W        W97208  31.926  37.079  12.391
32389W        W97209  25.182   1.696   0.874
32390W        W97210  25.151  15.186   4.169
32391W        W97211   8.020  22.201   4.580
32392W        W97212   0.261  43.033   1.642
32393W        W97213  35.804  18.070  14.382
32394W        W97214  41.120  32.033  14.981
32395W        W97215  34.145  37.517  12.901
32396W        W97216   8.260  32.366  10.640
32397W        W97217  36.242  22.985   1.842
32398W        W97218  41.863  42.530   3.327
32399W        W97219  26.375  13.759  11.668
32400W        W97220  43.337  35.551   3.221
32401W        W97221  44.365   7.662   4.159
32402W        W97222   1.721   6.353  11.063
32403W        W97223  38.971  24.827  14.078
32404W        W97224  40.331  42.230  13.438
32405W        W97225  16.480  21.111   0.377
32406W        W97226  29.947  17.476  10.229
32407W        W97227  19.552  13.739   0.944
32408W        W97228  22.141  43.499   0.335
32409W        W97229   4.530  44.302  13.469
32410W        W97230  11.605  43.270  10.642
32411W        W97231  30.559  16.676   2.254
32412W        W97232  12.047  38.426  14.177
32413W        W97233  40.231  17.779  10.687
32414W        W97234  21.595   1.925   4.121
32415W        W97235  41.035  11.615   3.209
32416W        W97236  11.605   4.398  10.735
32417W        W97237  18.379  15.742   1.277
32418W        W97238   5.529  11.055   3.707
32419W        W97239  17.747  35.147  14.981
32420W        W97240  22.310  11.520   3.696
32421W        W97241  23.304  32.561   4.101
32422W        W97242  37.834  30.768   3.653
32423W        W97243  44.271   0.652  14.423
32424W        W97244  43.952  17.020   0.275
32425W        W97245   1.871  27.385   1.361
32426W        W97246  37.612  17.885   9.746
32427W        W97247  23.148  34.037   3.174
32428W        W97248  11.611  38.059  12.427
32429W        W97249  18.196   8.442  11.537
32430W        W97250  42.787  37.843   2.314
32431W        W97251  40.363  35.857   1.166
32432W        W97252  28.944  31.673  14.389
32433W        W97253  30.553  29.512   2.322
32434W        W97254  24.068  13.830  14.993
32435W        W97255  12.355  22.329  13.323
32436W        W97256  27.407   3.626   2.684
32437W        W97257  37.917   2.990  10.393
32438W        W97258  22.766  23.974   0.274
32439W        W97259  11.507  22.961   4.203
32440W        W97260  39.041  44.638   1.540
32441W        W97261  40.637  38.123  14.835
32442W        W97262   0.049   2.244   0.902
32443W        W97263  27.036   3.858   1.408
32444W        W97264   7.970  25.808   0.740
32445W        W97265  10.761   5.369   1.938
32446W        W97266  34.119  16.588   3.984
32447W        W97267  10.869  26.773   0.350
32448W        W97268   4.359  43.778   4.559
32449W        W97269   1.383  44.879   2.326
32450W        W97270  37.510  13.543   2.868
32451W        W97271  31.480   1.988   3.285
32452W        W97272  33.912  39.552  14.396
32453W        W97273   0.690  22.084   3.302
32454W        W97274  24.175   4.278  11.929
32455W        W97275  43.041  16.367   2.288
32456W        W97276   2.872  15.047   2.201
32457W        W97277  44.797  37.051  14.422
32458W        W97278  31.715   4.802  12.874
32459W        W97279  13.244  11.632   1.416
32460W        W97280  33.623  41.814   2.647
32461W        W97281  23.463  12.291  11.232
32462W        W97282  31.856   9.673   2.928
32463W        W97283  32.591   3.964   4.560
32464W        W97284  34.713  31.814   5.260
32465W        W97285  38.625   6.466   4.271
32466W        W97286  36.056  31.572   2.280
32467W        W97287  15.546  25.426  10.955
32468W        W97288  38.875  12.137   2.661
32469W        W97289   8.823  27.447   2.252
32470W        W97290   3.932  24.510  12.991
32471W        W97291  17.058  28.977  13.969
32472W        W97292  16.671  34.971   0.713
32473W        W97293  25.455  44.065   3.226
32474W        W97294  40.909   8.346   3.301
32475W        W97295   2.805  23.766   4.687
32476W        W97296  13.808   4.344  13.997
32477W        W97297   0.961  31.008  13.378
32478W        W97298  14.180  17.173  14.518
32479W        W97299  15.807  42.904   4.949
32480W        W97300  14.263  30.561   2.266
32481W        W97301  26.032  28.207  14.870
32482W        W97302  18.540  27.997   2.099
32483W        W97303   5.998   7.872  12.434
32484W        W97304  15.890   5.452  12.862
32485W        W97305  33.817  12.075   9.963
32486W        W97306   1.961  41.136   3.939
32487W        W97307  40.369   9.202  11.962
32488W        W97308  20.171   6.507   0.080
32489W        W97309   8.472   9.264   4.562
32490W        W97310  20.945  29.542   0.342
32491W        W97311  19.123  30.264  12.655
32492W        W97312  25.060  15.687  12.071
32493W        W97313  18.733   4.791   3.689
32494W        W97314  36.345   0.923   4.049
32495W        W97315  26.697  41.549  12.575
32496W        W97316  42.794  16.104   3.844
32497W        W97317  29.958  30.523   1.603
32498W        W97318  33.755  10.846   4.729
32499W        W97319  16.054  40.096  14.587
32500W        W97320  36.604  41.451   2.178
32501W        W97321  17.172  13.779   4.061
32502W        W97322  30.512  28.287  11.651
32503W        W97323  39.801  32.391   0.715
32504W        W97324  14.225  15.720  10.447
32505W        W97325   9.212  10.356   0.810
32506W        W97326  20.134  31.959   0.028
32507W        W97327  12.730   6.457  13.578
32508W        W97328  33.331  20.603  12.040
32509W        W97329   8.796  17.641  13.725
32510W        W97330  30.996  11.647  12.858
32511W        W97331  40.854  26.901  14.289
32512W        W97332  33.188  33.634   3.917
32513W        W97333  10.032  22.727  10.953
32514W        W97334  42.491  19.392  12.545
32515W        W97335  21.994   2.938   3.358
32516W        W97336   0.995  27.504  11.165
32517W        W97337  37.990  13.935  11.626
32518W        W97338  24.658  43.778   1.475
32519W        W97339  30.991  28.057   2.735
32520W        W97340  42.567  41.425   2.751
32521W        W97341  24.444  16.111  14.305
32522W        W97342  24.467  10.141   4.080
32523W        W97343  20.061  31.041   2.876
32524W        W97344  29.189   9.176   3.267
32525W        W97345   0.756   0.394   0.871
32526W        W97346  34.604   3.327   0.856
32527W        W97347  42.748  42.503  10.669
32528W        W97348  23.739  15.248   3.140
32529W        W97349  42.495  15.698   2.326
32530W        W97350  12.072  23.207  11.663
32531W        W97351  37.071  32.858  12.409
32532W        W97352  41.594  23.239   1.311
32533W        W97353  42.898  16.090   4.880
32534W        W97354   7.073  26.882   2.267
32535W        W97355  19.561  32.153   5.114
32536W        W97356   2.359  11.102   1.696
32537W        W97357  21.967  18.483   2.818
32538W        W97358  35.449  10.148   2.186
32539W        W97359   9.728  37.998   1.618
32540W        W97360  31.888   6.185  13.197
32541W        W97361  44.003  23.686   4.066
32542W        W97362  14.285  41.049   4.119
32543W        W97363   5.928  32.050  14.739
32544W        W97364  43.485  42.351   0.051
32545W        W97365   1.075   6.402   0.750
32546W        W97366  32.890  44.368   2.762
32547W        W97367  15.548  23.789  14.690
32548W        W97368  32.620  42.911   3.272
32549W        W97369  32.514  28.074  12.017
32550W        W97370  11.193  22.159   2.197
32551W        W97371  14.838  19.735  12.488
32552W        W97372   6.316  17.469   4.776
32553W        W97373   7.313  26.484   3.546
32554W        W97374  29.558  39.009   2.293
32555W        W97375  38.624   4.700   1.928
32556W        W97376   4.499  39.983   2.164
32557W        W97377  32.879   0.986   4.579
32558W        W97378  37.164  25.416  14.421
32559W        W97379   6.272  39.873   2.327
32560W        W97380  22.062  37.984   0.215
32561W        W97381  28.787  16.687   3.898
32562W        W97382  41.930   7.037   3.162
32563W        W97383  27.791  24.170  12.472
32564W        W97384  35.406   9.331  12.141
32565W        W97385  41.517  15.022  12.481
32566W        W97386  10.238   5.573  12.930
32567W        W97387   1.165  10.412  11.337
32568W        W97388  21.203  16.708  11.084
32569W        W97389  21.108  44.228   1.226
32570W        W97390  17.295   4.436   2.555
32571W        W97391  24.124  41.767  10.559
32572W        W97392  43.925  37.979  14.516
32573W        W97393  16.128  16.659   3.322
32574W        W97394  27.482  27.082   2.207
32575W        W97395   8.320   1.478   4.801
32576W        W97396  11.355  41.753  12.024
32577W        W97397  28.556  37.528  12.512
32578W        W97398   7.614  10.790   1.302
32579W        W97399  40.368   6.367   3.209
32580W        W97400  35.420  10.068  13.348
32581W        W97401   9.380  15.668  12.118
32582W        W97402   4.462   9.245   0.407
32583W        W97403  36.572  34.964   5.051
32584W        W97404   3.188  20.085  11.593
32585W        W97405  19.853  36.911  11.940
32586W        W97406  14.771   7.978  11.497
32587W        W97407  33.907   1.346  14.009
32588W        W97408  30.639  44.377   0.229
32589W        W97409  11.298  30.998   0.490
32590W        W97410  12.880  35.068  11.137
32591W        W97411  38.933  25.452  12.836
32592W        W97412  17.229  15.308   4.512
32593W        W97413  22.199  42.019  11.674
32594W        W97414  38.273   1.688  11.508
32595W        W97415  27.919   3.866  14.702
32596W        W97416  42.554   3.746   4.620
32597W        W97417   8.607  41.515   2.533
32598W        W97418  19.340  21.792   3.602
32599W        W97419   2.427   6.590  12.494
32600W        W97420  33.097   2.664   3.688
32601W        W97421  12.706  35.342  14.942
32602W        W97422  33.928  14.608  12.086
32603W        W97423  18.988   0.737   1.746
32604W        W97424   5.663  21.667  10.989
32605W        W97425  28.168   0.080   4.216
32606W        W97426  39.779  18.538   2.421
32607W        W97427  19.636   8.173  12.963
32608W        W97428  35.899  44.711  11.542
32609W        W97429  13.503   9.871  11.622
32610W        W97430  10.237  36.272  12.565
32611W        W97431   1.341  22.946   3.571
32612W        W97432  25.074  22.144   4.599
32613W        W97433   7.172   3.367  11.584
32614W        W97434   7.651  40.225   3.808
32615W        W97435  16.922  30.917   9.791
32616W        W97436   4.903  32.067  11.939
32617W        W97437  39.193  13.816  12.558
32618W        W97438  35.074   5.225   2.671
32619W        W97439  33.636  33.877  11.376
32620W        W97440  25.792  30.735   4.498
32621W        W97441  38.346  25.932   2.651
32622W        W97442   1.022   7.743   1.209
32623W        W97443  19.165  37.379   1.267
32624W        W97444  23.441  29.478  14.069
32625W        W97445  17.207  11.434  12.670
32626W        W97446  24.168   4.561   4.431
32627W        W97447  27.919  24.268  11.028
32628W        W97448  11.030  30.594  10.652
32629W        W97449  35.436  26.267   1.853
32630W        W97450  11.272  37.424   4.608
32631W        W97451  26.562   6.024   3.836
32632W        W97452  39.856  24.898  13.465
32633W        W97453  16.746  14.394  14.473
32634W        W97454  21.058   9.206   3.090
32635W        W97455   6.136  33.964  10.464
32636W        W97456  41.948  27.357   0.937
32637W        W97457  22.937  36.597  14.471
32638W        W97458   5.841  30.606   2.320
32639W        W97459   4.915   5.706   4.148
32640W        W97460   3.772  43.636   2.251
32641W        W97461  43.575   0.752   3.650
32642W        W97462  22.465   6.394  10.402
32643W        W97463  42.866  25.473  14.147
32644W        W97464  43.736  39.578  14.353
32645W        W97465  10.924  41.439  12.027
32646W        W97466   1.369  27.786   4.789
32647W        W97467  19.637   1.946  13.892
32648W        W97468   1.269   3.710   1.626
32649W        W97469  39.148   7.307   4.235
32650W        W97470  26.886  31.004  14.750
32651W        W97471  31.349   9.190  13.498
32652W        W97472  25.183  43.991  14.846
32653W        W97473  14.804   9.753   2.876
32654W        W97474  21.776  13.725  12.534
32655W        W97475  21.893   1.748   4.518
32656W        W97476  24.648  17.982   4.936
32657W        W97477  33.924  13.209  12.505
32658W        W97478  31.377   4.682   2.703
32659W        W97479   5.459  30.549  12.718
32660W        W97480  40.200   6.410  12.604
32661W        W97481  23.121   4.311  13.707
32662W        W97482  39.941  10.349  14.416
32663W        W97483  16.494  25.828   2.692
32664W        W97484  34.811  37.157  13.556
32665W        W97485  33.537  41.006   0.242
32666W        W97486  29.947  12.760  13.011
32667W        W97487  27.586  12.218   0.967
32668W        W97488  43.839  25.166  14.372
32669W        W97489   8.694  43.386  14.448
32670W        W97490   4.735  16.746  12.056
32671W        W97491  37.283  28.389  12.490
32672W        W97492   1.400  19.039  11.915
32673W        W97493   0.022  17.392  14.514
32674W        W97494  16.014  11.922   4.524
32675W        W97495   0.826  36.479  11.612
32676W        W97496  39.518  19.744   3.277
32677W        W97497  44.055  40.108   2.354
32678W        W97498  43.047  36.320  13.341
32679W        W97499  27.889  22.625  10.584
32680W        W97500   4.879   1.153  13.504
32681W        W97501  43.102  18.884   1.183
32682W        W97502   4.450  25.666   3.724
32683W        W97503  44.191  33.932  10.290
32684W        W97504   1.601  17.740   1.410
32685W        W97505  42.972  41.931  13.883
32686W        W97506  34.181  24.460   3.608
32687W        W97507   4.725   4.889   0.287
32688W        W97508  41.481  25.213  13.099
32689W        W97509  35.923  14.361  11.951
32690W        W97510  38.980   1.398   3.793
32691W        W97511  11.776   6.474  14.723
32692W        W97512  19.328   4.707  10.244
32693W        W97513  44.386   9.732  13.293
32694W        W97514  10.673   3.148   4.889
32695W        W97515  40.268  19.463  14.525
32696W        W97516   1.922   8.078  10.916
32697W        W97517  26.116  41.369  13.475
32698W        W97518  23.578  41.474   0.935
32699W        W97519   4.598  34.638   3.584
32700W        W97520  19.150  43.408   3.250
32701W        W97521  21.803  18.145   1.975
32702W        W97522  20.264  20.285  13.034
32703W        W97523  31.472  19.214   2.732
32704W        W97524  29.201  33.309  12.212
32705W        W97525  22.635   1.406   2.705
32706W        W97526  37.935   1.343   2.692
32707W        W97527  22.971  19.864   2.813
32708W        W97528  26.482   5.776   1.786
32709W        W97529  22.337  27.949  11.751
32710W        W97530  24.029  42.069  13.942
32711W        W97531  11.182   8.641   0.925
32712W        W97532  20.179  11.584   3.484
32713W        W97533   5.771   5.774   1.642
32714W        W97534   7.799  24.191   2.259
32715W        W97535  20.812  21.615   0.874
32716W        W97536  38.909  29.687  12.463
32717W        W97537  19.780  32.597   3.204
32718W        W97538  25.643  28.686  11.598
32719W        W97539  36.004  18.065   4.094
32720W        W97540  15.189  21.802  13.697
32721W        W97541  35.656  18.282  14.838
32722W        W97542  37.908  28.564   4.326
32723W        W97543   8.411  38.371   3.169
32724W        W97544  15.695  12.574  13.090
32725W        W97545  26.225   8.237   2.771
32726W        W97546   1.535   8.380   0.885
32727W        W97547  21.778  34.697   0.124
32728W        W97548   0.289  23.582  13.982
32729W        W97549  26.652  33.963  12.599
32730W        W97550   1.791   5.808   4.813
32731W        W97551   5.373  22.574  13.679
32732W        W97552  37.023  42.190  10.757
32733W        W97553  28.701  32.899   2.207
32734W        W97554  12.549  14.339  13.596
32735W        W97555  44.174  16.605   2.201
32736W        W97556   8.149  37.759  11.932
32737W        W97557  35.408  13.371  11.167
32738W        W97558  16.244  39.998   4.478
32739W        W97559  31.989  23.321  13.804
32740W        W97560  44.838  23.514  10.687
32741W        W97561  17.127  25.697  14.958
32742W        W97562  22.091  22.374   0.851
32743W        W97563  10.230  36.814   1.659
32744W        W97564  10.550  21.978   4.982
32745W        W97565  21.620  20.562   4.958
32746W        W97566  39.403  18.727  11.225
32747W        W97567   7.484  17.314   2.246
32748W        W97568  37.886   6.340  13.450
32749W        W97569  10.538  36.173   1.047
32750W        W97570   7.929  44.539   1.274
32751W        W97571  37.610  25.987   2.108
32752W        W97572   3.347  42.282   2.120
32753W        W97573  37.316  35.908   4.288
32754W        W97574  15.775   0.011  13.498
32755W        W97575  36.040  42.285   2.364
32756W        W97576  31.403  35.466   4.723
32757W        W97577  25.149  30.593   2.701
32758W        W97578  37.392  38.959  11.822
32759W        W97579  41.363  14.343   2.713
32760W        W97580  26.681  23.717  13.006
32761W        W97581  17.179  34.443  10.231
32762W        W97582  11.406   4.270  12.794
32763W        W97583  31.713  19.122  12.637
32764W        W97584  31.610   6.237  10.961
32765W        W97585  26.633   5.270  10.646
32766W        W97586  22.699  31.890   0.353
32767W        W97587  14.313  25.634  12.417
32768W        W97588  36.379  30.549   0.028
32769W        W97589  24.461  32.575  14.425
32770W        W97590  36.492  20.308   3.700
32771W        W97591   6.725   7.849   2.733
32772W        W97592  34.158  16.941  11.554
32773W        W97593  14.076  14.673  11.528
32774W        W97594  30.627   6.452   0.362
32775W        W97595  35.999  23.646  11.646
32776W        W97596  32.848  35.354  13.406
32777W        W97597  19.803  27.510   4.954
32778W        W97598   4.895  11.578   4.130
32779W        W97599  19.062  14.218   1.706
32780W        W97600  29.411  33.014   4.036
32781W        W97601   5.106  42.062   4.741
32782W        W97602  36.518  22.050   1.482
32783W        W97603  16.841   0.355   1.371
32784W        W97604  32.622  30.070   4.344
32785W        W97605  35.092  38.814   4.138
32786W        W97606  34.831  34.070   2.871
32787W        W97607  35.599  12.121   3.229
32788W        W97608  15.164  19.347  10.739
32789W        W97609  21.221  40.814   0.679
32790W        W97610  21.102  39.343   0.296
32791W        W97611   5.594  16.037  13.880
32792W        W97612  15.221  37.559  13.048
32793W        W97613  29.220  24.652  11.963
32794W        W97614  27.244  14.747  13.051
32795W        W97615   3.441  40.483  10.941
32796W        W97616  32.448  27.591  12.937
32797W        W97617  15.864  12.663   4.109
32798W        W97618  10.980  37.599  13.875
32799W        W97619  24.092   3.062   0.441
32800W        W97620  14.387  38.976  12.021
32801W        W97621  23.506  16.268   1.409
32802W        W97622  25.094  22.791   9.911
32803W        W97623  27.597  13.133   3.077
32804W        W97624  18.696   4.057  13.958
32805W        W97625   0.980   5.135  12.032
32806W        W97626   1.358   4.969  13.942
32807W        W97627  11.404   3.314  13.959
32808W        W97628   7.771   3.376  13.953
32809W        W97629  13.738  14.087   4.684
32810W        W97630  28.163  22.629   2.185
32811W        W97631  40.975  39.865   0.315
32812W        W97632   0.389  43.799  10.918
32813W        W97633  26.288  17.859  14.460
32814W        W97634  43.760  43.919   3.164
32815W        W97635  28.551  23.250   4.127
32816W        W97636   6.670   5.147   0.563
32817W        W97637  21.226  19.851  11.201
32818W        W97638  44.669  16.316   4.822
32819W        W97639  39.041   4.305  12.996
32820W        W97640   2.931   0.020   1.926
32821W        W97641  29.264  14.168   1.738
32822W        W97642   1.385  27.897  13.818
32823W        W97643  39.850   3.542  12.541
32824W        W97644  44.135   1.184   3.124
32825W        W97645  30.237  40.928   3.097
32826W        W97646  41.229  16.043  11.955
32827W        W97647   1.496  25.592   3.037
32828W        W97648  44.249   9.617  10.685
32829W        W97649  20.283  42.029   1.978
32830W        W97650  12.979  19.037  13.513
32831W        W97651   6.280  10.527   2.135
32832W        W97652   3.785  38.062  11.647
32833W        W97653  23.346   6.129  14.831
32834W        W97654  17.365  42.052   3.694
32835W        W97655  31.638  44.482  12.527
32836W        W97656  19.551  23.970   3.176
32837W        W97657  20.783  23.559   0.484
32838W        W97658  33.118  13.286  14.992
32839W        W97659   0.752  25.288  11.511
32840W        W97660  34.959  41.814   4.576
32841W        W97661  23.704  13.836   0.389
32842W        W97662  28.421   8.148  13.471
32843W        W97663   9.715  25.619  12.176
32844W        W97664   3.284  24.542   1.517
32845W        W97665  19.313  26.218   3.781
32846W        W97666  28.587   3.436   4.532
32847W        W97667  27.356  17.779   4.530
32848W        W97668  34.808  10.045  14.897
32849W        W97669  16.284  40.796   4.347
32850W        W97670  17.584  24.599  12.144
32851W        W97671  18.621  32.447   0.768
32852W        W97672  39.786  25.280   4.885
32853W        W97673   5.671  38.376   0.705
32854W        W97674  29.630  14.822  11.499
32855W        W97675   7.766   9.872   3.177
32856W        W97676  30.902  10.079  12.962
32857W        W97677   7.925   8.425   0.994
32858W        W97678  30.238  10.242  12.541
32859W        W97679  20.940  17.124  11.830
32860W        W97680  39.370   6.874   2.607
32861W        W97681  19.475  29.586  11.116
32862W        W97682  44.457  40.373  12.922
32863W        W97683  17.523  33.058  14.895
32864W        W97684  30.974  11.134   1.767
32865W        W97685  12.653  32.406  14.455
32866W        W97686  23.146  42.551  14.015
32867W        W97687  26.907  27.763   4.105
32868W        W97688   7.483   6.391  12.262
32869W        W97689  42.870  29.019   0.441
32870W        W97690   5.470  28.781  14.836
32871W        W97691  41.903  19.968   1.266
32872W        W97692  30.625   0.896  14.438
32873W        W97693  33.523  19.474   4.950
32874W        W97694  28.865  30.926   4.565
32875W        W97695  30.992  44.760   3.824
32876W        W97696  17.183  20.528  12.633
32877W        W97697  26.499  42.929   1.335
32878W        W97698  22.203   6.309  13.020
32879W        W97699  40.368  20.226  11.126
32880W        W97700   5.319  17.213   4.560
32881W        W97701  16.277  20.746   0.736
32882W        W97702  38.739   4.196   0.823
32883W        W97703  40.916  12.933  12.001
32884W        W97704  19.128  10.387   4.020
32885W        W97705  11.705   5.173   1.482
32886W        W97706  14.217  27.170  12.586
32887W        W97707  32.001   0.814   1.602
32888W        W97708  40.944  30.726   2.622
32889W        W97709   8.858  28.871   3.621
32890W        W97710  41.284  41.555  13.581
32891W        W97711  43.380  14.638  11.904
32892W        W97712  20.077  12.529  14.651
32893W        W97713  42.223  28.609  14.874
32894W        W97714  30.853  11.390   3.749
32895W        W97715  41.389   5.238  14.305
32896W        W97716  36.354   7.781  12.529
32897W        W97717  17.840  37.419   4.039
32898W        W97718   6.541  40.589   3.768
32899W        W97719  44.185  14.727  10.742
32900W        W97720  35.310  19.845  10.658
32901W        W97721  42.245  25.474   2.359
32902W        W97722  17.159  44.811  13.943
32903W        W97723  19.684  27.110   0.752
32904W        W97724  38.130  38.460  12.884
32905W        W97725  19.287   9.622   2.134
32906W        W97726  25.643  41.233  13.599
32907W        W97727  23.137   3.523  12.496
32908W        W97728  11.279  13.015   3.952
32909W        W97729  40.961  23.089   1.310
32910W        W97730  42.812  37.506  12.975
32911W        W97731  17.958  15.294  13.947
32912W        W97732   5.211  44.450   4.116
32913W        W97733   6.363  32.613  13.314
32914W        W97734  27.825  10.679   1.773
32915W        W97735  30.709  39.968   3.977
32916W        W97736  41.276   6.013  13.773
32917W        W97737  24.758  39.008  14.174
32918W        W97738  32.452  37.299  12.447
32919W        W97739  25.426  18.678  11.179
32920W        W97740  15.826  39.394  12.971
32921W        W97741   7.239  35.912   2.752
32922W        W97742  17.128  44.406  10.261
32923W        W97743  13.721  15.753  11.359
32924W        W97744   9.665  23.624  12.918
32925W        W97745  22.423  16.871   1.554
32926W        W97746  44.295  31.119   4.941
32927W        W97747  10.385  35.373  13.485
32928W        W97748  11.196  40.768  14.347
32929W        W97749  12.313  44.430  11.979
32930W        W97750  25.150  24.811   1.894
32931W        W97751   5.676  41.573   3.335
32932W        W97752  12.172  33.901   1.319
32933W        W97753  42.931  17.687   3.730
32934W        W97754  23.579  31.013  12.761
32935W        W97755   0.230  23.686  11.868
32936W        W97756  43.023   2.669   2.232
32937W        W97757   1.789   8.743  11.469
32938W        W97758  30.145   4.156   1.137
32939W        W97759  24.168  20.180   1.752
32940W        W97760  14.231  32.120   4.071
32941W        W97761  19.143   8.390  13.044
32942W        W97762  30.392  11.600  10.715
32943W        W97763  10.967   9.714   0.120
32944W        W97764   0.873  20.984   4.503
32945W        W97765  20.964  31.497   3.840
32946W        W97766  22.150  28.888   2.510
32947W        W97767  26.770  37.350   2.396
32948W        W97768  32.273  28.972  13.137
32949W        W97769  12.851  39.445  11.540
32950W        W97770  25.960   0.847   2.515
32951W        W97771   2.418  12.535  12.977
32952W        W97772  39.948  40.300   0.740
32953W        W97773  18.976   1.805  14.752
32954W        W97774  10.354  13.765   3.107
32955W        W97775  27.119  12.850   1.468
32956W        W97776  28.674  29.338  12.982
32957W        W97777  35.463   3.908  10.926
32958W        W97778  39.755  17.724   2.965
32959W        W97779  23.939  12.483  13.775
32960W        W97780  35.206  14.881  10.661
32961W        W97781  42.849  24.132   1.262
32962W        W97782  11.912  42.888  10.774
32963W        W97783  17.554   0.753   4.625
32964W        W97784  35.372  42.232   0.367
32965W        W97785  30.628  11.604  12.491
32966W        W97786  23.570  12.794   1.296
32967W        W97787  38.977   1.467  12.001
32968W        W97788   2.048  32.394  13.375
32969W        W97789  18.545  17.553   2.246
32970W        W97790  36.575  24.182   3.152
32971W        W97791  37.872  30.919   4.179
32972W        W97792  18.674  31.983   4.704
32973W        W97793  10.893  25.990  12.876
32974W        W97794  21.054   3.307   0.187
32975W        W97795  36.609  43.864   3.295
32976W        W97796   2.206  30.228   4.611
32977W        W97797  26.128  11.236   3.873
32978W        W97798  36.373  17.323   4.975
32979W        W97799   5.205  15.249   2.171
32980W        W97800  16.635  26.764  13.791
32981W        W97801  32.166   0.161   4.114
32982W        W97802  28.815  32.805   0.904
32983W        W97803  39.082  34.582   4.188
32984W        W97804  22.149  22.459   1.370
32985W        W97805   2.267  26.638   1.059
32986W        W97806   3.784  31.541  14.156
32987W        W97807  24.329  13.139   2.216
32988W        W97808  37.637  40.412   2.466
32989W        W97809  38.453  28.604  10.854
32990W        W97810  17.761  25.133   0.799
32991W        W97811  25.164  40.920   3.654
32992W        W97812  43.900  20.251   0.922
32993W        W97813   8.463  26.530   2.470
32994W        W97814   4.859  39.702   0.931
32995W        W97815   7.723  30.552   4.658
32996W        W97816  24.487  36.943  12.924
32997W        W97817  24.629  32.602   3.212
32998W        W97818  36.951  27.904  11.643
32999W        W97819  34.303  19.137  13.919
33000W        W97820  31.942  23.765   1.921
33001W        W97821  41.808  28.471   4.624
33002W        W97822  18.549  10.157  14.458
33003W        W97823  14.224  24.590  13.516
33004W        W97824  20.330  17.987  12.742
33005W        W97825   1.713  36.732  13.552
33006W        W97826  10.667  25.433  10.804
33007W        W97827  33.380  41.569  11.734
33008W        W97828  40.032   9.153   1.844
33009W        W97829  11.203  38.474  11.237
33010W        W97830  22.705   2.837   3.039
33011W        W97831  23.736  19.647   2.354
33012W        W97832   8.354   1.270  14.236
33013W        W97833  38.553  17.815  10.159
33014W        W97834   9.137  28.000   4.658
33015W        W97835   5.190   4.261   3.269
33016W        W97836  30.783  44.448   4.715
33017W        W97837   3.966  33.961  12.149
33018W        W97838   9.617  20.141   4.151
33019W        W97839  21.813   1.062   4.563
33020W        W97840  40.755  14.586   3.794
33021W        W97841  31.142  21.358  11.413
33022W        W97842  13.715  27.179   2.658
33023W        W97843  17.330   6.657  11.327
33024W        W97844  32.124  22.205   5.113
33025W        W97845  32.963  44.538   1.354
33026W        W97846  23.125  38.769   0.972
33027W        W97847   0.317  10.948   1.323
33028W        W97848  25.213   4.745   0.783
33029W        W97849  40.771  24.697  12.126
33030W        W97850   0.448  23.989  14.331
33031W        W97851  25.042  39.467   0.845
33032W        W97852  44.407   8.765  12.811
33033W        W97853  36.529  33.056  12.037
33034W        W97854   5.084  43.757  11.154
33035W        W97855   4.153  39.316  13.416
33036W        W97856  40.230  23.639  14.510
33037W        W97857   8.279  20.329   4.292
33038W        W97858   8.213  40.302   2.287
33039W        W97859   9.833  13.797   2.245
33040W        W97860  37.280  36.142   0.316
33041W        W97861  16.314  32.144   4.035
33042W        W97862  38.384   1.342  10.462
33043W        W97863  16.403   1.921   4.000
33044W        W97864   6.108   2.693   3.522
33045W        W97865  20.270   1.891  11.472
33046W        W97866  30.970  43.807  13.855
33047W        W97867   2.226  10.854   3.913
33048W        W97868  10.553  34.636   3.292
33049W        W97869  15.119  19.869  10.638
33050W        W97870   9.930  32.113   3.167
33051W        W97871   6.283   7.893   4.819
33052W        W97872  30.106  36.453   2.291
33053W        W97873  20.655  40.032  10.567
33054W        W97874  27.469  25.304  12.277
33055W        W97875  42.807   2.681   0.862
33056W        W97876   2.077  31.788  14.958
33057W        W97877   0.819   1.784   0.654
33058W        W97878  20.234  31.891  10.507
33059W        W97879  16.331  21.715  13.398
33060W        W97880  32.401  20.501   0.683
33061W        W97881  17.624   9.513   4.985
33062W        W97882  42.765  12.445   1.519
33063W        W97883   0.479   4.378  13.921
33064W        W97884  42.510   9.210   2.325
33065W        W97885  40.485  44.869  11.692
33066W        W97886  23.274  18.321   1.095
33067W        W97887   8.488  18.643   2.006
33068W        W97888  37.456  41.772   0.845
33069W        W97889  21.044  40.725   2.232
33070W        W97890  38.074  31.855   1.506
33071W        W97891  28.644  37.915   2.790
33072W        W97892  20.421  41.075   0.521
33073W        W97893  35.377  44.533   2.643
33074W        W97894  41.943  13.088  13.619
33075W        W97895  17.565   6.214   4.518
33076W        W97896  14.362   5.364   2.751
33077W        W97897  25.604   9.439   2.391
33078W        W97898  27.546  14.008   0.258
33079W        W97899  25.750  12.220   1.287
33080W        W97900  34.606   4.957   2.835
33081W        W97901  24.036   4.619  12.796
33082W        W97902  38.214  39.622  12.648
33083W        W97903   0.239   5.704   0.742
33084W        W97904  37.071  43.045  14.436
33085W        W97905  18.524  33.833  13.420
33086W        W97906  25.149  17.968  14.032
33087W        W97907  43.568   0.830  13.891
33088W        W97908  42.078  23.422  12.318
33089W        W97909  13.442  27.155   5.233
33090W        W97910  10.331   1.716   2.189
33091W        W97911  13.685   6.954   2.732
33092W        W97912  21.924  23.819  12.102
33093W        W97913  28.999  11.278  11.614
33094W        W97914  31.298  26.326  12.604
33095W        W97915  22.246  44.262  13.247
33096W        W97916  15.264   8.964   0.867
33097W        W97917   4.234   9.133   2.303
33098W        W97918  13.190  10.292   1.956
33099W        W97919   6.699  41.467   4.907
33100W        W97920  43.038  18.243  10.491
33101W        W97921  26.138  26.159  12.984
33102W        W97922  42.896  44.410  14.494
33103W        W97923  33.060  10.087   4.632
33104W        W97924  27.422   3.853  12.583
33105W        W97925  36.598  28.637   1.262
33106W        W97926  34.632  11.902   1.906
33107W        W97927  43.964  28.654  12.863
33108W        W97928  18.437   1.992  13.387
33109W        W97929   1.712  19.966   1.995
33110W        W97930  37.604  23.088  14.462
33111W        W97931   2.337  15.198  14.002
33112W        W97932  24.051  22.135  13.094
33113W        W97933  32.804   0.058   0.761
33114W        W97934  21.983   0.851   3.625
33115W        W97935  35.522  32.562   0.861
33116W        W97936   4.522  26.985   1.451
33117W        W97937  22.525  31.894   1.363
33118W        W97938  23.140  10.381  11.228
33119W        W97939  24.718   4.709   0.939
33120W        W97940  16.722  28.794   3.315
33121W        W97941  34.116  30.945  14.837
33122W        W97942  33.260   5.385  12.887
33123W        W97943  43.933  30.525   4.224
33124W        W97944   6.898  13.084  11.930
33125W        W97945  18.466  13.668   1.650
33126W        W97946  17.073  31.941   4.044
33127W        W97947  12.266  23.612  11.034
33128W        W97948  12.420  24.051  10.770
33129W        W97949  25.254  16.285  11.120
33130W        W97950  11.305  14.555   4.573
33131W        W97951  36.811  33.066   3.843
33132W        W97952  32.448  33.910   3.120
33133W        W97953  29.558  14.644  13.548
33134W        W97954   8.011  23.732  12.096
33135W        W97955  13.861  25.269   4.042
33136W        W97956  14.742  22.551  12.191
33137W        W97957  39.825   8.380   1.454
33138W        W97958  33.648   8.794  13.389
33139W        W97959   9.128  36.098  10.771
33140W        W97960  35.467  24.397   5.747
33141W        W97961   5.192  24.171   2.781
33142W        W97962   3.147  11.845   4.677
33143W        W97963  24.036  35.651   9.725
33144W        W97964  10.219   7.350  14.767
33145W        W97965  14.139  30.532   2.805
33146W        W97966  34.892  11.230   2.840
33147W        W97967  14.531   6.907   0.516
33148W        W97968   1.546  44.059   3.037
33149W        W97969   7.320  19.407   1.879
33150W        W97970  37.355   3.388  11.211
33151W        W97971  38.422   8.844   4.147
33152W        W97972  28.028  29.855  13.016
33153W        W97973  32.599  20.408   4.903
33154W        W97974  19.010  18.399   4.316
33155W        W97975  35.323  28.133  11.617
33156W        W97976  22.316  26.420   4.555
33157W        W97977  22.314  21.553  11.321
33158W        W97978  25.663  38.897  14.291
33159W        W97979  13.312  44.046   2.318
33160W        W97980   7.489  11.174   2.323
33161W        W97981  13.840   5.756  13.599
33162W        W97982  29.109  32.467  11.690
33163W        W97983  27.646  41.464  11.604
33164W        W97984  25.907  14.692   2.203
33165W        W97985  28.713  37.342   0.889
33166W        W97986  33.082   1.668  13.476
33167W        W97987  38.601  26.617   3.289
33168W        W97988  11.616  16.874   2.624
33169W        W97989  42.928  41.470  11.124
33170W        W97990  16.825  12.861  12.812
33171W        W97991  42.646  30.978   4.220
33172W        W97992  44.974   0.837   0.699
33173W        W97993  10.407  23.349   3.944
33174W        W97994   8.900   5.340   1.704
33175W        W97995   1.164  19.790  12.340
33176W        W97996  31.951  16.199  12.132
33177W        W97997  25.946  22.050   1.907
33178W        W97998  24.185  29.090  11.504
33179W        W97999  44.307  38.335   0.305
33180W        W98000  35.956  16.608   2.354
33181W        W98001  21.575  32.934  14.773
33182W        W98002  18.971  41.785  14.393
33183W        W98003  29.169  23.913  12.940
33184W        W98004  40.985  14.501   0.445
33185W        W98005  12.039  26.458   0.857
33186W        W98006  18.198   9.119   3.361
33187W        W98007  11.420  42.910  14.230
33188W        W98008  14.236  31.258  13.453
33189W        W98009  36.340  16.782   4.850
33190W        W98010  12.631  30.450  12.240
33191W        W98011  43.352  38.094   3.523
33192W        W98012  24.751  26.638  11.576
33193W        W98013   7.738  26.214  14.812
33194W        W98014  32.319  24.376  11.751
33195W        W98015  11.504  19.833   0.371
33196W        W98016  22.496   9.315   2.308
33197W        W98017   9.784  11.753  14.508
33198W        W98018  12.111  36.080  11.620
33199W        W98019  11.237  11.329   0.953
33200W        W98020  12.699  34.073   1.605
33201W        W98021   7.942   7.468   0.031
33202W        W98022  44.292  35.980   4.585
33203W        W98023  14.327  43.983   2.926
33204W        W98024  19.696  15.418  13.882
33205W        W98025  14.076  32.228   2.117
33206W        W98026   0.897  24.410  11.963
33207W        W98027   8.891   8.088  14.075
33208W        W98028  33.535   5.910  11.191
33209W        W98029  31.136  13.865   0.424
33210W        W98030  43.282   8.154   2.875
33211W        W98031  22.327  39.725  14.303
33212W        W98032   5.902  26.440  10.696
33213W        W98033  38.349  36.072  13.864
33214W        W98034  23.641  35.976   2.875
33215W        W98035  42.227  39.092  12.147
33216W        W98036  15.533  17.197  14.360
33217W        W98037  12.221   1.711   1.779
33218W        W98038   4.437  18.677   0.255
33219W        W98039  24.498  17.301   0.192
33220W        W98040   3.750  19.353  12.941
33221W        W98041   4.157  43.906  11.914
33222W        W98042   0.869  22.681  11.577
33223W        W98043  15.386   5.750   4.049
33224W        W98044   3.132  10.607   2.095
33225W        W98045  11.712  36.718  11.211
33226W        W98046  42.217  43.254   2.874
33227W        W98047   1.863  18.234   1.289
33228W        W98048  30.468  10.523  14.372
33229W        W98049   3.981  26.448  11.537
33230W        W98050  34.902   6.140  11.858
33231W        W98051  40.860   3.420  11.536
33232W        W98052  14.055  27.329  13.353
33233W        W98053  44.483  43.313  10.631
33234W        W98054   2.406  35.488  14.337
33235W        W98055  32.128  33.890  13.419
33236W        W98056  12.338  27.092  13.976
33237W        W98057   2.274   3.399  13.775
33238W        W98058   2.495  28.452   2.417
33239W        W98059   3.723  21.443   4.977
33240W        W98060  24.170  12.008  13.744
33241W        W98061  16.136   3.638  13.870
33242W        W98062  33.036  13.820   3.237
33243W        W98063  16.895  31.539   3.731
33244W        W98064  31.246  24.774   3.686
33245W        W98065  14.527  23.587   3.212
33246W        W98066  12.700  37.578   4.968
33247W        W98067  13.894  38.645   2.705
33248W        W98068  12.644   9.875  12.164
33249W        W98069  30.734  28.620   2.925
33250W        W98070  12.972  27.207   0.423
33251W        W98071  25.124  30.685  12.919
33252W        W98072  12.864   7.889   3.145
33253W        W98073  37.046  27.234  12.184
33254W        W98074   4.521  20.479   4.993
33255W        W98075   4.482   7.495  11.633
33256W        W98076  28.714  30.055   2.186
33257W        W98077  43.047  39.931  11.966
33258W        W98078  34.537   0.995   2.786
33259W        W98079   5.251  12.340  12.039
33260W        W98080   4.867  39.810   1.712
33261W        W98081   9.714  15.099   1.764
33262W        W98082   9.918  13.587   2.855
33263W        W98083  28.648   5.919  12.896
33264W        W98084  38.949   5.290  12.981
33265W        W98085  35.008  28.937  12.913
33266W        W98086  13.158  40.302  14.875
33267W        W98087  25.524  22.281   3.689
33268W        W98088  27.954  16.088  10.542
33269W        W98089  27.583   6.335  13.363
33270W        W98090  38.419  23.052  12.228
33271W        W98091   8.150  32.319   3.603
33272W        W98092  13.858  14.886  11.922
33273W        W98093  19.134  40.138   2.837
33274W        W98094  21.603  43.898   3.866
33275W        W98095  10.346  26.088   3.402
33276W        W98096  16.711  15.779   2.818
33277W        W98097  36.584  18.864  13.490
33278W        W98098  17.087   9.190  12.751
33279W        W98099   5.539  18.023  11.766
33280W        W98100  14.641  10.350  13.529
33281W        W98101   9.704  13.626  11.900
33282W        W98102  22.693   8.868   1.811
33283W        W98103  31.107  33.335   3.699
33284W        W98104  26.282   6.978  11.472
33285W        W98105  14.688  44.483  11.757
33286W        W98106  31.030   1.058   0.228
33287W        W98107  14.767  41.788  10.608
33288W        W98108  10.753   6.571   3.600
33289W        W98109   7.259  13.288   0.418
33290W        W98110   4.252  37.382   0.716
33291W        W98111  28.615   5.207   0.730
33292W        W98112  36.946  40.615  11.541
33293W        W98113  43.064  42.920  10.712
33294W        W98114  34.003  35.120   2.776
33295W        W98115  30.032  27.116  10.218
33296W        W98116  20.017  27.990   4.896
33297W        W98117   8.285  19.271   3.759
33298W        W98118  42.434  15.170   4.866
33299W        W98119  21.302  42.826  13.814
33300W        W98120  36.028  32.862  13.476
33301W        W98121   8.362  14.901   0.040
33302W        W98122  28.734   3.999   4.323
33303W        W98123  28.646  18.532  11.922
33304W        W98124  23.839   1.063   5.043
33305W        W98125   1.064  15.760   2.417
33306W        W98126   7.170  31.094   0.084
33307W        W98127  18.357  29.000   1.031
33308W        W98128   5.629  11.087   2.397
33309W        W98129  15.536   1.834   1.889
33310W        W98130  38.800  13.379  13.005
33311W        W98131  28.029  32.377   1.352
33312W        W98132  42.998  17.156  11.197
33313W        W98133  28.099  28.784   2.196
33314W        W98134   7.667  19.509   2.236
33315W        W98135  12.758  13.302   1.428
33316W        W98136  25.464  44.877  13.396
33317W        W98137   5.251  10.793  13.048
33318W        W98138  35.885  24.094   5.046
33319W        W98139  43.278   9.622   3.689
33320W        W98140  34.711  19.910   0.230
33321W        W98141  37.510   7.593  12.647
33322W        W98142  20.687  22.482   2.902
33323W        W98143  43.261  15.735   4.961
33324W        W98144  29.215   3.539   2.696
33325W        W98145   6.794   5.629   0.738
33326W        W98146  30.403  11.372  12.108
33327W        W98147   6.820   2.889  12.033
33328W        W98148   0.097  25.528   0.240
33329W        W98149  15.928  38.648  13.876
33330W        W98150  32.358   2.731  11.166
33331W        W98151  20.600  12.122   2.222
33332W        W98152  37.181  38.548  12.460
33333W        W98153  37.726   4.854   1.587
33334W        W98154  19.336  11.247  14.964
33335W        W98155  13.148  10.727  12.261
33336W        W98156  33.586  33.424  10.623
33337W        W98157  16.508  35.021  11.537
33338W        W98158  25.448  20.471   2.606
33339W        W98159  39.257  14.713   4.140
33340W        W98160  20.476  32.344   3.595
33341W        W98161  27.577  19.258  12.953
33342W        W98162   7.129   4.916   1.580
33343W        W98163  36.024  31.594  13.908
33344W        W98164   9.142  44.772  13.414
33345W        W98165  11.602  23.732   1.650
33346W        W98166   9.741  18.430   3.189
33347W        W98167  18.229  23.575  12.765
33348W        W98168  32.943  32.742   0.704
33349W        W98169  13.141  33.507  12.591
33350W        W98170  29.095  10.339  11.222
33351W        W98171  23.548  15.760   3.373
33352W        W98172  39.606   5.899  12.819
33353W        W98173  17.109  43.894   4.222
33354W        W98174  15.740   6.181   3.902
33355W        W98175  42.031  15.534  12.743
33356W        W98176  18.863   1.611   1.152
33357W        W98177  26.987  33.754  14.785
33358W        W98178  27.152  29.387   3.657
33359W        W98179  37.957  27.241  14.810
33360W        W98180   2.739  16.550  11.300
33361W        W98181  12.542  23.692   1.791
33362W        W98182  30.687   8.427   3.841
33363W        W98183   0.813  40.424   1.414
33364W        W98184   6.912  20.934   0.083
33365W        W98185  41.372  40.548   0.689
33366W        W98186  11.360  33.076  14.484
33367W        W98187  43.469  25.619   2.205
33368W        W98188  44.705  14.421   2.960
33369W        W98189  44.267  20.086  13.852
33370W        W98190  33.866  15.215  10.293
33371W        W98191  24.039  27.923  11.928
33372W        W98192  28.628  23.837   0.299
33373W        W98193  37.997  22.766   3.845
33374W        W98194  21.209   3.146  13.313
33375W        W98195  34.623  11.978   0.678
33376W        W98196  30.989  40.671   3.531
33377W        W98197  18.775  39.609   1.633
33378W        W98198  28.795  14.230   3.607
33379W        W98199   5.475  40.885   0.009
33380W        W98200  14.211  40.524   3.576
33381W        W98201  28.167  44.781  11.556
33382W        W98202   2.485   8.064   3.107
33383W        W98203  13.175  21.492  13.461
33384W        W98204  20.664   7.171  10.298
33385W        W98205  35.657  32.454  14.514
33386W        W98206  37.309  29.071  12.105
33387W        W98207   3.000  24.280  11.151
33388W        W98208  10.121  17.259   4.164
33389W        W98209  26.871  44.463   5.139
33390W        W98210  17.759   6.288  14.796
33391W        W98211  36.052  42.935   3.183
33392W        W98212  18.803  29.229   0.838
33393W        W98213  16.657  32.236   4.836
33394W        W98214  37.953  34.100  12.171
33395W        W98215  15.633  27.767  14.875
33396W        W98216  28.597  30.247   4.578
33397W        W98217  11.530  34.475   3.174
33398W        W98218  13.819  31.744  11.686
33399W        W98219  35.590  28.036   2.882
33400W        W98220  37.911   0.686  14.996
33401W        W98221  15.677   7.753   3.135
33402W        W98222   4.491  32.594  13.389
33403W        W98223  11.097  21.091  12.406
33404W        W98224  13.041   1.323   2.838
33405W        W98225  23.564   6.850  13.146
33406W        W98226   4.840   6.708   2.982
33407W        W98227  27.703  31.575  13.914
33408W        W98228   6.988  21.954   4.127
33409W        W98229  12.789  42.783  12.214
33410W        W98230  30.027   8.751  13.025
33411W        W98231  16.153  13.908   3.789
33412W        W98232  36.403  35.072   0.776
33413W        W98233  15.844  33.007   4.123
33414W        W98234  10.344  35.791   1.369
33415W        W98235  44.698  25.400  12.799
33416W        W98236  26.712  10.793  13.946
33417W        W98237  22.185  25.091  12.860
33418W        W98238   1.849  25.962   4.151
33419W        W98239  29.440  29.079   2.939
33420W        W98240  14.569  20.010  12.842
33421W        W98241  12.153  30.631   3.062
33422W        W98242  33.187   2.168   2.791
33423W        W98243  41.594  18.246  12.490
33424W        W98244  21.743  35.616   5.113
33425W        W98245  12.979  41.715  11.113
33426W        W98246  18.569  21.756  12.857
33427W        W98247  17.625   3.598   2.587
33428W        W98248  19.110  11.139   0.872
33429W        W98249   2.782  13.320   0.318
33430W        W98250  22.855  15.607  12.337
33431W        W98251  41.028  15.736  12.963
33432W        W98252  17.101  29.976  11.704
33433W        W98253  14.262  22.798  13.892
33434W        W98254  22.935  17.124  10.742
33435W        W98255  31.036  16.689  14.769
33436W        W98256   7.978   1.947  11.042
33437W        W98257  34.571   7.349   0.352
33438W        W98258   1.044  15.292   3.332
33439W        W98259  44.798  14.816  12.337
33440W        W98260   0.984  25.940   3.177
33441W        W98261  42.853  18.704  14.249
33442W        W98262   9.281  44.456  10.366
33443W        W98263  42.371   4.908  10.800
33444W        W98264  17.033  12.656  14.380
33445W        W98265   6.919  16.249  14.253
33446W        W98266  20.304  10.910  12.078
33447W        W98267  24.102  28.314   0.161
33448W        W98268  29.489  14.945   0.429
33449W        W98269  23.966  31.323   2.027
33450W        W98270  11.089  16.355  11.919
33451W        W98271   5.922  28.229   3.370
33452W        W98272   3.924  20.388  14.529
33453W        W98273  12.736  12.492  14.748
33454W        W98274  32.915   7.700   3.083
33455W        W98275  43.398   9.775   0.367
33456W        W98276  25.543  37.751  10.918
33457W        W98277   8.126  32.540  14.830
33458W        W98278  43.859  35.571   0.743
33459W        W98279  21.469  30.285  13.456
33460W        W98280  17.105   1.708   4.636
33461W        W98281  40.129  21.199  14.390
33462W        W98282  26.554  10.158   3.184
33463W        W98283  14.096  13.853  13.427
33464W        W98284  30.111  42.920  14.336
33465W        W98285  22.523   9.338   0.872
33466W        W98286  15.660  12.837   0.204
33467W        W98287  32.203  44.728   1.855
33468W        W98288  34.012  36.529  14.611
33469W        W98289  37.188  19.560  11.095
33470W        W98290  26.082   7.403  11.710
33471W        W98291   5.761  11.578   1.613
33472W        W98292  32.453  40.104   3.113
33473W        W98293  35.942   3.786  12.886
33474W        W98294  10.637  11.255   3.312
33475W        W98295  39.981  33.713   3.705
33476W        W98296  29.523  42.568   1.394
33477W        W98297   7.406  27.440   5.120
33478W        W98298  31.641  41.968  14.123
33479W        W98299  40.286  14.258   2.831
33480W        W98300  30.746  17.213  14.354
33481W        W98301  13.729  24.237   2.729
33482W        W98302  28.332   2.779  11.022
33483W        W98303  39.360  35.029  13.811
33484W        W98304   5.606  38.680   3.601
33485W        W98305  16.746  42.894  14.975
33486W        W98306  22.858  43.501   0.739
33487W        W98307  44.635  44.584   2.793
33488W        W98308  19.313  20.530   1.852
33489W        W98309  38.586  32.132  14.391
33490W        W98310  41.744  19.678  11.948
33491W        W98311  17.786  12.231   4.222
33492W        W98312   5.916  20.012   0.017
33493W        W98313  13.765  30.056   1.686
33494W        W98314  35.484  19.977  14.852
33495W        W98315  40.891   6.188   3.265
33496W        W98316  41.408   7.895  13.470
33497W        W98317  24.734  43.754  14.943
33498W        W98318  14.176  30.544   0.372
33499W        W98319  39.386   8.150   1.268
33500W        W98320  26.967  32.722  13.412
33501W        W98321  29.148  24.417  12.879
33502W        W98322  16.606  22.744   0.796
33503W        W98323   5.099  37.605  11.147
33504W        W98324  12.836   0.727   2.430
33505W        W98325  16.174  25.962   4.193
33506W        W98326  29.553  20.918   4.544
33507W        W98327  40.005  38.918   1.255
33508W        W98328  40.094  10.801   1.977
33509W        W98329  34.882   1.147  13.532
33510W        W98330   9.135  35.577   2.859
33511W        W98331  23.147   5.779   2.633
33512W        W98332   6.809  20.017  14.902
33513W        W98333   0.719  27.269   2.297
33514W        W98334  33.448  41.083  13.058
33515W        W98335  25.137  17.478  12.997
33516W        W98336  42.813  12.877  13.913
33517W        W98337   9.950  25.158  12.082
33518W        W98338  12.727  23.765   3.377
33519W        W98339  16.800  18.081   2.342
33520W        W98340  13.384   7.742  11.965
33521W        W98341  16.823   5.411  11.963
33522W        W98342  34.150   2.291  11.258
33523W        W98343  39.189  12.892   0.416
33524W        W98344  25.986  33.324  11.436
33525W        W98345  19.964  35.458  14.364
33526W        W98346   5.273  14.313   2.078
33527W        W98347   2.216  15.321  12.594
33528W        W98348  37.327  42.288   4.111
33529W        W98349  13.037   6.476  12.706
33530W        W98350  34.464  11.105  14.309
33531W        W98351  25.136   4.248  13.624
33532W        W98352  29.119   8.479  12.476
33533W        W98353  10.585  14.015   4.251
33534W        W98354  11.099  24.563   2.352
33535W        W98355   7.261  32.347  13.788
33536W        W98356  11.161  36.589  12.008
33537W        W98357   7.365  10.454   4.096
33538W        W98358  40.487  28.950   0.822
33539W        W98359  27.413  16.060   3.143
33540W        W98360  32.526   0.675   2.323
33541W        W98361  36.636   9.104  10.346
33542W        W98362  44.011  22.269  11.405
33543W        W98363  18.509  22.743   1.665
33544W        W98364  10.970  33.928  12.535
33545W        W98365   7.592  43.593  14.960
33546W        W98366  13.881  33.427   1.876
33547W        W98367   6.315  17.598   3.260
33548W        W98368   1.533   2.199  13.407
33549W        W98369  44.326   3.170   1.774
33550W        W98370  17.811  22.554   2.388
33551W        W98371   0.372  39.824   2.812
33552W        W98372  29.561  24.459   3.117
33553W        W98373  26.806  21.997  14.305
33554W        W98374  21.303  23.405   0.326
33555W        W98375  43.039  34.242  10.834
33556W        W98376   9.650  30.067   4.051
33557W        W98377  12.169   9.290  10.962
33558W        W98378  15.688  39.514  12.449
33559W        W98379   1.768  32.001  13.150
33560W        W98380  23.341  31.071  14.648
33561W        W98381   2.479  32.502  12.130
33562W        W98382  34.027   3.204   2.894
33563W        W98383  21.052  29.753   4.224
33564W        W98384   7.707  21.762   4.591
33565W        W98385  41.074  28.948  13.390
33566W        W98386  20.494  10.889  10.914
33567W        W98387  15.080   3.739  14.814
33568W        W98388  35.948  42.557  10.493
33569W        W98389  42.549  19.699  10.442
33570W        W98390  20.208   9.776  13.873
33571W        W98391  43.735   3.091   2.626
33572W        W98392  28.247  23.940  12.786
33573W        W98393  15.744  17.752  10.594
33574W        W98394  43.967  33.554  13.866
33575W        W98395  42.813   1.262  11.222
33576W        W98396  30.452  20.040  12.831
33577W        W98397   6.613  16.315  12.530
33578W        W98398  13.668  35.653   2.220
33579W        W98399  23.736  44.391   1.316
33580W        W98400  15.987  24.881  13.892
33581W        W98401  28.737  14.528   0.487
33582W        W98402  35.405   6.405  12.577
33583W        W98403  28.678  21.784  14.338
33584W        W98404  35.717  34.637   1.586
33585W        W98405   8.954  34.569  11.953
33586W        W98406   1.032   8.652   2.862
33587W        W98407   2.245  43.841  10.565
33588W        W98408  40.586  38.378  14.366
33589W        W98409  17.775  19.528   2.908
33590W        W98410   3.366  16.593   4.529
33591W        W98411  19.830  30.446   0.540
33592W        W98412  12.706  39.619   0.410
33593W        W98413  20.924  44.405   4.229
33594W        W98414   4.240   8.342   3.669
33595W        W98415  23.612  40.970   0.796
33596W        W98416  29.201   5.000   2.292
33597W        W98417  34.562  13.772   1.445
33598W        W98418  16.668  14.063   0.791
33599W        W98419  31.445  11.586  12.606
33600W        W98420  43.794  28.576  13.364
33601W        W98421   3.385  12.155   3.683
33602W        W98422  28.417  23.221  11.967
33603W        W98423  10.736  20.171   4.403
33604W        W98424  26.413  31.077  12.980
33605W        W98425  40.489  39.471  14.283
33606W        W98426  32.717  39.302   1.940
33607W        W98427  37.859  43.305   1.808
33608W        W98428  25.945   3.979   4.619
33609W        W98429  27.961   0.896   3.729
33610W        W98430  36.228  10.973   9.700
33611W        W98431  44.090   2.130   1.033
33612W        W98432   5.864  10.776  11.117
33613W        W98433  38.511  21.443   0.764
33614W        W98434   9.007  26.347  11.403
33615W        W98435  17.992  41.253   4.737
33616W        W98436  31.456   0.437  12.459
33617W        W98437  39.612  14.412   1.384
33618W        W98438   9.412  42.463   0.406
33619W        W98439  34.213  22.586  14.315
33620W        W98440  24.256  11.412   3.735
33621W        W98441  42.532  11.981   1.796
33622W        W98442  24.493  38.499   2.129
33623W        W98443   9.751   8.210   3.157
33624W        W98444  17.060  42.409   3.923
33625W        W98445  14.025  14.793  13.253
33626W        W98446   8.687  41.177   1.260
33627W        W98447  26.174  18.074  13.302
33628W        W98448  39.024   5.717   4.654
33629W        W98449  29.711  27.491  11.860
33630W        W98450  21.674  11.677   2.175
33631W        W98451  43.342  42.267   2.480
33632W        W98452  19.711  14.613  11.651
33633W        W98453  33.720  30.172   0.181
33634W        W98454  15.980  11.932   3.607
33635W        W98455  35.579   7.620  10.948
33636W        W98456   8.815  24.662   1.925
33637W        W98457   2.147  36.392  11.049
33638W        W98458  38.207   8.348  13.386
33639W        W98459  20.150  37.597   3.205
33640W        W98460   3.271  40.916   3.284
33641W        W98461   0.906  11.202   4.540
33642W        W98462   0.988  21.040  13.466
33643W        W98463  37.598  22.165  14.528
33644W        W98464  30.484  26.887  11.986
33645W        W98465  33.880   1.411  12.122
33646W        W98466   4.724  30.519  10.263
33647W        W98467  10.052   1.770   2.612
33648W        W98468  10.423  16.735   3.105
33649W        W98469  20.049  12.294  12.426
33650W        W98470  29.403  36.350   3.580
33651W        W98471   5.955   2.088   4.915
33652W        W98472  11.923  12.238   9.995
33653W        W98473  33.982   4.996  13.765
33654W        W98474   5.481  36.359   3.705
33655W        W98475   1.454  26.288   4.981
33656W        W98476  30.724  23.619   1.274
33657W        W98477  35.372  32.333   4.565
33658W        W98478   5.680  34.529  13.437
33659W        W98479   4.781  19.972   2.245
33660W        W98480  40.595   3.926   3.213
33661W        W98481  40.389  44.483  13.391
33662W        W98482  35.063  33.734  14.316
33663W        W98483  38.834  25.728  11.922
33664W        W98484  21.222  20.508   3.591
33665W        W98485  15.637  25.425  13.380
33666W        W98486   2.894  28.486  12.968
33667W        W98487   7.922  43.251  12.804
33668W        W98488   3.269  12.124   2.154
33669W        W98489  41.289   1.128  12.419
33670W        W98490  26.986  40.480  14.259
33671W        W98491  28.156  44.380   1.221
33672W        W98492  24.655  17.632   2.346
33673W        W98493  25.471  34.416  12.679
33674W        W98494   0.119  26.864  12.580
33675W        W98495   1.266  20.054  14.219
33676W        W98496  22.629  13.257  12.940
33677W        W98497  32.558   0.965  10.784
33678W        W98498  28.991   7.695  13.355
33679W        W98499  15.010  12.651   4.448
33680W        W98500  32.851  22.199   5.008
33681W        W98501  38.243  27.560   0.248
33682W        W98502  18.022  34.649   1.353
33683W        W98503  16.545  15.325  14.428
33684W        W98504   3.449  31.415   4.044
33685W        W98505   5.800   3.955   4.143
33686W        W98506  30.153   0.927   2.880
33687W        W98507  22.555  17.608   3.607
33688W        W98508  22.152  18.075  14.316
33689W        W98509  14.793  27.575   1.282
33690W        W98510  30.014   8.136   2.308
33691W        W98511  33.626  44.243  10.203
33692W        W98512  38.364   8.269  11.015
33693W        W98513  35.135  27.672  11.497
33694W        W98514  25.909  24.261  13.026
33695W        W98515  26.473  14.880  14.498
33696W        W98516   4.484  21.227   4.547
33697W        W98517   8.816  25.303   2.146
33698W        W98518  20.525  27.221   3.301
33699W        W98519  10.758   3.329   3.280
33700W        W98520  29.432  33.876   2.877
33701W        W98521   8.316  12.734  13.933
33702W        W98522  39.841  13.140   1.792
33703W        W98523  34.985  40.881   3.278
33704W        W98524   1.122   7.998   0.756
33705W        W98525  19.761   8.840  13.360
33706W        W98526  41.718   6.220  13.528
33707W        W98527  41.922   8.920   5.165
33708W        W98528   2.452  30.227   1.352
33709W        W98529  40.317  20.429  14.396
33710W        W98530  20.734  38.124   3.703
33711W        W98531  20.647  32.832  10.756
33712W        W98532  42.874  13.683  11.693
33713W        W98533   1.565  39.559   2.837
33714W        W98534  25.715  36.868  12.483
33715W        W98535  38.943  39.330  11.256
33716W        W98536  12.843  10.360   4.518
33717W        W98537  19.711  16.764   2.235
33718W        W98538   0.222  24.176  12.123
33719W        W98539  24.527  25.953   0.813
33720W        W98540  42.053  22.998   2.251
33721W        W98541  40.393   2.750  14.718
33722W        W98542  28.708  10.857   0.856
33723W        W98543  35.880   2.153   4.125
33724W        W98544  35.375  42.592  11.122
33725W        W98545  42.590  34.060  10.658
33726W        W98546  14.082  12.791  12.387
33727W        W98547   8.631  33.048   0.538
33728W        W98548  34.869  10.750   2.656
33729W        W98549  24.661  20.092  13.993
33730W        W98550  25.517   0.844   2.760
33731W        W98551  44.299  33.944   4.606
33732W        W98552  24.200  17.149   1.948
33733W        W98553  31.575   1.832   3.751
33734W        W98554  38.594  18.226  10.500
33735W        W98555   5.436   1.478  12.035
33736W        W98556  42.034   3.727  12.210
33737W        W98557  42.352   4.843  11.327
33738W        W98558  22.729   6.869  12.598
33739W        W98559  26.556   9.530   4.167
33740W        W98560   9.867   9.240   2.961
33741W        W98561   8.109  21.248  14.469
33742W        W98562   4.503  12.291  14.283
33743W        W98563  42.652  40.537   0.780
33744W        W98564  17.635   2.305  11.824
33745W        W98565   3.381  11.119   1.904
33746W        W98566   2.846  24.554   1.849
33747W        W98567  31.990  28.609  10.634
33748W        W98568  13.407  14.198  13.680
33749W        W98569  32.541  15.244  12.596
33750W        W98570  36.017  32.030  14.416
33751W        W98571  33.654  32.432   3.269
33752W        W98572  29.730  31.844   4.479
33753W        W98573  34.324  23.945   2.664
33754W        W98574   0.707  24.965  11.110
33755W        W98575   2.235  18.575  12.321
33756W        W98576  22.243  13.102  11.421
33757W        W98577  11.816  18.633   3.778
33758W        W98578  30.697  12.055   0.301
33759W        W98579  17.480  37.846   1.267
33760W        W98580  43.848  43.645   0.019
33761W        W98581  43.031  32.980  13.450
33762W        W98582  39.822   9.578  13.926
33763W        W98583  13.191  34.945  10.564
33764W        W98584  28.568  36.611  14.314
33765W        W98585   8.685  21.227   0.046
33766W        W98586   7.910  15.871   5.119
33767W        W98587  35.617  28.831  10.406
33768W        W98588  15.528   6.216  14.491
33769W        W98589  40.069   5.107   1.646
33770W        W98590  19.115   2.033  11.173
33771W        W98591   2.131   1.058   2.735
33772W        W98592  32.919  15.996   2.171
33773W        W98593   3.267  13.849   4.879
33774W        W98594  34.819  17.775   2.156
33775W        W98595  15.574   6.181  13.494
33776W        W98596  24.602  18.871   2.702
33777W        W98597   7.429  15.154   1.189
33778W        W98598  41.544   7.878  10.720
33779W        W98599  33.026  43.898   4.679
33780W        W98600   3.773  12.357  13.817
33781W        W98601   6.827  17.163   1.217
33782W        W98602  10.129  27.467  12.995
33783W        W98603   3.659  23.638  10.768
33784W        W98604  36.590  30.472   3.713
33785W        W98605  38.335   1.550  13.147
33786W        W98606  43.547  29.209  11.265
33787W        W98607  30.008  23.155  14.976
33788W        W98608  19.267  35.538  11.876
33789W        W98609  18.786  39.541   0.284
33790W        W98610  44.893  37.879  11.201
33791W        W98611   9.686  19.501   3.509
33792W        W98612  40.234  14.183   1.779
33793W        W98613  16.076  16.111  12.480
33794W        W98614  41.750  17.179   2.333
33795W        W98615  23.508  14.064   0.813
33796W        W98616  40.078  21.059   0.368
33797W        W98617  19.052  31.875   4.235
33798W        W98618   4.407   6.720   2.690
33799W        W98619   9.667  20.522  11.122
33800W        W98620  16.049   1.238   2.373
33801W        W98621  13.161  31.916  14.258
33802W        W98622  31.332  17.561   4.089
33803W        W98623   6.810  17.429   3.203
33804W        W98624   3.709  34.478  10.743
33805W        W98625  36.562  40.356  11.230
33806W        W98626  15.743  39.483  14.160
33807W        W98627  13.145   5.215  12.670
33808W        W98628   2.401  13.227  11.620
33809W        W98629  43.733   4.133  11.172
33810W        W98630  27.738   7.857   4.219
33811W        W98631  20.972  21.603   2.743
33812W        W98632  26.112   1.866  13.520
33813W        W98633  33.641  20.748   4.602
33814W        W98634  26.474  10.704   4.905
33815W        W98635  28.922   4.436   4.639
33816W        W98636  26.095   2.815  12.046
33817W        W98637  17.058  42.638   4.889
33818W        W98638   6.950  43.989  11.165
33819W        W98639  17.353  16.544   1.279
33820W        W98640  31.323  20.670  14.368
33821W        W98641   2.918  18.861   1.780
33822W        W98642  16.672   5.237   4.490
33823W        W98643   5.544   6.115   1.326
33824W        W98644  36.309  44.561   1.907
33825W        W98645   7.888  26.993   1.664
33826W        W98646   4.597  43.964   0.932
33827W        W98647  21.072  30.865  11.274
33828W        W98648  23.426  22.612   1.262
33829W        W98649  17.301   1.583  14.840
33830W        W98650  16.108  27.952  14.786
33831W        W98651   2.040   6.776   2.599
33832W        W98652  36.375  44.900   2.403
33833W        W98653   3.321   8.277   2.788
33834W        W98654   5.365   8.775   1.668
33835W        W98655  16.696   9.339   4.586
33836W        W98656  14.276   1.888  13.351
33837W        W98657  34.645  33.508   2.165
33838W        W98658  37.840  38.536  13.304
33839W        W98659  42.472  10.815  11.814
33840W        W98660  16.439  21.184  13.016
33841W        W98661  41.703  36.323  12.704
33842W        W98662  42.484   9.391   2.940
33843W        W98663  37.862  31.906   1.037
33844W        W98664  42.199  30.434  14.097
33845W        W98665  33.955   5.038  11.370
33846W        W98666  23.606  33.129  11.540
33847W        W98667  24.197  21.626  14.465
33848W        W98668  31.749  22.642  10.830
33849W        W98669  18.153  10.486  10.226
33850W        W98670   2.860  24.277  10.653
33851W        W98671  16.496  24.571  11.217
33852W        W98672   2.913  41.489  13.355
33853W        W98673  15.134   5.935  10.733
33854W        W98674   0.884  25.701   0.935
33855W        W98675  24.037  12.153  11.923
33856W        W98676  43.225  21.267  13.921
33857W        W98677  12.544  16.469   0.379
33858W        W98678  25.107  35.368  14.351
33859W        W98679  31.161  36.395   3.306
33860W        W98680  41.251  19.575  11.997
33861W        W98681  38.306   2.162   1.133
33862W        W98682  20.084  25.003   0.854
33863W        W98683  37.897  33.092   0.194
33864W        W98684  15.110  42.126   4.154
33865W        W98685  18.933  26.018   0.033
33866W        W98686   2.003  40.586  14.920
33867W        W98687  40.845   4.706  13.090
33868W        W98688  31.441   2.230  12.154
33869W        W98689  21.813  35.982  14.479
33870W        W98690  14.492  19.001  14.015
33871W        W98691  31.293  41.041   0.177
33872W        W98692  42.196  24.008   2.883
33873W        W98693  37.745  21.184  12.597
33874W        W98694  28.739  41.459  10.681
33875W        W98695  37.418   6.791   4.401
33876W        W98696  41.013  17.735   4.961
33877W        W98697   9.156   7.858   3.672
33878W        W98698  30.500  15.420  14.728
33879W        W98699   3.963  15.119   4.757
33880W        W98700  26.402  31.965   2.816
33881W        W98701  42.388  29.424  13.368
33882W        W98702  26.944  16.043   4.337
33883W        W98703  29.889  15.515   3.384
33884W        W98704  16.611  17.708   2.822
33885W        W98705   8.388  28.392   3.860
33886W        W98706  11.380  14.322   3.685
33887W        W98707  33.219  27.060   2.134
33888W        W98708   5.893   8.695   1.825
33889W        W98709  12.518  34.550   1.568
33890W        W98710  42.003   1.432  13.954
33891W        W98711   8.275  44.835   0.949
33892W        W98712   0.406  39.909  14.966
33893W        W98713  35.605  36.843   2.406
33894W        W98714   5.772  30.997  14.979
33895W        W98715  15.620  39.054  11.647
33896W        W98716  10.079  14.187  13.351
33897W        W98717  39.164  41.043  10.167
33898W        W98718  32.158  14.318   3.276
33899W        W98719   4.888  12.718   1.824
33900W        W98720  25.912  11.159  12.963
33901W        W98721   5.518   7.777   3.475
33902W        W98722  43.408   8.243  10.796
33903W        W98723  39.743  35.369  12.065
33904W        W98724  27.208  31.034  13.432
33905W        W98725   9.878   2.515  13.023
33906W        W98726   3.354   7.912  14.811
33907W        W98727  42.849   2.965   2.676
33908W        W98728  43.345  12.414   2.763
33909W        W98729  33.502   5.428   0.832
33910W        W98730  28.051  11.865  12.900
33911W        W98731  41.967  24.178  14.040
33912W        W98732  24.264  20.710  12.906
33913W        W98733  33.595   7.152  13.528
33914W        W98734   0.870  42.256   3.125
33915W        W98735   5.816  36.843   4.115
33916W        W98736  30.090  33.898  13.605
33917W        W98737  38.972  40.227   3.201
33918W        W98738   4.954  37.676  14.067
33919W        W98739  24.232  17.100   5.088
33920W        W98740   7.118  43.364   1.366
33921W        W98741  20.685  10.388  10.197
33922W        W98742  35.689   2.343   4.585
33923W        W98743   9.412  24.096   4.969
33924W        W98744   0.043   8.319   3.230
33925W        W98745  25.274   6.183  11.922
33926W        W98746  39.793  40.686   2.424
33927W        W98747  17.771   4.567  13.875
33928W        W98748   0.259  25.422   2.253
33929W        W98749   0.435   8.386   2.362
33930W        W98750  14.128  12.312  14.475
33931W        W98751  23.196   9.511   2.711
33932W        W98752  39.497  21.607   3.373
33933W        W98753  15.152  23.936  14.992
33934W        W98754  21.491  24.140  12.086
33935W        W98755   6.776  28.213   0.783
33936W        W98756  36.469  16.817   3.134
33937W        W98757  35.955  43.868  10.791
33938W        W98758  15.680  28.760  14.960
33939W        W98759  14.826  24.491   0.316
33940W        W98760  18.483  17.992  11.201
33941W        W98761  11.105   2.186  12.900
33942W        W98762  36.373  27.081   0.238
33943W        W98763  19.579  27.598   0.501
33944W        W98764  24.684  22.169   1.086
33945W        W98765  39.243  22.062  11.227
33946W        W98766  23.944  14.864   0.837
33947W        W98767  15.036  27.705  13.521
33948W        W98768  39.004  23.649  11.162
33949W        W98769  43.301   7.278  12.592
33950W        W98770  15.630  20.498  13.344
33951W        W98771   1.983  10.222   1.347
33952W        W98772  42.024   7.709  12.422
33953W        W98773  35.376   8.112  11.183
33954W        W98774  11.859  37.950  14.981
33955W        W98775  32.481  43.543  12.500
33956W        W98776  14.563  35.603  14.293
33957W        W98777  16.644  35.395   1.938
33958W        W98778  15.366   3.390  11.626
33959W        W98779  12.243  22.815   1.197
33960W        W98780   7.155  43.160   3.335
33961W        W98781   4.040  18.547   1.391
33962W        W98782  24.426  12.556  13.889
33963W        W98783  11.715  31.996   2.302
33964W        W98784   4.503  28.511   0.500
33965W        W98785  16.015   4.714   9.887
33966W        W98786   2.978  13.042   0.717
33967W        W98787  10.490  42.457   4.413
33968W        W98788  14.123   6.326   2.156
33969W        W98789  16.186  12.736   1.314
33970W        W98790  21.224  33.938   1.162
33971W        W98791  27.634   8.194   0.737
33972W        W98792   8.819  34.102  10.681
33973W        W98793   3.395  25.510   0.991
33974W        W98794  14.334   1.737   1.307
33975W        W98795  31.989  39.414   4.098
33976W        W98796  20.542  44.047  12.604
33977W        W98797  31.252   0.377   4.544
33978W        W98798  38.153  40.658   0.306
33979W        W98799  34.356  20.952  11.051
33980W        W98800   4.990  28.720   2.326
33981W        W98801  11.839  40.781   1.892
33982W        W98802   7.299   6.303   1.824
33983W        W98803  10.931   2.382  13.800
33984W        W98804  13.271  23.018  12.799
33985W        W98805  31.833  34.301  10.657
33986W        W98806  19.786  40.260  11.041
33987W        W98807  43.790  10.152   2.616
33988W        W98808  29.960   5.861  11.308
33989W        W98809  19.253  17.001   2.238
33990W        W98810   7.607  30.188  13.406
33991W        W98811  35.413  12.953   0.480
33992W        W98812  17.578  31.569   0.980
33993W        W98813  10.830  43.903  14.475
33994W        W98814  19.700  32.191   2.272
33995W        W98815  16.343  41.972   2.822
33996W        W98816   5.402   2.930   1.208
33997W        W98817  14.298  27.570   0.152
33998W        W98818  13.316  29.191  11.886
33999W        W98819  34.428   1.587   3.180
34000W        W98820   3.826  36.092   0.778
34001W        W98821  18.191  26.235   0.347
34002W        W98822   9.651  10.920  13.751
34003W        W98823  34.416  20.770  14.264
34004W        W98824   5.900  37.434  10.809
34005W        W98825  22.659  43.786  10.789
34006W        W98826  35.898   3.204  11.178
34007W        W98827  16.114  32.475  13.488
34008W        W98828  41.333  42.443  13.612
34009W        W98829  29.432   9.286  13.553
34010W        W98830  26.488  21.945  12.734
34011W        W98831  43.482  43.871   1.779
34012W        W98832  32.940   4.789   1.964
34013W        W98833  43.233  42.842  13.959
34014W        W98834   1.000  38.353   2.155
34015W        W98835  18.002  18.651   4.702
34016W        W98836  39.782  41.329   0.642
34017W        W98837  23.926  19.772  13.811
34018W        W98838  11.186   9.774   4.205
34019W        W98839  31.707  21.674   4.429
34020W        W98840  19.429  25.033   0.193
34021W        W98841   9.571  37.625  11.226
34022W        W98842  15.319   9.752   5.089
34023W        W98843  20.133  32.044   3.955
34024W        W98844  20.488  36.005  13.155
34025W        W98845  28.937   4.405  14.790
34026W        W98846  39.801  15.669  12.399
34027W        W98847   3.226  10.780   3.594
34028W        W98848  31.999  44.650  11.502
34029W        W98849  26.086   6.698  11.861
34030W        W98850  34.458  25.181   1.751
34031W        W98851  20.851   1.407   1.935
34032W        W98852  31.686  20.047  13.105
34033W        W98853   6.270   7.398   1.552
34034W        W98854  15.868  36.285  14.878
34035W        W98855  20.767  10.495  12.490
34036W        W98856  25.888  32.045   2.863
34037W        W98857  21.767  15.902  14.291
34038W        W98858  34.586  39.885  11.176
34039W        W98859  18.274  34.651  11.875
34040W        W98860  44.735  35.402   2.769
34041W        W98861  41.591  35.068   1.799
34042W        W98862  32.672  38.956   2.301
34043W        W98863  25.570   0.685  12.299
34044W        W98864   8.768  44.765  14.630
34045W        W98865  28.028  37.816  12.444
34046W        W98866  36.561  27.037   2.770
34047W        W98867   2.765  20.808  10.721
34048W        W98868  37.755  12.288   2.141
34049W        W98869   2.969  29.588   3.314
34050W        W98870  34.956  18.752   0.971
34051W        W98871  30.461  39.764   2.970
34052W        W98872  42.499   0.296  13.504
34053W        W98873  31.715  14.995   2.832
34054W        W98874  23.174  20.272  10.232
34055W        W98875  18.502  28.888   1.877
34056W        W98876  43.429  19.720   4.136
34057W        W98877  31.864  41.932   4.228
34058W        W98878  29.410  44.345   3.546
34059W        W98879  10.165  11.453   3.282
34060W        W98880   5.248   5.475   4.496
34061W        W98881  39.491  22.286   2.219
34062W        W98882  20.546  19.630   0.973
34063W        W98883   8.727  27.414  12.536
34064W        W98884   5.109  28.978   1.661
34065W        W98885  36.313  35.810   1.663
34066W        W98886  16.779  27.529   1.449
34067W        W98887  29.077  39.720  11.809
34068W        W98888   0.997  19.816   4.212
34069W        W98889  35.439  28.769  12.691
34070W        W98890   2.183   1.311   4.182
34071W        W98891   3.610  41.613  14.879
34072W        W98892  34.531  15.790   0.809
34073W        W98893  20.365  38.565  12.199
34074W        W98894   6.637  27.953   2.154
34075W        W98895  11.113  16.245  13.776
34076W        W98896  36.150  18.279   4.536
34077W        W98897  12.381  23.081  12.622
34078W        W98898  35.374  28.247  13.484
34079W        W98899  10.746   2.721  11.112
34080W        W98900  27.374  12.237   3.799
34081W        W98901  38.793  39.454   0.537
34082W        W98902   9.193  21.346   4.541
34083W        W98903  11.377  17.318   0.670
34084W        W98904  22.729  38.524  11.616
34085W        W98905  29.403  43.286   3.733
34086W        W98906  32.245  15.874  13.017
34087W        W98907  33.798  43.604   3.614
34088W        W98908   3.622  39.719   1.222
34089W        W98909  17.234  35.105   3.680
34090W        W98910  26.084  23.669  10.349
34091W        W98911  23.984  25.243  13.417
34092W        W98912  19.273  29.079   2.435
34093W        W98913  34.421   3.261   4.619
34094W        W98914   4.515   6.730  13.969
34095W        W98915  25.602   5.186   0.450
34096W        W98916  16.611  31.916  14.527
34097W        W98917  27.162  22.141   3.589
34098W        W98918  34.151  28.299   4.972
34099W        W98919  30.917  37.291   0.201
34100W        W98920  35.315   6.309   1.378
34101W        W98921  32.368   2.032  11.782
34102W        W98922  28.110  37.422   3.829
34103W        W98923  40.342  31.997  12.841
34104W        W98924   3.456  20.553   4.253
34105W        W98925   2.435  39.860  13.874
34106W        W98926  37.851  11.139  13.113
34107W        W98927  25.183  41.626   3.156
34108W        W98928  12.049  37.998   3.567
34109W        W98929  16.292   7.590   1.923
34110W        W98930  34.607  35.991   2.272
34111W        W98931  28.470  32.457   2.324
34112W        W98932  31.044  28.612   0.949
34113W        W98933  28.410   0.146   0.425
34114W        W98934  26.174   2.737   4.438
34115W        W98935   8.503  14.620  12.365
34116W        W98936  27.218  32.203   0.895
34117W        W98937  13.371  17.010  11.192
34118W        W98938  43.398  14.015   0.721
34119W        W98939  43.625  41.508   2.322
34120W        W98940  32.410  41.080   4.988
34121W        W98941  38.605  39.878  14.310
34122W        W98942  42.533  27.447   3.585
34123W        W98943  36.324   8.186  11.162
34124W        W98944  17.994  35.936   3.530
34125W        W98945  25.528  27.670  13.462
34126W        W98946   1.426  40.592  11.099
34127W        W98947  35.293  10.189  14.759
34128W        W98948  17.121  38.860  14.410
34129W        W98949  41.878  23.728   0.840
34130W        W98950  28.660  16.570  11.589
34131W        W98951   0.916  31.455  14.631
34132W        W98952  36.561  31.340   3.013
34133W        W98953  31.607  24.528  14.475
34134W        W98954  40.859  42.414  10.659
34135W        W98955  31.165  43.508   0.159
34136W        W98956  34.844   8.225   4.167
34137W        W98957  40.510   9.602   3.674
34138W        W98958  13.603  13.226   3.754
34139W        W98959  16.573  44.591  12.293
34140W        W98960  14.953  37.505  14.347
34141W        W98961  43.948  39.008  10.529
34142W        W98962  33.646  42.283   1.300
34143W        W98963  25.075  20.049  13.136
34144W        W98964  14.113  38.591  13.914
34145W        W98965   5.227  15.082  12.438
34146W        W98966  35.464  12.622  13.231
34147W        W98967  20.330  29.909  13.055
34148W        W98968  27.660  24.958   0.345
34149W        W98969  42.157   1.029   1.277
34150W        W98970   8.053  40.789   2.146
34151W        W98971   0.198  32.701  13.571
34152W        W98972   1.525   9.396  14.408
34153W        W98973  44.492   3.886   4.793
34154W        W98974  39.428   0.803   1.161
34155W        W98975  41.739  17.167   3.698
34156W        W98976  43.399  27.275  12.119
34157W        W98977  16.036  27.937   1.246
34158W        W98978  14.457  10.164   5.109
34159W        W98979  25.097  11.270   3.969
34160W        W98980  41.216  13.280  11.101
34161W        W98981   9.776  22.764   0.407
34162W        W98982  34.624   0.315   4.210
34163W        W98983  40.935   0.686   4.126
34164W        W98984  16.759  18.182   4.171
34165W        W98985  26.057  22.163  11.925
34166W        W98986  27.482  26.579   2.845
34167W        W98987  37.248   1.949  14.103
34168W        W98988   8.645  11.184  13.403
34169W        W98989  29.265  40.353   1.276
34170W        W98990  17.793  42.759   4.288
34171W        W98991  29.513   2.967  13.419
34172W        W98992  37.475  36.983   0.769
34173W        W98993  23.765   1.423   1.711
34174W        W98994  31.511  37.480   2.953
34175W        W98995   3.993   9.912   3.110
34176W        W98996  36.535  41.528   3.118
34177W        W98997   8.137  13.322   1.861
34178W        W98998  17.565   2.968  11.152
34179W        W98999  34.599   6.336  13.990
34180W        W99000  29.575  26.915   1.224
34181W        W99001  25.624  39.607   2.314
34182W        W99002  27.331  35.436   2.348
34183W        W99003  22.900   9.719   9.730
34184W        W99004  10.985  18.336  11.535
34185W        W99005  41.895  30.438  13.396
34186W        W99006  25.592  30.365   4.166
34187W        W99007  17.676  14.360  11.859
34188W        W99008  16.986   3.541   2.269
34189W        W99009   1.573  32.943   1.191
34190W        W99010   3.302  39.133   2.360
34191W        W99011  40.085  24.096  11.617
34192W        W99012  41.812  38.184  12.687
34193W        W99013  43.935  11.897  14.039
34194W        W99014  27.252  30.409  14.362
34195W        W99015  16.569  13.899  14.293
34196W        W99016  14.558  28.969  12.499
34197W        W99017  11.801  41.478  13.327
34198W        W99018  16.209  28.949  13.629
34199W        W99019   0.855  44.062  10.989
34200W        W99020  40.475  35.199  11.478
34201W        W99021   2.869  42.384  14.781
34202W        W99022  44.333  18.008   1.769
34203W        W99023  10.987  38.872   1.925
34204W        W99024  41.822  16.014  11.083
34205W        W99025  18.229  18.097  14.069
34206W        W99026  19.134   7.637   2.302
34207W        W99027   2.479   6.325   0.233
34208W        W99028  26.956  27.564  13.352
34209W        W99029   8.629  40.896  10.685
34210W        W99030  43.006  16.250  13.595
34211W        W99031  35.822  15.089  11.449
34212W        W99032  19.559   6.525   3.304
34213W        W99033  35.046   3.345  14.578
34214W        W99034  28.650  32.046  10.969
34215W        W99035  43.740  35.899   3.368
34216W        W99036   2.776  33.153  12.491
34217W        W99037  19.770  30.779  14.542
34218W        W99038   8.279  25.897  12.108
34219W        W99039  19.680  35.251  11.227
34220W        W99040  28.256  37.839   0.225
34221W        W99041  35.397  30.463   3.920
34222W        W99042  44.889  28.693  12.134
34223W        W99043  29.326   5.458  13.612
34224W        W99044  26.509  29.980  11.045
34225W        W99045   2.740  43.531   4.220
34226W        W99046   4.960  27.648   0.353
34227W        W99047  10.720   8.177  12.934
34228W        W99048  11.337  23.675   3.639
34229W        W99049  18.763  11.083   1.281
34230W        W99050  22.508  16.824   3.843
34231W        W99051  33.219  19.170  11.809
34232W        W99052  28.199  23.986   2.364
34233W        W99053  26.609  11.808   3.911
34234W        W99054   9.266  10.413  14.744
34235W        W99055   2.920  27.191  11.902
34236W        W99056  27.908  37.884  13.210
34237W        W99057  33.066  12.462  10.552
34238W        W99058  18.566   2.573   3.686
34239W        W99059  29.891  36.808  10.731
34240W        W99060  12.367  37.828  14.950
34241W        W99061  13.278  24.702  14.355
34242W        W99062  27.174  39.522  12.056
34243W        W99063  10.232  27.208  14.972
34244W        W99064  32.843   7.552  11.594
34245W        W99065  20.389   5.404  12.042
34246W        W99066  17.015  42.464   1.678
34247W        W99067   7.170  22.232   0.109
34248W        W99068   7.706  15.312  13.396
34249W        W99069  42.406  20.237  14.969
34250W        W99070  14.173  33.358   2.853
34251W        W99071  33.087  27.659  11.193
34252W        W99072  36.862  24.257  10.556
34253W        W99073  27.501  44.331  12.770
34254W        W99074  40.840  43.696   4.360
34255W        W99075  21.656  40.603   1.934
34256W        W99076  39.272  40.089  10.714
34257W        W99077  38.982  27.866  12.507
34258W        W99078  37.960  41.886   3.793
34259W        W99079  42.915  10.741   3.378
34260W        W99080   0.380  15.671  13.944
34261W        W99081   1.964  27.548  11.664
34262W        W99082   5.620  31.316   2.823
34263W        W99083  13.222  25.172   3.560
34264W        W99084  12.250  23.898   2.819
34265W        W99085  44.582  25.575   0.397
34266W        W99086  13.721   1.002   2.846
34267W        W99087   9.907   9.830   0.229
34268W        W99088  37.505  18.781  14.735
34269W        W99089  35.963  41.026  14.862
34270W        W99090   4.766  29.321   5.067
34271W        W99091  14.197  19.724   3.309
34272W        W99092  40.229  28.237  11.148
34273W        W99093  12.176  15.640   1.391
34274W        W99094  25.809  15.084   1.818
34275W        W99095  39.683  27.468   3.143
34276W        W99096  41.752   1.410   4.187
34277W        W99097  19.059  33.846   3.564
34278W        W99098  38.957  23.078   4.598
34279W        W99099  19.920   8.504  14.681
34280W        W99100  34.100  12.208   2.760
34281W        W99101   6.912  39.978   2.880
34282W        W99102   0.794  38.058  11.678
34283W        W99103   3.171  22.028   4.353
34284W        W99104   1.038  21.552   1.383
34285W        W99105  28.820  44.470   0.215
34286W        W99106  40.461  14.390   5.095
34287W        W99107  33.367   3.244   3.293
34288W        W99108  42.771  26.057   2.224
34289W        W99109  33.154  33.541   1.178
34290W        W99110  14.102  31.104   0.393
34291W        W99111  40.577  15.155   0.829
34292W        W99112   2.986  14.297  13.151
34293W        W99113  10.180   2.669   1.627
34294W        W99114   8.899  34.485  11.022
34295W        W99115  22.720  10.676  14.042
34296W        W99116  33.454  11.056  12.862
34297W        W99117  27.090  41.232   0.786
34298W        W99118  37.814  18.133   2.727
34299W        W99119   7.888   0.728  10.284
34300W        W99120  44.531   6.872   3.316
34301W        W99121   5.243  40.350  13.384
34302W        W99122  25.636  33.682  14.247
34303W        W99123  40.902  23.777   2.904
34304W        W99124  18.653   4.508   3.243
34305W        W99125  25.649  13.898   0.285
34306W        W99126   8.765  10.038  10.042
34307W        W99127  10.084  38.292  14.307
34308W        W99128  27.655   1.713  14.329
34309W        W99129  14.682  25.563  13.537
34310W        W99130  13.189  22.921   3.366
34311W        W99131  16.307  31.023   1.730
34312W        W99132  12.616  12.113  14.355
34313W        W99133  16.061  16.734   1.720
34314W        W99134   9.411  43.002   3.684
34315W        W99135   6.895   9.392   1.760
34316W        W99136  22.542   1.369  10.765
34317W        W99137  27.252   4.311  11.553
34318W        W99138  29.532  42.375   1.879
34319W        W99139  23.394  41.971  12.370
34320W        W99140  11.706  15.573   4.330
34321W        W99141  41.275   0.215   3.210
34322W        W99142  18.951   9.064   3.079
34323W        W99143  31.192  22.763   0.275
34324W        W99144  20.570  20.753  13.554
34325W        W99145   3.433  38.841   2.847
34326W        W99146  18.521  32.397  12.452
34327W        W99147  42.475  25.086  14.915
34328W        W99148  28.653  21.533   3.896
34329W        W99149  44.296  16.049   5.087
34330W        W99150  29.477  22.267   4.121
34331W        W99151  10.791  16.283  13.360
34332W        W99152  17.584  19.003   1.934
34333W        W99153  35.018   1.404  14.536
34334W        W99154  24.219  44.288   2.201
34335W        W99155  30.198  30.016   3.362
34336W        W99156  30.817  29.948  14.499
34337W        W99157  25.408  36.493  13.930
34338W        W99158  39.934  16.099   2.679
34339W        W99159  35.938  15.784   9.894
34340W        W99160   2.969   7.278   4.520
34341W        W99161   8.990  22.101   0.248
34342W        W99162   6.652  30.166  12.632
34343W        W99163  17.774   4.077  14.775
34344W        W99164  43.264  37.771   2.051
34345W        W99165  24.692  27.431   1.148
34346W        W99166  12.289   5.161   0.888
34347W        W99167  19.508   5.129   0.417
34348W        W99168  40.815  17.940  13.412
34349W        W99169  19.571  28.571   2.406
34350W        W99170  38.223  42.782   2.595
34351W        W99171  38.950  42.739   0.282
34352W        W99172  37.489  25.185  13.073
34353W        W99173  17.094  42.948  10.699
34354W        W99174  27.039  42.178   1.115
34355W        W99175  34.256  12.216  12.503
34356W        W99176   3.868   8.436   0.306
34357W        W99177  13.627  16.543   1.718
34358W        W99178  35.358  21.726   4.700
34359W        W99179   0.951  21.288  13.988
34360W        W99180  21.724  26.629   3.288
34361W        W99181  24.254  42.434   2.115
34362W        W99182  37.772   0.659  13.136
34363W        W99183  41.271  37.362   3.715
34364W        W99184   8.888  19.296   2.011
34365W        W99185  18.104  19.501   4.142
34366W        W99186  36.175  44.756  11.104
34367W        W99187  30.994   4.273   4.715
34368W        W99188  18.221  44.615  13.593
34369W        W99189  31.741  43.412  14.038
34370W        W99190  27.708  16.591   0.854
34371W        W99191   1.149  24.590   2.836
34372W        W99192  39.353   5.809   2.742
34373W        W99193  16.650  19.110   3.772
34374W        W99194  22.081  42.992   4.722
34375W        W99195  35.368   8.649  14.859
34376W        W99196  17.733  44.797  14.392
34377W        W99197  36.057  10.755  12.603
34378W        W99198  21.151  17.581  14.804
34379W        W99199  35.659  39.322  14.021
34380W        W99200   6.079   1.524  13.931
34381W        W99201   9.400  42.502   3.568
34382W        W99202  40.739   1.932  14.989
34383W        W99203  19.604  19.642   0.513
34384W        W99204   8.777  41.082   3.935
34385W        W99205  13.123  12.555   4.897
34386W        W99206  19.965   6.975   2.735
34387W        W99207  17.675  10.300  10.395
34388W        W99208  22.790  39.429  11.627
34389W        W99209  41.639  10.570   4.265
34390W        W99210  42.779  15.514   2.731
34391W        W99211   9.385  18.749   4.117
34392W        W99212  39.575   2.582   1.153
34393W        W99213  14.268  43.668   0.737
34394W        W99214  43.788   4.678  11.324
34395W        W99215  24.990  36.438  10.642
34396W        W99216  22.053  10.658  11.392
34397W        W99217  15.982  20.960   0.329
34398W        W99218  40.295  27.962  12.970
34399W        W99219   2.732  11.680   3.737
34400W        W99220  20.263  37.851   3.669
34401W        W99221  40.833   5.376   1.224
34402W        W99222  38.082   8.854   2.832
34403W        W99223  31.640  17.195  13.437
34404W        W99224  27.190  24.526   1.963
34405W        W99225  28.027  40.362  10.980
34406W        W99226   0.153   8.221  11.722
34407W        W99227   3.789  10.861   0.645
34408W        W99228  18.472  20.583   4.210
34409W        W99229  39.512  20.856   3.939
34410W        W99230  27.444  21.528  11.851
34411W        W99231   1.727  15.821  11.965
34412W        W99232  19.245  32.565   2.355
34413W        W99233  18.139  37.613   1.762
34414W        W99234   0.817  34.996  12.658
34415W        W99235  23.969  21.156  11.126
34416W        W99236   7.777   0.321   0.308
34417W        W99237   7.884   3.630  13.480
34418W        W99238  42.545  11.690   4.309
34419W        W99239  34.930  27.141   3.666
34420W        W99240  30.463   1.472   1.250
34421W        W99241  13.669  33.086  10.648
34422W        W99242   3.688  25.756   1.852
34423W        W99243  13.352   1.711   2.755
34424W        W99244   1.154  27.297   4.849
34425W        W99245  27.999  39.553  11.656
34426W        W99246  37.159  10.183   2.168
34427W        W99247  19.975  44.413   1.886
34428W        W99248  23.261  15.808  12.041
34429W        W99249  44.068  29.704   2.177
34430W        W99250  31.440  19.624  10.490
34431W        W99251  33.981   1.027   0.447
34432W        W99252   1.153   9.801  10.530
34433W        W99253   1.398   1.919   2.402
34434W        W99254  18.103  24.539   1.148
34435W        W99255   8.256  27.472  12.242
34436W        W99256  37.421  39.728  14.843
34437W        W99257   1.303   0.442   2.856
34438W        W99258  27.199  13.275  13.770
34439W        W99259  35.932   5.154   3.079
34440W        W99260  36.936  30.034   3.708
34441W        W99261  31.510   5.896   3.135
34442W        W99262  42.698  35.277   5.186
34443W        W99263   0.629  26.180   3.547
34444W        W99264   9.092   3.853  12.854
34445W        W99265  35.362   1.810  13.085
34446W        W99266  29.388   9.195  10.746
34447W        W99267  27.925   3.419   1.674
34448W        W99268  33.589  35.406   1.173
34449W        W99269   0.656  25.220   4.953
34450W        W99270  38.563  22.738   2.409
34451W        W99271  21.320  10.941   5.503
34452W        W99272   0.266   7.098   2.740
34453W        W99273   7.590  26.407   4.950
34454W        W99274  25.651  20.303   1.873
34455W        W99275  19.759  44.343  10.944
34456W        W99276  17.507  42.504   1.788
34457W        W99277  24.985  22.036  14.340
34458W        W99278  25.045  19.737  14.939
34459W        W99279  36.057  41.267  11.095
34460W        W99280  39.973   1.659   2.204
34461W        W99281   1.337  40.863   3.252
34462W        W99282  23.598  29.865   2.371
34463W        W99283  10.379   8.956  12.836
34464W        W99284  38.310  14.476   5.437
34465W        W99285  37.029  34.473   4.836
34466W        W99286  32.409  42.508  12.468
34467W        W99287  26.476  13.737   2.719
34468W        W99288  29.972  24.682  13.334
34469W        W99289  42.467  35.916  10.617
34470W        W99290  21.204  39.322  13.878
34471W        W99291  14.775  19.763   1.278
34472W        W99292  10.803   4.374  13.548
34473W        W99293  42.373   3.835  11.513
34474W        W99294  42.581  13.584   3.295
34475W        W99295  22.282   6.502   2.779
34476W        W99296   2.909  15.552   2.313
34477W        W99297  21.646  36.947   0.017
34478W        W99298  27.383  28.338  13.719
34479W        W99299  43.136  10.681   1.768
34480W        W99300  34.808  33.881   4.316
34481W        W99301  13.246  42.762  11.929
34482W        W99302   3.999   8.407  14.442
34483W        W99303  43.864   1.219  12.434
34484W        W99304  11.126  12.664  11.614
34485W        W99305  44.765  31.437   0.413
34486W        W99306  34.983  16.640  13.426
34487W        W99307  31.380   8.814   2.284
34488W        W99308  17.109  40.857  14.761
34489W        W99309   6.164  17.553   1.385
34490W        W99310  38.388  35.658  13.516
34491W        W99311   8.445  41.218  14.913
34492W        W99312  26.294  35.724   0.909
34493W        W99313  38.010   5.342   0.964
34494W        W99314  18.800   6.644  13.625
34495W        W99315  44.095  38.402  11.160
34496W        W99316  26.678  38.872   3.286
34497W        W99317  18.095  13.193   0.975
34498W        W99318  33.200  37.093   3.836
34499W        W99319  38.307  40.000   2.389
34500W        W99320  27.488  29.531  11.940
34501W        W99321  33.422  41.540  12.269
34502W        W99322  27.462  38.203  11.128
34503W        W99323  27.434  11.821  10.361
34504W        W99324  11.179   6.877   1.309
34505W        W99325   7.159  16.726  14.308
34506W        W99326   7.644   5.233  13.385
34507W        W99327  15.056  42.822   0.226
34508W        W99328  30.473  17.219   4.231
34509W        W99329   8.603  44.214   1.908
34510W        W99330  36.901  43.988  14.490
34511W        W99331  12.868  15.325   1.250
34512W        W99332  21.226  16.878   0.962
34513W        W99333  26.267  29.946  12.614
34514W        W99334   6.530   4.148  12.480
34515W        W99335  28.236  15.714  12.857
34516W        W99336  16.219  17.574  10.414
34517W        W99337  39.114  40.859   3.929
34518W        W99338  24.132   4.288  13.492
34519W        W99339  40.970  34.011   2.237
34520W        W99340  13.129  39.396   3.583
34521W        W99341  19.606  31.524  12.733
34522W        W99342  15.813  19.208  12.442
34523W        W99343  26.026  22.335   0.997
34524W        W99344  18.026   9.332  10.014
34525W        W99345  14.251  25.210   1.662
34526W        W99346  14.224   5.404  11.621
34527W        W99347   9.784   9.240   1.396
34528W        W99348   0.890  32.855   3.799
34529W        W99349   2.460  31.053  11.326
34530W        W99350   6.511  32.722  11.525
34531W        W99351  18.247   7.860  12.329
34532W        W99352  22.482  37.997   0.586
34533W        W99353   9.592  42.883   3.188
34534W        W99354  24.363  33.123   4.478
34535W        W99355  43.385  41.881   1.457
34536W        W99356  13.559  21.573   4.547
34537W        W99357  41.990   3.330  11.425
34538W        W99358  37.478  15.573   4.188
34539W        W99359  20.672   3.769  14.760
34540W        W99360  35.819   3.261  12.883
34541W        W99361   2.654  26.928   3.585
34542W        W99362  34.069   3.845   0.210
34543W        W99363  15.933   4.310   2.714
34544W        W99364  17.976   7.146  11.580
34545W        W99365  22.336  35.957   4.279
34546W        W99366  43.604  11.167   3.138
34547W        W99367  27.195  29.551  10.720
34548W        W99368  27.789  32.619  10.692
34549W        W99369   0.645  28.825   2.671
34550W        W99370  33.705  23.228  11.499
34551W        W99371  34.489  26.063  12.988
34552W        W99372  41.881  33.340  11.886
34553W        W99373   5.111   9.492  11.053
34554W        W99374  38.164  34.362   2.764
34555W        W99375  22.064  19.156   3.231
34556W        W99376   7.077  27.678  14.867
34557W        W99377  15.197   1.512   3.250
34558W        W99378  23.689  37.545   0.836
34559W        W99379  12.413  31.955   0.837
34560W        W99380  19.592  20.078   1.789
34561W        W99381  21.905  21.308  13.423
34562W        W99382   0.843  28.360  14.850
34563W        W99383  22.172  17.838   1.760
34564W        W99384  41.283  15.682  13.832
34565W        W99385  11.246  37.764   4.200
34566W        W99386   1.281  36.753  11.547
34567W        W99387  13.120  28.326   9.768
34568W        W99388  18.496  38.794  11.592
34569W        W99389   9.892   4.389  14.383
34570W        W99390  18.472  12.304   1.955
34571W        W99391   1.771  32.068  13.669
34572W        W99392  43.600  44.051   4.572
34573W        W99393   8.236  43.368  10.765
34574W        W99394  20.529  12.617   1.277
34575W        W99395  25.462  36.416  12.379
34576W        W99396  21.215   3.450   4.218
34577W        W99397  44.410  15.517  12.130
34578W        W99398  32.277   8.587  12.569
34579W        W99399  16.603   1.349  11.122
34580W        W99400  15.998  14.562  10.421
34581W        W99401  18.341  44.755  14.821
34582W        W99402  42.455  19.002  14.400
34583W        W99403   7.665  15.908  10.740
34584W        W99404   6.042  10.259  10.348
34585W        W99405   7.786   9.457   3.482
34586W        W99406  42.388  31.519  12.657
34587W        W99407  21.495  11.247   1.913
34588W        W99408   5.044  20.414   2.297
34589W        W99409   1.279   9.326  13.059
34590W        W99410  39.803   8.653  13.963
34591W        W99411  24.528  34.579  11.673
34592W        W99412  43.325  17.342  10.457
34593W        W99413  13.107  41.027   0.203
34594W        W99414  34.931  23.190   4.470
34595W        W99415  16.802  42.042   1.915
34596W        W99416  27.407   5.876   4.168
34597W        W99417  37.627  38.416  12.167
34598W        W99418  37.364  18.198   3.052
34599W        W99419  33.647  34.037  13.317
34600W        W99420   5.958  23.402   2.294
34601W        W99421  42.605  36.103  11.725
34602W        W99422   2.249   3.403  10.564
34603W        W99423  16.544  33.103   1.418
34604W        W99424  26.587   6.019   0.006
34605W        W99425  14.246  37.952  14.466
34606W        W99426  27.489  43.556   1.917
34607W        W99427  14.326  21.272  11.564
34608W        W99428   9.339  16.120  14.461
34609W        W99429  35.943  29.506   3.203
34610W        W99430  10.391  44.830   2.731
34611W        W99431  26.661   7.418  13.353
34612W        W99432  25.610  34.982  14.730
34613W        W99433  13.826   2.118   4.275
34614W        W99434  13.108  34.368  13.401
34615W        W99435  39.805  36.464  11.507
34616W        W99436  25.438  26.471   3.971
34617W        W99437  27.497   9.670   4.991
34618W        W99438  33.079   2.789  11.980
34619W        W99439  26.057   7.873  12.962
34620W        W99440  28.166  22.196   3.996
34621W        W99441  26.056   2.957   0.324
34622W        W99442   3.022  30.207   2.794
34623W        W99443  20.103   1.837   2.081
34624W        W99444  40.398   7.213   4.787
34625W        W99445  11.841  31.965   3.268
34626W        W99446  33.367  35.826   0.462
34627W        W99447  18.363  15.485   3.792
34628W        W99448   1.489  37.041   3.173
34629W        W99449  35.378   4.872   3.922
34630W        W99450  38.663   9.172  11.153
34631W        W99451  36.030  37.357   1.787
34632W        W99452   3.456   9.614   3.240
34633W        W99453  39.872  31.499  14.549
34634W        W99454  11.278  30.485   0.364
34635W        W99455  18.294   8.067  11.870
34636W        W99456  42.804   9.233   0.174
34637W        W99457   1.956  39.957  14.038
34638W        W99458  11.330  33.967  12.966
34639W        W99459  41.082   1.703  14.020
34640W        W99460  14.503  27.681   0.640
34641W        W99461  38.946  38.984   4.094
34642W        W99462  35.687  21.607  12.055
34643W        W99463  14.009  11.612   0.669
34644W        W99464   8.938   5.029  11.102
34645W        W99465  42.934  15.071   4.853
34646W        W99466  19.317  16.942  10.871
34647W        W99467  27.566  15.573  12.410
34648W        W99468  24.507  39.759  11.934
34649W        W99469  40.500  10.116   3.589
34650W        W99470  17.763  32.129   2.744
34651W        W99471   1.032   9.212  14.410
34652W        W99472  22.212  29.359   2.317
34653W        W99473  42.662  26.525  12.898
34654W        W99474  33.000   8.800  14.890
34655W        W99475  13.763  12.582   0.787
34656W        W99476  43.437   2.303   3.725
34657W        W99477  20.029  43.455  13.274
34658W        W99478   2.446   0.538   0.249
34659W        W99479  11.260   7.258  14.989
34660W        W99480  20.502  40.432  13.169
34661W        W99481  24.170   0.740  11.151
34662W        W99482  25.937  11.327   2.688
34663W        W99483  21.224  33.523   1.465
34664W        W99484   8.819   4.452  14.485
34665W        W99485   6.755   9.148   2.234
34666W        W99486  29.953   2.195  12.493
34667W        W99487   6.848  19.566  11.616
34668W        W99488   0.411   3.140   1.642
34669W        W99489  28.409  20.049   0.991
34670W        W99490  22.139  44.270   3.705
34671W        W99491   1.745  33.671   3.061
34672W        W99492  18.498  39.808  10.024
34673W        W99493  33.410  20.215  12.418
34674W        W99494  28.661  41.660  14.049
34675W        W99495  44.675  43.056  13.869
34676W        W99496  23.998  28.698  14.857
34677W        W99497  15.620  36.282   3.216
34678W        W99498  22.726  23.543   1.915
34679W        W99499  24.018  42.743  10.319
34680W        W99500  14.692  19.093  10.677
34681W        W99501   6.291  38.849  12.554
34682W        W99502  38.771  32.917  11.664
34683W        W99503  31.174   4.238   3.292
34684W        W99504  24.040   8.665  10.650
34685W        W99505  43.588  13.194  14.413
34686W        W99506  41.544  38.082  11.559
34687W        W99507  19.159   9.193   1.774
34688W        W99508  40.432  39.982  14.460
34689W        W99509  43.206  16.935   3.815
34690W        W99510  43.337  11.603   2.187
34691W        W99511   6.149  26.601   0.363
34692W        W99512  44.502  34.057  13.612
34693W        W99513  37.345   5.105   1.842
34694W        W99514  29.467  26.962   4.130
34695W        W99515  28.631   7.277   4.697
34696W        W99516   5.291  41.305   3.114
34697W        W99517  42.030  39.966  11.629
34698W        W99518   9.170   1.198   2.870
34699W        W99519  31.004  11.826   1.233
34700W        W99520  24.139  15.924  13.882
34701W        W99521  28.604  35.394  12.403
34702W        W99522  10.108  12.662   2.723
34703W        W99523  11.174  42.310   3.881
34704W        W99524  34.485  44.431  12.732
34705W        W99525  25.817  22.487   3.316
34706W        W99526  39.729  28.640  12.514
34707W        W99527   4.166  15.268  14.971
34708W        W99528   7.027  23.026   2.933
34709W        W99529  36.835  17.258  14.439
34710W        W99530  39.967  30.099   0.399
34711W        W99531  28.623  43.545   1.914
34712W        W99532   5.850  19.071  12.528
34713W        W99533  18.157  31.021   2.133
34714W        W99534  31.900  31.563  10.477
34715W        W99535   9.824  19.958  11.678
34716W        W99536  29.599  43.253  14.312
34717W        W99537  43.290  28.652   4.930
34718W        W99538   8.847  33.394   3.133
34719W        W99539  19.580  41.921   3.208
34720W        W99540  10.687  28.347  10.616
34721W        W99541   9.312  15.609  10.265
34722W        W99542  39.380  26.254   0.569
34723W        W99543  17.811  21.147   3.157
34724W        W99544  27.223  40.824   4.538
34725W        W99545  37.822  42.393   1.835
34726W        W99546   5.852  23.586   4.491
34727W        W99547  20.838  18.830  11.247
34728W        W99548   3.354  22.600  13.593
34729W        W99549  28.273  41.816   4.551
34730W        W99550   0.038  28.253   2.413
34731W        W99551  37.625  16.180  11.422
34732W        W99552   8.934  11.139   4.112
34733W        W99553   7.745  17.119  13.030
34734W        W99554   4.383  11.897  13.961
34735W        W99555  44.674  21.560   4.773
34736W        W99556  27.074  30.652   3.990
34737W        W99557  38.375  32.931   4.343
34738W        W99558  36.369  41.750  11.997
34739W        W99559   5.801  17.057   4.659
34740W        W99560  38.083  33.323   0.682
34741W        W99561   1.276  38.478   1.368
34742W        W99562  13.283  31.444  11.743
34743W        W99563  32.297  10.458  11.903
34744W        W99564  23.026   6.653   2.236
34745W        W99565   7.547  19.813  12.833
34746W        W99566  10.410  28.950   2.354
34747W        W99567  19.495   6.882  14.445
34748W        W99568  17.745  26.452  14.306
34749W        W99569  36.017  38.483   2.646
34750W        W99570  29.612  44.542  11.686
34751W        W99571  43.354   5.756   3.803
34752W        W99572  10.852  33.580   4.069
34753W        W99573   9.063  15.944   2.367
34754W        W99574   5.650  38.886  11.903
34755W        W99575   4.942   9.278  11.525
34756W        W99576  20.527  20.080  13.972
34757W        W99577   7.423  12.403  12.846
34758W        W99578  25.522  36.379   2.823
34759W        W99579  36.052  43.019   1.929
34760W        W99580  10.647  16.108  11.984
34761W        W99581  29.986  23.703  10.751
34762W        W99582  31.975  41.309   4.702
34763W        W99583  20.680   2.149  11.675
34764W        W99584  44.596   0.340   2.593
34765W        W99585  21.192  41.351   1.438
34766W        W99586  11.679   8.137   4.079
34767W        W99587  13.731  36.450   5.053
34768W        W99588  12.799  44.778   4.033
34769W        W99589  41.725  34.208  10.606
34770W        W99590   5.818  15.864  10.943
34771W        W99591   4.111   6.325   2.586
34772W        W99592  32.132  38.443   4.354
34773W        W99593  38.446  11.678   5.440
34774W        W99594   8.736   8.323  14.548
34775W        W99595   2.293   1.324  11.746
34776W        W99596  20.195  10.451   4.387
34777W        W99597  19.704  35.722   5.103
34778W        W99598  18.991   8.277   4.269
34779W        W99599  44.375   1.526  14.154
34780W        W99600  33.089   8.376   0.746
34781W        W99601  32.062  31.885   3.376
34782W        W99602  21.704   4.302  11.341
34783W        W99603  13.846  36.409   2.646
34784W        W99604  17.502  15.247  12.432
34785W        W99605  29.938   3.672  14.362
34786W        W99606  17.366  21.573  14.451
34787W        W99607  32.611   5.514   0.757
34788W        W99608   3.487   5.416   3.356
34789W        W99609  17.254   2.635   4.508
34790W        W99610  24.724  12.373   3.146
34791W        W99611  24.108  24.743  13.305
34792W        W99612  23.021  34.096   1.339
34793W        W99613   4.328  35.657  12.989
34794W        W99614  43.345  31.241  14.012
34795W        W99615   3.301  13.883   0.220
34796W        W99616  28.556  43.551  11.985
34797W        W99617  22.514  33.996   1.932
34798W        W99618  12.591   5.124  10.325
34799W        W99619  37.498  26.929  14.795
34800W        W99620  21.197  35.503  12.889
34801W        W99621  26.641   8.349   2.483
34802W        W99622  17.801  30.894   0.778
34803W        W99623  24.155  27.879  12.802
34804W        W99624  23.399  34.143  10.319
34805W        W99625  29.805  36.575  11.195
34806W        W99626  16.492   9.451   1.850
34807W        W99627  32.239  38.139   1.709
34808W        W99628  10.691  18.623   3.407
34809W        W99629   7.850  18.731   4.485
34810W        W99630  17.102  31.249  10.173
34811W        W99631  24.425  25.466   1.763
34812W        W99632  11.674   2.788  13.530
34813W        W99633  20.514  10.875   1.900
34814W        W99634   0.954  19.292   0.732
34815W        W99635  26.805  14.819   1.855
34816W        W99636  29.617  38.403  13.918
34817W        W99637   0.819  10.875   3.613
34818W        W99638  17.082  26.613   2.301
34819W        W99639  25.660  17.096   1.274
34820W        W99640  10.101  36.130  14.868
34821W        W99641  16.478  15.051   4.083
34822W        W99642  14.123  35.112   4.627
34823W        W99643  30.473  14.569   1.315
34824W        W99644   3.787  26.205  12.521
34825W        W99645  38.171  11.663  11.018
34826W        W99646  10.213   7.708  10.638
34827W        W99647  17.004  13.690  12.457
34828W        W99648   4.723   0.006   3.634
34829W        W99649  41.406  19.260   0.401
34830W        W99650  13.831  10.266   1.371
34831W        W99651  24.941   8.213  10.431
34832W        W99652  17.809   0.330  12.475
34833W        W99653   3.051  20.641  12.019
34834W        W99654  18.474  23.042  10.370
34835W        W99655   1.479  23.142   2.588
34836W        W99656  36.661  17.355   2.374
34837W        W99657  15.832  29.600  13.954
34838W        W99658   4.163  22.248   0.934
34839W        W99659  43.070  14.440   5.009
34840W        W99660   0.829  29.716  10.699
34841W        W99661  25.676  17.278   9.847
34842W        W99662  30.433  44.035  14.887
34843W        W99663  21.662  43.420   4.070
34844W        W99664  34.966   5.678  11.580
34845W        W99665  24.741  36.909  14.804
34846W        W99666  42.155  13.134  13.163
34847W        W99667  39.601  15.197   0.356
34848W        W99668  38.516  21.244   4.549
34849W        W99669  23.117  15.577  11.607
34850W        W99670  42.963   4.334  13.798
34851W        W99671  22.822  26.800   3.736
34852W        W99672  28.402  40.248   0.819
34853W        W99673  10.836  29.263   0.261
34854W        W99674  34.147  20.247   4.107
34855W        W99675  17.257  40.326  10.526
34856W        W99676  21.447  17.155  11.101
34857W        W99677  19.554  40.415   2.498
34858W        W99678  25.588  36.884   2.758
34859W        W99679  43.900   8.802  12.107
34860W        W99680  14.137  10.861  10.575
34861W        W99681  38.832  14.295   0.972
34862W        W99682  16.523  21.151  11.144
34863W        W99683   9.042  43.877   3.704
34864W        W99684  39.065  22.675  14.803
34865W        W99685  41.960   8.925  10.534
34866W        W99686  40.853  38.822  14.237
34867W        W99687   5.623  42.815  11.244
34868W        W99688  11.544  37.797   0.358
34869W        W99689   7.239  30.425  11.130
34870W        W99690  27.877  12.078  12.440
34871W        W99691  23.039  12.864   3.183
34872W        W99692   5.300   9.755  11.441
34873W        W99693  27.981  10.388  14.534
34874W        W99694  21.905   4.341  11.795
34875W        W99695  31.104   9.995   4.947
34876W        W99696  18.590  14.819  14.919
34877W        W99697  33.994  17.335   1.350
34878W        W99698  44.348  25.390   1.271
34879W        W99699  11.749  26.753  13.419
34880W        W99700  41.667   0.831  12.607
34881W        W99701  12.105   7.918   4.314
34882W        W99702  36.203   1.761   4.237
34883W        W99703  15.509  39.557   0.024
34884W        W99704  16.051  31.070  10.673
34885W        W99705  11.301  35.917  11.276
34886W        W99706  10.652  39.483   2.683
34887W        W99707  39.314  38.296   3.322
34888W        W99708   2.943  19.325  14.370
34889W        W99709  23.014  18.562  11.241
34890W        W99710  35.021  44.957  12.525
34891W        W99711  33.073  44.061  10.952
34892W        W99712  37.737   2.367   3.708
34893W        W99713   7.750  28.450   5.402
34894W        W99714  32.973  20.683   2.484
34895W        W99715  41.339   9.205  13.200
34896W        W99716  10.389   5.843   0.828
34897W        W99717   0.076  14.789  13.910
34898W        W99718  24.090  39.763   4.552
34899W        W99719   2.448  38.278  12.417
34900W        W99720   0.015  33.403  14.047
34901W        W99721  21.390  37.101   0.983
34902W        W99722  31.118  25.022   0.191
34903W        W99723  30.612  10.901   2.183
34904W        W99724  12.170  31.119  12.319
34905W        W99725   4.187  20.512  11.967
34906W        W99726  27.149  22.271  14.567
34907W        W99727   5.329  33.856  11.631
34908W        W99728   6.922  13.227   3.125
34909W        W99729  43.101  18.099  14.010
34910W        W99730  16.053  22.693   0.795
34911W        W99731  31.642  39.063   3.139
34912W        W99732  38.678  42.815  14.853
34913W        W99733  41.157  44.510   0.066
34914W        W99734  12.180   3.410  13.328
34915W        W99735  31.474   6.197   0.156
34916W        W99736   9.192  28.014  14.585
34917W        W99737  18.541   1.067  12.966
34918W        W99738  14.616   5.521  11.333
34919W        W99739  21.403  39.312   2.239
34920W        W99740  10.940  21.743   3.171
34921W        W99741   8.601  33.001   1.802
34922W        W99742  26.994  21.822  11.932
34923W        W99743  28.636  10.224   1.587
34924W        W99744  32.650  23.113   5.027
34925W        W99745  10.137  15.607  13.458
34926W        W99746   4.195  16.597   3.680
34927W        W99747  35.414   6.059  13.461
34928W        W99748  41.999  25.724  12.437
34929W        W99749   1.509   4.901   2.329
34930W        W99750  32.040  17.600   1.928
34931W        W99751  15.894   1.267   3.742
34932W        W99752   8.298  40.954   3.778
34933W        W99753  21.988   6.365  14.941
34934W        W99754   9.869  34.329   1.828
34935W        W99755  22.683  23.574  14.806
34936W        W99756   0.384  29.675  13.882
34937W        W99757  42.204  18.547  11.361
34938W        W99758  23.067  15.584   3.562
34939W        W99759  23.694   5.035  12.539
34940W        W99760  15.371  22.305   0.846
34941W        W99761  28.551  32.573  11.087
34942W        W99762  23.180  16.889   1.883
34943W        W99763   6.861  25.137   2.563
34944W        W99764   1.940  17.142  11.121
34945W        W99765   5.942   4.097  14.264
34946W        W99766  25.471  13.777   1.476
34947W        W99767  15.033  40.896  14.837
34948W        W99768  26.865   5.359  11.102
34949W        W99769  23.570   9.688  10.627
34950W        W99770  33.935  13.261   4.720
34951W        W99771   2.065   9.671  14.186
34952W        W99772  33.035  37.484  10.412
34953W        W99773  41.084  42.525  13.140
34954W        W99774   2.931   7.713   3.717
34955W        W99775  19.355  25.541   2.284
34956W        W99776  11.445  10.837   1.804
34957W        W99777   1.026  40.437  13.113
34958W        W99778  40.574  23.555   4.031
34959W        W99779   8.326  19.342  12.522
34960W        W99780  30.535  15.574  10.954
34961W        W99781  10.899   6.831   0.069
34962W        W99782  38.315   1.251   1.704
34963W        W99783  18.011  16.166   0.128
34964W        W99784  18.030  25.539  11.107
34965W        W99785  14.326  22.209   3.694
34966W        W99786  27.897  42.294   0.918
34967W        W99787  37.919  19.840  14.495
34968W        W99788  38.519  39.709  11.895
34969W        W99789   7.223   7.675   2.703
34970W        W99790  41.998  38.156  10.432
34971W        W99791  33.060  27.599  10.678
34972W        W99792  20.644   1.225   2.748
34973W        W99793  31.087  21.470   3.770
34974W        W99794  15.383  14.555  12.072
34975W        W99795  21.477  20.699  13.371
34976W        W99796  13.218  33.950   3.361
34977W        W99797  24.730  16.489   2.680
34978W        W99798  23.161  41.935   3.404
34979W        W99799  34.908  12.187   1.566
34980W        W99800   4.971  41.793  14.770
34981W        W99801  18.243  29.276   2.320
34982W        W99802  22.615  23.988  13.550
34983W        W99803   8.365   0.360   4.110
34984W        W99804  12.712   8.411   3.242
34985W        W99805  27.076  19.831  13.347
34986W        W99806  28.539   2.143   0.887
34987W        W99807  42.064  36.040   4.199
34988W        W99808  22.289  15.088   1.337
34989W        W99809  24.904  10.076   2.085
34990W        W99810   9.118  13.949   4.224
34991W        W99811  22.402  44.590  10.279
34992W        W99812  28.328  30.892   1.073
34993W        W99813   5.165  29.756  14.362
34994W        W99814   2.688  41.402   2.339
34995W        W99815  38.749  40.044   4.828
34996W        W99816  31.706  44.772  12.102
34997W        W99817  38.260  16.180  11.876
34998W        W99818  43.318  11.946  13.117
34999W        W99819  25.698  23.209  10.925
35000W        W99820  38.528  18.281  11.508
35001W        W99821  38.231  41.971  10.717
35002W        W99822   0.289  24.043   2.423
35003W        W99823  30.588  43.397  10.664
35004W        W99824   9.709  11.620   0.889
35005W        W99825  15.805  35.383  14.706
35006W        W99826  41.843  17.243  10.762
35007W        W99827   6.294  32.572  10.829
35008W        W99828  21.994  28.009   2.862
35009W        W99829  28.693  37.597   0.421
35010W        W99830  35.796   0.287   3.641
35011W        W99831  14.779  40.217  13.072
35012W        W99832  41.175  34.489   3.753
35013W        W99833  12.164  21.709   3.673
35014W        W99834  28.754  29.142  11.522
35015W        W99835  35.804   2.272   0.085
35016W        W99836  16.261   8.842  10.061
35017W        W99837  43.840  33.924   4.850
35018W        W99838  30.100   1.029  12.318
35019W        W99839  39.570  11.651   1.448
35020W        W99840  17.476   7.209   0.378
35021W        W99841  17.243   4.721  11.314
35022W        W99842  14.596  36.221   5.067
35023W        W99843  34.287  41.057  12.651
35024W        W99844  39.852  26.516  10.652
35025W        W99845  24.557  27.874  12.023
35026W        W99846  42.698  43.507  11.814
35027W        W99847  25.224  16.632  13.641
35028W        W99848  34.068   5.942   0.482
35029W        W99849  33.021  20.670   1.398
35030W        W99850  20.225  20.524   0.833
35031W        W99851   8.292   3.346  13.866
35032W        W99852   0.251   7.361   3.201
35033W        W99853  23.987  41.360  14.380
35034W        W99854  24.536  11.995  11.721
35035W        W99855  38.881  16.621  10.875
35036W        W99856   1.433   8.869   2.605
35037W        W99857  42.644   7.590   3.595
35038W        W99858  16.654  29.176  13.510
35039W        W99859  13.724   9.285   3.311
35040W        W99860  34.063   0.469  13.989
35041W        W99861  29.025  12.700  13.039
35042W        W99862   5.893  37.945  11.433
35043W        W99863  37.862  24.546   2.111
35044W        W99864   8.161   4.852  14.980
35045W        W99865  38.173  42.787  14.876
35046W        W99866   5.941  19.212  14.325
35047W        W99867  20.194  10.341  12.108
35048W        W99868   1.915  27.702   1.759
35049W        W99869   5.162  38.291   2.744
35050W        W99870   1.920  31.859  10.188
35051W        W99871  14.245  28.767  13.849
35052W        W99872  22.293  43.253  11.946
35053W        W99873  42.396   9.929   3.071
35054W        W99874  44.980  31.413  14.944
35055W        W99875  16.122  26.478   2.391
35056W        W99876  35.371   3.231   1.461
35057W        W99877   6.138  31.488  14.022
35058W        W99878   7.892   8.199  14.011
35059W        W99879  30.738  27.598  12.582
35060W        W99880  26.508  43.143  13.534
35061W        W99881  18.618  39.306   2.041
35062W        W99882  39.896  25.835   4.126
35063W        W99883  41.501  37.499  10.757
35064W        W99884  12.603  28.907   2.847
35065W        W99885  14.647   1.502   2.676
35066W        W99886  21.734  29.089  14.304
35067W        W99887   9.186  41.823  11.950
35068W        W99888  17.538  29.066   1.349
35069W        W99889   5.277   0.925  14.282
35070W        W99890  30.557  20.801   0.979
35071W        W99891  23.559  34.500   2.613
35072W        W99892   1.492  11.656  11.318
35073W        W99893  28.075   0.954  13.918
35074W        W99894  32.686   7.606   0.732
35075W        W99895  11.491  42.923   4.201
35076W        W99896  25.298  24.951  12.973
35077W        W99897  14.836  22.642   3.232
35078W        W99898  37.408  20.026  10.574
35079W        W99899  31.680  31.969   1.721
35080W        W99900  27.934  42.757  13.544
35081W        W99901   0.305  41.996   4.108
35082W        W99902   1.979  31.576  12.934
35083W        W99903  19.785  34.364   1.023
35084W        W99904  25.489  14.683   3.792
35085W        W99905  13.991  44.434   0.282
35086W        W99906  13.472  14.714   3.559
35087W        W99907  14.786   5.711  14.701
35088W        W99908  25.699  28.970   1.563
35089W        W99909  17.350   6.976  12.993
35090W        W99910   1.160  30.039  14.294
35091W        W99911  22.297  17.220  13.941
35092W        W99912  31.411  37.655  10.971
35093W        W99913   5.372  30.872   2.943
35094W        W99914  44.048  15.109  14.400
35095W        W99915  15.547  22.990  13.562
35096W        W99916  25.594  44.173   2.442
35097W        W99917   0.478  33.650  13.893
35098W        W99918  19.843   5.162   2.733
35099W        W99919  22.129  30.914   0.010
35100W        W99920  29.936  22.830   0.408
35101W        W99921  24.687  35.490  12.996
35102W        W99922  17.354  21.008  12.815
35103W        W99923  17.075  23.097  14.379
35104W        W99924  10.829  36.111  12.034
35105W        W99925  44.863  32.329  13.381
35106W        W99926  30.705  44.896  11.513
35107W        W99927  34.875  42.345   2.261
35108W        W99928  41.459  25.479   3.678
35109W        W99929  12.591   8.888   1.649
35110W        W99930  37.520  23.683   0.005
35111W        W99931   4.475  37.333  12.022
35112W        W99932  17.036  31.449   4.244
35113W        W99933  24.548  29.902   4.105
35114W        W99934  15.247  39.641   2.266
35115W        W99935  44.699  38.959  14.594
35116W        W99936  35.391  33.868  12.861
35117W        W99937  26.714  25.836  11.185
35118W        W99938  28.133  16.799   3.212
35119W        W99939  38.178  17.842  12.603
35120W        W99940   9.606  36.577   3.581
35121W        W99941  42.270  17.307   4.618
35122W        W99942  40.046  25.144   3.940
35123W        W99943  26.481  10.395   2.696
35124W        W99944  14.152  20.793   4.845
35125W        W99945  25.212  27.558  11.645
35126W        W99946  19.160  13.854  12.318
35127W        W99947   5.439   2.462   0.988
35128W        W99948  27.103   0.431  11.341
35129W        W99949   6.690  34.067   4.358
35130W        W99950  35.631  21.523  11.120
35131W        W99951   0.220  26.525   2.821
35132W        W99952  30.884  37.284   0.733
35133W        W99953  20.242   3.221   2.082
35134W        W99954  23.611  30.215   3.239
35135W        W99955   9.391  34.116   1.811
35136W        W99956   7.990  10.914   1.751
35137W        W99957   1.060  29.600   2.335
35138W        W99958  14.166  26.777  14.505
35139W        W99959  11.343  29.861   2.600
35140W        W99960  17.247  14.329   5.008
35141W        W99961  43.901   8.608  13.558
35142W        W99962  43.488  44.848  11.891
35143W        W99963  36.322  32.950   4.567
35144W        W99964  10.263   2.429  14.275
35145W        W99965  39.780  31.014   0.290
35146W        W99966  23.147  43.816  12.770
35147W        W99967   0.898  20.138   2.339
35148W        W99968   2.266  23.041  11.158
35149W        W99969  26.526  30.141  10.557
35150W        W99970  44.557   2.244   0.689
35151W        W99971  21.366  14.822   1.236
35152W        W99972  27.532  20.121  11.993
35153W        W99973  38.323  30.138   1.381
35154W        W99974  39.449  34.340  10.986
35155W        W99975   6.630  25.522   0.476
35156W        W99976  33.496  40.984   2.946
35157W        W99977  42.464   7.016   2.094
35158W        W99978  11.604   8.543  10.410
35159W        W99979  13.987  42.866   1.378
35160W        W99980   3.677   2.564   0.791
35161W        W99981  21.532   1.884   1.177
35162W        W99982  16.890  43.324   3.608
35163W        W99983   2.876  41.317   4.913
35164W        W99984  24.509  27.734  11.513
35165W        W99985   1.963  23.972   0.491
35166W        W99986  30.801  10.155   1.589
35167W        W99987  38.773   9.291   3.131
35168W        W99988  37.013   9.640   1.181
35169W        W99989  17.429  22.984   4.767
35170W        W99990  38.531   1.698   3.772
35171W        W99991  14.289  14.616   4.305
35172W        W99992   2.451  35.761  14.916
35173W        W99993  10.897  25.367  12.917
35174W        W99994  35.199  33.261  11.876
35175W        W99995  19.980  38.456  12.532
35176W        W99996   8.274  20.794  11.184
35177W        W99997   0.984  34.677  13.070
35178W        W99998   3.557  39.969  11.611
35179W        W99999  24.532  20.448   2.654
35180W        W    0   5.447   4.344  11.858
35181W        W    1  31.911  28.561   1.519
35182W        W    2  11.723  32.191   2.800
35183W        W    3  19.190   2.833  13.817
35184W        W    4  31.178  23.573   2.127
35185W        W    5  40.504   4.467   3.226
35186W        W    6  16.053  15.160   0.323
35187W        W    7  21.528  36.455   1.801
35188W        W    8  36.228  41.216  12.051
35189W        W    9   7.424   4.484   1.513
35190W        W   10  42.872  35.812   4.368
35191W        W   11  44.463  25.947  11.031
35192W        W   12  25.525  33.419  12.961
35193W        W   13  26.527  19.763   1.787
35194W        W   14  31.910   5.880  10.740
35195W        W   15  12.668  12.912   3.828
35196W        W   16  21.548  34.596   0.602
35197W        W   17   0.230  39.414  14.910
35198W        W   18  28.000  18.633  12.904
35199W        W   19  28.677  33.660   2.584
35200W        W   20  32.551  15.561   0.360
35201W        W   21  29.952  37.788  12.563
35202W        W   22   3.287   7.380   1.753
35203W        W   23  12.593  33.639  10.487
35204W        W   24  14.216  19.528  11.246
35205W        W   25  19.989  30.582  11.636
35206W        W   26  10.182  42.054   3.290
35207W        W   27   0.895  23.168  13.964
35208W        W   28  29.485   6.508   1.741
35209W        W   29  34.505   3.242   3.700
35210W        W   30  30.605  41.864  13.839
35211W        W   31  16.763  30.237  14.950
35212W        W   32  33.793  11.892  14.613
35213W        W   33  43.647  15.567   4.645
35214W        W   34  10.833  34.897   3.683
35215W        W   35  37.154  38.761  10.984
35216W        W   36  31.326  34.011  11.509
35217W        W   37   4.530   6.324  12.947
35218W        W   38  34.350  10.447  12.265
35219W        W   39  41.835  24.927   1.538
35220W        W   40  40.085  39.812  11.782
35221W        W   41  34.694  21.531   3.243
35222W        W   42   2.485  17.367  10.407
35223W        W   43   6.007   9.610  13.551
35224W        W   44  25.309  18.567   1.348
35225W        W   45  41.335   4.626   0.006
35226W        W   46  11.187  23.087   2.816
35227W        W   47   6.110  31.998  13.778
35228W        W   48  22.715   0.267  12.083
35229W        W   49  37.784  44.734  14.047
35230W        W   50  21.087   9.632  13.118
35231W        W   51  15.852  14.613   3.141
35232W        W   52  20.980  26.219  11.104
35233W        W   53  39.565   9.439  13.018
35234W        W   54  27.641  41.039   0.734
35235W        W   55  25.831  22.264   2.864
35236W        W   56   6.310  42.526   2.498
35237W        W   57  41.974   7.105  13.400
35238W        W   58   6.959   3.831   4.523
35239W        W   59  27.773  30.109  12.538
35240W        W   60   2.890   4.942  11.179
35241W        W   61  16.463  37.803  10.835
35242W        W   62   1.870  28.477  14.725
35243W        W   63  15.766  42.062  12.570
35244W        W   64  44.062  40.535  13.960
35245W        W   65  33.169   6.323   1.714
35246W        W   66   2.966   8.834   0.789
35247W        W   67   3.391  34.077  13.524
35248W        W   68  32.885  19.783  13.047
35249W        W   69  22.986  37.619   5.037
35250W        W   70  19.704  35.867  12.910
35251W        W   71  14.740   5.356   0.484
35252W        W   72   5.241   4.360  10.907
35253W        W   73   7.362  34.881   3.681
35254W        W   74  33.472  28.670  13.813
35255W        W   75  24.671  18.841  13.314
35256W        W   76  36.078   7.319   0.824
35257W        W   77   1.514   0.823  12.116
35258W        W   78  31.099   1.255  13.490
35259W        W   79   2.458  44.189   2.680
35260W        W   80  43.278  14.864  10.360
35261W        W   81  18.341  31.411   1.415
35262W        W   82  16.559  14.239   0.270
35263W        W   83  22.425  43.199  12.998
35264W        W   84   2.288  22.286   0.911
35265W        W   85  12.944  43.446   4.568
35266W        W   86  44.929  26.225   4.580
35267W        W   87  37.721  11.338   0.719
35268W        W   88  23.445   2.335   4.177
35269W        W   89  12.077  41.874   0.052
35270W        W   90  29.665  22.013  10.727
35271W        W   91  34.310  20.158  12.480
35272W        W   92  17.931  12.417   1.864
35273W        W   93  43.399  15.519  11.781
35274W        W   94   2.786  29.553  12.309
35275W        W   95  20.479   6.753   1.310
35276W        W   96   7.257  15.530   0.850
35277W        W   97  21.171  18.819  14.207
35278W        W   98  27.867   0.038  12.206
35279W        W   99   6.907  41.366  14.852
35280W        W  100  35.421   7.292   2.649
35281W        W  101  43.467   7.853   1.822
35282W        W  102  42.728   2.976  14.468
35283W        W  103   4.078  10.535   1.721
35284W        W  104  22.710   6.615  11.741
35285W        W  105  17.874  20.300  11.578
35286W        W  106   5.245  10.160  11.151
35287W        W  107   8.898  33.561   2.629
35288W        W  108  42.283   3.157   0.932
35289W        W  109  36.900  24.988  14.332
35290W        W  110  26.250  44.752  10.411
35291W        W  111  15.716  31.411  14.101
35292W        W  112  23.152  35.131   1.454
35293W        W  113  28.006  20.774  12.078
35294W        W  114  44.857  43.539  12.948
35295W        W  115   2.543  10.327   0.234
35296W        W  116   1.310  38.025   2.408
35297W        W  117  27.948  19.595   4.580
35298W        W  118  24.813  13.461   2.710
35299W        W  119  17.628   4.347  11.414
35300W        W  120  27.007   3.199   0.743
35301W        W  121  35.861   7.870  11.691
35302W        W  122  17.783   7.644   1.440
35303W        W  123  22.621  23.859   1.261
35304W        W  124  19.526  33.471  10.754
35305W        W  125  19.728  44.436  12.351
35306W        W  126  26.709  22.112   3.041
35307W        W  127  37.364  12.280  10.860
35308W        W  128  36.542  17.273  11.629
35309W        W  129  35.589  12.910  13.644
35310W        W  130  40.321  40.666   4.175
35311W        W  131  13.305  26.196  12.544
35312W        W  132  18.416   1.513  14.443
35313W        W  133  39.831  12.600   1.733
35314W        W  134  11.728  27.087   3.665
35315W        W  135   8.650   7.670   3.645
35316W        W  136   8.357  43.034   1.352
35317W        W  137  43.883   6.047  13.434
35318W        W  138  11.217  25.517   2.658
35319W        W  139  22.143  39.324  14.003
35320W        W  140  32.148  32.305   1.776
35321W        W  141   7.543  27.446   3.789
35322W        W  142  31.147   6.152  12.517
35323W        W  143  44.941  30.473   2.872
35324W        W  144  12.288   1.964  10.729
35325W        W  145  19.842   4.867   4.071
35326W        W  146  18.027  20.215   3.648
35327W        W  147  20.641  28.037  12.499
35328W        W  148  32.430  11.908   0.106
35329W        W  149  18.158  25.590   4.216
35330W        W  150  19.233   8.382  14.492
35331W        W  151  32.743  30.390   1.571
35332W        W  152   7.428   5.169  14.846
35333W        W  153   8.370  32.915  11.408
35334W        W  154   7.729  27.054  12.914
35335W        W  155   7.219   1.787  14.809
35336W        W  156  19.744  42.567   4.641
35337W        W  157  25.415  30.562  10.349
35338W        W  158  22.635  38.887   0.918
35339W        W  159  44.031  16.364  14.888
35340W        W  160  35.523  38.904  12.505
35341W        W  161   2.261   2.951   0.183
35342W        W  162  34.137   7.287  12.876
35343W        W  163  12.187  33.307  14.526
35344W        W  164  25.461  42.952  12.085
35345W        W  165   0.015   4.025   1.488
35346W        W  166  42.436  43.802   2.942
35347W        W  167  43.508  31.542  12.429
35348W        W  168  32.521  16.556   1.303
35349W        W  169  17.765  26.919  13.454
35350W        W  170  30.922  19.802   0.317
35351W        W  171  23.690  38.415   3.586
35352W        W  172  37.804  29.663  10.489
35353W        W  173  13.286  12.148   4.565
35354W        W  174  15.192   2.835  12.286
35355W        W  175   0.910  10.652  10.746
35356W        W  176  24.229   1.993  10.193
35357W        W  177   3.609  28.475   1.932
35358W        W  178  17.914  32.057  12.032
35359W        W  179  31.069  10.535   3.786
35360W        W  180  13.297  32.131   0.893
35361W        W  181  27.147  33.012  14.083
35362W        W  182  24.716  17.409  10.232
35363W        W  183  19.114   1.796   4.572
35364W        W  184  43.900  37.042  14.207
35365W        W  185  22.400  31.650  11.410
35366W        W  186   3.723  43.963  14.288
35367W        W  187  10.340   6.161  12.731
35368W        W  188  38.608  41.751  14.275
35369W        W  189   0.596  29.571   1.447
35370W        W  190  26.915  10.062   4.234
35371W        W  191   9.644  34.037   0.356
35372W        W  192   1.823  21.668   4.621
35373W        W  193   7.937  31.929   2.473
35374W        W  194  41.873  41.531   1.339
35375W        W  195  17.619  10.469   2.310
35376W        W  196  24.512  13.608   0.951
35377W        W  197  14.858  14.367   3.125
35378W        W  198  18.444   0.837  14.938
35379W        W  199  22.013  13.694  12.069
35380W        W  200   2.378  29.370  11.656
35381W        W  201  33.784   8.570  10.503
35382W        W  202   9.743  24.683  12.355
35383W        W  203  18.527  35.169   3.665
35384W        W  204  40.824  26.821  10.785
35385W        W  205  43.582  38.043   1.666
35386W        W  206  41.377   8.189   0.761
35387W        W  207  20.303  30.543   3.592
35388W        W  208  23.469  27.739  14.354
35389W        W  209   8.592  31.977  10.552
35390W        W  210  20.736  35.893  11.217
35391W        W  211  40.705  26.576   4.726
35392W        W  212  19.750  20.661  11.081
35393W        W  213  35.629  42.878  10.761
35394W        W  214   8.992  40.058  12.040
35395W        W  215  41.372  34.158   0.659
35396W        W  216   9.035  32.415   2.271
35397W        W  217  35.807  38.466  14.255
35398W        W  218   4.494  40.305  11.559
35399W        W  219   3.594   2.673  12.007
35400W        W  220  20.790  17.275   1.137
35401W        W  221  25.954  13.074  12.108
35402W        W  222  30.624  32.313  14.275
35403W        W  223  28.733  43.083  12.132
35404W        W  224  33.568  37.306  13.529
35405W        W  225  43.509  28.647   4.426
35406W        W  226  22.775  18.583   3.300
35407W        W  227  31.455   5.981   4.630
35408W        W  228  15.058  34.693  13.501
35409W        W  229  37.537  31.892   1.447
35410W        W  230  12.402  35.486   2.589
35411W        W  231  24.029   0.892  13.960
35412W        W  232  41.838  10.458  10.721
35413W        W  233  31.121  13.215  11.021
35414W        W  234   4.251  30.488   0.459
35415W        W  235   6.322  22.070   4.949
35416W        W  236  42.534  37.870  11.554
35417W        W  237  14.666  33.695  11.894
35418W        W  238  37.592  32.080  12.949
35419W        W  239  29.651   7.383   3.383
35420W        W  240  40.663   8.585  13.401
35421W        W  241  26.192  35.056  13.481
35422W        W  242  22.244  11.991  14.913
35423W        W  243  14.953  38.472   0.395
35424W        W  244   5.607  33.073   1.781
35425W        W  245   3.300  39.175   3.653
35426W        W  246  30.421   8.148  10.697
35427W        W  247  37.180  17.256  14.001
35428W        W  248  16.158  42.712   2.317
35429W        W  249  27.936   3.813  11.669
35430W        W  250  20.239  32.876   2.372
35431W        W  251  19.206  37.088  13.080
35432W        W  252   9.440  44.264  13.420
35433W        W  253  41.253  26.710   0.561
35434W        W  254   8.877  25.915  11.122
35435W        W  255  30.396  41.391   2.954
35436W        W  256  26.834  44.246   0.909
35437W        W  257  33.392  24.819  11.985
35438W        W  258  24.723  21.154  14.823
35439W        W  259  31.999  37.914   1.283
35440W        W  260  24.877   4.414   4.467
35441W        W  261  34.394   9.447  12.143
35442W        W  262  28.160  29.182   4.907
35443W        W  263  13.949  30.757   0.802
35444W        W  264  21.234   5.744   0.799
35445W        W  265   1.469  26.098   3.198
35446W        W  266   0.673  30.664   3.330
35447W        W  267  40.533  41.388  10.438
35448W        W  268  34.219  32.878   1.835
35449W        W  269  26.153  10.603  10.571
35450W        W  270   9.628  33.512  11.460
35451W        W  271   9.860  15.002  10.324
35452W        W  272  40.991  20.510   2.257
35453W        W  273  25.616   5.120   2.922
35454W        W  274   8.829  20.182  10.777
35455W        W  275  32.234  23.052  12.537
35456W        W  276  37.304   1.963   4.155
35457W        W  277  39.397   1.497  14.342
35458W        W  278  24.938  43.540   2.830
35459W        W  279  35.332  13.187  14.455
35460W        W  280  27.463  31.650   3.777
35461W        W  281   4.232  25.962  12.460
35462W        W  282  33.935  19.676   4.671
35463W        W  283  41.603  35.551   2.864
35464W        W  284   4.556  13.949  14.755
35465W        W  285  19.050  24.765   5.212
35466W        W  286  36.837  24.647   1.426
35467W        W  287  44.662   8.174  11.939
35468W        W  288  16.327  23.603  10.516
35469W        W  289   3.193  12.286  12.441
35470W        W  290  43.864   3.605  12.040
35471W        W  291  39.184  43.100  10.087
35472W        W  292  39.286  44.118  12.615
35473W        W  293  11.207  26.885   2.966
35474W        W  294  35.070  43.422   1.387
35475W        W  295   2.210  44.900  14.465
35476W        W  296  42.572   3.984   3.271
35477W        W  297  41.898   1.500   0.330
35478W        W  298  20.029  28.462  10.932
35479W        W  299  41.726  42.030   4.145
35480W        W  300  33.262   1.780   3.561
35481W        W  301  41.592  27.376  13.732
35482W        W  302  43.051   4.400   3.971
35483W        W  303  20.638  30.017  13.417
35484W        W  304  19.014  44.285   4.847
35485W        W  305  24.594  36.360   1.321
35486W        W  306  24.075  29.213   2.668
35487W        W  307  15.330  39.914   3.963
35488W        W  308  33.405  39.898   1.484
35489W        W  309  20.575   2.746  13.391
35490W        W  310  33.887   5.710   0.064
35491W        W  311  12.198   1.392  13.068
35492W        W  312  15.651  22.266   0.290
35493W        W  313  44.029  19.240  13.691
35494W        W  314  38.727  44.035  10.367
35495W        W  315  37.027  27.147  13.937
35496W        W  316  28.142   7.720   3.345
35497W        W  317  10.216  25.355   0.857
35498W        W  318   4.930  42.154  12.824
35499W        W  319   6.359  18.530   4.558
35500W        W  320   9.629  13.684   3.727
35501W        W  321  13.843   1.095   4.195
35502W        W  322  30.369  38.935  12.157
35503W        W  323  23.981  23.219   0.879
35504W        W  324  23.216  33.914  10.755
35505W        W  325   4.953  12.702  11.220
35506W        W  326  32.226  21.941  10.291
35507W        W  327  25.607  19.714   0.684
35508W        W  328  35.008   6.998   3.927
35509W        W  329  21.430  16.687   3.266
35510W        W  330  16.034   0.311   2.482
35511W        W  331   5.668  16.134   3.620
35512W        W  332   8.435  26.623  13.868
35513W        W  333  24.422  11.076  14.358
35514W        W  334  12.223  37.047   4.834
35515W        W  335  10.835  37.044   1.567
35516W        W  336  21.619   1.287  14.723
35517W        W  337  43.282  13.019   4.114
35518W        W  338  23.980  23.170   4.556
35519W        W  339  10.726  40.379   1.184
35520W        W  340   4.763   7.684  12.370
35521W        W  341  17.761  36.605   0.999
35522W        W  342  33.827   8.679   3.366
35523W        W  343   8.896  38.425   3.340
35524W        W  344  13.393   6.426   2.141
35525W        W  345  13.763  10.740  13.085
35526W        W  346   1.850  13.573   2.296
35527W        W  347   0.273  32.112  12.377
35528W        W  348  35.625  13.131   4.394
35529W        W  349  32.384  32.521  11.378
35530W        W  350   5.783  33.569  14.010
35531W        W  351  28.618  34.668   4.876
35532W        W  352  13.689  12.033  12.568
35533W        W  353  30.691  32.669   4.051
35534W        W  354  29.014  11.713  14.753
35535W        W  355  36.405  22.766  13.045
35536W        W  356   6.745  31.511  12.049
35537W        W  357  36.437  19.050   0.168
35538W        W  358  36.973  37.103  14.481
35539W        W  359  38.362   8.236   1.193
35540W        W  360  33.467  23.917  13.024
35541W        W  361  40.858  12.110   0.614
35542W        W  362  44.179  27.008  13.342
35543W        W  363  21.697  43.380   4.584
35544W        W  364  27.698  20.013   3.398
35545W        W  365   0.912  39.373  11.083
35546W        W  366   3.988  24.567  12.023
35547W        W  367  22.606  36.326  10.428
35548W        W  368  17.334  33.637  12.842
35549W        W  369   2.186  20.097   3.683
35550W        W  370  31.630  14.151  13.937
35551W        W  371  16.619   2.161  11.998
35552W        W  372  40.732  33.073   3.269
35553W        W  373  24.470  26.421  11.121
35554W        W  374  10.389  10.876  13.264
35555W        W  375  36.738   6.338  12.617
35556W        W  376  29.657  28.516  12.451
35557W        W  377   8.882  34.829   1.844
35558W        W  378  37.780  21.983   4.187
35559W        W  379   3.230  36.766  11.704
35560W        W  380  39.703  27.282  12.366
35561W        W  381  40.409   5.298  14.548
35562W        W  382  19.801  42.790  12.765
35563W        W  383   5.912   6.036  11.656
35564W        W  384  41.326  31.643  12.539
35565W        W  385  13.705  40.286  13.924
35566W        W  386   7.842  23.650   0.222
35567W        W  387   1.564  38.278   3.805
35568W        W  388  11.733  10.730   2.332
35569W        W  389  32.907   1.979  13.081
35570W        W  390  26.643  43.023   3.241
35571W        W  391  18.656  39.740   4.097
35572W        W  392  15.674   2.269  11.138
35573W        W  393  15.496  17.081   4.079
35574W        W  394   9.654  29.886  12.785
35575W        W  395  40.778  12.387   2.786
35576W        W  396  32.966  22.589   3.566
35577W        W  397  13.659  30.890   1.219
35578W        W  398  36.358  11.502   4.856
35579W        W  399  15.645  44.659   4.575
35580W        W  400   8.939  43.896   1.490
35581W        W  401  23.842  41.621   1.358
35582W        W  402  38.849  20.126  10.738
35583W        W  403  12.863   6.036   5.038
35584W        W  404  28.026  14.578  13.440
35585W        W  405  34.519  34.140  14.381
35586W        W  406  31.924  26.680   1.333
35587W        W  407  21.161  38.515  14.832
35588W        W  408  14.525  25.024   3.033
35589W        W  409   6.637   0.912  14.810
35590W        W  410  38.224  15.420   2.632
35591W        W  411  13.803  16.870  14.734
35592W        W  412  38.081  37.668   3.173
35593W        W  413  11.076  23.974  14.796
35594W        W  414  23.092  23.199   0.234
35595W        W  415  22.475  31.250  11.055
35596W        W  416  40.101  15.059  13.425
35597W        W  417  37.379  12.260   3.602
35598W        W  418   3.398  16.045  11.837
35599W        W  419   5.621  44.797   3.103
35600W        W  420  16.215  25.217  10.663
35601W        W  421  42.811  20.771   1.293
35602W        W  422  37.995   8.225  10.570
35603W        W  423   5.725   7.870  11.576
35604W        W  424  27.649   9.241   4.603
35605W        W  425  28.690  17.230   4.133
35606W        W  426  40.774  33.016  12.591
35607W        W  427  27.171  22.004   2.722
35608W        W  428  34.415  24.659  13.777
35609W        W  429  24.035  35.319   4.616
35610W        W  430  34.377  15.166   0.787
35611W        W  431   0.024  20.777  14.334
35612W        W  432   1.958  12.132   2.924
35613W        W  433  26.291  13.327   4.260
35614W        W  434  31.019  43.204   1.648
35615W        W  435  32.386  38.140  10.872
35616W        W  436  16.911  13.823  11.840
35617W        W  437  44.941  16.659   0.020
35618W        W  438   4.783  16.089   2.703
35619W        W  439  38.960  16.529   0.943
35620W        W  440  33.208  28.930   3.218
35621W        W  441  29.730  30.993  10.650
35622W        W  442  24.353  17.558   4.904
35623W        W  443  31.176  29.382   4.139
35624W        W  444  34.123  27.079   9.982
35625W        W  445  36.021  18.799  14.846
35626W        W  446  42.274  22.371   1.398
35627W        W  447   8.716  37.838  12.589
35628W        W  448  36.359  26.536  11.763
35629W        W  449   6.354  20.252  14.870
35630W        W  450  13.368   8.429   0.385
35631W        W  451  12.241  18.991   1.787
35632W        W  452   6.263  28.661  13.620
35633W        W  453  22.990  33.535   1.350
35634W        W  454  11.284   1.713  14.792
35635W        W  455  30.729   3.239   0.998
35636W        W  456   6.541  34.930  12.569
35637W        W  457   7.403  27.593  11.729
35638W        W  458  16.055  10.362  14.414
35639W        W  459   5.509  34.838   4.300
35640W        W  460  25.402  13.918   4.541
35641W        W  461  35.595  34.579   0.073
35642W        W  462  23.920   3.799  13.604
35643W        W  463  11.747  33.045  10.596
35644W        W  464  21.275  27.702  14.917
35645W        W  465   9.899  12.780  10.898
35646W        W  466  20.177  32.168  10.965
35647W        W  467  17.561  13.676   3.691
35648W        W  468  40.290   5.956  14.770
35649W        W  469  23.032  43.981   3.735
35650W        W  470  15.244   4.420   1.626
35651W        W  471  36.408  18.992  14.224
35652W        W  472  38.579   3.191   1.092
35653W        W  473  44.698  31.346   2.861
35654W        W  474  21.103  44.484   3.765
35655W        W  475  41.525  13.398   4.291
35656W        W  476  39.276  18.522   4.052
35657W        W  477  27.092  14.328  12.805
35658W        W  478  25.893   7.325   4.725
35659W        W  479  43.230  19.611   3.655
35660W        W  480  39.359  30.187  10.705
35661W        W  481  37.488  41.035   4.667
35662W        W  482  26.913  22.796   4.133
35663W        W  483  25.521  26.611  10.617
35664W        W  484  11.677  25.344  10.732
35665W        W  485  35.839   7.115   0.410
35666W        W  486  26.204  12.563   4.544
35667W        W  487  42.429  19.293   2.870
35668W        W  488   2.979  13.278   4.073
35669W        W  489  33.557  27.697   3.713
35670W        W  490  36.018  32.129   3.686
35671W        W  491  15.665  39.601   4.547
35672W        W  492  22.071  34.310   3.647
35673W        W  493  14.095  10.616  12.389
35674W        W  494   9.174  11.756   1.871
35675W        W  495  44.981  43.939   4.632
35676W        W  496  36.056   5.713  14.716
35677W        W  497  44.227  33.569  13.413
35678W        W  498  21.601  22.854  13.957
35679W        W  499  18.273   1.460   1.840
35680W        W  500  42.224  40.544   2.263
35681W        W  501   7.953  24.623  13.713
35682W        W  502  37.843  38.736  14.744
35683W        W  503   5.855  30.649   0.801
35684W        W  504   5.708   3.881  11.922
35685W        W  505  12.339  35.979   4.782
35686W        W  506  17.191  15.645   1.585
35687W        W  507   5.253  20.036   3.099
35688W        W  508  41.702   7.415  11.005
35689W        W  509   5.710  44.315   0.262
35690W        W  510  40.745  43.441  10.636
35691W        W  511  30.510  40.906   2.659
35692W        W  512  36.237  35.047  11.694
35693W        W  513  44.430  23.210  14.853
35694W        W  514  13.226  39.562   0.625
35695W        W  515  44.921  44.383  11.846
35696W        W  516  23.489  21.202   0.411
35697W        W  517   1.664   0.546   3.263
35698W        W  518  34.633   7.485  14.475
35699W        W  519  43.883   6.742  14.795
35700W        W  520  27.818  43.279  13.579
35701W        W  521   0.823  20.597  12.515
35702W        W  522  41.809  11.049   0.574
35703W        W  523  39.457  10.371  11.621
35704W        W  524  15.209   6.167  13.102
35705W        W  525  27.529  15.713  10.292
35706W        W  526  20.151  14.801  14.812
35707W        W  527  30.990  44.942   0.959
35708W        W  528  40.872  19.487  11.176
35709W        W  529  29.100   2.260   3.118
35710W        W  530  42.751  39.121   2.778
35711W        W  531  14.805  40.507   2.299
35712W        W  532  10.451  29.720   3.656
35713W        W  533  25.652  42.279   0.169
35714W        W  534  42.027  10.311   3.100
35715W        W  535   7.328   0.408  12.619
35716W        W  536   5.941  20.671   0.882
35717W        W  537  43.397  19.782  11.373
35718W        W  538   0.999   3.182   0.871
35719W        W  539  23.477  27.611   1.725
35720W        W  540  18.728  13.141  12.343
35721W        W  541  18.107  31.879  11.512
35722W        W  542  23.747  44.815  14.482
35723W        W  543   4.856   4.782   1.256
35724W        W  544  10.741  40.487  14.353
35725W        W  545  34.400  13.250   4.981
35726W        W  546  42.074   9.170   2.631
35727W        W  547   9.864   6.923  12.746
35728W        W  548  44.458  36.719  11.627
35729W        W  549  20.267  10.295  10.752
35730W        W  550   4.435  17.837  14.583
35731W        W  551   8.283  33.372  11.674
35732W        W  552  31.183  32.649   0.877
35733W        W  553  39.918  23.052   4.300
35734W        W  554  30.022  25.708   2.829
35735W        W  555  32.399  12.775   1.170
35736W        W  556  27.175  13.415   2.377
35737W        W  557  10.224  19.998   2.333
35738W        W  558  15.753  30.004  14.285
35739W        W  559  40.277  13.259   2.933
35740W        W  560  33.435  34.104  10.430
35741W        W  561  30.666  24.457   2.288
35742W        W  562  11.324  36.401  12.491
35743W        W  563  29.620  14.869   2.178
35744W        W  564  26.524  23.636   2.373
35745W        W  565  42.152  43.627   1.428
35746W        W  566  36.130   2.392   3.730
35747W        W  567   0.584  35.457   1.400
35748W        W  568  15.656  19.131  10.741
35749W        W  569   1.004  40.666   0.043
35750W        W  570  10.698  35.353   2.298
35751W        W  571  32.128  42.498   1.229
35752W        W  572   7.300  11.851  14.959
35753W        W  573  39.285  35.630   3.109
35754W        W  574  43.469  26.517   0.036
35755W        W  575   3.461   4.386  11.195
35756W        W  576  15.215  13.711  11.694
35757W        W  577   1.432  12.376   0.388
35758W        W  578   0.874  30.357   1.822
35759W        W  579  15.135   7.156  12.655
35760W        W  580  28.132   2.293   2.518
35761W        W  581   4.465  22.667   0.970
35762W        W  582  28.410  18.987  11.043
35763W        W  583  12.636  27.950  11.063
35764W        W  584   6.905  35.049   3.413
35765W        W  585  17.617  28.078   3.143
35766W        W  586  28.831  18.555   5.718
35767W        W  587  38.564  14.701  14.691
35768W        W  588  40.510   4.113   0.391
35769W        W  589  16.082   0.153  14.263
35770W        W  590   2.511  25.231   0.901
35771W        W  591  38.932  24.695  12.132
35772W        W  592  20.202  15.549  14.062
35773W        W  593  43.787   0.576   4.074
35774W        W  594   4.402  39.137   0.574
35775W        W  595  29.499  40.249   0.777
35776W        W  596  29.736   7.677  11.473
35777W        W  597  20.947  32.151  14.827
35778W        W  598  28.692  11.220  11.165
35779W        W  599   9.225  22.288   1.825
35780W        W  600  16.064  11.080   4.266
35781W        W  601  41.764  15.040  11.220
35782W        W  602  32.866  13.682   1.199
35783W        W  603  31.611  33.374   2.255
35784W        W  604  31.313  39.371   0.867
35785W        W  605  37.300  26.049  13.375
35786W        W  606   0.224   9.685  14.481
35787W        W  607  37.441  34.125   1.619
35788W        W  608  30.629  10.423  11.203
35789W        W  609   4.346  24.231   0.915
35790W        W  610  19.578  10.053   2.258
35791W        W  611   2.907  27.153   4.076
35792W        W  612  13.092  38.488  13.933
35793W        W  613  13.733  43.088  12.491
35794W        W  614  31.056  33.161  14.625
35795W        W  615  33.428  32.277   2.319
35796W        W  616   5.323  17.897   0.011
35797W        W  617   4.304  11.871   2.834
35798W        W  618  16.099  21.551   1.327
35799W        W  619  41.070  23.729   0.575
35800W        W  620  19.506   8.257   1.790
35801W        W  621  37.262  34.965   4.823
35802W        W  622  18.610  27.658  12.027
35803W        W  623   1.461  16.837  14.114
35804W        W  624  18.502  13.140   0.339
35805W        W  625  14.363  28.536   4.505
35806W        W  626  17.311  14.799   2.290
35807W        W  627   5.697   6.731  13.415
35808W        W  628  35.059  18.173   3.244
35809W        W  629  21.042   9.170   3.992
35810W        W  630   1.284   2.772   1.971
35811W        W  631  40.076  16.230  11.588
35812W        W  632  28.884  16.760   4.907
35813W        W  633   8.142  33.540   1.300
35814W        W  634  42.123   4.263  10.626
35815W        W  635  27.076   0.753   9.829
35816W        W  636   6.455  13.469  11.291
35817W        W  637  27.997   2.256   1.873
35818W        W  638  12.053  36.587  11.632
35819W        W  639  31.718  20.445  12.716
35820W        W  640  33.278   7.334   3.094
35821W        W  641  18.102   2.933  14.467
35822W        W  642  12.858  11.283  11.006
35823W        W  643  33.436  44.242  14.868
35824W        W  644  30.419  24.416   3.704
35825W        W  645   4.431  21.173  14.509
35826W        W  646  20.254  28.199  11.681
35827W        W  647   6.796   2.289  13.833
35828W        W  648  33.571  19.263  12.921
35829W        W  649   1.279  12.693   0.865
35830W        W  650  31.471  12.125  12.499
35831W        W  651   7.206   1.906   4.127
35832W        W  652  40.305   5.216   2.738
35833W        W  653  25.984  40.371  14.392
35834W        W  654  38.552  32.694   2.469
35835W        W  655  35.378  34.991   1.354
35836W        W  656   9.852  13.213  11.586
35837W        W  657  30.020   0.922  12.870
35838W        W  658   9.583  35.204   0.388
35839W        W  659  25.111   8.312   0.366
35840W        W  660  36.823  20.410   0.933
35841W        W  661  40.291  37.481   3.641
35842W        W  662  18.235   6.986  11.121
35843W        W  663  36.587  22.972  11.497
35844W        W  664  12.823  28.083  10.612
35845W        W  665   8.758  36.373   1.839
35846W        W  666   3.058  14.790   3.892
35847W        W  667  18.176   3.951   0.317
35848W        W  668  20.512  42.830   2.298
35849W        W  669   6.207  24.911   4.138
35850W        W  670  21.344  38.599   3.089
35851W        W  671  18.826  32.705   1.173
35852W        W  672  37.360  33.481  12.532
35853W        W  673  15.231  31.223   4.199
35854W        W  674  35.856  29.253  13.941
35855W        W  675  10.667  24.237   4.066
35856W        W  676  14.260  20.312  11.608
35857W        W  677  39.810  28.980  13.782
35858W        W  678  13.593  40.558  13.486
35859W        W  679  31.690  35.396   4.277
35860W        W  680   1.803  30.608  10.708
35861W        W  681  30.241  43.318  11.968
35862W        W  682  37.863  36.904   2.501
35863W        W  683   3.893  44.473   2.670
35864W        W  684   6.808  32.308  14.009
35865W        W  685  41.411  24.318   4.878
35866W        W  686  38.629  31.689  11.045
35867W        W  687  21.267  33.916   4.696
35868W        W  688   9.824   9.330  11.732
35869W        W  689  25.826  33.813  11.538
35870W        W  690  12.783  31.170   2.676
35871W        W  691  17.276   9.971   3.655
35872W        W  692  34.318  11.918  11.074
35873W        W  693   7.659  32.662   0.994
35874W        W  694   9.813  22.038  11.681
35875W        W  695  17.608  11.776  14.488
35876W        W  696  40.036  11.817   4.731
35877W        W  697  30.854  34.076   4.058
35878W        W  698   5.948  15.659   2.291
35879W        W  699   6.848   1.282  12.921
35880W        W  700  21.959   5.734  10.475
35881W        W  701   5.969  37.350   0.805
35882W        W  702  33.053  21.404  12.729
35883W        W  703  39.668  35.620   0.460
35884W        W  704  29.198  32.722  10.722
35885W        W  705   4.261  29.928   1.419
35886W        W  706  11.445  15.135  10.783
35887W        W  707   0.874  20.279  12.969
35888W        W  708  41.302  26.509  10.813
35889W        W  709  37.717  39.763  12.626
35890W        W  710  41.443   2.805  14.601
35891W        W  711  19.580  37.561  14.565
35892W        W  712  14.729  32.195  11.969
35893W        W  713  30.643   6.700  14.435
35894W        W  714   7.746  22.266  13.896
35895W        W  715   4.282  28.049  10.443
35896W        W  716   4.481  40.554   0.011
35897W        W  717   9.184  10.330  13.317
35898W        W  718  15.248   2.204  13.450
35899W        W  719   6.846  41.263   1.445
35900W        W  720  32.701  29.105   1.439
35901W        W  721  39.170  33.779   1.737
35902W        W  722  35.313  14.641   1.549
35903W        W  723   6.396  14.122  13.428
35904W        W  724   2.341  24.754   0.776
35905W        W  725   2.304  44.472   5.047
35906W        W  726  20.808  16.425  12.624
35907W        W  727   9.635   6.743  11.865
35908W        W  728  16.797  35.409  10.232
35909W        W  729  25.487   9.672  14.433
35910W        W  730  23.909  25.226  14.783
35911W        W  731  34.131   7.067  14.342
35912W        W  732   5.266   9.725  14.443
35913W        W  733  19.698  38.673  12.939
35914W        W  734  41.599   8.257   1.673
35915W        W  735  37.348  24.226   5.009
35916W        W  736  14.116  27.388   1.892
35917W        W  737  10.235  19.644   3.946
35918W        W  738   0.977   0.278   3.743
35919W        W  739   7.196   8.650  13.850
35920W        W  740  31.093  10.277   3.317
35921W        W  741  16.178  41.989  12.120
35922W        W  742  42.732  23.298  13.416
35923W        W  743   2.420  19.742   2.700
35924W        W  744  20.427  19.202   2.246
35925W        W  745  12.247  11.099  11.553
35926W        W  746  21.554  12.055  13.531
35927W        W  747  13.296   3.254  11.509
35928W        W  748  17.023  33.407   2.579
35929W        W  749  25.093  18.643   2.687
35930W        W  750  19.753  17.684  14.993
35931W        W  751  43.027  17.076   5.060
35932W        W  752  34.982  42.933  12.104
35933W        W  753   6.804  31.695   0.851
35934W        W  754  31.666  35.326   0.175
35935W        W  755  28.559  39.415  11.008
35936W        W  756  31.123   6.813   1.257
35937W        W  757  13.624  22.639  13.435
35938W        W  758   0.760   8.453  14.979
35939W        W  759  22.718  27.655   4.094
35940W        W  760  19.887  34.902  10.904
35941W        W  761  43.327  29.871   3.491
35942W        W  762  14.417  30.024  11.190
35943W        W  763  38.076  13.203   3.177
35944W        W  764   1.706  13.684   4.290
35945W        W  765   5.689  22.576   4.623
35946W        W  766  17.605  18.748   4.387
35947W        W  767  39.555   9.032   3.567
35948W        W  768  13.579  34.345  11.125
35949W        W  769  13.254  23.972   2.378
35950W        W  770   3.330  12.582  11.195
35951W        W  771   2.779  35.667  11.110
35952W        W  772  13.609  21.329  10.088
35953W        W  773   7.743  17.269   0.985
35954W        W  774  28.254  22.499  14.540
35955W        W  775  41.682  31.622  14.312
35956W        W  776  26.578  31.146   5.079
35957W        W  777  14.305  33.859   4.122
35958W        W  778   7.565  29.917  12.491
35959W        W  779  12.045  22.703   4.127
35960W        W  780  37.934  20.490   4.146
35961W        W  781   2.340  31.063  11.838
35962W        W  782  42.026  11.593  12.043
35963W        W  783   6.960   0.451  12.972
35964W        W  784  43.194  22.088   3.276
35965W        W  785   4.149  41.889   4.650
35966W        W  786  20.501  44.984  10.522
35967W        W  787   3.701   3.336  14.172
35968W        W  788  12.357  13.497  11.758
35969W        W  789  32.418  20.311  11.041
35970W        W  790  22.060  27.457  11.934
35971W        W  791   5.665   3.025   2.327
35972W        W  792   0.384  19.138  13.111
35973W        W  793   7.764  23.968   1.183
35974W        W  794  29.501  16.178  11.955
35975W        W  795   2.996  38.437  13.945
35976W        W  796  41.809  40.476   1.964
35977W        W  797  34.775  24.998  10.485
35978W        W  798  41.910  20.058  13.086
35979W        W  799   5.657   0.389   1.296
35980W        W  800  43.892  17.209  13.033
35981W        W  801  29.972  17.288   0.388
35982W        W  802   7.026  38.637  13.267
35983W        W  803  13.817  16.084  13.552
35984W        W  804  14.873  11.896  11.583
35985W        W  805  22.480  36.334   0.756
35986W        W  806  30.013  36.841   1.965
35987W        W  807  27.722  37.482   1.975
35988W        W  808  19.085   4.698   2.950
35989W        W  809  11.111   2.438  11.921
35990W        W  810   6.180  42.407  10.808
35991W        W  811  20.869  12.652  12.411
35992W        W  812  18.594   1.666   2.701
35993W        W  813  15.841  12.403   2.878
35994W        W  814   8.521  26.309  11.222
35995W        W  815   2.883  43.727  13.163
35996W        W  816  29.566  15.710   4.667
35997W        W  817  14.057  25.369  11.614
35998W        W  818  24.615  28.562   1.916
35999W        W  819  28.863  37.079   3.986
36000W        W  820  10.098  12.106  14.735
36001W        W  821   9.729  30.217   3.339
36002W        W  822  16.234  11.722  14.970
36003W        W  823  10.610  15.630  14.417
36004W        W  824  20.432   2.280   3.748
36005W        W  825  27.081  40.968  13.995
36006W        W  826  14.554  39.446   2.797
36007W        W  827  44.347  14.762   4.626
36008W        W  828  43.523  21.529   1.652
36009W        W  829  27.668   3.226   1.276
36010W        W  830  29.312  38.163  14.280
36011W        W  831   2.415  15.383   0.710
36012W        W  832  37.406  13.066   4.533
36013W        W  833  16.302  34.059   2.341
36014W        W  834  37.194  26.143   5.044
36015W        W  835  21.654   6.470  11.001
36016W        W  836  16.367   6.660   3.297
36017W        W  837  19.756  32.691   2.344
36018W        W  838   0.445  26.951  10.733
36019W        W  839  36.459  19.980   3.168
36020W        W  840  26.668  29.446   2.779
36021W        W  841   5.882   2.827  11.092
36022W        W  842  28.589  37.167   1.798
36023W        W  843   7.017  14.140   3.424
36024W        W  844   8.932  25.068   2.604
36025W        W  845  23.104   1.492  14.259
36026W        W  846   3.012  37.596  14.440
36027W        W  847  26.085  10.886  12.543
36028W        W  848  19.076  24.261   2.372
36029W        W  849   8.447  30.451  13.956
36030W        W  850  41.524   9.189   2.687
36031W        W  851  32.506  20.111   1.015
36032W        W  852  44.453  33.504   3.206
36033W        W  853  12.174  14.673   4.559
36034W        W  854  30.102  19.732  13.294
36035W        W  855   8.389  20.537   0.898
36036W        W  856  21.764  17.279   1.205
36037W        W  857  23.000  41.562   3.086
36038W        W  858   0.596  38.110   2.330
36039W        W  859  24.204   5.457  12.504
36040W        W  860   6.828  24.505   1.732
36041W        W  861  21.459   7.235  12.658
36042W        W  862   2.903  12.193   1.278
36043W        W  863  26.088  36.830  11.626
36044W        W  864  17.142  41.499  13.609
36045W        W  865   2.998  21.626   0.337
36046W        W  866  37.002   3.191  11.542
36047W        W  867  27.141  21.505   1.674
36048W        W  868  16.866  26.919   0.302
36049W        W  869   1.383  10.216   1.169
36050W        W  870  20.531  34.412   0.005
36051W        W  871  14.192  39.961   2.964
36052W        W  872  21.710  13.347  14.373
36053W        W  873  12.354   2.356   3.584
36054W        W  874  39.916  17.750  14.205
36055W        W  875  12.146  41.617  14.582
36056W        W  876  37.398  22.371   3.136
36057W        W  877  41.452  32.322  13.983
36058W        W  878  43.748  37.619   2.802
36059W        W  879  14.170   5.701   3.352
36060W        W  880  34.886  11.739   3.732
36061W        W  881  43.659   0.420   0.815
36062W        W  882   6.459  35.562   5.104
36063W        W  883   8.987  26.475   4.731
36064W        W  884  30.943  39.392  14.265
36065W        W  885  32.716  19.557   2.814
36066W        W  886  36.805   4.175  12.588
36067W        W  887   9.220   2.050   1.881
36068W        W  888   0.746  11.652   2.274
36069W        W  889  23.710  32.344   1.429
36070W        W  890  22.461  41.580   2.865
36071W        W  891  26.192  17.031   2.575
36072W        W  892   2.355  24.978   3.491
36073W        W  893  44.551  34.413   3.164
36074W        W  894  28.345  34.415  13.944
36075W        W  895  18.730   7.810  12.066
36076W        W  896  30.083   3.403   0.672
36077W        W  897  17.636  16.716  14.996
36078W        W  898  19.524  20.750   0.042
36079W        W  899  31.965  26.629   3.267
36080W        W  900   4.249  34.160   0.394
36081W        W  901   3.686   9.877   4.432
36082W        W  902  16.362  23.393  11.970
36083W        W  903  42.105  24.621  10.844
36084W        W  904  40.096   6.791   2.288
36085W        W  905  17.931   4.319   4.064
36086W        W  906  37.964  35.803  14.818
36087W        W  907   4.021  27.049  12.298
36088W        W  908  41.308  16.035  11.098
36089W        W  909  43.125  39.037   3.706
36090W        W  910  34.398  32.488   4.735
36091W        W  911  20.532  28.523  12.635
36092W        W  912  41.453  27.895   4.369
36093W        W  913   0.249  21.121   0.496
36094W        W  914  36.102  31.425   1.253
36095W        W  915   5.925   4.364   3.849
36096W        W  916  39.591  27.950   1.294
36097W        W  917   3.695   6.746  10.455
36098W        W  918  31.619  32.405   0.985
36099W        W  919  10.689  24.401  12.918
36100W        W  920   9.260  31.434   2.290
36101W        W  921  15.613  29.632   0.430
36102W        W  922   4.399  12.473  12.416
36103W        W  923  40.566  26.221   0.861
36104W        W  924  30.258  38.751  11.667
36105W        W  925   1.903  31.852  14.115
36106W        W  926  24.547  41.354   0.889
36107W        W  927  10.455  14.560   3.555
36108W        W  928  31.005  41.309  14.796
36109W        W  929  18.076  17.755   1.329
36110W        W  930  27.376   0.298   4.226
36111W        W  931  17.827   8.999   5.009
36112W        W  932  16.510  18.301  11.589
36113W        W  933  11.827  34.831   0.917
36114W        W  934  28.591   7.256   2.069
36115W        W  935   8.595  31.641   4.179
36116W        W  936   7.261  42.459  11.460
36117W        W  937  21.227  22.324   3.306
36118W        W  938  30.429  13.711   1.054
36119W        W  939   0.875  10.242  13.955
36120W        W  940  33.174   8.236  11.164
36121W        W  941  27.193  41.389   1.247
36122W        W  942  44.769  14.084   1.459
36123W        W  943  20.511  24.606   4.398
36124W        W  944  31.149  26.380   1.781
36125W        W  945  20.753   1.730   3.707
36126W        W  946  30.503   9.694  12.933
36127W        W  947   2.997  26.019   2.404
36128W        W  948   9.814  11.543   2.275
36129W        W  949  23.864  43.936   4.143
36130W        W  950  12.507   1.646   2.237
36131W        W  951   8.635  40.528  12.936
36132W        W  952  37.429  21.596  13.384
36133W        W  953  25.636  34.125   0.409
36134W        W  954   1.337   1.376  13.130
36135W        W  955  28.268  31.912  12.445
36136W        W  956  20.757  20.566   0.829
36137W        W  957  41.880  41.665  11.183
36138W        W  958  29.385  26.530   2.269
36139W        W  959  29.509  26.551   5.069
36140W        W  960  13.589  22.784  11.039
36141W        W  961  18.641  23.431   4.317
36142W        W  962  44.936  12.594   3.638
36143W        W  963  10.808  44.028  11.861
36144W        W  964  28.938  42.898   4.614
36145W        W  965  37.495  29.136   2.236
36146W        W  966  38.984  16.166   1.700
36147W        W  967  18.108  14.836  12.497
36148W        W  968  30.726  42.971   9.871
36149W        W  969  38.552  39.330  11.573
36150W        W  970  29.409  29.673   3.250
36151W        W  971  43.756  35.049  14.830
36152W        W  972   3.777   4.658   3.417
36153W        W  973  27.484  36.876   3.767
36154W        W  974  20.612  23.486   1.830
36155W        W  975  25.505   0.157  12.261
36156W        W  976  22.510  33.664  12.493
36157W        W  977   0.861  15.187  12.400
36158W        W  978  17.626   1.694  14.464
36159W        W  979  36.542  33.866   2.817
36160W        W  980  13.019  26.323   3.687
36161W        W  981  24.068  43.026   0.236
36162W        W  982  29.896  26.575  13.354
36163W        W  983  43.572   4.875  12.167
36164W        W  984  37.854  15.118   1.329
36165W        W  985  11.677  16.337   2.703
36166W        W  986   9.781  33.763   4.756
36167W        W  987  35.798  20.332   1.749
36168W        W  988  11.345  35.408   2.730
36169W        W  989  21.644  22.519   0.377
36170W        W  990  32.447  26.869  12.104
36171W        W  991  26.198   6.304   4.203
36172W        W  992  19.568  29.408  13.545
36173W        W  993  32.506  17.678   2.157
36174W        W  994  26.239  12.068   1.329
36175W        W  995  23.057  29.204  14.838
36176W        W  996  11.635   8.818  14.497
36177W        W  997   8.132   9.291   3.824
36178W        W  998  25.209  29.387  12.156
36179W        W  999  34.349  41.761  10.964
36180W        W 1000  39.157   7.349  13.876
36181W        W 1001  29.449  34.946  12.552
36182W        W 1002  28.656  40.808  12.471
36183W        W 1003   4.432  23.468   2.273
36184W        W 1004  34.145  31.101   0.712
36185W        W 1005  26.439   8.363  10.927
36186W        W 1006  34.138   7.687   0.798
36187W        W 1007   0.455  29.506   0.002
36188W        W 1008  41.127  33.809   1.359
36189W        W 1009   0.282  40.851  11.169
36190W        W 1010  35.987   6.797   4.510
36191W        W 1011  36.487  36.060   2.097
36192W        W 1012  44.970  23.290  13.588
36193W        W 1013  32.158  39.038   3.187
36194W        W 1014   8.320  19.678  14.423
36195W        W 1015  27.721   7.736   0.510
36196W        W 1016   0.353  30.652  10.690
36197W        W 1017  40.903  35.755   0.742
36198W        W 1018  16.271  25.229   3.718
36199W        W 1019  19.052   5.417  12.970
36200W        W 1020  33.592   3.876  14.974
36201W        W 1021  41.390  16.589  13.770
36202W        W 1022  44.398  39.310  14.334
36203W        W 1023  30.568  43.796   2.435
36204W        W 1024   1.440  38.461   1.892
36205W        W 1025  15.421   8.745   3.200
36206W        W 1026  16.088  40.039  10.787
36207W        W 1027  33.981  28.948   4.849
36208W        W 1028  25.998   5.659  12.067
36209W        W 1029  15.999  24.858  12.601
36210W        W 1030  37.475  38.810   1.402
36211W        W 1031  12.119  20.699  14.257
36212W        W 1032  11.920  17.854   3.864
36213W        W 1033  36.287  27.530  12.115
36214W        W 1034  15.817  19.649   0.716
36215W        W 1035  34.071  10.263   0.902
36216W        W 1036  22.417  13.277   4.208
36217W        W 1037  36.459  17.134  12.982
36218W        W 1038  30.557  42.787   0.796
36219W        W 1039  26.696  11.133  11.148
36220W        W 1040   6.212  43.792   3.712
36221W        W 1041  35.958  41.622   1.348
36222W        W 1042   1.777   2.795  11.591
36223W        W 1043  12.342  14.805   3.194
36224W        W 1044  34.465  11.444   3.696
36225W        W 1045  13.347  34.304   1.819
36226W        W 1046  27.942  17.691   1.179
36227W        W 1047  14.541  40.576   4.197
36228W        W 1048  16.376  33.903   2.833
36229W        W 1049   0.204  12.587  13.965
36230W        W 1050  22.270  22.378  11.522
36231W        W 1051  15.905  18.133   1.837
36232W        W 1052  10.151   4.375   2.135
36233W        W 1053  26.696  42.888   0.857
36234W        W 1054  41.561  44.241   2.106
36235W        W 1055   2.478  37.483  12.886
36236W        W 1056  39.510  28.903  14.219
36237W        W 1057   4.014  43.966  10.960
36238W        W 1058  20.378  26.292  13.007
36239W        W 1059  27.232  16.842  12.540
36240W        W 1060  36.899   7.308   1.759
36241W        W 1061   3.468  14.699  12.025
36242W        W 1062   9.702  25.455   0.878
36243W        W 1063  40.265   4.918   3.153
36244W        W 1064  41.434  14.218   3.829
36245W        W 1065  24.533   9.126  12.049
36246W        W 1066  19.763  39.556   4.160
36247W        W 1067   0.141  16.138  14.567
36248W        W 1068  33.711  24.632  14.557
36249W        W 1069   8.628  15.704  12.460
36250W        W 1070  17.727  18.185  13.848
36251W        W 1071  11.613  22.948  11.579
36252W        W 1072  34.650  12.937  10.013
36253W        W 1073  12.170  39.837  12.663
36254W        W 1074  26.003  44.850  13.399
36255W        W 1075   8.672  12.938  11.189
36256W        W 1076  26.298  40.024   1.241
36257W        W 1077  38.043  12.799   1.357
36258W        W 1078  28.095   7.924   2.877
36259W        W 1079  27.458  10.103  12.405
36260W        W 1080   0.916   5.964   4.171
36261W        W 1081  28.661  19.700   3.890
36262W        W 1082   8.622  43.969   2.402
36263W        W 1083   3.713  11.162  13.460
36264W        W 1084  34.571  31.546  11.208
36265W        W 1085  32.426  43.283   0.743
36266W        W 1086  41.535  38.552   2.220
36267W        W 1087  37.502  11.993   1.742
36268W        W 1088  15.212  39.428  11.827
36269W        W 1089  10.388  13.666   1.118
36270W        W 1090  12.784  25.248   1.463
36271W        W 1091  12.774  39.084  12.877
36272W        W 1092   3.437  34.682  13.029
36273W        W 1093  12.198  25.076   4.422
36274W        W 1094  44.585  22.557   4.553
36275W        W 1095  11.385  29.109  12.867
36276W        W 1096  14.988  25.483  11.744
36277W        W 1097  13.858  43.562   0.003
36278W        W 1098  21.873  28.906  14.807
36279W        W 1099  26.595   6.739   4.959
36280W        W 1100   3.683  25.832   4.898
36281W        W 1101   9.686  39.057   1.911
36282W        W 1102   5.658  15.365   1.919
36283W        W 1103   0.415  18.657   2.240
36284W        W 1104  10.850  13.395   1.172
36285W        W 1105  25.184  30.896   0.314
36286W        W 1106  38.942  22.633   4.913
36287W        W 1107   1.481   7.963  10.649
36288W        W 1108   9.629  18.243   1.870
36289W        W 1109  17.774   0.751  11.485
36290W        W 1110  31.138  17.213  14.699
36291W        W 1111   1.785  17.771  12.169
36292W        W 1112  43.316  16.611   0.841
36293W        W 1113   8.197   7.299   2.915
36294W        W 1114  21.713   5.819   1.097
36295W        W 1115  13.355  20.577  11.226
36296W        W 1116  31.398   2.834  13.012
36297W        W 1117  17.016  23.849   4.144
36298W        W 1118   3.840  32.114   1.924
36299W        W 1119  20.705   3.045  12.007
36300W        W 1120  36.138  21.612  11.162
36301W        W 1121   8.642  11.328   0.153
36302W        W 1122   1.306  26.046   4.077
36303W        W 1123  29.478  25.975  13.900
36304W        W 1124  10.493  44.489  12.018
36305W        W 1125   6.359  13.182   0.702
36306W        W 1126  16.484   0.782  10.915
36307W        W 1127   1.206  43.074  12.657
36308W        W 1128  20.520  26.682  10.734
36309W        W 1129   4.934  30.144  14.094
36310W        W 1130  42.373   6.839  10.470
36311W        W 1131  20.822  28.363   1.951
36312W        W 1132  43.755  28.127   0.870
36313W        W 1133   5.996  38.491   1.097
36314W        W 1134  23.952  23.963  12.075
36315W        W 1135   7.380  39.850  11.311
36316W        W 1136  21.256  37.632   5.016
36317W        W 1137  35.951  34.612   4.039
36318W        W 1138  28.742  32.964  10.590
36319W        W 1139  10.716   0.982   0.010
36320W        W 1140  30.548  16.770  14.542
36321W        W 1141  41.420  41.447  13.059
36322W        W 1142   1.832  44.328  11.514
36323W        W 1143  14.065   8.025   3.581
36324W        W 1144  18.103  36.886  10.377
36325W        W 1145  18.991  29.114   0.344
36326W        W 1146   3.670  26.620   1.028
36327W        W 1147  30.894  33.394  12.977
36328W        W 1148   3.686  44.277   0.530
36329W        W 1149   2.879  29.622   0.975
36330W        W 1150  30.889  36.342   1.308
36331W        W 1151  37.822  22.493   4.258
36332W        W 1152  15.768  36.789   0.034
36333W        W 1153   9.271  16.209   5.763
36334W        W 1154  36.493  20.674  11.567
36335W        W 1155  18.623  18.673   4.110
36336W        W 1156   5.482  38.659  14.035
36337W        W 1157  37.051  19.046  14.995
36338W        W 1158  33.007  24.843  12.978
36339W        W 1159   1.183  21.859  11.483
36340W        W 1160  36.411  25.484  10.815
36341W        W 1161  38.035   3.926   0.338
36342W        W 1162  27.731  24.290   4.191
36343W        W 1163  28.254  22.031  12.924
36344W        W 1164  32.895  20.608  14.400
36345W        W 1165  16.117   9.734  13.291
36346W        W 1166  30.696  42.260   2.868
36347W        W 1167   6.133  37.059  11.563
36348W        W 1168   6.965   3.726   3.178
36349W        W 1169  14.323   8.274   0.335
36350W        W 1170  42.194   8.793   3.120
36351W        W 1171   9.148  32.369   0.111
36352W        W 1172  11.475   6.406   2.470
36353W        W 1173  40.337  12.369  13.959
36354W        W 1174  28.754  12.386  13.994
36355W        W 1175  20.913  10.613   5.492
36356W        W 1176   8.786  29.502   2.085
36357W        W 1177  22.753  11.882  13.297
36358W        W 1178  19.355  29.892   1.888
36359W        W 1179  43.968  33.631  12.949
36360W        W 1180  21.083  32.060  13.086
36361W        W 1181  39.794  44.900   0.829
36362W        W 1182  24.967  14.692  13.403
36363W        W 1183  12.228  35.074  14.936
36364W        W 1184  39.046  42.575   2.303
36365W        W 1185  25.988  21.627   2.230
36366W        W 1186   5.303   4.711  12.669
36367W        W 1187  25.076  31.111   1.599
36368W        W 1188   9.838  42.290  10.603
36369W        W 1189   6.277   6.399   4.481
36370W        W 1190  25.268   7.807   4.125
36371W        W 1191  25.462  31.130   4.480
36372W        W 1192  34.500   4.290   3.578
36373W        W 1193  15.694   2.146  11.995
36374W        W 1194  41.853   6.860  11.156
36375W        W 1195   5.662  20.215   0.474
36376W        W 1196   6.469  38.400   3.258
36377W        W 1197  44.111  11.236   3.239
36378W        W 1198  15.598   5.199   1.379
36379W        W 1199  43.863  36.771   3.654
36380W        W 1200   4.230  21.461   3.214
36381W        W 1201  23.248   9.667  14.858
36382W        W 1202  39.162   2.654   2.946
36383W        W 1203  22.484  13.045  10.601
36384W        W 1204   8.602  27.133  13.470
36385W        W 1205   3.463  16.359   4.075
36386W        W 1206  24.589  34.440   2.535
36387W        W 1207  43.019  29.028  11.178
36388W        W 1208  41.549  21.243   2.620
36389W        W 1209  35.615  22.507  10.797
36390W        W 1210  41.898  36.204   5.036
36391W        W 1211  36.513  15.584   5.035
36392W        W 1212  27.363  19.072   4.683
36393W        W 1213  37.305  35.071  10.678
36394W        W 1214  10.820  42.397   4.834
36395W        W 1215  11.410  14.597   5.430
36396W        W 1216  23.727  23.014   3.448
36397W        W 1217  18.588  22.576  13.449
36398W        W 1218  44.347   1.276   1.503
36399W        W 1219  10.607  44.314   3.645
36400W        W 1220  22.687  38.890  12.908
36401W        W 1221   5.789   6.937  12.526
36402W        W 1222  36.352  34.594   1.041
36403W        W 1223   6.017  22.906   9.919
36404W        W 1224  25.261  29.280  13.867
36405W        W 1225  27.520  26.601   1.851
36406W        W 1226  22.444   0.640  14.422
36407W        W 1227   9.121   1.548   1.935
36408W        W 1228   3.551  14.693   3.798
36409W        W 1229  29.297  14.206   3.719
36410W        W 1230  20.551  13.360  14.899
36411W        W 1231   2.913  43.415  12.166
36412W        W 1232   9.659  41.871   3.307
36413W        W 1233   3.642  22.293   1.886
36414W        W 1234   1.728   9.746   4.580
36415W        W 1235  28.410  12.970   2.841
36416W        W 1236  18.108  26.451   3.061
36417W        W 1237   2.380  38.503  12.862
36418W        W 1238  33.194  34.992  12.005
36419W        W 1239  18.340  30.024   4.508
36420W        W 1240  40.227  41.813  13.089
36421W        W 1241  21.299   4.822  11.223
36422W        W 1242  31.179   8.835  11.763
36423W        W 1243  26.859  34.490  11.132
36424W        W 1244   7.166  22.697  14.408
36425W        W 1245  44.760  24.459   1.719
36426W        W 1246  16.314  39.901   3.975
36427W        W 1247  39.505   3.684  10.738
36428W        W 1248  29.125  44.327   2.602
36429W        W 1249  19.066  14.521   3.260
36430W        W 1250   0.317   5.316  10.657
36431W        W 1251  44.906   7.957   1.929
36432W        W 1252  41.060  18.991   2.660
36433W        W 1253   7.664  36.475   1.332
36434W        W 1254  44.572  35.324   1.453
36435W        W 1255  11.240   9.687   3.292
36436W        W 1256   2.381  16.075  14.361
36437W        W 1257   7.624   2.792   2.230
36438W        W 1258  12.303  16.544  14.106
36439W        W 1259   0.616   2.247   0.445
36440W        W 1260  42.834  41.693   4.435
36441W        W 1261  18.352  38.494   2.186
36442W        W 1262  35.570  28.728  13.471
36443W        W 1263  33.665  34.311  11.080
36444W        W 1264   1.486   0.815  13.847
36445W        W 1265  10.822   2.313   2.688
36446W        W 1266   7.914  29.447  11.735
36447W        W 1267  22.907   4.226  12.869
36448W        W 1268  17.974  34.130  12.826
36449W        W 1269  36.395   4.794  10.944
36450W        W 1270  14.743  33.946   4.338
36451W        W 1271  43.094  36.953   3.162
36452W        W 1272  10.856  44.775  12.514
36453W        W 1273   6.651  43.529   4.091
36454W        W 1274   4.976  22.171  13.049
36455W        W 1275  19.256  38.077   4.609
36456W        W 1276  27.485  10.936  11.529
36457W        W 1277  20.161  38.892  13.129
36458W        W 1278  16.214   6.085   4.117
36459W        W 1279  10.319  41.135   0.956
36460W        W 1280  25.543  27.122  10.757
36461W        W 1281   7.936   7.998  10.545
36462W        W 1282  23.592  29.005   2.718
36463W        W 1283   9.819  34.506  11.142
36464W        W 1284  17.920  38.090  10.785
36465W        W 1285  19.333   4.073  11.616
36466W        W 1286   3.424  21.295   3.776
36467W        W 1287  29.922  33.030   4.091
36468W        W 1288  27.279   3.665  13.836
36469W        W 1289  25.257  44.772   3.209
36470W        W 1290  36.611   1.282   0.340
36471W        W 1291  42.547   6.076  12.978
36472W        W 1292  19.610  40.985   3.154
36473W        W 1293  29.181   4.900   4.656
36474W        W 1294   1.721  42.042   0.013
36475W        W 1295  12.817  18.994  12.518
36476W        W 1296  23.620  16.603   1.793
36477W        W 1297  21.542  40.920   2.317
36478W        W 1298   9.873   6.717   3.698
36479W        W 1299  20.225   5.444  14.930
36480W        W 1300  27.111  25.725   4.810
36481W        W 1301  41.000  12.205  13.344
36482W        W 1302  35.441  16.367  13.353
36483W        W 1303  22.517   4.439   1.995
36484W        W 1304  32.969  29.644  14.908
36485W        W 1305  17.700   7.754   0.962
36486W        W 1306  42.603  27.577   1.480
36487W        W 1307  29.506  43.082  13.048
36488W        W 1308  14.195  17.167   4.724
36489W        W 1309  42.360  16.997  12.000
36490W        W 1310  16.766  41.782  13.881
36491W        W 1311  36.152   6.697   0.352
36492W        W 1312   8.301  30.661   1.227
36493W        W 1313   8.881  40.883   3.096
36494W        W 1314  17.489  42.608   0.428
36495W        W 1315   4.625   9.345  11.131
36496W        W 1316  19.781   9.155   2.604
36497W        W 1317  10.852  14.256   3.715
36498W        W 1318  36.494  41.597  12.489
36499W        W 1319  14.898  29.090   4.595
36500W        W 1320  38.503  37.397  11.929
36501W        W 1321  20.782   3.381   1.227
36502W        W 1322  11.867  29.367  12.892
36503W        W 1323  33.793   3.542   3.303
36504W        W 1324  26.626   1.369   2.608
36505W        W 1325  42.252   9.888   0.451
36506W        W 1326   6.160  17.778  11.798
36507W        W 1327  31.871  28.548   2.056
36508W        W 1328  12.719  40.657   4.756
36509W        W 1329  36.498   7.721   0.345
36510W        W 1330  10.417   8.420   4.112
36511W        W 1331  26.215  10.637  13.889
36512W        W 1332   5.301  41.752   2.346
36513W        W 1333  44.420  21.767   0.381
36514W        W 1334  10.187  20.497   1.751
36515W        W 1335   2.536  36.566   1.216
36516W        W 1336  27.636  24.766   2.172
36517W        W 1337  23.978  32.566  10.481
36518W        W 1338  38.491  15.833  12.204
36519W        W 1339  17.998  11.203   2.752
36520W        W 1340   2.817  18.087  13.823
36521W        W 1341   4.761  42.918  11.019
36522W        W 1342   9.566  31.955   3.694
36523W        W 1343   7.330  38.363   3.566
36524W        W 1344  30.531  37.780  10.695
36525W        W 1345  20.327  39.090   4.223
36526W        W 1346  17.667  24.387   2.729
36527W        W 1347  26.668  33.714  14.348
36528W        W 1348  27.002  41.271  13.556
36529W        W 1349   9.236  37.986   1.378
36530W        W 1350   9.579  12.176  14.777
36531W        W 1351  17.756  28.427  12.576
36532W        W 1352  11.021   7.217  13.437
36533W        W 1353  40.231  30.946  11.461
36534W        W 1354   0.512   1.369  14.433
36535W        W 1355  41.566  38.594  12.460
36536W        W 1356   0.413   3.950  14.693
36537W        W 1357  11.181  15.822   0.717
36538W        W 1358  36.120  38.117  14.526
36539W        W 1359   5.129  23.109  14.784
36540W        W 1360  34.521  43.470   0.541
36541W        W 1361  18.552  44.813   2.240
36542W        W 1362  32.600   5.358   3.058
36543W        W 1363  19.686   2.459   4.140
36544W        W 1364   8.417  23.314  12.979
36545W        W 1365  38.899  39.904   0.208
36546W        W 1366  33.440  26.227   3.616
36547W        W 1367  22.175  34.093   4.352
36548W        W 1368  34.217  25.958  13.428
36549W        W 1369   6.981  15.819  11.546
36550W        W 1370  35.206   1.454  12.722
36551W        W 1371   7.663   4.392   3.358
36552W        W 1372  24.939  41.328  13.086
36553W        W 1373   1.057  16.036   1.818
36554W        W 1374  19.610  28.681  11.125
36555W        W 1375  20.993  40.480  11.089
36556W        W 1376  26.697  37.001  13.691
36557W        W 1377  17.559  30.165   4.067
36558W        W 1378  36.140  24.771   5.024
36559W        W 1379  22.268  17.288  11.893
36560W        W 1380  10.750  13.825   2.777
36561W        W 1381  10.596  10.801  13.860
36562W        W 1382  16.211  25.601   0.466
36563W        W 1383  21.149  42.832  12.940
36564W        W 1384  36.842   8.831  14.038
36565W        W 1385  35.347   1.739   0.386
36566W        W 1386  38.322  36.477   0.868
36567W        W 1387  40.567  11.947  10.721
36568W        W 1388  41.865  22.607   0.468
36569W        W 1389  42.909  39.044  14.299
36570W        W 1390  28.677   1.578  11.607
36571W        W 1391  21.745  13.173   2.776
36572W        W 1392  44.685  10.806  12.452
36573W        W 1393  28.978  38.468   0.142
36574W        W 1394  44.501  11.912   1.227
36575W        W 1395  15.648  11.415   2.737
36576W        W 1396  18.194   7.926  11.378
36577W        W 1397  34.059  13.857  12.951
36578W        W 1398  20.637   8.283   3.856
36579W        W 1399  20.148   5.536  10.272
36580W        W 1400   9.365   6.498   0.788
36581W        W 1401  17.803  31.199  11.885
36582W        W 1402   4.193  25.244   5.325
36583W        W 1403  27.354  33.438  13.863
36584W        W 1404  16.723  18.669   2.901
36585W        W 1405  33.394  43.942   3.702
36586W        W 1406  26.455  15.224   3.934
36587W        W 1407  39.044  14.717   5.075
36588W        W 1408  30.521  24.411  13.989
36589W        W 1409  22.518  21.007   0.539
36590W        W 1410  32.138  14.162  12.964
36591W        W 1411  34.621  31.987   3.975
36592W        W 1412   0.793  13.263   1.345
36593W        W 1413  36.469  29.370  11.163
36594W        W 1414  30.037  40.381  10.603
36595W        W 1415  15.820  42.932  12.001
36596W        W 1416  20.618  20.110   3.182
36597W        W 1417  38.309  37.001  13.762
36598W        W 1418   5.160  31.099   2.522
36599W        W 1419  13.811   9.338   1.242
36600W        W 1420  30.314  24.633   0.229
36601W        W 1421  24.457  33.012   3.522
36602W        W 1422  23.635  26.175  12.615
36603W        W 1423   3.863   6.080  14.912
36604W        W 1424  23.223   9.390   0.311
36605W        W 1425  30.016  10.711   0.639
36606W        W 1426   2.155  42.743   4.047
36607W        W 1427  34.098  25.459   0.026
36608W        W 1428   1.123  16.646  11.318
36609W        W 1429  27.747   8.361   4.039
36610W        W 1430  31.024  30.920  12.816
36611W        W 1431  33.418  20.890  13.069
36612W        W 1432  33.025   5.860  13.447
36613W        W 1433  36.821   7.112   1.280
36614W        W 1434  34.531   7.019   2.970
36615W        W 1435  29.005  40.151  13.939
36616W        W 1436  26.160  29.037   1.318
36617W        W 1437   7.637   6.267  11.133
36618W        W 1438  14.556  32.164  13.847
36619W        W 1439   9.587  34.026  13.982
36620W        W 1440  39.623  44.796  10.641
36621W        W 1441   5.839  20.151  14.004
36622W        W 1442  35.790  25.519   1.218
36623W        W 1443  39.048  29.772   2.610
36624W        W 1444  44.728   4.804  14.893
36625W        W 1445  41.435  24.995  12.612
36626W        W 1446   3.303  29.683  14.303
36627W        W 1447  42.212  33.432  13.397
36628W        W 1448   6.248   5.647   3.229
36629W        W 1449  11.537  22.490  12.101
36630W        W 1450  44.418  22.641  13.593
36631W        W 1451  32.507   2.418   1.782
36632W        W 1452  23.132  32.908  11.541
36633W        W 1453  35.050  28.417  13.009
36634W        W 1454  11.903  12.711  11.621
36635W        W 1455  12.763  13.365   0.244
36636W        W 1456   0.703   9.744  10.787
36637W        W 1457   8.971   1.641   5.063
36638W        W 1458  27.849  20.692   0.443
36639W        W 1459  28.666   6.446   0.362
36640W        W 1460   0.417   4.940   0.414
36641W        W 1461  20.105  26.592  11.008
36642W        W 1462  44.171  37.898  12.372
36643W        W 1463  12.357  11.168   4.081
36644W        W 1464   8.829   4.308  10.612
36645W        W 1465  34.713  25.683  14.474
36646W        W 1466   3.365  35.628  14.505
36647W        W 1467  31.813  18.665   0.638
36648W        W 1468   6.216  39.267  13.130
36649W        W 1469  32.656  39.755   2.160
36650W        W 1470  15.594   1.499   4.073
36651W        W 1471  39.477  10.413   0.737
36652W        W 1472  17.583   9.048  13.408
36653W        W 1473  29.080  36.505  14.325
36654W        W 1474   8.479  13.095   1.519
36655W        W 1475  13.793  43.090  14.760
36656W        W 1476  39.089  43.046   1.171
36657W        W 1477  33.396  35.077   4.586
36658W        W 1478   9.617  41.490  13.996
36659W        W 1479  22.098   9.812  12.106
36660W        W 1480  13.249  41.526   0.484
36661W        W 1481  25.714  27.613  11.610
36662W        W 1482   8.287  36.103   0.776
36663W        W 1483  43.045  40.743  11.560
36664W        W 1484  32.008  34.350   3.832
36665W        W 1485   6.289  23.738   0.510
36666W        W 1486  14.766  16.004   4.183
36667W        W 1487  11.251  23.071  12.539
36668W        W 1488  19.681  32.041  12.905
36669W        W 1489  19.274  25.073   3.930
36670W        W 1490   1.652   8.179   0.373
36671W        W 1491  22.077  15.385  14.934
36672W        W 1492  24.576  39.259  13.348
36673W        W 1493   8.637  29.915   1.213
36674W        W 1494  19.613  25.514   3.670
36675W        W 1495   7.854  28.378  12.539
36676W        W 1496   9.293   4.683   0.388
36677W        W 1497  29.514  43.814  12.094
36678W        W 1498  39.895  41.711   4.843
36679W        W 1499  15.934  32.588   3.767
36680W        W 1500  28.441  36.415   5.144
36681W        W 1501  28.661   2.788  14.264
36682W        W 1502  22.679  19.283   1.674
36683W        W 1503   3.961  24.202  11.610
36684W        W 1504  20.779  36.596   4.948
36685W        W 1505   3.832  11.527  13.832
36686W        W 1506  35.098  25.693   3.680
36687W        W 1507  14.592  35.978   2.480
36688W        W 1508  36.451  24.509  10.738
36689W        W 1509  29.600  40.800  10.645
36690W        W 1510  20.316   7.902  10.623
36691W        W 1511  17.479  11.661  13.603
36692W        W 1512  11.808  33.867   1.932
36693W        W 1513   8.676  24.010  11.579
36694W        W 1514  29.040  36.391  13.820
36695W        W 1515  43.820  17.035  13.506
36696W        W 1516  36.509   7.386  14.019
36697W        W 1517   2.143  36.582  12.629
36698W        W 1518  27.287   1.824  11.524
36699W        W 1519   9.468  14.482   2.556
36700W        W 1520   8.383   3.749   1.817
36701W        W 1521  33.090  21.944   4.612
36702W        W 1522  26.907  22.235  11.608
36703W        W 1523  32.977  15.483   0.860
36704W        W 1524  34.049  29.885  14.875
36705W        W 1525  20.994  32.366  13.515
36706W        W 1526  38.407  36.075   2.831
36707W        W 1527  36.501  21.939   4.235
36708W        W 1528  27.936  20.629  12.587
36709W        W 1529  18.211  32.924  14.511
36710W        W 1530  44.546   4.991   2.344
36711W        W 1531  42.672  13.289   0.453
36712W        W 1532  37.711  12.129  11.735
36713W        W 1533  20.671  43.412   4.271
36714W        W 1534   5.328   0.398   0.074
36715W        W 1535  26.013   1.679   0.512
36716W        W 1536  32.085   9.224  14.780
36717W        W 1537  33.287  31.517  13.917
36718W        W 1538  32.058   6.253  11.678
36719W        W 1539  32.951  23.030   3.185
36720W        W 1540  20.400  12.230  12.901
36721W        W 1541  26.258   5.922   1.339
36722W        W 1542  16.384  12.218   0.127
36723W        W 1543  20.463  29.639  11.934
36724W        W 1544  35.575  23.676  10.971
36725W        W 1545  31.889  34.437   0.476
36726W        W 1546  30.740  34.743  14.899
36727W        W 1547  10.902  41.860   2.284
36728W        W 1548  41.377   1.644   4.457
36729W        W 1549  40.648   3.721   2.032
36730W        W 1550  13.045   2.381  14.639
36731W        W 1551   6.795  29.687   2.652
36732W        W 1552   7.884  36.493  14.897
36733W        W 1553  10.902  39.619  14.745
36734W        W 1554  27.271   4.289   3.667
36735W        W 1555  36.625   0.069   4.239
36736W        W 1556  14.308  42.517   2.565
36737W        W 1557  15.005  42.594  11.104
36738W        W 1558  27.855  31.967   4.004
36739W        W 1559  30.016  26.575  11.966
36740W        W 1560  13.977  37.508  14.432
36741W        W 1561   6.131   9.478  10.838
36742W        W 1562  37.406  40.280   0.702
36743W        W 1563   0.774   0.215   3.237
36744W        W 1564   4.776  33.585   4.386
36745W        W 1565  32.101  29.259   1.225
36746W        W 1566  34.124  26.986  14.851
36747W        W 1567  40.951  18.016   3.623
36748W        W 1568   6.259  10.885   1.063
36749W        W 1569  13.377  19.205   3.361
36750W        W 1570  35.024   8.742   4.154
36751W        W 1571  13.250  31.972   1.819
36752W        W 1572   7.152  36.156  12.623
36753W        W 1573  24.394   0.925   3.588
36754W        W 1574  42.260   0.999   1.802
36755W        W 1575  21.219  12.665  11.943
36756W        W 1576   3.758  30.397  14.188
36757W        W 1577  34.713  39.429  12.973
36758W        W 1578  32.574  29.054   2.475
36759W        W 1579  23.541   0.115  13.058
36760W        W 1580  26.034   4.793   3.772
36761W        W 1581   7.819  36.594  10.673
36762W        W 1582   2.298   5.162  14.281
36763W        W 1583  21.708   3.444   4.045
36764W        W 1584  24.912  32.580  13.035
36765W        W 1585  12.076   2.021  14.798
36766W        W 1586   2.092  26.150   0.985
36767W        W 1587  44.912  22.715   1.424
36768W        W 1588  28.157  26.207   0.730
36769W        W 1589  39.476  18.478  11.663
36770W        W 1590  30.919  17.128   1.194
36771W        W 1591  38.450  17.274   0.076
36772W        W 1592  18.395  10.916   4.136
36773W        W 1593  37.260  28.688   0.447
36774W        W 1594  20.210  37.338   0.409
36775W        W 1595   0.010  15.830   2.243
36776W        W 1596  33.061  41.423  13.102
36777W        W 1597  17.711  37.912   4.996
36778W        W 1598  11.099  28.936   4.523
36779W        W 1599  17.851   3.690   4.241
36780W        W 1600  41.763  28.093   3.391
36781W        W 1601  10.827   3.578  14.817
36782W        W 1602  28.410   7.880   0.714
36783W        W 1603  20.510  40.804  11.000
36784W        W 1604   2.003  17.576   0.427
36785W        W 1605   0.059  30.829  11.997
36786W        W 1606  17.083  25.192   2.328
36787W        W 1607  13.831  19.319  12.382
36788W        W 1608  15.442  33.453  13.144
36789W        W 1609   1.207  35.130  14.959
36790W        W 1610  39.235   2.338   0.676
36791W        W 1611   5.735  40.573   0.898
36792W        W 1612  35.376  39.838  14.771
36793W        W 1613  22.454   5.075  14.841
36794W        W 1614  32.411   9.743  11.283
36795W        W 1615  44.347   1.212  14.555
36796W        W 1616  34.050  19.225   4.917
36797W        W 1617  22.044  25.609  11.549
36798W        W 1618  30.001   2.763   3.468
36799W        W 1619  28.234  43.112  13.318
36800W        W 1620  38.799  19.620   1.655
36801W        W 1621  31.179  36.876   0.890
36802W        W 1622  39.190  31.453   0.098
36803W        W 1623  32.410  41.514  12.617
36804W        W 1624  23.187  18.648  14.361
36805W        W 1625  22.272  26.479  12.152
36806W        W 1626  28.024   6.069   5.143
36807W        W 1627  11.327   8.643  11.982
36808W        W 1628  23.818  30.240  14.386
36809W        W 1629  37.535  36.442   4.979
36810W        W 1630  14.849  15.065  11.767
36811W        W 1631  13.575  21.110  14.803
36812W        W 1632  38.732  29.420   5.007
36813W        W 1633  40.342  39.378   1.344
36814W        W 1634  27.131  12.343  12.002
36815W        W 1635  44.876  13.422   3.237
36816W        W 1636   0.142  16.758   2.363
36817W        W 1637   4.804   4.459   0.685
36818W        W 1638   8.408  17.964   5.812
36819W        W 1639  31.602   3.695   1.382
36820W        W 1640  37.475   9.125   4.110
36821W        W 1641  31.489   5.786  12.369
36822W        W 1642   4.388   2.211  10.766
36823W        W 1643  24.108  10.753   0.790
36824W        W 1644  38.787   4.959  10.674
36825W        W 1645   6.896  38.840   1.800
36826W        W 1646   1.756   9.312   1.336
36827W        W 1647   2.862  40.941   2.631
36828W        W 1648  11.367  35.410  13.076
36829W        W 1649  19.115  22.172  12.091
36830W        W 1650  34.066  33.345   0.894
36831W        W 1651   0.039  38.619  13.701
36832W        W 1652  34.088  25.192  12.518
36833W        W 1653  31.110  43.504   3.235
36834W        W 1654  44.394   2.044  14.294
36835W        W 1655   3.432  42.528   0.197
36836W        W 1656  11.357  28.890   4.066
36837W        W 1657  37.250  42.989   1.364
36838W        W 1658  21.789  11.747  14.993
36839W        W 1659  34.999  41.646   0.947
36840W        W 1660  16.061  24.002   1.090
36841W        W 1661  27.957   2.202  11.318
36842W        W 1662  33.348  33.173   1.995
36843W        W 1663  11.631  31.348  11.227
36844W        W 1664  20.982  26.447  14.329
36845W        W 1665  41.598   0.830   3.337
36846W        W 1666   0.130  14.456   2.179
36847W        W 1667  44.413   9.280   5.056
36848W        W 1668   9.971   7.904  14.038
36849W        W 1669   1.400  23.255  13.257
36850W        W 1670   6.310  15.332  13.674
36851W        W 1671   4.162  38.896   4.657
36852W        W 1672  39.415   4.644  12.072
36853W        W 1673  27.082  39.916  14.030
36854W        W 1674  10.744  43.473  13.236
36855W        W 1675  30.381  36.502  12.842
36856W        W 1676  31.909  40.775  14.472
36857W        W 1677  39.258  37.080  14.885
36858W        W 1678  44.998  15.277  14.053
36859W        W 1679   2.369  34.854  12.918
36860W        W 1680  36.055   8.887  13.571
36861W        W 1681  22.524  36.335   4.607
36862W        W 1682   3.761  31.059  14.909
36863W        W 1683  17.490  12.146  13.433
36864W        W 1684  32.943   5.958  12.503
36865W        W 1685  37.135  12.213  12.979
36866W        W 1686   8.422   7.182  13.951
36867W        W 1687  32.194   4.252  14.291
36868W        W 1688  39.008   0.426  13.064
36869W        W 1689  29.860  16.355   0.295
36870W        W 1690  35.074   4.764   2.944
36871W        W 1691  35.664  18.150   1.223
36872W        W 1692  28.755  32.961   2.876
36873W        W 1693  23.998  20.828  12.487
36874W        W 1694   2.455  24.362  13.425
36875W        W 1695   5.415  28.217  10.045
36876W        W 1696  34.814  26.077   0.448
36877W        W 1697  15.286   2.709  13.315
36878W        W 1698  15.092  43.304   1.906
36879W        W 1699  32.158  35.525   0.068
36880W        W 1700  29.948  23.666  13.325
36881W        W 1701   7.141  11.764   0.444
36882W        W 1702  27.611  43.818  13.309
36883W        W 1703  18.759  44.210  11.157
36884W        W 1704  38.530  14.681  10.720
36885W        W 1705   1.902  15.859  14.262
36886W        W 1706  41.352  38.581   2.722
36887W        W 1707   5.421  24.238  13.450
36888W        W 1708  25.962  23.456  13.294
36889W        W 1709   9.057   6.884   0.594
36890W        W 1710  34.656  27.054  10.993
36891W        W 1711   7.201  29.105  14.839
36892W        W 1712  11.144  13.999  10.188
36893W        W 1713   5.097  36.250  14.367
36894W        W 1714   9.176  44.469  14.766
36895W        W 1715  19.821   8.894   0.484
36896W        W 1716  18.858  16.739  11.481
36897W        W 1717  22.612  30.741   3.701
36898W        W 1718  23.056  21.302  11.988
36899W        W 1719   0.795   7.770  12.594
36900W        W 1720  11.605  10.227   2.221
36901W        W 1721  27.273   2.375   3.113
36902W        W 1722   8.757  36.796   3.971
36903W        W 1723  11.993  26.119   4.500
36904W        W 1724  12.162  32.420   2.659
36905W        W 1725   9.337  28.430   1.953
36906W        W 1726  32.468  27.183   1.205
36907W        W 1727  14.261  36.350   0.274
36908W        W 1728  13.578  29.977   3.040
36909W        W 1729  34.155  20.238  11.564
36910W        W 1730   6.086   9.173   1.207
36911W        W 1731  44.391  27.121  12.878
36912W        W 1732  15.295  13.730  11.203
36913W        W 1733  44.578   1.814  12.398
36914W        W 1734   4.762  15.716   0.477
36915W        W 1735  18.121  26.692  10.467
36916W        W 1736  34.866  10.341   2.960
36917W        W 1737   1.221  28.482  14.509
36918W        W 1738  15.301  19.692   0.975
36919W        W 1739  35.713  25.611  14.230
36920W        W 1740  39.098  42.363  11.605
36921W        W 1741  14.210   9.286  10.748
36922W        W 1742  36.425  35.117   4.557
36923W        W 1743  35.414  18.517   1.967
36924W        W 1744  19.944  14.189  12.589
36925W        W 1745  13.409  18.676  13.989
36926W        W 1746  25.106   9.772  10.627
36927W        W 1747  41.448  19.669  11.525
36928W        W 1748   7.464   6.415  11.624
36929W        W 1749  43.382  28.220  11.142
36930W        W 1750  36.475  40.773  14.903
36931W        W 1751  33.850  20.313  13.782
36932W        W 1752   5.729  31.218   1.875
36933W        W 1753  12.504  23.403  11.467
36934W        W 1754   4.146  15.408  12.177
36935W        W 1755   8.683  24.987  13.488
36936W        W 1756  37.798  31.461   4.786
36937W        W 1757   9.872  24.971   0.871
36938W        W 1758  37.440   9.853  12.140
36939W        W 1759  10.596  12.377   3.115
36940W        W 1760  33.372  38.417   0.796
36941W        W 1761  31.509  17.510   1.275
36942W        W 1762  11.303   4.701   3.237
36943W        W 1763  13.254  27.006  13.001
36944W        W 1764  14.754   7.977  10.788
36945W        W 1765  29.538  32.511  11.400
36946W        W 1766  23.699  13.270  14.265
36947W        W 1767   2.680  24.760  14.457
36948W        W 1768  43.391  23.068   2.412
36949W        W 1769  41.600  40.157   3.793
36950W        W 1770  16.316  43.778   0.992
36951W        W 1771  31.033  42.019   1.295
36952W        W 1772   7.870  43.905  13.998
36953W        W 1773   7.174  19.081  10.971
36954W        W 1774  13.644  34.799  14.095
36955W        W 1775  44.499  11.389   0.359
36956W        W 1776  24.790  32.925  10.794
36957W        W 1777   3.527   9.664  12.068
36958W        W 1778  37.286  29.672   0.324
36959W        W 1779  15.970   4.643   0.432
36960W        W 1780  33.594  23.754  14.344
36961W        W 1781  31.061  41.335   0.897
36962W        W 1782  23.912  19.595   2.864
36963W        W 1783  32.423  26.488   2.996
36964W        W 1784  11.069  25.598  12.486
36965W        W 1785  18.812  29.069   1.382
36966W        W 1786  26.190  31.887  13.940
36967W        W 1787  40.797   7.320   3.182
36968W        W 1788   8.832  27.719  12.928
36969W        W 1789  28.953  43.132   1.839
36970W        W 1790  29.617  21.431   4.418
36971W        W 1791  27.753   4.819  13.145
36972W        W 1792  16.186  40.963   4.856
36973W        W 1793  36.204  23.492  13.482
36974W        W 1794  37.808  44.012  14.537
36975W        W 1795  40.832  37.975  12.587
36976W        W 1796  41.135  41.255  13.990
36977W        W 1797  39.004  31.935  14.639
36978W        W 1798  40.013   1.685   1.181
36979W        W 1799  30.987  13.851  12.118
36980W        W 1800  23.192  39.284   3.784
36981W        W 1801  11.612  16.724  12.513
36982W        W 1802  22.138  15.345   1.804
36983W        W 1803  33.474  33.409  11.568
36984W        W 1804  29.256   1.757   0.911
36985W        W 1805  12.094  26.046  14.409
36986W        W 1806  21.540  40.333  13.454
36987W        W 1807  20.264  11.768  13.082
36988W        W 1808   7.749  36.494   3.040
36989W        W 1809  34.996  25.531  10.812
36990W        W 1810  22.532  19.006  12.487
36991W        W 1811  24.078   7.263  14.184
36992W        W 1812  20.542   6.171   4.283
36993W        W 1813   5.642   9.653   0.804
36994W        W 1814  38.443  34.003   0.496
36995W        W 1815   0.727   8.423   3.667
36996W        W 1816   8.338  36.998  11.236
36997W        W 1817  25.232  19.775  11.103
36998W        W 1818  38.888  31.384   1.074
36999W        W 1819  19.619  29.849   1.201
37000W        W 1820  37.888   8.662   0.486
37001W        W 1821  42.177  19.426  14.736
37002W        W 1822  27.949  44.501  13.029
37003W        W 1823   8.939  37.755  13.917
37004W        W 1824   6.633  32.628   0.752
37005W        W 1825  18.950   3.519  14.363
37006W        W 1826  26.604   5.842  13.514
37007W        W 1827  30.418  30.582  13.857
37008W        W 1828   5.734   0.758   3.974
37009W        W 1829   1.603  14.975  13.470
37010W        W 1830  32.122  21.557   1.280
37011W        W 1831  30.729  20.293   1.381
37012W        W 1832  31.114   1.996   0.873
37013W        W 1833  28.103  42.465  12.474
37014W        W 1834  33.427  19.668  13.883
37015W        W 1835   4.839  30.602  12.852
37016W        W 1836   4.642   3.665   1.717
37017W        W 1837  10.159  28.968   0.627
37018W        W 1838  27.025  43.332  11.998
37019W        W 1839  33.140  30.719  13.611
37020W        W 1840  11.324   6.040  10.644
37021W        W 1841  33.508  13.779   0.504
37022W        W 1842  10.676   6.699   1.446
37023W        W 1843  12.230  39.347  14.206
37024W        W 1844  39.475  16.847  13.494
37025W        W 1845   2.864  19.450   0.245
37026W        W 1846  27.471  14.020   3.615
37027W        W 1847  28.159   2.665  11.504
37028W        W 1848  16.894  35.424  14.868
37029W        W 1849  16.880  24.247   1.314
37030W        W 1850   6.514  33.312  12.136
37031W        W 1851  34.798   1.047   1.855
37032W        W 1852  40.180   0.384   0.191
37033W        W 1853  22.605  24.071   2.653
37034W        W 1854  25.027  21.485   0.786
37035W        W 1855  30.732  23.811  10.251
37036W        W 1856  25.494  25.675  13.388
37037W        W 1857  20.390  35.854   1.509
37038W        W 1858  39.202  27.686   1.715
37039W        W 1859  24.636  20.185   3.094
37040W        W 1860  22.937  32.481   2.601
37041W        W 1861  34.560  15.595  13.953
37042W        W 1862  43.821  23.019   2.720
37043W        W 1863   0.357  44.067  11.897
37044W        W 1864  18.988   8.253   1.859
37045W        W 1865  13.921  29.175   1.741
37046W        W 1866  36.226  13.126  14.848
37047W        W 1867  29.141   2.683   4.793
37048W        W 1868  35.525  22.759  14.966
37049W        W 1869  38.395   0.751   1.896
37050W        W 1870   1.687  23.271   2.125
37051W        W 1871  34.700  12.874  14.987
37052W        W 1872  38.844  28.901  14.885
37053W        W 1873   2.150   8.316   0.400
37054W        W 1874   6.495  41.964  12.865
37055W        W 1875   9.271  14.741  13.014
37056W        W 1876  12.822   2.372   3.323
37057W        W 1877   8.998  19.821  12.163
37058W        W 1878  30.428  44.318   1.874
37059W        W 1879  43.724  42.728  14.065
37060W        W 1880  27.455  23.294   2.369
37061W        W 1881  36.486   3.495   0.992
37062W        W 1882  20.044   1.841  13.520
37063W        W 1883  10.382  38.443   0.731
37064W        W 1884   7.695  21.239  13.902
37065W        W 1885  18.751  21.060  10.812
37066W        W 1886  41.870  26.072   0.519
37067W        W 1887  22.104  13.960   2.194
37068W        W 1888   9.208  11.651  11.955
37069W        W 1889  38.084  42.804   4.533
37070W        W 1890  34.167  44.022  11.912
37071W        W 1891  30.394  35.342  13.498
37072W        W 1892  14.933  13.120   2.641
37073W        W 1893   5.353  29.379   2.608
37074W        W 1894  15.624  16.812   3.306
37075W        W 1895   5.232  26.401   1.444
37076W        W 1896   3.429   5.462   1.782
37077W        W 1897  26.324   6.452  14.651
37078W        W 1898  42.102  19.149  14.033
37079W        W 1899  10.452  30.439  14.751
37080W        W 1900  16.246  37.455  12.126
37081W        W 1901  42.396  29.901   0.027
37082W        W 1902  28.546   1.207   3.765
37083W        W 1903  17.666  35.422   4.718
37084W        W 1904  12.765  23.289  11.027
37085W        W 1905  37.525  16.243  14.022
37086W        W 1906  41.814  34.043  11.481
37087W        W 1907   5.502  44.802   0.267
37088W        W 1908  30.520  26.058   4.106
37089W        W 1909  44.788  10.129   2.283
37090W        W 1910  30.919  15.090  11.000
37091W        W 1911  34.971  20.124  10.176
37092W        W 1912  24.745  18.304  13.249
37093W        W 1913  20.284  15.001  12.775
37094W        W 1914  35.836   3.441   1.313
37095W        W 1915  39.435   6.634   3.709
37096W        W 1916  34.370  16.561   3.179
37097W        W 1917   2.703   4.060   4.627
37098W        W 1918  13.837  31.065  14.368
37099W        W 1919  27.652  24.054   3.662
37100W        W 1920  11.393  31.596  13.454
37101W        W 1921   3.996  22.903   3.657
37102W        W 1922   9.887   3.902   2.126
37103W        W 1923  40.024   9.888  13.471
37104W        W 1924   4.894  16.082   3.711
37105W        W 1925  26.283  36.429  12.765
37106W        W 1926  38.135  20.206   0.526
37107W        W 1927  15.181  10.748   4.775
37108W        W 1928  43.181  11.748   0.152
37109W        W 1929  38.857  10.819  12.971
37110W        W 1930  26.185  23.961   1.178
37111W        W 1931  25.062   5.016   1.209
37112W        W 1932  10.638  20.580   4.851
37113W        W 1933  14.414   1.357   4.843
37114W        W 1934  43.242  44.326  13.452
37115W        W 1935  38.179  11.652   3.777
37116W        W 1936  26.144  22.159  10.307
37117W        W 1937  12.161  12.836  14.243
37118W        W 1938   3.252  38.358   4.317
37119W        W 1939  40.408  39.027   0.464
37120W        W 1940   0.837  33.745  13.297
37121W        W 1941  43.020   8.442  13.941
37122W        W 1942   0.286  40.577   4.577
37123W        W 1943  41.487  24.534   0.863
37124W        W 1944  18.361   1.525  13.191
37125W        W 1945   6.852   3.522  14.221
37126W        W 1946  41.201  13.667   3.577
37127W        W 1947  33.345  37.625  12.586
37128W        W 1948  44.447  22.698  10.519
37129W        W 1949   0.962  44.403   0.413
37130W        W 1950  42.785  12.199   0.298
37131W        W 1951  14.514  10.629  12.042
37132W        W 1952  29.494  42.266   0.984
37133W        W 1953   2.193   0.801   4.121
37134W        W 1954   5.135   8.281   1.717
37135W        W 1955  42.940  21.800   1.353
37136W        W 1956  43.290  39.392  11.673
37137W        W 1957   3.041  17.258  12.338
37138W        W 1958  36.667  23.696   4.599
37139W        W 1959  37.922  28.001   3.394
37140W        W 1960  18.331  28.160  13.369
37141W        W 1961  17.754  26.747   4.258
37142W        W 1962  34.793  12.073  13.411
37143W        W 1963  22.627  29.194  11.158
37144W        W 1964  28.339   0.229   4.707
37145W        W 1965   6.054   4.085  11.576
37146W        W 1966  16.255  42.302  12.535
37147W        W 1967   3.027  31.156   3.664
37148W        W 1968  30.507  35.554  12.915
37149W        W 1969  32.874  19.751   0.327
37150W        W 1970  20.316  13.715  10.700
37151W        W 1971  31.037  36.966  10.281
37152W        W 1972   8.210  12.117   1.770
37153W        W 1973   6.230  44.000  13.095
37154W        W 1974   9.405  29.443   4.219
37155W        W 1975   8.462  33.193  13.042
37156W        W 1976  35.577   7.742  12.100
37157W        W 1977  32.712  34.753  12.468
37158W        W 1978  17.382  19.852  11.426
37159W        W 1979   4.050  10.573  13.962
37160W        W 1980  18.929  28.628  11.621
37161W        W 1981  14.586   8.438  14.790
37162W        W 1982  15.524  41.515  11.634
37163W        W 1983  36.417   3.898  11.176
37164W        W 1984  41.956  30.864  11.491
37165W        W 1985  15.706   9.194   4.170
37166W        W 1986  19.872  16.179  13.056
37167W        W 1987  34.861  34.461  13.421
37168W        W 1988   0.329  28.454  14.733
37169W        W 1989  39.012  42.739   4.548
37170W        W 1990  33.364   6.402  14.819
37171W        W 1991  20.351  29.238   4.288
37172W        W 1992  11.152   0.781   1.301
37173W        W 1993   7.109  41.893   1.949
37174W        W 1994  23.179  10.314   0.305
37175W        W 1995  27.273   8.192   4.232
37176W        W 1996  17.570  14.505   1.295
37177W        W 1997   9.649  34.455  14.286
37178W        W 1998  43.378  42.264  14.024
37179W        W 1999   8.146  34.469   3.396
37180W        W 2000   9.752  42.853  11.406
37181W        W 2001  40.367  41.737  14.006
37182W        W 2002  27.342   4.143   2.804
37183W        W 2003  16.669  28.649  13.355
37184W        W 2004   5.990  41.490   4.300
37185W        W 2005  40.561   6.636   0.363
37186W        W 2006   0.039   2.433   1.420
37187W        W 2007  30.064  18.285   3.405
37188W        W 2008  13.121  13.546  14.541
37189W        W 2009  21.472  29.554  10.767
37190W        W 2010  17.077   8.228   2.884
37191W        W 2011  13.586   4.032   2.838
37192W        W 2012   3.210  10.878   4.812
37193W        W 2013  38.265  21.522   1.854
37194W        W 2014  33.413  43.392  13.984
37195W        W 2015  33.575  27.633  11.446
37196W        W 2016  28.560  11.639   2.341
37197W        W 2017  23.580  31.599   0.787
37198W        W 2018  36.873  11.083   2.596
37199W        W 2019  11.835   0.679   2.746
37200W        W 2020  43.828  39.407  12.375
37201W        W 2021   2.403  38.095  10.533
37202W        W 2022   2.957  16.542  13.916
37203W        W 2023   1.232   5.216  12.567
37204W        W 2024  22.183  37.096  14.921
37205W        W 2025  36.624   6.748  11.963
37206W        W 2026   5.475  40.368  14.840
37207W        W 2027  30.662  15.086   2.825
37208W        W 2028  12.777  29.857   2.777
37209W        W 2029  39.610  10.078   3.589
37210W        W 2030  25.198  38.759  13.968
37211W        W 2031   8.755   2.241   3.669
37212W        W 2032  27.187  23.171  14.075
37213W        W 2033   4.366  14.981   0.361
37214W        W 2034  21.156  34.482   4.666
37215W        W 2035  41.266   9.284  14.906
37216W        W 2036  16.263  35.541   3.254
37217W        W 2037   2.766  43.317  14.927
37218W        W 2038  16.819  11.422   4.643
37219W        W 2039  30.135  38.444  14.009
37220W        W 2040  28.689  22.444   0.453
37221W        W 2041  15.553   8.216   1.262
37222W        W 2042  13.885  17.602   2.289
37223W        W 2043  39.112   2.004  10.530
37224W        W 2044  42.738  34.989  14.961
37225W        W 2045  43.682  19.606   5.142
37226W        W 2046  13.335  21.148   0.656
37227W        W 2047  32.589  13.891  13.055
37228W        W 2048  31.847  28.681   4.953
37229W        W 2049  19.931   9.337   0.038
37230W        W 2050  24.107  19.468   0.898
37231W        W 2051  18.759  19.819   5.119
37232W        W 2052  11.359  44.516  10.746
37233W        W 2053  31.612  35.852  11.696
37234W        W 2054  39.744  20.628   0.443
37235W        W 2055  14.286  23.206   2.900
37236W        W 2056  38.434  28.276   0.853
37237W        W 2057  33.907   6.844  13.049
37238W        W 2058  29.067  32.479   0.325
37239W        W 2059  15.054   9.699  12.119
37240W        W 2060   4.245   1.670  14.940
37241W        W 2061  21.668  35.676   0.443
37242W        W 2062  11.240  39.403   3.949
37243W        W 2063   3.805  31.896   2.815
37244W        W 2064  27.327  27.242   0.488
37245W        W 2065  12.985   7.676  12.989
37246W        W 2066  23.521   4.866  11.474
37247W        W 2067  34.476  15.331  11.150
37248W        W 2068  13.520  26.532  11.536
37249W        W 2069  18.847  44.720  11.164
37250W        W 2070   5.813   6.698   4.165
37251W        W 2071  26.124   5.888   3.039
37252W        W 2072  36.380  24.729   3.729
37253W        W 2073  40.496  23.538  13.777
37254W        W 2074   1.852  44.580  12.896
37255W        W 2075  15.729  29.604   3.261
37256W        W 2076  20.625  41.059  12.009
37257W        W 2077  33.360  20.648   1.799
37258W        W 2078   5.206  31.653  11.963
37259W        W 2079  37.910   0.907  14.502
37260W        W 2080  11.047   9.359   0.499
37261W        W 2081  38.535  30.457   2.651
37262W        W 2082  29.907   9.030   0.509
37263W        W 2083  43.870  33.566   3.070
37264W        W 2084  26.424  43.322   0.980
37265W        W 2085  11.186   2.729   0.015
37266W        W 2086  26.953  17.325   3.195
37267W        W 2087  28.172   3.793   0.759
37268W        W 2088  18.977  32.049  11.062
37269W        W 2089  21.127  43.308   4.011
37270W        W 2090  31.649   1.533   3.163
37271W        W 2091  18.291  25.952   2.400
37272W        W 2092  35.917  19.718   2.413
37273W        W 2093   4.204  28.448   2.761
37274W        W 2094  29.872  17.452   3.626
37275W        W 2095  22.929   2.282   4.067
37276W        W 2096  30.928  23.433  10.547
37277W        W 2097   1.966  16.415  12.829
37278W        W 2098   8.268  23.644   2.055
37279W        W 2099   8.258  43.990   2.771
37280W        W 2100  43.038  10.184   1.603
37281W        W 2101  37.100   6.284  11.192
37282W        W 2102  40.974  39.100   1.562
37283W        W 2103  33.556   6.704   4.587
37284W        W 2104  25.909  29.606  11.162
37285W        W 2105   9.129  19.046  14.906
37286W        W 2106  39.062   0.841   2.801
37287W        W 2107   2.780  44.432   4.310
37288W        W 2108  12.864  12.594  10.668
37289W        W 2109   8.606  33.128   3.612
37290W        W 2110  16.082  44.627  12.141
37291W        W 2111  26.984  24.550   0.515
37292W        W 2112   9.479  11.918   2.251
37293W        W 2113  17.053  21.578   3.719
37294W        W 2114   4.215  10.427  12.924
37295W        W 2115   2.414  23.003  14.381
37296W        W 2116  32.678  40.325  11.962
37297W        W 2117  38.433  20.639   2.361
37298W        W 2118  29.689   2.636   1.886
37299W        W 2119  24.778   7.268  12.829
37300W        W 2120  11.229  31.679   4.205
37301W        W 2121  12.274   3.325  12.315
37302W        W 2122   7.174  41.967   5.348
37303W        W 2123  37.964  41.949  12.270
37304W        W 2124  24.989  24.240  14.327
37305W        W 2125  28.157   2.454  14.924
37306W        W 2126   3.413  44.213   2.662
37307W        W 2127  24.555   2.659   1.783
37308W        W 2128  18.763   3.669  10.719
37309W        W 2129  10.153  38.251   2.694
37310W        W 2130   8.168  36.446   0.342
37311W        W 2131   3.789  44.870  13.361
37312W        W 2132   6.605  17.793  13.577
37313W        W 2133  42.512   1.821   3.961
37314W        W 2134   1.868  44.472  10.126
37315W        W 2135  29.458  28.679   1.776
37316W        W 2136  42.009  22.992   3.120
37317W        W 2137  44.325   2.519   2.489
37318W        W 2138  16.816  10.837  13.123
37319W        W 2139  10.176  23.198   4.680
37320W        W 2140  43.254  23.222  12.778
37321W        W 2141  30.664  14.297   1.780
37322W        W 2142  18.170  41.452  11.977
37323W        W 2143  13.778  18.054   2.658
37324W        W 2144  35.636  43.333  11.969
37325W        W 2145  34.591  31.130  14.878
37326W        W 2146   6.154   0.869   2.217
37327W        W 2147   2.239  40.564  11.159
37328W        W 2148  31.921  44.718   2.411
37329W        W 2149  34.992  38.973  11.260
37330W        W 2150  14.763  36.450  13.433
37331W        W 2151  31.033  11.259   2.805
37332W        W 2152   9.509   0.726  11.212
37333W        W 2153  32.363   5.749   0.363
37334W        W 2154  37.396  29.994  14.944
37335W        W 2155   2.798  37.166   2.737
37336W        W 2156  24.481   2.352   2.685
37337W        W 2157  28.518  40.432   2.587
37338W        W 2158  38.636  14.194   3.220
37339W        W 2159   2.523  36.360   2.741
37340W        W 2160  40.183  19.940  14.384
37341W        W 2161   3.614   9.474  11.138
37342W        W 2162  24.621  19.452  12.497
37343W        W 2163  38.041  18.807  10.675
37344W        W 2164  40.007  20.229   4.070
37345W        W 2165   0.541  12.935   0.403
37346W        W 2166  33.110   6.305   3.785
37347W        W 2167  41.175  27.680   3.178
37348W        W 2168  24.936  35.903  10.418
37349W        W 2169  40.606  23.184   4.881
37350W        W 2170  22.732  13.311   1.285
37351W        W 2171   4.298  31.556  11.520
37352W        W 2172   2.330  27.375  13.872
37353W        W 2173  37.906  25.114   2.800
37354W        W 2174  23.604  38.606   0.824
37355W        W 2175  20.627   0.598   4.615
37356W        W 2176  11.337   0.530  11.798
37357W        W 2177  26.662   2.786   0.793
37358W        W 2178  17.577  28.445  13.066
37359W        W 2179  29.272  11.781   2.640
37360W        W 2180   7.188   5.345   1.895
37361W        W 2181  14.750  15.263   3.444
37362W        W 2182   6.890  28.841  12.000
37363W        W 2183  33.256  37.082  12.518
37364W        W 2184   4.159  26.107   0.658
37365W        W 2185  18.305   6.580   4.176
37366W        W 2186  33.637  24.974   0.216
37367W        W 2187  13.698   6.814   4.735
37368W        W 2188   0.905  35.495   2.852
37369W        W 2189  41.843  39.789   0.851
37370W        W 2190  19.721   2.854  11.218
37371W        W 2191  35.128  29.125   2.152
37372W        W 2192  40.416  22.966   3.131
37373W        W 2193  23.183  34.090  12.037
37374W        W 2194  27.962  38.868   0.916
37375W        W 2195  31.155  18.218  14.994
37376W        W 2196  40.261  14.655  11.460
37377W        W 2197  33.148  35.350   2.382
37378W        W 2198   1.320  27.463  11.838
37379W        W 2199  44.174  21.578  14.024
37380W        W 2200  36.470  33.668   2.325
37381W        W 2201   2.408  42.051  10.415
37382W        W 2202  38.113   1.585   4.189
37383W        W 2203  40.640  31.934  13.336
37384W        W 2204  29.042   5.884   3.732
37385W        W 2205  44.454  20.103  14.334
37386W        W 2206  40.007   9.382  13.474
37387W        W 2207  44.521  41.418   2.635
37388W        W 2208  25.646  13.152  12.548
37389W        W 2209  43.537  18.672  13.056
37390W        W 2210  30.978  12.733  14.906
37391W        W 2211  14.977  14.666  13.022
37392W        W 2212  41.262  28.432   4.577
37393W        W 2213  13.906  12.405  13.988
37394W        W 2214  44.686  25.244  13.351
37395W        W 2215   1.230  19.564  14.871
37396W        W 2216  23.648   0.533  12.425
37397W        W 2217  11.014  22.106  12.193
37398W        W 2218  43.878  18.113   0.245
37399W        W 2219  20.011   9.218   3.053
37400W        W 2220  43.328  10.514   3.623
37401W        W 2221  13.765   0.157  11.939
37402W        W 2222  25.833  24.915  13.071
37403W        W 2223  42.938  26.668  10.298
37404W        W 2224  28.591  34.488  11.741
37405W        W 2225  27.101  32.396   4.368
37406W        W 2226  43.038  26.481   2.110
37407W        W 2227  19.725  32.372  11.116
37408W        W 2228   6.212   3.964  13.453
37409W        W 2229  31.385   2.357   3.882
37410W        W 2230  43.203   3.725   0.436
37411W        W 2231   1.932  29.969  13.963
37412W        W 2232  21.817  37.600   1.696
37413W        W 2233  40.241  26.951  11.637
37414W        W 2234  14.501   5.852  12.860
37415W        W 2235  36.524  12.416   0.381
37416W        W 2236  10.743  17.312   5.020
37417W        W 2237  36.998  33.215   3.393
37418W        W 2238  20.155   6.087   3.591
37419W        W 2239   1.029  13.736   1.363
37420W        W 2240  21.019  20.996  14.077
37421W        W 2241  15.684  17.120   0.910
37422W        W 2242  10.840  40.758   0.343
37423W        W 2243  38.974  30.256   2.464
37424W        W 2244  22.989  11.600   1.877
37425W        W 2245  14.770   3.874   4.017
37426W        W 2246   6.296  39.470   1.992
37427W        W 2247  12.878  41.005   1.863
37428W        W 2248  30.375  16.689  11.168
37429W        W 2249  12.035   3.385  11.020
37430W        W 2250  22.970  40.374  13.878
37431W        W 2251  27.244  20.086  12.938
37432W        W 2252  16.360  26.826   0.305
37433W        W 2253  16.850   4.749   2.693
37434W        W 2254  43.653  27.534   1.352
37435W        W 2255  14.158   7.262   0.365
37436W        W 2256  24.280  15.156  11.183
37437W        W 2257  11.812  40.637   0.583
37438W        W 2258  37.570  30.676  14.322
37439W        W 2259   7.205  10.518  12.455
37440W        W 2260  21.023  30.902  12.492
37441W        W 2261  20.791  13.562   0.341
37442W        W 2262  17.254  25.383  12.896
37443W        W 2263  29.157  27.384  12.945
37444W        W 2264   8.376  38.319  14.836
37445W        W 2265  34.649  34.921  13.535
37446W        W 2266  17.610  38.267  12.080
37447W        W 2267  43.824   1.959   3.695
37448W        W 2268   5.175  13.941   0.373
37449W        W 2269   8.300  40.780   4.295
37450W        W 2270  42.090  23.829  14.492
37451W        W 2271  37.830  14.727  11.013
37452W        W 2272   2.880  12.793  12.926
37453W        W 2273  13.141  30.925   4.204
37454W        W 2274  31.363  12.411   3.151
37455W        W 2275  41.267  40.672   2.495
37456W        W 2276  24.458  43.718  14.014
37457W        W 2277  37.520  20.037   2.479
37458W        W 2278  36.594   5.949   2.516
37459W        W 2279  26.141  30.686  11.932
37460W        W 2280  18.786  42.931   0.228
37461W        W 2281  28.757  34.271   4.568
37462W        W 2282  36.428  38.027   0.935
37463W        W 2283  18.570  14.252  12.843
37464W        W 2284  33.814   8.409   1.290
37465W        W 2285  43.429  15.556  12.580
37466W        W 2286  11.578  37.605   2.784
37467W        W 2287  21.547  25.919   2.877
37468W        W 2288  35.036   3.738   2.213
37469W        W 2289  16.088  28.439  14.908
37470W        W 2290   3.323  16.281  14.280
37471W        W 2291  38.265  20.182  13.555
37472W        W 2292  40.302  37.680   2.418
37473W        W 2293  35.841  35.495  14.449
37474W        W 2294   2.195  34.583  10.739
37475W        W 2295  18.626  21.064   1.299
37476W        W 2296  23.597  33.551  12.423
37477W        W 2297   5.192  40.904  14.542
37478W        W 2298   8.278  32.576  12.604
37479W        W 2299  26.025   6.866  12.920
37480W        W 2300  11.863  16.322   1.272
37481W        W 2301  32.657  11.974   2.360
37482W        W 2302  20.474  23.096   4.195
37483W        W 2303  39.781   9.948   9.920
37484W        W 2304  31.527  36.446  14.420
37485W        W 2305  19.156  14.148  14.315
37486W        W 2306  20.357  20.886   0.481
37487W        W 2307  10.950  39.370   3.504
37488W        W 2308  10.136  39.793  12.646
37489W        W 2309  16.986  40.016   3.092
37490W        W 2310  36.053   5.557   4.005
37491W        W 2311  19.132  32.943  10.773
37492W        W 2312  22.362  17.183  12.406
37493W        W 2313  11.229  23.220   2.194
37494W        W 2314  43.708  13.579   0.714
37495W        W 2315  14.280  12.295   0.776
37496W        W 2316  18.352  32.008   0.840
37497W        W 2317  21.020   8.093  11.640
37498W        W 2318   4.231  33.125   3.719
37499W        W 2319  44.381  22.796   1.503
37500W        W 2320  26.761  17.423  11.562
37501W        W 2321  44.553  17.730   2.706
37502W        W 2322  17.678  43.274  13.416
37503W        W 2323   4.407  36.173  13.018
37504W        W 2324   2.000  10.664  12.191
37505W        W 2325   4.847  16.241  14.379
37506W        W 2326  35.627  43.822  14.018
37507W        W 2327  10.641  28.709   3.730
37508W        W 2328   5.202  14.966  11.941
37509W        W 2329   7.384  44.254  11.154
37510W        W 2330  44.781   5.542  11.468
37511W        W 2331  11.091  22.617  12.326
37512W        W 2332   1.808   2.358   2.740
37513W        W 2333  11.913  22.545   0.253
37514W        W 2334  28.658   5.324   1.434
37515W        W 2335  10.358  25.407  12.921
37516W        W 2336  36.126  24.029  12.021
37517W        W 2337  18.838  17.724  11.601
37518W        W 2338  38.010  39.882  13.984
37519W        W 2339  35.895  23.229  14.214
37520W        W 2340  43.618  26.480   3.223
37521W        W 2341  28.537  13.766   3.762
37522W        W 2342  10.950   1.977  11.560
37523W        W 2343  37.017  33.533   0.659
37524W        W 2344  25.655   9.450   4.465
37525W        W 2345   5.887   9.073  13.426
37526W        W 2346  27.629  18.184   4.319
37527W        W 2347  44.072  35.399   1.511
37528W        W 2348  13.076   3.942  11.101
37529W        W 2349  44.635  19.111   9.883
37530W        W 2350  35.033  29.382  11.063
37531W        W 2351  29.040  28.002  12.059
37532W        W 2352  27.635  10.579  14.036
37533W        W 2353  16.156  34.519  11.178
37534W        W 2354  30.416  20.761  14.517
37535W        W 2355  17.671  12.643  13.532
37536W        W 2356  33.125  30.406   2.386
37537W        W 2357  44.985  31.034   1.739
37538W        W 2358  13.782   3.887   3.691
37539W        W 2359   5.628  20.303  13.525
37540W        W 2360   1.403  35.908  13.351
37541W        W 2361   7.610  40.004  14.753
37542W        W 2362   5.389   2.175   0.564
37543W        W 2363  14.134  26.247  12.097
37544W        W 2364  26.042  31.978   4.508
37545W        W 2365  27.650   1.477   1.126
37546W        W 2366  21.950  28.533  11.196
37547W        W 2367   0.720  32.365   2.835
37548W        W 2368  40.969  41.845   4.865
37549W        W 2369   0.028  19.896   2.933
37550W        W 2370  21.544   1.917  12.028
37551W        W 2371  34.612  43.970  13.578
37552W        W 2372  35.276  40.776  13.040
37553W        W 2373  18.178   8.572   1.755
37554W        W 2374  30.917  44.955   4.721
37555W        W 2375  42.083   1.929   2.206
37556W        W 2376  34.618  39.743   4.138
37557W        W 2377  29.162  25.992   3.879
37558W        W 2378  34.195  30.629  12.035
37559W        W 2379  40.489  32.535  12.426
37560W        W 2380  26.969  29.443  14.429
37561W        W 2381  38.271  18.684   3.958
37562W        W 2382   3.726  18.630   4.596
37563W        W 2383  38.094  41.601   1.164
37564W        W 2384  11.542  17.533  11.219
37565W        W 2385  31.642  43.243   2.399
37566W        W 2386  24.725  34.941   1.238
37567W        W 2387  17.538   3.212  12.178
37568W        W 2388   2.874   0.187   1.437
37569W        W 2389  23.124   5.020  13.101
37570W        W 2390   0.868  20.294   1.794
37571W        W 2391  34.674  41.361   4.665
37572W        W 2392  39.864   8.538   4.168
37573W        W 2393  15.459   3.785  14.447
37574W        W 2394  24.619  11.994   0.873
37575W        W 2395  18.412  39.431  10.395
37576W        W 2396   7.200  28.895  13.582
37577W        W 2397  29.535  14.775   4.595
37578W        W 2398  37.584  24.104   4.583
37579W        W 2399  20.056  27.102  14.036
37580W        W 2400   0.288   9.488  13.998
37581W        W 2401  24.986  34.330  11.837
37582W        W 2402  20.625  19.424  13.849
37583W        W 2403   3.830  24.966   2.164
37584W        W 2404  29.267   0.813   4.648
37585W        W 2405  38.984   6.807  10.555
37586W        W 2406  22.088  19.490   2.790
37587W        W 2407  14.716   7.331   0.258
37588W        W 2408  14.005   0.223  13.525
37589W        W 2409  20.780  17.125  13.852
37590W        W 2410  32.795  42.801   4.050
37591W        W 2411  31.107  12.257  13.286
37592W        W 2412  36.258  16.130  13.066
37593W        W 2413   9.718  10.216   0.949
37594W        W 2414  38.128   9.849  14.138
37595W        W 2415   8.884   1.255  12.607
37596W        W 2416  17.625  24.944   0.341
37597W        W 2417  21.993  28.656   3.351
37598W        W 2418  25.642  35.202  14.250
37599W        W 2419  33.082   5.730   0.912
37600W        W 2420  38.443  39.022  12.930
37601W        W 2421  25.689   5.957  14.020
37602W        W 2422  12.617   4.370   1.253
37603W        W 2423  30.191  23.430   1.771
37604W        W 2424  17.542  35.397  11.170
37605W        W 2425   3.445  32.487  12.514
37606W        W 2426   6.398  24.505  14.784
37607W        W 2427  13.265  25.149  10.430
37608W        W 2428  37.471  12.911  12.024
37609W        W 2429  39.290  17.744   4.394
37610W        W 2430  24.900  43.690   4.629
37611W        W 2431  39.972  38.874  13.186
37612W        W 2432   5.308  41.140   4.674
37613W        W 2433  28.380  16.607  14.755
37614W        W 2434  39.551  13.292   0.317
37615W        W 2435  42.990  23.502   0.849
37616W        W 2436   5.881   8.190   2.347
37617W        W 2437  11.902  28.586  12.400
37618W        W 2438  44.718   9.091  11.524
37619W        W 2439   6.775   3.008  11.535
37620W        W 2440   9.474  11.769  12.429
37621W        W 2441   6.618  27.470  14.467
37622W        W 2442   6.736  15.058  10.801
37623W        W 2443   9.093  25.544   3.867
37624W        W 2444  36.240  22.678   0.338
37625W        W 2445  12.885  15.336  14.771
37626W        W 2446  14.308   8.729  13.152
37627W        W 2447   7.028  10.376   0.849
37628W        W 2448  42.711  24.919  14.314
37629W        W 2449  34.900  28.091   3.235
37630W        W 2450  25.585   1.214   2.358
37631W        W 2451  15.340  13.670  14.459
37632W        W 2452  27.255  18.180   3.599
37633W        W 2453  37.299  16.514  12.121
37634W        W 2454   9.497   2.385  11.264
37635W        W 2455  39.250  24.186  13.351
37636W        W 2456  11.786   5.760  12.930
37637W        W 2457  39.573  35.112   0.415
37638W        W 2458  15.511   3.036  13.954
37639W        W 2459  11.193   0.390   0.256
37640W        W 2460  36.943   7.963   3.174
37641W        W 2461  44.334   0.996   2.696
37642W        W 2462  20.253  44.512   2.309
37643W        W 2463  12.875   0.349  12.019
37644W        W 2464   2.797  43.256   0.426
37645W        W 2465  17.669  35.576  14.434
37646W        W 2466  29.858  16.682   3.314
37647W        W 2467   8.320  25.567  11.691
37648W        W 2468   3.682  34.502   2.659
37649W        W 2469  24.608   0.206   1.475
37650W        W 2470  21.803  10.019  10.191
37651W        W 2471   6.904  14.134  14.990
37652W        W 2472   5.313  25.282  13.073
37653W        W 2473  24.035  40.523  14.037
37654W        W 2474  26.732  38.388  11.419
37655W        W 2475  15.289   4.381  12.627
37656W        W 2476  31.907  39.268   0.407
37657W        W 2477  33.213  26.395   0.254
37658W        W 2478  27.150   7.701   1.392
37659W        W 2479   9.612  28.128   4.532
37660W        W 2480  39.923  29.985   2.426
37661W        W 2481  16.648  38.061  13.579
37662W        W 2482  22.746  38.561  11.088
37663W        W 2483   6.791  34.387  13.722
37664W        W 2484  34.665  12.387  13.820
37665W        W 2485  20.557  35.825   9.806
37666W        W 2486  44.504  13.881   4.123
37667W        W 2487   7.643  37.767  11.990
37668W        W 2488  40.786   4.197  11.073
37669W        W 2489  17.717  40.504   1.808
37670W        W 2490  19.646  15.160   1.485
37671W        W 2491  39.804  12.549  12.750
37672W        W 2492  11.152  17.739  14.588
37673W        W 2493   5.100  28.451   2.758
37674W        W 2494  10.582  36.256   2.698
37675W        W 2495  38.481  28.923   0.246
37676W        W 2496  23.935  26.522   1.156
37677W        W 2497  26.124  40.291   2.943
37678W        W 2498  11.409   6.989  12.058
37679W        W 2499  28.715  10.339   0.736
37680W        W 2500  16.098  36.243   2.780
37681W        W 2501  15.128  28.641  14.106
37682W        W 2502  24.581  32.110   4.481
37683W        W 2503  15.501  13.272  11.394
37684W        W 2504  35.830  15.843  13.959
37685W        W 2505  32.719  29.176  13.313
37686W        W 2506  28.460  39.952   4.942
37687W        W 2507  17.537  28.406  14.505
37688W        W 2508  14.843   5.269  12.217
37689W        W 2509  42.509   2.636   1.797
37690W        W 2510   4.386  26.493  10.721
37691W        W 2511  21.562  34.803   4.495
37692W        W 2512  29.014  37.287  11.657
37693W        W 2513  17.638  33.834  14.472
37694W        W 2514  33.135  16.753  13.929
37695W        W 2515   5.725  39.710   1.847
37696W        W 2516  28.952  17.245  12.064
37697W        W 2517   3.622  40.798  11.635
37698W        W 2518  40.574   7.044   0.667
37699W        W 2519  25.707   8.210  12.194
37700W        W 2520  19.187  40.231   3.399
37701W        W 2521   2.718  21.605   2.648
37702W        W 2522  32.521  10.164  11.557
37703W        W 2523  30.226  15.217   1.668
37704W        W 2524   2.396  40.960  14.901
37705W        W 2525  13.625  18.448  11.237
37706W        W 2526  35.001   3.830  14.372
37707W        W 2527  17.055  29.583  11.351
37708W        W 2528  18.170   6.924   3.336
37709W        W 2529  34.851  31.576  13.095
37710W        W 2530  34.727  29.326   1.220
37711W        W 2531  43.836  31.890   4.853
37712W        W 2532  12.656   1.038  14.563
37713W        W 2533   0.479   7.705  13.029
37714W        W 2534   1.342  44.400  14.041
37715W        W 2535   7.867  33.088  14.341
37716W        W 2536  38.579   3.939  11.105
37717W        W 2537  32.770  12.092   3.334
37718W        W 2538  14.751  23.614   3.684
37719W        W 2539   1.005  14.454   0.681
37720W        W 2540   2.459  37.964  13.729
37721W        W 2541  13.341  19.719   5.181
37722W        W 2542  20.163   9.460  11.616
37723W        W 2543  12.167  39.630  12.214
37724W        W 2544   2.995  30.543   3.681
37725W        W 2545  31.218  29.485  12.012
37726W        W 2546  31.427  41.551   0.033
37727W        W 2547  13.295  34.498  13.887
37728W        W 2548  13.237  25.566  14.788
37729W        W 2549   3.728  23.647   4.247
37730W        W 2550   8.091  19.051   4.829
37731W        W 2551  42.898  11.199   3.709
37732W        W 2552   7.703  44.745   1.787
37733W        W 2553  27.009  30.396  10.405
37734W        W 2554  29.722  28.651   2.720
37735W        W 2555  28.143  41.319  14.916
37736W        W 2556  34.981  28.066  12.418
37737W        W 2557  42.025  41.975   3.696
37738W        W 2558   8.292  19.538  10.336
37739W        W 2559  38.157  16.690  12.941
37740W        W 2560   2.990   1.077   2.817
37741W        W 2561  25.137  39.197  13.069
37742W        W 2562  20.669  32.619   2.197
37743W        W 2563  36.308  35.973   1.163
37744W        W 2564   6.297  41.796  13.944
37745W        W 2565  13.117  37.329  14.413
37746W        W 2566  20.684  14.809  14.768
37747W        W 2567  39.375  10.630  13.458
37748W        W 2568  43.595   7.235  14.552
37749W        W 2569   4.633  42.297   2.198
37750W        W 2570  37.096  25.167  11.046
37751W        W 2571  15.109   6.546   1.290
37752W        W 2572   0.408  44.767   2.384
37753W        W 2573  15.040  34.297   4.114
37754W        W 2574  17.674  20.254   2.671
37755W        W 2575  12.675  16.853  11.242
37756W        W 2576  42.830  39.545   1.743
37757W        W 2577   3.807  44.710  10.971
37758W        W 2578  34.513  44.913   2.577
37759W        W 2579  43.771  32.647   1.904
37760W        W 2580  39.278   1.173  11.142
37761W        W 2581   9.151   7.351   0.815
37762W        W 2582  43.683   2.954   3.601
37763W        W 2583   3.277  13.609  12.892
37764W        W 2584  43.750  27.016  12.485
37765W        W 2585   0.158  26.650   0.352
37766W        W 2586  38.310  22.263   3.605
37767W        W 2587  43.731   0.880  13.408
37768W        W 2588   5.053  15.118  13.808
37769W        W 2589   3.797  29.447  13.005
37770W        W 2590  39.282  43.969  13.142
37771W        W 2591   9.883   3.800   1.619
37772W        W 2592   9.689  10.663   4.096
37773W        W 2593  17.137   2.693   0.537
37774W        W 2594  36.646  20.681  14.509
37775W        W 2595  41.915  21.492  14.136
37776W        W 2596  32.810  16.655  12.589
37777W        W 2597  41.955  11.139  13.493
37778W        W 2598  38.056   3.539  13.576
37779W        W 2599  32.481  27.083   0.422
37780W        W 2600  18.733  39.486  12.096
37781W        W 2601  28.434   6.720  12.423
37782W        W 2602   0.717  17.257   4.466
37783W        W 2603   6.256  37.896  10.625
37784W        W 2604   5.220   1.120   2.605
37785W        W 2605  20.314  13.887   1.285
37786W        W 2606   6.340  41.434  11.202
37787W        W 2607  31.389  44.321  12.090
37788W        W 2608  10.038  19.206   4.183
37789W        W 2609  23.230   5.754   3.155
37790W        W 2610  37.410   7.232  14.503
37791W        W 2611  10.641  14.701  10.589
37792W        W 2612  15.607  17.646  11.086
37793W        W 2613  25.965  29.618   2.355
37794W        W 2614  21.329  29.479   1.910
37795W        W 2615  20.160  35.842   2.140
37796W        W 2616   0.355  21.631  12.143
37797W        W 2617  32.009   4.514   3.942
37798W        W 2618   8.098  33.858  10.594
37799W        W 2619   2.199  17.728  12.565
37800W        W 2620  21.067   0.404  10.969
37801W        W 2621   8.177  18.512   4.841
37802W        W 2622  38.601  21.926   1.994
37803W        W 2623  36.431  12.422  13.865
37804W        W 2624  41.340  28.735  14.446
37805W        W 2625   4.369  32.115   2.046
37806W        W 2626  14.116   5.747  10.711
37807W        W 2627  26.219  34.094   0.481
37808W        W 2628  22.645  40.295   1.279
37809W        W 2629  11.273   2.402   3.631
37810W        W 2630  29.497  15.249  11.999
37811W        W 2631  19.139  36.098   3.023
37812W        W 2632  23.665  14.843   1.265
37813W        W 2633  10.631  13.540   2.340
37814W        W 2634  30.142  27.928  11.602
37815W        W 2635  15.182  13.627   4.391
37816W        W 2636   5.102  10.838   3.423
37817W        W 2637   5.976   7.944   0.314
37818W        W 2638  33.004   9.429  14.808
37819W        W 2639  30.060   8.290   3.131
37820W        W 2640  32.117  20.277  10.614
37821W        W 2641  39.444  15.164   2.885
37822W        W 2642  22.642  34.688   1.709
37823W        W 2643  37.687   3.213   0.924
37824W        W 2644   0.902   7.674  10.821
37825W        W 2645  36.222  26.298   2.285
37826W        W 2646  19.510  22.320   0.859
37827W        W 2647  30.884  16.196   0.165
37828W        W 2648   7.669  32.245  14.546
37829W        W 2649  33.863   1.573   0.481
37830W        W 2650  32.822  41.010   4.657
37831W        W 2651  30.795  14.502   4.500
37832W        W 2652  35.099   4.428  10.898
37833W        W 2653  29.688  22.911  10.686
37834W        W 2654  26.003   7.900  14.459
37835W        W 2655  15.397  43.517  14.037
37836W        W 2656   5.960  43.817   4.573
37837W        W 2657  17.236  16.324   0.822
37838W        W 2658  39.462  23.119  13.087
37839W        W 2659  32.334  41.967  14.788
37840W        W 2660  36.060  20.714  12.532
37841W        W 2661  27.534  11.227   0.669
37842W        W 2662   3.284   3.033  14.442
37843W        W 2663   3.472  34.891  11.976
37844W        W 2664  27.169  22.302  13.444
37845W        W 2665   4.661  43.986  11.914
37846W        W 2666  21.005   7.711   3.627
37847W        W 2667  41.895  29.959  14.903
37848W        W 2668   7.209  23.017  12.046
37849W        W 2669  19.829  28.834  14.278
37850W        W 2670  33.316  17.569  12.663
37851W        W 2671  38.148  43.435  11.659
37852W        W 2672  38.016  17.027  14.935
37853W        W 2673   7.319   5.831  14.045
37854W        W 2674  40.677   4.266  12.855
37855W        W 2675  40.399  20.657  10.880
37856W        W 2676   3.586  27.843   3.044
37857W        W 2677  38.355  18.760  14.871
37858W        W 2678   8.459  34.251  11.246
37859W        W 2679   8.408   5.888  10.567
37860W        W 2680  38.301  31.507   4.547
37861W        W 2681   2.637  23.784   3.159
37862W        W 2682   5.004  35.295   0.678
37863W        W 2683  37.127  43.226  10.603
37864W        W 2684  22.500  11.957   2.807
37865W        W 2685  10.707  29.642  14.262
37866W        W 2686  31.949  12.746   2.347
37867W        W 2687  30.933  40.378  14.015
37868W        W 2688  27.507  19.760   1.729
37869W        W 2689  40.067  30.537  12.172
37870W        W 2690  35.499   2.329  13.169
37871W        W 2691  41.581  21.590  11.005
37872W        W 2692   3.279  29.349   1.159
37873W        W 2693  26.346  15.661  10.410
37874W        W 2694  25.602  17.424  11.910
37875W        W 2695   8.403  40.357  13.385
37876W        W 2696   0.855  42.815   1.364
37877W        W 2697  10.114   8.180   3.749
37878W        W 2698  34.635  16.749  11.655
37879W        W 2699  27.716   6.284   4.268
37880W        W 2700  20.168  15.226  10.410
37881W        W 2701  12.719  17.608   4.264
37882W        W 2702  30.857  28.493   4.790
37883W        W 2703  11.317   3.482  13.453
37884W        W 2704   0.892  23.985   0.102
37885W        W 2705  40.502  14.246  14.436
37886W        W 2706  26.023  21.530  14.077
37887W        W 2707   4.503  15.833  12.535
37888W        W 2708  26.753  43.383   1.395
37889W        W 2709   0.813  18.457  11.542
37890W        W 2710  11.729  35.535   4.044
37891W        W 2711   3.798  41.130  14.864
37892W        W 2712  19.842  36.100   4.747
37893W        W 2713  11.271  41.503   2.122
37894W        W 2714   1.911  13.709  11.970
37895W        W 2715  43.525   1.400   2.351
37896W        W 2716   4.479  33.806  12.134
37897W        W 2717  14.783  37.849  13.985
37898W        W 2718  20.548  35.584  13.483
37899W        W 2719  44.092  12.329  13.122
37900W        W 2720  20.135  13.365   2.175
37901W        W 2721  42.612  35.350   3.704
37902W        W 2722  16.243  17.631   3.718
37903W        W 2723   4.190   1.262   1.682
37904W        W 2724  11.707  14.838   1.303
37905W        W 2725   5.109  33.262   2.699
37906W        W 2726  22.017  11.097  14.760
37907W        W 2727  32.878  35.242  14.367
37908W        W 2728  26.097  17.951  10.126
37909W        W 2729  34.200   8.451  14.471
37910W        W 2730  18.113  22.053  11.495
37911W        W 2731   4.261  21.674   2.707
37912W        W 2732  29.849  32.007   4.931
37913W        W 2733   5.711   5.645  12.826
37914W        W 2734  16.597  10.847  14.905
37915W        W 2735  12.682  23.872  11.548
37916W        W 2736  25.620  41.231  10.644
37917W        W 2737  22.153  37.600   4.378
37918W        W 2738  42.433   5.747   0.810
37919W        W 2739  35.913  24.179   4.210
37920W        W 2740  35.773  23.316  13.724
37921W        W 2741   3.857   0.521   2.756
37922W        W 2742  38.859   8.333  10.941
37923W        W 2743  31.736  26.504   4.135
37924W        W 2744  18.862  16.854  10.648
37925W        W 2745  16.037  29.763  11.164
37926W        W 2746  29.219  40.556  13.447
37927W        W 2747  34.265  23.589  13.099
37928W        W 2748   4.771   2.724  13.482
37929W        W 2749  39.482  19.302   1.614
37930W        W 2750   6.734  13.356   4.524
37931W        W 2751  11.765  31.606   3.665
37932W        W 2752  13.610   7.933  10.742
37933W        W 2753  41.816   1.207  11.108
37934W        W 2754  27.218   2.885   3.082
37935W        W 2755  37.068  41.005  14.906
37936W        W 2756  31.483  41.918   3.206
37937W        W 2757  38.527  31.573   0.326
37938W        W 2758  39.164  34.023   3.624
37939W        W 2759  40.644  15.681  14.521
37940W        W 2760  40.914  10.035   1.456
37941W        W 2761  30.135  39.550  11.178
37942W        W 2762  32.824  27.090   3.596
37943W        W 2763   1.873   8.823   0.043
37944W        W 2764  28.366  44.929  11.089
37945W        W 2765  25.599   5.770  11.765
37946W        W 2766  32.886   8.822  13.964
37947W        W 2767  36.859   5.880  12.882
37948W        W 2768  12.077  14.669   3.614
37949W        W 2769  15.691  10.470   2.343
37950W        W 2770  43.464  34.397  11.598
37951W        W 2771  14.499  13.534  13.448
37952W        W 2772  35.089  27.250  13.577
37953W        W 2773  28.116   5.954   1.419
37954W        W 2774   4.982  14.014  13.010
37955W        W 2775  43.679  22.630   0.016
37956W        W 2776  24.283  38.843  10.817
37957W        W 2777  33.910   3.320   1.492
37958W        W 2778  21.462  35.599  11.019
37959W        W 2779  19.774  37.632   2.835
37960W        W 2780  33.612  39.262  14.710
37961W        W 2781  34.901  37.123   1.318
37962W        W 2782  14.829  24.580   3.236
37963W        W 2783  29.108  41.114   0.712
37964W        W 2784  34.367   3.033  10.763
37965W        W 2785  35.615   2.856   4.630
37966W        W 2786  30.713   4.731   1.735
37967W        W 2787   8.777  16.729  12.494
37968W        W 2788  38.525  34.798   3.283
37969W        W 2789  19.707   9.724   9.208
37970W        W 2790  20.016   4.772  12.341
37971W        W 2791  23.621  23.054  12.418
37972W        W 2792  26.949  40.467  10.928
37973W        W 2793   1.233   4.229  14.329
37974W        W 2794   0.151  12.345   4.099
37975W        W 2795  17.386  19.573  12.098
37976W        W 2796   5.482  37.294  13.021
37977W        W 2797   5.883  39.320   2.751
37978W        W 2798  39.262   1.398   3.247
37979W        W 2799  27.618  36.207  14.310
37980W        W 2800  22.509  23.065  12.082
37981W        W 2801  42.032  12.141   0.915
37982W        W 2802  23.490   1.012   1.882
37983W        W 2803  24.508  44.505   0.405
37984W        W 2804  27.431  31.130   3.768
37985W        W 2805   3.740  13.539  14.493
37986W        W 2806  38.018   4.892   2.452
37987W        W 2807  15.100  16.568  14.386
37988W        W 2808  10.289   7.211  11.341
37989W        W 2809   6.892  35.840  11.228
37990W        W 2810  25.051  41.906   1.225
37991W        W 2811   5.447  23.960  14.294
37992W        W 2812  27.116   4.868  14.843
37993W        W 2813  33.630   2.396  13.111
37994W        W 2814  22.520  35.503   3.780
37995W        W 2815  14.885  37.508   4.333
37996W        W 2816   3.794  35.981   0.246
37997W        W 2817  26.874  13.403  11.861
37998W        W 2818   7.620  17.914  13.475
37999W        W 2819  10.678  44.787   3.190
38000W        W 2820  12.874  16.171  14.250
38001W        W 2821   9.730  28.383   2.306
38002W        W 2822  26.659  21.240  13.858
38003W        W 2823  19.728   0.750  11.555
38004W        W 2824  43.376  16.101  12.570
38005W        W 2825  25.837  10.758  12.089
38006W        W 2826  11.295  12.527  14.051
38007W        W 2827  43.028  26.538  11.183
38008W        W 2828   6.901   9.694   1.341
38009W        W 2829  26.221  17.877   3.713
38010W        W 2830   7.669  19.023   2.016
38011W        W 2831   8.843  32.908   2.256
38012W        W 2832  44.010  19.053  12.254
38013W        W 2833  42.682  37.012  10.555
38014W        W 2834  39.941   2.510   4.179
38015W        W 2835  24.143  36.182   3.691
38016W        W 2836   9.153  44.903   1.637
38017W        W 2837  28.542   4.424  11.920
38018W        W 2838  29.205  34.476  13.561
38019W        W 2839  21.474  21.003   3.444
38020W        W 2840  44.996  13.721   4.077
38021W        W 2841  24.187  15.209   4.422
38022W        W 2842  13.837   5.755  11.594
38023W        W 2843   1.338  21.067  12.970
38024W        W 2844  31.669   3.218   2.775
38025W        W 2845   1.664  20.694  10.712
38026W        W 2846  28.198   3.266  10.794
38027W        W 2847  24.405  33.235   0.052
38028W        W 2848  20.292  12.371  11.987
38029W        W 2849   2.296  26.723   0.525
38030W        W 2850  31.840  35.033   1.367
38031W        W 2851  34.392  34.070  12.051
38032W        W 2852  10.401  32.057   4.114
38033W        W 2853  38.894  36.130  12.651
38034W        W 2854  34.724  25.831  13.409
38035W        W 2855  12.958  15.820   3.133
38036W        W 2856  19.219  31.498  14.833
38037W        W 2857  39.274  13.374   0.736
38038W        W 2858  24.122  30.634  10.661
38039W        W 2859  19.985  40.696  10.290
38040W        W 2860   3.877  44.373   4.481
38041W        W 2861  13.900  27.044   1.149
38042W        W 2862  44.224  25.298   2.825
38043W        W 2863  19.944  18.152   2.791
38044W        W 2864  42.875  43.410   2.301
38045W        W 2865  39.452  13.741   2.140
38046W        W 2866  27.363  38.077  14.413
38047W        W 2867  25.226  30.013   1.330
38048W        W 2868  24.670  40.929   3.851
38049W        W 2869  34.906  17.411   0.804
38050W        W 2870   9.716   0.849  14.313
38051W        W 2871  23.639  25.689   4.639
38052W        W 2872  23.628  21.301   1.368
38053W        W 2873   6.124  35.357  11.198
38054W        W 2874  14.291  30.917   1.755
38055W        W 2875  39.460  14.457  13.407
38056W        W 2876  10.811  11.030   1.043
38057W        W 2877  36.731  35.203   2.279
38058W        W 2878  31.057  17.898   5.121
38059W        W 2879   3.550   8.528   0.708
38060W        W 2880  13.181  34.878  13.334
38061W        W 2881  19.105  19.076  14.037
38062W        W 2882   9.860  22.664   2.326
38063W        W 2883  42.889  43.365   0.035
38064W        W 2884  40.560   1.939   4.137
38065W        W 2885  20.481  24.936  12.110
38066W        W 2886  23.395  18.927  11.165
38067W        W 2887  39.389  16.981   2.383
38068W        W 2888  10.673  18.892  11.553
38069W        W 2889  26.249  11.142   1.237
38070W        W 2890  35.027  18.751   4.575
38071W        W 2891  38.942  13.745   5.014
38072W        W 2892  43.210  20.615  11.431
38073W        W 2893   6.898  30.098   2.931
38074W        W 2894  34.833   1.302   1.371
38075W        W 2895  37.346  29.938  11.155
38076W        W 2896  14.158  35.403   2.324
38077W        W 2897  29.394  17.222  12.985
38078W        W 2898  29.474   8.550  11.607
38079W        W 2899   8.787  11.902  12.100
38080W        W 2900  19.515   7.302  11.447
38081W        W 2901  14.074  34.638   3.715
38082W        W 2902  12.314   0.377   3.146
38083W        W 2903  20.815  37.351  11.630
38084W        W 2904  42.015   8.410  13.898
38085W        W 2905  25.524  22.711  10.224
38086W        W 2906  20.292  10.367  14.567
38087W        W 2907   5.157  33.875  10.786
38088W        W 2908  40.471  38.988   2.440
38089W        W 2909  21.521  25.601   0.855
38090W        W 2910  17.183  22.886  12.022
38091W        W 2911  40.267  16.399  12.097
38092W        W 2912  29.935  39.219   1.234
38093W        W 2913  28.999  31.912   0.388
38094W        W 2914  38.359   6.059  10.483
38095W        W 2915   7.122  17.786  13.546
38096W        W 2916  24.341  27.216   0.812
38097W        W 2917  31.588  18.045  11.245
38098W        W 2918  30.911  23.213   0.313
38099W        W 2919  12.684  14.302  13.102
38100W        W 2920  43.936  39.536  10.617
38101W        W 2921  14.340  19.125  12.402
38102W        W 2922  31.901   2.132  11.957
38103W        W 2923  37.418   8.803  11.698
38104W        W 2924   1.510  36.290  11.595
38105W        W 2925   3.402  43.502  11.931
38106W        W 2926  17.100  32.039  12.823
38107W        W 2927  23.715  34.221   0.309
38108W        W 2928  44.490  18.215   2.814
38109W        W 2929  25.505  12.269   4.954
38110W        W 2930  38.255  23.177   4.077
38111W        W 2931  11.316  17.921   3.240
38112W        W 2932  13.207  36.579   1.742
38113W        W 2933  20.716  24.247   1.490
38114W        W 2934  30.779  26.510  12.587
38115W        W 2935  13.642   1.705   1.716
38116W        W 2936   3.789  44.813  12.842
38117W        W 2937  29.137  25.045   4.073
38118W        W 2938  33.474  36.425   4.356
38119W        W 2939  22.249  18.074  11.376
38120W        W 2940  10.644  25.912  10.631
38121W        W 2941  15.777  37.905   4.793
38122W        W 2942  24.140  44.505  10.661
38123W        W 2943   0.949  28.102  11.205
38124W        W 2944  16.502  25.181   3.230
38125W        W 2945   0.867  44.776  11.570
38126W        W 2946  31.496  11.436  14.505
38127W        W 2947   0.787  14.195   2.929
38128W        W 2948  31.110  35.877   3.747
38129W        W 2949  20.295  20.242   1.467
38130W        W 2950   0.400   7.408   2.272
38131W        W 2951  14.339  33.283   0.097
38132W        W 2952  44.393  38.058  14.851
38133W        W 2953  34.529  24.710  14.267
38134W        W 2954   2.477  36.004  11.694
38135W        W 2955   5.704  13.746  13.550
38136W        W 2956  12.159  31.900   2.638
38137W        W 2957  19.686  35.950  14.293
38138W        W 2958  15.350  17.591   2.313
38139W        W 2959  13.235  26.189   4.940
38140W        W 2960  37.142  43.505  12.015
38141W        W 2961  18.613  20.088  13.286
38142W        W 2962  13.368  32.420  13.763
38143W        W 2963  26.246   1.388   3.722
38144W        W 2964  25.563  30.002  11.156
38145W        W 2965  13.309  15.792  12.977
38146W        W 2966   9.726  44.527   4.199
38147W        W 2967   5.851  35.901  13.180
38148W        W 2968  14.155  27.842  11.188
38149W        W 2969  27.370   3.139  13.880
38150W        W 2970   4.719  26.531  11.148
38151W        W 2971  15.070  30.460  13.801
38152W        W 2972  30.114   1.358   3.179
38153W        W 2973  34.393  36.324   4.205
38154W        W 2974  15.659  24.926  13.460
38155W        W 2975   1.868  22.847   2.394
38156W        W 2976  30.957  37.515   1.665
38157W        W 2977  40.562  29.183  14.209
38158W        W 2978  26.051  24.558  10.854
38159W        W 2979  29.452  33.087   1.724
38160W        W 2980  20.135  24.491  11.260
38161W        W 2981  19.599  23.014  11.038
38162W        W 2982  25.484  41.285  13.109
38163W        W 2983  24.278  34.562   4.147
38164W        W 2984   3.793  14.233   1.714
38165W        W 2985  37.963  33.996   0.325
38166W        W 2986  16.210  15.600  12.429
38167W        W 2987  22.763   5.600   2.930
38168W        W 2988  23.518  19.573  14.027
38169W        W 2989  37.819   0.071   0.563
38170W        W 2990   8.924  22.091   4.093
38171W        W 2991   1.800  18.259   0.278
38172W        W 2992  40.415  17.792   1.900
38173W        W 2993  12.742  18.735  12.053
38174W        W 2994  17.390  11.166  13.791
38175W        W 2995  24.627  29.065   0.263
38176W        W 2996   7.650  36.601   2.533
38177W        W 2997  35.108  16.747   9.985
38178W        W 2998  30.374  10.685   4.841
38179W        W 2999  17.567  38.323  11.198
38180W        W 3000  22.317  38.448   0.387
38181W        W 3001   1.680  43.941  11.885
38182W        W 3002   0.253  38.891   2.677
38183W        W 3003  29.484  28.729  14.947
38184W        W 3004   7.270  23.480   4.654
38185W        W 3005  13.736  13.818  13.792
38186W        W 3006  33.559  29.194   1.630
38187W        W 3007  11.376  22.715  10.610
38188W        W 3008  38.550   9.148  12.936
38189W        W 3009  30.720  26.504   4.246
38190W        W 3010   6.531  31.148   3.696
38191W        W 3011  43.449  31.824   4.219
38192W        W 3012   2.035  12.619   0.297
38193W        W 3013  11.427  31.109  12.460
38194W        W 3014  42.712  17.428  14.810
38195W        W 3015   9.914  25.380   1.357
38196W        W 3016  16.395  18.617   4.903
38197W        W 3017  22.570  35.817  10.377
38198W        W 3018  34.205  35.164   4.156
38199W        W 3019  26.168  10.271  13.006
38200W        W 3020  37.986  43.447   2.330
38201W        W 3021  42.011  38.571   4.655
38202W        W 3022   9.377  14.148   3.848
38203W        W 3023  21.023  11.372  10.186
38204W        W 3024  13.093  30.997  12.691
38205W        W 3025   3.006  31.476  12.057
38206W        W 3026   6.309   9.864  14.384
38207W        W 3027  37.309   4.204  11.597
38208W        W 3028  36.616  38.922   0.960
38209W        W 3029   0.514   3.205  14.836
38210W        W 3030   3.836  16.862  11.852
38211W        W 3031  41.331  14.743  13.436
38212W        W 3032  21.528  30.876  10.771
38213W        W 3033  19.775   6.298  14.860
38214W        W 3034  29.900  39.626  12.856
38215W        W 3035  26.200  12.607  12.824
38216W        W 3036  31.049  13.592   4.815
38217W        W 3037  10.875  23.977  12.602
38218W        W 3038  12.395  15.593  13.842
38219W        W 3039  21.319  17.809   4.738
38220W        W 3040  11.839  43.496  11.044
38221W        W 3041  16.137  41.790   0.048
38222W        W 3042  24.797  40.161  11.021
38223W        W 3043  11.586  24.168  11.121
38224W        W 3044  19.271  25.611  14.915
38225W        W 3045   6.032  18.653  14.356
38226W        W 3046  30.622  13.145   3.372
38227W        W 3047  42.664  33.024   4.509
38228W        W 3048  36.828  41.243   3.820
38229W        W 3049  15.699  30.733   4.294
38230W        W 3050  44.320  14.175   1.196
38231W        W 3051  44.227  13.280   0.260
38232W        W 3052   3.928  27.422  14.238
38233W        W 3053  24.133  11.088   2.892
38234W        W 3054  38.371   7.154   2.731
38235W        W 3055  24.240  43.869  14.830
38236W        W 3056  13.869   2.278   4.800
38237W        W 3057  15.616  25.877   2.623
38238W        W 3058  24.455  33.006  12.525
38239W        W 3059   2.093   3.259  14.771
38240W        W 3060  11.375  16.067   2.164
38241W        W 3061  41.027   9.229   0.369
38242W        W 3062  41.329  22.015   3.590
38243W        W 3063  19.178  16.993   4.537
38244W        W 3064  24.663  42.170   2.942
38245W        W 3065  12.883  17.094  12.825
38246W        W 3066  38.373   0.217   1.853
38247W        W 3067  11.369  14.038   0.177
38248W        W 3068  44.519  22.896  14.437
38249W        W 3069  36.325  11.386  14.392
38250W        W 3070  20.027  36.257  14.539
38251W        W 3071   2.038  41.656  12.163
38252W        W 3072  19.117  44.954  10.793
38253W        W 3073  12.502  44.258   4.661
38254W        W 3074   7.844  43.913   3.071
38255W        W 3075  32.690  26.483   1.661
38256W        W 3076  33.125  25.659  11.976
38257W        W 3077  33.170   7.887  13.667
38258W        W 3078  11.619  11.580  14.112
38259W        W 3079  13.818  43.997  13.986
38260W        W 3080  15.240  37.228   5.428
38261W        W 3081  27.066  39.612  11.507
38262W        W 3082  18.072  16.113   0.632
38263W        W 3083  41.755  43.934   4.489
38264W        W 3084  35.022   5.745  13.380
38265W        W 3085  16.683  31.185   4.549
38266W        W 3086   3.128  28.635   4.270
38267W        W 3087  24.142  11.339  11.656
38268W        W 3088  20.983   2.192   3.706
38269W        W 3089  36.052  29.004  12.551
38270W        W 3090  14.893  10.160   1.460
38271W        W 3091  26.905  25.076  14.846
38272W        W 3092  24.709   5.268   2.625
38273W        W 3093  32.923  18.654  14.823
38274W        W 3094  26.873  12.908  12.087
38275W        W 3095  33.958  32.517   1.497
38276W        W 3096  19.269  35.553  11.361
38277W        W 3097  29.202   1.431   0.524
38278W        W 3098   0.793  11.466  14.693
38279W        W 3099  44.420  14.563   4.064
38280W        W 3100  44.012  33.102   4.206
38281W        W 3101  37.995  38.263  10.926
38282W        W 3102  27.426  32.469   5.524
38283W        W 3103  39.271  24.574   2.799
38284W        W 3104  28.630  26.930  11.362
38285W        W 3105  37.170   2.257  11.118
38286W        W 3106  19.251  25.996  14.568
38287W        W 3107  23.312  26.930   0.593
38288W        W 3108  23.090  19.126   3.206
38289W        W 3109  29.403  43.848   3.792
38290W        W 3110  22.020  21.692   0.254
38291W        W 3111  21.137  19.970   2.344
38292W        W 3112   3.837  17.011  11.054
38293W        W 3113  38.885  34.096  11.161
38294W        W 3114  19.283  32.033  12.578
38295W        W 3115  15.914   5.485   0.096
38296W        W 3116  33.300  19.632   0.040
38297W        W 3117   6.819  18.065   2.442
38298W        W 3118   5.353  13.378   3.198
38299W        W 3119  37.768  27.610  12.017
38300W        W 3120  38.311  28.864  13.492
38301W        W 3121  14.675  19.298   3.915
38302W        W 3122  40.262  18.078  14.454
38303W        W 3123  17.694  17.940  12.517
38304W        W 3124  24.048  38.543   1.324
38305W        W 3125  32.731  15.788  13.911
38306W        W 3126  17.361  39.517   1.934
38307W        W 3127   5.841  18.694  11.526
38308W        W 3128  39.483  19.060   0.074
38309W        W 3129  18.042  23.773  10.641
38310W        W 3130  42.785  23.975   0.763
38311W        W 3131  27.750  27.176   4.334
38312W        W 3132   7.585   6.159  12.759
38313W        W 3133   5.005   9.417  14.134
38314W        W 3134   9.101  29.819  10.947
38315W        W 3135  23.084  38.824   2.847
38316W        W 3136  32.855  41.916  14.785
38317W        W 3137   4.530   5.045  13.315
38318W        W 3138  14.435  39.899  11.830
38319W        W 3139  23.888  25.916  14.434
38320W        W 3140  21.054  44.918   0.866
38321W        W 3141  17.173  15.840   3.069
38322W        W 3142  24.267  37.465   0.525
38323W        W 3143   1.841  33.832  13.539
38324W        W 3144  22.796  36.507  13.115
38325W        W 3145  29.393  24.390   0.364
38326W        W 3146  41.828   4.905  14.348
38327W        W 3147  26.135  37.219  14.358
38328W        W 3148  24.872   2.914  10.639
38329W        W 3149  40.393  34.881  11.871
38330W        W 3150  40.130   2.680  11.258
38331W        W 3151  41.453   8.990  14.522
38332W        W 3152  39.502  42.424   2.902
38333W        W 3153  30.109  21.010   5.262
38334W        W 3154  28.547   5.704   3.784
38335W        W 3155  43.029   3.215   2.247
38336W        W 3156  16.790  25.627   2.325
38337W        W 3157  40.579  39.420   3.213
38338W        W 3158  13.492  20.205  12.460
38339W        W 3159  34.873  33.878   3.352
38340W        W 3160   9.914  41.004  12.088
38341W        W 3161   2.076  31.638   0.464
38342W        W 3162  38.220   8.427  10.116
38343W        W 3163  29.651  42.369   3.933
38344W        W 3164  25.485  39.347  10.931
38345W        W 3165  43.338   9.671   4.618
38346W        W 3166  41.063  31.029   3.579
38347W        W 3167  39.874   6.660   1.837
38348W        W 3168  32.487  10.963  14.832
38349W        W 3169  16.725  38.719  11.921
38350W        W 3170  44.985  27.657  11.035
38351W        W 3171  40.590   1.839  14.156
38352W        W 3172  34.512  37.915   0.382
38353W        W 3173  16.702  11.113   0.381
38354W        W 3174  12.914  26.478  14.419
38355W        W 3175  40.554  31.535   2.822
38356W        W 3176  13.884   1.367  14.038
38357W        W 3177  44.455  23.564  10.324
38358W        W 3178  24.093  16.936  11.361
38359W        W 3179  35.885  39.473   4.346
38360W        W 3180  21.536  41.093  13.968
38361W        W 3181  39.701  39.413   0.530
38362W        W 3182  30.504  41.398   2.466
38363W        W 3183   7.738   9.049   4.100
38364W        W 3184  38.535  23.682   1.616
38365W        W 3185  26.993  30.763  11.218
38366W        W 3186  35.676  40.370  11.447
38367W        W 3187  44.816  14.688   4.397
38368W        W 3188   0.823   6.646  13.573
38369W        W 3189  44.919   7.134  13.489
38370W        W 3190  10.389  33.675   0.037
38371W        W 3191  28.602  22.721   3.156
38372W        W 3192   8.425  25.646   0.939
38373W        W 3193  44.032  10.523   0.725
38374W        W 3194  17.520  17.524  11.967
38375W        W 3195  17.342  31.310  11.671
38376W        W 3196   4.504  42.307  12.583
38377W        W 3197   6.077   4.343   4.340
38378W        W 3198  41.638  39.822   2.319
38379W        W 3199  15.087  14.126   5.247
38380W        W 3200  23.395  33.068  11.076
38381W        W 3201  29.125   6.988  14.752
38382W        W 3202   7.705  30.362   4.177
38383W        W 3203   2.573  42.679   2.757
38384W        W 3204  24.633  38.415   3.510
38385W        W 3205  32.393  42.769   0.760
38386W        W 3206  25.238  16.492  13.139
38387W        W 3207   3.275  27.528   1.651
38388W        W 3208  15.078  37.762   9.712
38389W        W 3209  22.167   7.679   4.715
38390W        W 3210  19.670  38.163  12.958
38391W        W 3211   6.458  25.460  14.986
38392W        W 3212  19.868  23.715   0.185
38393W        W 3213  31.847  35.345  13.274
38394W        W 3214  26.983  37.606  12.963
38395W        W 3215  19.583  23.030  14.347
38396W        W 3216   4.275  26.755   9.591
38397W        W 3217   7.464  31.586  11.570
38398W        W 3218  34.790   6.095   3.132
38399W        W 3219  22.536  16.646   3.342
38400W        W 3220  34.003  39.994   2.226
38401W        W 3221  40.322  43.012   0.931
38402W        W 3222  10.936  24.098   2.133
38403W        W 3223  37.444  34.222   4.110
38404W        W 3224  33.954  34.611   2.768
38405W        W 3225   0.935  39.048  14.730
38406W        W 3226  23.056  14.061   2.222
38407W        W 3227  28.357  18.779   2.549
38408W        W 3228   3.773  43.511   4.125
38409W        W 3229  26.502  43.456  12.726
38410W        W 3230   7.161   8.906   0.270
38411W        W 3231  17.503  28.125   2.226
38412W        W 3232  29.950  38.934   3.442
38413W        W 3233  30.535   6.369  10.693
38414W        W 3234  38.992   7.375   1.275
38415W        W 3235  44.184  37.540  11.120
38416W        W 3236  26.983  25.613  10.753
38417W        W 3237  20.296   8.660   0.549
38418W        W 3238  24.000  20.482   2.669
38419W        W 3239  30.455  29.722   4.611
38420W        W 3240  31.669  37.389  10.598
38421W        W 3241  34.414  21.772   4.196
38422W        W 3242  33.679  24.111  14.762
38423W        W 3243  29.691  31.529  14.690
38424W        W 3244   1.748  23.929  14.995
38425W        W 3245   3.713   8.134  11.594
38426W        W 3246  43.370  40.759   2.394
38427W        W 3247   7.883   0.041   1.267
38428W        W 3248  11.186  13.529  12.455
38429W        W 3249  33.142  19.120   0.031
38430W        W 3250  16.695   2.975  13.371
38431W        W 3251  23.997  11.782   4.547
38432W        W 3252  20.840  44.382   0.334
38433W        W 3253  24.144  28.869   0.318
38434W        W 3254  34.485   8.158   0.052
38435W        W 3255  35.301  32.685   0.345
38436W        W 3256  23.437  40.810   0.341
38437W        W 3257  32.069   3.473   1.321
38438W        W 3258  14.180  21.107   2.372
38439W        W 3259  12.924  20.129   0.682
38440W        W 3260  39.013  25.583   1.407
38441W        W 3261  19.295  31.778   2.781
38442W        W 3262   5.690   7.726   2.107
38443W        W 3263  37.622  35.959  10.722
38444W        W 3264   5.921   0.220  11.500
38445W        W 3265  24.178   2.323   0.298
38446W        W 3266  29.464  19.055   0.355
38447W        W 3267  20.727   9.182  12.308
38448W        W 3268  33.704  17.305   0.277
38449W        W 3269  29.984  44.028   2.748
38450W        W 3270  27.343  16.562   3.210
38451W        W 3271   2.515  33.345   0.922
38452W        W 3272  25.655  28.447  12.887
38453W        W 3273   9.181  39.993   4.632
38454W        W 3274  20.976  33.396   3.309
38455W        W 3275  34.060  15.256  12.302
38456W        W 3276  43.390  18.192   4.082
38457W        W 3277  18.526  31.592  11.475
38458W        W 3278  12.884   6.855  13.900
38459W        W 3279  32.088  29.081   4.635
38460W        W 3280  43.759   4.125  12.037
38461W        W 3281  25.683  20.637  13.553
38462W        W 3282  15.154  14.605  10.662
38463W        W 3283   2.267  33.618  14.186
38464W        W 3284  42.313  41.261  11.457
38465W        W 3285  19.134  27.430  14.188
38466W        W 3286  38.899  42.269   4.201
38467W        W 3287  11.067  11.095  12.038
38468W        W 3288  24.001   2.461   2.872
38469W        W 3289  21.560  26.336   4.967
38470W        W 3290  10.391  28.529   0.796
38471W        W 3291  25.382   0.516  14.034
38472W        W 3292  14.646  43.717   1.159
38473W        W 3293  16.187  19.684   1.697
38474W        W 3294  44.545  29.664   1.395
38475W        W 3295  22.084  38.509   4.555
38476W        W 3296   8.800  27.876  13.901
38477W        W 3297  38.547   0.849  10.366
38478W        W 3298  18.149   2.938  11.885
38479W        W 3299  36.909  29.665  11.163
38480W        W 3300  18.838  25.957   3.109
38481W        W 3301  18.651  32.944   4.392
38482W        W 3302  10.931  13.604  14.303
38483W        W 3303  41.354  11.024   2.812
38484W        W 3304  10.379  20.990  14.073
38485W        W 3305  39.557  44.420   4.085
38486W        W 3306  10.508  35.606   4.779
38487W        W 3307  35.547  10.667   0.569
38488W        W 3308   4.171  21.020  11.720
38489W        W 3309  31.805   1.421  14.897
38490W        W 3310  31.428  14.255  11.721
38491W        W 3311  17.310  39.472  14.999
38492W        W 3312  24.910  23.021   0.255
38493W        W 3313  34.281  44.940   4.408
38494W        W 3314   0.121  34.439  12.419
38495W        W 3315  20.585  23.041  13.923
38496W        W 3316  39.568  18.101   4.106
38497W        W 3317  11.312  30.985  10.850
38498W        W 3318  30.065  39.600   3.713
38499W        W 3319  32.735  23.097  13.452
38500W        W 3320  30.083  38.831  14.374
38501W        W 3321  16.806  24.093  12.331
38502W        W 3322  17.578  12.715  14.420
38503W        W 3323   0.409  15.159  13.746
38504W        W 3324  37.201  20.178   3.842
38505W        W 3325  21.320  16.242  11.951
38506W        W 3326   1.417  25.568  12.410
38507W        W 3327  33.873  24.495   0.045
38508W        W 3328  22.248  11.877  13.446
38509W        W 3329   4.985  24.508   2.198
38510W        W 3330  15.701  38.488   1.225
38511W        W 3331  32.174  33.534   4.265
38512W        W 3332  28.947  36.550   5.058
38513W        W 3333   6.222  38.865   4.109
38514W        W 3334  16.418  43.057   2.853
38515W        W 3335  40.150  21.724  13.666
38516W        W 3336  19.550  33.168  12.200
38517W        W 3337   8.716  11.925  12.943
38518W        W 3338   3.287  30.492  11.157
38519W        W 3339  18.803   3.490   1.756
38520W        W 3340  32.572  37.835  13.876
38521W        W 3341  40.011   0.203   4.286
38522W        W 3342  30.518  36.130  11.046
38523W        W 3343   1.581   1.042  11.655
38524W        W 3344   0.667  34.710   0.979
38525W        W 3345  14.617  22.205   0.391
38526W        W 3346  10.228   5.697  13.958
38527W        W 3347  25.167  37.470   0.378
38528W        W 3348  41.662  11.089   4.306
38529W        W 3349  10.745   7.164   1.248
38530W        W 3350  24.781  27.160   0.174
38531W        W 3351  35.471  37.910  13.436
38532W        W 3352  28.061  17.593  10.502
38533W        W 3353  11.567  12.832   0.346
38534W        W 3354   5.924  22.642  13.818
38535W        W 3355  37.046  14.702  14.744
38536W        W 3356  18.164  25.514  14.878
38537W        W 3357  23.472  30.801   0.428
38538W        W 3358  38.337  40.624  11.569
38539W        W 3359  19.232  18.789   1.379
38540W        W 3360   1.270  23.545  14.051
38541W        W 3361  33.987  40.373   1.430
38542W        W 3362   3.929  38.999   0.740
38543W        W 3363   1.633  42.772   0.771
38544W        W 3364  38.467  11.720  13.212
38545W        W 3365  24.634  32.095  12.513
38546W        W 3366  42.315  42.748   3.216
38547W        W 3367  19.296  19.531  14.773
38548W        W 3368  29.166   3.755  12.056
38549W        W 3369  13.773  16.167  12.240
38550W        W 3370  10.336  24.250   2.745
38551W        W 3371   4.912  16.561  11.602
38552W        W 3372  41.027  27.091   1.391
38553W        W 3373   4.356  31.463   3.320
38554W        W 3374  24.744   8.221  14.395
38555W        W 3375  11.765   2.974  11.221
38556W        W 3376  25.476  37.397  12.007
38557W        W 3377  31.349  28.640  11.599
38558W        W 3378  26.968  42.093  13.902
38559W        W 3379   0.667  44.891   3.635
38560W        W 3380  32.556   5.365  10.358
38561W        W 3381  18.020   9.274  12.076
38562W        W 3382  15.768  38.314   3.961
38563W        W 3383   7.821  34.003  13.452
38564W        W 3384  21.822  32.419  13.399
38565W        W 3385  26.093   4.973   2.855
38566W        W 3386  30.671  11.258  13.420
38567W        W 3387   8.343   3.626   0.344
38568W        W 3388  12.388  29.159   3.244
38569W        W 3389  36.972  36.944  10.834
38570W        W 3390  36.654  22.603  10.616
38571W        W 3391  40.634  23.498   1.395
38572W        W 3392   3.008  11.655  14.003
38573W        W 3393  44.363  43.528   4.130
38574W        W 3394   0.453   6.729   0.451
38575W        W 3395   2.529  23.626   1.403
38576W        W 3396  36.666  37.543   3.369
38577W        W 3397  34.418   9.605  11.654
38578W        W 3398  44.188  18.652   2.740
38579W        W 3399   7.097  23.200  13.204
38580W        W 3400   2.713  25.202   3.175
38581W        W 3401  13.701  37.954  14.561
38582W        W 3402   6.726  30.501   2.153
38583W        W 3403  29.502  19.600  10.689
38584W        W 3404  38.348  11.266  12.369
38585W        W 3405   3.172  15.574   0.926
38586W        W 3406  19.928  12.034   3.357
38587W        W 3407  34.794  35.423  12.059
38588W        W 3408   1.265  36.827   1.690
38589W        W 3409  22.658  12.042   0.877
38590W        W 3410  42.238   6.281   0.794
38591W        W 3411  22.559  18.946  13.509
38592W        W 3412   5.324  17.606   2.819
38593W        W 3413   5.683  12.404  14.542
38594W        W 3414  33.831  30.562   1.725
38595W        W 3415  39.830  20.346  12.005
38596W        W 3416   9.233  27.413  12.903
38597W        W 3417  15.730   4.669  11.931
38598W        W 3418  31.250  20.137  14.467
38599W        W 3419   3.110  28.203  11.659
38600W        W 3420  36.233  19.331   2.295
38601W        W 3421  30.949  24.643  14.241
38602W        W 3422  40.316   8.955  13.441
38603W        W 3423  16.295   1.308  11.538
38604W        W 3424   3.490  26.928  14.816
38605W        W 3425   2.667  43.942  14.400
38606W        W 3426   2.109   5.090   1.596
38607W        W 3427  35.179  23.494   3.205
38608W        W 3428   3.965  44.986  12.378
38609W        W 3429  20.621  31.304   3.184
38610W        W 3430  28.039  27.031  12.012
38611W        W 3431  30.444  10.058  14.112
38612W        W 3432  35.118  38.517   1.930
38613W        W 3433  33.886   4.587   0.886
38614W        W 3434  27.086  18.796  11.669
38615W        W 3435  32.620  14.374  12.856
38616W        W 3436  34.413  32.481   0.013
38617W        W 3437  21.207  13.717   5.425
38618W        W 3438  42.867  32.999   1.718
38619W        W 3439  13.211   5.846  12.009
38620W        W 3440  30.006   9.521  11.942
38621W        W 3441   1.102  44.780   4.566
38622W        W 3442  19.025  12.220   3.376
38623W        W 3443  21.636  41.427   2.219
38624W        W 3444  31.120  39.336   4.126
38625W        W 3445  34.945  41.389  13.050
38626W        W 3446  21.843  21.977  11.601
38627W        W 3447  17.197  11.875   0.364
38628W        W 3448  19.829   6.490   2.701
38629W        W 3449  13.112  35.329  14.490
38630W        W 3450  14.777  12.227   4.668
38631W        W 3451   4.859   4.706  14.280
38632W        W 3452  44.473  29.587   4.224
38633W        W 3453   8.269  15.218   2.822
38634W        W 3454  34.011  28.003  12.019
38635W        W 3455  18.013  25.965   2.899
38636W        W 3456  16.448   8.290  11.996
38637W        W 3457  39.293  28.854   0.241
38638W        W 3458  21.068  27.742  12.031
38639W        W 3459  31.823   8.700  12.349
38640W        W 3460  28.482  11.270   3.928
38641W        W 3461  29.051  20.581   1.720
38642W        W 3462  32.611  10.829   4.805
38643W        W 3463  31.695  30.107   3.750
38644W        W 3464  18.091   5.667   0.768
38645W        W 3465  28.137  34.536   3.003
38646W        W 3466  21.593  34.950   1.318
38647W        W 3467  16.011  11.491  10.982
38648W        W 3468   9.630  12.956  13.562
38649W        W 3469  27.732  26.725   3.288
38650W        W 3470  18.128   2.025   4.566
38651W        W 3471  44.919   6.615  13.510
38652W        W 3472  34.995  44.287  14.817
38653W        W 3473  29.379  36.677   3.183
38654W        W 3474  22.758  42.268   2.382
38655W        W 3475  15.626  38.222  11.278
38656W        W 3476  14.267   5.993  11.700
38657W        W 3477  11.058   1.426  13.939
38658W        W 3478  20.127  32.636  10.752
38659W        W 3479  14.287  44.053  13.299
38660W        W 3480  19.956   1.445  13.170
38661W        W 3481  22.722   7.175   2.898
38662W        W 3482  29.376  26.110   2.775
38663W        W 3483  37.566  17.279  14.952
38664W        W 3484  28.734  38.593  11.644
38665W        W 3485  23.185  38.301  10.876
38666W        W 3486   1.580  22.273   4.164
38667W        W 3487  10.678  24.755  14.337
38668W        W 3488  39.282  24.516   4.396
38669W        W 3489  33.568  21.609  12.044
38670W        W 3490  21.421  22.400   0.817
38671W        W 3491   8.316  17.735   0.521
38672W        W 3492  20.105  13.184  10.668
38673W        W 3493  25.282  44.775  12.547
38674W        W 3494  10.499  35.451   3.106
38675W        W 3495  20.103   2.333  10.595
38676W        W 3496  41.102  37.962  13.971
38677W        W 3497  27.077  11.919   4.636
38678W        W 3498  18.044  29.666  11.057
38679W        W 3499   6.978  29.593  14.856
38680W        W 3500  14.904   8.814  14.446
38681W        W 3501  31.143  12.704  12.968
38682W        W 3502  40.329  43.166  13.525
38683W        W 3503  29.715  29.724  13.566
38684W        W 3504   5.400  22.153  14.481
38685W        W 3505  35.137  26.686   2.191
38686W        W 3506  33.029  28.981  12.514
38687W        W 3507  22.742  17.611  12.028
38688W        W 3508  34.855  25.071   4.142
38689W        W 3509  11.253  11.077  10.526
38690W        W 3510  23.594  15.569  14.032
38691W        W 3511   6.314   1.976  13.813
38692W        W 3512  42.058   5.756  13.303
38693W        W 3513  26.654  12.980  11.626
38694W        W 3514   7.237  38.741  11.215
38695W        W 3515   7.628   9.702   2.274
38696W        W 3516  12.221   6.041  13.091
38697W        W 3517   9.380  33.146   1.428
38698W        W 3518  26.000   7.495  10.749
38699W        W 3519   3.588  39.787   0.236
38700W        W 3520  34.093   4.279   0.518
38701W        W 3521  39.890  13.656   1.869
38702W        W 3522  26.099   0.776   3.325
38703W        W 3523   4.450  39.617   0.419
38704W        W 3524  22.050  14.944   2.388
38705W        W 3525  16.692   0.957   4.119
38706W        W 3526  16.189  30.661  13.759
38707W        W 3527   7.409  27.488   0.249
38708W        W 3528  27.092  19.172  10.979
38709W        W 3529  30.611  16.137   5.094
38710W        W 3530  41.452  24.076   1.805
38711W        W 3531  35.045  24.237  12.114
38712W        W 3532   7.770  24.524   1.346
38713W        W 3533  36.933  28.631  11.230
38714W        W 3534  18.641  14.236  13.354
38715W        W 3535  39.421  12.421   0.785
38716W        W 3536  20.635  17.265   1.633
38717W        W 3537  16.580  15.072   2.290
38718W        W 3538  18.808   8.630   3.328
38719W        W 3539  36.116  31.842   1.819
38720W        W 3540  22.610  22.216   1.398
38721W        W 3541  23.720  42.437  13.774
38722W        W 3542  29.168  22.317   0.592
38723W        W 3543  23.835  35.376   3.299
38724W        W 3544  30.944  12.360  14.305
38725W        W 3545   9.294  33.958  11.515
38726W        W 3546   0.959  12.126  11.895
38727W        W 3547  23.033  27.183  12.342
38728W        W 3548  37.410  13.641  10.487
38729W        W 3549  24.941   4.848  11.408
38730W        W 3550  34.019  16.852   2.734
38731W        W 3551  16.532   8.815   0.186
38732W        W 3552   2.779  29.406   4.747
38733W        W 3553  13.667  19.612   1.949
38734W        W 3554  10.611  39.577  10.689
38735W        W 3555  14.627   3.691  11.109
38736W        W 3556  38.487  15.034  12.957
38737W        W 3557   4.713  11.665  10.648
38738W        W 3558  30.903  14.537  13.405
38739W        W 3559  24.970   6.155  13.480
38740W        W 3560  19.046  22.560   0.850
38741W        W 3561  23.190  30.191   2.394
38742W        W 3562  33.581  21.464  14.949
38743W        W 3563   8.611  35.583  12.860
38744W        W 3564  12.571  31.408  10.807
38745W        W 3565  16.310  28.386   3.310
38746W        W 3566  33.539   2.279  11.441
38747W        W 3567   3.860   2.266   1.178
38748W        W 3568  24.493  34.391   4.571
38749W        W 3569  42.271  28.403  14.400
38750W        W 3570  14.816  26.415   1.743
38751W        W 3571  12.541   4.929   2.786
38752W        W 3572  24.018   3.335   1.765
38753W        W 3573   9.797  32.395  11.040
38754W        W 3574  35.920  19.775   0.050
38755W        W 3575  40.817  24.733   2.875
38756W        W 3576  28.360  40.215  10.571
38757W        W 3577  23.516  26.740   2.259
38758W        W 3578  40.094   5.447   3.800
38759W        W 3579   5.049  10.719   0.482
38760W        W 3580  42.397  27.888  14.443
38761W        W 3581  35.832  41.207   0.333
38762W        W 3582  16.272  32.423  11.209
38763W        W 3583   0.019   8.742   2.382
38764W        W 3584  18.581  10.820   1.683
38765W        W 3585  30.950   2.425  12.061
38766W        W 3586  27.630  27.134  11.740
38767W        W 3587  31.603  13.548   2.298
38768W        W 3588  27.953  17.896   0.384
38769W        W 3589  20.325  19.779  12.983
38770W        W 3590   4.655  33.083  13.557
38771W        W 3591  43.017   4.404   2.844
38772W        W 3592  18.832  36.457   0.258
38773W        W 3593   5.680  41.738   0.522
38774W        W 3594   5.711  42.450   4.119
38775W        W 3595  11.012  31.735  11.994
38776W        W 3596  23.658  18.147  10.882
38777W        W 3597   3.678   3.428  12.866
38778W        W 3598  16.848  17.684   3.948
38779W        W 3599  40.762   0.133   0.670
38780W        W 3600  25.538  14.740  12.590
38781W        W 3601   7.585   3.885  11.145
38782W        W 3602  17.075  23.043   3.065
38783W        W 3603  43.617   6.338  14.263
38784W        W 3604  11.724   2.014   4.429
38785W        W 3605  35.326   5.789   1.381
38786W        W 3606   6.295  37.572   4.450
38787W        W 3607  13.760  24.342  13.474
38788W        W 3608  29.160   7.943   1.899
38789W        W 3609  38.940  42.353   1.824
38790W        W 3610  19.928  14.297   2.838
38791W        W 3611  26.241   0.979  11.135
38792W        W 3612  30.221  21.915  12.842
38793W        W 3613  44.372  31.639   0.673
38794W        W 3614  23.717  34.441  14.045
38795W        W 3615   7.951  41.137   4.521
38796W        W 3616   9.620  35.967  10.683
38797W        W 3617  34.927  23.970  11.683
38798W        W 3618   0.452  14.420  12.068
38799W        W 3619  30.189   8.246   1.812
38800W        W 3620  38.386  40.041   0.926
38801W        W 3621  32.026  39.300  10.586
38802W        W 3622  37.144  20.997   3.107
38803W        W 3623   7.441  41.252  11.518
38804W        W 3624  18.738   3.464   0.263
38805W        W 3625  17.095  29.140   3.184
38806W        W 3626  28.583  35.016  12.036
38807W        W 3627  12.228  33.183  10.372
38808W        W 3628  15.736   4.127  10.440
38809W        W 3629  36.940  14.775  10.839
38810W        W 3630  21.518  20.693  11.398
38811W        W 3631  30.535  20.094  10.760
38812W        W 3632   4.167  26.288  14.789
38813W        W 3633   8.089  20.311  11.223
38814W        W 3634  23.596  14.606  10.776
38815W        W 3635  24.012  39.492  14.568
38816W        W 3636   1.431   7.916  13.842
38817W        W 3637  33.318  42.105  11.624
38818W        W 3638  36.273  16.640  13.016
38819W        W 3639   6.613  39.535   3.397
38820W        W 3640  28.151  41.465   2.595
38821W        W 3641  16.731  44.606  13.761
38822W        W 3642  30.871  37.045  10.758
38823W        W 3643   7.320   4.962   4.131
38824W        W 3644  36.480  11.914  14.021
38825W        W 3645  44.494  36.923  11.157
38826W        W 3646   8.648   5.891   3.856
38827W        W 3647  24.068   6.492   4.106
38828W        W 3648  25.011  17.768  13.423
38829W        W 3649  35.380   3.289   2.002
38830W        W 3650  22.274  21.071  11.558
38831W        W 3651   6.759  17.726   4.941
38832W        W 3652  34.038  40.531   4.460
38833W        W 3653  34.091  30.914  13.044
38834W        W 3654  10.417  14.872   0.350
38835W        W 3655  43.274  23.961   0.970
38836W        W 3656  39.461  21.080   1.609
38837W        W 3657   3.390  14.275  12.478
38838W        W 3658  18.523  25.215  14.034
38839W        W 3659   0.659  24.788   2.740
38840W        W 3660  15.484   9.289   2.863
38841W        W 3661  22.497  10.740  11.140
38842W        W 3662  29.125   5.985   2.383
38843W        W 3663   2.042  30.664   0.306
38844W        W 3664  26.079  39.067   1.005
38845W        W 3665  27.596  22.071  12.159
38846W        W 3666   8.444  23.004   4.003
38847W        W 3667  35.485  31.037  12.689
38848W        W 3668   2.810  17.278  13.281
38849W        W 3669  17.799  40.877  11.168
38850W        W 3670  32.927  29.391  11.118
38851W        W 3671   5.297   3.840  13.402
38852W        W 3672   8.991  23.229   0.835
38853W        W 3673  31.965  22.695   1.732
38854W        W 3674  42.093   0.775  12.884
38855W        W 3675  40.468  31.954  11.486
38856W        W 3676  30.857  41.650   1.671
38857W        W 3677  32.104   0.798   2.619
38858W        W 3678   5.883  25.654  12.903
38859W        W 3679  35.640  22.497   1.205
38860W        W 3680   6.342  41.017   0.251
38861W        W 3681  23.725   3.428   0.532
38862W        W 3682  40.974  24.491   0.824
38863W        W 3683  41.223  38.971  12.511
38864W        W 3684   2.207  44.072   0.913
38865W        W 3685  12.590  38.520   0.409
38866W        W 3686  41.941  32.468   3.710
38867W        W 3687   5.179   7.178  14.600
38868W        W 3688  28.528   3.593  14.757
38869W        W 3689   3.181   4.773  14.940
38870W        W 3690  34.538  15.718   1.666
38871W        W 3691   3.202  25.999   3.642
38872W        W 3692  27.139  26.936  12.452
38873W        W 3693  24.992  26.658   4.124
38874W        W 3694  27.434  22.210   0.371
38875W        W 3695  22.187  44.071   0.485
38876W        W 3696  25.720  19.857  11.300
38877W        W 3697  10.672  20.167  12.043
38878W        W 3698   8.663  36.355   0.262
38879W        W 3699  41.625   5.849   1.307
38880W        W 3700   3.463  43.931  12.403
38881W        W 3701  33.157  43.361  12.001
38882W        W 3702  19.248   7.191  11.006
38883W        W 3703  28.952  17.459   1.837
38884W        W 3704   4.464  11.306  14.469
38885W        W 3705  41.219   9.718   0.240
38886W        W 3706  15.608  19.818   3.185
38887W        W 3707  23.313  18.740   5.068
38888W        W 3708   0.317  11.349   2.258
38889W        W 3709  19.351  41.020   1.769
38890W        W 3710  16.387  23.809   0.280
38891W        W 3711  30.673  31.838  14.978
38892W        W 3712  25.803   0.026   4.059
38893W        W 3713  15.098  20.180   3.908
38894W        W 3714   4.211  16.650  11.008
38895W        W 3715  21.002  25.071   1.727
38896W        W 3716   1.461  19.601  14.371
38897W        W 3717  41.853  43.867   1.792
38898W        W 3718  18.914  16.228  13.951
38899W        W 3719  44.473  11.598   4.569
38900W        W 3720   4.441  43.864  12.365
38901W        W 3721   3.447  32.979   4.539
38902W        W 3722  30.451   6.046   1.464
38903W        W 3723  14.086  31.385   1.890
38904W        W 3724  33.041  39.404   4.647
38905W        W 3725   1.834  10.372   1.839
38906W        W 3726  11.896  37.935  14.087
38907W        W 3727  18.611   0.407  14.273
38908W        W 3728  24.505   8.064  13.332
38909W        W 3729  12.156   8.345   2.795
38910W        W 3730  24.142  14.622   0.397
38911W        W 3731  39.747  43.458  12.425
38912W        W 3732  33.511  28.832  14.304
38913W        W 3733  37.876  10.805   4.491
38914W        W 3734  44.494  30.874   2.733
38915W        W 3735  41.036  30.008  14.312
38916W        W 3736  12.703  22.257  12.033
38917W        W 3737  22.401   9.860   9.880
38918W        W 3738  23.021  34.997   3.245
38919W        W 3739  44.373   4.843   0.301
38920W        W 3740  37.594   9.744   2.655
38921W        W 3741   6.126  39.457   3.522
38922W        W 3742  14.171  21.161   3.223
38923W        W 3743   1.858  25.201   4.675
38924W        W 3744  15.271  40.574  12.481
38925W        W 3745  39.672  33.685  12.512
38926W        W 3746  27.948  16.114  11.839
38927W        W 3747   8.134  30.151  14.396
38928W        W 3748   8.958  29.022   2.239
38929W        W 3749  44.979  36.175   3.502
38930W        W 3750  40.895  42.499   3.266
38931W        W 3751  32.013  34.172   2.247
38932W        W 3752  20.839   5.831   4.067
38933W        W 3753  38.891  27.192   2.924
38934W        W 3754   7.682  13.473   0.724
38935W        W 3755  13.000  36.228  11.893
38936W        W 3756  19.390  29.139  11.356
38937W        W 3757  18.978  24.061   1.873
38938W        W 3758  35.804  37.087   1.420
38939W        W 3759  39.211   3.343  14.487
38940W        W 3760  34.019  27.430   1.922
38941W        W 3761  38.141  26.712  12.938
38942W        W 3762  40.814  10.054  11.506
38943W        W 3763   0.376  15.250   2.642
38944W        W 3764  42.597  18.076   3.507
38945W        W 3765  11.723   4.216  12.076
38946W        W 3766   1.469  19.674   4.007
38947W        W 3767  22.884  23.509  12.005
38948W        W 3768  12.913   3.897  11.982
38949W        W 3769   0.909  44.688   3.183
38950W        W 3770  18.116  35.460   4.985
38951W        W 3771  10.036  37.722  11.055
38952W        W 3772   2.758   7.148  13.913
38953W        W 3773  41.018  26.514   2.098
38954W        W 3774  36.470   0.032   0.854
38955W        W 3775  42.337  11.782   3.168
38956W        W 3776   2.823  26.656  10.566
38957W        W 3777  44.829  44.494   3.857
38958W        W 3778  43.433  41.514  11.168
38959W        W 3779  13.953  18.356  10.855
38960W        W 3780   4.378   1.404  14.514
38961W        W 3781   3.274  32.135  10.869
38962W        W 3782  33.357  28.926   0.795
38963W        W 3783  30.426  23.196   1.346
38964W        W 3784  10.515  25.638  14.910
38965W        W 3785   0.389  37.446   4.160
38966W        W 3786  33.277  19.001   4.140
38967W        W 3787  12.621   5.418   3.759
38968W        W 3788  28.104  38.245   0.708
38969W        W 3789   0.886  37.271   4.223
38970W        W 3790  34.808  44.895   4.573
38971W        W 3791  16.177   5.862  11.872
38972W        W 3792  33.258  26.698   0.997
38973W        W 3793   7.288  38.149  13.358
38974W        W 3794  37.689   3.264  10.772
38975W        W 3795  28.103  42.254   4.796
38976W        W 3796  24.115  34.040   4.444
38977W        W 3797  31.710  22.143   4.183
38978W        W 3798  37.843  24.755  13.356
38979W        W 3799  16.415   1.298   0.079
38980W        W 3800  16.132  12.696  10.478
38981W        W 3801  12.080  13.556   2.873
38982W        W 3802  27.467  10.628  12.440
38983W        W 3803  15.982  43.683  14.525
38984W        W 3804  33.648  34.704   3.193
38985W        W 3805  24.712   5.228   0.861
38986W        W 3806  38.441  41.482  10.656
38987W        W 3807  30.355  40.928  12.142
38988W        W 3808  25.633  28.051   2.945
38989W        W 3809  28.995  13.712   4.582
38990W        W 3810  44.750   1.310  13.822
38991W        W 3811  17.463  30.485   3.188
38992W        W 3812  17.188  20.033  10.538
38993W        W 3813  13.863  42.486  13.561
38994W        W 3814  12.221   3.947   1.324
38995W        W 3815  17.303  17.608   3.104
38996W        W 3816  34.471  30.233   4.574
38997W        W 3817  31.131  28.861  12.488
38998W        W 3818  32.013   0.135  13.062
38999W        W 3819  21.001   8.126  10.642
39000W        W 3820  30.670   1.520   3.277
39001W        W 3821  14.732   0.360  12.874
39002W        W 3822  37.661  35.152  10.237
39003W        W 3823   0.248  30.004  11.105
39004W        W 3824  11.659  39.994  13.265
39005W        W 3825  18.634  10.458   3.322
39006W        W 3826  20.326  29.653   3.060
39007W        W 3827  44.116  13.880  14.826
39008W        W 3828  26.593   3.597   4.064
39009W        W 3829   8.683  35.071   2.269
39010W        W 3830  29.144  16.764  11.409
39011W        W 3831  21.211  22.864   1.604
39012W        W 3832  34.037   0.249  12.970
39013W        W 3833  43.262  13.254  10.630
39014W        W 3834  42.531   8.484   1.867
39015W        W 3835  11.346  11.365  12.365
39016W        W 3836  11.349   8.363   3.449
39017W        W 3837  14.691  16.524  14.721
39018W        W 3838  37.959  21.644   3.297
39019W        W 3839  41.815   7.151   3.670
39020W        W 3840  36.544  29.440  14.012
39021W        W 3841  40.348   7.151  14.556
39022W        W 3842  21.727  15.681  12.090
39023W        W 3843  24.798   3.948  11.390
39024W        W 3844  26.004  10.761   4.122
39025W        W 3845  32.067  32.567   2.238
39026W        W 3846  12.220  22.305   1.158
39027W        W 3847  34.831   8.770  10.713
39028W        W 3848   7.379  18.524   0.527
39029W        W 3849  25.965  32.919   3.776
39030W        W 3850  20.073  19.261  10.600
39031W        W 3851  42.881  19.264   0.248
39032W        W 3852  11.680  24.954  13.816
39033W        W 3853   3.505  11.111   2.741
39034W        W 3854  33.263  27.521   2.893
39035W        W 3855  36.885  36.004   1.186
39036W        W 3856  26.380  42.092   1.707
39037W        W 3857  23.524  40.036   1.938
39038W        W 3858  41.390   8.023   2.095
39039W        W 3859  18.173  34.747  10.217
39040W        W 3860  17.629  35.353   9.785
39041W        W 3861  39.738  21.147   3.553
39042W        W 3862  27.102  15.261  11.518
39043W        W 3863   3.627  13.373  12.107
39044W        W 3864  40.411  17.339   3.393
39045W        W 3865  22.667  26.849   4.527
39046W        W 3866   7.648   7.933   3.633
39047W        W 3867  20.805  12.216  11.166
39048W        W 3868  23.288  35.441   1.896
39049W        W 3869  43.907  27.721  14.922
39050W        W 3870  11.846  22.122  11.097
39051W        W 3871   5.014  14.369   4.593
39052W        W 3872  41.130   8.732  11.190
39053W        W 3873  24.776   8.372   3.688
39054W        W 3874  41.361   1.651   3.149
39055W        W 3875  15.978   8.765   4.070
39056W        W 3876   3.784  23.912   3.787
39057W        W 3877  38.159   4.561  12.582
39058W        W 3878  32.188  38.840   0.332
39059W        W 3879   1.027  22.520  10.818
39060W        W 3880   6.636  23.981   1.778
39061W        W 3881   5.060   8.747  14.859
39062W        W 3882  34.704  13.233  13.714
39063W        W 3883  43.606   5.358  12.425
39064W        W 3884  34.435   6.750   3.728
39065W        W 3885   7.840  41.279   1.901
39066W        W 3886  33.372  23.635   2.660
39067W        W 3887  32.835  36.885   3.283
39068W        W 3888  32.830  42.812  14.983
39069W        W 3889  37.923  19.315   0.902
39070W        W 3890  39.230  18.600  10.227
39071W        W 3891  22.432  34.541  12.821
39072W        W 3892  39.699  25.680   0.785
39073W        W 3893   9.967   8.642   4.018
39074W        W 3894  11.838  42.339   2.724
39075W        W 3895   3.885  16.046  11.497
39076W        W 3896  11.224  34.932   1.787
39077W        W 3897   4.434  32.597   0.272
39078W        W 3898  20.025  33.152  14.361
39079W        W 3899   5.363  18.985  13.249
39080W        W 3900   1.957  38.324  10.764
39081W        W 3901  38.820  35.172  14.910
39082W        W 3902  44.308  33.894  12.630
39083W        W 3903   6.176  23.824   1.953
39084W        W 3904   1.371  19.228   1.302
39085W        W 3905  35.608  34.490  10.722
39086W        W 3906  31.969  43.360  10.889
39087W        W 3907  31.470  22.161   3.232
39088W        W 3908  21.102  43.223   4.522
39089W        W 3909   9.495   7.070   3.638
39090W        W 3910  32.436  12.918   2.198
39091W        W 3911  36.838  43.936  11.988
39092W        W 3912  39.562  21.087   2.707
39093W        W 3913  23.639   5.793  10.467
39094W        W 3914  33.329  10.384   4.158
39095W        W 3915  13.197  29.494   3.658
39096W        W 3916  25.010   2.911   1.849
39097W        W 3917   0.532  30.025   0.715
39098W        W 3918  35.995   0.662   4.898
39099W        W 3919  17.291  12.679   3.505
39100W        W 3920  35.165   4.342  14.352
39101W        W 3921  38.213   7.289  11.737
39102W        W 3922  41.407   3.619   0.319
39103W        W 3923  43.185  13.545   0.785
39104W        W 3924  34.905  12.681   1.235
39105W        W 3925   3.811   3.224   1.486
39106W        W 3926  21.217  23.069  13.370
39107W        W 3927  43.358  22.712   4.895
39108W        W 3928  20.372  33.842   1.461
39109W        W 3929  10.722   5.384  13.484
39110W        W 3930  30.027  28.375  14.479
39111W        W 3931   1.891   1.435  11.442
39112W        W 3932  32.926  33.521  12.055
39113W        W 3933   3.835  28.864   3.766
39114W        W 3934  39.261  32.569  13.043
39115W        W 3935  26.776  10.927  13.073
39116W        W 3936  12.538   2.984   1.490
39117W        W 3937  33.194   9.535   3.264
39118W        W 3938  12.072  27.499  11.106
39119W        W 3939  30.010  19.746  12.802
39120W        W 3940  11.935  28.992   0.055
39121W        W 3941  23.506  24.764  12.140
39122W        W 3942  35.452  26.023   3.833
39123W        W 3943   8.734  25.479   1.480
39124W        W 3944  14.332  41.897   3.825
39125W        W 3945  32.368  11.311  13.863
39126W        W 3946  30.252   8.083   3.624
39127W        W 3947  20.168  34.754  14.897
39128W        W 3948  44.801  16.761   3.244
39129W        W 3949  30.451   7.763   4.524
39130W        W 3950  22.375  28.404   9.901
39131W        W 3951  33.571  16.803   0.573
39132W        W 3952  36.938  43.494  14.663
39133W        W 3953  35.069   2.341   2.911
39134W        W 3954  31.013   3.964   0.526
39135W        W 3955  40.189  28.496   2.595
39136W        W 3956   6.193  36.282   2.871
39137W        W 3957   9.551  32.227   4.989
39138W        W 3958  14.647  10.159   0.509
39139W        W 3959  24.526   0.468  10.782
39140W        W 3960  31.034   6.895  12.996
39141W        W 3961  30.123  29.111   1.307
39142W        W 3962  17.220   1.023  14.438
39143W        W 3963   9.383  18.655  13.604
39144W        W 3964  32.895  12.758   1.282
39145W        W 3965  12.798   5.194   0.425
39146W        W 3966  30.212  22.747   1.492
39147W        W 3967  28.724  12.586   4.303
39148W        W 3968  33.292  38.238  13.591
39149W        W 3969   8.564   1.750  14.349
39150W        W 3970  27.207   9.801   3.031
39151W        W 3971  14.188  26.115  12.592
39152W        W 3972  43.460  43.824   0.774
39153W        W 3973   3.799  25.658  13.334
39154W        W 3974  33.126  32.157   2.795
39155W        W 3975   3.740  36.637  11.663
39156W        W 3976   1.328  12.091  13.992
39157W        W 3977  33.610   0.366   9.676
39158W        W 3978  20.009  24.080  10.639
39159W        W 3979  24.657  13.052   1.816
39160W        W 3980  31.551  24.158   1.600
39161W        W 3981  37.080  25.432   3.277
39162W        W 3982  15.746  16.701   0.467
39163W        W 3983   2.830  14.346  13.659
39164W        W 3984  12.237  33.349   1.419
39165W        W 3985   1.216  34.210  13.040
39166W        W 3986  27.891  32.193  13.399
39167W        W 3987  44.354  43.520  12.836
39168W        W 3988  23.151  11.960   3.215
39169W        W 3989  29.449  41.333  14.046
39170W        W 3990  38.593  11.185   5.403
39171W        W 3991  10.853  20.040   4.904
39172W        W 3992  12.272   8.432  11.154
39173W        W 3993  42.786  27.934   1.150
39174W        W 3994  24.293  20.111   0.051
39175W        W 3995  43.283  13.587  13.613
39176W        W 3996  16.750  14.286  12.004
39177W        W 3997  19.587   1.802  11.094
39178W        W 3998  11.243  27.301   3.697
39179W        W 3999  15.223   5.792  12.445
39180W        W 4000  12.374  24.276  14.352
39181W        W 4001  15.350   8.283  12.134
39182W        W 4002  36.684  33.172   0.841
39183W        W 4003   1.001  43.485   0.490
39184W        W 4004  27.391  44.443   1.789
39185W        W 4005  22.630  23.707   4.383
39186W        W 4006   3.971  42.777   4.575
39187W        W 4007  40.662  26.400   1.737
39188W        W 4008  30.754  40.955  11.435
39189W        W 4009  36.987  30.303   2.154
39190W        W 4010   2.538  38.397   3.098
39191W        W 4011  39.885  14.675  13.986
39192W        W 4012  11.657  20.067   4.338
39193W        W 4013   5.765  18.196   4.872
39194W        W 4014  37.880  25.482   3.700
39195W        W 4015  13.140  13.614   0.490
39196W        W 4016   9.711  22.187   0.198
39197W        W 4017  21.934   7.757   2.428
39198W        W 4018  38.915   5.396   2.374
39199W        W 4019  16.823  43.033   1.375
39200W        W 4020  44.334  28.897   1.071
39201W        W 4021  18.223  33.193   5.186
39202W        W 4022   9.902  31.946   0.706
39203W        W 4023  27.127   2.680  12.917
39204W        W 4024  24.494  32.017   3.945
39205W        W 4025  41.824  43.904   0.332
39206W        W 4026  33.285   5.975  14.276
39207W        W 4027  16.768  34.350   0.831
39208W        W 4028  13.407  38.032  13.946
39209W        W 4029  24.012  24.018   1.698
39210W        W 4030  17.084  30.628   1.857
39211W        W 4031  28.626   3.917  11.977
39212W        W 4032   1.507   3.811  14.429
39213W        W 4033  41.051  37.799  10.777
39214W        W 4034  26.906  33.776  10.305
39215W        W 4035  20.072  28.110   2.376
39216W        W 4036  18.279  44.803   1.252
39217W        W 4037  38.958  10.315   0.780
39218W        W 4038  23.558  17.176   4.335
39219W        W 4039  21.413  13.208   2.321
39220W        W 4040  44.274  23.132  13.437
39221W        W 4041  26.051  23.450   2.263
39222W        W 4042  19.271  21.361  13.551
39223W        W 4043  15.674  20.281  14.606
39224W        W 4044   4.036   0.340   0.966
39225W        W 4045  23.804  37.931  12.493
39226W        W 4046  10.596  42.447  12.979
39227W        W 4047  13.897  19.285   3.324
39228W        W 4048   4.914   2.885  10.752
39229W        W 4049  44.773   2.832   1.963
39230W        W 4050  23.231  38.411  12.634
39231W        W 4051  41.536  17.553  11.097
39232W        W 4052  26.932  25.948  12.715
39233W        W 4053  20.036   8.116  13.319
39234W        W 4054  24.673   4.189   0.903
39235W        W 4055  17.276  21.757   0.927
39236W        W 4056  31.046  23.343  10.052
39237W        W 4057  36.988  26.902  11.565
39238W        W 4058  27.172  44.181   1.345
39239W        W 4059  11.471  16.386  11.580
39240W        W 4060  17.856  23.299  13.570
39241W        W 4061  14.225   5.315   4.597
39242W        W 4062  44.729  35.006   4.403
39243W        W 4063  18.097  32.475   0.870
39244W        W 4064  21.286  14.406   0.368
39245W        W 4065  19.533  23.729  12.554
39246W        W 4066  30.180  41.381  10.646
39247W        W 4067  10.272   5.219   4.231
39248W        W 4068  27.623  16.030  13.601
39249W        W 4069  20.403  33.295  14.929
39250W        W 4070  43.427  33.982   0.635
39251W        W 4071  20.173  39.455  11.383
39252W        W 4072  38.038  43.682  14.975
39253W        W 4073  31.336  21.257  10.955
39254W        W 4074  16.492   7.232   4.665
39255W        W 4075  11.632  32.681  14.797
39256W        W 4076  22.778  36.017  11.375
39257W        W 4077  19.693   5.950   3.362
39258W        W 4078   7.649   7.946  10.975
39259W        W 4079  13.704  17.238  14.311
39260W        W 4080  29.653  34.149   0.978
39261W        W 4081   9.829  27.607   0.756
39262W        W 4082   1.492   9.780  11.945
39263W        W 4083  44.737  29.119  10.679
39264W        W 4084  28.852   6.753  11.093
39265W        W 4085  21.048  17.621  13.074
39266W        W 4086  18.286  30.109   1.694
39267W        W 4087  32.217  19.058  12.439
39268W        W 4088   4.455  28.025  11.431
39269W        W 4089  11.134  39.892  11.502
39270W        W 4090  41.930   1.783   1.715
39271W        W 4091   0.838  24.810   1.197
39272W        W 4092  21.401  28.513   2.391
39273W        W 4093  22.260  26.959   0.730
39274W        W 4094  10.054   4.241  14.874
39275W        W 4095  22.858  41.407  11.320
39276W        W 4096  32.278  42.546  10.657
39277W        W 4097   7.619  26.539   2.754
39278W        W 4098  37.503  16.391   0.541
39279W        W 4099   5.782  25.092  11.661
39280W        W 4100  17.094  19.615   0.335
39281W        W 4101   8.731  28.099   2.617
39282W        W 4102  27.533  24.793   4.105
39283W        W 4103  38.505  25.161   0.521
39284W        W 4104  18.737   6.499   1.887
39285W        W 4105  41.524  17.989   1.945
39286W        W 4106  36.407  11.428  13.318
39287W        W 4107  17.126  13.822   2.430
39288W        W 4108  20.592  35.879   2.437
39289W        W 4109   0.145   5.373   0.314
39290W        W 4110  10.924  39.876  12.014
39291W        W 4111  28.974   7.777  10.747
39292W        W 4112   5.665  14.706  13.314
39293W        W 4113   8.375   4.650   1.783
39294W        W 4114  39.481   0.336  11.969
39295W        W 4115  30.856  39.548   2.305
39296W        W 4116  33.001  15.328  12.902
39297W        W 4117   8.438  13.693  10.422
39298W        W 4118   3.869  22.582   4.128
39299W        W 4119  44.493   8.415  11.027
39300W        W 4120  35.299  35.353  11.543
39301W        W 4121  19.094  40.916   4.459
39302W        W 4122  37.996  24.480  12.935
39303W        W 4123   1.370  23.046  12.492
39304W        W 4124  35.957  41.234   2.778
39305W        W 4125  23.053   4.854   1.420
39306W        W 4126   2.574   1.396   2.793
39307W        W 4127  44.422  20.929  12.994
39308W        W 4128  22.682  39.729   4.100
39309W        W 4129  44.751  20.153   0.036
39310W        W 4130   7.908  36.275  12.394
39311W        W 4131  16.839  14.233  12.508
39312W        W 4132  17.324  39.613  13.980
39313W        W 4133   7.614  40.460  12.075
39314W        W 4134  14.460  26.098   2.000
39315W        W 4135  43.014  31.030   5.031
39316W        W 4136  32.828  12.511   2.214
39317W        W 4137  27.108  27.901   4.667
39318W        W 4138  40.014   9.080   2.799
39319W        W 4139  41.035  43.017   2.574
39320W        W 4140  28.058  14.397   2.624
39321W        W 4141  20.086   8.049   1.371
39322W        W 4142  23.683  38.831   3.267
39323W        W 4143  30.912   4.409  12.921
39324W        W 4144  26.799   2.637  13.333
39325W        W 4145  15.259  27.348  13.214
39326W        W 4146  40.530  20.204   2.228
39327W        W 4147  35.653  38.958  13.322
39328W        W 4148  31.418  19.352   0.807
39329W        W 4149   6.349  35.924   3.250
39330W        W 4150  29.609   0.682  14.432
39331W        W 4151  29.023  21.729  13.919
39332W        W 4152   1.850  24.336  14.011
39333W        W 4153  40.459  25.475   1.899
39334W        W 4154  41.607  10.873  11.515
39335W        W 4155  21.548   0.844  13.382
39336W        W 4156  26.387  18.427  14.347
39337W        W 4157   1.659  23.841  11.047
39338W        W 4158  28.403  28.013  10.752
39339W        W 4159  29.938  37.423  13.968
39340W        W 4160   9.438   9.085  13.965
39341W        W 4161  18.036  40.730   2.930
39342W        W 4162   6.506  34.903   2.179
39343W        W 4163  36.168  21.645  13.738
39344W        W 4164   8.287  12.882   1.039
39345W        W 4165  19.160  38.133   0.060
39346W        W 4166  19.744  14.658  12.552
39347W        W 4167  36.836   7.270  14.948
39348W        W 4168   6.184  14.761  12.062
39349W        W 4169  16.523   0.831   4.591
39350W        W 4170  32.092  22.261   3.741
39351W        W 4171  24.946  38.629   2.791
39352W        W 4172  22.511  20.686  10.556
39353W        W 4173  22.576  30.924   5.117
39354W        W 4174  10.853  14.653  14.526
39355W        W 4175   9.125  33.172   0.570
39356W        W 4176  26.073  42.851  11.629
39357W        W 4177  21.696  15.754  10.314
39358W        W 4178  23.251  41.429   2.148
39359W        W 4179  26.358  11.694   5.261
39360W        W 4180  42.394  44.864  13.916
39361W        W 4181  18.593  36.048  14.365
39362W        W 4182  39.256  16.186  12.148
39363W        W 4183  32.038   9.371   3.714
39364W        W 4184   5.795  34.028  13.742
39365W        W 4185  19.912  17.598   3.704
39366W        W 4186   4.458  14.786  14.381
39367W        W 4187  39.757  29.725  12.564
39368W        W 4188   9.626  20.096   1.425
39369W        W 4189  43.452  39.603  12.662
39370W        W 4190  42.403  15.962  14.440
39371W        W 4191   3.639  26.739  10.931
39372W        W 4192  39.375   9.588  12.558
39373W        W 4193  32.406   5.124  13.413
39374W        W 4194   3.293  32.186  14.580
39375W        W 4195  40.916  34.809   2.897
39376W        W 4196  22.936   6.443   4.918
39377W        W 4197  15.185  17.245  12.993
39378W        W 4198  18.864  29.986  13.593
39379W        W 4199  43.471   5.009   3.319
39380W        W 4200  25.230   4.321   1.753
39381W        W 4201  18.862  32.511  13.999
39382W        W 4202   3.691  21.859  12.089
39383W        W 4203  26.640   9.279  13.847
39384W        W 4204  27.588  19.341  10.967
39385W        W 4205  20.717   4.279   1.274
39386W        W 4206  15.061  36.376  11.225
39387W        W 4207  33.596  41.098  13.920
39388W        W 4208   3.710  23.952   5.130
39389W        W 4209  18.782   8.092  14.508
39390W        W 4210  38.340   9.946  12.318
39391W        W 4211   3.404  37.870  12.423
39392W        W 4212  16.994  14.269   3.990
39393W        W 4213  41.215  27.473   0.482
39394W        W 4214  29.749  14.114   1.988
39395W        W 4215  37.958  29.478  11.787
39396W        W 4216  13.322  43.221   1.746
39397W        W 4217   7.780  18.568   0.191
39398W        W 4218  39.339  29.180   1.516
39399W        W 4219  12.951   8.852  13.421
39400W        W 4220   0.073  25.040  13.971
39401W        W 4221  18.292  41.884  12.267
39402W        W 4222  26.060   2.725  13.016
39403W        W 4223  37.317  39.953   3.413
39404W        W 4224  30.959  25.071   1.166
39405W        W 4225  36.395   1.009  13.426
39406W        W 4226   0.931  18.113   2.799
39407W        W 4227  12.460  21.793   3.235
39408W        W 4228  42.369   2.471  12.666
39409W        W 4229  32.089   7.179  13.928
39410W        W 4230  22.727  30.117   4.872
39411W        W 4231  12.784  17.694  13.875
39412W        W 4232  38.093  21.613  11.631
39413W        W 4233  20.051   9.903   2.592
39414W        W 4234  14.571  22.964  10.998
39415W        W 4235  32.384  41.704  13.411
39416W        W 4236  32.213  22.643   4.074
39417W        W 4237   1.128  29.653   1.454
39418W        W 4238  13.881  28.202  11.966
39419W        W 4239  11.233  11.851  13.358
39420W        W 4240   3.259   1.886  13.559
39421W        W 4241  30.133  27.099   3.769
39422W        W 4242  33.028  15.280  12.382
39423W        W 4243   3.348  24.712  10.338
39424W        W 4244   0.528  36.288  12.510
39425W        W 4245  34.445  11.161  12.924
39426W        W 4246  22.968  12.635  13.795
39427W        W 4247  38.463  40.531   0.707
39428W        W 4248  39.452  40.542   4.697
39429W        W 4249  42.985  24.017  12.990
39430W        W 4250  36.562   0.499  12.666
39431W        W 4251   5.760  40.307  11.150
39432W        W 4252   9.474  30.039  14.755
39433W        W 4253  41.639  22.310  11.585
39434W        W 4254   3.135   2.264  12.875
39435W        W 4255  13.592  23.439   3.630
39436W        W 4256  10.998   6.465   4.043
39437W        W 4257   8.149   9.744  11.926
39438W        W 4258  37.506  20.331  14.026
39439W        W 4259  19.760  25.198   2.391
39440W        W 4260  12.952  11.857   1.803
39441W        W 4261  37.217   7.943   2.735
39442W        W 4262  35.539  43.411   3.700
39443W        W 4263  41.825  25.207  14.468
39444W        W 4264  31.443   1.558   4.423
39445W        W 4265   1.789   5.751  10.889
39446W        W 4266   0.280   8.194   0.265
39447W        W 4267   7.640  28.447   3.644
39448W        W 4268  20.045  19.288   4.075
39449W        W 4269  20.036  24.415  13.011
39450W        W 4270  41.619  17.271  12.427
39451W        W 4271   0.455  14.377  14.777
39452W        W 4272  25.065   3.805   1.928
39453W        W 4273   4.000  12.905  11.603
39454W        W 4274  25.218  39.542  12.182
39455W        W 4275   4.067  39.340  12.423
39456W        W 4276  23.968  43.773  13.336
39457W        W 4277  22.733  17.187  10.274
39458W        W 4278  33.952  41.790   0.688
39459W        W 4279  26.191  37.804  11.554
39460W        W 4280   8.333   2.767   1.459
39461W        W 4281   2.242  11.678  10.382
39462W        W 4282  27.692  44.777  11.783
39463W        W 4283  42.872  35.351   4.146
39464W        W 4284   1.061  41.281  10.787
39465W        W 4285  29.565  38.450  12.880
39466W        W 4286  22.227  24.685  12.519
39467W        W 4287  24.815   8.317   9.511
39468W        W 4288  26.349  22.218  10.790
39469W        W 4289  17.658  43.611   1.373
39470W        W 4290  32.605  25.119   0.935
39471W        W 4291   3.482  13.926   4.414
39472W        W 4292  40.417   8.315   4.711
39473W        W 4293  29.442  23.783  13.382
39474W        W 4294  26.612  27.539   2.294
39475W        W 4295   8.305   0.338   2.371
39476W        W 4296   0.050  27.448   2.866
39477W        W 4297  23.483  12.310   0.272
39478W        W 4298   3.734  22.285   1.201
39479W        W 4299   2.460  23.105   0.381
39480W        W 4300  36.919  22.796  11.037
39481W        W 4301  14.233  20.348  13.069
39482W        W 4302  39.676  44.223  12.933
39483W        W 4303  29.116   9.799   4.179
39484W        W 4304  28.373  40.627  13.754
39485W        W 4305   6.970  32.154   1.479
39486W        W 4306  32.658  41.745  11.070
39487W        W 4307   8.569  13.780   2.184
39488W        W 4308  28.110   2.338  10.863
39489W        W 4309  28.208  44.366   2.848
39490W        W 4310  36.367  44.780   4.607
39491W        W 4311   1.019  38.924   2.260
39492W        W 4312  20.719   6.595   1.738
39493W        W 4313  18.738  13.333   4.250
39494W        W 4314  42.854  14.214  12.832
39495W        W 4315  34.405  17.668  13.624
39496W        W 4316   6.893  14.350  13.364
39497W        W 4317   9.326  43.890   4.157
39498W        W 4318   9.160   7.149  10.812
39499W        W 4319   1.470   1.310  13.607
39500W        W 4320  39.938  42.801  13.429
39501W        W 4321  37.983  30.683  12.484
39502W        W 4322  19.430  10.909  14.539
39503W        W 4323   6.688  27.301  13.042
39504W        W 4324  18.514  42.188  10.832
39505W        W 4325  35.551  27.620   4.821
39506W        W 4326  13.184  37.262  10.277
39507W        W 4327   8.633  43.783  11.545
39508W        W 4328  28.485  16.869  10.696
39509W        W 4329  35.081  16.678  10.502
39510W        W 4330   7.542  38.297  13.808
39511W        W 4331  15.030  38.893  13.049
39512W        W 4332  17.222  44.917   4.210
39513W        W 4333  25.484   3.886   3.707
39514W        W 4334  20.136   3.409   4.293
39515W        W 4335  26.087   9.232  12.359
39516W        W 4336  14.780  24.714   1.299
39517W        W 4337  41.318  11.875  13.686
39518W        W 4338  23.493  25.684   1.485
39519W        W 4339  21.196  25.898   3.293
39520W        W 4340  13.851   8.409   3.863
39521W        W 4341  32.429  18.325  10.971
39522W        W 4342   8.746  11.233   3.251
39523W        W 4343  28.975  41.302  13.822
39524W        W 4344   5.967  21.233  11.113
39525W        W 4345  26.729   8.723  11.217
39526W        W 4346  18.802  43.733  13.252
39527W        W 4347  39.210  30.421  11.997
39528W        W 4348  35.928   5.353   1.507
39529W        W 4349  42.102   4.201   3.315
39530W        W 4350  16.839  15.321  11.016
39531W        W 4351  15.611  22.804  11.121
39532W        W 4352  33.144  32.396   3.274
39533W        W 4353  44.068   0.703  13.946
39534W        W 4354   0.520   6.698   1.375
39535W        W 4355   7.852  36.308  13.549
39536W        W 4356  22.084  37.031   4.966
39537W        W 4357  23.154  12.128  13.913
39538W        W 4358  24.219  15.686   2.251
39539W        W 4359  43.225   9.512   0.777
39540W        W 4360  19.061  34.630   4.166
39541W        W 4361  31.559   2.016  13.512
39542W        W 4362  13.343  38.284  12.936
39543W        W 4363  27.426  16.976  13.355
39544W        W 4364   3.438  31.521   0.699
39545W        W 4365  44.008  16.334   1.734
39546W        W 4366  38.949  14.542   3.789
39547W        W 4367  13.753  38.670   2.194
39548W        W 4368  33.414  19.310  11.357
39549W        W 4369   4.232  30.846  10.849
39550W        W 4370  23.143  33.997  14.467
39551W        W 4371  21.742   0.664  12.599
39552W        W 4372  11.149   8.797   3.257
39553W        W 4373  30.203   5.194  13.521
39554W        W 4374  28.034  43.894   1.401
39555W        W 4375  29.952  31.969   1.266
39556W        W 4376  30.106   6.850  13.108
39557W        W 4377  35.591   4.737  13.855
39558W        W 4378  28.167  18.139  13.591
39559W        W 4379  31.151  19.219  11.961
39560W        W 4380   1.231  28.627   3.228
39561W        W 4381  18.721   6.922   2.169
39562W        W 4382   1.195  19.626  13.933
39563W        W 4383  40.444  14.951  11.867
39564W        W 4384  27.916  20.432  13.538
39565W        W 4385  24.267  39.809   3.677
39566W        W 4386  25.349  34.636   5.141
39567W        W 4387  23.317   3.492  13.440
39568W        W 4388  16.110   9.910  14.696
39569W        W 4389   6.361  31.563   1.991
39570W        W 4390  17.659  36.619  10.410
39571W        W 4391  31.846   5.214  12.548
39572W        W 4392  35.955  13.122   0.895
39573W        W 4393  10.092   8.972   3.340
39574W        W 4394  24.254  15.196   2.887
39575W        W 4395  39.367  36.406   4.464
39576W        W 4396  28.388  32.146   1.014
39577W        W 4397  24.913  30.967  13.327
39578W        W 4398   0.704  39.357  13.947
39579W        W 4399  41.004   9.150   4.273
39580W        W 4400  44.256  20.639   4.197
39581W        W 4401   4.996  38.583  14.945
39582W        W 4402  14.452  13.538  10.997
39583W        W 4403  43.075  35.382  13.330
39584W        W 4404   4.252  15.165  11.733
39585W        W 4405  22.569  33.073   2.033
39586W        W 4406  24.930   3.748   0.949
39587W        W 4407  44.880  16.373  12.494
39588W        W 4408  17.233  10.121   2.232
39589W        W 4409  39.975  16.312   4.583
39590W        W 4410  31.106  35.205   2.718
39591W        W 4411  26.504  23.794  10.631
39592W        W 4412  42.273  16.711   0.344
39593W        W 4413  25.184  13.117   3.890
39594W        W 4414  16.276  26.732   4.136
39595W        W 4415  43.720  23.356   1.730
39596W        W 4416  28.178  21.557  11.722
39597W        W 4417   8.808  41.741  12.573
39598W        W 4418  39.624  12.637   0.356
39599W        W 4419  43.697  31.006  14.839
39600W        W 4420   1.587  10.705  11.240
39601W        W 4421  14.196  31.575   4.102
39602W        W 4422  18.741   8.391   2.331
39603W        W 4423  23.775   9.346   3.709
39604W        W 4424  30.688   1.908  14.533
39605W        W 4425  29.202   1.803   3.701
39606W        W 4426  26.434  23.399  12.412
39607W        W 4427  13.566  15.787   2.243
39608W        W 4428   0.099  23.757   4.681
39609W        W 4429   0.752  17.810   0.930
39610W        W 4430  39.677   9.124  10.585
39611W        W 4431  21.823  29.532  13.031
39612W        W 4432  29.894   3.296   4.320
39613W        W 4433   1.231   8.116   1.841
39614W        W 4434  10.366  24.372   5.317
39615W        W 4435  22.652  35.903  14.930
39616W        W 4436  33.024   8.301   4.226
39617W        W 4437  17.629   2.453   3.920
39618W        W 4438  17.855  21.412  14.321
39619W        W 4439  14.602  30.418   1.705
39620W        W 4440   8.302  14.142   3.340
39621W        W 4441  19.534  35.984  11.966
39622W        W 4442  15.252  11.193  14.290
39623W        W 4443  16.780  32.078  10.520
39624W        W 4444  23.940   0.066  12.345
39625W        W 4445  10.943   5.249   4.317
39626W        W 4446  33.439   0.229  13.459
39627W        W 4447  42.396  28.137   0.828
39628W        W 4448  37.329  44.967  14.759
39629W        W 4449   7.242   7.596   3.616
39630W        W 4450   7.700  23.571   3.278
39631W        W 4451   2.726  39.520  12.975
39632W        W 4452  34.040  34.763  11.837
39633W        W 4453  35.357  28.438   3.723
39634W        W 4454  30.672   7.860  11.798
39635W        W 4455   0.415  29.108   1.191
39636W        W 4456  16.590  25.435  13.372
39637W        W 4457  41.788  38.019   0.619
39638W        W 4458  43.132  37.858  12.033
39639W        W 4459  34.117   0.174   2.792
39640W        W 4460  42.295  33.880   0.708
39641W        W 4461  42.002  30.465   3.631
39642W        W 4462  21.338  19.239   9.870
39643W        W 4463   5.750  23.717  14.666
39644W        W 4464  41.451   9.732  10.590
39645W        W 4465   4.384  42.614   2.840
39646W        W 4466   7.593  30.644   0.718
39647W        W 4467   4.209  11.611   1.003
39648W        W 4468  37.110   4.801  12.018
39649W        W 4469  13.721  16.286   2.181
39650W        W 4470  12.795  30.556  12.754
39651W        W 4471  15.653  33.853  13.434
39652W        W 4472  23.132   5.636   2.120
39653W        W 4473  42.711   1.435   1.854
39654W        W 4474  37.030  11.764   1.891
39655W        W 4475  23.232  29.095  13.305
39656W        W 4476  36.964  38.606   4.319
39657W        W 4477  41.488   5.655   4.098
39658W        W 4478  15.649  29.713   2.319
39659W        W 4479  24.116  33.415  11.626
39660W        W 4480   4.889  22.667   4.057
39661W        W 4481  26.260  41.529   2.505
39662W        W 4482  42.958  22.098   0.023
39663W        W 4483  10.070  32.245  12.644
39664W        W 4484  12.910  43.964  14.436
39665W        W 4485  13.701   3.662   1.441
39666W        W 4486  26.677  34.833   3.392
39667W        W 4487  21.964   7.279   3.586
39668W        W 4488  43.275  17.868  13.029
39669W        W 4489  33.876  20.443  12.438
39670W        W 4490   5.676   0.367   0.450
39671W        W 4491  36.936  35.821  11.948
39672W        W 4492  20.712  14.178   0.982
39673W        W 4493  32.820  43.425   2.628
39674W        W 4494  17.608  31.922   2.274
39675W        W 4495  41.399  11.895   4.800
39676W        W 4496  43.308  11.062   0.651
39677W        W 4497  31.885  15.687   4.138
39678W        W 4498  37.340  41.838  13.176
39679W        W 4499  32.224  14.600  14.262
39680W        W 4500  22.523  35.062  12.450
39681W        W 4501  25.416  27.872   3.712
39682W        W 4502   7.478  13.103   1.419
39683W        W 4503  19.688  32.996   4.793
39684W        W 4504  31.992  11.159  11.920
39685W        W 4505  35.376  16.115  12.913
39686W        W 4506  19.710  22.992  14.957
39687W        W 4507  42.096   1.974   0.218
39688W        W 4508  21.005  18.793   2.744
39689W        W 4509  24.875  41.066   0.234
39690W        W 4510  43.187   7.446  11.194
39691W        W 4511   5.734  42.020   2.370
39692W        W 4512  16.159  34.868  13.935
39693W        W 4513  42.246  22.100  13.318
39694W        W 4514  13.791  32.830   2.716
39695W        W 4515  18.257  25.262  11.934
39696W        W 4516  22.496  38.522   3.637
39697W        W 4517  30.681  16.197   0.786
39698W        W 4518   6.469  34.854   0.057
39699W        W 4519  38.383  33.014  11.356
39700W        W 4520  41.581  17.022  11.142
39701W        W 4521   3.846  13.147   4.633
39702W        W 4522  10.323   9.921   0.581
39703W        W 4523  44.316  28.519   2.371
39704W        W 4524  10.078  31.986  11.002
39705W        W 4525   5.249  40.043  12.941
39706W        W 4526  11.070   3.675  12.376
39707W        W 4527   5.864  40.590   2.184
39708W        W 4528   8.095  18.278   4.119
39709W        W 4529  13.135   4.853  12.311
39710W        W 4530  13.142  17.278   5.169
39711W        W 4531  18.087  11.146  14.935
39712W        W 4532  12.782  28.054  12.331
39713W        W 4533  16.796   5.483  10.993
39714W        W 4534  41.315  34.523  10.571
39715W        W 4535  19.140  27.808   2.866
39716W        W 4536  10.100  42.875   4.428
39717W        W 4537  11.660  13.419  13.028
39718W        W 4538  22.511  15.548   2.746
39719W        W 4539  44.864  20.776  12.346
39720W        W 4540  10.322   4.874   2.201
39721W        W 4541  39.129  23.963   0.761
39722W        W 4542  29.387  12.393  14.750
39723W        W 4543  20.165  33.375   3.727
39724W        W 4544  15.270  35.110   2.236
39725W        W 4545  26.043   2.854   3.965
39726W        W 4546  14.361  21.029   1.707
39727W        W 4547   1.823  20.117  12.488
39728W        W 4548  19.526   6.423  11.487
39729W        W 4549  11.715  13.024   4.919
39730W        W 4550  42.823  15.797  12.613
39731W        W 4551  14.622  15.854   4.663
39732W        W 4552  17.662  34.682   2.151
39733W        W 4553  23.300  33.875   1.697
39734W        W 4554  11.083  17.908   1.839
39735W        W 4555  37.797  18.100  10.175
39736W        W 4556  13.244  34.808   0.847
39737W        W 4557  26.442  37.413   1.315
39738W        W 4558  16.543  14.660   3.768
39739W        W 4559   3.527  13.764  12.452
39740W        W 4560  27.549  39.737  11.402
39741W        W 4561   3.641   2.492  13.788
39742W        W 4562   4.922  23.805  14.245
39743W        W 4563  44.318  44.030   1.051
39744W        W 4564  44.171  36.956  13.208
39745W        W 4565  24.511  24.700   3.484
39746W        W 4566  33.447  16.348  14.442
39747W        W 4567   3.865  15.162  11.109
39748W        W 4568  17.496   9.889  10.733
39749W        W 4569  43.721  36.135  12.567
39750W        W 4570   8.257  19.323   0.202
39751W        W 4571  10.551  26.165   1.785
39752W        W 4572  10.585  27.824  10.767
39753W        W 4573  12.578  24.438  13.893
39754W        W 4574  23.721  24.437  12.499
39755W        W 4575  15.714  20.581  10.951
39756W        W 4576  34.137  10.720   1.160
39757W        W 4577   1.085  15.510   1.677
39758W        W 4578  11.166   7.454   1.240
39759W        W 4579  33.580  36.551   3.820
39760W        W 4580  23.061  19.576   5.185
39761W        W 4581   1.434  16.711   0.126
39762W        W 4582  17.101   0.744  13.086
39763W        W 4583  10.156  39.856  11.666
39764W        W 4584  23.251  43.233  11.194
39765W        W 4585   3.055   1.386   0.888
39766W        W 4586   8.167  24.029  14.838
39767W        W 4587  14.630  17.729  11.042
39768W        W 4588  19.127  20.067   3.702
39769W        W 4589  14.380  23.864  14.601
39770W        W 4590  31.908   6.283   3.594
39771W        W 4591  40.737  14.712  14.558
39772W        W 4592   9.382  16.055   0.923
39773W        W 4593  19.530  27.453  11.751
39774W        W 4594  19.670   8.883  14.948
39775W        W 4595  38.337  31.562   3.509
39776W        W 4596  39.485  27.030  13.150
39777W        W 4597   5.591  41.969  11.092
39778W        W 4598   8.820  27.217   4.293
39779W        W 4599  39.755  24.672  12.984
39780W        W 4600   3.739   5.294  10.638
39781W        W 4601  26.323  12.091  14.602
39782W        W 4602  42.238  38.608   0.892
39783W        W 4603   1.429  32.060  10.732
39784W        W 4604   0.843  14.869   0.396
39785W        W 4605   6.854  36.917   1.435
39786W        W 4606  25.626  10.981   4.531
39787W        W 4607  28.408  22.646  10.610
39788W        W 4608   7.644  24.032  14.955
39789W        W 4609  20.696  34.640   1.538
39790W        W 4610  29.570  33.432   2.666
39791W        W 4611  12.423  44.833   2.671
39792W        W 4612  22.584  11.650  14.017
39793W        W 4613  30.995  20.681   4.050
39794W        W 4614   4.872   0.091   1.277
39795W        W 4615  32.547  13.869   2.108
39796W        W 4616  10.302  29.645  10.728
39797W        W 4617  39.110  19.161  13.924
39798W        W 4618  21.439  28.500  11.186
39799W        W 4619  29.977  11.890   3.628
39800W        W 4620  20.065  16.676   0.077
39801W        W 4621  29.673  34.207   4.637
39802W        W 4622  20.663  28.728  13.089
39803W        W 4623  28.702  16.131   2.245
39804W        W 4624  28.606  26.331   3.330
39805W        W 4625  15.467  20.383   3.116
39806W        W 4626  30.504  13.332  13.551
39807W        W 4627  33.992   4.235  14.252
39808W        W 4628  40.448  21.709   3.763
39809W        W 4629  33.306  26.193  13.686
39810W        W 4630  19.684  39.066   3.615
39811W        W 4631  25.412   8.373  13.803
39812W        W 4632  40.415  36.954   0.554
39813W        W 4633  20.623  12.638   2.152
39814W        W 4634   3.776  11.508   1.777
39815W        W 4635  13.964   0.822  14.801
39816W        W 4636   5.698  20.044   3.351
39817W        W 4637  10.692  25.276   4.415
39818W        W 4638  20.073  22.003  11.113
39819W        W 4639  23.710  26.707   3.821
39820W        W 4640  12.256  42.304   4.436
39821W        W 4641  30.260  11.009  10.729
39822W        W 4642  35.127  24.071  13.814
39823W        W 4643  21.122  10.087   0.962
39824W        W 4644  22.452  44.332   3.314
39825W        W 4645  41.870  40.552  13.157
39826W        W 4646  15.855  13.689  13.709
39827W        W 4647   9.497  24.384   5.379
39828W        W 4648  40.754  34.346   0.958
39829W        W 4649   4.541  29.240  14.782
39830W        W 4650  17.352  40.428   4.815
39831W        W 4651  21.073   3.827  13.970
39832W        W 4652  29.895  22.658   2.894
39833W        W 4653  40.475   6.394   4.512
39834W        W 4654  11.220   0.373  13.927
39835W        W 4655  15.735  15.548   1.369
39836W        W 4656  16.666   0.416   1.876
39837W        W 4657  34.595  27.353  13.470
39838W        W 4658  31.104  35.558  12.420
39839W        W 4659  44.324  18.473  10.622
39840W        W 4660  27.550  33.152   3.587
39841W        W 4661  39.149   5.837  14.266
39842W        W 4662  23.049  12.992  11.197
39843W        W 4663  28.928  43.954   0.225
39844W        W 4664  25.420  37.365   1.398
39845W        W 4665  38.630  29.065   2.031
39846W        W 4666   4.344  23.122   0.334
39847W        W 4667  43.174  41.251   2.283
39848W        W 4668   2.545  41.292  14.035
39849W        W 4669  18.712   5.677   2.623
39850W        W 4670   5.265   2.728   3.182
39851W        W 4671   5.243   3.429  11.649
39852W        W 4672   5.406  34.194   2.512
39853W        W 4673  22.537   3.736  13.508
39854W        W 4674  39.365  36.337  14.747
39855W        W 4675  37.007  24.038  12.517
39856W        W 4676   6.752   6.664   0.405
39857W        W 4677  41.829  37.810  12.347
39858W        W 4678   7.367  20.731   1.450
39859W        W 4679   1.153  22.687  13.892
39860W        W 4680  37.563  29.149  11.650
39861W        W 4681  30.444  17.552   2.899
39862W        W 4682  36.072  43.004  10.249
39863W        W 4683  29.649   9.858  12.546
39864W        W 4684  24.467  37.872  13.158
39865W        W 4685  40.475  43.018   3.211
39866W        W 4686  41.101  19.572   4.469
39867W        W 4687  12.191  26.232   2.397
39868W        W 4688  18.168   6.043  12.154
39869W        W 4689   5.472  33.965  12.115
39870W        W 4690  40.170  20.037   1.002
39871W        W 4691  13.686  18.018  12.147
39872W        W 4692  23.616  24.598   0.864
39873W        W 4693   9.290  33.347   3.455
39874W        W 4694  10.434   5.364  11.128
39875W        W 4695  22.757  20.779  10.994
39876W        W 4696  35.380  28.557   1.241
39877W        W 4697   9.101  18.443  14.015
39878W        W 4698  30.020  26.021   1.446
39879W        W 4699  22.151  29.114  10.444
39880W        W 4700   1.982  28.964  11.575
39881W        W 4701   1.371   3.939  11.014
39882W        W 4702  29.520  17.763   4.102
39883W        W 4703  28.970   1.700   2.220
39884W        W 4704  35.590  20.498   4.718
39885W        W 4705   2.011   0.492   1.571
39886W        W 4706  14.448  40.425  14.427
39887W        W 4707  13.674  27.464   2.239
39888W        W 4708  16.079  27.915   3.368
39889W        W 4709  12.704  22.943   3.803
39890W        W 4710  11.019  37.038   3.253
39891W        W 4711  44.853  18.199  14.932
39892W        W 4712   2.328  31.391  13.277
39893W        W 4713  21.643   6.642  14.078
39894W        W 4714  23.224   8.158  13.073
39895W        W 4715  35.628   2.504   3.724
39896W        W 4716  18.288  33.427   2.883
39897W        W 4717   2.721  44.062   3.823
39898W        W 4718  27.495  35.533  11.083
39899W        W 4719  43.216   0.256  11.712
39900W        W 4720   2.797   9.230  13.803
39901W        W 4721  34.543   4.402   4.105
39902W        W 4722  27.056  20.446  13.953
39903W        W 4723  44.499   1.058   4.578
39904W        W 4724  15.615  27.738  12.444
39905W        W 4725  19.604  32.745  11.942
39906W        W 4726   5.824   4.669  14.396
39907W        W 4727  28.657   3.878  14.339
39908W        W 4728   7.191  34.648   4.127
39909W        W 4729   6.214   1.994  11.937
39910W        W 4730  34.849  21.721  12.031
39911W        W 4731  28.220  10.743   0.855
39912W        W 4732  31.797   1.241   1.860
39913W        W 4733  37.849  43.882   1.398
39914W        W 4734  14.234  17.835   2.637
39915W        W 4735  40.869  43.193   4.427
39916W        W 4736  28.485  19.647   3.405
39917W        W 4737  18.099  24.977   3.183
39918W        W 4738  24.055   4.482  14.398
39919W        W 4739  44.402  25.478   2.371
39920W        W 4740  16.225  31.020  14.816
39921W        W 4741  10.758  22.962  12.706
39922W        W 4742  21.722   9.219  14.213
39923W        W 4743  20.499  41.714  12.672
39924W        W 4744  34.892  28.582   1.479
39925W        W 4745  39.402  17.143   1.851
39926W        W 4746  16.848  18.165  11.194
39927W        W 4747  17.542   5.110  10.757
39928W        W 4748   3.681  15.106  14.960
39929W        W 4749   7.288  15.856  12.991
39930W        W 4750   9.931  30.416   3.775
39931W        W 4751  22.525   6.794  11.280
39932W        W 4752  33.948  14.091  14.782
39933W        W 4753  42.517  26.500  14.352
39934W        W 4754  23.765  34.621   4.115
39935W        W 4755  41.821  19.600  12.846
39936W        W 4756   2.877   2.697  14.457
39937W        W 4757  40.219  16.138   1.210
39938W        W 4758   5.203  42.321   0.885
39939W        W 4759  18.924   2.209   3.564
39940W        W 4760  27.665   1.466  10.589
39941W        W 4761  16.707   6.537   1.759
39942W        W 4762   9.888  38.152  12.076
39943W        W 4763  32.983  11.653  14.337
39944W        W 4764  32.097  14.017   4.578
39945W        W 4765  41.839  21.346  10.250
39946W        W 4766  42.519  43.819   3.776
39947W        W 4767   7.136   4.828  13.994
39948W        W 4768  25.980  23.104  12.422
39949W        W 4769  22.191  41.295   1.728
39950W        W 4770  15.194  23.608   3.954
39951W        W 4771  22.005  14.288   3.967
39952W        W 4772   2.486  44.870   4.288
39953W        W 4773  18.804  24.782  14.120
39954W        W 4774   2.276  14.264  11.582
39955W        W 4775   9.128   0.250  10.530
39956W        W 4776  41.032   8.331  14.950
39957W        W 4777  14.736  14.780  10.432
39958W        W 4778  14.257   0.290  13.067
39959W        W 4779  33.853  14.063   1.810
39960W        W 4780   7.780  24.507   3.558
39961W        W 4781  44.087   8.720   2.785
39962W        W 4782   1.476  42.321   3.820
39963W        W 4783  38.545  23.000  11.740
39964W        W 4784  42.562  39.964  10.744
39965W        W 4785   8.181  28.971  10.007
39966W        W 4786  42.355  24.803   1.559
39967W        W 4787   6.121  44.055   1.179
39968W        W 4788  43.885  16.752  11.430
39969W        W 4789  23.752  11.977   1.445
39970W        W 4790   4.109  25.562   2.776
39971W        W 4791  21.216  15.709  12.020
39972W        W 4792  44.168   8.235   2.955
39973W        W 4793   1.445   7.199   2.189
39974W        W 4794  17.824  16.639   2.342
39975W        W 4795  13.314  27.946  10.523
39976W        W 4796  10.898  28.496  12.009
39977W        W 4797  23.938  22.065  14.469
39978W        W 4798  14.515  15.018   0.346
39979W        W 4799  33.438  29.376  11.251
39980W        W 4800  11.795  10.156  14.896
39981W        W 4801  16.680  12.214   3.450
39982W        W 4802  40.494  30.043  14.337
39983W        W 4803  35.905  40.019  10.672
39984W        W 4804  26.744  20.725   1.333
39985W        W 4805  19.038  21.671  14.040
39986W        W 4806  24.653  22.267  12.010
39987W        W 4807  34.671   6.600   4.662
39988W        W 4808  19.214  17.446  12.520
39989W        W 4809  31.061  36.142   2.853
39990W        W 4810  33.901  44.942   4.786
39991W        W 4811  43.494  40.878  10.758
39992W        W 4812  14.289  37.515   0.895
39993W        W 4813  18.504  22.330  14.906
39994W        W 4814  34.884  16.731   1.220
39995W        W 4815  26.993   7.599  10.484
39996W        W 4816  16.293  17.266  12.075
39997W        W 4817  40.026   3.448  11.635
39998W        W 4818   1.957   2.166  12.563
39999W        W 4819  19.265  24.171  12.577
40000W        W 4820  21.718  41.236  14.431
40001W        W 4821   6.763  32.518  10.612
40002W        W 4822  10.774  18.510   4.404
40003W        W 4823   9.333  13.101  11.555
40004W        W 4824  14.810   7.678   2.786
40005W        W 4825  17.517   1.542  12.894
40006W        W 4826  12.930  27.946   0.855
40007W        W 4827  33.931   9.228   1.168
40008W        W 4828  23.441   0.071  12.539
40009W        W 4829  22.084  22.266   3.276
40010W        W 4830  14.717  29.440   0.376
40011W        W 4831  38.009   4.878   0.175
40012W        W 4832  32.585  34.859  13.381
40013W        W 4833  16.714  43.308  10.710
40014W        W 4834  40.134  41.877   4.409
40015W        W 4835  40.300  10.326  14.795
40016W        W 4836  14.642  27.484   3.458
40017W        W 4837  33.874  21.009  14.973
40018W        W 4838  26.214  32.549   3.353
40019W        W 4839   8.377  42.003  12.673
40020W        W 4840  11.375  34.011   2.834
40021W        W 4841  32.378  28.031  10.170
40022W        W 4842  19.127  34.110   0.678
40023W        W 4843  40.396  11.743  13.086
40024W        W 4844  19.072  35.871  12.315
40025W        W 4845  26.979  15.247   3.107
40026W        W 4846  41.413  40.155   0.349
40027W        W 4847  31.159  28.558  10.714
40028W        W 4848  34.211  43.568  12.861
40029W        W 4849  39.353  32.972  11.218
40030W        W 4850  25.508  26.124   0.980
40031W        W 4851  40.416  30.515  12.547
40032W        W 4852  18.863  32.807   5.279
40033W        W 4853  28.226   1.437   0.349
40034W        W 4854  10.102   4.757  14.965
40035W        W 4855   9.991   7.800   0.405
40036W        W 4856  19.332   7.404   1.005
40037W        W 4857  20.589  41.917  14.487
40038W        W 4858  28.558  43.910  13.404
40039W        W 4859   7.164  17.500   1.424
40040W        W 4860  21.888  10.263   5.552
40041W        W 4861   8.286  26.985  11.938
40042W        W 4862  21.458  34.390  14.876
40043W        W 4863  22.815  20.649  12.767
40044W        W 4864  25.907   8.828  10.774
40045W        W 4865  30.276  28.532  13.815
40046W        W 4866  42.399  24.300   1.499
40047W        W 4867   4.399   8.509  11.863
40048W        W 4868   2.772  15.812  10.747
40049W        W 4869  26.552   2.761   3.828
40050W        W 4870   1.172  35.961   2.695
40051W        W 4871  14.039  23.986  10.457
40052W        W 4872  12.893  39.045   3.213
40053W        W 4873  35.428   5.534   0.494
40054W        W 4874  22.440  11.144   3.358
40055W        W 4875   7.801   5.219  12.496
40056W        W 4876  18.032  20.492   2.357
40057W        W 4877  27.550  36.692   0.042
40058W        W 4878  33.455  34.456   2.774
40059W        W 4879  42.215  13.369  13.955
40060W        W 4880  24.102  20.167  14.119
40061W        W 4881   8.286   4.307  10.750
40062W        W 4882  25.207   3.663   3.306
40063W        W 4883  22.117  22.739   1.821
40064W        W 4884  34.391  38.743  14.295
40065W        W 4885  40.423  18.587   1.075
40066W        W 4886  33.010   0.990  12.841
40067W        W 4887   2.162  39.890  13.067
40068W        W 4888   1.337  42.666  12.958
40069W        W 4889  23.228  44.609  12.473
40070W        W 4890  35.445   5.686  13.043
40071W        W 4891  19.960  13.651   2.801
40072W        W 4892  16.472  38.523   4.568
40073W        W 4893  21.193  34.754   3.679
40074W        W 4894  30.038  17.250   1.309
40075W        W 4895  26.031   2.617   2.623
40076W        W 4896  36.193  34.912  13.473
40077W        W 4897  26.531  30.099   1.557
40078W        W 4898  31.833  42.798   4.134
40079W        W 4899  34.479  30.376   0.288
40080W        W 4900  42.868   3.908  13.523
40081W        W 4901  18.229  31.135  10.683
40082W        W 4902  17.452  42.677   3.664
40083W        W 4903  22.980  33.847   2.132
40084W        W 4904   6.189  30.456  11.167
40085W        W 4905   3.863  27.163  13.360
40086W        W 4906  11.187  18.487  13.450
40087W        W 4907  38.643   8.692  11.426
40088W        W 4908  34.359  34.127   4.228
40089W        W 4909  41.027  14.087   1.356
40090W        W 4910  10.781  44.651   4.032
40091W        W 4911  25.629  15.183   3.866
40092W        W 4912   8.135  11.322  13.454
40093W        W 4913  29.876  41.893  12.864
40094W        W 4914  32.156  27.573   3.069
40095W        W 4915  40.904  27.127  11.173
40096W        W 4916  30.828  25.151  14.343
40097W        W 4917   2.333  23.820  13.568
40098W        W 4918   7.847  44.028  11.122
40099W        W 4919  23.481  27.896  11.168
40100W        W 4920  34.050  34.226   3.805
40101W        W 4921  37.667  13.311  10.803
40102W        W 4922  27.467  25.537  12.774
40103W        W 4923  14.380  12.028  14.120
40104W        W 4924  30.350   4.468  11.302
40105W        W 4925  15.850  10.792   0.320
40106W        W 4926  10.603  43.755  14.916
40107W        W 4927  34.667  23.634   3.137
40108W        W 4928  31.921  23.207   1.925
40109W        W 4929  44.332  13.412  13.990
40110W        W 4930  18.790  18.689   3.020
40111W        W 4931   1.515  26.663  13.382
40112W        W 4932   7.245  12.025   2.657
40113W        W 4933  40.472  40.888   0.437
40114W        W 4934  19.808   2.188  14.855
40115W        W 4935   9.909   7.673  14.525
40116W        W 4936  36.328  32.672  13.017
40117W        W 4937   8.850  15.844  10.263
40118W        W 4938   4.177  38.989  10.677
40119W        W 4939  43.527  20.702  10.895
40120W        W 4940  24.274   5.379  14.364
40121W        W 4941  39.875  38.066   2.292
40122W        W 4942   8.283  35.614  14.281
40123W        W 4943  26.951  29.097   1.874
40124W        W 4944  39.424  13.082   3.046
40125W        W 4945  33.481  28.500   1.099
40126W        W 4946  13.610   1.845  14.102
40127W        W 4947  23.301  16.849  11.017
40128W        W 4948   7.608  34.072   4.795
40129W        W 4949  13.397  34.952  11.867
40130W        W 4950  39.379  22.711   0.447
40131W        W 4951  13.195  13.350  14.069
40132W        W 4952  29.411  29.901   3.722
40133W        W 4953  10.187  37.943   2.240
40134W        W 4954  36.303  24.628   0.911
40135W        W 4955  28.709  14.581  12.104
40136W        W 4956   8.811  26.048   4.540
40137W        W 4957   0.508  27.274  13.901
40138W        W 4958  30.704  32.056   0.899
40139W        W 4959  31.510  27.531  12.877
40140W        W 4960  24.477  28.401   2.757
40141W        W 4961  22.508  38.429  12.086
40142W        W 4962   4.262   6.508  13.390
40143W        W 4963  15.861  10.269  13.013
40144W        W 4964  30.496  24.598   2.761
40145W        W 4965  13.430  27.764   5.001
40146W        W 4966   1.768  39.405  11.266
40147W        W 4967   4.108  15.856   0.816
40148W        W 4968  42.493  13.468   4.163
40149W        W 4969  40.094  30.454   4.159
40150W        W 4970  16.063   8.127   3.236
40151W        W 4971  28.423  11.390  13.958
40152W        W 4972   6.306  28.238   1.351
40153W        W 4973  13.536  12.248  11.804
40154W        W 4974  36.213  43.878   4.922
40155W        W 4975  12.550  11.599  14.499
40156W        W 4976  25.567  14.158   2.803
40157W        W 4977  29.900  43.073  13.881
40158W        W 4978  16.159  10.302  12.441
40159W        W 4979  22.695  32.627   5.015
40160W        W 4980  17.091  21.165   4.452
40161W        W 4981  39.360  38.523  12.443
40162W        W 4982   3.501  11.233   3.698
40163W        W 4983  24.125  35.855   2.704
40164W        W 4984  21.506  34.573  12.136
40165W        W 4985   3.910  15.393  14.102
40166W        W 4986  17.075  34.742   0.944
40167W        W 4987  38.634  37.029  10.606
40168W        W 4988   5.765  14.898  10.608
40169W        W 4989  24.400  44.231  11.159
40170W        W 4990  16.825  32.050  13.901
40171W        W 4991  28.518  36.687   0.138
40172W        W 4992   7.788   0.061   2.724
40173W        W 4993  19.589  27.509   2.813
40174W        W 4994   8.183   0.280  13.944
40175W        W 4995  37.116  25.957   3.719
40176W        W 4996  20.791  40.423   3.072
40177W        W 4997  34.427  39.730  12.124
40178W        W 4998   3.323  32.912   1.313
40179W        W 4999  27.752   6.789  14.522
40180W        W 5000  19.427  29.021   0.102
40181W        W 5001  24.477   0.621   2.321
40182W        W 5002  43.649  44.806   2.967
40183W        W 5003   9.940   9.201  12.704
40184W        W 5004   4.964  20.309  11.147
40185W        W 5005  11.267   0.327  13.013
40186W        W 5006   7.256  26.163  12.562
40187W        W 5007  28.228  10.842  11.934
40188W        W 5008  22.635  36.574   2.606
40189W        W 5009   3.780  12.172   4.028
40190W        W 5010  39.062   0.320  10.864
40191W        W 5011  40.430   3.815  12.861
40192W        W 5012  21.229  38.864   0.218
40193W        W 5013  21.272  42.973   1.801
40194W        W 5014  44.513   9.258  13.043
40195W        W 5015   8.672  15.116   4.682
40196W        W 5016  14.230   5.873  12.436
40197W        W 5017   9.993   8.708   0.008
40198W        W 5018  27.005  38.767  14.328
40199W        W 5019  17.577   8.549  10.771
40200W        W 5020  26.531   8.310  11.437
40201W        W 5021  10.900  31.461   3.512
40202W        W 5022  23.261   0.974  11.067
40203W        W 5023  43.881  19.091   0.282
40204W        W 5024  25.005  14.638   3.218
40205W        W 5025  15.552  41.169  13.835
40206W        W 5026  25.099  29.661   2.707
40207W        W 5027  15.330  27.697   0.303
40208W        W 5028  25.145   6.646   3.622
40209W        W 5029   0.926  32.016   4.547
40210W        W 5030  31.722  19.299   3.223
40211W        W 5031  13.283  40.472  14.351
40212W        W 5032   3.931  31.119  12.068
40213W        W 5033  20.748  30.736   1.759
40214W        W 5034  21.240  35.578   4.982
40215W        W 5035  19.775  33.839  11.545
40216W        W 5036  19.688   9.841  13.653
40217W        W 5037  28.623  16.472  12.203
40218W        W 5038   0.911  12.623  13.299
40219W        W 5039  40.240  24.755   3.684
40220W        W 5040  26.589  43.002  14.985
40221W        W 5041  17.714   8.381   4.150
40222W        W 5042  15.952   7.887  14.196
40223W        W 5043  39.304  31.732  11.540
40224W        W 5044  17.501  33.330  12.383
40225W        W 5045  29.319  44.855   3.272
40226W        W 5046  29.688   9.069  14.420
40227W        W 5047  15.293  21.457  14.874
40228W        W 5048  37.516  18.577   4.691
40229W        W 5049   7.381  15.588   4.587
40230W        W 5050  30.446  23.491  10.718
40231W        W 5051  27.489  10.905  10.803
40232W        W 5052  24.133  17.687   3.828
40233W        W 5053   0.894  38.556   0.880
40234W        W 5054  27.618  13.520  13.520
40235W        W 5055  24.412  34.547   3.202
40236W        W 5056  37.612  11.835  12.161
40237W        W 5057  38.628   9.882  14.267
40238W        W 5058  43.039  23.702  12.526
40239W        W 5059  31.691  44.382   0.234
40240W        W 5060   3.244   6.256   2.233
40241W        W 5061  40.856  36.578   3.132
40242W        W 5062  37.278  37.009  13.713
40243W        W 5063   9.439  14.590   1.149
40244W        W 5064   6.434  27.251  11.522
40245W        W 5065  22.490  32.355   0.451
40246W        W 5066   5.807  16.973   0.836
40247W        W 5067   7.376  41.294  13.230
40248W        W 5068   5.413   7.653  14.464
40249W        W 5069  40.355  24.689  13.047
40250W        W 5070  24.281   7.663   4.663
40251W        W 5071  36.402  26.996  11.500
40252W        W 5072  27.579  40.081  14.475
40253W        W 5073  16.961   6.834  12.628
40254W        W 5074  14.571  10.809   0.944
40255W        W 5075  38.836  23.577   2.456
40256W        W 5076   3.449   9.073  10.174
40257W        W 5077   9.841   3.951  10.655
40258W        W 5078   0.683   9.196   4.688
40259W        W 5079  26.799   4.495   3.756
40260W        W 5080  31.788  37.654   0.832
40261W        W 5081   4.699  36.524   1.414
40262W        W 5082  11.619   0.027  11.997
40263W        W 5083   7.385   4.458   4.162
40264W        W 5084  20.650  21.472  10.684
40265W        W 5085  21.380  15.398   0.037
40266W        W 5086  13.767   0.496  10.602
40267W        W 5087  32.840  43.542  11.636
40268W        W 5088  19.026  35.353  14.322
40269W        W 5089  33.822  22.930  10.634
40270W        W 5090  20.667  24.633   0.546
40271W        W 5091  32.963  31.534  10.625
40272W        W 5092  31.825  39.552   0.881
40273W        W 5093   8.291  42.118   4.590
40274W        W 5094  30.145   5.661   1.679
40275W        W 5095  32.819  14.072  13.504
40276W        W 5096   0.695  42.875   3.723
40277W        W 5097  43.461  22.713   4.210
40278W        W 5098  29.363  37.208  14.774
40279W        W 5099  39.110  42.278  10.747
40280W        W 5100   6.760  23.754  10.642
40281W        W 5101  37.891   0.419   4.806
40282W        W 5102  22.022  38.449  14.960
40283W        W 5103  18.105   9.402   5.141
40284W        W 5104  39.101  19.244   4.813
40285W        W 5105  40.590   8.278   4.228
40286W        W 5106  25.644  18.473  13.362
40287W        W 5107  32.403  17.165   4.613
40288W        W 5108   2.974   8.272   0.751
40289W        W 5109  40.340   9.481  12.400
40290W        W 5110   8.742  12.593   4.186
40291W        W 5111  30.373   9.291  13.336
40292W        W 5112  23.316  19.850   3.216
40293W        W 5113  34.837  11.740  11.883
40294W        W 5114  30.987  43.194   2.794
40295W        W 5115   5.777  14.264  11.256
40296W        W 5116  44.364  10.657  13.787
40297W        W 5117  15.234  11.738  13.569
40298W        W 5118  38.616  33.912   2.383
40299W        W 5119   1.057  12.856  10.965
40300W        W 5120  44.417  30.902   0.833
40301W        W 5121   4.877  15.744   1.371
40302W        W 5122  40.908   4.472  10.565
40303W        W 5123   6.439  41.433   4.039
40304W        W 5124  35.937  35.858  11.127
40305W        W 5125  24.593  19.892  13.274
40306W        W 5126  12.274  15.286  12.612
40307W        W 5127  15.060  43.204   2.784
40308W        W 5128  13.885  34.679  13.124
40309W        W 5129  41.466   3.051   2.733
40310W        W 5130  17.767  27.453   4.833
40311W        W 5131   2.843  18.931   0.291
40312W        W 5132  33.401  21.685   3.098
40313W        W 5133  32.839  14.984   0.740
40314W        W 5134  33.707  11.087  12.411
40315W        W 5135   8.467  24.239   5.050
40316W        W 5136  41.485   8.730   1.464
40317W        W 5137   6.977  14.043   3.941
40318W        W 5138   4.736   9.674   4.507
40319W        W 5139  22.590  24.132   4.066
40320W        W 5140  17.443  21.584   2.364
40321W        W 5141  22.050  42.891  10.640
40322W        W 5142  13.493  43.517   4.441
40323W        W 5143   9.555  24.177  13.034
40324W        W 5144  16.351  15.397   3.714
40325W        W 5145  41.809   2.461   0.967
40326W        W 5146  30.879   6.838  13.989
40327W        W 5147  28.555  36.321   2.635
40328W        W 5148  34.487  28.352  13.424
40329W        W 5149  12.592  37.711  10.530
40330W        W 5150  17.257  38.148   4.746
40331W        W 5151  44.640  44.914  14.776
40332W        W 5152  14.557  35.982  13.447
40333W        W 5153  31.458   9.648  12.137
40334W        W 5154  15.812  37.423   0.420
40335W        W 5155   5.540  25.929   0.377
40336W        W 5156  31.576  24.047   3.012
40337W        W 5157  16.086   8.350  14.313
40338W        W 5158  15.312  16.060   3.215
40339W        W 5159  15.321  14.862   1.661
40340W        W 5160  21.693  37.843   0.994
40341W        W 5161  21.038   7.968   4.078
40342W        W 5162  44.073   7.896  13.095
40343W        W 5163  30.389  42.943  13.898
40344W        W 5164  30.400   2.763  11.223
40345W        W 5165  21.743  42.896   4.131
40346W        W 5166  16.387   8.146  11.090
40347W        W 5167  32.882  38.830  11.985
40348W        W 5168  14.719   5.196  11.712
40349W        W 5169   7.627  37.963   0.847
40350W        W 5170  32.866   8.071  11.527
40351W        W 5171  39.961   9.323   3.700
40352W        W 5172  44.811   5.907  11.103
40353W        W 5173   7.751   8.351  14.572
40354W        W 5174  39.401  39.546  13.033
40355W        W 5175  34.929  29.675   2.868
40356W        W 5176   0.079   4.934  11.114
40357W        W 5177  17.226  44.735  12.062
40358W        W 5178  41.514  39.317  14.783
40359W        W 5179  24.400   8.309  13.912
40360W        W 5180  44.199   6.178   0.308
40361W        W 5181  41.410  22.244  13.068
40362W        W 5182  35.912  36.285  13.830
40363W        W 5183  37.026  13.457  14.015
40364W        W 5184  25.033   9.395  14.511
40365W        W 5185  27.137  16.455   0.165
40366W        W 5186   7.291  38.516   4.497
40367W        W 5187  11.740  27.590   5.367
40368W        W 5188  19.610  37.036   5.396
40369W        W 5189  13.421  18.769   3.687
40370W        W 5190  24.215  40.290   4.566
40371W        W 5191   2.944  39.523  11.843
40372W        W 5192   3.659  15.019   1.486
40373W        W 5193  40.860  34.853  11.660
40374W        W 5194  42.375  16.716  11.532
40375W        W 5195  43.706  43.238  12.944
40376W        W 5196  10.657   2.934  10.656
40377W        W 5197  38.617   2.161   1.851
40378W        W 5198   0.445  24.863   0.877
40379W        W 5199  37.576  19.303   3.187
40380W        W 5200  22.477  36.419  11.462
40381W        W 5201  22.270  38.602  11.309
40382W        W 5202   2.446  42.465   2.270
40383W        W 5203  10.226  26.395  14.397
40384W        W 5204   7.254  16.312  11.630
40385W        W 5205   5.957   6.343  14.900
40386W        W 5206  40.241  15.571  12.655
40387W        W 5207  21.729  34.161  12.383
40388W        W 5208  29.628  31.705   1.610
40389W        W 5209   1.470  39.870   1.955
40390W        W 5210  30.656  19.188   2.273
40391W        W 5211  37.467   0.710   5.013
40392W        W 5212  10.791  18.063  11.120
40393W        W 5213   9.403  35.501  12.357
40394W        W 5214  44.024  24.515  12.266
40395W        W 5215   4.663  27.192  13.801
40396W        W 5216  24.750  44.497   4.574
40397W        W 5217  38.450  18.567  12.313
40398W        W 5218  27.955  15.139  13.999
40399W        W 5219  25.578  10.698   0.459
40400W        W 5220  33.768   2.365   3.435
40401W        W 5221  13.741   5.254  13.403
40402W        W 5222  37.016  12.577  14.549
40403W        W 5223  28.014  17.633   2.574
40404W        W 5224  18.597  39.607  11.323
40405W        W 5225  22.294  23.921  13.994
40406W        W 5226   0.885  43.954  14.646
40407W        W 5227  24.245  43.899   1.748
40408W        W 5228  43.771  23.446   3.099
40409W        W 5229  34.629  20.355   1.982
40410W        W 5230  14.184  23.735  14.117
40411W        W 5231  41.370  10.485  12.604
40412W        W 5232  29.059  36.998  13.001
40413W        W 5233  11.075  41.723   0.756
40414W        W 5234   0.925  27.666  13.077
40415W        W 5235  25.406  39.910  13.437
40416W        W 5236  24.720  43.683   0.962
40417W        W 5237  29.610  42.956   2.796
40418W        W 5238  26.628   3.243  10.727
40419W        W 5239   6.438  13.707   3.740
40420W        W 5240  41.299  17.936  13.619
40421W        W 5241  18.938  34.520   0.402
40422W        W 5242  13.196   5.447   1.725
40423W        W 5243  12.625   3.272   0.773
40424W        W 5244  32.409   8.352   0.313
40425W        W 5245   9.172   0.345  13.892
40426W        W 5246  24.530   9.383   2.760
40427W        W 5247  28.894  44.953   0.404
40428W        W 5248  16.613  24.496  12.034
40429W        W 5249  44.502  35.920   0.271
40430W        W 5250  16.028  44.268   3.666
40431W        W 5251  23.127  42.809  12.394
40432W        W 5252  34.639   5.235  11.437
40433W        W 5253  40.549  20.117   0.221
40434W        W 5254  43.247  25.170   0.336
40435W        W 5255  28.937  21.739   1.710
40436W        W 5256   7.588   3.382  11.251
40437W        W 5257  27.096  16.833  14.307
40438W        W 5258  22.989   6.939  12.049
40439W        W 5259  25.563  34.925  12.418
40440W        W 5260   6.294   7.221   4.111
40441W        W 5261  26.953  22.612   3.651
40442W        W 5262  38.512   2.759  13.362
40443W        W 5263   4.172   2.191  14.938
40444W        W 5264  36.377  23.245   5.070
40445W        W 5265  25.730  14.909  12.117
40446W        W 5266  44.703  13.374   2.751
40447W        W 5267   8.216   3.394   2.208
40448W        W 5268  32.401   4.909   1.892
40449W        W 5269  31.295   4.868  14.029
40450W        W 5270  32.645   0.699   4.190
40451W        W 5271  29.958   0.316  13.532
40452W        W 5272  38.128  29.631   1.616
40453W        W 5273  12.460  44.495  13.010
40454W        W 5274  26.495   4.361  13.888
40455W        W 5275  32.035  23.640  13.372
40456W        W 5276  12.141  24.466  12.664
40457W        W 5277  20.243   1.232  14.931
40458W        W 5278  43.888   8.184   0.662
40459W        W 5279  19.692  25.861   4.510
40460W        W 5280  29.508  34.143  12.940
40461W        W 5281   3.742   4.706   0.875
40462W        W 5282  23.077  26.401  14.515
40463W        W 5283  12.526   0.996   0.498
40464W        W 5284  31.364  42.776   3.824
40465W        W 5285  37.402   0.830   1.375
40466W        W 5286  34.828  20.115  12.499
40467W        W 5287  22.811  21.613   0.751
40468W        W 5288  11.192  43.584  10.718
40469W        W 5289  40.676  38.976  12.617
40470W        W 5290  18.929  26.802   2.668
40471W        W 5291  13.161  39.777  12.439
40472W        W 5292  22.535  39.471  11.155
40473W        W 5293  30.021   5.026  11.511
40474W        W 5294  27.993  18.548   2.832
40475W        W 5295  33.007  29.421   3.185
40476W        W 5296  37.873  25.611  10.787
40477W        W 5297   4.163  34.592  12.453
40478W        W 5298  31.117  14.116   1.544
40479W        W 5299  28.082  32.632   1.804
40480W        W 5300   5.615  23.249  14.805
40481W        W 5301  21.547   6.171   1.915
40482W        W 5302  13.458   2.026   5.042
40483W        W 5303   2.432   1.749  12.012
40484W        W 5304  39.939  13.636   3.304
40485W        W 5305  42.050  25.077  14.018
40486W        W 5306  14.617  19.500   3.098
40487W        W 5307   9.167  28.770  14.849
40488W        W 5308   4.004  39.249  11.121
40489W        W 5309   8.374  12.772  14.981
40490W        W 5310  22.261  22.981  14.291
40491W        W 5311   4.249  29.841  10.568
40492W        W 5312  23.506   4.113  13.972
40493W        W 5313  37.955  43.531   3.290
40494W        W 5314   4.755  13.371   4.564
40495W        W 5315  40.012  33.494  14.786
40496W        W 5316   9.624  17.798   1.586
40497W        W 5317   1.891   9.698   0.679
40498W        W 5318  22.376  43.926  13.971
40499W        W 5319  26.253  13.601  10.464
40500W        W 5320   3.960  40.148  13.224
40501W        W 5321  40.458  39.448  11.461
40502W        W 5322   5.166  40.989  11.631
40503W        W 5323  28.867   5.346   4.576
40504W        W 5324  25.412  14.945   0.302
40505W        W 5325  18.996  38.365  13.487
40506W        W 5326  36.217  35.462  12.019
40507W        W 5327  17.127   7.430  12.955
40508W        W 5328  13.814   6.283  11.658
40509W        W 5329  19.795  28.856   1.585
40510W        W 5330  25.207  18.773   2.207
40511W        W 5331   2.267  23.426  13.928
40512W        W 5332  25.019  24.469   0.476
40513W        W 5333  38.692  29.974   3.389
40514W        W 5334  24.444   1.845  11.894
40515W        W 5335  32.426  35.875  12.617
40516W        W 5336  35.071  43.704  12.795
40517W        W 5337  33.183   3.119  14.924
40518W        W 5338  11.648  41.924  13.614
40519W        W 5339  22.748  22.812   2.249
40520W        W 5340   9.203  26.795   2.957
40521W        W 5341   1.235  29.595  14.563
40522W        W 5342  31.034  37.026   1.876
40523W        W 5343  12.312   6.784   2.408
40524W        W 5344  35.458   0.924   0.070
40525W        W 5345  17.481  22.505   0.345
40526W        W 5346  26.921  40.006   1.959
40527W        W 5347  33.928  13.661   2.158
40528W        W 5348  18.030   0.327  13.011
40529W        W 5349   4.854  16.255   3.219
40530W        W 5350   2.675  10.129   3.251
40531W        W 5351   0.424  17.074   0.645
40532W        W 5352  33.520   6.641  13.585
40533W        W 5353  25.158   4.137   4.147
40534W        W 5354  18.030  26.299   2.059
40535W        W 5355   9.235   1.417  13.287
40536W        W 5356  14.112  36.887  13.335
40537W        W 5357  37.637  32.744   0.477
40538W        W 5358   3.074  33.184  11.526
40539W        W 5359  39.731  27.227  11.502
40540W        W 5360  15.868   2.598   4.299
40541W        W 5361   9.701  27.590   3.796
40542W        W 5362   8.780   4.198  12.081
40543W        W 5363  19.774   3.001  13.871
40544W        W 5364  25.075   5.743   4.026
40545W        W 5365   2.982  13.839   2.975
40546W        W 5366  17.256  16.187  11.281
40547W        W 5367  26.186  30.886   1.949
40548W        W 5368  38.430  27.209   0.585
40549W        W 5369  43.680  31.626  11.952
40550W        W 5370  41.097  39.823  13.919
40551W        W 5371  17.884  29.387   1.091
40552W        W 5372  22.772  20.627   3.358
40553W        W 5373   2.499  10.308   4.558
40554W        W 5374  38.424  26.999  13.961
40555W        W 5375  22.364  34.829  12.011
40556W        W 5376   7.975  38.692   3.782
40557W        W 5377   4.926  35.639  14.754
40558W        W 5378  32.522  43.404   3.047
40559W        W 5379  44.326   2.198   2.102
40560W        W 5380   4.901  21.362  10.290
40561W        W 5381  12.663  12.839   4.548
40562W        W 5382  16.830  19.155  11.411
40563W        W 5383  20.846  21.177   4.104
40564W        W 5384  34.463  17.940   3.759
40565W        W 5385  33.889   4.946  11.890
40566W        W 5386  31.786   3.463  12.392
40567W        W 5387  29.206  33.842  11.596
40568W        W 5388  23.587  17.694  11.752
40569W        W 5389  11.896   1.952   1.417
40570W        W 5390  42.289  17.654   0.038
40571W        W 5391  13.552  37.471  14.714
40572W        W 5392  39.881  41.602  11.487
40573W        W 5393   8.677  30.906  12.761
40574W        W 5394  19.982  32.439   3.646
40575W        W 5395  42.244  23.685   4.246
40576W        W 5396  37.554  34.959  11.120
40577W        W 5397  12.784  15.973  12.077
40578W        W 5398  42.597  24.660   2.411
40579W        W 5399   5.589  16.015  12.732
40580W        W 5400  29.583  19.511   3.543
40581W        W 5401   4.262  33.020   2.442
40582W        W 5402   7.942  38.880   1.681
40583W        W 5403  18.248   9.036   1.961
40584W        W 5404  22.517   6.219  10.887
40585W        W 5405  23.620  15.611   1.678
40586W        W 5406  34.713   7.722   4.582
40587W        W 5407  15.301  33.588   1.651
40588W        W 5408   7.980  27.332  14.040
40589W        W 5409   9.311  26.182  12.345
40590W        W 5410   5.097  12.711  12.974
40591W        W 5411  36.845  39.526  12.450
40592W        W 5412  27.411  29.577   3.229
40593W        W 5413  20.681  12.115  13.599
40594W        W 5414  43.715  25.059  13.500
40595W        W 5415  32.903  39.892  14.775
40596W        W 5416  17.540  26.678   0.898
40597W        W 5417  16.749  44.840  11.868
40598W        W 5418  21.496  28.910   0.182
40599W        W 5419  31.526  22.642  14.161
40600W        W 5420  14.824  35.480   0.500
40601W        W 5421  11.382  32.994  11.544
40602W        W 5422  14.662  18.747  14.448
40603W        W 5423  25.603  40.795  13.344
40604W        W 5424  16.552   0.807   0.599
40605W        W 5425   5.819  29.905   4.025
40606W        W 5426  12.520  11.340  13.461
40607W        W 5427  25.038  36.608   1.430
40608W        W 5428  25.016  25.551  11.040
40609W        W 5429  28.155  25.529  12.922
40610W        W 5430  31.874  12.200   2.276
40611W        W 5431  33.136  26.460  14.409
40612W        W 5432  27.172  37.607  10.991
40613W        W 5433  23.734   5.379  13.547
40614W        W 5434   1.362  27.949  12.997
40615W        W 5435  35.877  24.137  14.291
40616W        W 5436  14.945  20.526  10.542
40617W        W 5437  23.273  28.198  11.572
40618W        W 5438  28.452  24.756  13.394
40619W        W 5439   4.927  31.542   2.671
40620W        W 5440  15.629  27.542   1.882
40621W        W 5441  22.556  26.530  14.491
40622W        W 5442  32.178  41.620   3.727
40623W        W 5443  44.564  35.924  10.969
40624W        W 5444  37.222  44.206   1.761
40625W        W 5445  31.869  42.911  13.976
40626W        W 5446   9.137  14.293   4.612
40627W        W 5447  44.712  21.160  12.636
40628W        W 5448  17.002  25.700  10.758
40629W        W 5449  21.036   6.331   2.123
40630W        W 5450  36.646  37.342  10.674
40631W        W 5451  38.736  35.728  11.112
40632W        W 5452  22.570  40.479  12.331
40633W        W 5453  42.941  10.618  12.085
40634W        W 5454  18.519   2.716  13.627
40635W        W 5455  15.235  11.155  11.199
40636W        W 5456  31.859  41.774  11.619
40637W        W 5457  33.752   7.606  12.450
40638W        W 5458  39.319  37.584   3.756
40639W        W 5459   9.808  43.802  12.154
40640W        W 5460  14.896  32.469   2.097
40641W        W 5461  28.140  42.411   0.387
40642W        W 5462  26.986  25.140   1.102
40643W        W 5463  24.402  42.845   2.391
40644W        W 5464  24.403  36.081  13.225
40645W        W 5465  43.500  16.637  11.120
40646W        W 5466  40.591  30.621   1.826
40647W        W 5467  32.078  43.022  12.105
40648W        W 5468  23.943   1.302   4.213
40649W        W 5469  32.873  12.147   0.779
40650W        W 5470   8.168  15.626  12.765
40651W        W 5471  13.179  28.269  12.597
40652W        W 5472  18.722  37.181  12.533
40653W        W 5473  11.172  25.846  10.668
40654W        W 5474  15.742   8.886   4.591
40655W        W 5475   3.020   5.734  11.541
40656W        W 5476  19.564  38.866   3.144
40657W        W 5477  27.270  17.169   2.446
40658W        W 5478  37.594  31.051   0.957
40659W        W 5479   4.004  17.913  13.215
40660W        W 5480  17.835  23.559   0.297
40661W        W 5481  11.569   2.781  12.514
40662W        W 5482   3.114  28.261   0.453
40663W        W 5483   2.886   1.043   1.850
40664W        W 5484  11.032  43.092   2.790
40665W        W 5485  25.549  19.761   4.469
40666W        W 5486  10.608  31.705  12.934
40667W        W 5487  33.168   0.535  14.985
40668W        W 5488  11.786  10.339  10.833
40669W        W 5489  27.677  18.173  11.589
40670W        W 5490   0.016  40.248   3.159
40671W        W 5491   3.872  10.480   1.030
40672W        W 5492   2.722  19.497  11.151
40673W        W 5493   3.706   1.136  11.143
40674W        W 5494  34.147  41.786   2.836
40675W        W 5495   8.436  30.470   1.845
40676W        W 5496  33.178  41.816   3.638
40677W        W 5497  14.513  35.305   0.893
40678W        W 5498   8.732  36.923   2.689
40679W        W 5499  30.699  13.197   1.011
40680W        W 5500  29.098  34.132  14.370
40681W        W 5501  35.568  43.920  11.149
40682W        W 5502  32.713  26.663  11.504
40683W        W 5503  12.837  25.981  11.617
40684W        W 5504  43.182  21.629  12.896
40685W        W 5505  40.755  11.276  13.044
40686W        W 5506  13.192  43.742   0.793
40687W        W 5507  10.657  42.457   3.921
40688W        W 5508  28.970  14.853   2.720
40689W        W 5509   6.519  25.954   0.216
40690W        W 5510   1.937  38.369  12.584
40691W        W 5511  28.786  28.969   1.265
40692W        W 5512   3.976   7.142   3.356
40693W        W 5513  18.604   0.263   2.631
40694W        W 5514   5.964  21.916   2.454
40695W        W 5515  19.040  21.834  13.551
40696W        W 5516  36.172  30.321   1.831
40697W        W 5517   8.751  42.279   3.633
40698W        W 5518  18.110  15.890  13.426
40699W        W 5519  42.541   0.973   4.141
40700W        W 5520  20.610  34.294   4.723
40701W        W 5521  37.937  19.323   3.551
40702W        W 5522  29.408  20.685  11.025
40703W        W 5523  27.142   8.231   2.595
40704W        W 5524  23.225  10.530   2.729
40705W        W 5525  39.894  18.725   2.879
40706W        W 5526  26.404  44.261   1.854
40707W        W 5527  22.947  19.188   0.276
40708W        W 5528  36.440  36.452  13.930
40709W        W 5529  28.261  25.868  12.502
40710W        W 5530  32.304  18.742   0.439
40711W        W 5531   4.523  22.743   3.614
40712W        W 5532   8.707  25.239   0.716
40713W        W 5533  31.540  39.494   3.866
40714W        W 5534   4.541  25.198   1.048
40715W        W 5535  20.160  27.167   4.352
40716W        W 5536   6.241  33.313  14.064
40717W        W 5537  20.475  42.418   0.423
40718W        W 5538  33.018  35.655   2.833
40719W        W 5539  22.618   5.525   4.925
40720W        W 5540   8.290  14.787  11.895
40721W        W 5541  24.169  36.494   0.410
40722W        W 5542   0.736  36.510   1.401
40723W        W 5543  18.253  34.063  13.797
40724W        W 5544  12.189  16.280   2.579
40725W        W 5545  44.766   2.996   3.608
40726W        W 5546  12.986  37.148  11.612
40727W        W 5547  29.380  34.638  14.867
40728W        W 5548  30.703  21.041   1.856
40729W        W 5549  26.946   8.956  12.993
40730W        W 5550  17.867  25.077  14.897
40731W        W 5551  26.136  12.058   4.648
40732W        W 5552  35.581  16.148   0.815
40733W        W 5553  37.531   0.952   0.340
40734W        W 5554  17.289  14.689   4.208
40735W        W 5555   1.822  12.218   1.231
40736W        W 5556  29.405  28.202  10.754
40737W        W 5557  23.594  41.507  14.713
40738W        W 5558  32.372  12.708  13.381
40739W        W 5559  43.878  32.408  12.624
40740W        W 5560  28.577   6.047   1.622
40741W        W 5561  40.620   7.900   1.734
40742W        W 5562  38.017  10.856   3.559
40743W        W 5563  19.126  12.429  12.660
40744W        W 5564  17.731  26.731  12.056
40745W        W 5565  23.013  44.402  10.405
40746W        W 5566  32.420  23.239   0.973
40747W        W 5567  16.096  22.251   3.181
40748W        W 5568  31.950  29.405   3.380
40749W        W 5569   6.762  35.519   1.272
40750W        W 5570  31.096  18.543   3.200
40751W        W 5571   0.645  15.010  13.295
40752W        W 5572   9.741  12.587   0.560
40753W        W 5573  14.819  17.485   0.884
40754W        W 5574   8.273  10.105   0.661
40755W        W 5575  33.549  15.660   3.180
40756W        W 5576  26.125   2.460  14.312
40757W        W 5577  27.521  26.553  13.987
40758W        W 5578  40.854  28.113   1.162
40759W        W 5579  37.982   2.003  14.469
40760W        W 5580  28.449   6.615  11.470
40761W        W 5581   5.810  43.275  11.554
40762W        W 5582  39.297  44.244  13.862
40763W        W 5583  34.980  30.287  14.993
40764W        W 5584  33.241  18.329  14.544
40765W        W 5585   5.398  23.604   3.594
40766W        W 5586  16.146  30.291  12.028
40767W        W 5587  17.254  25.808   0.982
40768W        W 5588  31.534   5.935   2.197
40769W        W 5589   4.665   8.705   0.285
40770W        W 5590  22.493  22.939  10.294
40771W        W 5591  41.451  39.093  11.618
40772W        W 5592  38.518  13.694  13.406
40773W        W 5593  23.565  31.746  10.398
40774W        W 5594  12.865  14.158  12.212
40775W        W 5595  42.463  33.780  13.097
40776W        W 5596   3.658   1.755  10.842
40777W        W 5597   0.712  15.020   1.289
40778W        W 5598  30.181  33.617  14.467
40779W        W 5599   2.015  33.120   4.529
40780W        W 5600   1.030  17.775   2.324
40781W        W 5601   6.681  26.195   0.882
40782W        W 5602   4.013  18.312  10.740
40783W        W 5603  23.150  35.118   0.136
40784W        W 5604  44.041  10.816  10.189
40785W        W 5605  23.703  34.130   3.348
40786W        W 5606  21.938  29.012   0.936
40787W        W 5607  41.304   3.163   0.533
40788W        W 5608  14.708  12.269  13.537
40789W        W 5609  38.986  36.693  14.605
40790W        W 5610  20.897   8.737   3.731
40791W        W 5611  30.930  43.721  13.080
40792W        W 5612  43.347  33.514   3.790
40793W        W 5613   6.372  22.200   2.303
40794W        W 5614  38.616   7.317   4.296
40795W        W 5615  13.918   3.297  10.756
40796W        W 5616  14.147  35.802  11.312
40797W        W 5617  24.167  43.349  13.115
40798W        W 5618  10.361   5.378  12.051
40799W        W 5619  17.109  28.557  11.881
40800W        W 5620  43.471  17.819   0.306
40801W        W 5621   9.305  41.372   1.751
40802W        W 5622   3.881  18.920  14.061
40803W        W 5623  26.548  37.913  13.001
40804W        W 5624  42.827  38.196  14.777
40805W        W 5625  37.845   3.507   1.304
40806W        W 5626  42.693   6.986  12.955
40807W        W 5627   2.950   8.260   4.497
40808W        W 5628  17.350   5.455  12.003
40809W        W 5629   1.101   4.651   4.066
40810W        W 5630  21.510   2.190   3.689
40811W        W 5631  28.670   0.871   0.791
40812W        W 5632  44.316  16.309   0.331
40813W        W 5633  21.172   7.862  14.100
40814W        W 5634  42.609   1.982   0.234
40815W        W 5635  12.243  44.674   3.706
40816W        W 5636  35.947  41.946  14.746
40817W        W 5637  15.894   9.699  10.450
40818W        W 5638  26.532  35.961   0.513
40819W        W 5639  18.765  10.637  12.098
40820W        W 5640   5.134   6.410  11.309
40821W        W 5641  30.112  17.776   1.285
40822W        W 5642  21.464  33.109   1.259
40823W        W 5643  35.069  13.749  14.500
40824W        W 5644   6.821  42.291   1.738
40825W        W 5645  20.114   2.007  10.996
40826W        W 5646  33.266  44.945   0.578
40827W        W 5647  38.845   9.141  10.669
40828W        W 5648  12.394  26.680   1.149
40829W        W 5649  36.457  39.807  11.950
40830W        W 5650  33.842  33.096   2.203
40831W        W 5651   2.104  15.148  13.543
40832W        W 5652   7.710  37.279  14.378
40833W        W 5653  40.051   0.705   2.403
40834W        W 5654  16.820   4.434  11.093
40835W        W 5655  25.482   6.247  14.396
40836W        W 5656  16.987  10.615   2.303
40837W        W 5657  40.214  42.515   1.602
40838W        W 5658  24.310  30.219   1.454
40839W        W 5659   1.258  42.736   4.429
40840W        W 5660  22.065  43.577  11.588
40841W        W 5661  22.705  13.862  11.604
40842W        W 5662  27.567  34.241  11.671
40843W        W 5663  37.272   4.503   0.437
40844W        W 5664   2.282   9.829  12.494
40845W        W 5665   3.289  30.870   3.204
40846W        W 5666   3.688   2.775  14.223
40847W        W 5667  19.218  30.015   0.924
40848W        W 5668  38.508  27.477  14.178
40849W        W 5669  35.331  28.566  13.932
40850W        W 5670  24.221   9.549  13.321
40851W        W 5671  37.158   3.689  11.591
40852W        W 5672  36.654  27.197  11.877
40853W        W 5673  30.698  43.051  12.008
40854W        W 5674   4.547  25.530   5.024
40855W        W 5675  33.064  32.045  13.264
40856W        W 5676  14.529  33.369   4.477
40857W        W 5677   3.468   2.764   4.377
40858W        W 5678  29.431  18.552   0.232
40859W        W 5679  15.290  37.494   0.597
40860W        W 5680   3.795  10.088  11.985
40861W        W 5681  24.743  39.008   3.211
40862W        W 5682  30.017  18.073  12.015
40863W        W 5683  24.224   0.479   1.216
40864W        W 5684   0.230  24.697   3.723
40865W        W 5685   9.412  24.545   3.112
40866W        W 5686   7.406  36.821  11.959
40867W        W 5687  12.225   5.308  10.731
40868W        W 5688  21.369  33.025  10.993
40869W        W 5689   9.937  12.266  12.103
40870W        W 5690  41.848  26.737   3.216
40871W        W 5691  42.276  28.222   3.247
40872W        W 5692  19.035  39.109   0.149
40873W        W 5693  15.087   5.430   1.395
40874W        W 5694   0.977  28.623   0.278
40875W        W 5695  33.107  27.426  11.630
40876W        W 5696  14.805  33.047   4.147
40877W        W 5697  12.871   1.832  12.832
40878W        W 5698  25.965   6.759  14.882
40879W        W 5699   8.431  41.332  13.473
40880W        W 5700  23.060  17.394   0.919
40881W        W 5701   3.717  11.754  10.531
40882W        W 5702  33.942  21.534   4.906
40883W        W 5703  11.064  10.150  13.507
40884W        W 5704  24.977  11.724   2.684
40885W        W 5705   5.396  12.359   0.374
40886W        W 5706  37.108  40.667  10.688
40887W        W 5707   7.180  33.534  14.080
40888W        W 5708  18.184  27.248   2.727
40889W        W 5709  14.765  35.148  11.225
40890W        W 5710  18.210  33.125  12.948
40891W        W 5711   8.103   5.080  13.553
40892W        W 5712  43.338  44.903   2.436
40893W        W 5713  33.597  10.251   2.629
40894W        W 5714  21.783  42.265  11.452
40895W        W 5715  20.206  16.895   2.124
40896W        W 5716  30.413  19.724   2.270
40897W        W 5717  37.982  38.191  14.753
40898W        W 5718   9.308  40.455   3.852
40899W        W 5719  31.482   6.900   3.286
40900W        W 5720  35.044  23.994   3.211
40901W        W 5721  37.523  16.062   4.338
40902W        W 5722  17.035   6.944   3.748
40903W        W 5723  44.256  31.335   2.612
40904W        W 5724   9.235  18.191   3.240
40905W        W 5725  44.861   5.418   2.327
40906W        W 5726  31.016  13.508  13.416
40907W        W 5727  13.082  23.763   0.802
40908W        W 5728  11.695  25.213   4.682
40909W        W 5729  11.739  31.197  12.040
40910W        W 5730  24.303   1.310  13.965
40911W        W 5731  38.502  12.309  13.865
40912W        W 5732   6.132  21.881  12.617
40913W        W 5733  31.154   0.863   2.642
40914W        W 5734   4.356  40.858   0.962
40915W        W 5735  24.154   6.631  14.722
40916W        W 5736  14.767  14.841  10.956
40917W        W 5737  24.051  13.040   1.332
40918W        W 5738   4.942  28.912  11.568
40919W        W 5739   8.241   1.060   0.459
40920W        W 5740   7.229  18.013   1.288
40921W        W 5741  19.693  29.944   3.662
40922W        W 5742   8.044   9.412   4.321
40923W        W 5743  19.835   4.107  11.632
40924W        W 5744   1.704  25.791  10.752
40925W        W 5745  23.519  30.110   4.091
40926W        W 5746  24.131  17.960   0.911
40927W        W 5747   3.308  14.746  10.490
40928W        W 5748  28.054   6.463  12.181
40929W        W 5749   5.756   2.236  11.578
40930W        W 5750  17.528  36.370  11.655
40931W        W 5751  36.351  39.913   5.091
40932W        W 5752  23.518   5.911  12.203
40933W        W 5753  20.813   8.135   5.345
40934W        W 5754  39.796  30.752   3.894
40935W        W 5755  11.968  27.994   4.787
40936W        W 5756  27.954  11.316  13.032
40937W        W 5757  20.079  43.223  14.296
40938W        W 5758  33.524   2.894   5.045
40939W        W 5759  32.047  40.844  12.391
40940W        W 5760  36.425  34.174   0.210
40941W        W 5761  19.770   3.587  12.947
40942W        W 5762  25.742  25.228  10.345
40943W        W 5763  35.364  25.483  13.859
40944W        W 5764  13.287  24.131  13.578
40945W        W 5765  41.946  22.012   1.258
40946W        W 5766  37.865  17.518  11.234
40947W        W 5767  22.453  14.856  14.004
40948W        W 5768   0.290  13.777  11.124
40949W        W 5769  15.069  30.562  14.801
40950W        W 5770  11.569  38.933  11.170
40951W        W 5771  39.697  22.585   4.228
40952W        W 5772   5.150  35.238  14.354
40953W        W 5773  29.487  40.472  11.915
40954W        W 5774  34.045  25.463   1.899
40955W        W 5775  12.895  26.110  14.026
40956W        W 5776  26.224   0.897  14.494
40957W        W 5777  11.319   1.500  12.175
40958W        W 5778  18.188  25.758  11.809
40959W        W 5779  24.991  16.345  11.545
40960W        W 5780  17.226  38.787   3.228
40961W        W 5781  28.680  23.097  10.707
40962W        W 5782  27.079  23.011   2.738
40963W        W 5783  43.959  42.426   0.382
40964W        W 5784  17.080  31.629  14.075
40965W        W 5785  18.262  11.203   2.296
40966W        W 5786  29.560  26.365   1.222
40967W        W 5787  25.933  28.748   4.513
40968W        W 5788  13.836  10.736  14.552
40969W        W 5789  21.285  26.038  10.734
40970W        W 5790  20.078  16.508   4.441
40971W        W 5791  19.790   4.866   2.301
40972W        W 5792  26.646  36.720  14.110
40973W        W 5793   8.286  22.048   3.379
40974W        W 5794  12.635  12.828  12.053
40975W        W 5795  17.459  15.554  10.219
40976W        W 5796   6.227  25.036  11.993
40977W        W 5797  39.679  35.533   1.726
40978W        W 5798  31.632  32.147  11.247
40979W        W 5799   2.552  38.946   1.390
40980W        W 5800  34.319  21.517   0.461
40981W        W 5801  42.562  34.521  12.465
40982W        W 5802  39.890  20.732  14.338
40983W        W 5803   9.147   6.881   2.003
40984W        W 5804  27.596  39.850  10.418
40985W        W 5805  34.494  27.158  11.485
40986W        W 5806  30.723  34.070  10.686
40987W        W 5807   6.251   9.885  12.088
40988W        W 5808  19.550  16.240  14.459
40989W        W 5809  40.452  22.452   3.217
40990W        W 5810  35.632  15.212   1.851
40991W        W 5811  15.469  30.164  12.739
40992W        W 5812   0.542  39.557   0.325
40993W        W 5813  38.499  12.377   4.054
40994W        W 5814   9.873  40.258  12.603
40995W        W 5815  32.032  21.631   3.074
40996W        W 5816  34.458  19.040   0.291
40997W        W 5817  13.274  42.394  10.686
40998W        W 5818  19.641  25.521  13.843
40999W        W 5819  36.448  31.732  13.080
41000W        W 5820   2.599  42.908   1.600
41001W        W 5821  25.774  11.763  13.425
41002W        W 5822  18.593   5.331  11.705
41003W        W 5823   6.694   3.707  14.800
41004W        W 5824  23.421  36.454  14.275
41005W        W 5825  33.046  24.257  14.136
41006W        W 5826  37.469  27.444  14.875
41007W        W 5827  18.489   2.912  11.086
41008W        W 5828  15.286  29.763  13.032
41009W        W 5829  28.989   5.940  11.504
41010W        W 5830   2.808   1.822  14.659
41011W        W 5831  19.363  26.988  12.013
41012W        W 5832   6.230  11.824   1.502
41013W        W 5833  32.032  21.202  12.398
41014W        W 5834  41.582  20.012   0.861
41015W        W 5835   8.838   9.841   2.777
41016W        W 5836  21.094  17.018   2.375
41017W        W 5837   2.027   2.255  10.762
41018W        W 5838  15.133   2.253   3.664
41019W        W 5839  29.994  40.666  13.823
41020W        W 5840  30.386   1.939   1.463
41021W        W 5841  27.133  42.428   2.693
41022W        W 5842  10.503   6.813  10.768
41023W        W 5843  17.080  23.596  11.622
41024W        W 5844  36.874  16.615   2.278
41025W        W 5845  33.186   4.826  12.515
41026W        W 5846  10.670  10.792   3.055
41027W        W 5847   1.416  34.585  11.876
41028W        W 5848  37.751  15.732  11.022
41029W        W 5849  30.357  23.591   2.717
41030W        W 5850  31.556  42.302  13.345
41031W        W 5851  42.764  42.089   4.119
41032W        W 5852  35.359  16.085   0.307
41033W        W 5853   6.292  30.903   3.301
41034W        W 5854  38.142  25.743  11.663
41035W        W 5855  16.555  41.556   3.727
41036W        W 5856  19.858   5.704  10.680
41037W        W 5857  32.176  21.511  13.808
41038W        W 5858  21.509  11.709   1.665
41039W        W 5859  25.683   4.889  13.970
41040W        W 5860  14.061  18.598   0.335
41041W        W 5861   1.813  35.371  12.324
41042W        W 5862  30.422   9.089  12.468
41043W        W 5863  13.296  11.819  13.854
41044W        W 5864  31.544  31.243  11.150
41045W        W 5865   2.996   5.392  12.852
41046W        W 5866  34.982  23.212  12.840
41047W        W 5867  19.044  39.716   4.636
41048W        W 5868   4.973  22.223  14.760
41049W        W 5869  40.801  43.794   3.858
41050W        W 5870  11.183  27.274  12.981
41051W        W 5871   1.767  13.195   3.812
41052W        W 5872  31.939  42.718  12.492
41053W        W 5873  35.121  39.404  14.921
41054W        W 5874   5.633  18.584  12.531
41055W        W 5875  24.578  32.166  13.022
41056W        W 5876  18.828  32.333  14.835
41057W        W 5877  42.292  32.578  11.898
41058W        W 5878  39.444  11.209  13.424
41059W        W 5879  19.214  40.783  11.304
41060W        W 5880  33.380  19.709  12.261
41061W        W 5881   2.236  41.004  12.814
41062W        W 5882  19.506  32.140   3.173
41063W        W 5883   4.233   2.906  13.543
41064W        W 5884  21.292   8.026  12.096
41065W        W 5885  26.018   7.920   1.831
41066W        W 5886  15.008  39.554   0.887
41067W        W 5887  19.522  42.289   2.816
41068W        W 5888  21.561  25.802  13.996
41069W        W 5889   2.194   2.639   1.679
41070W        W 5890  20.726   2.441   3.343
41071W        W 5891  33.513  18.001  13.536
41072W        W 5892  24.718  31.847   4.935
41073W        W 5893  33.505  15.183   9.818
41074W        W 5894  24.256  40.698  14.955
41075W        W 5895  20.491   3.992   2.360
41076W        W 5896  40.121   7.831  10.218
41077W        W 5897   6.846  41.723   2.378
41078W        W 5898   8.599  28.913   1.406
41079W        W 5899  10.743  12.084  14.500
41080W        W 5900  27.237  28.364   2.167
41081W        W 5901  29.708  36.118   1.352
41082W        W 5902  29.884  24.883  10.672
41083W        W 5903  13.180  15.744   1.362
41084W        W 5904  11.635  23.164  14.479
41085W        W 5905  37.670  19.893  12.480
41086W        W 5906  30.179  32.363   3.724
41087W        W 5907  44.951  43.353   2.046
41088W        W 5908  14.887  22.080   0.829
41089W        W 5909  22.968   6.409   0.086
41090W        W 5910   5.262  33.662   4.165
41091W        W 5911  42.844  21.808   3.555
41092W        W 5912  42.252  23.732   3.310
41093W        W 5913  41.445  23.001  13.495
41094W        W 5914   5.542  39.924  13.400
41095W        W 5915  41.061  18.193  10.498
41096W        W 5916  14.072   8.078  14.924
41097W        W 5917  13.764  43.438   1.940
41098W        W 5918   1.437  34.656  13.884
41099W        W 5919   1.453  32.430   1.215
41100W        W 5920   6.041  31.485  14.542
41101W        W 5921  29.121  43.224   4.225
41102W        W 5922  36.192  30.654   2.237
41103W        W 5923   0.029  24.091   0.071
41104W        W 5924   6.938  27.366  11.708
41105W        W 5925  26.280  43.091  13.049
41106W        W 5926  27.671  18.402  10.836
41107W        W 5927   2.871  44.708   0.553
41108W        W 5928  19.073  32.930  12.153
41109W        W 5929  41.496  25.520   2.787
41110W        W 5930  10.966  35.792  12.396
41111W        W 5931  21.767   3.355  10.734
41112W        W 5932   1.726   0.889  13.385
41113W        W 5933  24.607  14.096   1.857
41114W        W 5934   1.780   8.275   1.960
41115W        W 5935  20.778  36.149  10.120
41116W        W 5936  32.463   6.760   1.642
41117W        W 5937  32.457  13.598   2.841
41118W        W 5938  18.746  37.131   0.675
41119W        W 5939   2.311  35.103   3.071
41120W        W 5940  30.635  24.929  13.908
41121W        W 5941  29.259  12.379   3.644
41122W        W 5942  31.478   8.745   1.182
41123W        W 5943  13.259  14.395  14.158
41124W        W 5944  20.147  17.413   2.199
41125W        W 5945  32.394  18.750   2.415
41126W        W 5946   4.352  36.560   2.279
41127W        W 5947  43.341  39.746   2.720
41128W        W 5948   4.243  10.626   0.694
41129W        W 5949  43.083  28.434  13.994
41130W        W 5950  23.330   5.696  11.780
41131W        W 5951  26.091  17.084   3.095
41132W        W 5952  32.758  33.324  12.494
41133W        W 5953  38.636  19.210   3.139
41134W        W 5954  23.303  25.991  11.186
41135W        W 5955  38.308  15.780   3.273
41136W        W 5956  25.728   9.969   4.449
41137W        W 5957  14.097  22.036   3.264
41138W        W 5958  28.164  23.005   2.877
41139W        W 5959  25.183  35.022   2.134
41140W        W 5960   2.814   2.923  10.167
41141W        W 5961  22.446  44.809   3.545
41142W        W 5962  19.477  26.988   2.602
41143W        W 5963  11.951   8.817   2.783
41144W        W 5964  28.455  15.022  10.999
41145W        W 5965   4.392   9.330   1.851
41146W        W 5966   8.491   2.762   0.946
41147W        W 5967  24.226  44.967   0.308
41148W        W 5968  12.147   3.313  11.833
41149W        W 5969  16.814   1.131  10.710
41150W        W 5970  35.956  35.537   2.391
41151W        W 5971   5.625  20.665   1.285
41152W        W 5972  34.638   6.251   3.636
41153W        W 5973  16.587  26.242   2.404
41154W        W 5974  32.110   1.634  12.023
41155W        W 5975  44.833  36.928   2.382
41156W        W 5976  43.894  10.078  11.544
41157W        W 5977  44.372  30.877  14.433
41158W        W 5978   5.832  16.578   3.409
41159W        W 5979  24.515  22.787   3.684
41160W        W 5980  44.702  19.060   3.798
41161W        W 5981  15.888  16.778  10.379
41162W        W 5982  40.880  13.691  11.003
41163W        W 5983   9.408  44.881   4.543
41164W        W 5984  36.872  25.617  11.549
41165W        W 5985   7.180   5.106   2.388
41166W        W 5986  22.066  13.953  11.226
41167W        W 5987  22.768  24.501  12.997
41168W        W 5988   2.360  41.666   3.178
41169W        W 5989   3.986  39.445   0.276
41170W        W 5990  22.587  31.362   0.556
41171W        W 5991  44.301  14.714   3.148
41172W        W 5992  43.466  17.542   3.749
41173W        W 5993  37.848   7.838  11.563
41174W        W 5994  31.085  20.068  13.972
41175W        W 5995  25.914   8.327  10.944
41176W        W 5996  27.538  14.170   2.406
41177W        W 5997  14.049  12.575   4.050
41178W        W 5998  11.921  43.042  14.279
41179W        W 5999   2.451  42.847   0.455
41180W        W 6000  23.771   8.699  14.988
41181W        W 6001  10.384  16.184   2.469
41182W        W 6002  35.153  16.393   1.714
41183W        W 6003  25.684  31.164  11.748
41184W        W 6004  15.110  28.909  14.563
41185W        W 6005   4.799   3.001  14.960
41186W        W 6006   4.360   7.967  12.591
41187W        W 6007  35.189  26.595  13.071
41188W        W 6008  13.258  25.728  12.838
41189W        W 6009  42.852  17.038  12.909
41190W        W 6010  39.333  22.972   4.264
41191W        W 6011  12.793   0.361   0.133
41192W        W 6012  19.129  42.394  12.869
41193W        W 6013   2.772  11.516  12.607
41194W        W 6014  44.585  28.935   3.545
41195W        W 6015  11.721  31.604  13.862
41196W        W 6016  33.603   9.630  13.141
41197W        W 6017  18.257  10.691  12.005
41198W        W 6018   7.015  12.605  11.257
41199W        W 6019  20.085  29.382  13.402
41200W        W 6020   2.718   9.078  10.839
41201W        W 6021  25.261   6.796  12.176
41202W        W 6022  27.611   8.829   3.810
41203W        W 6023  37.218  28.129   2.711
41204W        W 6024  38.689  34.673   1.836
41205W        W 6025  11.791  38.998   2.294
41206W        W 6026  20.545  30.309  14.340
41207W        W 6027  24.970  43.002  12.191
41208W        W 6028  35.538  27.909  14.835
41209W        W 6029  26.088  16.747  11.824
41210W        W 6030  24.499   8.281   4.123
41211W        W 6031   1.987   0.226   2.025
41212W        W 6032  16.119  22.667   2.799
41213W        W 6033  37.620  23.213   3.165
41214W        W 6034  15.678  44.903   0.515
41215W        W 6035   4.397  34.166   3.693
41216W        W 6036  31.109  40.966   4.778
41217W        W 6037  36.045  29.703   3.678
41218W        W 6038   7.870  10.482   4.150
41219W        W 6039  18.091  27.026  12.469
41220W        W 6040  32.370   4.225  12.464
41221W        W 6041  12.091   9.124  14.470
41222W        W 6042   9.605  35.367   2.759
41223W        W 6043  10.583   1.831   3.780
41224W        W 6044  25.568  28.434   4.325
41225W        W 6045  24.941  22.497  13.885
41226W        W 6046  33.519  35.447  11.842
41227W        W 6047   3.381   1.863   1.801
41228W        W 6048  20.687  27.111  14.814
41229W        W 6049  15.723  39.224  11.126
41230W        W 6050   2.290  29.191  10.588
41231W        W 6051  24.633  35.841   1.325
41232W        W 6052  15.743  20.698   4.318
41233W        W 6053  27.574  20.237   0.474
41234W        W 6054  19.414  43.941  10.753
41235W        W 6055  36.648  18.816   2.342
41236W        W 6056   1.418   9.805   3.133
41237W        W 6057  41.311  15.001   1.312
41238W        W 6058  29.933  29.475  14.885
41239W        W 6059   0.520  36.656   4.534
41240W        W 6060  31.963  40.802   4.860
41241W        W 6061  13.159   1.538  11.127
41242W        W 6062  17.317  34.484  13.756
41243W        W 6063  18.667  42.822   3.128
41244W        W 6064  14.015  22.773   2.790
41245W        W 6065  23.117   2.181   2.419
41246W        W 6066  43.889  43.717  13.010
41247W        W 6067  41.305   7.309   1.331
41248W        W 6068  25.448  12.724   2.252
41249W        W 6069  18.516   5.381  13.023
41250W        W 6070  16.559   4.355  13.432
41251W        W 6071  43.251  25.778   3.740
41252W        W 6072  27.003   0.458  12.320
41253W        W 6073   9.194  15.158   1.882
41254W        W 6074   8.243   9.367  12.693
41255W        W 6075  11.267  23.942  14.323
41256W        W 6076  37.087  35.170   0.350
41257W        W 6077  40.016   6.458   4.312
41258W        W 6078  18.349  21.187   3.086
41259W        W 6079  44.229  42.241   1.290
41260W        W 6080  23.442  10.086   4.131
41261W        W 6081  38.234  26.574   1.422
41262W        W 6082  31.628  30.485  12.783
41263W        W 6083  15.151  44.351   1.520
41264W        W 6084   2.011  38.252   0.586
41265W        W 6085  23.525  38.271   4.541
41266W        W 6086  18.078  27.515   3.861
41267W        W 6087  16.358  22.673   3.254
41268W        W 6088  33.547  36.080  13.890
41269W        W 6089  10.877  21.112  11.941
41270W        W 6090  16.528  30.413  12.828
41271W        W 6091  15.576  42.308   1.216
41272W        W 6092  40.328  21.091   3.081
41273W        W 6093  18.651  31.125  11.614
41274W        W 6094  33.883   1.030   1.825
41275W        W 6095   2.899  24.722   3.239
41276W        W 6096   5.871  40.799   4.663
41277W        W 6097  30.351  26.939  13.477
41278W        W 6098  22.465   8.618  11.448
41279W        W 6099  26.330   0.630  13.875
41280W        W 6100  23.186  30.019  11.963
41281W        W 6101  44.486  33.229   4.040
41282W        W 6102   0.785  17.109  13.366
41283W        W 6103   8.095  14.471   1.689
41284W        W 6104  19.856  37.058   1.487
41285W        W 6105  20.095   4.704   4.834
41286W        W 6106   2.715  32.140   2.222
41287W        W 6107  33.951   6.962   1.383
41288W        W 6108  21.732  12.915   5.022
41289W        W 6109  28.991  31.645   1.317
41290W        W 6110  18.688  23.246  14.725
41291W        W 6111  30.887  35.361   3.834
41292W        W 6112  40.391  16.319   0.724
41293W        W 6113  34.574  43.888   3.119
41294W        W 6114  10.795  36.607   2.374
41295W        W 6115  24.809   5.670  13.507
41296W        W 6116  20.299  41.243   0.988
41297W        W 6117   5.586  30.095  14.568
41298W        W 6118  16.017  44.012  13.458
41299W        W 6119  29.806  13.241   3.721
41300W        W 6120  40.559  22.009  12.059
41301W        W 6121  44.009  21.955   2.869
41302W        W 6122   0.396   3.972   0.251
41303W        W 6123  39.041  23.228   3.787
41304W        W 6124  23.228  37.001   4.946
41305W        W 6125  37.195   8.242  10.234
41306W        W 6126  26.887  12.842   0.969
41307W        W 6127   6.449  31.090  12.014
41308W        W 6128  44.796  33.494   3.716
41309W        W 6129  38.306  34.526   3.679
41310W        W 6130   1.690  32.030  14.553
41311W        W 6131  33.993  36.451  11.093
41312W        W 6132  24.234  15.804  14.741
41313W        W 6133   8.797   3.277  11.660
41314W        W 6134  19.165  37.630  14.938
41315W        W 6135  30.420   3.872   3.337
41316W        W 6136  18.513  34.918  12.849
41317W        W 6137  41.193  33.302   4.667
41318W        W 6138  30.372  33.366   3.394
41319W        W 6139   4.207  20.123  11.605
41320W        W 6140  31.942   5.887   4.102
41321W        W 6141   0.798  14.612   1.659
41322W        W 6142  24.309  13.541  13.827
41323W        W 6143   8.219  42.895  14.884
41324W        W 6144   1.465  37.169   2.664
41325W        W 6145  17.679  44.126  11.652
41326W        W 6146  26.676  17.601  12.527
41327W        W 6147  32.622  28.158   2.911
41328W        W 6148  12.863  17.097  14.808
41329W        W 6149  41.546  26.572  11.262
41330W        W 6150  43.550  25.695   1.708
41331W        W 6151  39.572  12.256   3.855
41332W        W 6152  23.765   0.758   3.390
41333W        W 6153   8.854   0.931  13.909
41334W        W 6154  17.740  35.896  11.805
41335W        W 6155   1.275  17.219  13.450
41336W        W 6156  32.372  33.983   4.115
41337W        W 6157  16.394   1.874  13.943
41338W        W 6158  42.819  16.608   1.855
41339W        W 6159  12.795  32.590   1.431
41340W        W 6160   9.422   8.154  10.973
41341W        W 6161  13.374  11.104  13.548
41342W        W 6162   0.946   0.050  12.027
41343W        W 6163  12.052  32.817  13.122
41344W        W 6164  10.349  22.608   1.206
41345W        W 6165   1.312  14.335  11.419
41346W        W 6166   6.568  34.684   0.832
41347W        W 6167  42.059   4.392  13.855
41348W        W 6168  43.873  39.052  13.949
41349W        W 6169   1.859   2.686   4.707
41350W        W 6170  42.889  28.228   0.734
41351W        W 6171   5.319   0.509  10.798
41352W        W 6172  23.506   7.825  11.909
41353W        W 6173  34.720  24.438  11.699
41354W        W 6174   1.002  30.037  12.442
41355W        W 6175   2.669   2.982  11.763
41356W        W 6176   2.430  41.858  11.393
41357W        W 6177  19.080  27.136   4.631
41358W        W 6178  37.020  22.664  13.716
41359W        W 6179   6.331  37.888   2.551
41360W        W 6180  24.982  32.370   3.590
41361W        W 6181  23.060  39.800  10.715
41362W        W 6182  42.761  34.545   0.256
41363W        W 6183  17.832  20.752   4.540
41364W        W 6184  33.850  12.557  12.123
41365W        W 6185  18.779   5.507   0.009
41366W        W 6186  23.755  25.853  11.464
41367W        W 6187  13.136   9.294  13.125
41368W        W 6188  15.149   1.199  14.461
41369W        W 6189   2.775  33.567   4.406
41370W        W 6190  19.358  22.064  13.126
41371W        W 6191  25.213   9.320   0.459
41372W        W 6192  29.437  20.436   4.709
41373W        W 6193   4.345  39.821  13.479
41374W        W 6194  28.238  13.072  12.370
41375W        W 6195   6.371  24.359  11.121
41376W        W 6196  25.123  15.227  13.395
41377W        W 6197  42.924   9.367   4.606
41378W        W 6198  30.923  16.028   2.836
41379W        W 6199  37.081  10.130   1.297
41380W        W 6200  38.823  31.457   4.674
41381W        W 6201  21.727  18.810  10.893
41382W        W 6202  26.475  26.404  11.986
41383W        W 6203  20.640  13.352  12.002
41384W        W 6204  29.579  12.084  14.296
41385W        W 6205  18.640   4.691  11.902
41386W        W 6206   7.879  44.871  13.924
41387W        W 6207  31.590  40.449   3.296
41388W        W 6208  32.126  38.337  11.946
41389W        W 6209  35.982  27.415   4.385
41390W        W 6210   2.325  16.661   1.857
41391W        W 6211  17.320  19.449  12.594
41392W        W 6212  44.184  31.658  11.941
41393W        W 6213  31.007  41.835  14.902
41394W        W 6214  40.872   8.208  14.475
41395W        W 6215  22.714  32.610   0.839
41396W        W 6216  36.002  14.016   2.362
41397W        W 6217  30.888   9.084   3.928
41398W        W 6218  14.260  37.088   1.856
41399W        W 6219  19.032  40.415  12.853
41400W        W 6220  10.635  30.693  12.328
41401W        W 6221   7.323  42.645   3.286
41402W        W 6222  12.187  32.655   0.346
41403W        W 6223  34.035  39.852  12.983
41404W        W 6224  12.237  10.244   3.665
41405W        W 6225  40.177  36.113  11.606
41406W        W 6226   0.297   2.020  14.780
41407W        W 6227  42.819  15.662   4.088
41408W        W 6228  13.960  18.818  10.435
41409W        W 6229  38.988  40.255  13.675
41410W        W 6230  43.058  32.588  13.061
41411W        W 6231   4.512  40.769   1.842
41412W        W 6232   4.413  40.894  13.808
41413W        W 6233  37.966  37.908   0.406
41414W        W 6234  19.900  26.663   2.942
41415W        W 6235   6.487   2.805   0.344
41416W        W 6236  25.058   2.206   3.214
41417W        W 6237   5.929  20.255   4.859
41418W        W 6238  27.705  31.926  12.505
41419W        W 6239  43.295  34.492   2.332
41420W        W 6240  28.534   6.338  14.854
41421W        W 6241  39.258  21.024  14.763
41422W        W 6242  35.500  21.170   1.783
41423W        W 6243  19.546  17.759   4.700
41424W        W 6244  40.125  22.202  11.830
41425W        W 6245   6.486  41.784  14.769
41426W        W 6246   8.395   7.697   3.180
41427W        W 6247   4.143  26.395   2.561
41428W        W 6248  14.354  17.588   1.341
41429W        W 6249  32.443  43.899   2.378
41430W        W 6250  16.388  39.774  14.923
41431W        W 6251   6.207  32.287  14.316
41432W        W 6252  22.546  16.731  14.375
41433W        W 6253  17.107  34.445  12.452
41434W        W 6254  36.027  37.272  13.037
41435W        W 6255   2.695  27.007  13.989
41436W        W 6256  29.505  29.077  10.624
41437W        W 6257  41.547   6.634   2.367
41438W        W 6258   2.366  32.326   4.509
41439W        W 6259  23.581  10.642  11.521
41440W        W 6260   8.460  37.533   1.862
41441W        W 6261  31.450  24.563   1.896
41442W        W 6262  36.554  19.676   3.576
41443W        W 6263  32.927  44.226  14.432
41444W        W 6264  28.419   2.927  14.700
41445W        W 6265  25.718  16.654   4.196
41446W        W 6266  18.712  23.343  14.231
41447W        W 6267  41.751  44.266  11.461
41448W        W 6268  24.041  33.435   4.175
41449W        W 6269  30.528  35.437   0.978
41450W        W 6270  22.279  19.451  13.549
41451W        W 6271   8.881  40.434   4.576
41452W        W 6272  21.927  43.310  11.171
41453W        W 6273  31.050  27.678   1.143
41454W        W 6274  31.628  18.993  14.809
41455W        W 6275  24.738   4.336  13.134
41456W        W 6276  26.916  24.304  12.595
41457W        W 6277  20.044  44.176   4.088
41458W        W 6278  39.801  12.069   1.700
41459W        W 6279  43.512  17.110   0.783
41460W        W 6280  24.912  34.504  11.343
41461W        W 6281  26.835  44.929  12.297
41462W        W 6282  33.568  43.554   3.132
41463W        W 6283   1.233  25.267   5.011
41464W        W 6284  18.001  16.595   4.080
41465W        W 6285  13.354  33.484   2.051
41466W        W 6286  15.356   6.890   2.389
41467W        W 6287  21.710  12.062  10.104
41468W        W 6288  23.460  35.094   2.350
41469W        W 6289  20.402  40.123   2.795
41470W        W 6290  27.969  13.240  13.815
41471W        W 6291   2.375  14.135   2.638
41472W        W 6292  32.634  41.518   5.303
41473W        W 6293  25.697  25.397  12.990
41474W        W 6294  11.651  27.875   2.103
41475W        W 6295  28.659  37.076   0.454
41476W        W 6296   3.443   8.052   0.903
41477W        W 6297  18.777  13.201   1.773
41478W        W 6298  10.345  41.789  10.575
41479W        W 6299  36.444   3.974   2.287
41480W        W 6300  16.671  43.961   3.092
41481W        W 6301  17.056  42.444  10.657
41482W        W 6302  33.967  31.671  13.069
41483W        W 6303  25.406   9.793  12.896
41484W        W 6304  20.041  16.646  13.635
41485W        W 6305  23.955  33.261  13.357
41486W        W 6306  18.160  22.569  12.540
41487W        W 6307   6.822  18.217   1.500
41488W        W 6308  37.126  30.028  13.923
41489W        W 6309  34.661   6.078  10.861
41490W        W 6310   7.369  42.938   1.273
41491W        W 6311  41.082  22.055   0.219
41492W        W 6312  41.429  16.746  14.781
41493W        W 6313  41.223   3.488   3.651
41494W        W 6314  34.091  34.172  13.101
41495W        W 6315   6.363  22.027   2.813
41496W        W 6316  16.987  25.997   2.642
41497W        W 6317  18.699  12.150   2.402
41498W        W 6318  27.108  21.682   2.241
41499W        W 6319  44.399   3.931   0.803
41500W        W 6320  13.615  34.398  13.461
41501W        W 6321  21.248  17.253   2.801
41502W        W 6322   9.785  26.099   0.291
41503W        W 6323  38.111   9.158  10.022
41504W        W 6324  25.631  27.709  14.507
41505W        W 6325   1.020  43.461  13.963
41506W        W 6326  39.061  37.982   4.071
41507W        W 6327  11.839  11.334   4.033
41508W        W 6328   6.694   9.995   2.629
41509W        W 6329   8.415   3.106   0.161
41510W        W 6330  31.930   8.895   1.387
41511W        W 6331   0.965  36.011   3.673
41512W        W 6332  27.215  10.896  13.886
41513W        W 6333  23.265  36.547   0.356
41514W        W 6334   4.350  23.265   3.600
41515W        W 6335  25.924  23.033   0.271
41516W        W 6336  38.546  36.566   2.753
41517W        W 6337  40.899  22.531   1.372
41518W        W 6338  31.132   2.592   1.752
41519W        W 6339  27.743  43.353   0.355
41520W        W 6340   9.597  39.164  11.173
41521W        W 6341  19.029  24.934   0.628
41522W        W 6342  30.988   4.729   3.373
41523W        W 6343   9.829  26.110  12.365
41524W        W 6344  22.745  20.546  11.969
41525W        W 6345  20.903  35.086  11.088
41526W        W 6346  44.262   5.509   2.956
41527W        W 6347  35.569  22.310  13.447
41528W        W 6348  41.984   1.809  14.333
41529W        W 6349  29.584  16.168  13.383
41530W        W 6350   9.161  40.899  10.700
41531W        W 6351  15.676   0.443   1.766
41532W        W 6352  31.475   2.278  13.059
41533W        W 6353  37.515  40.784   0.849
41534W        W 6354  24.790  35.347   2.036
41535W        W 6355  25.465  16.285   1.915
41536W        W 6356  33.002  25.153  11.954
41537W        W 6357  44.378   2.309  10.826
41538W        W 6358  11.468  17.658   3.654
41539W        W 6359  30.921   6.601   4.063
41540W        W 6360  23.585  37.750  12.077
41541W        W 6361  21.661  24.324  12.533
41542W        W 6362   6.825   6.846   3.771
41543W        W 6363  18.461  21.020  13.491
41544W        W 6364  20.559  13.714   0.827
41545W        W 6365  11.197  44.405  14.040
41546W        W 6366   7.929  17.187  12.149
41547W        W 6367  15.307  25.620   5.060
41548W        W 6368   2.543  16.149   3.333
41549W        W 6369   0.844  23.709  10.013
41550W        W 6370  34.095  34.974  13.514
41551W        W 6371  12.713  44.992   0.509
41552W        W 6372  27.883  19.590  14.237
41553W        W 6373  27.638  22.601   1.315
41554W        W 6374   0.309  38.392  13.238
41555W        W 6375   7.711  28.254   9.605
41556W        W 6376  37.366  28.912  11.197
41557W        W 6377   9.841  38.544  14.707
41558W        W 6378  13.159  32.873  13.919
41559W        W 6379  18.353  17.085   0.956
41560W        W 6380  27.956  23.767  11.529
41561W        W 6381  21.097   9.594   3.681
41562W        W 6382   1.340   4.483   1.166
41563W        W 6383  42.881   5.331   3.920
41564W        W 6384  31.263  23.667   5.081
41565W        W 6385  28.637  19.309   4.241
41566W        W 6386   7.296   9.432  12.045
41567W        W 6387   7.990  24.183  13.418
41568W        W 6388   1.873  19.245  11.983
41569W        W 6389  24.150  14.801   2.121
41570W        W 6390  26.538  38.091  12.491
41571W        W 6391  39.994  22.172   4.383
41572W        W 6392  32.569  40.508   0.380
41573W        W 6393   4.751  28.965  10.717
41574W        W 6394  38.187  34.520   1.860
41575W        W 6395  10.111   1.246  11.144
41576W        W 6396   8.244  22.441   3.018
41577W        W 6397  12.742   1.043   2.012
41578W        W 6398  44.328  21.416   3.520
41579W        W 6399   0.112  41.992  13.141
41580W        W 6400   8.597  32.396   3.095
41581W        W 6401   9.647  24.587  13.371
41582W        W 6402  44.003   3.425   0.349
41583W        W 6403  27.178  41.447   2.219
41584W        W 6404  13.862  40.871   0.895
41585W        W 6405  27.351   0.064  14.055
41586W        W 6406  15.213   7.188  13.168
41587W        W 6407  40.962  26.935  12.108
41588W        W 6408  31.478  28.960  13.844
41589W        W 6409  22.187   1.209  13.983
41590W        W 6410  14.368   9.676  14.725
41591W        W 6411  26.517  26.396  13.911
41592W        W 6412  12.769  32.210   1.798
41593W        W 6413  17.293  33.841   4.543
41594W        W 6414  16.733  40.314  14.112
41595W        W 6415  34.018  20.821   0.886
41596W        W 6416   8.678   4.742  14.935
41597W        W 6417  13.636  29.629   3.436
41598W        W 6418  15.721  18.777  10.326
41599W        W 6419  29.086  35.798  14.961
41600W        W 6420  10.590  17.182  12.522
41601W        W 6421  33.698  18.299  10.652
41602W        W 6422   9.164  27.705  14.992
41603W        W 6423  41.837  25.620  13.369
41604W        W 6424  24.523  39.782  13.305
41605W        W 6425  30.427  34.498  10.629
41606W        W 6426   0.401  39.329   0.781
41607W        W 6427  15.515   5.481  11.449
41608W        W 6428  43.474  40.841  13.595
41609W        W 6429   7.252  31.920   0.702
41610W        W 6430  33.389  29.958   2.343
41611W        W 6431   1.807  33.389  10.960
41612W        W 6432  18.701  44.449   4.013
41613W        W 6433   8.880  21.512   2.202
41614W        W 6434  38.130  41.474  11.079
41615W        W 6435  30.019  40.665   2.723
41616W        W 6436  34.789  39.003   3.755
41617W        W 6437  11.241  14.221   1.436
41618W        W 6438   8.204  23.536  12.536
41619W        W 6439  41.387  15.273   0.475
41620W        W 6440  34.052  19.595  14.043
41621W        W 6441   6.570  32.484   4.169
41622W        W 6442   4.208  30.413   3.205
41623W        W 6443  10.927  36.455   4.517
41624W        W 6444  38.644  29.199   0.988
41625W        W 6445   6.180   9.819   0.806
41626W        W 6446   1.061  28.622   2.400
41627W        W 6447  43.343  38.476   4.380
41628W        W 6448  35.508   7.838  14.433
41629W        W 6449  30.007  28.583   4.087
41630W        W 6450   0.526  15.244  14.242
41631W        W 6451  37.074  11.883  11.047
41632W        W 6452  15.048  31.595   1.745
41633W        W 6453  41.429  42.874  13.344
41634W        W 6454  22.274  22.125   0.420
41635W        W 6455  15.880  13.106  11.685
41636W        W 6456  17.026  27.965  11.042
41637W        W 6457  43.797   2.422  12.788
41638W        W 6458  26.374  41.597   1.519
41639W        W 6459   7.272  15.847  14.897
41640W        W 6460   3.907  19.833   1.786
41641W        W 6461  41.966  37.552   0.756
41642W        W 6462  39.863   6.346  14.004
41643W        W 6463  35.124  33.414   4.070
41644W        W 6464   7.737  23.699   0.731
41645W        W 6465  31.171  16.188  14.732
41646W        W 6466  27.504   3.236   4.373
41647W        W 6467  16.746  14.062   2.167
41648W        W 6468   7.102   0.908  11.105
41649W        W 6469  40.359   3.074  13.767
41650W        W 6470  36.005  16.701  10.446
41651W        W 6471  23.491   5.842  13.029
41652W        W 6472   0.939  28.414   2.858
41653W        W 6473   2.232  18.230   3.519
41654W        W 6474   7.606  11.895   1.881
41655W        W 6475   9.775  34.877  11.492
41656W        W 6476  19.799  38.860  11.129
41657W        W 6477  42.350  14.310  12.106
41658W        W 6478  40.480   4.628   0.449
41659W        W 6479   5.168   0.913   3.709
41660W        W 6480  36.834   1.422  10.944
41661W        W 6481  31.135  15.675   9.786
41662W        W 6482  40.996   4.868   1.202
41663W        W 6483  18.119   3.751  12.927
41664W        W 6484  12.194   4.598  13.343
41665W        W 6485  21.951  30.150  13.576
41666W        W 6486  37.849   3.299  13.972
41667W        W 6487  32.510  23.520   3.700
41668W        W 6488  40.780  32.437  13.531
41669W        W 6489  39.039  10.523   2.613
41670W        W 6490   8.129  12.883  12.024
41671W        W 6491  14.328  42.235   1.704
41672W        W 6492   6.408   2.234  14.605
41673W        W 6493  22.068  21.835   4.198
41674W        W 6494  44.777   4.147   0.241
41675W        W 6495   6.488  26.731  12.376
41676W        W 6496  20.153  19.146  13.816
41677W        W 6497  43.387   9.134   3.847
41678W        W 6498  40.525  18.291   3.821
41679W        W 6499  13.131  12.546  11.109
41680W        W 6500   3.907  27.116  12.859
41681W        W 6501   4.693  15.362   1.908
41682W        W 6502  11.247  20.527  12.522
41683W        W 6503  41.358  34.374   2.256
41684W        W 6504  28.116  28.422  11.579
41685W        W 6505  36.858  29.639   1.159
41686W        W 6506  13.022  13.711   4.173
41687W        W 6507  16.867  23.130  12.345
41688W        W 6508  22.946  10.717  10.888
41689W        W 6509  17.501  29.482   2.988
41690W        W 6510  37.053  28.095   0.709
41691W        W 6511  42.623   5.059   1.849
41692W        W 6512  18.367  12.209  14.569
41693W        W 6513  39.431  35.512   2.197
41694W        W 6514  23.479  16.814  14.453
41695W        W 6515   4.510  24.515  12.049
41696W        W 6516  40.156  16.676  10.769
41697W        W 6517   8.372  17.086   3.624
41698W        W 6518  34.792  39.048   1.322
41699W        W 6519  14.261   5.875  13.313
41700W        W 6520   2.923   5.830   4.086
41701W        W 6521  33.252   9.904  11.136
41702W        W 6522  18.290   5.764   3.004
41703W        W 6523  16.566  16.316  12.020
41704W        W 6524  39.381  26.843   4.564
41705W        W 6525  31.570   4.912   2.279
41706W        W 6526  21.755  37.750   5.195
41707W        W 6527  30.793  28.593  10.349
41708W        W 6528  17.087  37.035  13.008
41709W        W 6529  15.203  28.173   1.824
41710W        W 6530   0.317  28.630  13.925
41711W        W 6531  25.497  26.075  10.673
41712W        W 6532   6.460   8.415  14.725
41713W        W 6533  44.681   2.187  12.067
41714W        W 6534   2.784  37.280   2.215
41715W        W 6535  24.250  40.492  11.633
41716W        W 6536   5.469  34.933  14.076
41717W        W 6537  32.040  33.096   2.731
41718W        W 6538   2.935  11.313   4.640
41719W        W 6539  37.515  44.275  13.312
41720W        W 6540  44.350  33.874   0.932
41721W        W 6541  34.794  36.789  13.194
41722W        W 6542  20.954  37.729  12.076
41723W        W 6543  22.093  38.073  12.930
41724W        W 6544  32.176  42.653   4.895
41725W        W 6545  34.942  14.195  14.772
41726W        W 6546  22.017  41.035  13.372
41727W        W 6547   7.981  44.830  10.670
41728W        W 6548  32.986  43.895   2.415
41729W        W 6549  10.621  12.814  11.531
41730W        W 6550  16.513   9.217  11.095
41731W        W 6551   8.934  24.793  11.168
41732W        W 6552  44.044  11.136  14.508
41733W        W 6553  41.388   0.839  11.757
41734W        W 6554  30.634  11.214   3.136
41735W        W 6555  41.281   1.276   3.530
41736W        W 6556  12.690  29.187  12.733
41737W        W 6557  44.961   2.727   3.152
41738W        W 6558  36.428   4.221   4.547
41739W        W 6559  15.843  33.611   4.982
41740W        W 6560  14.951  15.488   2.495
41741W        W 6561  19.544  30.901  13.443
41742W        W 6562  37.555  13.752  11.431
41743W        W 6563  43.557   8.768  10.822
41744W        W 6564   0.152  33.852  14.286
41745W        W 6565  18.183  14.116   1.686
41746W        W 6566  41.125   5.625  14.530
41747W        W 6567  29.475  29.236  14.908
41748W        W 6568  19.765  35.943  12.416
41749W        W 6569  18.180  16.061   1.674
41750W        W 6570  42.545  42.415  11.145
41751W        W 6571  29.709  27.406   3.658
41752W        W 6572  21.421   0.368   4.008
41753W        W 6573  42.466  15.310   1.000
41754W        W 6574  27.684  22.294  13.514
41755W        W 6575  31.603  37.340  13.295
41756W        W 6576  39.702  15.704   1.865
41757W        W 6577  20.846  38.737   2.273
41758W        W 6578  33.945  25.058  10.438
41759W        W 6579  23.701   4.428  11.205
41760W        W 6580   1.807  12.708   4.664
41761W        W 6581   8.672  13.669  14.347
41762W        W 6582  31.108  42.354  10.602
41763W        W 6583  23.056  26.676  10.641
41764W        W 6584   7.497   4.678   2.426
41765W        W 6585  40.550  10.342  12.902
41766W        W 6586  42.744  10.824  10.979
41767W        W 6587  33.971   4.749  14.229
41768W        W 6588  22.606  39.674  14.747
41769W        W 6589  15.547  37.318   2.336
41770W        W 6590  37.103  12.174  14.207
41771W        W 6591   8.941   7.376   4.765
41772W        W 6592  40.904  12.509  14.139
41773W        W 6593  18.179  27.053   4.229
41774W        W 6594   4.958   8.427   0.950
41775W        W 6595  15.627  15.109   3.700
41776W        W 6596   9.225  31.042  13.985
41777W        W 6597  18.350  17.044  12.879
41778W        W 6598  20.288  12.631   0.310
41779W        W 6599   2.030   3.883  14.504
41780W        W 6600   5.111  12.150   1.686
41781W        W 6601  30.837  39.145  14.735
41782W        W 6602  40.319  31.652   3.702
41783W        W 6603  28.374  11.753  11.983
41784W        W 6604  26.853   2.506   1.487
41785W        W 6605   1.631  15.878   9.851
41786W        W 6606   3.466  25.569   3.479
41787W        W 6607  27.985  40.298  13.897
41788W        W 6608   4.898   5.375  12.565
41789W        W 6609   4.839   8.706   4.151
41790W        W 6610   9.081  21.591   4.062
41791W        W 6611   9.487  27.460   0.376
41792W        W 6612  41.600  32.835   2.258
41793W        W 6613  12.074  34.125   2.323
41794W        W 6614   5.049   4.846  13.534
41795W        W 6615  11.323  22.193  12.584
41796W        W 6616  16.797  31.254  13.394
41797W        W 6617  14.307  22.734   4.680
41798W        W 6618   5.395  37.512  10.741
41799W        W 6619  17.295  10.656  13.149
41800W        W 6620  43.219  24.995  11.606
41801W        W 6621  17.318  26.621  12.688
41802W        W 6622  17.602  34.106  14.930
41803W        W 6623  40.897   3.028  12.197
41804W        W 6624  18.030  38.580  10.918
41805W        W 6625   8.643   7.872   2.739
41806W        W 6626  18.536   2.062   0.327
41807W        W 6627  31.371  34.074   4.069
41808W        W 6628  43.335  26.018   3.303
41809W        W 6629  16.118   7.575   2.405
41810W        W 6630  25.695  44.711   4.484
41811W        W 6631  13.802  31.784   2.037
41812W        W 6632  32.379  11.200  14.382
41813W        W 6633   1.967  10.294  13.433
41814W        W 6634  12.093  25.128   0.311
41815W        W 6635  10.497  10.831   4.083
41816W        W 6636  39.483  37.536  10.760
41817W        W 6637  21.181   3.816   2.379
41818W        W 6638  30.570  33.108   0.811
41819W        W 6639  35.919  33.767   3.660
41820W        W 6640   4.978  25.742   4.800
41821W        W 6641   8.772  10.663   3.122
41822W        W 6642  38.964   4.479  14.833
41823W        W 6643  28.531  30.016  11.992
41824W        W 6644  29.473  35.458   0.972
41825W        W 6645   4.761  41.869   0.238
41826W        W 6646   1.403  38.323   0.888
41827W        W 6647   1.544  21.745   2.172
41828W        W 6648  31.555  19.992  10.819
41829W        W 6649  13.127   1.770  10.646
41830W        W 6650  30.156   2.804  11.666
41831W        W 6651  11.664   4.834   4.632
41832W        W 6652  11.604  16.952  14.483
41833W        W 6653  42.812   8.737   0.317
41834W        W 6654  20.109  31.871   2.352
41835W        W 6655  22.276  44.749  14.359
41836W        W 6656  24.630  27.720   2.222
41837W        W 6657  13.399  11.862   4.129
41838W        W 6658   6.361  21.687  14.714
41839W        W 6659   2.797  26.512   2.327
41840W        W 6660  24.924  44.436   2.695
41841W        W 6661  20.869  20.949   0.449
41842W        W 6662  39.330  16.847   0.306
41843W        W 6663   9.281  37.123   2.654
41844W        W 6664  24.085  27.020   1.240
41845W        W 6665  25.425  27.486   4.583
41846W        W 6666  16.670   4.966  11.093
41847W        W 6667  13.804  28.488   0.982
41848W        W 6668  24.394  29.001   1.695
41849W        W 6669  30.764   7.796  10.485
41850W        W 6670  29.116  33.659  12.567
41851W        W 6671  31.923   0.376   2.865
41852W        W 6672   7.917  13.581  14.781
41853W        W 6673   5.448  27.180  12.246
41854W        W 6674  29.699  15.757   2.108
41855W        W 6675   9.680  14.097   0.709
41856W        W 6676  22.054   8.433  12.637
41857W        W 6677  26.720   1.009  10.712
41858W        W 6678  22.595  42.343  11.945
41859W        W 6679  41.712   8.833  13.088
41860W        W 6680  13.227  34.171   9.890
41861W        W 6681  33.855  12.366   0.385
41862W        W 6682  33.812   2.350   1.584
41863W        W 6683  18.142   8.849   1.312
41864W        W 6684  27.229  19.337  14.831
41865W        W 6685   6.511  10.429   0.884
41866W        W 6686  20.599  12.748  12.848
41867W        W 6687  18.756   5.775  13.679
41868W        W 6688  43.559  23.659   3.804
41869W        W 6689   3.216  10.706   0.725
41870W        W 6690  35.340  32.152   0.582
41871W        W 6691  11.153  22.719   0.262
41872W        W 6692   8.895  12.734  10.774
41873W        W 6693  34.870  30.514   2.655
41874W        W 6694   5.139  22.514  12.619
41875W        W 6695  21.513  28.128  14.258
41876W        W 6696   2.898  41.327   0.759
41877W        W 6697  37.314   1.809  13.610
41878W        W 6698   2.581  16.838   2.282
41879W        W 6699  44.000  16.573  13.582
41880W        W 6700   3.340  37.965   4.656
41881W        W 6701  35.414  19.639   3.717
41882W        W 6702  19.284  38.908  12.706
41883W        W 6703  34.342  36.501   0.022
41884W        W 6704  17.935  40.262  12.884
41885W        W 6705  15.288  30.595   5.028
41886W        W 6706  44.614  11.160   3.314
41887W        W 6707  41.046  38.796  12.955
41888W        W 6708  38.313  37.259  12.392
41889W        W 6709   1.496  39.115   2.493
41890W        W 6710  25.551  33.404   1.564
41891W        W 6711  44.523  27.374  13.287
41892W        W 6712  38.941  26.577  12.521
41893W        W 6713  13.682  23.274   4.103
41894W        W 6714  13.823  23.879   1.247
41895W        W 6715  29.692  29.145   2.498
41896W        W 6716  14.681  41.502   2.337
41897W        W 6717   1.732  20.347  13.946
41898W        W 6718  25.946  16.801  11.342
41899W        W 6719  22.127  19.060  13.238
41900W        W 6720   0.450  33.043  10.528
41901W        W 6721  27.960   4.451   0.943
41902W        W 6722  41.197  35.836  13.537
41903W        W 6723  31.336  32.237  12.139
41904W        W 6724  35.358  31.496   4.799
41905W        W 6725   5.245  25.118   1.013
41906W        W 6726   1.289   6.481   1.224
41907W        W 6727   4.671   3.489  14.831
41908W        W 6728  34.350   5.809  14.802
41909W        W 6729  39.061   7.368   0.755
41910W        W 6730  31.560  16.444   2.777
41911W        W 6731   9.021   9.375  14.012
41912W        W 6732  40.449   0.338  13.031
41913W        W 6733  35.713  34.177   2.782
41914W        W 6734  22.021  11.386  12.877
41915W        W 6735   8.880  22.675  13.477
41916W        W 6736  18.225  15.071   1.816
41917W        W 6737  35.891   7.810   1.841
41918W        W 6738  21.818  17.688  14.403
41919W        W 6739  29.005   4.453  13.901
41920W        W 6740   1.825  33.314   2.699
41921W        W 6741  37.144  28.827  11.667
41922W        W 6742   5.777  16.203   1.591
41923W        W 6743  19.752   9.261   1.818
41924W        W 6744  31.107  30.970  11.309
41925W        W 6745  22.300  33.223   4.592
41926W        W 6746   2.759  13.751   4.830
41927W        W 6747   0.978  40.272  10.612
41928W        W 6748  33.009  44.302  13.314
41929W        W 6749   0.353  37.459   2.701
41930W        W 6750  42.496  34.260  13.912
41931W        W 6751  27.527  32.980  10.408
41932W        W 6752  35.124  39.084   4.565
41933W        W 6753  37.621  12.393   3.063
41934W        W 6754  43.352  24.494  11.510
41935W        W 6755  37.968  27.606   3.829
41936W        W 6756  40.840  37.461  11.114
41937W        W 6757   6.994  17.605  14.175
41938W        W 6758  28.697  32.502  12.004
41939W        W 6759  17.540   7.868  12.105
41940W        W 6760  42.141   2.852   0.221
41941W        W 6761  37.878  31.750  13.483
41942W        W 6762  32.939  33.912   2.268
41943W        W 6763   1.883  10.169  14.355
41944W        W 6764  21.026  32.666   2.711
41945W        W 6765  26.165  40.428  14.920
41946W        W 6766  43.644  44.978  14.760
41947W        W 6767  14.370  32.044   0.391
41948W        W 6768   4.510  11.694  13.511
41949W        W 6769  37.353  40.560   1.630
41950W        W 6770  25.146  26.986  14.341
41951W        W 6771  26.532  38.620  11.015
41952W        W 6772  30.316  27.760   4.857
41953W        W 6773  18.316  39.980  11.092
41954W        W 6774  28.891  41.995  11.656
41955W        W 6775  12.635   1.372  12.811
41956W        W 6776  19.773  30.658   2.462
41957W        W 6777  24.165  29.036   3.831
41958W        W 6778  23.503  37.617   9.812
41959W        W 6779  44.146   1.436   1.968
41960W        W 6780  20.539  21.160   1.828
41961W        W 6781  11.049  12.604   3.243
41962W        W 6782  20.818  27.103  10.971
41963W        W 6783  34.344  13.115  12.775
41964W        W 6784  34.421   1.710  14.835
41965W        W 6785  13.209   7.219   1.122
41966W        W 6786   2.379  13.511  12.064
41967W        W 6787  37.975  37.889  13.373
41968W        W 6788  31.030  10.022   4.320
41969W        W 6789  26.023  27.519  13.384
41970W        W 6790  35.791   2.882  13.861
41971W        W 6791  13.402  29.346   1.833
41972W        W 6792  17.630  31.332   2.767
41973W        W 6793   9.405  39.992   1.257
41974W        W 6794  16.375  19.207   3.279
41975W        W 6795  26.635  42.105  10.916
41976W        W 6796  18.291   1.943  12.860
41977W        W 6797  34.168   4.775  12.288
41978W        W 6798   3.898  34.471  14.194
41979W        W 6799  37.375   3.657   0.822
41980W        W 6800  30.441  20.027  14.792
41981W        W 6801   2.521  31.747  12.890
41982W        W 6802  33.427   0.616   1.773
41983W        W 6803  19.154  12.390   2.311
41984W        W 6804  33.023  43.051   1.370
41985W        W 6805   0.722  40.242   1.976
41986W        W 6806  24.047  28.714   2.899
41987W        W 6807   0.646  34.474  13.677
41988W        W 6808  41.225  36.365  12.865
41989W        W 6809   0.667  43.494   4.025
41990W        W 6810  26.427  27.652   3.964
41991W        W 6811   5.707   8.683  13.096
41992W        W 6812  15.857  26.048  11.606
41993W        W 6813  16.139  20.222   0.802
41994W        W 6814  28.337  10.817  11.190
41995W        W 6815  17.302  22.588  13.538
41996W        W 6816  38.349   8.671  12.861
41997W        W 6817  41.856  16.606   0.059
41998W        W 6818  17.664  43.564  10.448
41999W        W 6819  16.800  18.061   1.382
42000W        W 6820  27.472  11.308   3.619
42001W        W 6821  15.643  31.161  13.515
42002W        W 6822  11.434  34.103  13.478
42003W        W 6823  32.875  18.284   0.818
42004W        W 6824  34.376  34.973   1.167
42005W        W 6825  43.545   8.477  13.992
42006W        W 6826   8.396  30.556  12.028
42007W        W 6827  40.759   3.268   2.290
42008W        W 6828   1.154   5.714   2.748
42009W        W 6829  29.095  31.796  11.129
42010W        W 6830  43.960  24.698   4.156
42011W        W 6831  18.778   1.947   3.140
42012W        W 6832  13.583  16.442   3.441
42013W        W 6833  18.123  20.239  10.832
42014W        W 6834   6.808  39.088   2.605
42015W        W 6835   5.361  41.581  14.285
42016W        W 6836  20.162  16.035   1.314
42017W        W 6837  16.841   6.227  12.289
42018W        W 6838   9.854  21.156   2.801
42019W        W 6839  23.609   9.146   3.246
42020W        W 6840   7.902   3.783   2.035
42021W        W 6841  35.078  28.073   1.773
42022W        W 6842   9.866  26.613  11.197
42023W        W 6843  34.450  15.196   1.657
42024W        W 6844  23.097  18.831   3.720
42025W        W 6845   8.609  39.523  14.322
42026W        W 6846  38.108   4.787   4.920
42027W        W 6847   1.798  23.049  13.508
42028W        W 6848  43.864  28.041  13.436
42029W        W 6849   4.698  31.858   2.330
42030W        W 6850  35.079  41.994  12.373
42031W        W 6851  12.799  40.255  14.024
42032W        W 6852  29.470  34.749   2.551
42033W        W 6853  33.511  15.458   3.647
42034W        W 6854  12.770  11.610   2.705
42035W        W 6855  22.860  23.399  12.861
42036W        W 6856  42.874  14.218  13.363
42037W        W 6857  32.425  39.534  11.665
42038W        W 6858  28.200   9.471  14.997
42039W        W 6859  32.724   6.178   2.793
42040W        W 6860   1.558  28.727   2.300
42041W        W 6861   4.300  10.508  10.659
42042W        W 6862  42.783  23.032  13.902
42043W        W 6863  12.960  35.001   3.725
42044W        W 6864  18.257  40.078  12.483
42045W        W 6865  21.240  26.709  11.148
42046W        W 6866   3.868   3.350   0.060
42047W        W 6867   1.017  20.999  12.144
42048W        W 6868  30.448   5.708  10.860
42049W        W 6869   7.837  33.293  14.855
42050W        W 6870  24.910  31.405   0.830
42051W        W 6871   3.975  20.042  13.535
42052W        W 6872   0.057  12.093  11.795
42053W        W 6873  15.988  24.711  14.909
42054W        W 6874  25.489  28.350  10.336
42055W        W 6875   4.926  27.639  14.009
42056W        W 6876   6.678  30.422   0.368
42057W        W 6877   4.578  13.502   1.346
42058W        W 6878  40.985  15.092  12.494
42059W        W 6879  22.226  18.758  10.762
42060W        W 6880  25.617  22.048   4.566
42061W        W 6881   6.779  14.819   3.242
42062W        W 6882  10.159  33.498  13.189
42063W        W 6883  40.245   1.488  14.321
42064W        W 6884  21.640  12.703   3.583
42065W        W 6885  21.395  29.088  13.855
42066W        W 6886   4.093  13.999   3.779
42067W        W 6887   8.708  26.210  12.920
42068W        W 6888  17.655  12.303   3.715
42069W        W 6889  24.551  44.323   1.767
42070W        W 6890   9.557  42.105   0.035
42071W        W 6891  20.625  41.409  13.055
42072W        W 6892   6.375  26.373  14.935
42073W        W 6893  42.446  31.060  14.405
42074W        W 6894   1.979   7.900   3.675
42075W        W 6895  18.362  20.165  11.547
42076W        W 6896  11.769  10.893  11.625
42077W        W 6897  27.039  32.917  10.638
42078W        W 6898  14.663  30.621  14.106
42079W        W 6899   1.977   5.045   3.670
42080W        W 6900  40.751  19.599  12.068
42081W        W 6901  17.823   8.102   3.707
42082W        W 6902  28.610  16.009  11.042
42083W        W 6903  32.433   7.962  13.981
42084W        W 6904  20.737  43.843   0.362
42085W        W 6905  28.345  29.953   3.160
42086W        W 6906  40.833  35.418  12.867
42087W        W 6907  16.566  27.499   9.882
42088W        W 6908  29.623  42.427  10.745
42089W        W 6909   9.287  32.624  11.838
42090W        W 6910  20.056  12.127  10.735
42091W        W 6911  15.464  35.910   2.289
42092W        W 6912  28.554  10.188   2.106
42093W        W 6913  26.158  35.624  13.457
42094W        W 6914  38.483   2.827  11.158
42095W        W 6915   7.304   3.693   3.639
42096W        W 6916  22.501  25.955  10.653
42097W        W 6917  44.420  37.028  12.207
42098W        W 6918  35.039  10.060   4.573
42099W        W 6919   6.513   8.800  11.210
42100W        W 6920  32.072  17.345   2.370
42101W        W 6921  24.652   0.767   1.351
42102W        W 6922  41.433  34.075   0.148
42103W        W 6923  22.376  13.176   1.799
42104W        W 6924  16.919  40.415  12.906
42105W        W 6925  24.122  12.782   0.873
42106W        W 6926  11.074  32.561  12.369
42107W        W 6927   7.187  31.415   1.807
42108W        W 6928  34.147  11.132  14.741
42109W        W 6929  22.176  15.695  10.776
42110W        W 6930   4.474  22.693   1.803
42111W        W 6931  38.122  44.188  14.924
42112W        W 6932  30.927  31.534   3.467
42113W        W 6933   7.206  26.596  11.791
42114W        W 6934  44.949  38.974  12.459
42115W        W 6935  30.539  29.032   2.706
42116W        W 6936  18.948  42.862   2.376
42117W        W 6937  35.650  36.422   1.691
42118W        W 6938  26.339  11.779   0.395
42119W        W 6939  30.569  20.186  13.849
42120W        W 6940  25.548  37.830  13.813
42121W        W 6941  11.825  16.514  14.346
42122W        W 6942   2.739  18.559  14.901
42123W        W 6943   1.672  36.592  14.056
42124W        W 6944  29.509  33.551  10.465
42125W        W 6945  13.230  33.294   3.981
42126W        W 6946  26.506  23.253  13.325
42127W        W 6947  24.647   9.930   4.618
42128W        W 6948  19.084   0.326   0.510
42129W        W 6949   2.275  15.152   1.206
42130W        W 6950  37.117  36.462   1.824
42131W        W 6951  37.242  19.036  12.734
42132W        W 6952  28.898  27.208  12.514
42133W        W 6953  43.630  24.397  11.004
42134W        W 6954   4.187  22.698   2.732
42135W        W 6955  10.419   0.955   2.716
42136W        W 6956  24.084   2.701   4.719
42137W        W 6957  10.391   7.173   4.530
42138W        W 6958   5.614  17.695  12.541
42139W        W 6959  37.482   0.037   4.252
42140W        W 6960  29.613  29.175  13.425
42141W        W 6961   9.884  14.888  12.886
42142W        W 6962  21.022  13.401  13.470
42143W        W 6963   3.933  28.535  11.967
42144W        W 6964  19.401  43.595   1.205
42145W        W 6965  17.508  41.832  14.936
42146W        W 6966  36.592  30.624   2.577
42147W        W 6967  36.537  41.349  14.666
42148W        W 6968  35.178  31.011  13.122
42149W        W 6969  43.325  15.635  11.262
42150W        W 6970  17.627   9.441   2.190
42151W        W 6971  23.653  40.036   0.946
42152W        W 6972  28.838  34.968   0.432
42153W        W 6973  11.118  12.717   2.694
42154W        W 6974  40.769   6.939  11.134
42155W        W 6975   9.826  21.718   4.558
42156W        W 6976  30.083  33.673   1.377
42157W        W 6977   1.629  14.697  13.029
42158W        W 6978   7.637  17.139  11.331
42159W        W 6979  14.348   2.403  12.461
42160W        W 6980  35.906  30.638   2.650
42161W        W 6981   1.090  17.665  11.591
42162W        W 6982  43.811   0.410  14.532
42163W        W 6983  27.485  41.117  14.351
42164W        W 6984  42.877   1.444   2.801
42165W        W 6985  30.409  22.669  12.275
42166W        W 6986  28.176  36.860   0.483
42167W        W 6987  40.391  17.344   1.488
42168W        W 6988  21.255  31.860   3.619
42169W        W 6989  17.309   9.821   2.859
42170W        W 6990   4.628  43.925   1.902
42171W        W 6991   4.120  22.964  13.909
42172W        W 6992   0.617  10.480   5.030
42173W        W 6993  23.263   6.874  14.402
42174W        W 6994  26.694  31.139  11.444
42175W        W 6995  22.113   5.438   3.682
42176W        W 6996   2.363  37.648   2.395
42177W        W 6997   2.958  41.950  12.060
42178W        W 6998  21.046  20.980  13.560
42179W        W 6999  27.664  20.190  12.508
42180W        W 7000  37.185   5.008  12.483
42181W        W 7001  31.443  28.025  13.057
42182W        W 7002  13.081  15.590   2.247
42183W        W 7003  27.234  26.193  10.978
42184W        W 7004   4.445  19.055   3.262
42185W        W 7005   7.170  16.884   4.757
42186W        W 7006  42.991  14.739   1.703
42187W        W 7007  19.637  13.085  14.906
42188W        W 7008  25.743  28.035  13.827
42189W        W 7009  23.041  27.765  11.464
42190W        W 7010  14.532  29.935   0.263
42191W        W 7011  24.632  26.486  14.589
42192W        W 7012   2.745  24.685  12.521
42193W        W 7013  25.985  24.234   3.559
42194W        W 7014  20.379  28.523   2.440
42195W        W 7015   3.307   2.041  11.115
42196W        W 7016  15.598  26.396  11.166
42197W        W 7017  17.113  14.937  10.714
42198W        W 7018  10.664  32.385  14.701
42199W        W 7019  25.032  44.520   4.090
42200W        W 7020  26.456   6.269  11.473
42201W        W 7021  32.059   1.948  12.426
42202W        W 7022  22.872   0.202   4.195
42203W        W 7023   3.509  10.644   0.273
42204W        W 7024   5.746  34.558  14.430
42205W        W 7025  21.784  43.209   2.685
42206W        W 7026  30.156  18.532  14.518
42207W        W 7027  36.128  32.356  13.400
42208W        W 7028   9.214  44.415   0.277
42209W        W 7029  20.451  21.631  13.456
42210W        W 7030  20.661  19.634  11.416
42211W        W 7031  39.281  29.353  14.406
42212W        W 7032  42.654  32.938  13.809
42213W        W 7033  37.684  39.125   5.148
42214W        W 7034  35.469  24.850   2.384
42215W        W 7035  25.804  10.777   0.921
42216W        W 7036  43.199  25.921   0.840
42217W        W 7037   7.413  34.276  12.445
42218W        W 7038  26.864  34.397   1.273
42219W        W 7039  23.250  26.114  13.399
42220W        W 7040  20.947   3.943   4.166
42221W        W 7041  19.304  40.207   0.132
42222W        W 7042   8.281  12.609  11.196
42223W        W 7043   7.586  41.137   0.264
42224W        W 7044  35.799  35.000  14.799
42225W        W 7045  27.622  38.431  10.427
42226W        W 7046  31.537  12.998   0.430
42227W        W 7047  26.165   9.448   0.299
42228W        W 7048  29.194  17.756  13.023
42229W        W 7049   4.203  21.958  12.098
42230W        W 7050  40.282  30.671   3.735
42231W        W 7051  23.993  38.571  10.035
42232W        W 7052  12.582  19.481  11.632
42233W        W 7053   6.630  13.754   4.212
42234W        W 7054   9.097  34.971  11.608
42235W        W 7055   1.354   7.874  14.366
42236W        W 7056  14.951  41.969   2.394
42237W        W 7057  22.236  25.846  11.108
42238W        W 7058   0.023  35.875  10.733
42239W        W 7059  34.827  35.033   2.734
42240W        W 7060  27.597  33.843   3.164
42241W        W 7061  32.038  16.113  12.618
42242W        W 7062  12.823  31.418  12.602
42243W        W 7063  10.680  41.341  12.482
42244W        W 7064   3.323  27.937  13.020
42245W        W 7065  27.054  23.664   2.446
42246W        W 7066   0.323   7.441  12.524
42247W        W 7067  28.578  19.518   0.006
42248W        W 7068  29.087  10.884   2.175
42249W        W 7069  20.520  37.066  13.104
42250W        W 7070  43.264  34.542  13.665
42251W        W 7071  40.007  39.490  14.897
42252W        W 7072   9.332  11.891  14.317
42253W        W 7073  42.434  41.520   4.155
42254W        W 7074  37.098  35.426  14.907
42255W        W 7075  35.053  27.636   4.035
42256W        W 7076  31.110  17.147  12.106
42257W        W 7077   0.385   0.578  14.926
42258W        W 7078   6.733   3.769   4.060
42259W        W 7079   8.335   9.603  11.087
42260W        W 7080  39.919  44.416  10.829
42261W        W 7081   8.811   0.661   1.638
42262W        W 7082   9.173  29.939   1.211
42263W        W 7083  33.185  34.448   3.314
42264W        W 7084  21.712  32.393   0.845
42265W        W 7085  20.853  35.270   4.851
42266W        W 7086  23.673  33.634  11.508
42267W        W 7087  18.647  25.500   3.279
42268W        W 7088  27.961  28.718   4.670
42269W        W 7089  17.999  31.100   4.171
42270W        W 7090  31.153   7.690  12.157
42271W        W 7091  43.953  22.777   0.833
42272W        W 7092  42.618  26.030   1.748
42273W        W 7093  28.393  10.229   1.118
42274W        W 7094   1.762  27.718   4.133
42275W        W 7095  34.100  23.097  13.264
42276W        W 7096  29.168  20.980  14.399
42277W        W 7097   4.949  13.829   2.227
42278W        W 7098   0.188  18.697  14.926
42279W        W 7099  33.004  12.431   0.328
42280W        W 7100   6.941  20.615   3.056
42281W        W 7101  32.869  26.015   0.350
42282W        W 7102  43.116  17.611  13.455
42283W        W 7103  12.159  17.377  12.709
42284W        W 7104  36.128   6.439  13.774
42285W        W 7105  28.398   3.630  11.587
42286W        W 7106  21.073  19.354   4.241
42287W        W 7107   5.900  37.717   3.660
42288W        W 7108  26.147   8.441   0.933
42289W        W 7109  34.671  20.070  13.390
42290W        W 7110  12.114  29.848   3.483
42291W        W 7111  16.055   3.252  10.707
42292W        W 7112   5.978  36.522  12.958
42293W        W 7113  16.228  13.920  14.945
42294W        W 7114  39.392  20.966  13.445
42295W        W 7115   6.750  38.179  14.051
42296W        W 7116  13.916  17.826   0.101
42297W        W 7117   2.216  41.160  14.441
42298W        W 7118  34.096   9.695  13.346
42299W        W 7119   3.926  38.799   1.918
42300W        W 7120  30.996  19.619  10.221
42301W        W 7121  13.073  17.663  13.417
42302W        W 7122  13.130  21.624   0.452
42303W        W 7123  39.438   7.115  14.460
42304W        W 7124   1.756  24.547  13.463
42305W        W 7125  37.035   1.495  11.837
42306W        W 7126  20.743  33.834   3.147
42307W        W 7127  23.260  10.904  13.499
42308W        W 7128  27.601  42.850   4.196
42309W        W 7129  35.721  30.040  12.817
42310W        W 7130   0.754  29.443   3.638
42311W        W 7131   6.246  37.107   4.226
42312W        W 7132  33.587  23.252   1.328
42313W        W 7133  43.286   2.480  12.542
42314W        W 7134  40.613  40.448   0.181
42315W        W 7135  42.775  34.378   3.574
42316W        W 7136  42.261  44.307  11.245
42317W        W 7137   6.385  24.917   1.263
42318W        W 7138  15.866  13.348   2.431
42319W        W 7139  35.689   1.938  14.435
42320W        W 7140  29.610  29.583  10.700
42321W        W 7141  19.238  39.808  13.150
42322W        W 7142  38.957  28.076   0.860
42323W        W 7143  28.254  41.912   0.422
42324W        W 7144  11.354  21.177   0.528
42325W        W 7145  42.318   2.698  12.191
42326W        W 7146  32.841  43.869   2.910
42327W        W 7147  41.411  35.042  10.450
42328W        W 7148  36.290  13.716   1.821
42329W        W 7149  22.970  27.619   0.970
42330W        W 7150  35.091  33.405  10.724
42331W        W 7151  19.500   3.524   2.826
42332W        W 7152  11.610  39.084   4.094
42333W        W 7153  14.760  42.495   4.178
42334W        W 7154  42.545  35.594  14.916
42335W        W 7155  21.666  19.094  12.995
42336W        W 7156   2.171  38.348   2.734
42337W        W 7157  30.073   7.945  14.574
42338W        W 7158  26.463  10.880  13.486
42339W        W 7159  11.243   3.535   1.896
42340W        W 7160  16.172  30.755  10.274
42341W        W 7161  44.776   6.908  13.930
42342W        W 7162  44.386   4.903   4.609
42343W        W 7163  13.067  33.635  14.593
42344W        W 7164  32.113  12.140  10.607
42345W        W 7165  26.624  44.939  12.767
42346W        W 7166  30.860   2.472   2.700
42347W        W 7167  35.810  20.017   3.209
42348W        W 7168  20.179  27.785  12.369
42349W        W 7169  36.429  15.367   2.320
42350W        W 7170  29.506   1.558   1.342
42351W        W 7171  11.825   2.494  11.520
42352W        W 7172  34.785  27.197   3.153
42353W        W 7173   6.752   7.574  14.025
42354W        W 7174  15.804  16.254  14.840
42355W        W 7175   0.610  37.365   1.898
42356W        W 7176  40.525  11.805   0.956
42357W        W 7177  17.319  19.266   2.880
42358W        W 7178  16.134  25.937  13.922
42359W        W 7179  26.170  22.394  13.551
42360W        W 7180  16.319  15.910   2.101
42361W        W 7181  31.196  31.624   0.742
42362W        W 7182  16.131  43.388  12.907
42363W        W 7183  33.662  34.582   1.472
42364W        W 7184   7.195  18.297  11.936
42365W        W 7185  37.619   8.861   4.522
42366W        W 7186  12.687  25.114  12.447
42367W        W 7187  26.242   1.465  13.811
42368W        W 7188  39.839  21.772  11.721
42369W        W 7189   9.283  25.596   1.878
42370W        W 7190  24.467   0.269   3.207
42371W        W 7191   8.709  12.698  12.539
42372W        W 7192  42.426   8.297   4.927
42373W        W 7193   7.949  17.624  11.837
42374W        W 7194  21.441   1.286  10.135
42375W        W 7195  21.639   3.749   2.166
42376W        W 7196   5.433   5.557   1.312
42377W        W 7197  17.331  10.561   0.041
42378W        W 7198   1.737  21.341   4.211
42379W        W 7199  12.697  35.583   2.184
42380W        W 7200  15.016  17.045   5.117
42381W        W 7201  24.866  36.984   2.178
42382W        W 7202  29.718   1.784  14.298
42383W        W 7203  15.589  10.791   0.790
42384W        W 7204  12.617  18.838   3.285
42385W        W 7205  39.870   0.830  10.838
42386W        W 7206  30.181  40.178   2.795
42387W        W 7207  36.294  11.656   2.508
42388W        W 7208  31.582   7.724   3.609
42389W        W 7209  29.710  32.192  10.686
42390W        W 7210   1.774  30.356  13.649
42391W        W 7211  22.513  22.911   2.697
42392W        W 7212  44.933  43.132   3.377
42393W        W 7213  21.132   4.430   0.351
42394W        W 7214  31.531  13.096   4.591
42395W        W 7215  37.466  13.132  10.352
42396W        W 7216  16.761  14.797  12.142
42397W        W 7217   4.220  26.485  12.475
42398W        W 7218   2.498   0.029   0.835
42399W        W 7219   2.713  14.225   1.661
42400W        W 7220  36.030   7.419   2.272
42401W        W 7221  39.066   4.306   4.233
42402W        W 7222  42.722  19.416  12.068
42403W        W 7223  18.555  17.588  12.035
42404W        W 7224  17.698  41.097   0.412
42405W        W 7225  38.437   4.582   2.377
42406W        W 7226  42.826   8.204  13.529
42407W        W 7227   6.412  26.622   0.797
42408W        W 7228  23.025  36.337  13.577
42409W        W 7229  33.506  15.032   5.472
42410W        W 7230   6.120  42.830  11.216
42411W        W 7231  10.909   5.775  13.920
42412W        W 7232  23.726   5.346   2.888
42413W        W 7233  10.798  28.210   3.840
42414W        W 7234  21.567   8.233  12.655
42415W        W 7235   0.526  44.284  10.657
42416W        W 7236   6.205  39.982  13.343
42417W        W 7237  27.003  30.532  12.568
42418W        W 7238  20.648   7.728  13.447
42419W        W 7239  25.644  41.725  13.447
42420W        W 7240  27.468  35.836   2.691
42421W        W 7241  18.990  41.168   0.400
42422W        W 7242  43.953  20.419  11.962
42423W        W 7243   8.181  33.806  11.416
42424W        W 7244  24.919  13.307  13.103
42425W        W 7245  36.008  22.643   4.304
42426W        W 7246  26.752  37.961  14.814
42427W        W 7247  42.390  14.074  13.503
42428W        W 7248  10.692  15.753   0.967
42429W        W 7249  29.170   7.169   3.305
42430W        W 7250  21.758  27.715  10.699
42431W        W 7251   8.150  16.843   0.246
42432W        W 7252  34.876   9.280  10.858
42433W        W 7253  33.119   8.715   1.477
42434W        W 7254  16.210  43.963   2.840
42435W        W 7255   1.033   4.751  11.202
42436W        W 7256  10.689  26.673  14.492
42437W        W 7257  27.873  19.025  12.599
42438W        W 7258  43.676  30.158   0.051
42439W        W 7259  33.470  21.508   2.612
42440W        W 7260  23.402   5.000   4.497
42441W        W 7261  10.192   7.885   1.476
42442W        W 7262  36.541  44.194  14.809
42443W        W 7263   7.501   3.370   2.858
42444W        W 7264  14.573  37.038   2.302
42445W        W 7265  40.900  17.256   4.711
42446W        W 7266  24.676  40.360   1.278
42447W        W 7267   3.888  27.463   3.773
42448W        W 7268  25.534  35.986  12.678
42449W        W 7269  39.376  18.647   2.780
42450W        W 7270  13.205  14.724   1.294
42451W        W 7271  21.124  36.952  12.467
42452W        W 7272  24.022   4.010  10.791
42453W        W 7273  43.434  32.521   2.294
42454W        W 7274  15.627   9.884   0.212
42455W        W 7275  24.568  36.160  12.357
42456W        W 7276   2.013  10.193   4.741
42457W        W 7277  17.089   7.687   2.352
42458W        W 7278  36.925  32.562  14.674
42459W        W 7279  28.877  12.268   0.773
42460W        W 7280  39.425  34.381   0.922
42461W        W 7281  28.654  41.024  12.001
42462W        W 7282  21.041   3.320  10.423
42463W        W 7283  39.428  11.618   0.325
42464W        W 7284  21.143   6.442  14.756
42465W        W 7285  26.444  36.080  12.431
42466W        W 7286  34.673  37.878   4.319
42467W        W 7287  44.010  11.619  10.943
42468W        W 7288  22.752  35.500  13.013
42469W        W 7289   4.810  31.375   2.193
42470W        W 7290  11.661   2.328   3.232
42471W        W 7291  18.735   0.588   0.266
42472W        W 7292  33.837  30.998  13.526
42473W        W 7293  28.195  33.713  13.366
42474W        W 7294   9.770  36.631  11.086
42475W        W 7295  21.758  35.086  13.321
42476W        W 7296  26.521  40.817   2.221
42477W        W 7297  44.295  42.342   2.629
42478W        W 7298  29.826   0.304   1.288
42479W        W 7299  42.308   1.702   2.621
42480W        W 7300  44.887  26.977   1.716
42481W        W 7301  10.806  41.744   1.355
42482W        W 7302  13.161  26.126   0.521
42483W        W 7303  24.067  35.034   4.150
42484W        W 7304  31.165  10.344   2.791
42485W        W 7305  22.562  43.793   0.276
42486W        W 7306  12.674   4.271  11.098
42487W        W 7307  16.700   2.373  12.922
42488W        W 7308   5.768  28.516  10.647
42489W        W 7309   3.382   0.107  11.059
42490W        W 7310  29.945   4.211   1.596
42491W        W 7311  44.778  12.558  11.147
42492W        W 7312  29.351  33.296  13.392
42493W        W 7313  34.128  14.622   2.303
42494W        W 7314  33.465  33.725   4.735
42495W        W 7315  23.095   8.744  10.770
42496W        W 7316   6.447   0.432   2.300
42497W        W 7317  42.383  38.398  14.949
42498W        W 7318  44.417  44.283   3.646
42499W        W 7319  38.196   2.945   0.792
42500W        W 7320   8.016  39.199  11.147
42501W        W 7321  38.171  34.943  12.889
42502W        W 7322   8.427  29.678  12.516
42503W        W 7323  18.823  35.031   0.175
42504W        W 7324  30.380  39.002   3.717
42505W        W 7325  24.614  32.597  13.469
42506W        W 7326  34.120  17.649  13.116
42507W        W 7327  23.976  27.190  10.732
42508W        W 7328  12.203  14.620   1.338
42509W        W 7329  18.815  18.552   0.399
42510W        W 7330  39.984  25.838   3.267
42511W        W 7331   4.098   0.772  11.048
42512W        W 7332  24.306   5.298   3.722
42513W        W 7333   9.177  22.450   3.603
42514W        W 7334   7.319  41.022  10.304
42515W        W 7335  43.185  34.240   0.227
42516W        W 7336  21.494  13.857  14.304
42517W        W 7337  29.523  34.105  14.884
42518W        W 7338   2.869   6.058  14.764
42519W        W 7339  23.733  10.394   4.499
42520W        W 7340  38.805   4.086   2.665
42521W        W 7341  24.489  23.951  14.974
42522W        W 7342  44.290  12.918   4.218
42523W        W 7343  33.269  13.816  13.425
42524W        W 7344  19.533  20.716  12.527
42525W        W 7345  35.305  24.208   5.012
42526W        W 7346  31.996  14.610   1.998
42527W        W 7347  24.973  10.369   0.891
42528W        W 7348  12.306  26.156  13.404
42529W        W 7349  18.635  28.852  11.187
42530W        W 7350  37.527  40.762  14.771
42531W        W 7351  26.763   7.411   2.812
42532W        W 7352  21.508  18.700   2.794
42533W        W 7353  13.823  21.854   0.827
42534W        W 7354  31.552  16.573   2.270
42535W        W 7355   5.749  15.188   0.443
42536W        W 7356  18.385  27.201  12.066
42537W        W 7357  23.648  29.163  11.614
42538W        W 7358  42.719  27.310  13.625
42539W        W 7359  10.343   8.635   3.652
42540W        W 7360   6.655   7.204  12.634
42541W        W 7361  17.830  24.623   0.716
42542W        W 7362  19.314   4.850   1.546
42543W        W 7363   2.625  28.627   4.112
42544W        W 7364  13.767  15.202  12.644
42545W        W 7365  31.722  38.866  12.654
42546W        W 7366  41.826  37.078   4.458
42547W        W 7367  31.596  13.679   3.633
42548W        W 7368   5.424  18.833  12.116
42549W        W 7369  29.683  41.490   3.729
42550W        W 7370  12.102  14.277  11.205
42551W        W 7371  43.484   9.949   1.414
42552W        W 7372  12.932  40.269  12.511
42553W        W 7373  30.498   7.263  10.456
42554W        W 7374   0.251  30.245   1.673
42555W        W 7375  15.329  22.299   3.906
42556W        W 7376  44.371  37.544  12.059
42557W        W 7377  16.148  11.283  14.686
42558W        W 7378  23.607  36.557   1.793
42559W        W 7379  13.364   9.676  14.931
42560W        W 7380  14.176  29.622   3.311
42561W        W 7381  14.218  35.126  10.536
42562W        W 7382  44.356  20.778   2.244
42563W        W 7383   7.007   3.887  13.818
42564W        W 7384  24.244  16.632  13.336
42565W        W 7385  23.690  17.759   2.525
42566W        W 7386  37.652  44.771   0.140
42567W        W 7387   8.807  35.345   1.830
42568W        W 7388  18.514   5.395   2.236
42569W        W 7389  44.270  14.355   2.685
42570W        W 7390   9.840  40.355   4.539
42571W        W 7391  25.586   6.731  13.514
42572W        W 7392  36.396  14.992  11.948
42573W        W 7393  24.612  32.392  12.075
42574W        W 7394  22.973   4.662   1.924
42575W        W 7395  43.447  38.494  12.477
42576W        W 7396  19.133  19.130   1.808
42577W        W 7397  32.568  16.213  12.777
42578W        W 7398   8.185   6.583   0.426
42579W        W 7399  32.808   8.020  12.401
42580W        W 7400  35.955  36.932   4.192
42581W        W 7401  10.300  25.794  13.555
42582W        W 7402  27.703   5.678   1.248
42583W        W 7403  40.154   2.446  11.715
42584W        W 7404  28.604  13.304   0.813
42585W        W 7405  33.564  17.110  13.898
42586W        W 7406  44.867  26.246  11.283
42587W        W 7407  14.049  11.836  10.712
42588W        W 7408  17.204  32.879   2.360
42589W        W 7409  20.771  40.458   2.568
42590W        W 7410  36.788  14.597   1.662
42591W        W 7411   6.672  36.462   0.029
42592W        W 7412  42.744  44.391   3.773
42593W        W 7413  24.633  25.949  13.427
42594W        W 7414  42.190  25.765  11.514
42595W        W 7415  18.082   1.907  14.506
42596W        W 7416  30.056  39.956  14.403
42597W        W 7417  42.119  31.961   3.674
42598W        W 7418  37.572  25.684   3.327
42599W        W 7419   5.382  30.947  14.066
42600W        W 7420  12.301  27.019  11.163
42601W        W 7421   9.698  30.932   3.803
42602W        W 7422  32.524  39.188  13.164
42603W        W 7423   5.633  28.258  14.800
42604W        W 7424  12.649  41.595  13.490
42605W        W 7425  43.812  17.631   1.949
42606W        W 7426  32.106  17.803   0.709
42607W        W 7427   4.865  21.771  10.640
42608W        W 7428  38.647  12.282   3.145
42609W        W 7429  18.799  31.786  14.716
42610W        W 7430   5.009  16.650   1.300
42611W        W 7431  39.429  25.464   4.534
42612W        W 7432  22.074  30.493  13.199
42613W        W 7433  43.514   4.954  14.023
42614W        W 7434  11.848  33.037   1.321
42615W        W 7435  14.192   1.010   1.967
42616W        W 7436  27.941  40.451  12.812
42617W        W 7437   0.967   6.825   0.435
42618W        W 7438  18.944  42.195  11.122
42619W        W 7439  44.358  19.730  14.693
42620W        W 7440  14.601  38.382   3.881
42621W        W 7441  14.596  10.884  12.515
42622W        W 7442  37.620  22.975  11.554
42623W        W 7443  37.120  10.809   2.947
42624W        W 7444  23.198  24.238   1.241
42625W        W 7445  30.731  29.112  12.749
42626W        W 7446  40.836   3.419   0.739
42627W        W 7447  38.375  12.178  11.932
42628W        W 7448   3.365   7.717  14.330
42629W        W 7449  30.607  38.368  10.568
42630W        W 7450  16.195  44.833   0.417
42631W        W 7451  34.368  37.339  12.454
42632W        W 7452   9.729  39.035  10.302
42633W        W 7453  36.635  21.056   3.186
42634W        W 7454  30.677  25.483  14.752
42635W        W 7455  11.257   3.023   1.842
42636W        W 7456  34.001   9.234  10.369
42637W        W 7457  21.074  35.912   0.735
42638W        W 7458  42.749  34.174  12.074
42639W        W 7459  20.742  22.547  11.629
42640W        W 7460  15.509  42.081  11.071
42641W        W 7461  40.589   2.684   0.195
42642W        W 7462  16.592  31.241   4.050
42643W        W 7463  20.746  22.997   2.961
42644W        W 7464   3.205  27.756   2.111
42645W        W 7465   2.481  41.927   2.273
42646W        W 7466  42.265  23.480  13.556
42647W        W 7467  43.211  36.357   2.222
42648W        W 7468  14.459  16.495   0.618
42649W        W 7469  44.731   3.847   1.890
42650W        W 7470  40.909  36.490   4.071
42651W        W 7471  11.314  29.534   0.508
42652W        W 7472  34.125  11.682   2.852
42653W        W 7473  25.937  40.047   4.579
42654W        W 7474  18.437  20.645  10.700
42655W        W 7475  20.561  12.734  14.321
42656W        W 7476  22.208  27.801  10.450
42657W        W 7477  22.609   2.711   0.219
42658W        W 7478  24.587  39.074  10.476
42659W        W 7479  22.273  14.172  14.519
42660W        W 7480  33.897  24.951   1.916
42661W        W 7481  23.515  37.295   1.304
42662W        W 7482  36.267  17.129  10.685
42663W        W 7483   1.983  17.771   3.993
42664W        W 7484  31.476  28.039   2.933
42665W        W 7485  37.997  12.629  14.630
42666W        W 7486   8.332  20.778  14.829
42667W        W 7487   5.907  17.619   3.566
42668W        W 7488  38.947  34.213  10.270
42669W        W 7489  15.626  38.539  11.678
42670W        W 7490   1.213  33.575   1.748
42671W        W 7491   1.855  30.015   0.195
42672W        W 7492  12.839  26.054  10.679
42673W        W 7493  38.871  32.438  10.881
42674W        W 7494  13.788  26.063   1.213
42675W        W 7495  38.904  31.333   1.595
42676W        W 7496  28.734  21.375   3.410
42677W        W 7497  16.856  12.277   4.643
42678W        W 7498  40.526  11.077   3.863
42679W        W 7499  22.507  21.265   2.631
42680W        W 7500  26.044  27.675  14.832
42681W        W 7501  22.986  40.272  13.172
42682W        W 7502  12.202  38.457  13.699
42683W        W 7503  19.362  19.313   2.282
42684W        W 7504  22.480   3.945  12.988
42685W        W 7505  41.568  30.906   0.752
42686W        W 7506  14.870  31.043  14.469
42687W        W 7507   5.284  13.530  12.533
42688W        W 7508  44.116  38.415  13.914
42689W        W 7509  18.740  18.231   3.242
42690W        W 7510  18.632  26.686   2.241
42691W        W 7511  23.070  20.582  14.737
42692W        W 7512  23.618  35.504  10.016
42693W        W 7513  32.435  37.256   4.128
42694W        W 7514  42.727  20.544   2.603
42695W        W 7515  39.344   3.765  11.706
42696W        W 7516   6.442  33.921  13.480
42697W        W 7517  13.240  31.111   1.468
42698W        W 7518  32.496  10.726  13.077
42699W        W 7519  40.950  18.497   0.245
42700W        W 7520  22.590  36.808   3.783
42701W        W 7521  22.503  39.074   3.635
42702W        W 7522  26.958  18.081   1.257
42703W        W 7523  23.701  22.494   0.212
42704W        W 7524  43.922  21.679  10.673
42705W        W 7525  20.280   6.325  14.613
42706W        W 7526  43.273   4.985   0.921
42707W        W 7527   1.947  40.610  12.607
42708W        W 7528  24.177  33.001   2.171
42709W        W 7529   4.325  42.823  13.425
42710W        W 7530  38.724  25.765   1.035
42711W        W 7531   7.837  40.985  11.232
42712W        W 7532  34.161  32.850   0.277
42713W        W 7533  29.445  22.670   0.824
42714W        W 7534   3.490  17.614   0.747
42715W        W 7535   1.010   9.331  13.496
42716W        W 7536   2.907  35.138   3.344
42717W        W 7537  22.242  37.999  13.431
42718W        W 7538  13.566  17.560  13.560
42719W        W 7539  14.127   1.032  14.371
42720W        W 7540   6.143  12.519   4.614
42721W        W 7541   5.982  23.666  12.013
42722W        W 7542  31.392  29.024  11.188
42723W        W 7543   3.716  12.151  13.355
42724W        W 7544  44.502   2.774  13.260
42725W        W 7545  10.185  41.579   1.247
42726W        W 7546  34.838   4.447  14.738
42727W        W 7547  21.298  16.109  14.361
42728W        W 7548  21.534  35.052   1.832
42729W        W 7549  44.354   7.264  13.780
42730W        W 7550  42.786  40.750   4.617
42731W        W 7551   8.214  40.916  11.634
42732W        W 7552  33.214  22.177  12.741
42733W        W 7553  29.164  20.555   1.194
42734W        W 7554  35.840  38.632  10.458
42735W        W 7555  39.514   7.342   4.622
42736W        W 7556  42.169  32.977  14.023
42737W        W 7557  10.291   4.703  12.395
42738W        W 7558   6.508  23.809  11.119
42739W        W 7559  34.185  12.168  14.778
42740W        W 7560  33.940  19.156  14.332
42741W        W 7561   5.599  15.214   1.420
42742W        W 7562  19.836  19.469  13.506
42743W        W 7563  13.067  32.202  11.499
42744W        W 7564  29.399   0.001   4.720
42745W        W 7565  27.196  21.826   0.656
42746W        W 7566   2.404  27.130   4.264
42747W        W 7567   2.417   3.219   3.258
42748W        W 7568  30.562  28.574   1.131
42749W        W 7569  42.464  32.022   2.838
42750W        W 7570  39.575  26.066  13.961
42751W        W 7571  18.897   2.599  11.117
42752W        W 7572  29.266  22.718   5.049
42753W        W 7573  15.255  31.033   4.669
42754W        W 7574  42.985  38.343  12.730
42755W        W 7575  10.340  13.187   1.415
42756W        W 7576  22.269  37.326  14.043
42757W        W 7577  40.927  42.127   2.341
42758W        W 7578  38.729  25.899  12.665
42759W        W 7579  10.765  12.758  12.017
42760W        W 7580  10.747  15.596  11.807
42761W        W 7581  31.039  26.074   0.795
42762W        W 7582   0.791  22.308   3.790
42763W        W 7583  33.686  43.922  12.134
42764W        W 7584   8.047  20.457   2.557
42765W        W 7585  27.687  30.173   2.377
42766W        W 7586  13.114  19.145   2.415
42767W        W 7587   6.144  21.773   4.142
42768W        W 7588  33.341  39.402  11.177
42769W        W 7589  23.777  24.417   3.043
42770W        W 7590  14.725  39.126  12.392
42771W        W 7591   0.307  42.962   2.136
42772W        W 7592  33.199  11.926  11.513
42773W        W 7593  25.687   2.410  12.876
42774W        W 7594  30.097  33.923   3.589
42775W        W 7595  24.950   5.217  14.897
42776W        W 7596  33.922  34.566  14.418
42777W        W 7597  31.160  20.168  12.996
42778W        W 7598  24.045   9.415   1.671
42779W        W 7599  44.310   6.353  13.358
42780W        W 7600  44.317  21.315   4.019
42781W        W 7601  39.727  26.604   0.814
42782W        W 7602  34.655  22.841   4.764
42783W        W 7603  40.014  34.867  10.727
42784W        W 7604  16.617   8.314  11.501
42785W        W 7605  29.232   3.458   5.093
42786W        W 7606  17.040   8.836  10.723
42787W        W 7607  34.600  14.020  13.037
42788W        W 7608  25.118  33.700   1.721
42789W        W 7609  19.014   7.508   2.765
42790W        W 7610  18.163  18.460   4.229
42791W        W 7611  25.562  28.173  12.463
42792W        W 7612  23.635  12.090  10.370
42793W        W 7613  11.867  17.256   2.887
42794W        W 7614   7.332  22.598   0.416
42795W        W 7615  36.839   0.829   1.415
42796W        W 7616  35.785   1.275  13.963
42797W        W 7617  36.087  12.186  11.112
42798W        W 7618  34.330  30.052  13.985
42799W        W 7619  34.397  42.101   4.129
42800W        W 7620  44.475  28.404   1.225
42801W        W 7621  39.528  44.471   0.919
42802W        W 7622   6.628  32.226  13.111
42803W        W 7623  22.994  16.064  10.714
42804W        W 7624  24.552  34.943   1.774
42805W        W 7625  27.178   3.285  10.749
42806W        W 7626  26.245  10.852   1.806
42807W        W 7627  29.036  31.540   3.935
42808W        W 7628  14.751  36.442   0.353
42809W        W 7629  38.094  11.272   1.273
42810W        W 7630  30.339  28.168   4.065
42811W        W 7631   2.033  31.452   0.981
42812W        W 7632   9.801  20.201   0.453
42813W        W 7633  39.016  30.565   0.148
42814W        W 7634  14.697  35.935   0.255
42815W        W 7635   9.409  12.768  13.116
42816W        W 7636  10.230   0.354   0.457
42817W        W 7637  30.391  18.634  11.092
42818W        W 7638  24.574  13.758  14.573
42819W        W 7639  37.848  16.521   3.291
42820W        W 7640  16.113  19.728   2.240
42821W        W 7641   4.665  30.246  11.174
42822W        W 7642  16.234  24.703  10.792
42823W        W 7643  43.503  30.665  11.883
42824W        W 7644   0.869   6.852   3.641
42825W        W 7645   8.295   3.848   0.816
42826W        W 7646  41.432  15.804   2.945
42827W        W 7647  33.814  42.497   3.542
42828W        W 7648   4.190  14.204  12.042
42829W        W 7649  24.127   8.752  12.391
42830W        W 7650  32.062  22.458   1.147
42831W        W 7651  38.569   0.275  12.084
42832W        W 7652  39.457  23.230   0.408
42833W        W 7653  44.028  28.728   0.055
42834W        W 7654  33.875   6.846   0.522
42835W        W 7655  25.742   0.581   1.792
42836W        W 7656  40.822  15.766  12.111
42837W        W 7657  24.104  18.196  11.163
42838W        W 7658  25.143  40.561   3.157
42839W        W 7659  39.845  10.671   1.545
42840W        W 7660  39.108  24.973  10.980
42841W        W 7661  16.801  31.107   0.877
42842W        W 7662  38.827   6.593   4.708
42843W        W 7663  10.297  33.649   4.709
42844W        W 7664  19.964  29.136  12.567
42845W        W 7665  28.640   0.542   2.887
42846W        W 7666   4.761  22.640  12.971
42847W        W 7667  10.174  30.383   3.136
42848W        W 7668  27.181  40.968   3.539
42849W        W 7669  28.540   4.764   3.651
42850W        W 7670  19.603  27.811  14.141
42851W        W 7671  32.967  26.113   3.082
42852W        W 7672  12.869  17.593   4.762
42853W        W 7673   2.765  14.698  12.869
42854W        W 7674  25.444  20.866   4.068
42855W        W 7675  11.532  24.475  12.836
42856W        W 7676   9.803   4.905   1.427
42857W        W 7677  26.807  26.073  12.242
42858W        W 7678   5.263  12.375   3.166
42859W        W 7679  20.189  31.658  10.972
42860W        W 7680  31.953   1.467   0.471
42861W        W 7681   9.728  13.888   3.236
42862W        W 7682  11.816  29.703   2.409
42863W        W 7683  11.925   2.855   2.356
42864W        W 7684   7.385  40.786  12.684
42865W        W 7685  41.090  11.647  10.648
42866W        W 7686   4.847  32.563  10.617
42867W        W 7687  32.305  25.159  13.372
42868W        W 7688  21.710  31.359   2.834
42869W        W 7689  35.236   5.355   3.588
42870W        W 7690  20.683  44.143  12.121
42871W        W 7691  14.881  18.712  12.394
42872W        W 7692  38.058  30.534   1.680
42873W        W 7693  40.413   5.660   0.545
42874W        W 7694  29.032  40.315  11.179
42875W        W 7695  13.149  25.194  14.028
42876W        W 7696  40.082  22.246   2.935
42877W        W 7697  15.196  22.768   0.190
42878W        W 7698  12.785  22.093  10.459
42879W        W 7699  37.789  39.589   1.664
42880W        W 7700  44.755   9.868   4.579
42881W        W 7701  30.184  22.458   1.932
42882W        W 7702  34.909  17.772   3.553
42883W        W 7703  14.787  36.062  14.393
42884W        W 7704  41.685  37.090  11.661
42885W        W 7705  26.084  35.989   1.323
42886W        W 7706  11.894  24.057   0.315
42887W        W 7707   7.635  41.048   4.120
42888W        W 7708  24.046   9.135  13.002
42889W        W 7709  17.194  33.653  14.250
42890W        W 7710  19.218  35.158  14.802
42891W        W 7711   0.239  23.455  14.947
42892W        W 7712  39.964  10.858  14.426
42893W        W 7713  30.501   9.275   1.801
42894W        W 7714  42.912   6.510  12.982
42895W        W 7715  35.976  27.032   1.901
42896W        W 7716   0.806  29.045   2.215
42897W        W 7717  32.933  15.913   0.367
42898W        W 7718   6.116  41.819  13.211
42899W        W 7719  41.082  27.813  14.284
42900W        W 7720   3.240   3.747   3.741
42901W        W 7721  19.568   5.341   2.345
42902W        W 7722   9.616  22.065   3.288
42903W        W 7723  24.883   3.881  13.355
42904W        W 7724  18.065   6.470   3.653
42905W        W 7725  21.304  17.519  13.527
42906W        W 7726  39.206   9.823  13.005
42907W        W 7727   1.506  26.247   0.321
42908W        W 7728   1.371   7.027  11.083
42909W        W 7729  17.048  32.433   1.859
42910W        W 7730  19.480  18.544  13.487
42911W        W 7731   8.379  16.292  14.154
42912W        W 7732  16.137  26.861   4.614
42913W        W 7733   9.330  13.234   1.113
42914W        W 7734  21.080  32.028   1.891
42915W        W 7735  28.008  13.193  11.112
42916W        W 7736  30.033  18.266  11.182
42917W        W 7737  23.418   1.346  14.894
42918W        W 7738  13.108  36.651  10.940
42919W        W 7739   6.198  24.099   1.503
42920W        W 7740  26.958  28.159   0.782
42921W        W 7741  27.246  22.595  11.392
42922W        W 7742  39.967  26.394   4.032
42923W        W 7743  40.252  30.048  13.849
42924W        W 7744   3.814  23.977   2.474
42925W        W 7745  16.856   0.045  10.849
42926W        W 7746   2.460  18.873   4.983
42927W        W 7747  24.231  29.965  14.551
42928W        W 7748  36.508  34.031   1.450
42929W        W 7749  21.061  27.629   3.743
42930W        W 7750  29.565  19.577  13.024
42931W        W 7751  10.905  32.149  13.066
42932W        W 7752  25.682  21.845   0.762
42933W        W 7753  20.283  38.965   0.530
42934W        W 7754  35.745   3.183   4.247
42935W        W 7755  27.939  39.407  13.636
42936W        W 7756  15.121  36.719   4.548
42937W        W 7757   3.809   1.830   0.247
42938W        W 7758  10.735  39.947   1.450
42939W        W 7759   9.346  12.345   1.296
42940W        W 7760   8.340   8.716   0.315
42941W        W 7761  23.690   5.792  10.982
42942W        W 7762  21.087  36.073   9.702
42943W        W 7763  10.325  42.631  10.908
42944W        W 7764  31.018   7.704   3.352
42945W        W 7765  27.525  35.170   3.816
42946W        W 7766  26.794   0.879  13.962
42947W        W 7767   6.935  17.225  12.473
42948W        W 7768  23.673  42.449  10.849
42949W        W 7769  13.007  31.029  10.289
42950W        W 7770  26.890  23.508  14.317
42951W        W 7771   6.870  22.053  13.362
42952W        W 7772  36.948   5.323   4.085
42953W        W 7773  31.151   1.480   0.520
42954W        W 7774   7.509   2.778   1.269
42955W        W 7775   6.815  19.650   0.290
42956W        W 7776  32.354   7.096   2.622
42957W        W 7777   2.755  24.208  10.139
42958W        W 7778   1.075  43.878   0.119
42959W        W 7779  28.149  16.833  14.321
42960W        W 7780   5.322   5.972   4.346
42961W        W 7781  19.486  25.238   3.253
42962W        W 7782   3.931   2.592  11.593
42963W        W 7783  38.597  27.274   2.485
42964W        W 7784  39.814  41.946  14.891
42965W        W 7785  14.207  14.036  13.927
42966W        W 7786  33.530   1.450  14.609
42967W        W 7787  11.850  38.515  12.454
42968W        W 7788  21.631   4.715   2.120
42969W        W 7789  15.237  16.720   4.373
42970W        W 7790   5.882   3.815   2.200
42971W        W 7791   1.719   0.313   4.098
42972W        W 7792  14.805  40.126  11.547
42973W        W 7793  38.053  23.979   4.380
42974W        W 7794  36.234  43.182   2.789
42975W        W 7795  23.328  10.831  11.956
42976W        W 7796   9.715  10.323   0.005
42977W        W 7797   3.237  31.165   4.491
42978W        W 7798  20.019  32.644   1.889
42979W        W 7799  22.498  28.963   0.994
42980W        W 7800  16.183  26.725  13.562
42981W        W 7801  28.728  40.268   1.227
42982W        W 7802   6.920   5.167  11.074
42983W        W 7803  27.228  29.981   2.271
42984W        W 7804  41.650  32.819  13.925
42985W        W 7805  35.056  35.706   4.923
42986W        W 7806  24.564  18.682  14.742
42987W        W 7807   5.180  43.397   4.182
42988W        W 7808  20.288  18.025   4.523
42989W        W 7809  17.212   0.412   0.872
42990W        W 7810  42.382  16.830  12.827
42991W        W 7811  38.410  39.566  13.952
42992W        W 7812  11.996  31.493   1.391
42993W        W 7813  24.664  27.982   4.490
42994W        W 7814   5.351   8.748   4.167
42995W        W 7815   5.707  14.416  11.891
42996W        W 7816  17.284  43.785  13.787
42997W        W 7817  26.993  23.026  14.524
42998W        W 7818  16.614   1.811  14.435
42999W        W 7819   9.877  20.272   4.578
43000W        W 7820  27.179   0.059   1.771
43001W        W 7821  20.643  35.762  12.140
43002W        W 7822  11.103  28.814  11.649
43003W        W 7823  11.995   1.252   0.467
43004W        W 7824  26.085  12.131  10.588
43005W        W 7825   0.506   6.301  10.765
43006W        W 7826  27.169  30.239  11.227
43007W        W 7827   1.533   1.883  11.945
43008W        W 7828  27.457  39.491   0.382
43009W        W 7829  30.070  26.074   3.276
43010W        W 7830  23.192  16.255  14.795
43011W        W 7831  29.957  39.834  13.531
43012W        W 7832  24.587  43.358   4.316
43013W        W 7833  24.165  25.996  11.184
43014W        W 7834   0.182  32.632   1.875
43015W        W 7835  20.321  37.820   4.639
43016W        W 7836  16.807  11.696  11.450
43017W        W 7837  21.294  14.253   4.551
43018W        W 7838  21.076   9.095  13.068
43019W        W 7839   9.605  16.231  14.902
43020W        W 7840  33.815  30.317  11.129
43021W        W 7841   1.802  43.367  14.484
43022W        W 7842  44.266  19.334   2.924
43023W        W 7843  17.978  10.736  12.586
43024W        W 7844  44.837   1.790   1.049
43025W        W 7845   5.888  38.775  11.022
43026W        W 7846  26.214  37.128  14.892
43027W        W 7847   5.414   8.247   3.663
43028W        W 7848  29.747  39.685  13.990
43029W        W 7849  22.004  33.450   3.289
43030W        W 7850  32.145  10.266  12.345
43031W        W 7851   5.246  26.071  13.308
43032W        W 7852  18.410  27.092  11.168
43033W        W 7853  30.787  38.991   5.034
43034W        W 7854  18.839  34.188   1.376
43035W        W 7855  32.196  30.103  14.915
43036W        W 7856  20.380  23.605   0.148
43037W        W 7857   5.786  29.714   3.099
43038W        W 7858   5.416  16.879  14.952
43039W        W 7859  35.569  14.177  12.418
43040W        W 7860  15.665   7.088  13.400
43041W        W 7861  12.716   6.874   1.750
43042W        W 7862  40.025  22.692  10.761
43043W        W 7863   3.166  18.390  11.269
43044W        W 7864  28.945   1.388   3.472
43045W        W 7865  20.686  15.509   2.841
43046W        W 7866  43.013   5.793   2.256
43047W        W 7867  32.523  21.258  12.208
43048W        W 7868  37.238  40.457   3.787
43049W        W 7869  37.333  41.823   2.342
43050W        W 7870   7.739   1.851   2.815
43051W        W 7871  33.118  17.737   2.803
43052W        W 7872  43.355  29.934   4.479
43053W        W 7873   2.520  18.514  13.908
43054W        W 7874  39.321  29.657  13.973
43055W        W 7875  19.898  41.475  11.086
43056W        W 7876   8.873   7.915   0.379
43057W        W 7877  19.130   8.243  11.467
43058W        W 7878  40.501  41.531   2.823
43059W        W 7879   9.909  34.374   2.731
43060W        W 7880  42.253  44.724   3.764
43061W        W 7881  29.383  34.714  10.371
43062W        W 7882   7.448  10.913   3.883
43063W        W 7883  27.525  15.933  10.777
43064W        W 7884  35.030  10.908   1.829
43065W        W 7885  10.197  36.211   4.006
43066W        W 7886  11.351   8.752   4.769
43067W        W 7887  12.170  16.835  10.531
43068W        W 7888  34.970  19.518   2.863
43069W        W 7889  26.440  14.711   4.089
43070W        W 7890   4.909  19.687   1.257
43071W        W 7891  36.843  16.629   0.302
43072W        W 7892  27.426  23.883   4.107
43073W        W 7893   1.048  33.642  12.092
43074W        W 7894   8.040  43.784  12.027
43075W        W 7895   1.328  12.886  13.462
43076W        W 7896   2.005  11.337   3.804
43077W        W 7897  15.458  17.662  12.133
43078W        W 7898  38.482  33.406   3.083
43079W        W 7899  31.528  10.768  11.915
43080W        W 7900   6.197  22.685   1.306
43081W        W 7901  41.005  32.680  12.987
43082W        W 7902  29.437  29.388  12.156
43083W        W 7903   5.805  42.904  10.768
43084W        W 7904   5.154   9.505   0.885
43085W        W 7905  38.714  36.944  13.360
43086W        W 7906  18.510  13.914   2.593
43087W        W 7907  44.813  26.745   4.457
43088W        W 7908  44.480  30.606  14.872
43089W        W 7909   5.479  42.936   0.524
43090W        W 7910  32.864  36.558  14.013
43091W        W 7911   7.600  14.471  13.963
43092W        W 7912  43.520  22.049   2.863
43093W        W 7913  18.790  37.989   1.658
43094W        W 7914  44.121   8.810   5.008
43095W        W 7915  26.611  22.601   1.435
43096W        W 7916  35.910  24.521   3.567
43097W        W 7917  23.334  19.128  14.231
43098W        W 7918  21.212   6.229   4.840
43099W        W 7919  18.760   5.821  13.169
43100W        W 7920  32.156  18.485  11.627
43101W        W 7921  19.150  38.560  14.019
43102W        W 7922  44.315  24.716   2.870
43103W        W 7923   3.401   7.597   2.274
43104W        W 7924  31.480  36.740  13.350
43105W        W 7925  35.318   3.413   4.039
43106W        W 7926  19.131  13.839  14.952
43107W        W 7927   9.778  19.330  12.437
43108W        W 7928  32.961  30.384   3.242
43109W        W 7929  28.847  40.974  13.471
43110W        W 7930  43.264  25.679   1.287
43111W        W 7931   7.249  42.690   0.842
43112W        W 7932  43.828  15.267  13.868
43113W        W 7933  31.766  23.225  14.568
43114W        W 7934  43.940  24.575   3.643
43115W        W 7935  42.554  31.450   2.286
43116W        W 7936  22.179  38.415   4.067
43117W        W 7937  36.830  30.544   4.714
43118W        W 7938  43.522  36.921  11.995
43119W        W 7939   6.676  27.824  11.842
43120W        W 7940  27.984   5.408   0.005
43121W        W 7941  34.970  12.742   0.390
43122W        W 7942  27.753  30.987   2.794
43123W        W 7943  31.802  17.840   0.272
43124W        W 7944   2.962  37.498  13.078
43125W        W 7945  20.642  26.004   1.932
43126W        W 7946   0.784  17.298   0.958
43127W        W 7947  33.662  37.953   3.146
43128W        W 7948  11.805  43.929   3.151
43129W        W 7949   6.286  27.757  10.601
43130W        W 7950  37.340  41.465   1.676
43131W        W 7951  17.267  11.679   0.850
43132W        W 7952  13.162  36.891   2.168
43133W        W 7953   9.210   2.965   3.185
43134W        W 7954  37.312  27.101  10.405
43135W        W 7955  26.662  29.509  12.980
43136W        W 7956  21.987  16.254  10.916
43137W        W 7957  40.991  44.257   0.893
43138W        W 7958  31.023  13.878   0.927
43139W        W 7959  19.801  26.949   1.740
43140W        W 7960  24.055  14.120  11.153
43141W        W 7961  34.163  17.731   2.869
43142W        W 7962  13.222   4.197   3.784
43143W        W 7963  10.239  30.831  12.997
43144W        W 7964  31.514   6.229   2.650
43145W        W 7965  43.404  23.564  11.001
43146W        W 7966  20.784  19.728  13.431
43147W        W 7967   6.972   2.204   2.261
43148W        W 7968  29.523  10.819   2.918
43149W        W 7969  30.888  19.240  13.046
43150W        W 7970  41.017  14.699   2.623
43151W        W 7971  36.585  23.004  13.503
43152W        W 7972   4.302  38.866  12.484
43153W        W 7973  41.314  34.007  13.435
43154W        W 7974  41.036  29.190   4.145
43155W        W 7975  20.102  18.387  11.190
43156W        W 7976  38.585  26.372  12.810
43157W        W 7977  10.688  17.358   2.803
43158W        W 7978  13.127  14.354   2.285
43159W        W 7979  42.807  24.085   2.783
43160W        W 7980  24.230   1.284   1.839
43161W        W 7981  23.859  22.728   3.045
43162W        W 7982  12.145  42.164  11.208
43163W        W 7983   2.732  31.682  13.405
43164W        W 7984   3.001   6.389   0.865
43165W        W 7985   3.049   8.685  10.762
43166W        W 7986   0.769  43.783  13.646
43167W        W 7987  33.554  15.154  11.521
43168W        W 7988  28.996  40.447  14.398
43169W        W 7989  37.435  22.141  11.067
43170W        W 7990  28.595  37.111  14.191
43171W        W 7991  12.767  32.071   4.328
43172W        W 7992   9.072   1.821  14.395
43173W        W 7993  39.617  18.071   2.267
43174W        W 7994  18.824  40.997   1.845
43175W        W 7995   3.896   5.471  12.995
43176W        W 7996  44.736  25.009  12.036
43177W        W 7997  19.761  35.424  12.612
43178W        W 7998  11.186  43.629   1.416
43179W        W 7999   7.319   1.398  11.115
43180W        W 8000   3.898  26.229  12.009
43181W        W 8001  11.490  38.802   1.869
43182W        W 8002   7.562   4.203  11.539
43183W        W 8003  36.122   6.752  11.121
43184W        W 8004   9.738  29.596  13.326
43185W        W 8005   3.985  19.301  11.241
43186W        W 8006  30.746   1.567   3.821
43187W        W 8007  17.190  13.085   3.176
43188W        W 8008   9.818  21.754  10.762
43189W        W 8009  15.847  33.349  13.504
43190W        W 8010  37.431   9.644  11.270
43191W        W 8011   5.255   5.889   1.684
43192W        W 8012  23.576   3.668  12.057
43193W        W 8013  12.695  44.015  10.368
43194W        W 8014  40.585  33.676   2.313
43195W        W 8015  36.305   4.692   0.252
43196W        W 8016  38.968   4.536  13.464
43197W        W 8017  29.589  21.748  14.491
43198W        W 8018   2.915  38.333   2.113
43199W        W 8019  41.974   6.898  14.684
43200W        W 8020  39.391  38.154   0.760
43201W        W 8021  14.796  34.544   1.651
43202W        W 8022  21.791   0.792   1.887
43203W        W 8023  44.218  23.659  14.065
43204W        W 8024  31.827  36.855   0.442
43205W        W 8025  29.116  19.029   2.298
43206W        W 8026  11.258  38.444  13.858
43207W        W 8027  32.976  41.341   0.513
43208W        W 8028  30.850  18.796   0.486
43209W        W 8029  44.823  40.957   2.470
43210W        W 8030  26.997  26.192   0.909
43211W        W 8031  12.169   6.667   1.028
43212W        W 8032   1.476  16.545  12.910
43213W        W 8033   1.160  29.090   0.448
43214W        W 8034  11.389  41.335   4.205
43215W        W 8035  41.515  36.793  13.789
43216W        W 8036  41.911   9.766  10.143
43217W        W 8037  18.321  43.943  13.104
43218W        W 8038  43.832  20.139  12.394
43219W        W 8039   2.435   6.903  10.624
43220W        W 8040   6.916   1.161  12.350
43221W        W 8041  42.892  12.696   2.780
43222W        W 8042  42.407   9.783   2.590
43223W        W 8043  38.483  14.351   3.685
43224W        W 8044  28.119  11.383   2.588
43225W        W 8045  27.997  21.128   4.895
43226W        W 8046  14.954  17.591  12.034
43227W        W 8047  31.460  14.342   0.326
43228W        W 8048  26.224   4.286  13.056
43229W        W 8049  13.073  39.332   0.151
43230W        W 8050   4.465   4.386  13.936
43231W        W 8051  39.033  21.227   4.597
43232W        W 8052   0.026  14.665   2.634
43233W        W 8053  39.594  21.085   0.179
43234W        W 8054   8.890  24.773   3.657
43235W        W 8055  17.823  10.949   2.318
43236W        W 8056  16.879  31.528  10.568
43237W        W 8057   2.760  28.596   3.337
43238W        W 8058  25.464   3.811   2.851
43239W        W 8059  35.215  14.235  14.321
43240W        W 8060   9.208  43.504  12.870
43241W        W 8061  30.311  25.381   4.992
43242W        W 8062  11.601   9.360   0.420
43243W        W 8063  10.639   9.272   0.838
43244W        W 8064  11.619  37.470  10.547
43245W        W 8065  10.723   2.207   0.130
43246W        W 8066  21.519  19.465  13.984
43247W        W 8067  33.909  36.840   1.425
43248W        W 8068  34.354  23.021   2.908
43249W        W 8069   7.180   2.079  14.362
43250W        W 8070  21.274   7.302  11.119
43251W        W 8071  16.404  21.152   3.654
43252W        W 8072  23.601  12.658  12.901
43253W        W 8073  35.433   3.318  12.049
43254W        W 8074  31.885   3.416  13.711
43255W        W 8075  36.749  17.768   3.696
43256W        W 8076  18.699  34.769  13.316
43257W        W 8077  42.498   2.958  13.961
43258W        W 8078  16.356   0.767   2.410
43259W        W 8079  42.727  10.113   0.644
43260W        W 8080  19.486  22.157  14.941
43261W        W 8081   2.784  42.278   4.898
43262W        W 8082  16.097  44.161   1.284
43263W        W 8083  14.928  28.916   4.079
43264W        W 8084  16.310  12.570   2.753
43265W        W 8085   4.158  10.757   3.645
43266W        W 8086  43.165  12.757   1.245
43267W        W 8087  33.324  27.241   3.741
43268W        W 8088   0.892  23.210  12.436
43269W        W 8089  40.521  19.647   2.339
43270W        W 8090  39.934  14.805   1.835
43271W        W 8091  39.329  25.628  14.428
43272W        W 8092   5.785   8.230   3.282
43273W        W 8093  20.526  41.655  14.010
43274W        W 8094   9.295  27.159  13.931
43275W        W 8095   6.852  28.155  14.803
43276W        W 8096  14.986  31.976  13.088
43277W        W 8097  43.361  24.102  13.590
43278W        W 8098  38.061  35.867  12.970
43279W        W 8099  24.427  28.987  14.723
43280W        W 8100  27.722  15.674  12.894
43281W        W 8101  35.333  30.277  14.242
43282W        W 8102   9.229  19.785  11.686
43283W        W 8103   7.358   2.281   1.254
43284W        W 8104   7.852  30.860   4.245
43285W        W 8105  13.874   4.713   1.747
43286W        W 8106   7.476  29.968   1.807
43287W        W 8107  22.246   9.780  13.913
43288W        W 8108  20.322   5.820  12.424
43289W        W 8109  13.641  30.424  12.490
43290W        W 8110  11.638  25.989  12.080
43291W        W 8111  32.634   5.908   3.233
43292W        W 8112  13.916   3.523   4.073
43293W        W 8113  11.157  21.245  10.641
43294W        W 8114  34.391  11.871   4.560
43295W        W 8115  40.386  44.373   4.031
43296W        W 8116   0.389  26.640  14.313
43297W        W 8117   2.366   7.865  10.637
43298W        W 8118  26.451  13.853  11.123
43299W        W 8119  23.962  11.622  12.506
43300W        W 8120   4.235  24.376  10.691
43301W        W 8121  34.558  22.507  13.549
43302W        W 8122  14.320   4.525  13.147
43303W        W 8123   5.163  38.416   3.640
43304W        W 8124  32.951   6.912   1.543
43305W        W 8125  17.449   6.172   4.018
43306W        W 8126  30.012  14.607  13.313
43307W        W 8127   8.120  20.113   0.807
43308W        W 8128  34.181  41.566   4.560
43309W        W 8129  10.683  20.546   9.457
43310W        W 8130  13.815   2.249  10.842
43311W        W 8131   9.045  37.090   2.183
43312W        W 8132   2.602  28.749   0.861
43313W        W 8133   4.869   9.983  14.142
43314W        W 8134  20.138  20.040  12.580
43315W        W 8135  18.573  23.640   3.385
43316W        W 8136  44.724  22.614   3.683
43317W        W 8137  35.528  15.746  14.493
43318W        W 8138  24.722  20.986   4.073
43319W        W 8139  30.656  30.806  11.431
43320W        W 8140   1.202  13.300   4.552
43321W        W 8141  12.818   3.786  13.027
43322W        W 8142   0.704  18.285   4.221
43323W        W 8143  19.627  14.895  12.056
43324W        W 8144  13.706   0.898   3.729
43325W        W 8145  29.377   0.145  12.472
43326W        W 8146  18.157  10.094  13.093
43327W        W 8147  31.505  40.528   4.854
43328W        W 8148   7.286  42.968  10.733
43329W        W 8149  36.412  29.192  14.483
43330W        W 8150  13.598  14.360  12.813
43331W        W 8151  19.054   7.815   4.495
43332W        W 8152  37.324  16.600   1.483
43333W        W 8153  17.772   3.557  14.839
43334W        W 8154   3.188  24.483   4.122
43335W        W 8155  24.775   5.946   0.052
43336W        W 8156  18.558  42.453   0.194
43337W        W 8157  13.298  27.650   3.526
43338W        W 8158  43.467  44.492  11.507
43339W        W 8159  33.935  27.037   4.967
43340W        W 8160  38.821  26.969   3.825
43341W        W 8161   9.300  27.911   4.157
43342W        W 8162  39.501  33.743   3.894
43343W        W 8163   6.442   9.652   3.412
43344W        W 8164  32.125  22.942   1.299
43345W        W 8165  15.303  27.158   3.858
43346W        W 8166   5.110  43.800   1.003
43347W        W 8167  24.991  13.038   0.410
43348W        W 8168  44.300  23.998   2.140
43349W        W 8169  31.096  34.633  12.442
43350W        W 8170  13.732  11.133  12.739
43351W        W 8171   3.160  38.125  14.350
43352W        W 8172  27.659  41.724  12.499
43353W        W 8173  16.521  24.748   1.181
43354W        W 8174  33.512  34.959   2.733
43355W        W 8175   7.424  27.097  11.562
43356W        W 8176  17.018   8.708   2.161
43357W        W 8177   3.400  29.851   3.056
43358W        W 8178  20.964  27.247  13.902
43359W        W 8179  21.033  19.630   3.781
43360W        W 8180   4.866  36.424   0.246
43361W        W 8181  15.418  11.838   0.586
43362W        W 8182   3.418   5.271  14.967
43363W        W 8183  11.235  39.112   1.354
43364W        W 8184  34.505  34.879  13.045
43365W        W 8185  24.939  25.123  14.610
43366W        W 8186  23.931  20.868   5.050
43367W        W 8187   9.870   2.576  13.924
43368W        W 8188  38.665  20.314  11.173
43369W        W 8189  17.165  17.446   4.459
43370W        W 8190  12.829  42.368   0.735
43371W        W 8191   3.749  26.033   3.628
43372W        W 8192  32.672  17.610   4.470
43373W        W 8193   0.359  35.206  13.932
43374W        W 8194  37.357  21.503   1.288
43375W        W 8195  11.929  14.562   4.093
43376W        W 8196   9.294   9.182   0.264
43377W        W 8197  19.199   0.013  14.775
43378W        W 8198  32.479  41.309  11.278
43379W        W 8199   4.992   5.753   0.323
43380W        W 8200  27.607   8.744  11.411
43381W        W 8201  10.096  28.803   4.551
43382W        W 8202   1.301   9.302  11.984
43383W        W 8203  44.884  35.435   4.095
43384W        W 8204  15.179  41.852  11.382
43385W        W 8205  15.782  19.563   0.194
43386W        W 8206  39.356   6.940   0.777
43387W        W 8207  44.615  14.003  14.831
43388W        W 8208   8.373  42.669  14.433
43389W        W 8209  18.365  35.436  13.000
43390W        W 8210  22.583   0.293   4.612
43391W        W 8211   2.807  31.979  12.023
43392W        W 8212  40.914  19.039   3.628
43393W        W 8213  20.130  28.317   0.430
43394W        W 8214  15.383  36.740   3.150
43395W        W 8215   3.239  14.212   1.666
43396W        W 8216  40.728   2.252  11.099
43397W        W 8217  37.791  29.542   0.342
43398W        W 8218  42.929  33.583  12.884
43399W        W 8219  44.357  16.612  10.641
43400W        W 8220  10.169  10.388  11.958
43401W        W 8221  34.821  28.289   2.347
43402W        W 8222  31.218  41.740   3.618
43403W        W 8223  34.032  28.969   4.343
43404W        W 8224  41.586  13.193  11.461
43405W        W 8225  17.802  31.942  14.006
43406W        W 8226  24.490  17.446   2.807
43407W        W 8227  20.311   3.741   3.432
43408W        W 8228   0.706  36.900  12.886
43409W        W 8229   7.657  19.880  12.032
43410W        W 8230  24.089  13.889   2.678
43411W        W 8231  41.673  27.451  12.121
43412W        W 8232  43.070  27.718  13.568
43413W        W 8233  11.865  44.349  10.645
43414W        W 8234  23.956  17.862  12.102
43415W        W 8235  18.290  31.485   3.954
43416W        W 8236  37.494  36.126   2.726
43417W        W 8237  39.908  43.732  12.021
43418W        W 8238  40.759   1.987   2.727
43419W        W 8239  12.476  37.948  11.388
43420W        W 8240  31.002  19.706   3.684
43421W        W 8241   2.412  24.921   4.482
43422W        W 8242  33.636  14.703   1.095
43423W        W 8243  37.111   7.375   0.927
43424W        W 8244  42.514  11.803  11.953
43425W        W 8245  15.868  24.027  14.258
43426W        W 8246  17.585  20.255   4.651
43427W        W 8247   2.894  32.871  12.930
43428W        W 8248   1.574   8.387  14.536
43429W        W 8249  11.143  33.810  10.783
43430W        W 8250  12.106  15.505   2.246
43431W        W 8251  34.913  18.549   1.444
43432W        W 8252  19.171  14.335  13.458
43433W        W 8253  20.502   0.007   2.332
43434W        W 8254  31.239  44.993  11.552
43435W        W 8255   9.450  38.451  13.566
43436W        W 8256  28.665  26.993   2.253
43437W        W 8257  26.382  29.500   3.206
43438W        W 8258  37.317   8.684   0.831
43439W        W 8259   6.775   4.871  10.663
43440W        W 8260  42.568  27.834  13.567
43441W        W 8261  32.402   3.139   4.117
43442W        W 8262  11.503  42.400   4.312
43443W        W 8263  13.041  12.387  10.207
43444W        W 8264   2.703  37.668  14.933
43445W        W 8265  13.176  18.717  14.452
43446W        W 8266  28.432  15.366   3.228
43447W        W 8267  41.239  31.996   2.236
43448W        W 8268  37.976  17.516   0.182
43449W        W 8269  33.986  41.589   3.742
43450W        W 8270  11.012  21.554   1.854
43451W        W 8271  18.676   2.104   4.631
43452W        W 8272  37.390   7.163   2.448
43453W        W 8273   1.628  28.244  12.048
43454W        W 8274  40.148  40.968   3.775
43455W        W 8275  18.246  20.022  13.779
43456W        W 8276  31.096  10.645  12.145
43457W        W 8277   5.006   8.091   4.798
43458W        W 8278  44.231  16.997   3.709
43459W        W 8279  23.683  16.356   0.343
43460W        W 8280  19.227  28.403   4.641
43461W        W 8281  28.342  12.779  10.712
43462W        W 8282  31.486  34.944   3.887
43463W        W 8283  21.758  41.512  14.886
43464W        W 8284  12.304  43.698  11.081
43465W        W 8285  20.090  42.243   2.813
43466W        W 8286  17.201  23.629  14.416
43467W        W 8287  18.263  32.941  11.657
43468W        W 8288  16.558  39.865  13.915
43469W        W 8289   5.353   2.922  11.712
43470W        W 8290  30.021  28.982  10.630
43471W        W 8291  14.626   3.425   3.240
43472W        W 8292   5.844  10.481  12.566
43473W        W 8293  43.495  12.339   1.014
43474W        W 8294   1.954  17.820  11.153
43475W        W 8295  41.429  39.561   1.086
43476W        W 8296  30.579   5.808  14.454
43477W        W 8297  12.345  32.688   2.261
43478W        W 8298   4.394   9.172  10.710
43479W        W 8299  36.513  37.985  13.682
43480W        W 8300  21.478  31.051   4.189
43481W        W 8301  19.157   1.484  13.531
43482W        W 8302  27.101  36.103  14.150
43483W        W 8303   6.026   5.253   2.946
43484W        W 8304  12.237  14.632  14.292
43485W        W 8305  23.042  22.733   0.901
43486W        W 8306  19.684  14.235  13.490
43487W        W 8307  23.586   9.672   1.662
43488W        W 8308  14.525  25.579  11.566
43489W        W 8309  36.137  22.499  10.702
43490W        W 8310  25.139  37.645  12.506
43491W        W 8311  25.145  27.701   1.267
43492W        W 8312  44.034  34.390   4.117
43493W        W 8313  41.842  11.934   4.496
43494W        W 8314   7.118  22.372  10.623
43495W        W 8315  43.415  17.749   4.833
43496W        W 8316  12.165  22.235   3.881
43497W        W 8317  21.367   5.447   1.205
43498W        W 8318  13.284  10.836   4.169
43499W        W 8319  25.545  12.278   0.809
43500W        W 8320  11.005  44.996   1.419
43501W        W 8321   2.755   0.711  10.620
43502W        W 8322  32.539  43.331   3.545
43503W        W 8323  33.522  15.282  13.121
43504W        W 8324   4.673  21.590   3.449
43505W        W 8325  34.504  12.821  12.143
43506W        W 8326  30.473  21.643   0.454
43507W        W 8327  34.861  10.859   3.190
43508W        W 8328   0.920  42.372   3.654
43509W        W 8329  27.492   8.732   2.765
43510W        W 8330  26.191  19.028   0.863
43511W        W 8331  22.139  20.909  13.241
43512W        W 8332  23.097  36.770  13.987
43513W        W 8333  22.002  29.519  10.760
43514W        W 8334  25.654  18.451  10.704
43515W        W 8335  40.331  22.622  13.468
43516W        W 8336  27.439   1.718   2.356
43517W        W 8337  36.124  42.445   3.319
43518W        W 8338  37.621  43.751   0.944
43519W        W 8339  12.241  35.452   1.260
43520W        W 8340  23.666   7.753   2.959
43521W        W 8341  15.189   0.517  13.872
43522W        W 8342  10.445  42.904  12.646
43523W        W 8343  19.022  43.495  11.842
43524W        W 8344  19.246  40.448   9.845
43525W        W 8345  27.010  24.007   2.926
43526W        W 8346   0.776   2.759  13.891
43527W        W 8347   5.173  22.719  11.641
43528W        W 8348  22.924  29.078   1.566
43529W        W 8349  33.653  18.338  11.545
43530W        W 8350  40.426  43.570   0.267
43531W        W 8351  26.835  28.978  14.211
43532W        W 8352  33.434  23.169   1.845
43533W        W 8353  19.273   3.794  12.950
43534W        W 8354  13.896  42.357   0.762
43535W        W 8355  33.060  38.037   1.940
43536W        W 8356  13.278  42.787   4.113
43537W        W 8357  10.907  42.918  12.412
43538W        W 8358  13.823   4.551   1.271
43539W        W 8359   9.381  26.435   0.461
43540W        W 8360  21.804  26.130  14.361
43541W        W 8361  17.950  30.016  11.994
43542W        W 8362  39.978  42.257  10.697
43543W        W 8363  25.570  29.213  12.471
43544W        W 8364   1.806  39.114   3.616
43545W        W 8365  28.237   2.192  13.573
43546W        W 8366  31.962  18.015   3.333
43547W        W 8367   6.582  44.123  13.766
43548W        W 8368  12.473  34.910  11.939
43549W        W 8369  33.234  23.499  12.322
43550W        W 8370  20.551  15.088  10.732
43551W        W 8371  44.148  41.296  13.721
43552W        W 8372  19.133  21.305   3.600
43553W        W 8373  18.182   1.209  13.612
43554W        W 8374  24.444   7.691   0.102
43555W        W 8375  34.354  28.347  14.378
43556W        W 8376  33.579   4.731  11.531
43557W        W 8377  26.853   6.378  14.744
43558W        W 8378  27.111  41.071  12.654
43559W        W 8379  42.961  29.095  12.617
43560W        W 8380   4.782   1.988  13.863
43561W        W 8381  13.761  26.325  13.328
43562W        W 8382  15.723  43.061  10.870
43563W        W 8383   2.787  37.207   4.619
43564W        W 8384   1.322  41.050   2.711
43565W        W 8385  36.370  14.109   2.710
43566W        W 8386  22.997  22.134   4.118
43567W        W 8387  11.350  21.426  13.294
43568W        W 8388  30.768  15.129  11.894
43569W        W 8389  20.806  25.037   3.653
43570W        W 8390  25.845  44.348   0.044
43571W        W 8391  25.005   2.042   1.239
43572W        W 8392  10.135  36.894  12.040
43573W        W 8393  25.100  20.495   0.724
43574W        W 8394  26.683   4.227   0.264
43575W        W 8395   3.406  24.000  12.449
43576W        W 8396   0.402   4.895  13.878
43577W        W 8397   4.879   8.981   1.819
43578W        W 8398  41.875  43.038   3.228
43579W        W 8399  44.569  44.277  11.003
43580W        W 8400  25.673  22.586   0.244
43581W        W 8401   1.433  22.788   0.237
43582W        W 8402  12.129   6.989  12.521
43583W        W 8403  11.504  21.922  12.076
43584W        W 8404   0.356  41.028   0.348
43585W        W 8405  39.728  23.107  10.592
43586W        W 8406  42.816  29.452   2.717
43587W        W 8407   6.600   5.293   0.053
43588W        W 8408  35.958   7.824   3.620
43589W        W 8409  18.162   5.677   2.513
43590W        W 8410  13.197  31.463   0.424
43591W        W 8411   8.003  41.896   4.949
43592W        W 8412  13.706   6.809  14.912
43593W        W 8413   1.865  16.707  14.808
43594W        W 8414   6.482  36.530  11.154
43595W        W 8415  21.518  33.943  11.396
43596W        W 8416  42.367  14.063   3.370
43597W        W 8417  10.629   4.766  13.904
43598W        W 8418  42.510  10.133   2.218
43599W        W 8419  42.898  43.020  14.314
43600W        W 8420   5.353  44.265  12.973
43601W        W 8421  28.070  32.760  14.890
43602W        W 8422  24.609  29.862  11.146
43603W        W 8423  19.110  39.298   1.288
43604W        W 8424  29.764  12.345   3.774
43605W        W 8425  11.205  15.643   4.287
43606W        W 8426  42.964  41.485  12.949
43607W        W 8427  43.122  33.662   4.206
43608W        W 8428  23.510  23.711  12.030
43609W        W 8429  14.356  15.790  12.966
43610W        W 8430  40.009  21.560   2.114
43611W        W 8431   4.740  30.338   2.215
43612W        W 8432  32.777  31.574  13.065
43613W        W 8433  27.159  18.801  13.409
43614W        W 8434  31.154  16.735   1.442
43615W        W 8435  16.623  12.711   3.199
43616W        W 8436  11.947   5.881   4.821
43617W        W 8437   2.868   1.806   2.906
43618W        W 8438  17.639  39.995  12.529
43619W        W 8439   3.439  35.592   1.358
43620W        W 8440  39.525  24.198   3.068
43621W        W 8441  38.265  43.963  10.575
43622W        W 8442  32.716  33.555  12.946
43623W        W 8443  39.993  44.670   4.224
43624W        W 8444  28.472  19.846   2.398
43625W        W 8445  15.842  36.564  13.331
43626W        W 8446  29.118  15.336   2.474
43627W        W 8447  41.826  27.643  13.331
43628W        W 8448  21.202   5.382   1.691
43629W        W 8449   4.366   4.483   0.414
43630W        W 8450   5.634  30.706  11.969
43631W        W 8451  14.648  43.982   2.131
43632W        W 8452   2.160  13.765   3.215
43633W        W 8453  33.678  40.221   0.705
43634W        W 8454  29.992   1.945  11.971
43635W        W 8455  13.597   4.113   1.226
43636W        W 8456   6.631  40.608  12.946
43637W        W 8457   4.808  26.014   2.192
43638W        W 8458  10.400   6.867  14.915
43639W        W 8459  12.825  23.753   4.254
43640W        W 8460  21.264  17.265   1.379
43641W        W 8461  25.987  39.273  13.599
43642W        W 8462  44.181  26.297  10.255
43643W        W 8463   5.900  22.994   1.876
43644W        W 8464  24.423  25.199  11.578
43645W        W 8465   4.766  39.949  11.022
43646W        W 8466   0.817  10.297   0.965
43647W        W 8467  41.902  38.528  13.072
43648W        W 8468  44.758   4.408  14.229
43649W        W 8469  33.977  17.093   0.830
43650W        W 8470   4.295  38.513   1.380
43651W        W 8471  18.171  39.956   0.676
43652W        W 8472  18.747  13.594  12.557
43653W        W 8473  41.504  41.699   3.160
43654W        W 8474  18.135  25.035  11.193
43655W        W 8475   2.182  28.586   0.619
43656W        W 8476  22.113  24.246   4.317
43657W        W 8477  33.004  27.464   1.911
43658W        W 8478  26.193  13.815   0.302
43659W        W 8479  18.903  39.065   1.704
43660W        W 8480  14.836  27.624   0.254
43661W        W 8481  29.160  19.118  12.475
43662W        W 8482  10.898  31.226   0.222
43663W        W 8483   8.842  40.989  12.982
43664W        W 8484  37.806  17.471  10.006
43665W        W 8485   4.814  35.661   3.484
43666W        W 8486  30.000  19.956  14.541
43667W        W 8487  39.539  12.234  13.094
43668W        W 8488  16.079  27.453  14.754
43669W        W 8489  31.344  14.821   0.150
43670W        W 8490  17.084   8.317  12.752
43671W        W 8491  31.274  11.416  10.095
43672W        W 8492  21.109  33.975  11.745
43673W        W 8493   7.972  41.453  11.062
43674W        W 8494   4.231  19.046  13.083
43675W        W 8495  36.511   1.878  12.381
43676W        W 8496  44.467  14.099  11.912
43677W        W 8497  41.913  20.978   4.231
43678W        W 8498   6.737  23.635  11.561
43679W        W 8499  40.449  42.738   0.085
43680W        W 8500   7.725  24.824  14.554
43681W        W 8501  30.607   2.806   4.605
43682W        W 8502   7.420   7.224  11.983
43683W        W 8503  23.137  11.834  12.889
43684W        W 8504  13.713  42.464   3.625
43685W        W 8505  31.404  15.240  11.097
43686W        W 8506   0.110  19.946   4.046
43687W        W 8507   2.956  44.646   1.547
43688W        W 8508   1.853  41.091   2.021
43689W        W 8509  35.255   1.558   3.860
43690W        W 8510  30.311  35.110  13.990
43691W        W 8511  11.617   8.024  12.563
43692W        W 8512   7.708   9.132   1.441
43693W        W 8513  28.519  16.487   4.575
43694W        W 8514  43.299   3.335   0.799
43695W        W 8515   6.931  14.831   1.957
43696W        W 8516  41.481  39.874  12.137
43697W        W 8517  18.745  27.148   1.860
43698W        W 8518  30.885   0.084   4.230
43699W        W 8519   2.696   3.038   0.483
43700W        W 8520  43.317   0.306   1.864
43701W        W 8521  24.272   4.820   3.178
43702W        W 8522  20.599  14.370  11.162
43703W        W 8523   8.898  22.961  13.041
43704W        W 8524  42.735   9.849   1.846
43705W        W 8525  26.072   5.430  11.587
43706W        W 8526  14.572   0.454   3.868
43707W        W 8527  16.670  31.997   3.672
43708W        W 8528  44.221  22.187   4.603
43709W        W 8529  30.904  26.133  12.267
43710W        W 8530  27.837  28.952  14.385
43711W        W 8531  23.248  36.756   0.833
43712W        W 8532  44.782   1.513  13.359
43713W        W 8533  44.516  31.597  11.557
43714W        W 8534  30.901   1.760  13.505
43715W        W 8535  37.592  42.749   4.149
43716W        W 8536  37.442  31.910   3.680
43717W        W 8537  12.246  15.849  11.980
43718W        W 8538  11.769   7.453  14.917
43719W        W 8539   5.474  10.070   4.573
43720W        W 8540   8.329  21.119  13.075
43721W        W 8541  17.738  35.929  12.881
43722W        W 8542   0.798  15.322   0.678
43723W        W 8543   9.766  41.048  13.025
43724W        W 8544  26.178  11.064   3.354
43725W        W 8545   9.734  21.775   3.708
43726W        W 8546  13.554   5.795  13.174
43727W        W 8547   9.979   3.708  14.789
43728W        W 8548  32.100  21.547  14.859
43729W        W 8549  29.238  26.605   2.774
43730W        W 8550   7.447  12.915  12.781
43731W        W 8551  31.429  26.991  14.239
43732W        W 8552  20.508  41.426   3.936
43733W        W 8553  11.882  27.162  11.452
43734W        W 8554   6.083  24.524   0.229
43735W        W 8555  13.119  13.380  12.635
43736W        W 8556   1.910  34.725  12.163
43737W        W 8557  40.439  24.481   3.186
43738W        W 8558  22.952  38.042   4.465
43739W        W 8559  11.690  35.426  12.109
43740W        W 8560  18.592  13.532  10.743
43741W        W 8561   7.290  22.229  14.609
43742W        W 8562   7.829   0.008   4.121
43743W        W 8563  42.425  44.879  11.899
43744W        W 8564  38.326  17.196  13.427
43745W        W 8565  17.292  41.963   1.725
43746W        W 8566   9.542  38.024  12.482
43747W        W 8567  22.804   7.977   0.165
43748W        W 8568  30.629  44.719  12.911
43749W        W 8569  14.063  32.414   3.140
43750W        W 8570  11.872  14.168  10.734
43751W        W 8571  28.743  16.785   0.936
43752W        W 8572  37.368  36.658  10.665
43753W        W 8573  25.973  15.204  13.984
43754W        W 8574  10.819  11.713   0.477
43755W        W 8575   2.829   2.859   4.612
43756W        W 8576  17.544  20.567  11.121
43757W        W 8577  43.404   7.465  11.671
43758W        W 8578  26.777  21.477  14.386
43759W        W 8579   1.396  20.816   1.387
43760W        W 8580  23.954   2.168   3.293
43761W        W 8581   2.407  22.168   1.481
43762W        W 8582  12.513  34.100  11.311
43763W        W 8583  17.195  43.027  11.565
43764W        W 8584   2.248   7.199   1.843
43765W        W 8585  24.988   8.993   1.755
43766W        W 8586  38.568  43.106   2.919
43767W        W 8587  17.999  19.479   2.235
43768W        W 8588  25.491  13.737   2.510
43769W        W 8589   7.415  13.706  10.730
43770W        W 8590  33.440  42.363  14.772
43771W        W 8591  20.302  13.262  11.119
43772W        W 8592   9.858   2.653  11.013
43773W        W 8593  18.024  42.322  13.032
43774W        W 8594  23.080   3.528  10.910
43775W        W 8595  20.249   3.016  11.088
43776W        W 8596  11.255  24.643  14.998
43777W        W 8597  18.098  32.387  11.561
43778W        W 8598  41.044  10.567  13.718
43779W        W 8599  17.692  35.007   3.936
43780W        W 8600   8.113  26.239   3.778
43781W        W 8601  19.604  12.148   2.234
43782W        W 8602   1.297  33.450  10.835
43783W        W 8603  40.358  37.463  14.001
43784W        W 8604  21.363  44.816  12.100
43785W        W 8605  44.399  25.085  10.906
43786W        W 8606  36.703  21.563   0.994
43787W        W 8607  19.433  26.394  10.566
43788W        W 8608  22.036  19.882  11.667
43789W        W 8609  44.444  36.580   0.808
43790W        W 8610  24.996  22.678  14.849
43791W        W 8611  19.799  13.454   1.776
43792W        W 8612  21.066  32.038   9.943
43793W        W 8613   3.139  40.088   2.741
43794W        W 8614  33.056  37.051   1.210
43795W        W 8615   5.952  40.250  13.912
43796W        W 8616  21.643  28.417   2.833
43797W        W 8617  35.652  14.597  10.766
43798W        W 8618  35.448  27.172  10.363
43799W        W 8619  21.253  16.275  13.305
43800W        W 8620  24.438   7.318   1.473
43801W        W 8621  37.192   2.686   1.420
43802W        W 8622  35.855  28.007  12.779
43803W        W 8623  19.572  27.996   4.611
43804W        W 8624  20.763  16.073   3.787
43805W        W 8625  16.695  21.446   0.008
43806W        W 8626  38.974  39.070  10.807
43807W        W 8627  43.783   8.284  12.170
43808W        W 8628  39.856  21.319   3.074
43809W        W 8629   2.241  11.395   1.297
43810W        W 8630  16.560   0.365  14.819
43811W        W 8631   9.728  25.866  10.702
43812W        W 8632  22.570  16.560  12.418
43813W        W 8633  22.324   9.511   2.746
43814W        W 8634   7.630   4.215   1.946
43815W        W 8635  21.084  30.125   3.869
43816W        W 8636   8.911  14.462  14.537
43817W        W 8637  26.003  24.763   3.589
43818W        W 8638  23.439  10.795   0.285
43819W        W 8639   7.218  44.182   4.619
43820W        W 8640  20.272  29.331   5.076
43821W        W 8641  10.649   3.437   1.227
43822W        W 8642  31.105   2.716  14.275
43823W        W 8643  10.395  14.775  13.040
43824W        W 8644   7.416  44.503   4.264
43825W        W 8645  36.337  27.598   0.292
43826W        W 8646  17.851  15.450  14.736
43827W        W 8647  16.990  33.108  12.015
43828W        W 8648  10.725   3.745   0.314
43829W        W 8649  17.202  33.350  11.603
43830W        W 8650  28.654  36.131   0.875
43831W        W 8651  29.420  31.500   2.256
43832W        W 8652  43.480  33.670   4.577
43833W        W 8653  22.659  38.539   2.771
43834W        W 8654  13.741  33.117   4.110
43835W        W 8655   7.417   3.967   3.219
43836W        W 8656  31.354   7.498   0.695
43837W        W 8657  20.297  11.801   3.945
43838W        W 8658  26.015  12.858   0.260
43839W        W 8659  24.586  15.140  13.388
43840W        W 8660  29.718   2.701  14.376
43841W        W 8661  36.600  34.899  13.172
43842W        W 8662  40.868  27.173  12.934
43843W        W 8663   8.914  14.339  11.583
43844W        W 8664   9.417  24.829   0.108
43845W        W 8665  42.525  43.397  13.827
43846W        W 8666  31.040  22.097  13.378
43847W        W 8667   5.623  16.763  11.038
43848W        W 8668  24.512  24.556  14.097
43849W        W 8669  15.615   0.754  12.540
43850W        W 8670  13.333  25.032   0.787
43851W        W 8671   9.270  11.123  14.022
43852W        W 8672  13.781   7.229   0.861
43853W        W 8673   1.290  20.650  11.365
43854W        W 8674   9.098  40.416   3.397
43855W        W 8675  39.061  39.035   2.649
43856W        W 8676   7.161  36.914  10.622
43857W        W 8677  29.105   9.316  12.083
43858W        W 8678  15.953   1.901   4.655
43859W        W 8679  20.883  23.665   4.810
43860W        W 8680   3.492  15.053   2.972
43861W        W 8681   0.322  38.576  11.202
43862W        W 8682  10.681  34.812  12.514
43863W        W 8683  20.084  43.504  13.809
43864W        W 8684  16.118   6.964   3.678
43865W        W 8685  11.656  14.683  10.074
43866W        W 8686   7.703   3.142   4.591
43867W        W 8687  10.308  43.895  14.305
43868W        W 8688  33.796  37.499   0.850
43869W        W 8689  13.671   5.128   4.543
43870W        W 8690   7.881  37.895   4.304
43871W        W 8691  23.991   8.397   2.119
43872W        W 8692  13.457  29.949  12.609
43873W        W 8693  22.646  37.824   0.137
43874W        W 8694  39.583   5.072  13.276
43875W        W 8695  40.999   2.790  10.724
43876W        W 8696  39.501  41.029   1.412
43877W        W 8697  25.793  26.144   4.213
43878W        W 8698   7.827  19.393   1.699
43879W        W 8699  11.997  18.795  11.574
43880W        W 8700  37.002  20.458  11.579
43881W        W 8701  22.165  42.504   3.220
43882W        W 8702   5.518  38.923   1.940
43883W        W 8703  42.748   3.474   0.441
43884W        W 8704  26.163   1.377  14.311
43885W        W 8705  25.044   5.336   2.211
43886W        W 8706  11.309  17.752  14.085
43887W        W 8707  15.094  20.116  14.167
43888W        W 8708  39.607  42.842   3.179
43889W        W 8709  32.676  16.321   0.860
43890W        W 8710  37.858  24.738  12.424
43891W        W 8711  14.716  36.839  14.010
43892W        W 8712  32.772  23.211  12.470
43893W        W 8713  18.527   7.387  12.312
43894W        W 8714   2.652  31.840   0.946
43895W        W 8715  41.489  41.984   3.670
43896W        W 8716  13.409  20.076  11.082
43897W        W 8717  19.397  14.754   1.237
43898W        W 8718  32.105  18.110  11.316
43899W        W 8719  39.424  24.532  11.070
43900W        W 8720   9.438  30.532  14.943
43901W        W 8721   8.975  26.487   3.811
43902W        W 8722   2.666  14.601  14.100
43903W        W 8723  32.560  34.849   2.760
43904W        W 8724  26.959  26.886   0.379
43905W        W 8725  29.515  25.529  12.429
43906W        W 8726  23.275   0.863   3.257
43907W        W 8727  20.503   8.429   1.789
43908W        W 8728   8.906   8.696  12.841
43909W        W 8729   6.463  23.930  13.461
43910W        W 8730  25.889  11.240  14.792
43911W        W 8731  26.722  25.278   2.042
43912W        W 8732  39.035  37.915   3.045
43913W        W 8733   4.975   3.674   2.279
43914W        W 8734  42.784  34.659  13.767
43915W        W 8735  23.036  15.374   0.857
43916W        W 8736  21.240   0.522  11.469
43917W        W 8737  14.001  35.895  12.617
43918W        W 8738  19.458  17.704   3.509
43919W        W 8739  30.208  13.230  10.637
43920W        W 8740  35.301  18.098   2.811
43921W        W 8741  40.014  44.370   0.762
43922W        W 8742  13.171   4.452  13.558
43923W        W 8743   3.688  23.566  13.422
43924W        W 8744  36.186  26.989  11.979
43925W        W 8745  38.770  23.203  12.576
43926W        W 8746  33.012  35.976   3.261
43927W        W 8747   5.665  21.078  12.392
43928W        W 8748  15.870   3.836   1.840
43929W        W 8749   9.171  24.604   5.064
43930W        W 8750  17.612  15.861  14.958
43931W        W 8751  30.461  18.611   3.413
43932W        W 8752  32.488  40.748   2.873
43933W        W 8753  13.057   9.373   0.226
43934W        W 8754  14.149   1.836  10.760
43935W        W 8755  13.322  30.127   1.408
43936W        W 8756  29.231   4.083   4.433
43937W        W 8757  42.100  28.092   1.762
43938W        W 8758   7.465  26.851  13.341
43939W        W 8759  29.504  29.737   1.291
43940W        W 8760  43.886  38.318  12.246
43941W        W 8761  38.509  15.814  10.667
43942W        W 8762  25.568  43.359   4.858
43943W        W 8763  23.097   9.430  13.957
43944W        W 8764   6.178  12.116  11.590
43945W        W 8765  25.749  21.177  13.821
43946W        W 8766  31.368  38.983  10.816
43947W        W 8767   5.907  27.762  11.113
43948W        W 8768  15.647  21.537  13.552
43949W        W 8769  17.894  41.302  12.972
43950W        W 8770   8.736  34.843  14.760
43951W        W 8771  10.218   9.617   2.988
43952W        W 8772  15.826  24.384  12.564
43953W        W 8773  22.930  30.499   1.405
43954W        W 8774  38.296   2.014   0.546
43955W        W 8775   9.071  42.975   4.600
43956W        W 8776   5.414  31.063  11.160
43957W        W 8777   4.468  20.894  14.942
43958W        W 8778   6.246   5.802  10.904
43959W        W 8779  33.694  16.325  14.898
43960W        W 8780  25.773  17.178   2.275
43961W        W 8781  16.283   3.909   3.602
43962W        W 8782  36.437  44.004   2.692
43963W        W 8783  24.189   5.812  11.173
43964W        W 8784  36.926  22.286  10.279
43965W        W 8785  42.959  36.912  12.192
43966W        W 8786   2.321  12.644  10.319
43967W        W 8787  41.245   1.763  13.528
43968W        W 8788  23.068  28.991  10.949
43969W        W 8789  42.231  10.235  11.627
43970W        W 8790  21.192  12.406   2.389
43971W        W 8791   0.549  33.881   2.614
43972W        W 8792  29.593  33.093  12.922
43973W        W 8793   3.438   0.201   4.508
43974W        W 8794  20.784  27.621  14.815
43975W        W 8795  13.246   7.732   0.417
43976W        W 8796  17.051  34.928  14.261
43977W        W 8797   7.407  18.313  13.722
43978W        W 8798  30.618   7.565  11.359
43979W        W 8799  11.343  16.351   1.387
43980W        W 8800  16.392  30.377   0.345
43981W        W 8801   1.843  38.376   2.240
43982W        W 8802  44.440  27.626  12.427
43983W        W 8803  29.863  42.898  10.672
43984W        W 8804   6.890  13.124  11.417
43985W        W 8805  37.434  31.970   0.718
43986W        W 8806  22.105  40.497   3.427
43987W        W 8807  42.377  24.654   4.851
43988W        W 8808  38.580  24.026   2.494
43989W        W 8809   2.723  32.931   1.767
43990W        W 8810  33.231  38.907   4.693
43991W        W 8811  20.133  28.051  11.216
43992W        W 8812   6.873  41.308  10.285
43993W        W 8813  10.410  34.260   0.011
43994W        W 8814  33.130  14.813   4.025
43995W        W 8815  10.412  42.076   1.356
43996W        W 8816  11.790  37.563  13.747
43997W        W 8817  14.994  10.196   2.696
43998W        W 8818  30.128  23.748   0.244
43999W        W 8819  18.168  12.154   3.090
44000W        W 8820   7.808  27.160  11.057
44001W        W 8821  10.666  20.222   0.892
44002W        W 8822  13.400  27.528  12.953
44003W        W 8823  15.573  19.125   2.931
44004W        W 8824  33.099  14.155   1.210
44005W        W 8825  10.148  29.349   1.544
44006W        W 8826  16.674  43.442   2.616
44007W        W 8827  24.077  31.725  14.617
44008W        W 8828   6.355  31.101   4.697
44009W        W 8829  32.143   8.240  12.964
44010W        W 8830  20.799  29.046  10.038
44011W        W 8831  13.693  33.424  12.521
44012W        W 8832  27.717  43.205  12.106
44013W        W 8833  37.536  14.358   0.434
44014W        W 8834  28.605  21.278  13.159
44015W        W 8835  37.096   8.082   3.722
44016W        W 8836  39.881   7.385   0.340
44017W        W 8837  41.380  18.723  11.344
44018W        W 8838  17.734  26.442  10.752
44019W        W 8839   8.027  42.237  14.374
44020W        W 8840  41.479  10.229  12.140
44021W        W 8841  28.423   9.129  13.302
44022W        W 8842   1.282  41.181  14.621
44023W        W 8843  41.140  29.632  13.966
44024W        W 8844  26.291  30.429  10.964
44025W        W 8845   7.921  12.576  12.918
44026W        W 8846  33.950  12.294   4.705
44027W        W 8847   1.080  43.019   4.885
44028W        W 8848  44.843  35.464   0.175
44029W        W 8849  10.740  11.597   1.813
44030W        W 8850  17.169   8.682  14.945
44031W        W 8851  14.731  28.135   2.786
44032W        W 8852  17.773  36.861   1.440
44033W        W 8853   9.755  19.089  13.769
44034W        W 8854  41.000   9.727   0.704
44035W        W 8855  19.536  34.028   2.405
44036W        W 8856   9.099  21.001  12.379
44037W        W 8857   2.371  10.386   2.733
44038W        W 8858  38.353   2.476   0.713
44039W        W 8859  35.535  13.410   0.313
44040W        W 8860   1.942  18.170  12.468
44041W        W 8861  23.484   5.662   3.768
44042W        W 8862  19.557   2.722   3.363
44043W        W 8863  18.366  31.589   2.328
44044W        W 8864  20.565  10.647   2.355
44045W        W 8865  42.743  16.013   0.432
44046W        W 8866  44.435  19.101   2.508
44047W        W 8867  16.734  25.799   0.282
44048W        W 8868  39.634  19.753   1.392
44049W        W 8869  14.301  36.397   2.411
44050W        W 8870  35.464  18.083   1.696
44051W        W 8871  39.410   0.946   2.170
44052W        W 8872   9.930   3.451  12.991
44053W        W 8873  16.691  24.912   3.643
44054W        W 8874  14.601  26.104  11.154
44055W        W 8875  15.047  33.394  12.173
44056W        W 8876  21.511  33.476  10.247
44057W        W 8877  10.106  13.209  11.075
44058W        W 8878  35.580  36.849  11.587
44059W        W 8879  14.720  20.268  13.263
44060W        W 8880  41.638  35.133  11.422
44061W        W 8881  22.855  13.160   3.868
44062W        W 8882  13.814  22.532  13.969
44063W        W 8883  38.858  26.127  13.548
44064W        W 8884  33.928  26.008  13.923
44065W        W 8885   6.355  19.101  12.354
44066W        W 8886  25.183  23.584  14.453
44067W        W 8887  11.311  32.444   0.952
44068W        W 8888   0.288   4.346  13.403
44069W        W 8889  14.688  39.447  14.439
44070W        W 8890  35.145  27.243   2.223
44071W        W 8891  43.921   0.632  11.197
44072W        W 8892  29.551  12.395  12.002
44073W        W 8893  14.611  33.940  13.809
44074W        W 8894  27.874  22.384  12.942
44075W        W 8895  16.917  19.034  12.405
44076W        W 8896  34.456  23.691  14.041
44077W        W 8897  29.071  24.414   3.385
44078W        W 8898  15.718  22.138  14.242
44079W        W 8899  39.816   4.017   4.620
44080W        W 8900   7.744   9.234  12.644
44081W        W 8901  41.988  26.995  12.094
44082W        W 8902  11.367   6.472   4.429
44083W        W 8903  29.187   5.128  12.024
44084W        W 8904   9.775  37.844  13.096
44085W        W 8905   0.777  30.430   4.083
44086W        W 8906   1.596  15.571   4.624
44087W        W 8907  26.470   0.843  13.010
44088W        W 8908  31.508   7.619  13.627
44089W        W 8909  40.970  30.457  11.222
44090W        W 8910  39.468  41.440  14.076
44091W        W 8911   1.497  40.726  14.825
44092W        W 8912  42.943   6.389   4.152
44093W        W 8913  41.323  22.654   0.464
44094W        W 8914  25.192  41.519  11.917
44095W        W 8915  22.487  33.343   1.226
44096W        W 8916  42.431  24.281   0.976
44097W        W 8917   4.733   4.931  11.540
44098W        W 8918  33.953  32.019   0.217
44099W        W 8919  40.979  44.819  11.970
44100W        W 8920   6.304  29.965   3.799
44101W        W 8921  43.385   5.310   2.672
44102W        W 8922   7.413   7.863   1.273
44103W        W 8923  12.827  16.305  13.472
44104W        W 8924  31.473  18.551   4.046
44105W        W 8925   2.341   2.798  13.254
44106W        W 8926  23.240   1.469   4.572
44107W        W 8927   3.343  22.589   4.146
44108W        W 8928  19.343  17.602   2.663
44109W        W 8929   3.937  29.046  13.949
44110W        W 8930  36.814  10.134   0.857
44111W        W 8931  19.139  25.652  12.212
44112W        W 8932  44.982   6.394   2.696
44113W        W 8933  23.613  38.833   0.350
44114W        W 8934  34.702  17.260   2.259
44115W        W 8935   9.173  21.094   3.192
44116W        W 8936  17.774   4.862  11.475
44117W        W 8937  32.479  41.190   3.678
44118W        W 8938   6.929   1.776  11.158
44119W        W 8939  26.426  41.329   3.938
44120W        W 8940  31.719  12.899   1.846
44121W        W 8941   9.601   5.797   1.271
44122W        W 8942   8.212  33.171   2.131
44123W        W 8943  15.064  26.048   1.281
44124W        W 8944  33.323  20.313   3.843
44125W        W 8945  29.413  21.578  13.034
44126W        W 8946  36.916  12.580  11.954
44127W        W 8947   1.485  12.296   3.628
44128W        W 8948  37.465  44.711   0.634
44129W        W 8949  36.367  35.866   0.107
44130W        W 8950  21.784  38.936  14.269
44131W        W 8951  12.272  22.984   1.699
44132W        W 8952  29.039  40.207  12.039
44133W        W 8953  40.913  39.611  12.088
44134W        W 8954  19.694  31.047   3.271
44135W        W 8955  38.842  23.451   4.259
44136W        W 8956  38.085  31.973  14.456
44137W        W 8957  39.677   8.847   4.580
44138W        W 8958  25.531  27.006   4.763
44139W        W 8959   8.290  22.420  11.745
44140W        W 8960  13.739  34.198  12.007
44141W        W 8961   9.088  29.886  14.405
44142W        W 8962  32.341  27.941   0.762
44143W        W 8963  26.718  19.794   1.315
44144W        W 8964  30.112  37.162   2.788
44145W        W 8965  29.254  40.134  11.597
44146W        W 8966  30.437  18.686  10.567
44147W        W 8967   0.258  36.822  14.416
44148W        W 8968  27.371  32.451  12.544
44149W        W 8969  34.926  24.984  12.894
44150W        W 8970  42.736  28.514   4.095
44151W        W 8971   3.916  33.432  14.876
44152W        W 8972  15.168   3.514  12.085
44153W        W 8973   8.965  34.937   4.328
44154W        W 8974  35.127  26.546   0.300
44155W        W 8975  35.718  18.581  13.069
44156W        W 8976  29.637  43.986   3.180
44157W        W 8977   0.737   5.308   2.609
44158W        W 8978  44.269  34.379  14.403
44159W        W 8979   9.390   0.450  14.500
44160W        W 8980  24.150  24.794  12.428
44161W        W 8981   9.407  41.442  10.694
44162W        W 8982  26.215  23.195  11.070
44163W        W 8983  24.834   4.456   0.490
44164W        W 8984   9.751  27.027   5.082
44165W        W 8985  31.433  24.957   2.557
44166W        W 8986  11.102  13.403   4.252
44167W        W 8987  36.121  39.875   0.788
44168W        W 8988   8.187  29.119   4.198
44169W        W 8989  17.872  32.975   0.890
44170W        W 8990  29.140  21.490   3.736
44171W        W 8991   2.841  26.763  13.490
44172W        W 8992  40.051  24.246  12.965
44173W        W 8993  15.094  11.105  12.506
44174W        W 8994   4.421   3.774   4.468
44175W        W 8995   0.607   7.228   0.407
44176W        W 8996  21.211  20.014  10.680
44177W        W 8997  13.177  23.105   2.460
44178W        W 8998  29.380  27.439  13.956
44179W        W 8999   4.642  38.302   2.763
44180W        W 9000  31.925  42.685   2.937
44181W        W 9001  43.926  33.054   0.706
44182W        W 9002   7.689  23.492   1.402
44183W        W 9003  31.629  31.117   3.747
44184W        W 9004  23.451  19.302  11.595
44185W        W 9005  30.495  44.463  11.679
44186W        W 9006   0.451  13.740  12.911
44187W        W 9007  21.051  42.374  13.840
44188W        W 9008  18.615  36.283  14.832
44189W        W 9009  42.936  25.715   5.046
44190W        W 9010  34.562  43.780   2.196
44191W        W 9011  29.753  16.611   4.177
44192W        W 9012   8.850  23.966  13.627
44193W        W 9013  32.288   8.825   3.060
44194W        W 9014   0.329   1.453   1.255
44195W        W 9015  24.896  18.892   3.125
44196W        W 9016   6.752  26.158   2.931
44197W        W 9017  24.122  44.046   2.655
44198W        W 9018  21.538  31.352  12.512
44199W        W 9019  23.902  35.345  11.167
44200W        W 9020  18.667   9.819   1.013
44201W        W 9021  23.898  31.119  13.790
44202W        W 9022  27.641  29.568   0.232
44203W        W 9023  20.791  37.901  12.588
44204W        W 9024   5.146  35.152  11.018
44205W        W 9025  31.007  12.320   4.437
44206W        W 9026  32.548  18.783  11.541
44207W        W 9027  13.760  16.865   3.909
44208W        W 9028  38.099  26.582   3.203
44209W        W 9029  28.693  38.703   1.825
44210W        W 9030  13.834  35.900   3.344
44211W        W 9031   2.512  30.468   2.830
44212W        W 9032   3.023  29.058   3.348
44213W        W 9033   0.755  21.106  11.716
44214W        W 9034  14.018  44.426   3.697
44215W        W 9035  22.616   6.820   0.145
44216W        W 9036   2.404  37.616  10.739
44217W        W 9037  26.653  43.774   0.766
44218W        W 9038  28.662  44.789  10.689
44219W        W 9039   4.568  36.056   0.453
44220W        W 9040  30.020  26.269  12.409
44221W        W 9041  27.667   7.261   4.583
44222W        W 9042  21.156  44.257  10.627
44223W        W 9043   8.308  44.857   4.375
44224W        W 9044  35.585   8.371  14.423
44225W        W 9045   5.001  34.906   3.082
44226W        W 9046   8.465  25.200  12.070
44227W        W 9047   2.805  35.078   1.938
44228W        W 9048  26.089  31.833   1.592
44229W        W 9049  17.561  14.281   0.434
44230W        W 9050   6.953  35.531   4.070
44231W        W 9051  39.416   3.705   3.734
44232W        W 9052  30.482  42.279  12.585
44233W        W 9053  36.335  19.081   0.684
44234W        W 9054   1.017  31.877   3.618
44235W        W 9055  17.101  25.405  11.186
44236W        W 9056  33.970  15.052  11.824
44237W        W 9057  20.988  36.858  12.947
44238W        W 9058  13.135  33.585  11.680
44239W        W 9059  13.745   0.600   4.155
44240W        W 9060   5.272  23.411  12.436
44241W        W 9061  20.283  29.125  14.305
44242W        W 9062  20.680   2.040   1.486
44243W        W 9063  30.733  10.521  14.826
44244W        W 9064   9.956   6.696  14.280
44245W        W 9065  36.433   0.935   2.670
44246W        W 9066  18.887  25.494   1.714
44247W        W 9067  24.645  15.449   1.251
44248W        W 9068  27.501  17.668   2.611
44249W        W 9069  41.590  22.291  14.429
44250W        W 9070  17.759  34.571  11.706
44251W        W 9071  39.389   2.248   3.496
44252W        W 9072   4.775  25.680  10.516
44253W        W 9073  22.098  39.806  14.761
44254W        W 9074  10.138  28.002  12.089
44255W        W 9075  17.022  32.752  14.007
44256W        W 9076   8.426  16.709  13.801
44257W        W 9077   7.762  29.378  13.005
44258W        W 9078  38.409   3.039   4.249
44259W        W 9079  14.517  38.295   1.857
44260W        W 9080  30.537  15.642   1.566
44261W        W 9081  17.980  36.856  12.074
44262W        W 9082   0.366  43.475  13.479
44263W        W 9083  24.664  35.123  12.094
44264W        W 9084  38.078  10.866  12.563
44265W        W 9085  43.178  32.970  13.999
44266W        W 9086  38.138  29.023   4.233
44267W        W 9087  17.368  26.251   0.678
44268W        W 9088   9.968  37.008   3.675
44269W        W 9089  17.536   3.668  12.949
44270W        W 9090   3.277  13.235   0.256
44271W        W 9091   0.392  27.684  14.255
44272W        W 9092   9.124  12.829  13.547
44273W        W 9093  41.969  24.442   0.305
44274W        W 9094  17.278   2.157   2.373
44275W        W 9095  25.749  42.368   2.252
44276W        W 9096  13.689  24.529  11.567
44277W        W 9097  17.244  43.687   3.727
44278W        W 9098  39.169  13.329  14.694
44279W        W 9099  36.465  15.992  12.025
44280W        W 9100  22.245  31.471  12.748
44281W        W 9101  38.111   5.350   4.211
44282W        W 9102  17.793   6.735  13.899
44283W        W 9103  36.577  19.461   0.950
44284W        W 9104  43.920  34.174   0.776
44285W        W 9105   1.160  28.504   4.984
44286W        W 9106  44.336  44.309   4.587
44287W        W 9107  40.391  22.553   4.109
44288W        W 9108  28.552  44.269   2.450
44289W        W 9109  13.951  29.850  12.692
44290W        W 9110  27.013  38.065  10.248
44291W        W 9111  31.202  43.082  10.161
44292W        W 9112  14.799   9.230   0.941
44293W        W 9113  31.421  31.070   4.591
44294W        W 9114  34.928  38.852   5.109
44295W        W 9115  38.273  12.192   2.256
44296W        W 9116  12.497  43.440   3.248
44297W        W 9117   7.336  11.016  12.377
44298W        W 9118  44.898  31.344  13.726
44299W        W 9119  29.936  39.006   4.644
44300W        W 9120  31.487  27.715   0.851
44301W        W 9121   4.431   0.935   4.423
44302W        W 9122  39.099  44.143   1.391
44303W        W 9123  37.084  24.794   2.705
44304W        W 9124  39.047  19.981   3.304
44305W        W 9125  28.162  19.917  13.041
44306W        W 9126  15.620  28.125   0.300
44307W        W 9127  28.867   2.045  13.813
44308W        W 9128  30.797  17.992  10.291
44309W        W 9129  38.429   7.874  10.640
44310W        W 9130  43.508  42.791  13.127
44311W        W 9131   3.310   8.109   2.269
44312W        W 9132  13.692   9.340  10.852
44313W        W 9133  21.275  29.298   2.805
44314W        W 9134  23.671  34.152  11.574
44315W        W 9135   6.157  22.291   4.125
44316W        W 9136  30.683  34.900   2.682
44317W        W 9137  14.251   1.746  12.016
44318W        W 9138  32.184  28.553  11.950
44319W        W 9139  42.407   0.698   2.810
44320W        W 9140  40.790  16.296  12.174
44321W        W 9141  12.612  24.971  13.878
44322W        W 9142  35.969  42.050  10.736
44323W        W 9143   6.301   6.502  13.449
44324W        W 9144  42.874  44.811   4.680
44325W        W 9145  29.402  17.642   2.684
44326W        W 9146   0.855  23.474   4.069
44327W        W 9147  37.053  29.502  13.937
44328W        W 9148   1.813  24.673   0.837
44329W        W 9149   0.678  41.028  12.077
44330W        W 9150   2.723  12.161   4.376
44331W        W 9151   5.743  15.063  12.527
44332W        W 9152   6.805   6.720   3.259
44333W        W 9153   4.728  10.485   1.505
44334W        W 9154  36.028  24.976  12.363
44335W        W 9155  29.736  37.785  10.687
44336W        W 9156  12.060  26.424  11.650
44337W        W 9157   7.856  20.217  10.754
44338W        W 9158  15.127  16.322   5.489
44339W        W 9159  43.017  13.610   1.765
44340W        W 9160   3.383  29.453   2.683
44341W        W 9161  32.569   6.339   3.630
44342W        W 9162  23.495   6.355   4.313
44343W        W 9163  15.807  44.942  12.419
44344W        W 9164  20.135  30.109   2.873
44345W        W 9165  38.981   0.240  14.619
44346W        W 9166  32.143  26.057   4.676
44347W        W 9167  14.117   5.334   2.218
44348W        W 9168  31.472  24.262  12.908
44349W        W 9169  36.385  19.884   5.218
44350W        W 9170  24.556  35.077  11.583
44351W        W 9171   4.682   2.267  11.997
44352W        W 9172  44.926  41.435  11.672
44353W        W 9173  30.117  33.547   2.245
44354W        W 9174  34.068  17.679   1.752
44355W        W 9175  36.032   7.746   1.285
44356W        W 9176  37.336   3.647   3.797
44357W        W 9177   5.451  23.705  13.392
44358W        W 9178   0.452   5.388  14.029
44359W        W 9179  26.007  26.885  14.298
44360W        W 9180  40.547  35.759  11.689
44361W        W 9181  20.677   0.796  12.924
44362W        W 9182   4.910  44.827  12.254
44363W        W 9183  24.991  28.079   2.213
44364W        W 9184  10.302  39.781   1.160
44365W        W 9185   2.747  37.641   4.946
44366W        W 9186  10.666  10.582  11.522
44367W        W 9187  41.220  35.932  14.960
44368W        W 9188  32.617  27.480  10.418
44369W        W 9189  15.794  41.155   9.654
44370W        W 9190  39.494  16.650   4.662
44371W        W 9191  34.540   1.539   1.722
44372W        W 9192  28.483  14.072   2.798
44373W        W 9193  14.762  14.559   0.344
44374W        W 9194  13.057  38.041  12.599
44375W        W 9195  19.951   1.976   0.322
44376W        W 9196  13.309  22.397  10.810
44377W        W 9197   2.345  44.011   0.419
44378W        W 9198   6.003   2.122   2.742
44379W        W 9199  36.246  39.790  13.427
44380W        W 9200  25.252  22.461  12.420
44381W        W 9201   1.702   3.395   1.626
44382W        W 9202  41.402  26.948   4.247
44383W        W 9203  23.661  14.015  12.555
44384W        W 9204  30.710  38.618   3.840
44385W        W 9205  40.703  39.422   0.270
44386W        W 9206  40.860   1.261  12.139
44387W        W 9207  34.921  24.637   0.042
44388W        W 9208   1.148  40.384   0.471
44389W        W 9209   9.182  38.403  12.608
44390W        W 9210  17.054   8.765  11.666
44391W        W 9211  38.388   9.733   0.747
44392W        W 9212  28.058  17.786  14.858
44393W        W 9213  12.704   9.319  13.402
44394W        W 9214  34.646  28.944  12.545
44395W        W 9215  22.228   4.608  13.574
44396W        W 9216  21.566  12.901  10.213
44397W        W 9217  42.284  30.256  12.199
44398W        W 9218  43.083  13.980   4.086
44399W        W 9219  16.981  27.929   1.744
44400W        W 9220  35.467  19.976   4.672
44401W        W 9221  24.768  27.574   3.122
44402W        W 9222  33.215  44.000  10.019
44403W        W 9223   4.204  23.471  13.852
44404W        W 9224  17.657  36.787  11.262
44405W        W 9225  43.932  22.905  14.470
44406W        W 9226  15.189  24.950   1.914
44407W        W 9227  38.899  20.146   1.696
44408W        W 9228   9.503  11.429  11.161
44409W        W 9229  30.458  23.112   4.760
44410W        W 9230  33.540   5.435   1.744
44411W        W 9231   0.116  27.484   1.771
44412W        W 9232  44.888   7.461   2.102
44413W        W 9233  15.450  43.565  14.550
44414W        W 9234  17.517  39.117  11.639
44415W        W 9235  40.149  31.004   4.170
44416W        W 9236  25.730  13.137   0.929
44417W        W 9237  41.409  19.256  11.217
44418W        W 9238  13.268  37.237  12.435
44419W        W 9239  10.405  43.064  10.643
44420W        W 9240  34.468  27.951  11.098
44421W        W 9241  42.051   1.738  12.486
44422W        W 9242  24.742   0.065   2.329
44423W        W 9243  16.826  21.772   3.185
44424W        W 9244  29.636  44.756  13.430
44425W        W 9245  28.188  12.895   2.323
44426W        W 9246   4.813  10.934  14.510
44427W        W 9247   2.005  37.235   1.559
44428W        W 9248   4.705  33.019  10.350
44429W        W 9249  16.592  28.854   0.840
44430W        W 9250  14.978  30.690   0.771
44431W        W 9251  18.907  43.562   2.755
44432W        W 9252   7.715  39.936   1.149
44433W        W 9253  31.171  31.912   2.854
44434W        W 9254  42.483   3.664  11.978
44435W        W 9255  41.977  32.593  11.078
44436W        W 9256  19.270  25.834   3.416
44437W        W 9257  39.174  23.830   3.246
44438W        W 9258   2.304  35.582  13.336
44439W        W 9259  38.934  29.962   2.035
44440W        W 9260  44.767   8.134   0.218
44441W        W 9261   1.796  18.054  13.514
44442W        W 9262  25.018  13.555   0.353
44443W        W 9263  23.599  21.183   4.376
44444W        W 9264  39.359  13.355  14.215
44445W        W 9265  26.722  32.936   0.033
44446W        W 9266   7.643  17.346   1.508
44447W        W 9267  24.562   2.141   1.801
44448W        W 9268  25.261  44.495   1.334
44449W        W 9269  21.327  32.587   1.188
44450W        W 9270   1.836  14.109  13.757
44451W        W 9271  32.900  20.088  13.608
44452W        W 9272   7.693  23.499   4.312
44453W        W 9273  18.202  27.568  11.205
44454W        W 9274  24.089  22.062   3.764
44455W        W 9275   1.235  20.966   0.749
44456W        W 9276  14.826  26.802  11.843
44457W        W 9277  30.545  15.669   2.367
44458W        W 9278   2.359   6.057  14.786
44459W        W 9279  39.599  20.418  12.506
44460W        W 9280  41.033  22.630  10.909
44461W        W 9281  40.017  12.916  14.255
44462W        W 9282  28.598  41.925   1.858
44463W        W 9283  24.783   3.404   3.642
44464W        W 9284   1.980  25.866   1.457
44465W        W 9285  21.674  12.878   0.598
44466W        W 9286   0.802  41.463  11.533
44467W        W 9287   9.708  35.091  10.985
44468W        W 9288  15.816   0.793  12.079
44469W        W 9289  34.522  43.717  12.474
44470W        W 9290  27.810  21.414   3.362
44471W        W 9291  12.420  26.325   1.523
44472W        W 9292  24.960  29.671   1.835
44473W        W 9293  24.341  39.555   2.484
44474W        W 9294  26.214  20.247  14.518
44475W        W 9295  31.415  43.978   1.916
44476W        W 9296   9.285  32.530   1.806
44477W        W 9297  29.163  26.382   0.815
44478W        W 9298  11.173  34.916  11.801
44479W        W 9299  15.722  21.358  11.516
44480W        W 9300  13.290  41.028  14.336
44481W        W 9301  39.535  26.402  11.812
44482W        W 9302  28.128  10.229  13.124
44483W        W 9303  38.468  14.155  11.530
44484W        W 9304   8.939  43.828   2.018
44485W        W 9305  12.207  18.665   2.313
44486W        W 9306  33.091  27.453  13.478
44487W        W 9307  41.510  16.576  11.946
44488W        W 9308   9.846  42.520  11.053
44489W        W 9309  35.577  29.649  14.120
44490W        W 9310   8.505  23.197  11.615
44491W        W 9311  29.201  12.309  13.394
44492W        W 9312  24.613  39.816   3.296
44493W        W 9313   3.281   6.941   3.454
44494W        W 9314  29.791  18.633   3.136
44495W        W 9315  40.990  38.504  12.520
44496W        W 9316  39.564  35.030  13.312
44497W        W 9317  24.510  32.955   1.364
44498W        W 9318  12.106  37.618   2.806
44499W        W 9319  25.421   6.671   1.868
44500W        W 9320   5.839  32.988  13.342
44501W        W 9321  19.637  13.807   4.179
44502W        W 9322  35.170  17.411   2.169
44503W        W 9323  16.969  40.125   4.998
44504W        W 9324  12.606   1.340   1.307
44505W        W 9325  23.720  43.215  14.432
44506W        W 9326  41.738   5.974  11.630
44507W        W 9327  22.696  34.777  11.624
44508W        W 9328  12.649  23.126   2.486
44509W        W 9329  26.179  14.901  14.965
44510W        W 9330  18.625  36.817   1.571
44511W        W 9331  32.207   9.543   1.910
44512W        W 9332   6.339  43.787   0.060
44513W        W 9333  14.256   3.193  12.921
44514W        W 9334  16.272  42.837  12.512
44515W        W 9335  18.256  29.614   1.882
44516W        W 9336  20.512  13.128  11.558
44517W        W 9337  10.232  33.058  13.482
44518W        W 9338  15.359   8.185   0.404
44519W        W 9339  29.879  14.190  11.540
44520W        W 9340  22.218  32.919  10.697
44521W        W 9341  33.347  19.866  10.723
44522W        W 9342   7.821  18.053  14.455
44523W        W 9343  10.130   0.784  13.369
44524W        W 9344  38.339   6.936   2.253
44525W        W 9345  26.298  24.519   0.506
44526W        W 9346  39.058   3.954   3.461
44527W        W 9347  31.675  41.095  13.438
44528W        W 9348   9.739   2.844  10.539
44529W        W 9349  37.233  13.348  14.810
44530W        W 9350   1.291  12.081   1.268
44531W        W 9351  32.299  38.829   5.334
44532W        W 9352  16.807  30.592   3.687
44533W        W 9353  44.874   5.056  10.652
44534W        W 9354  16.283  38.089   4.748
44535W        W 9355  31.905  38.308  10.756
44536W        W 9356  16.809  21.298   3.320
44537W        W 9357  21.881   9.837   2.224
44538W        W 9358  22.820   1.347  13.017
44539W        W 9359  11.750  28.913   3.299
44540W        W 9360  20.165  27.276  12.444
44541W        W 9361  43.223  20.574  14.884
44542W        W 9362  35.645  36.404  14.399
44543W        W 9363  17.361  24.502   4.048
44544W        W 9364  22.403  42.597   2.243
44545W        W 9365   0.867  33.587   3.062
44546W        W 9366  37.035   5.876   4.528
44547W        W 9367  24.751  43.417  11.893
44548W        W 9368  26.927   8.874  10.599
44549W        W 9369   7.800  26.120  13.363
44550W        W 9370  23.744  38.426  12.647
44551W        W 9371  17.722  36.055  14.183
44552W        W 9372   3.382  13.318   2.392
44553W        W 9373  35.475  18.184  13.782
44554W        W 9374  23.657  14.083   1.702
44555W        W 9375  18.838  42.850  13.268
44556W        W 9376  42.465  40.531  12.476
44557W        W 9377  37.606   3.782  10.711
44558W        W 9378  15.068  23.172  10.619
44559W        W 9379  28.757  40.855  12.984
44560W        W 9380   4.246  38.612  12.967
44561W        W 9381  22.460  20.068   2.359
44562W        W 9382  28.676  22.776  14.541
44563W        W 9383  16.297  37.380  13.112
44564W        W 9384  37.544  30.560   4.021
44565W        W 9385  14.358   8.885  14.583
44566W        W 9386  37.837  32.314   1.441
44567W        W 9387  44.197  11.016  11.936
44568W        W 9388  23.219  25.160   3.421
44569W        W 9389   8.698   7.649   0.824
44570W        W 9390   7.421  20.673   0.927
44571W        W 9391   6.379   3.378   0.874
44572W        W 9392   5.291  27.013   2.624
44573W        W 9393  26.548  12.535  11.351
44574W        W 9394  43.955  11.256   4.130
44575W        W 9395  35.360  28.247   2.181
44576W        W 9396  28.948  35.547   2.290
44577W        W 9397  11.226  21.142   1.516
44578W        W 9398  24.026   5.159  12.905
44579W        W 9399  37.475   1.857  11.159
44580W        W 9400  15.790  19.753  14.698
44581W        W 9401  36.952  22.847   4.369
44582W        W 9402  33.124  18.186   1.599
44583W        W 9403  36.065   1.878   0.851
44584W        W 9404  22.492  12.820   0.239
44585W        W 9405  10.740  38.538   3.720
44586W        W 9406  26.186  27.842  10.737
44587W        W 9407  21.632  44.383   3.720
44588W        W 9408  33.779  22.562   4.177
44589W        W 9409  27.598  18.011  14.915
44590W        W 9410   6.157  34.800   5.103
44591W        W 9411  28.419  17.559  12.893
44592W        W 9412  38.373  38.764   0.349
44593W        W 9413  27.114   6.191  13.785
44594W        W 9414   9.270  10.876  14.504
44595W        W 9415  13.852  26.906  11.405
44596W        W 9416  25.725  37.843   2.846
44597W        W 9417  32.667  41.851   4.511
44598W        W 9418  18.177  31.937  13.616
44599W        W 9419  31.023   2.134   9.991
44600W        W 9420  27.588  21.627   1.426
44601W        W 9421  14.994  42.718   1.310
44602W        W 9422  40.339  14.400  14.927
44603W        W 9423  33.534  13.168   1.696
44604W        W 9424  29.436  13.991  14.180
44605W        W 9425  19.821   4.271  12.393
44606W        W 9426  12.353  17.774  14.152
44607W        W 9427   4.701  26.514   1.320
44608W        W 9428  20.707  36.571   1.358
44609W        W 9429  20.569  27.681  10.642
44610W        W 9430  29.564  23.853   4.327
44611W        W 9431  39.590   1.518   0.397
44612W        W 9432  25.595  14.632   2.610
44613W        W 9433   6.298  26.879   2.644
44614W        W 9434  18.151  38.294  12.868
44615W        W 9435  37.026   1.838   2.732
44616W        W 9436  21.697  27.654   4.704
44617W        W 9437  36.475   3.381  12.350
44618W        W 9438  33.060  41.945  12.932
44619W        W 9439   0.141  19.793   0.301
44620W        W 9440  35.810  42.946  11.690
44621W        W 9441  33.138   3.028  11.492
44622W        W 9442  20.126  44.971  14.992
44623W        W 9443  37.334   8.410   4.533
44624W        W 9444  12.421  38.382   2.371
44625W        W 9445  43.828   5.297  11.957
44626W        W 9446  40.961  44.359  10.773
44627W        W 9447  32.353   7.491  14.872
44628W        W 9448  26.025  11.597  13.878
44629W        W 9449  43.259  10.001  11.604
44630W        W 9450   6.319   9.111   4.273
44631W        W 9451  37.105  21.493   3.187
44632W        W 9452  40.940  42.029  14.551
44633W        W 9453  31.448  33.030   1.877
44634W        W 9454  44.733   1.662  11.121
44635W        W 9455  32.409   2.882  12.896
44636W        W 9456  39.844   1.429   1.731
44637W        W 9457  24.636  23.294   3.681
44638W        W 9458   2.476  38.558  10.744
44639W        W 9459  18.176  27.165  10.714
44640W        W 9460  20.767  30.488   2.805
44641W        W 9461  33.165  38.255   4.723
44642W        W 9462  11.656  11.717  12.151
44643W        W 9463  40.868  44.899  13.568
44644W        W 9464  36.901  12.667  12.871
44645W        W 9465   4.222  26.739  12.941
44646W        W 9466  31.372  30.229  11.029
44647W        W 9467  31.924  15.627  10.188
44648W        W 9468  42.585  25.559   1.980
44649W        W 9469  44.353  10.925  11.457
44650W        W 9470  26.025  13.845  10.847
44651W        W 9471   6.915  15.338   3.219
44652W        W 9472  24.774  17.160   4.942
44653W        W 9473  30.987  20.615   0.715
44654W        W 9474  32.824  34.790  10.278
44655W        W 9475  31.471  36.484  10.965
44656W        W 9476  18.747  38.895  13.802
44657W        W 9477  25.704  39.772  11.267
44658W        W 9478  30.654  30.211   3.167
44659W        W 9479   3.017  33.737  11.691
44660W        W 9480   3.212  43.569  10.772
44661W        W 9481  35.667  41.626  10.962
44662W        W 9482  22.945   1.299  14.707
44663W        W 9483  13.381  43.901  14.234
44664W        W 9484   9.258   3.039   1.834
44665W        W 9485  35.339  44.218   1.653
44666W        W 9486  38.646  32.059  13.851
44667W        W 9487  11.863  31.001   1.351
44668W        W 9488  36.092   5.904   4.932
44669W        W 9489  24.728  25.322  11.983
44670W        W 9490  10.668   3.221  11.166
44671W        W 9491  14.851   5.272   3.714
44672W        W 9492   4.310   2.018   3.334
44673W        W 9493  30.700  21.604   3.112
44674W        W 9494  42.960  16.592   4.122
44675W        W 9495  42.382  17.852  13.904
44676W        W 9496   2.526  42.488  13.429
44677W        W 9497  29.117  34.566  12.626
44678W        W 9498   4.297  29.404   3.179
44679W        W 9499  30.478  39.269   4.660
44680W        W 9500  18.202  36.743  13.991
44681W        W 9501  22.266  34.047  13.578
44682W        W 9502  19.734  42.267  13.692
44683W        W 9503  15.668   4.601  14.827
44684W        W 9504   0.284  29.980  11.970
44685W        W 9505  37.303  33.328  13.502
44686W        W 9506  44.788  41.123  13.073
44687W        W 9507  22.656   5.353   3.808
44688W        W 9508  32.093  29.248  14.004
44689W        W 9509  29.180   4.508   2.430
44690W        W 9510  13.173   3.318  14.490
44691W        W 9511   0.503  32.644   0.065
44692W        W 9512  35.495  25.054   4.193
44693W        W 9513  14.802  18.193  12.435
44694W        W 9514  42.346  33.551   1.399
44695W        W 9515  17.711  18.643  12.371
44696W        W 9516  20.759   4.670  13.482
44697W        W 9517  31.093  11.168   0.385
44698W        W 9518   7.966  39.478   1.302
44699W        W 9519   3.855  12.040   3.545
44700W        W 9520  23.605  26.884  10.950
44701W        W 9521  23.259  30.687   2.262
44702W        W 9522   5.770  10.930  13.930
44703W        W 9523   5.827  17.132  14.293
44704W        W 9524  25.558   1.066  11.487
44705W        W 9525  30.571   3.928   1.405
44706W        W 9526  15.791  22.327  11.151
44707W        W 9527  20.717  13.432   1.665
44708W        W 9528  33.459  11.577  12.370
44709W        W 9529  10.361  36.634  11.682
44710W        W 9530  25.152   6.356  13.977
44711W        W 9531  35.975  35.821   0.603
44712W        W 9532   6.702  40.950  14.319
44713W        W 9533  11.889  23.563  13.153
44714W        W 9534  29.735  43.026   1.373
44715W        W 9535  15.364  19.849   4.188
44716W        W 9536  19.508  38.880   0.183
44717W        W 9537  42.305  42.850  10.326
44718W        W 9538   1.916  28.657  12.043
44719W        W 9539  14.499  10.077   2.621
44720W        W 9540  13.108   3.473   3.300
44721W        W 9541  44.857  14.632   1.316
44722W        W 9542  35.133  26.894  13.954
44723W        W 9543  10.485  30.628   1.735
44724W        W 9544  33.955  35.225   3.704
44725W        W 9545  41.581  42.237  14.992
44726W        W 9546  36.351  37.383   1.321
44727W        W 9547  22.689  20.234  14.066
44728W        W 9548  38.048   1.725   0.924
44729W        W 9549  37.167  26.723  12.058
44730W        W 9550  26.258  10.104   3.820
44731W        W 9551  25.491  44.032   0.352
44732W        W 9552  25.567  15.563  11.629
44733W        W 9553  12.172  19.119  11.974
44734W        W 9554  35.433  28.150   0.277
44735W        W 9555  12.664   2.937   3.910
44736W        W 9556  40.144  13.122   0.905
44737W        W 9557  25.639  15.056   4.776
44738W        W 9558   7.460  19.608  11.615
44739W        W 9559  39.900  38.854   4.548
44740W        W 9560   4.740  44.229  10.431
44741W        W 9561  15.493   4.601   4.175
44742W        W 9562  32.454  39.614   4.619
44743W        W 9563   7.952  28.036  11.157
44744W        W 9564  20.609  33.458  12.888
44745W        W 9565   4.213  37.386  12.441
44746W        W 9566  19.209   4.332  14.781
44747W        W 9567  13.815   7.454  10.797
44748W        W 9568  16.561   1.743   2.786
44749W        W 9569  30.357  18.502  12.855
44750W        W 9570  10.280  41.672   0.218
44751W        W 9571  27.199  24.785   2.457
44752W        W 9572  28.914  35.949   0.450
44753W        W 9573  25.923  30.490  10.574
44754W        W 9574  22.591  12.406   3.772
44755W        W 9575   4.423   1.291   4.054
44756W        W 9576  12.202  38.051  11.827
44757W        W 9577  30.455  41.956   3.718
44758W        W 9578  20.532   7.315   2.248
44759W        W 9579  30.129   3.961   2.688
44760W        W 9580   6.750  40.513  11.078
44761W        W 9581  10.315  37.107   5.009
44762W        W 9582  12.261  26.634  13.132
44763W        W 9583  31.987  39.313  11.871
44764W        W 9584  14.363  26.950  13.540
44765W        W 9585   4.816  42.943   2.741
44766W        W 9586   0.882   4.151   0.861
44767W        W 9587  27.218  30.746  12.987
44768W        W 9588  32.175  26.758  11.567
44769W        W 9589   4.756  22.990   1.257
44770W        W 9590  33.010  40.414  14.034
44771W        W 9591   2.677  27.318   5.165
44772W        W 9592  16.239  23.189  13.148
44773W        W 9593  11.563   8.889   1.353
44774W        W 9594  41.766  44.365   1.618
44775W        W 9595  44.839   9.316   4.031
44776W        W 9596  11.786  30.435  11.757
44777W        W 9597  44.974  42.019   4.569
44778W        W 9598  31.482  27.643   3.738
44779W        W 9599  35.701  43.791   0.949
44780W        W 9600  44.997  27.066  11.568
44781W        W 9601  17.583   5.199   2.117
44782W        W 9602   1.669  18.123   1.771
44783W        W 9603  30.890  40.453   2.254
44784W        W 9604  10.168   9.087  11.062
44785W        W 9605  17.104  41.235   1.318
44786W        W 9606   5.076   9.015   2.723
44787W        W 9607  18.784   5.306  13.449
44788W        W 9608  19.160  28.027  14.287
44789W        W 9609   2.119  30.507  13.031
44790W        W 9610  11.319  34.434  10.739
44791W        W 9611  28.169  29.572  10.791
44792W        W 9612   6.244  29.986  12.379
44793W        W 9613   7.377  18.125  12.395
44794W        W 9614  41.424  36.025  10.965
44795W        W 9615  15.501  40.732  13.029
44796W        W 9616  32.861  41.870   0.709
44797W        W 9617  18.990  42.524   1.936
44798W        W 9618  27.421  18.517   3.985
44799W        W 9619  23.769  10.583  14.871
44800W        W 9620  43.770  38.008  12.666
44801W        W 9621  38.049  30.456   4.027
44802W        W 9622   4.226  31.990   1.577
44803W        W 9623  39.831   4.944   2.478
44804W        W 9624  26.179   9.537   3.183
44805W        W 9625   1.905   5.785   0.380
44806W        W 9626  27.491   4.308  13.390
44807W        W 9627   9.379  22.798   1.747
44808W        W 9628  34.938  32.120   2.804
44809W        W 9629  25.063  32.219   1.673
44810W        W 9630   9.428   7.465   2.662
44811W        W 9631  35.547  27.037   2.829
44812W        W 9632  39.569   1.861   3.853
44813W        W 9633  25.637   1.748  11.206
44814W        W 9634  16.140  36.443   4.089
44815W        W 9635  43.638  15.775  13.933
44816W        W 9636  18.199   4.282   1.392
44817W        W 9637   7.301  20.937   4.039
44818W        W 9638   7.826  34.994   4.953
44819W        W 9639  17.805  35.492  12.172
44820W        W 9640  34.878  13.302  14.226
44821W        W 9641  39.890   0.000   3.281
44822W        W 9642   8.640  23.971   1.368
44823W        W 9643  10.226   5.518   3.197
44824W        W 9644  10.963  12.565   4.279
44825W        W 9645  28.996  37.001   3.498
44826W        W 9646  20.614  21.499  12.845
44827W        W 9647   4.726   1.731  14.326
44828W        W 9648   2.159  30.260   2.516
44829W        W 9649  24.042   6.835  11.083
44830W        W 9650   9.531  32.480   1.342
44831W        W 9651   0.460  35.780  12.481
44832W        W 9652  40.931  10.512   4.674
44833W        W 9653  41.761  11.966   0.507
44834W        W 9654   8.761   6.372   3.073
44835W        W 9655  38.842  31.351  10.713
44836W        W 9656  41.320  25.213   0.320
44837W        W 9657  22.217  10.533   2.767
44838W        W 9658  12.172  39.892   1.956
44839W        W 9659   4.691   6.517  14.708
44840W        W 9660   4.914   9.884   2.183
44841W        W 9661  22.562  20.316   1.300
44842W        W 9662  31.177  38.866   0.842
44843W        W 9663  38.086  14.240  12.050
44844W        W 9664  32.626  33.256   4.479
44845W        W 9665  41.947  19.399  11.545
44846W        W 9666  41.453  30.026   1.701
44847W        W 9667  37.352  25.483   3.779
44848W        W 9668  37.036  27.562   0.685
44849W        W 9669  32.888   2.408   0.334
44850W        W 9670  18.352  32.606   1.331
44851W        W 9671  24.703   6.885   1.438
44852W        W 9672  27.871   9.270   3.595
44853W        W 9673  35.892  33.415   0.527
44854W        W 9674   2.805   0.346  14.923
44855W        W 9675  29.100   9.711   3.243
44856W        W 9676   3.256  15.058   3.452
44857W        W 9677  40.602  13.449   4.317
44858W        W 9678  18.339  29.502   0.866
44859W        W 9679  23.288  22.735   0.448
44860W        W 9680  10.701  26.918  13.998
44861W        W 9681  27.471   0.800  11.413
44862W        W 9682  28.918  23.135  11.999
44863W        W 9683   6.434  34.979   3.199
44864W        W 9684  11.744  12.199  10.974
44865W        W 9685  20.179  13.822  10.203
44866W        W 9686   2.767  33.559  11.287
44867W        W 9687  37.564  30.095  10.681
44868W        W 9688  11.898  41.396   4.517
44869W        W 9689   5.493  13.306  10.486
44870W        W 9690  18.740  42.328  13.391
44871W        W 9691   6.251  10.546   3.100
44872W        W 9692   4.895  31.140  13.898
44873W        W 9693  10.801  30.120  12.973
44874W        W 9694  38.892   5.473  10.728
44875W        W 9695  33.685  34.465  12.532
44876W        W 9696  11.561  11.132  13.809
44877W        W 9697  30.401  39.042   0.680
44878W        W 9698  36.467  16.229  11.565
44879W        W 9699   0.109   3.280   1.110
44880W        W 9700   5.853  33.591   2.408
44881W        W 9701   1.101   4.605   0.682
44882W        W 9702   0.947  13.558   0.879
44883W        W 9703   2.003   3.475  13.332
44884W        W 9704  26.115  42.984  14.826
44885W        W 9705  30.466  11.444   2.163
44886W        W 9706   9.270  27.523  10.948
44887W        W 9707  37.901  19.819  10.605
44888W        W 9708  10.258  33.578  13.678
44889W        W 9709  28.927  44.479   2.152
44890W        W 9710  32.475  26.226  12.732
44891W        W 9711   1.867   6.813   2.116
44892W        W 9712  18.738  37.996   4.332
44893W        W 9713  40.308  38.011   3.820
44894W        W 9714  34.469   9.387   0.347
44895W        W 9715   4.224   5.307   3.234
44896W        W 9716  31.538   1.019  13.334
44897W        W 9717   9.606   9.727   1.203
44898W        W 9718  35.887  33.297   4.455
44899W        W 9719  16.192   9.188  13.325
44900W        W 9720   8.849  12.848   1.779
44901W        W 9721  30.482  32.543  12.873
44902W        W 9722  13.571  37.617   3.650
44903W        W 9723  20.667  35.766  13.942
44904W        W 9724  20.772  31.970   0.714
44905W        W 9725  26.683   7.666   0.469
44906W        W 9726  43.392  14.729   3.710
44907W        W 9727  26.372  38.113  11.135
44908W        W 9728  42.859  44.437   0.774
44909W        W 9729  28.561   6.175  13.798
44910W        W 9730  26.835  36.008   3.684
44911W        W 9731   0.905  17.363   1.820
44912W        W 9732  32.387  35.337  11.110
44913W        W 9733   7.738  39.882   4.648
44914W        W 9734  40.057  35.009   3.300
44915W        W 9735  19.329  33.189  11.726
44916W        W 9736   2.322   9.221  12.992
44917W        W 9737  31.733  31.556  13.444
44918W        W 9738  11.504   7.194   2.479
44919W        W 9739   6.065  36.663   0.289
44920W        W 9740   8.974  23.202   1.704
44921W        W 9741  37.931   7.405  11.332
44922W        W 9742  30.042   2.458  12.965
44923W        W 9743  44.190  16.600   4.944
44924W        W 9744  35.865  22.526  12.250
44925W        W 9745  37.567  35.455  14.042
44926W        W 9746  27.955  20.047   2.300
44927W        W 9747   8.914  28.698   1.785
44928W        W 9748  15.538  44.412   0.619
44929W        W 9749  14.877  19.729   4.123
44930W        W 9750  12.909  19.218  11.293
44931W        W 9751  14.181  40.735  11.038
44932W        W 9752  31.167  41.930  14.389
44933W        W 9753   8.184  27.059   3.118
44934W        W 9754  30.636   4.454  10.213
44935W        W 9755  20.182  44.453   0.069
44936W        W 9756  19.407  18.162  12.898
44937W        W 9757   0.015   4.138  12.953
44938W        W 9758  41.276  38.703  13.887
44939W        W 9759  33.443   1.767   0.815
44940W        W 9760  28.336  39.071  12.587
44941W        W 9761  37.846  31.505   0.209
44942W        W 9762  18.138   1.081  14.426
44943W        W 9763  17.984   8.106   1.604
44944W        W 9764  23.247  17.120   1.436
44945W        W 9765  18.298  42.105   3.810
44946W        W 9766  17.545  10.037  14.301
44947W        W 9767  17.087  32.586  10.115
44948W        W 9768  15.828   0.248   3.768
44949W        W 9769  40.214  41.174  12.245
44950W        W 9770  32.738  26.930   0.847
44951W        W 9771  21.190  37.617   0.275
44952W        W 9772  43.862  36.546  14.381
44953W        W 9773  25.676  30.962  14.099
44954W        W 9774   3.711  12.229  11.160
44955W        W 9775  34.354   4.533   4.717
44956W        W 9776  37.599  21.860   3.596
44957W        W 9777  15.577   5.571   0.568
44958W        W 9778  36.270  25.044   2.723
44959W        W 9779  34.712  41.748   5.065
44960W        W 9780  22.179  39.846  12.942
44961W        W 9781   6.368   8.301  14.244
44962W        W 9782  41.805  13.239  12.238
44963W        W 9783  32.095  26.970  12.495
44964W        W 9784  27.021  44.130  14.142
44965W        W 9785  27.244  39.371   0.881
44966W        W 9786   1.428   2.395   4.637
44967W        W 9787   9.754  18.808  12.459
44968W        W 9788  22.194  41.365   1.204
44969W        W 9789  13.146  31.215   5.062
44970W        W 9790   4.027  22.862  10.797
44971W        W 9791  25.293  23.575   0.333
44972W        W 9792  33.512  30.870  14.462
44973W        W 9793  35.268  18.253  11.583
44974W        W 9794  37.980  27.471   3.335
44975W        W 9795  39.412  40.053  12.926
44976W        W 9796   7.579  35.503  11.932
44977W        W 9797  30.474  24.085   2.614
44978W        W 9798  34.825   1.408   2.927
44979W        W 9799  28.773  30.597  10.609
44980W        W 9800  14.151  18.793  14.380
44981W        W 9801  16.356  12.146  14.631
44982W        W 9802  28.889  39.848   4.617
44983W        W 9803  23.913  27.518   0.795
44984W        W 9804  24.707  35.804   2.918
44985W        W 9805   4.246  36.125   0.013
44986W        W 9806  32.908   6.764  13.017
44987W        W 9807  37.021  36.202   3.332
44988W        W 9808  11.753  23.125   0.872
44989W        W 9809   4.570  23.448  11.082
44990W        W 9810  25.451  40.004   4.803
44991W        W 9811  26.121   3.388   3.316
44992W        W 9812  30.090  31.553   4.792
44993W        W 9813   3.789   1.494   4.785
44994W        W 9814   8.475  39.608  13.074
44995W        W 9815  29.466   5.697  14.063
44996W        W 9816  17.366  12.235  14.397
44997W        W 9817  20.376  13.990   2.791
44998W        W 9818  21.309  24.713   5.038
44999W        W 9819  26.479  33.351  12.936
45000W        W 9820  32.529   0.134  12.889
45001W        W 9821  32.983  11.331  11.214
45002W        W 9822  27.655  18.176   2.636
45003W        W 9823  11.335   9.717  11.343
45004W        W 9824  34.412   9.279   1.318
45005W        W 9825  26.621  40.889  14.280
45006W        W 9826  24.474  10.949   5.018
45007W        W 9827  20.502  43.320  11.911
45008W        W 9828  30.018  18.762   3.631
45009W        W 9829  33.948   3.156  12.389
45010W        W 9830  44.470  39.954  13.246
45011W        W 9831  43.342  18.384  12.017
45012W        W 9832  42.658   4.358   3.653
45013W        W 9833  23.717   3.975   3.283
45014W        W 9834  25.114  34.355  13.062
45015W        W 9835  27.091  25.480   0.157
45016W        W 9836  34.410  42.176  14.943
45017W        W 9837  20.905   3.300   5.099
45018W        W 9838  25.095  32.409  13.509
45019W        W 9839  44.800  13.594  11.172
45020W        W 9840  29.423  27.448   1.844
45021W        W 9841  43.720  35.342  11.665
45022W        W 9842  39.428   0.670  11.026
45023W        W 9843  41.116  39.876   3.788
45024W        W 9844  19.648   3.396   0.776
45025W        W 9845  12.335  31.566  12.525
45026W        W 9846  33.467  42.996  13.117
45027W        W 9847  14.559  33.061  14.111
45028W        W 9848  22.753  30.342  12.088
45029W        W 9849  23.357  35.932  14.240
45030W        W 9850  44.779  30.489   0.445
45031W        W 9851   4.741  28.159   1.360
45032W        W 9852  10.843  12.260  12.585
45033W        W 9853  22.610  39.578   2.758
45034W        W 9854  26.957  26.682  12.847
45035W        W 9855  31.252  36.221   5.031
45036W        W 9856   6.220  37.884  13.355
45037W        W 9857   7.591  11.843  11.335
45038W        W 9858  30.873  14.737  13.897
45039W        W 9859  16.790  11.343  11.895
45040W        W 9860   4.201  42.261   1.927
45041W        W 9861  11.409   7.501  12.913
45042W        W 9862   6.959  19.680  14.302
45043W        W 9863  44.433  21.618   1.790
45044W        W 9864   5.331  36.388  11.611
45045W        W 9865   7.616   2.259   0.811
45046W        W 9866  24.136  30.227   4.150
45047W        W 9867   9.363  29.992   3.615
45048W        W 9868   6.735  25.575  10.328
45049W        W 9869  28.496  11.108  11.609
45050W        W 9870   0.519  13.549  13.799
45051W        W 9871  34.048   7.411   2.420
45052W        W 9872  44.777  30.897   3.157
45053W        W 9873  22.121  10.931   1.298
45054W        W 9874  15.109  17.510  11.148
45055W        W 9875  23.476   9.846   0.310
45056W        W 9876  24.510   0.985   0.391
45057W        W 9877  21.111   7.408  10.276
45058W        W 9878   1.025  40.595   0.948
45059W        W 9879  38.838   1.200  14.941
45060W        W 9880  12.915  29.465  12.076
45061W        W 9881  18.013  12.846   2.726
45062W        W 9882  18.257   7.330  10.759
45063W        W 9883   8.578  16.586   1.842
45064W        W 9884   9.675   5.061   0.037
45065W        W 9885  16.343   0.065  11.003
45066W        W 9886  25.015  32.469  10.620
45067W        W 9887  20.608  28.064   2.317
45068W        W 9888  15.702   5.975  12.370
45069W        W 9889  24.284  23.143  10.610
45070W        W 9890   2.355  43.317   1.832
45071W        W 9891  35.507  30.489  13.784
45072W        W 9892   0.697  38.926  14.286
45073W        W 9893  36.238  21.520   0.756
45074W        W 9894  26.279   7.778   3.031
45075W        W 9895  33.969  11.954   4.258
45076W        W 9896  34.293  42.955   2.676
45077W        W 9897   9.287   3.077  11.558
45078W        W 9898  36.635  24.239  14.004
45079W        W 9899  14.680   5.256  13.888
45080W        W 9900  17.683  15.717  12.592
45081W        W 9901  44.545  23.259  12.508
45082W        W 9902  42.802  32.263  11.488
45083W        W 9903  40.541   5.441  13.509
45084W        W 9904  13.882  44.386   1.961
45085W        W 9905  29.091  33.502   2.870
45086W        W 9906  41.256  33.471  14.379
45087W        W 9907  33.229  42.714   4.916
45088W        W 9908  14.196  16.641  14.473
45089W        W 9909  40.832  28.069  13.907
45090W        W 9910  26.533  14.703  11.659
45091W        W 9911  43.878  15.844  14.790
45092W        W 9912  13.698  44.691   3.046
45093W        W 9913   6.790  15.183  11.628
45094W        W 9914   3.448   7.099   2.162
45095W        W 9915  18.379  31.882   1.896
45096W        W 9916  12.582  43.555  10.603
45097W        W 9917  26.599  28.704  10.661
45098W        W 9918  14.540  22.220  13.451
45099W        W 9919  39.964  43.944   2.538
45100W        W 9920  29.906   8.881   4.165
45101W        W 9921  25.964  24.062   4.605
45102W        W 9922  40.923  37.380  12.543
45103W        W 9923  44.759  32.963   1.867
45104W        W 9924   5.674  25.047  14.868
45105W        W 9925   7.904  27.593   0.408
45106W        W 9926  24.039   0.854   2.106
45107W        W 9927  28.447  13.959  12.486
45108W        W 9928   9.893   7.852  11.980
45109W        W 9929  34.016   1.765  12.440
45110W        W 9930  26.865  32.631  13.916
45111W        W 9931  14.058  15.617  12.577
45112W        W 9932  41.370  29.099   2.317
45113W        W 9933  17.671  35.463   4.203
45114W        W 9934  32.971  10.323  12.472
45115W        W 9935  19.011  11.791   2.188
45116W        W 9936  25.849  21.827   3.753
45117W        W 9937  13.306   2.339  10.711
45118W        W 9938  30.088   0.348  14.911
45119W        W 9939  41.006  10.503   2.353
45120W        W 9940  31.201  13.229   1.160
45121W        W 9941  37.617  28.483  12.885
45122W        W 9942  32.426  26.619   1.144
45123W        W 9943  41.910  18.005   4.095
45124W        W 9944  21.740  24.525  11.866
45125W        W 9945  20.226  11.250   0.123
45126W        W 9946   0.014  22.400   0.235
45127W        W 9947  28.541  15.683  13.866
45128W        W 9948  39.524  28.859   0.737
45129W        W 9949   0.011  16.243   3.240
45130W        W 9950   3.587  25.429  12.000
45131W        W 9951  11.837  28.853  12.893
45132W        W 9952   6.656  35.455   3.071
45133W        W 9953  17.042  36.499  12.408
45134W        W 9954  30.438  44.852  13.904
45135W        W 9955  44.956  39.606   4.264
45136W        W 9956   5.461  23.591  12.882
45137W        W 9957   7.940   9.897  13.338
45138W        W 9958   4.571  43.467   2.499
45139W        W 9959  42.883   9.785  12.469
45140W        W 9960  29.934   4.827  10.502
45141W        W 9961  26.130   8.176   1.384
45142W        W 9962   8.839  19.237   2.515
45143W        W 9963  39.237  36.982  13.538
45144W        W 9964  44.927  13.675  12.934
45145W        W 9965  16.764  18.554   3.829
45146W        W 9966  19.718   5.285  14.967
45147W        W 9967  28.124   1.009  12.063
45148W        W 9968  35.053  14.328  13.072
45149W        W 9969  20.561  31.802  14.764
45150W        W 9970  19.699  36.492  11.656
45151W        W 9971  20.698   1.790   1.032
45152W        W 9972  26.485  28.461  14.973
45153W        W 9973  32.363   2.576  11.921
45154W        W 9974  31.824  13.463  13.333
45155W        W 9975  34.658  22.190  14.005
45156W        W 9976  25.550  41.985   4.695
45157W        W 9977   8.878  10.126   3.251
45158W        W 9978  18.556  23.544  12.361
45159W        W 9979   1.256  33.033   2.534
45160W        W 9980  39.505  10.428  13.945
45161W        W 9981  25.964  37.588  14.978
45162W        W 9982   7.395   7.610   0.791
45163W        W 9983   3.396  11.563   5.057
45164W        W 9984  42.470  15.080  13.721
45165W        W 9985   8.280  41.983  13.175
45166W        W 9986  32.108  42.121   0.283
45167W        W 9987   7.253  24.197   0.295
45168W        W 9988  40.111  15.659   0.938
45169W        W 9989  28.141  11.729   4.642
45170W        W 9990  32.452  24.409  14.949
45171W        W 9991   1.177  37.250  10.262
45172W        W 9992  38.100   4.069  12.861
45173W        W 9993   1.393  34.534   3.792
45174W        W 9994   7.603  42.881   1.968
45175W        W 9995  14.367  41.402   3.680
45176W        W 9996   2.344   2.563   4.488
45177W        W 9997  20.278   9.731   1.315
45178W        W 9998  12.470  40.255  12.731
45179W        W 9999   7.865   6.421   0.056
45180W        W10000  11.086   8.130   0.871
45181W        W10001  42.269   4.728   2.762
45182W        W10002  28.815  13.513  12.124
45183W        W10003   3.447   7.141  13.434
45184W        W10004   6.872   0.674  12.470
45185W        W10005  28.225   6.193   4.266
45186W        W10006   5.840   3.762   4.617
45187W        W10007  26.996  27.973  10.693
45188W        W10008  31.056  31.592   2.445
45189W        W10009  35.858  17.429  13.045
45190W        W10010  39.943   5.289  14.322
45191W        W10011  12.599  26.820   4.577
45192W        W10012  39.674   2.656   0.616
45193W        W10013  23.654  13.620   1.923
45194W        W10014   7.285  33.884  11.174
45195W        W10015   4.235  42.556   4.199
45196W        W10016  42.456  10.573   3.598
45197W        W10017  21.981  38.094   4.850
45198W        W10018  24.234  13.281   3.561
45199W        W10019  43.901  19.699   0.908
45200W        W10020  32.561  25.779   5.178
45201W        W10021   8.676  23.291   2.150
45202W        W10022   2.696   6.222   1.258
45203W        W10023  24.091   5.379  11.480
45204W        W10024  22.664  28.515   3.101
45205W        W10025  41.985  34.055  14.434
45206W        W10026  41.468  34.549  11.563
45207W        W10027  43.390  21.485   4.637
45208W        W10028   5.796  26.329  14.475
45209W        W10029  39.148   8.861  12.134
45210W        W10030   6.845   2.268   4.302
45211W        W10031   3.249  21.676   4.742
45212W        W10032  13.683   4.429   3.789
45213W        W10033  31.455  22.643  13.651
45214W        W10034  23.852  19.972  13.316
45215W        W10035   0.354  19.630   1.981
45216W        W10036  13.811  34.695  12.068
45217W        W10037  43.882  41.031   2.309
45218W        W10038  12.948  23.117   2.931
45219W        W10039  33.063  43.841   0.362
45220W        W10040  36.057   5.384   1.004
45221W        W10041  40.313  28.696   0.399
45222W        W10042  13.693   7.169   3.856
45223W        W10043  44.427  42.603  13.733
45224W        W10044  26.539   2.335  14.907
45225W        W10045  22.262  22.235  13.301
45226W        W10046  41.061  19.195  14.001
45227W        W10047  21.517  20.619   2.405
45228W        W10048   2.356  39.303  13.275
45229W        W10049  11.212  28.997  11.181
45230W        W10050  37.607  33.778  10.771
45231W        W10051  17.772  19.213   1.352
45232W        W10052   5.798  35.316  13.938
45233W        W10053  16.103   4.850   0.900
45234W        W10054  24.753   8.211   5.394
45235W        W10055  22.551  38.988  11.490
45236W        W10056  33.786  16.178   3.924
45237W        W10057  24.154  32.081   0.550
45238W        W10058  13.733   9.338   4.707
45239W        W10059  21.010  31.198   4.265
45240W        W10060   5.732  40.070   4.127
45241W        W10061   8.744  30.960  11.429
45242W        W10062  36.984  18.370  12.180
45243W        W10063   8.770  37.902   1.598
45244W        W10064  32.350  28.771  11.420
45245W        W10065   0.426   9.815  12.042
45246W        W10066   8.378   1.555  13.441
45247W        W10067  26.200  28.168  11.135
45248W        W10068   8.186   9.520   0.719
45249W        W10069   7.563  11.248   0.986
45250W        W10070  27.003   6.754  12.612
45251W        W10071   6.715   5.466  12.000
45252W        W10072  21.725  10.701   2.605
45253W        W10073  14.151   6.320  13.026
45254W        W10074  31.447  44.496  13.427
45255W        W10075   6.913   0.530  14.989
45256W        W10076  31.563  32.106   4.688
45257W        W10077  26.057   8.643   4.569
45258W        W10078  34.100  36.904   3.935
45259W        W10079  14.186  17.326   2.674
45260W        W10080  31.653  27.665  12.390
45261W        W10081   6.818  21.008  14.552
45262W        W10082  44.316  43.252  12.404
45263W        W10083  11.541  22.162  13.831
45264W        W10084  10.138  42.410   2.652
45265W        W10085   3.645  29.431  11.959
45266W        W10086  38.853   8.439  12.799
45267W        W10087  43.974   9.732   2.306
45268W        W10088  43.243  38.899  11.131
45269W        W10089  13.188   4.334   2.153
45270W        W10090  14.728  33.961  13.308
45271W        W10091  26.878  41.912  12.187
45272W        W10092  14.639   7.431   3.786
45273W        W10093  32.536   1.663   2.158
45274W        W10094  27.097  33.414  14.399
45275W        W10095  40.837  31.158   1.299
45276W        W10096  37.396  44.834   2.336
45277W        W10097  16.100  21.268  13.580
45278W        W10098  11.637  36.300  11.468
45279W        W10099  19.259  28.247   0.092
45280W        W10100  22.027   5.170   2.313
45281W        W10101  29.962  12.627   1.400
45282W        W10102  26.971   0.795   3.406
45283W        W10103  42.224   3.299  10.671
45284W        W10104   5.351   1.408  14.460
45285W        W10105  40.863  32.926   4.579
45286W        W10106  31.967   9.737  11.032
45287W        W10107  43.481  20.465  14.440
45288W        W10108  17.073  31.479   1.882
45289W        W10109   6.981  10.231  10.772
45290W        W10110  22.066  20.644  12.104
45291W        W10111   8.164  40.154  11.157
45292W        W10112  25.028  11.280  13.059
45293W        W10113  37.077  12.622   2.731
45294W        W10114  32.625  22.130   2.843
45295W        W10115   3.025   3.324   0.796
45296W        W10116  28.696  11.049  14.272
45297W        W10117  40.479  13.381  12.571
45298W        W10118  21.965  15.835  12.587
45299W        W10119   5.883  29.963   4.606
45300W        W10120   1.373  33.922   0.400
45301W        W10121  42.982  31.361   4.636
45302W        W10122  15.511  18.860   0.788
45303W        W10123  25.072  28.953  12.433
45304W        W10124   7.433  21.518  12.489
45305W        W10125  30.839  10.416   5.038
45306W        W10126  16.080  36.271   1.240
45307W        W10127  17.290   2.501  13.259
45308W        W10128  37.598   6.604   2.879
45309W        W10129   0.130   9.828  12.459
45310W        W10130  29.002  38.109   1.216
45311W        W10131   1.966  19.675  11.614
45312W        W10132   0.893  44.290  13.804
45313W        W10133   1.300  24.295  13.368
45314W        W10134  33.882  18.590   2.804
45315W        W10135  13.852   4.448   2.598
45316W        W10136   8.523   1.904   5.105
45317W        W10137   1.486  12.633   1.329
45318W        W10138  25.937  31.140  13.184
45319W        W10139   5.148  10.854   2.424
45320W        W10140  18.776  42.923  13.831
45321W        W10141  38.432  41.559  11.522
45322W        W10142   3.863  12.816   2.113
45323W        W10143  34.482  41.719   0.846
45324W        W10144  22.797  28.075   0.269
45325W        W10145  30.479  35.127  11.211
45326W        W10146   1.557  40.306  14.510
45327W        W10147   9.169  43.424   1.406
45328W        W10148  21.613  38.993   1.872
45329W        W10149   9.027  23.022  11.641
45330W        W10150  38.821  36.560   2.275
45331W        W10151  37.940  28.466  10.760
45332W        W10152  19.556  31.301   1.392
45333W        W10153   2.935  23.137   0.149
45334W        W10154   3.166   0.279  13.814
45335W        W10155  27.552  27.074   0.027
45336W        W10156  26.648  15.826  10.834
45337W        W10157   7.542  44.851  13.428
45338W        W10158  40.176  24.044   0.863
45339W        W10159  12.571  23.718  14.444
45340W        W10160  29.037  29.324   4.550
45341W        W10161  15.278  14.661   0.328
45342W        W10162  17.538   3.634   3.082
45343W        W10163   0.773  34.243   4.567
45344W        W10164   0.699  38.644  13.487
45345W        W10165  14.721  18.568   2.762
45346W        W10166   5.166  19.512  14.511
45347W        W10167  25.519   3.700  12.071
45348W        W10168  13.176  22.326  14.380
45349W        W10169  38.522  35.614  11.580
45350W        W10170  11.700  36.414   3.401
45351W        W10171  28.171  28.405  14.759
45352W        W10172  10.594   5.969   0.327
45353W        W10173   4.917  42.480   1.810
45354W        W10174  43.271  40.097  12.802
45355W        W10175  44.408  31.429  13.555
45356W        W10176   1.753  33.157   3.196
45357W        W10177   1.194  31.899   5.210
45358W        W10178  11.796   7.694  13.960
45359W        W10179  10.356  20.539   4.421
45360W        W10180  37.396  15.781   2.974
45361W        W10181   8.982  44.086  10.112
45362W        W10182   8.399  37.301  11.990
45363W        W10183  42.229  33.057   3.109
45364W        W10184  23.780  41.370  13.368
45365W        W10185  18.616  27.427  11.559
45366W        W10186  10.255   8.353  13.181
45367W        W10187  22.974  23.273  10.302
45368W        W10188  30.184  35.633  10.096
45369W        W10189  44.392  16.711  11.654
45370W        W10190  38.417   8.301   4.078
45371W        W10191  17.490   8.832   0.365
45372W        W10192  16.167   1.936  12.097
45373W        W10193  36.994  21.852   4.128
45374W        W10194  21.405   1.769  14.750
45375W        W10195  12.919  35.849  10.429
45376W        W10196  23.999  38.009   3.728
45377W        W10197   8.984  23.019  13.858
45378W        W10198  10.744  11.567   0.999
45379W        W10199   4.888  23.143  11.398
45380W        W10200  11.145  24.565   1.415
45381W        W10201   0.440  12.346  12.130
45382W        W10202  21.246  42.795   4.046
45383W        W10203  17.204   4.918  13.065
45384W        W10204  40.465  22.010   1.716
45385W        W10205  14.014   7.701  13.589
45386W        W10206  38.325  11.387   1.730
45387W        W10207  44.568  31.483   3.589
45388W        W10208  21.497  39.831   2.316
45389W        W10209  28.194  10.243   4.590
45390W        W10210  19.997  27.168   2.464
45391W        W10211  20.246   5.747   1.339
45392W        W10212  21.147  21.307   3.150
45393W        W10213  31.678   3.523   4.568
45394W        W10214   4.223  19.849   0.856
45395W        W10215  30.580  43.277   2.485
45396W        W10216  28.828   2.902  10.945
45397W        W10217  23.692   9.903  10.170
45398W        W10218   8.185  10.180   1.821
45399W        W10219   5.800   5.460   0.011
45400W        W10220  41.430  21.965  14.835
45401W        W10221  28.512  13.251  11.434
45402W        W10222  22.251  32.448  13.071
45403W        W10223  36.652  23.585   1.405
45404W        W10224  20.811  11.131   5.449
45405W        W10225  28.050  14.285   4.246
45406W        W10226  19.192  35.042  12.025
45407W        W10227  10.970  41.477  12.950
45408W        W10228  26.146  28.159  12.992
45409W        W10229  22.172  30.214  14.042
45410W        W10230  19.590  14.571   2.549
45411W        W10231  27.755  21.882   4.211
45412W        W10232  23.477  36.452  10.920
45413W        W10233  22.590   2.353   2.771
45414W        W10234  24.571  35.648  13.482
45415W        W10235  15.391  43.846  12.756
45416W        W10236   1.481   3.015  14.301
45417W        W10237  38.765   5.361   3.894
45418W        W10238  36.813  44.493  12.081
45419W        W10239  12.712  28.569   3.214
45420W        W10240   1.916  29.953  12.179
45421W        W10241   8.147   9.752   2.146
45422W        W10242  40.433   8.095   3.371
45423W        W10243  44.315  22.078  12.849
45424W        W10244  31.611  40.487  12.473
45425W        W10245   4.181  13.206  11.213
45426W        W10246  23.021  16.136   1.317
45427W        W10247  19.031  28.609   2.345
45428W        W10248   6.654   5.338   3.111
45429W        W10249  39.532   7.692  11.283
45430W        W10250   1.373   6.294   0.323
45431W        W10251  25.266  21.028   4.641
45432W        W10252  36.387  44.221  12.074
45433W        W10253  40.381  17.089  11.645
45434W        W10254  37.857  20.544   4.662
45435W        W10255  19.942   7.646   4.986
45436W        W10256  30.172  44.894   3.129
45437W        W10257  27.478  19.140   2.194
45438W        W10258   5.311   6.693   2.729
45439W        W10259   9.250   4.433  10.345
45440W        W10260   9.612  12.720   2.836
45441W        W10261  44.545  24.153   4.244
45442W        W10262  37.375   5.706   3.302
45443W        W10263  14.247  43.215   4.976
45444W        W10264   7.794  20.699  11.010
45445W        W10265   0.864   3.841   2.563
45446W        W10266  16.798   3.681  10.797
45447W        W10267   5.016  25.725  12.202
45448W        W10268  30.770  40.459  12.125
45449W        W10269  33.952   2.234  12.253
45450W        W10270  25.404   8.836   0.824
45451W        W10271  13.683  29.620   2.469
45452W        W10272  37.787  27.437  11.136
45453W        W10273  23.164  13.587   0.312
45454W        W10274  20.708  41.774   3.627
45455W        W10275  36.542  29.397   0.810
45456W        W10276  34.475  13.416   3.820
45457W        W10277  30.146  10.605  10.413
45458W        W10278   7.895  32.009   4.570
45459W        W10279  34.098  11.471   3.344
45460W        W10280  10.612   9.298  13.350
45461W        W10281  16.374   9.949   1.962
45462W        W10282  32.387   2.061  13.132
45463W        W10283   4.359  33.449   2.707
45464W        W10284  32.369   9.683   2.858
45465W        W10285  35.592  31.148  12.183
45466W        W10286  22.536  30.153   4.370
45467W        W10287  10.833   0.626   1.841
45468W        W10288  38.902  21.320  10.258
45469W        W10289  13.138  37.456  11.985
45470W        W10290   6.169  21.819   1.332
45471W        W10291  25.224   1.935  11.541
45472W        W10292  29.700  36.357   0.010
45473W        W10293  33.333  26.921  12.098
45474W        W10294   9.835  17.499  12.010
45475W        W10295  34.148  44.711   0.372
45476W        W10296  14.970  41.041   2.387
45477W        W10297   7.264  23.744   1.248
45478W        W10298  34.082  10.640   3.797
45479W        W10299  41.662  12.826   1.531
45480W        W10300   4.190  19.095   1.468
45481W        W10301  30.130  11.195   2.936
45482W        W10302  16.152  13.070   0.389
45483W        W10303   1.261  10.962   3.936
45484W        W10304  30.605   9.321  11.178
45485W        W10305  34.126  27.514  11.593
45486W        W10306   4.787  23.530   4.232
45487W        W10307   1.011   0.560  11.994
45488W        W10308  23.438  26.242  11.646
45489W        W10309  14.071   9.819   1.218
45490W        W10310  18.336  29.236   1.489
45491W        W10311  18.647  29.091   4.755
45492W        W10312  20.639  30.720  12.993
45493W        W10313   6.789  29.495   1.262
45494W        W10314  14.186  22.466   0.266
45495W        W10315  29.058  37.880   2.466
45496W        W10316  29.556  18.205   1.950
45497W        W10317   7.079  36.529  14.721
45498W        W10318  10.629  38.544   1.757
45499W        W10319  27.136  30.022   3.204
45500W        W10320  31.898   7.377  11.074
45501W        W10321  34.110  35.419   1.078
45502W        W10322   8.773  10.343   5.188
45503W        W10323  25.060   2.221  12.384
45504W        W10324  28.490  44.603   0.604
45505W        W10325  13.609  16.486  13.248
45506W        W10326  39.763  18.761  12.907
45507W        W10327  26.035   9.887  12.435
45508W        W10328  14.378   5.218   3.582
45509W        W10329  28.878  14.290  12.535
45510W        W10330  12.602  34.516  12.543
45511W        W10331  38.029  26.048   0.793
45512W        W10332   6.872  16.733  12.340
45513W        W10333  23.714  36.526  12.804
45514W        W10334  43.035  36.704   4.041
45515W        W10335  26.974  43.503   1.845
45516W        W10336   4.438  27.274   1.875
45517W        W10337  35.966  30.185   2.360
45518W        W10338   9.997   7.366   9.906
45519W        W10339  41.630  12.023   1.714
45520W        W10340  39.047   1.928   3.750
45521W        W10341  18.374   7.047  12.883
45522W        W10342  35.077  35.125   4.986
45523W        W10343  43.310  41.876  12.833
45524W        W10344  20.763  18.259   2.327
45525W        W10345  30.363   8.878   0.286
45526W        W10346  36.377  40.962   2.927
45527W        W10347  27.516  37.908  10.266
45528W        W10348  10.395  37.932   0.865
45529W        W10349  31.658  32.689  12.094
45530W        W10350  42.943  19.197  14.351
45531W        W10351  22.927  11.146  13.145
45532W        W10352  17.216  20.767   0.880
45533W        W10353  19.269   0.787   1.313
45534W        W10354  12.650  21.057  13.913
45535W        W10355   3.206  12.280  14.868
45536W        W10356  40.450  26.666   2.128
45537W        W10357  11.087  24.468  12.575
45538W        W10358  26.624  15.859   1.662
45539W        W10359  27.713  24.011  14.160
45540W        W10360  36.001  23.381  10.247
45541W        W10361  24.464   0.802  11.574
45542W        W10362   7.445  35.098   4.646
45543W        W10363  19.756   7.690  11.683
45544W        W10364  25.495  22.093   1.702
45545W        W10365  26.852   4.737   3.291
45546W        W10366  37.130   6.953   0.289
45547W        W10367  10.570  34.954  10.681
45548W        W10368  18.540  42.892  11.560
45549W        W10369  44.324   8.212   1.483
45550W        W10370  17.225   2.682  11.434
45551W        W10371  41.189  24.198   1.176
45552W        W10372   4.858  34.956   0.308
45553W        W10373  21.059  24.396   4.111
45554W        W10374  27.756  29.587   1.871
45555W        W10375   0.023  40.105  10.430
45556W        W10376  13.828  42.451   1.661
45557W        W10377  19.672   8.549  11.978
45558W        W10378  42.998  17.867  14.821
45559W        W10379   5.138  20.790  12.027
45560W        W10380   5.122  26.245   4.844
45561W        W10381  10.725   7.286  13.867
45562W        W10382  35.370  34.161  14.326
45563W        W10383   2.180   5.692   2.874
45564W        W10384  13.911  38.867   0.419
45565W        W10385  22.449  12.428   1.181
45566W        W10386   8.916  30.925  11.930
45567W        W10387  18.637  25.491   3.895
45568W        W10388  33.641  12.782  10.578
45569W        W10389   5.683  42.226  14.957
45570W        W10390   1.710  13.197   4.496
45571W        W10391  14.030  28.999   0.864
45572W        W10392  18.791  35.779   0.817
45573W        W10393  32.895  43.512   0.717
45574W        W10394  29.621  30.438  11.201
45575W        W10395   2.365  28.453  12.944
45576W        W10396  24.488   3.500  12.093
45577W        W10397   7.851  10.224  10.668
45578W        W10398  30.107  10.873  14.287
45579W        W10399  14.054  39.041  10.791
45580W        W10400  32.294  24.144   1.219
45581W        W10401  28.956  13.872  13.953
45582W        W10402  44.346   0.000   4.473
45583W        W10403  10.589   4.944   2.670
45584W        W10404  14.415  40.181  14.894
45585W        W10405  26.365  25.679   1.944
45586W        W10406  36.461   1.028  14.912
45587W        W10407  28.057  24.689   4.112
45588W        W10408   2.938   5.847   2.185
45589W        W10409  39.744  39.920  13.292
45590W        W10410  23.718   2.157   1.158
45591W        W10411  10.024  35.156  10.151
45592W        W10412   2.211  33.810   0.709
45593W        W10413  25.888  12.996  12.988
45594W        W10414   8.717  17.626  14.787
45595W        W10415  21.376  24.806   0.004
45596W        W10416  18.092  41.781   4.155
45597W        W10417  27.620  26.699  12.472
45598W        W10418  29.006  21.038  12.551
45599W        W10419  19.321  30.234  11.048
45600W        W10420   1.255  37.409  13.305
45601W        W10421  23.745  44.488   3.576
45602W        W10422  41.400  18.748   0.367
45603W        W10423  19.655  37.584   1.399
45604W        W10424  42.744   6.192  13.977
45605W        W10425  20.976   0.815   0.844
45606W        W10426  16.039  17.047   0.248
45607W        W10427  14.227  24.074   2.648
45608W        W10428  35.992  26.895   0.575
45609W        W10429  44.289  10.308  10.688
45610W        W10430   6.019   9.993  10.802
45611W        W10431  11.749  20.701   4.138
45612W        W10432  16.694  19.594  13.959
45613W        W10433  27.440   9.241  13.403
45614W        W10434  14.891  22.585   2.338
45615W        W10435  24.575  26.133  10.706
45616W        W10436  31.401   9.974  12.922
45617W        W10437  24.560  21.663   2.363
45618W        W10438  40.609  30.826   4.192
45619W        W10439  19.101   4.279  12.857
45620W        W10440  14.048  18.982  12.010
45621W        W10441  23.088  11.643  14.087
45622W        W10442  24.792   9.334  12.479
45623W        W10443  20.133  40.514  11.314
45624W        W10444  11.179  35.864  13.250
45625W        W10445   8.319  18.805   3.019
45626W        W10446  35.411  17.190  13.981
45627W        W10447  15.768  32.049   0.952
45628W        W10448   7.329  28.142   0.021
45629W        W10449  10.268  21.490  14.728
45630W        W10450   6.402  19.311  10.281
45631W        W10451  11.612  30.102   3.663
45632W        W10452  32.441   7.787   4.490
45633W        W10453  36.290   9.653  13.624
45634W        W10454  13.193   4.875   0.645
45635W        W10455  19.651  17.077  11.678
45636W        W10456   7.282  30.083  13.817
45637W        W10457  25.516  44.916   2.699
45638W        W10458   6.651  16.063   1.383
45639W        W10459  13.722  18.129  13.014
45640W        W10460  38.719   7.418  10.776
45641W        W10461  31.634  30.606  13.658
45642W        W10462  29.420  34.526   4.188
45643W        W10463  35.987  14.236  13.196
45644W        W10464  43.981  39.905  13.565
45645W        W10465  13.750  13.876  10.265
45646W        W10466  33.870  33.469  11.876
45647W        W10467  13.221   8.823  10.786
45648W        W10468  39.118  39.374  10.419
45649W        W10469  29.426  40.326   2.091
45650W        W10470  27.230   1.339   3.933
45651W        W10471  28.423  13.242  11.929
45652W        W10472  13.747   4.156   4.652
45653W        W10473  15.570  42.713   0.337
45654W        W10474  13.769  20.584  12.675
45655W        W10475   8.715  11.361   4.593
45656W        W10476  21.667  14.526   0.017
45657W        W10477  19.858  17.932  14.382
45658W        W10478  28.445  30.153   3.626
45659W        W10479  24.327  21.350   2.699
45660W        W10480   1.031  41.725  10.229
45661W        W10481   7.416  40.982  12.212
45662W        W10482  30.826  16.140  13.856
45663W        W10483  39.041  35.501  13.911
45664W        W10484   3.789  18.088   0.722
45665W        W10485  22.581  14.057   0.860
45666W        W10486  28.739   6.219  12.443
45667W        W10487  26.424   4.503  11.313
45668W        W10488  29.872  16.998   1.756
45669W        W10489  36.049  33.389   2.459
45670W        W10490  40.056  12.168   2.160
45671W        W10491  21.539   5.506  10.687
45672W        W10492  19.483  23.605  13.882
45673W        W10493  10.132   5.583  13.451
45674W        W10494  20.759   3.089   2.659
45675W        W10495   4.175  27.226  11.174
45676W        W10496  26.450  12.673  13.846
45677W        W10497  24.211  44.155  11.953
45678W        W10498  44.710   5.710  14.878
45679W        W10499  33.017  27.442   4.763
45680W        W10500  40.598   6.977   5.193
45681W        W10501   9.676  34.897   3.721
45682W        W10502  19.554  26.262  12.662
45683W        W10503  30.514  13.558   4.114
45684W        W10504   3.264  42.129   5.052
45685W        W10505  16.241  21.479  12.613
45686W        W10506  29.826  22.183  14.923
45687W        W10507   3.166  43.945  11.977
45688W        W10508  26.263   4.237   1.751
45689W        W10509  19.331   7.749   1.843
45690W        W10510  20.991  31.840  13.544
45691W        W10511  44.012   7.307   4.620
45692W        W10512   6.892  25.178   0.130
45693W        W10513  35.878   5.320  11.973
45694W        W10514   5.755  26.697  11.129
45695W        W10515   9.911  25.515   2.755
45696W        W10516  42.928  29.332  11.744
45697W        W10517  11.209   8.397   2.930
45698W        W10518  20.951   9.597  10.591
45699W        W10519   2.199   7.897   2.235
45700W        W10520   9.430   2.629   2.791
45701W        W10521   2.586  32.366  13.598
45702W        W10522  11.430   4.033   4.088
45703W        W10523  42.539  13.042  11.203
45704W        W10524  20.269  34.356   1.408
45705W        W10525  39.579   1.793   3.357
45706W        W10526   4.469  23.277  13.417
45707W        W10527   6.684   4.787  13.720
45708W        W10528   4.469  42.821   1.682
45709W        W10529  21.494   4.797   0.713
45710W        W10530   6.573  38.514  13.512
45711W        W10531  44.906   5.620  10.535
45712W        W10532  25.648  31.768   0.314
45713W        W10533   7.743   0.542  13.935
45714W        W10534   5.360  36.779   1.314
45715W        W10535  19.774   7.833   3.072
45716W        W10536  44.395   4.582   4.210
45717W        W10537  12.818   0.813   3.429
45718W        W10538  37.562  21.966  13.732
45719W        W10539  41.490   0.060  12.973
45720W        W10540  16.255  17.339  12.965
45721W        W10541  13.150   2.041  11.106
45722W        W10542  22.792  10.453   4.955
45723W        W10543  30.637  34.353  12.443
45724W        W10544  43.242  33.433  13.286
45725W        W10545  36.038  41.522  10.629
45726W        W10546   8.270  31.143   1.377
45727W        W10547  40.487  35.726   0.334
45728W        W10548  24.030  32.500  10.972
45729W        W10549  10.603  38.298  12.630
45730W        W10550  43.760  37.276   3.696
45731W        W10551  35.985   7.929   2.361
45732W        W10552  11.709  14.696  14.417
45733W        W10553  37.514  35.332   3.189
45734W        W10554  39.105   1.302  12.499
45735W        W10555  13.479  41.128  14.830
45736W        W10556  32.091  24.952  12.189
45737W        W10557  38.109  29.891  14.283
45738W        W10558  19.362  15.696  14.362
45739W        W10559  18.677  26.169   1.043
45740W        W10560  32.851   1.953   3.170
45741W        W10561  13.418  33.868  14.282
45742W        W10562  22.469  42.237  13.342
45743W        W10563  13.999  44.439   2.691
45744W        W10564  31.847  34.756  13.928
45745W        W10565  24.186  22.344   2.952
45746W        W10566  17.773  43.236  12.570
45747W        W10567  27.779  14.310   3.318
45748W        W10568   9.423  32.104   3.196
45749W        W10569   3.139  26.640  10.992
45750W        W10570  38.497   3.466   4.577
45751W        W10571  44.735  33.423  10.407
45752W        W10572  20.123  29.518  12.851
45753W        W10573   0.597   2.624  13.427
45754W        W10574   4.487  31.944   3.090
45755W        W10575  25.798  29.008   4.920
45756W        W10576  15.526  35.093   0.889
45757W        W10577  22.696  37.712  11.188
45758W        W10578  43.042   6.756   2.355
45759W        W10579  22.626  38.469   4.563
45760W        W10580  17.087  26.659   3.707
45761W        W10581  12.778  14.412  14.410
45762W        W10582  21.135  21.075  14.591
45763W        W10583  22.969   3.982  13.337
45764W        W10584  34.160  35.246   2.121
45765W        W10585  34.780  19.120  10.305
45766W        W10586  44.939  36.808  13.959
45767W        W10587  13.254  11.165   0.903
45768W        W10588  17.530  16.842   4.054
45769W        W10589   0.254  10.674   1.748
45770W        W10590  34.307  14.713   1.836
45771W        W10591  40.177  27.420   1.773
45772W        W10592  42.829  12.697  13.413
45773W        W10593  22.655  35.187  13.448
45774W        W10594  20.220  38.346   4.570
45775W        W10595  25.686  12.113  11.174
45776W        W10596  27.156  23.573   3.796
45777W        W10597   1.441  40.765  11.600
45778W        W10598  25.637  24.519  10.543
45779W        W10599  11.402  18.151  14.802
45780W        W10600  24.892   8.969   0.844
45781W        W10601   6.180  33.392   1.296
45782W        W10602  33.970  14.242  10.419
45783W        W10603  11.620  42.879   0.694
45784W        W10604  12.800  42.352  13.046
45785W        W10605  16.344  35.587  11.990
45786W        W10606  14.710  27.414  12.570
45787W        W10607  33.031  22.755  11.212
45788W        W10608  15.083  30.665   2.808
45789W        W10609  32.325   6.440  14.914
45790W        W10610  15.264  11.431   3.366
45791W        W10611  10.178  18.157   1.795
45792W        W10612  24.154  35.833  11.784
45793W        W10613   1.295  34.619  14.894
45794W        W10614   0.494  21.266  13.524
45795W        W10615  28.633   5.933   0.169
45796W        W10616  32.816   8.119   4.654
45797W        W10617   8.747   7.211   2.130
45798W        W10618  16.492  29.599   2.693
45799W        W10619  33.895  32.327   3.712
45800W        W10620  22.968  21.206   0.408
45801W        W10621   6.173  20.719  14.836
45802W        W10622  15.737  31.226   4.438
45803W        W10623  39.237   0.980   3.602
45804W        W10624   7.194  29.874  11.981
45805W        W10625   1.034   0.161  12.885
45806W        W10626   2.421   0.480  13.078
45807W        W10627   6.991  10.131  11.395
45808W        W10628   8.871   5.828   2.414
45809W        W10629  19.118  41.583   2.829
45810W        W10630  21.204   8.962  12.421
45811W        W10631   4.192  43.875  13.413
45812W        W10632  20.771  36.994   1.900
45813W        W10633  39.931   5.201   0.731
45814W        W10634  15.306  19.191   1.992
45815W        W10635  23.216  21.837  12.838
45816W        W10636  42.493   2.805   4.604
45817W        W10637   0.034   5.738  12.401
45818W        W10638  19.046  42.999  11.663
45819W        W10639  36.693  26.069   9.933
45820W        W10640  23.511  39.623  12.142
45821W        W10641  21.653   3.167   1.329
45822W        W10642   8.280  29.844   2.784
45823W        W10643  42.870  10.104  10.710
45824W        W10644  26.517  24.221  12.915
45825W        W10645   0.923  27.634   1.007
45826W        W10646  31.272  43.271   3.669
45827W        W10647  31.093  41.140  12.588
45828W        W10648   9.796  25.659   1.791
45829W        W10649  18.827  42.365   2.391
45830W        W10650   4.965   5.352   9.999
45831W        W10651  40.801  14.227   2.693
45832W        W10652  33.196   2.613  14.850
45833W        W10653  43.365  15.022  12.639
45834W        W10654  36.933   9.120   1.462
45835W        W10655  35.137   1.344  10.702
45836W        W10656   9.153  32.534  12.331
45837W        W10657  13.321  14.204   1.298
45838W        W10658  39.856  37.779   3.687
45839W        W10659   0.939  39.267   3.286
45840W        W10660  33.367  11.441  11.533
45841W        W10661  35.346  42.987   1.340
45842W        W10662  24.698  29.764  14.528
45843W        W10663   6.152   6.984  13.383
45844W        W10664  28.572  32.156   3.261
45845W        W10665   8.266  14.569   4.614
45846W        W10666  41.507  29.604   2.309
45847W        W10667  26.230  15.814  12.292
45848W        W10668  38.886  22.676  11.975
45849W        W10669   7.654  12.708   3.177
45850W        W10670   2.144  24.625   1.256
45851W        W10671   7.898  25.516   1.779
45852W        W10672  16.498  35.291   2.854
45853W        W10673  44.017   2.349  14.501
45854W        W10674  36.885  16.542  12.414
45855W        W10675   3.629  35.219   2.104
45856W        W10676  39.488  30.620  11.615
45857W        W10677  35.630  28.882   3.015
45858W        W10678  17.061   3.270  10.622
45859W        W10679  38.833   5.815   3.671
45860W        W10680  33.738  10.265  10.992
45861W        W10681  40.240   7.272  13.219
45862W        W10682  32.166  31.826   4.088
45863W        W10683  24.752  23.157  11.921
45864W        W10684  23.203  29.637   0.780
45865W        W10685  32.606  41.252  13.627
45866W        W10686  11.959  21.158  11.123
45867W        W10687   8.552   9.736  12.496
45868W        W10688  34.382  25.898  14.851
45869W        W10689  24.222  20.723  14.348
45870W        W10690  22.729  31.564   1.018
45871W        W10691  41.227  24.586   3.703
45872W        W10692  39.847  25.053  12.548
45873W        W10693  34.082   4.326   4.353
45874W        W10694  10.514  30.567  10.749
45875W        W10695   5.355  33.992   3.762
45876W        W10696   9.642  26.958   2.134
45877W        W10697  30.665  42.541  10.783
45878W        W10698  23.959   4.882   2.716
45879W        W10699  44.708  39.486  13.941
45880W        W10700   0.398  40.205  14.537
45881W        W10701  38.628  19.112   2.234
45882W        W10702   0.783   4.948  12.474
45883W        W10703  43.464   4.209   3.727
45884W        W10704  42.715   7.884   4.718
45885W        W10705  18.639  34.791  13.857
45886W        W10706  43.534  31.079   0.915
45887W        W10707  37.497  37.667   2.728
45888W        W10708  15.612  37.602   1.868
45889W        W10709   7.201  32.138   3.177
45890W        W10710  20.256   0.536   3.701
45891W        W10711   8.766  34.161  13.182
45892W        W10712  35.792  34.191  13.979
45893W        W10713  21.556  30.795   1.933
45894W        W10714  34.150  34.443  11.172
45895W        W10715  44.308  28.302  14.221
45896W        W10716   7.311  28.629  10.283
45897W        W10717  38.319   4.604  14.832
45898W        W10718  38.491   2.138  12.573
45899W        W10719  14.267  25.881   3.654
45900W        W10720  41.297  31.472   3.426
45901W        W10721  16.576   0.879  11.416
45902W        W10722  23.829  43.634   2.730
45903W        W10723   8.741   1.471   4.023
45904W        W10724   3.488   3.892  10.516
45905W        W10725  38.227   5.667   3.436
45906W        W10726   1.378  28.007  14.721
45907W        W10727  10.439   0.845  13.801
45908W        W10728  12.161  37.097  13.222
45909W        W10729  13.635  21.487   1.695
45910W        W10730  32.652  42.332   0.879
45911W        W10731  17.347  13.187   4.781
45912W        W10732  19.646  44.908   4.219
45913W        W10733  44.391   0.808   5.031
45914W        W10734   2.089  31.005   1.773
45915W        W10735  17.615   8.544   0.760
45916W        W10736   0.830  28.774  11.917
45917W        W10737  17.082  19.391   5.024
45918W        W10738  23.129  20.721   1.942
45919W        W10739  16.996  11.996   4.218
45920W        W10740  32.833  28.669   1.676
45921W        W10741  14.839  17.538  14.926
45922W        W10742  34.689  35.004   4.100
45923W        W10743  26.017  43.374  13.433
45924W        W10744  34.054  14.074  10.888
45925W        W10745  25.071  41.106   1.760
45926W        W10746  20.332  32.109   9.977
45927W        W10747   3.832  28.107   2.655
45928W        W10748  40.014  21.176   4.542
45929W        W10749  35.841  43.083   1.450
45930W        W10750  31.075  40.844  13.805
45931W        W10751  30.506  20.321  12.404
45932W        W10752  21.545  10.727   5.049
45933W        W10753  33.157  43.468  11.154
45934W        W10754  20.376  14.239  10.708
45935W        W10755   1.541  25.957  14.876
45936W        W10756   5.276   2.314   4.407
45937W        W10757  29.238  32.516   1.044
45938W        W10758  28.406  27.642   4.534
45939W        W10759  38.134  28.770  14.876
45940W        W10760  24.030  31.593   0.522
45941W        W10761  39.190  21.735  10.439
45942W        W10762  10.361  36.970  13.937
45943W        W10763  34.871  31.617   4.659
45944W        W10764  27.758   8.684   2.307
45945W        W10765  37.923  15.355   4.181
45946W        W10766   7.595  43.065  12.441
45947W        W10767  13.261  20.108  14.910
45948W        W10768   3.749  14.189   2.742
45949W        W10769   3.156  23.514  13.409
45950W        W10770  17.601  40.815  12.047
45951W        W10771  10.084  15.054  14.985
45952W        W10772  38.819   7.128   4.754
45953W        W10773   6.632  35.561  13.822
45954W        W10774  22.655   3.420   4.733
45955W        W10775  11.727  37.974  10.675
45956W        W10776  32.663  29.651  12.158
45957W        W10777  21.782  39.817  12.603
45958W        W10778   2.596  31.750   4.155
45959W        W10779  41.164  28.913  10.810
45960W        W10780  33.663  28.847   9.630
45961W        W10781  36.200  24.149  12.932
45962W        W10782   3.110   0.686   4.194
45963W        W10783  44.514  23.214  11.588
45964W        W10784   8.887  37.596   3.297
45965W        W10785   4.968  29.448   1.826
45966W        W10786  32.989  44.756   3.173
45967W        W10787  18.070  34.020   1.845
45968W        W10788   7.781  22.134   1.761
45969W        W10789  22.057  37.508  13.438
45970W        W10790  43.340   9.850  10.723
45971W        W10791   6.638  18.119   4.381
45972W        W10792  39.200  33.163   4.594
45973W        W10793   4.856  14.661  14.008
45974W        W10794   8.432  20.003   4.662
45975W        W10795   3.253  35.437  11.232
45976W        W10796  25.306   1.486  13.785
45977W        W10797  24.195   7.149   4.852
45978W        W10798  33.497  13.183   0.323
45979W        W10799  35.597  15.200   0.254
45980W        W10800  19.113  11.923   1.332
45981W        W10801  35.920   5.741   4.475
45982W        W10802  35.582  29.171  12.339
45983W        W10803  17.004   6.673   2.611
45984W        W10804   8.180  29.895  11.678
45985W        W10805  19.642  16.461   0.326
45986W        W10806   1.884  36.934  10.990
45987W        W10807   1.531  33.208   0.756
45988W        W10808  30.123  40.441   1.877
45989W        W10809   5.462  39.902   4.930
45990W        W10810  16.303  29.367  11.363
45991W        W10811  12.568  24.949  14.794
45992W        W10812   4.191  35.606  14.309
45993W        W10813   0.250  23.262  11.123
45994W        W10814  22.638  27.343  11.105
45995W        W10815   0.209  16.058  10.482
45996W        W10816  29.621  33.655   0.189
45997W        W10817  37.446  18.549  14.269
45998W        W10818   6.072  29.858   5.088
45999W        W10819  28.513  26.541  10.496
46000W        W10820   2.573   5.740  12.822
46001W        W10821   3.667  26.043  11.517
46002W        W10822  13.229  42.950  12.439
46003W        W10823  24.566  27.128   5.064
46004W        W10824  29.105  12.775  11.367
46005W        W10825  21.647   2.256   4.529
46006W        W10826  11.277  35.158   3.410
46007W        W10827  19.257   9.197  11.830
46008W        W10828  34.560  19.823   2.002
46009W        W10829  42.918  41.627  14.317
46010W        W10830  35.361   9.798   4.901
46011W        W10831  28.224  28.394   9.933
46012W        W10832  26.096  10.402  12.387
46013W        W10833  42.866  18.117   4.021
46014W        W10834  40.763  28.189  11.095
46015W        W10835  43.150  13.337  12.860
46016W        W10836  22.427  31.111   0.988
46017W        W10837  12.045  19.727  13.115
46018W        W10838  38.371   0.417  14.853
46019W        W10839   5.670  27.669   2.142
46020W        W10840   5.209  21.169   1.947
46021W        W10841  30.399  42.797   3.329
46022W        W10842   5.348  23.876   3.163
46023W        W10843  20.934  40.053   1.659
46024W        W10844  27.208  11.769   1.912
46025W        W10845  18.123  34.219   4.347
46026W        W10846  20.960  43.485  14.830
46027W        W10847  42.755  43.955  11.510
46028W        W10848   4.463  28.185   0.893
46029W        W10849   8.636   0.722  11.861
46030W        W10850   5.117  41.512  12.941
46031W        W10851  41.346   6.356  11.575
46032W        W10852  22.670  10.279  12.463
46033W        W10853  23.246   4.030  12.397
46034W        W10854  39.952   7.469   1.224
46035W        W10855   5.238  37.536   0.442
46036W        W10856  14.421  40.624  13.548
46037W        W10857  12.537  33.214   3.670
46038W        W10858  29.356  40.820   2.179
46039W        W10859  24.485  36.368   1.853
46040W        W10860   2.460  43.522  13.409
46041W        W10861  16.404   4.513   2.806
46042W        W10862  27.049  29.848  10.306
46043W        W10863  25.142  23.852  13.930
46044W        W10864  21.769  15.294   0.366
46045W        W10865  21.086  39.301  13.074
46046W        W10866  28.970  31.539  13.564
46047W        W10867  43.265  29.571  13.325
46048W        W10868   3.314  43.536  13.381
46049W        W10869  41.792  28.949  10.705
46050W        W10870  24.975  13.284  11.156
46051W        W10871   6.831  19.694   3.783
46052W        W10872  34.838   2.229   2.455
46053W        W10873  25.702  39.100   2.408
46054W        W10874  21.623  35.106   0.824
46055W        W10875   7.489   7.711   1.799
46056W        W10876  27.056  34.012   1.682
46057W        W10877   2.202   8.383  10.613
46058W        W10878  34.096  24.988  14.352
46059W        W10879  43.886  33.551  14.375
46060W        W10880  24.757  41.551  12.648
46061W        W10881  21.903  17.412  12.263
46062W        W10882  16.198   4.495  12.169
46063W        W10883   6.922  33.688   3.845
46064W        W10884   4.818  34.119  14.846
46065W        W10885  10.212  32.399  14.442
46066W        W10886  21.973  22.980  10.525
46067W        W10887  36.385  44.274  11.205
46068W        W10888  17.080  23.562   0.740
46069W        W10889  41.942   2.337  10.968
46070W        W10890  29.897  28.736   2.223
46071W        W10891  39.813   7.797   4.600
46072W        W10892   5.281  18.838  14.745
46073W        W10893  39.339  37.378  11.237
46074W        W10894  24.540  35.066  10.249
46075W        W10895  17.937  18.724  13.511
46076W        W10896   2.775   3.212  12.582
46077W        W10897  35.211  12.806  12.719
46078W        W10898   6.588  39.491   0.619
46079W        W10899  15.660   2.824   4.750
46080W        W10900   4.901  25.456   0.783
46081W        W10901  37.069  44.539  13.409
46082W        W10902   8.401  16.680  10.905
46083W        W10903  41.790  33.095  12.596
46084W        W10904  44.451  15.629  10.265
46085W        W10905  33.489  42.967  12.134
46086W        W10906   4.228   3.494   3.458
46087W        W10907  19.667  39.052   0.734
46088W        W10908  27.491   2.744   3.558
46089W        W10909  25.206  19.338   0.867
46090W        W10910   3.314  23.049  14.383
46091W        W10911  13.031  29.364  10.678
46092W        W10912   2.131  38.202   3.380
46093W        W10913  25.624  18.719   3.544
46094W        W10914  43.444  22.082   0.807
46095W        W10915  28.571  28.429  14.415
46096W        W10916   2.526  14.881  11.150
46097W        W10917  21.075   4.142  10.754
46098W        W10918  43.763  10.727  12.107
46099W        W10919  13.258   6.789   2.474
46100W        W10920  11.407  21.244   1.973
46101W        W10921   4.126  33.422  14.091
46102W        W10922  30.930   3.999  14.443
46103W        W10923  35.359  11.196  12.992
46104W        W10924  40.089   9.749   3.171
46105W        W10925  43.961   8.161  14.826
46106W        W10926  11.092  40.345   1.804
46107W        W10927   9.343  34.472   3.604
46108W        W10928  33.187  32.693  10.003
46109W        W10929  30.177  15.320  13.896
46110W        W10930  22.551  23.907  10.427
46111W        W10931  24.985  30.591   4.752
46112W        W10932   9.762  15.782  11.726
46113W        W10933   2.574  20.242   2.817
46114W        W10934  40.777   9.114  12.469
46115W        W10935  32.613  38.325  11.294
46116W        W10936  14.277  17.046  11.115
46117W        W10937  30.185  33.415   3.870
46118W        W10938  23.132  39.363   2.853
46119W        W10939   3.233  29.552   4.565
46120W        W10940  32.719  32.713  11.030
46121W        W10941  10.217  14.126  11.518
46122W        W10942  26.918  28.179  14.794
46123W        W10943  15.218  24.753   2.401
46124W        W10944  22.238  36.087  10.671
46125W        W10945  32.307   5.424   4.384
46126W        W10946  29.205  17.131  14.748
46127W        W10947  14.059  18.872  13.187
46128W        W10948  39.467  25.973   3.208
46129W        W10949  14.189   0.721  11.130
46130W        W10950  21.498  29.792   2.887
46131W        W10951  10.232  31.980   1.479
46132W        W10952  31.238  33.012  12.086
46133W        W10953  28.983  24.890   2.314
46134W        W10954  19.514   3.989  13.835
46135W        W10955  42.992   0.245  11.189
46136W        W10956  42.947  27.424  11.914
46137W        W10957  34.523   7.525  12.492
46138W        W10958   0.990  13.743  13.877
46139W        W10959   4.513   6.332   1.692
46140W        W10960  41.517  14.639  12.053
46141W        W10961   7.464  18.764   0.965
46142W        W10962   8.123  30.317  13.567
46143W        W10963  28.350   4.405   1.345
46144W        W10964   9.403   5.329   4.067
46145W        W10965  11.089  11.639   2.206
46146W        W10966  28.056  40.898  14.096
46147W        W10967  33.137  27.952   1.929
46148W        W10968  43.965   6.362   4.605
46149W        W10969  34.548  30.626  14.833
46150W        W10970   9.886   5.514   4.040
46151W        W10971  21.565  14.754   2.220
46152W        W10972   2.322  14.301  13.734
46153W        W10973  31.949   0.500  13.413
46154W        W10974  39.025  16.439   4.595
46155W        W10975  40.454  14.754  13.687
46156W        W10976  34.382  20.072   4.547
46157W        W10977  44.381  36.216  14.333
46158W        W10978   6.808   6.323  12.923
46159W        W10979   4.690  12.103   2.327
46160W        W10980  31.292  18.726   0.146
46161W        W10981  22.910  22.389   9.834
46162W        W10982  15.523   8.138  14.395
46163W        W10983  30.162  25.072   0.848
46164W        W10984  10.793   3.573  11.525
46165W        W10985  39.729  17.690   0.209
46166W        W10986   2.334   4.019   1.309
46167W        W10987   2.217   7.993  12.418
46168W        W10988  18.624  44.587   0.422
46169W        W10989   7.791  14.062  14.952
46170W        W10990  27.194  25.146  13.084
46171W        W10991  40.866   3.663  11.070
46172W        W10992   9.327   0.709   3.733
46173W        W10993  19.031   2.503  11.615
46174W        W10994  13.169  21.117  13.828
46175W        W10995   0.767  29.561  13.486
46176W        W10996  21.881  34.921  11.300
46177W        W10997   9.228  15.239   5.180
46178W        W10998  34.417   0.945  12.907
46179W        W10999  15.146  13.085   4.190
46180W        W11000  42.435  32.940  13.294
46181W        W11001  10.664  14.070   5.529
46182W        W11002  32.432  14.585  11.996
46183W        W11003  31.698   4.137  11.172
46184W        W11004  29.993  10.938  11.455
46185W        W11005  15.202  15.243  12.987
46186W        W11006   0.435  40.772  12.444
46187W        W11007  33.077  39.529  10.728
46188W        W11008   2.755   5.008  13.145
46189W        W11009  23.034  39.507  14.991
46190W        W11010  40.504  30.254  12.077
46191W        W11011  10.637  21.753   0.728
46192W        W11012  16.646   8.802   4.493
46193W        W11013  39.951  27.081  14.901
46194W        W11014  17.466  12.249  11.444
46195W        W11015   6.660   3.851   0.745
46196W        W11016  42.999  32.769  12.561
46197W        W11017  15.622  43.395  13.562
46198W        W11018  38.340   0.703   4.791
46199W        W11019  44.444   3.500   2.186
46200W        W11020   3.492   8.787  12.015
46201W        W11021   5.675  35.060  10.944
46202W        W11022  19.504  22.066  14.013
46203W        W11023   4.914   2.192  11.494
46204W        W11024  12.327  22.963  14.803
46205W        W11025  33.539  32.757  14.697
46206W        W11026  14.374  33.059  13.595
46207W        W11027  21.200  37.902   3.686
46208W        W11028  27.739  30.157  14.470
46209W        W11029  28.705  31.458  11.113
46210W        W11030   7.829  13.655   0.273
46211W        W11031   0.021  40.922  11.607
46212W        W11032  43.547   2.685  11.932
46213W        W11033  23.781  19.067   0.823
46214W        W11034  29.409  25.340  11.582
46215W        W11035  39.807   5.227  12.835
46216W        W11036  29.606  41.062   0.453
46217W        W11037  38.121  12.053   4.093
46218W        W11038  36.393  20.683  13.582
46219W        W11039  13.142  41.046  13.821
46220W        W11040   1.406  10.699   0.950
46221W        W11041  10.411  21.312  11.904
46222W        W11042  40.725  40.796  11.588
46223W        W11043  14.783  37.836  13.104
46224W        W11044  37.357   9.490  14.413
46225W        W11045  38.048  40.543  10.699
46226W        W11046  37.898  44.368  12.646
46227W        W11047  30.408  43.886   0.374
46228W        W11048  38.026  13.683  11.160
46229W        W11049  25.439   2.899  11.032
46230W        W11050  17.860  17.656  13.965
46231W        W11051  35.393   2.118  14.060
46232W        W11052  44.530  43.725   2.736
46233W        W11053  19.483  27.606  13.119
46234W        W11054  42.246  30.235  11.227
46235W        W11055  44.004  44.048  14.754
46236W        W11056   1.405  37.277  11.502
46237W        W11057  13.346  13.866  12.728
46238W        W11058  32.842  40.017  13.317
46239W        W11059  40.558   7.371   4.333
46240W        W11060   5.960  23.792   9.864
46241W        W11061  44.937  34.812  13.918
46242W        W11062  43.269  25.545  11.591
46243W        W11063  32.524   1.909  12.676
46244W        W11064  20.433   9.586  12.523
46245W        W11065  11.068  40.385  13.969
46246W        W11066  14.727  11.005  11.767
46247W        W11067  22.055   4.771  13.102
46248W        W11068  24.102  40.460   0.391
46249W        W11069  28.103  19.156  14.506
46250W        W11070  32.383  25.100  14.262
46251W        W11071   7.609   8.844   1.023
46252W        W11072  36.022  26.720   0.092
46253W        W11073   4.851  18.931   2.915
46254W        W11074  31.122  32.369  14.450
46255W        W11075  33.500  32.509   2.773
46256W        W11076   9.013   3.552   2.880
46257W        W11077  11.074  29.313  12.490
46258W        W11078   2.128  12.612  12.022
46259W        W11079  24.544   4.416   1.350
46260W        W11080  22.326  14.563   1.334
46261W        W11081  36.994  18.308   0.431
46262W        W11082  44.495   5.949   3.165
46263W        W11083  13.226  10.177   5.537
46264W        W11084  27.526  30.169  13.535
46265W        W11085  42.009  28.911   0.760
46266W        W11086  44.449  31.204  12.190
46267W        W11087  41.949  42.817  13.350
46268W        W11088  18.776  12.643   3.752
46269W        W11089  33.050  15.648  14.917
46270W        W11090  10.420  38.352  13.318
46271W        W11091  44.320   4.255   3.809
46272W        W11092   5.786  35.829  13.983
46273W        W11093  41.855  19.119   1.015
46274W        W11094  26.609  10.797  12.058
46275W        W11095  20.207   2.379   3.224
46276W        W11096   3.377  18.166  12.655
46277W        W11097  19.628   6.784  13.053
46278W        W11098  35.596  44.232  11.641
46279W        W11099  36.189  43.627  14.007
46280W        W11100  15.384  29.235   1.822
46281W        W11101  37.278  10.991  14.532
46282W        W11102  41.755  32.012   4.547
46283W        W11103  30.159  21.973  13.902
46284W        W11104  13.121  41.012  12.141
46285W        W11105  43.953  24.642  11.324
46286W        W11106  11.201   5.402  13.714
46287W        W11107  29.338  19.554  12.026
46288W        W11108   6.141  10.142  14.807
46289W        W11109  14.837  26.582  10.530
46290W        W11110  41.870  34.152   2.427
46291W        W11111  10.900  37.797   4.573
46292W        W11112  35.530  42.823   0.457
46293W        W11113  15.146  26.273   2.256
46294W        W11114  36.914  19.463  11.501
46295W        W11115   1.376  15.841  13.497
46296W        W11116  25.113  13.222  12.598
46297W        W11117   2.199   5.585  12.461
46298W        W11118  38.526  13.625   4.315
46299W        W11119  14.688   3.135   1.892
46300W        W11120  34.447   2.686   2.369
46301W        W11121  43.853   8.839   4.367
46302W        W11122  17.392  31.614  13.079
46303W        W11123   3.801  25.132   4.534
46304W        W11124   2.369  25.486  10.811
46305W        W11125  39.615  40.936   3.786
46306W        W11126  36.918  33.655  11.987
46307W        W11127  16.327  25.090  14.759
46308W        W11128  39.915  19.322  13.646
46309W        W11129  30.442   9.105  13.810
46310W        W11130  36.405   8.200   2.556
46311W        W11131  27.139   1.231   4.858
46312W        W11132   7.326  17.728   0.490
46313W        W11133   7.834  23.547   2.315
46314W        W11134   3.207  14.325   3.646
46315W        W11135  29.026  16.340   0.916
46316W        W11136  12.123  31.289  13.823
46317W        W11137  12.361  10.824  13.590
46318W        W11138   8.147  32.359  13.891
46319W        W11139  26.002   9.820  11.065
46320W        W11140  22.770  19.725  14.471
46321W        W11141  21.796   5.783  14.741
46322W        W11142   5.397  37.160   4.223
46323W        W11143   6.359  28.271  11.504
46324W        W11144  24.737  29.710  12.987
46325W        W11145  22.686  34.109  12.690
46326W        W11146  25.054  24.464  12.934
46327W        W11147  30.282  27.922  14.452
46328W        W11148   6.757  28.174  12.847
46329W        W11149   8.689   0.251   0.219
46330W        W11150   8.298   3.724   2.870
46331W        W11151  40.602  21.358  14.351
46332W        W11152  10.852  10.243  10.975
46333W        W11153  28.421  30.961  11.062
46334W        W11154   6.508  36.591  14.554
46335W        W11155   2.932  17.041  11.359
46336W        W11156   7.981  28.037   3.634
46337W        W11157  26.977  15.125   0.705
46338W        W11158  24.547  14.727   1.762
46339W        W11159  16.190   0.709  12.966
46340W        W11160   1.315  35.451  10.690
46341W        W11161  37.873  18.612  10.217
46342W        W11162  28.888  32.962  11.078
46343W        W11163   3.323  17.127  11.001
46344W        W11164  22.659  31.050  10.571
46345W        W11165  22.129  31.935  12.971
46346W        W11166  43.760  15.354   1.080
46347W        W11167   8.965   4.517   3.239
46348W        W11168  16.236  16.238   1.688
46349W        W11169  43.358  12.725  13.360
46350W        W11170  21.189  13.858  13.258
46351W        W11171   0.943  20.695   4.043
46352W        W11172  24.645   1.910  12.349
46353W        W11173  26.172  11.580  11.868
46354W        W11174  34.480   8.215   4.556
46355W        W11175  31.554   3.374   3.334
46356W        W11176  42.797   1.173   0.010
46357W        W11177  20.879  15.603  12.436
46358W        W11178  37.143   9.653  11.776
46359W        W11179  27.509   2.414   0.934
46360W        W11180  39.495  18.106  13.957
46361W        W11181  20.518  12.252  14.572
46362W        W11182  28.402  31.932   2.703
46363W        W11183   7.152   4.734  14.852
46364W        W11184   9.360   7.647  10.944
46365W        W11185  30.579  13.326   4.961
46366W        W11186   3.191  18.371  13.580
46367W        W11187  44.980  27.174   3.558
46368W        W11188  10.263  13.533  10.726
46369W        W11189  22.042   3.354   3.656
46370W        W11190  41.845  13.269   4.679
46371W        W11191  19.334  11.825   3.531
46372W        W11192  42.051  36.083  13.001
46373W        W11193  21.304  33.494  13.047
46374W        W11194  42.038  33.566   0.257
46375W        W11195  33.881  28.123   0.259
46376W        W11196  31.847   9.028   2.310
46377W        W11197  28.605  22.241   3.700
46378W        W11198  29.173  38.860   1.960
46379W        W11199  26.633  29.461  11.993
46380W        W11200  31.525  43.657  13.588
46381W        W11201  31.328  12.419  14.676
46382W        W11202  20.148  30.985  14.850
46383W        W11203   1.768  23.528  12.507
46384W        W11204  15.021  34.004   1.799
46385W        W11205  28.709  36.554   0.591
46386W        W11206  21.126  44.654   5.079
46387W        W11207  17.512   6.322   0.249
46388W        W11208   1.449  21.880   1.348
46389W        W11209  21.592  32.926  13.356
46390W        W11210  31.624   6.883   0.353
46391W        W11211  18.020  37.395  10.327
46392W        W11212   9.177   3.840  11.104
46393W        W11213  13.748  33.363  11.068
46394W        W11214  30.206  42.280  13.043
46395W        W11215   4.160  19.059  12.574
46396W        W11216  18.610   9.921   3.344
46397W        W11217  31.683  30.003  14.867
46398W        W11218  13.058  11.245  12.565
46399W        W11219  38.397  23.114  12.917
46400W        W11220   5.286  29.041   4.371
46401W        W11221  39.091  40.327   4.076
46402W        W11222  38.486   5.090   0.917
46403W        W11223   7.793   5.046  11.383
46404W        W11224  21.009  11.073   1.870
46405W        W11225  38.047   1.819  13.974
46406W        W11226  36.524  44.323   3.674
46407W        W11227  20.754  32.778   3.554
46408W        W11228  30.564  28.159   1.875
46409W        W11229  20.299   2.384   0.298
46410W        W11230  11.670   2.567   0.238
46411W        W11231  17.555  41.273   9.844
46412W        W11232  14.691  26.753   0.783
46413W        W11233  37.099   9.301  14.000
46414W        W11234  23.407   4.252   4.137
46415W        W11235   1.209  18.225   4.253
46416W        W11236   6.840  37.463   1.062
46417W        W11237  28.478  10.894   4.770
46418W        W11238  43.878  25.582  13.473
46419W        W11239  44.882  43.894  12.087
46420W        W11240  11.981  20.583   5.093
46421W        W11241  26.469  27.393  14.941
46422W        W11242  37.472  14.154  10.545
46423W        W11243  20.594  18.414  11.371
46424W        W11244  18.335   3.167  13.859
46425W        W11245  34.993   0.499  11.985
46426W        W11246  26.002  42.864  13.543
46427W        W11247  12.658  15.996   2.730
46428W        W11248  12.701  18.499  14.404
46429W        W11249   2.398  36.027  14.297
46430W        W11250  42.445  19.501  14.301
46431W        W11251  22.527  21.726   1.242
46432W        W11252  29.415  27.266   4.553
46433W        W11253  37.448   0.047   2.813
46434W        W11254  35.457  36.081  11.159
46435W        W11255  14.524  14.079   2.639
46436W        W11256  26.910   3.584   1.815
46437W        W11257   8.894  12.805  13.056
46438W        W11258  38.563  22.516  11.587
46439W        W11259  41.592   0.348  10.578
46440W        W11260  29.263  23.246   2.886
46441W        W11261  27.597   5.752  12.561
46442W        W11262   0.227   8.651   3.659
46443W        W11263   9.077  22.659  11.001
46444W        W11264  38.789   3.414   1.977
46445W        W11265  16.695   3.267   2.888
46446W        W11266  30.179  38.858   4.200
46447W        W11267  26.466  29.441   1.471
46448W        W11268   1.257  30.608   2.227
46449W        W11269  36.917  41.624  11.547
46450W        W11270   4.032  28.940   2.793
46451W        W11271  38.614   8.438  14.349
46452W        W11272  39.531  28.545  13.810
46453W        W11273   6.733  18.194   0.495
46454W        W11274  26.460   9.776  14.501
46455W        W11275  15.510  12.207  11.910
46456W        W11276  33.103  15.126  11.882
46457W        W11277  23.116   5.277   0.828
46458W        W11278  14.014  25.664  12.827
46459W        W11279  43.402  24.961   3.284
46460W        W11280  41.550  41.331  14.918
46461W        W11281  10.653  20.929   0.079
46462W        W11282  15.144   2.421  11.168
46463W        W11283  43.387  40.739   2.949
46464W        W11284  44.408  40.299   4.168
46465W        W11285   0.388   9.745   3.065
46466W        W11286   4.475  11.751  12.522
46467W        W11287  26.266  20.774  14.554
46468W        W11288   5.746  21.452   3.331
46469W        W11289  36.330  43.998  12.547
46470W        W11290   1.606   9.263   3.757
46471W        W11291  30.696  33.489  14.402
46472W        W11292  38.394  24.497   2.281
46473W        W11293  37.897  14.605   2.123
46474W        W11294  11.962  10.407   4.083
46475W        W11295  32.850  26.968  10.310
46476W        W11296  34.142  32.434  11.922
46477W        W11297  18.289  23.785  11.881
46478W        W11298   4.987   7.330  11.676
46479W        W11299   9.107  20.205   4.106
46480W        W11300  38.044  42.520  11.554
46481W        W11301  27.072   2.889  14.332
46482W        W11302   2.216   5.190  11.601
46483W        W11303  39.819  23.690   0.740
46484W        W11304   7.269  12.909  12.269
46485W        W11305  35.113  36.498  14.427
46486W        W11306  34.511  20.299  14.902
46487W        W11307  33.999  25.949   3.069
46488W        W11308  14.736  25.294   2.639
46489W        W11309  27.924  41.007  11.511
46490W        W11310  19.313  26.190   4.692
46491W        W11311  12.651  37.896   2.707
46492W        W11312  25.053  44.449  14.587
46493W        W11313  17.200  15.083  12.006
46494W        W11314  44.178  21.076   2.659
46495W        W11315   9.435  13.122  14.756
46496W        W11316  24.230  20.602   2.035
46497W        W11317  32.900  30.066  10.851
46498W        W11318  12.851   3.282   4.534
46499W        W11319  29.417  24.086  13.804
46500W        W11320   3.012  14.632  12.391
46501W        W11321  16.390  38.424  10.833
46502W        W11322  38.839  40.007   2.286
46503W        W11323  11.615  22.493   4.394
46504W        W11324   0.213  36.955   2.736
46505W        W11325  25.718  41.537   0.711
46506W        W11326  21.744  31.107  12.086
46507W        W11327   1.718   6.359   3.271
46508W        W11328  27.736  12.636   1.763
46509W        W11329  10.130  30.843   4.508
46510W        W11330  18.817  19.754  10.709
46511W        W11331  32.440  34.672  12.908
46512W        W11332  43.982  17.150   4.139
46513W        W11333  10.364  44.193  11.624
46514W        W11334   9.662   3.248  13.385
46515W        W11335  12.796  35.950  11.483
46516W        W11336  42.864   5.100  12.874
46517W        W11337  14.812  35.009   2.484
46518W        W11338  37.786  20.495   0.248
46519W        W11339   3.876  30.654  14.622
46520W        W11340  12.731  13.733   1.774
46521W        W11341  10.067   0.728  11.214
46522W        W11342   8.798  27.648   4.004
46523W        W11343   4.825  24.742  13.782
46524W        W11344  14.612  33.698   2.784
46525W        W11345   1.281   4.181  13.491
46526W        W11346  26.641  40.387  13.202
46527W        W11347  29.030  36.678  10.810
46528W        W11348   1.033  39.798   3.262
46529W        W11349  26.181  32.889  14.304
46530W        W11350  34.595  23.571  11.624
46531W        W11351   7.788  23.606  10.769
46532W        W11352  25.425  40.052   0.022
46533W        W11353  28.920  44.236  12.291
46534W        W11354  23.803  26.616  12.392
46535W        W11355   2.746  27.878  14.815
46536W        W11356  43.082  41.835   3.778
46537W        W11357  35.051  30.354   3.408
46538W        W11358  20.212  10.454   0.994
46539W        W11359  11.920  18.801   0.514
46540W        W11360  23.676  34.644   9.894
46541W        W11361  43.520  43.482   3.089
46542W        W11362  38.415  16.328  12.350
46543W        W11363  32.334  43.869   2.877
46544W        W11364  44.430  11.648  14.908
46545W        W11365  28.070  33.592   2.258
46546W        W11366  23.476  38.848  12.444
46547W        W11367   7.178  27.222  10.171
46548W        W11368  10.678  14.165   3.224
46549W        W11369  22.080  22.055  10.685
46550W        W11370  43.548  33.863   0.151
46551W        W11371  26.399  26.164   2.285
46552W        W11372  40.979  11.636   0.759
46553W        W11373  25.341  43.848  12.212
46554W        W11374  42.859  41.589   1.494
46555W        W11375  13.139   5.510   3.308
46556W        W11376  13.772  28.654   2.662
46557W        W11377   3.304  30.914   4.040
46558W        W11378  10.169  30.891   2.976
46559W        W11379   9.410  15.054   1.365
46560W        W11380  12.264  32.312   3.577
46561W        W11381  25.082   2.836   2.362
46562W        W11382  18.526  42.539   1.729
46563W        W11383  18.490  42.333  12.109
46564W        W11384  42.928  33.833  13.364
46565W        W11385  42.386  24.159   2.438
46566W        W11386  26.549  21.626   3.082
46567W        W11387  14.217  17.188  10.180
46568W        W11388   6.184  28.750  10.352
46569W        W11389  43.346  15.747   2.720
46570W        W11390  24.092  18.167  12.499
46571W        W11391  43.002  40.648   1.147
46572W        W11392   5.405  34.119   4.447
46573W        W11393  36.939   9.364  13.173
46574W        W11394  35.488  34.165   2.301
46575W        W11395   5.441  15.177  13.457
46576W        W11396  35.940  26.542   3.999
46577W        W11397  11.611  37.874  14.534
46578W        W11398  44.700  33.922  11.550
46579W        W11399  23.418  21.143  14.482
46580W        W11400  12.640  38.624   3.422
46581W        W11401  16.835  15.351  14.872
46582W        W11402  10.202  40.329  14.316
46583W        W11403  18.611  15.431  10.451
46584W        W11404   9.344  38.253  13.095
46585W        W11405  23.094  29.794  13.877
46586W        W11406  39.961  42.478   2.060
46587W        W11407  16.712  29.700  14.811
46588W        W11408   4.267  20.995  10.719
46589W        W11409  35.132  27.150  10.813
46590W        W11410  15.714  15.865   2.970
46591W        W11411  16.157  36.990  13.437
46592W        W11412  39.473  35.013   2.918
46593W        W11413  37.781  13.321   4.794
46594W        W11414   1.442  17.689  14.582
46595W        W11415  10.881  36.536   0.901
46596W        W11416  31.692  18.752   3.059
46597W        W11417  38.515  22.594  13.068
46598W        W11418  23.717  20.506   1.818
46599W        W11419  25.017   8.266  11.505
46600W        W11420   9.283  30.941   1.392
46601W        W11421  22.184  15.810  13.552
46602W        W11422   6.223  36.107   2.368
46603W        W11423   4.929  40.788   3.611
46604W        W11424  17.425  31.879  14.345
46605W        W11425   8.207  14.523  10.843
46606W        W11426  40.673  27.560   4.518
46607W        W11427  34.112  26.447   1.901
46608W        W11428  29.054  29.519  11.378
46609W        W11429  14.854   8.413   4.540
46610W        W11430   6.893  31.000   2.896
46611W        W11431  22.504   0.016  11.459
46612W        W11432  13.429  44.838  11.597
46613W        W11433  11.763  36.885   4.738
46614W        W11434  31.047  27.100  12.008
46615W        W11435  42.371  27.940  12.599
46616W        W11436  21.718  21.147   4.251
46617W        W11437  21.115  22.172   2.814
46618W        W11438  35.379  43.349   0.947
46619W        W11439  42.858   0.096  13.856
46620W        W11440  36.281  21.969   2.342
46621W        W11441   0.517  34.879  13.112
46622W        W11442   7.428   3.340  12.543
46623W        W11443  22.588   7.082  13.902
46624W        W11444   7.265  21.882  10.763
46625W        W11445  24.964   9.666   2.797
46626W        W11446  29.564   9.358   1.671
46627W        W11447  10.187   0.453   1.851
46628W        W11448  41.340   9.916  12.537
46629W        W11449  31.328  35.087  12.485
46630W        W11450  16.709  23.825  10.784
46631W        W11451  38.494  28.045   3.133
46632W        W11452  42.218  18.153   1.197
46633W        W11453  39.096   0.246   2.384
46634W        W11454  40.612  19.274   2.818
46635W        W11455  17.735  25.529   4.526
46636W        W11456  12.893   9.961  13.408
46637W        W11457  40.480  39.951   0.492
46638W        W11458   2.509  15.975   1.850
46639W        W11459  17.443  30.581  14.338
46640W        W11460   3.245  31.377  11.589
46641W        W11461   3.814  26.196  13.389
46642W        W11462   8.445  13.741   3.040
46643W        W11463   1.028   2.921  13.411
46644W        W11464   1.024  42.271   2.256
46645W        W11465  20.191  44.775   0.505
46646W        W11466  22.339  41.756  14.922
46647W        W11467  42.533   1.835   3.097
46648W        W11468  37.464  39.354   1.327
46649W        W11469  38.361  29.821  13.071
46650W        W11470  36.399  34.473  12.899
46651W        W11471  23.693  35.656  11.532
46652W        W11472  31.466  15.931   2.842
46653W        W11473  44.350   6.717  11.036
46654W        W11474  41.695   8.392   2.290
46655W        W11475  33.461  28.965   0.291
46656W        W11476  19.067  17.488   2.178
46657W        W11477   3.418  15.943   3.133
46658W        W11478   7.837  28.155   0.388
46659W        W11479  22.595   2.146   3.355
46660W        W11480  44.745  32.071  11.480
46661W        W11481  25.000   2.404   1.641
46662W        W11482  29.449  15.666  13.470
46663W        W11483  18.200  33.378  12.507
46664W        W11484   2.900   3.735  12.561
46665W        W11485  41.073  36.285   2.732
46666W        W11486  34.184  34.437   2.324
46667W        W11487  34.962  11.176   1.389
46668W        W11488  42.991  19.239   1.938
46669W        W11489  25.500  38.425  11.164
46670W        W11490  12.772  12.495  12.485
46671W        W11491  29.710  42.261  14.358
46672W        W11492  10.776   6.291  11.924
46673W        W11493   1.354  13.133  12.118
46674W        W11494  17.112  10.374  11.102
46675W        W11495  12.203  28.012   0.427
46676W        W11496  39.353  38.124  10.709
46677W        W11497  43.940  28.530   4.676
46678W        W11498  23.262  35.417  12.847
46679W        W11499   5.273  43.511   1.404
46680W        W11500  35.222  26.151  14.571
46681W        W11501  39.447   2.333   1.622
46682W        W11502  10.465  25.083   4.879
46683W        W11503  23.571   5.388   1.971
46684W        W11504  32.342  33.600  12.554
46685W        W11505   8.650  10.420   0.473
46686W        W11506   5.184  38.517  14.470
46687W        W11507  27.188  15.295  14.353
46688W        W11508   5.344  40.059  14.452
46689W        W11509  19.314  24.472   1.921
46690W        W11510   8.247   0.804  10.656
46691W        W11511  31.412  29.643   4.622
46692W        W11512  40.286  23.063  13.881
46693W        W11513   0.043  44.752  13.793
46694W        W11514  32.684  38.550  10.805
46695W        W11515  42.627  25.411   4.752
46696W        W11516  41.346   0.311   2.250
46697W        W11517   3.641  37.817   3.784
46698W        W11518  30.431   7.177   3.637
46699W        W11519  44.310  43.378  11.415
46700W        W11520  13.093  35.883  13.619
46701W        W11521  33.195  18.009   1.133
46702W        W11522   9.323  30.643   2.418
46703W        W11523  28.741  15.816   0.878
46704W        W11524  31.681   8.819   1.848
46705W        W11525  42.511  39.919   2.922
46706W        W11526   9.076  38.399   4.577
46707W        W11527  14.209  22.159  11.132
46708W        W11528   0.796  32.159  12.402
46709W        W11529  36.551   4.191   1.161
46710W        W11530   0.655  34.163   2.188
46711W        W11531  28.967  26.040  14.022
46712W        W11532  19.285  39.457  13.883
46713W        W11533  12.228  18.033   3.069
46714W        W11534  43.969  37.981  10.868
46715W        W11535  22.103  15.877   3.636
46716W        W11536   4.388   5.332  10.825
46717W        W11537  11.895   0.022   4.412
46718W        W11538   4.942  26.502   0.022
46719W        W11539  31.118  17.510   3.315
46720W        W11540   0.721  10.152   0.162
46721W        W11541  33.654   9.108   0.300
46722W        W11542   8.713  33.419   2.155
46723W        W11543  12.655   8.437   1.887
46724W        W11544  38.583  18.733   0.319
46725W        W11545  18.100  31.572   0.987
46726W        W11546  10.416  39.893  11.126
46727W        W11547  13.515  28.486   3.117
46728W        W11548   9.637   4.963  11.431
46729W        W11549  15.137  37.998   0.549
46730W        W11550  19.015   0.854  12.058
46731W        W11551   2.485   4.198   2.877
46732W        W11552  32.537   0.386   3.772
46733W        W11553  33.735  14.028  13.391
46734W        W11554  12.435  37.236  10.669
46735W        W11555  43.270  42.450  10.591
46736W        W11556  35.800   6.819  13.824
46737W        W11557   0.808  16.743   3.134
46738W        W11558  37.571  44.457  14.730
46739W        W11559  35.400   0.864  12.001
46740W        W11560  11.386  27.914   2.615
46741W        W11561   4.791  38.461  12.490
46742W        W11562  31.161  24.690  14.732
46743W        W11563  38.551   3.793  14.274
46744W        W11564   6.662  21.616  13.521
46745W        W11565  43.524  19.217  13.729
46746W        W11566  35.290   8.365   2.686
46747W        W11567  28.875  44.522  12.727
46748W        W11568   9.333  15.207  14.282
46749W        W11569  40.092  23.165  14.347
46750W        W11570  41.607   7.221  13.061
46751W        W11571  24.579  39.851   1.997
46752W        W11572  11.091  20.696   4.623
46753W        W11573   2.033  16.760   1.440
46754W        W11574   9.208  35.368   0.738
46755W        W11575  33.548   8.278  12.098
46756W        W11576   3.774  43.439  13.106
46757W        W11577  27.618  42.435   4.526
46758W        W11578   6.793  21.258   2.770
46759W        W11579   8.693  35.562   3.197
46760W        W11580  34.165  13.513   1.216
46761W        W11581  30.642   2.465   1.548
46762W        W11582  23.010  32.455  14.565
46763W        W11583  21.303  36.877   2.763
46764W        W11584  39.764  13.784   0.294
46765W        W11585  28.201  33.532   1.685
46766W        W11586   9.789  43.866   4.545
46767W        W11587  39.624  32.979   4.308
46768W        W11588  42.031  15.308   4.597
46769W        W11589   0.125   6.373   1.371
46770W        W11590  12.072  31.707  11.199
46771W        W11591  36.020  13.406  13.063
46772W        W11592  17.834  21.641   3.334
46773W        W11593  32.888  14.773   5.014
46774W        W11594  32.646  35.320   2.560
46775W        W11595   4.250   9.047  13.028
46776W        W11596  34.409  16.522   1.373
46777W        W11597  28.888  14.540   3.150
46778W        W11598  25.153  41.059  12.165
46779W        W11599  27.682  37.754   1.537
46780W        W11600  32.977  19.087   2.819
46781W        W11601  38.090  31.091  14.528
46782W        W11602  17.885   7.685   1.921
46783W        W11603  39.768   9.103   0.879
46784W        W11604  25.022   1.878  14.007
46785W        W11605  38.265  32.880  14.902
46786W        W11606  25.171  30.314  12.074
46787W        W11607  17.249  34.846   4.135
46788W        W11608  33.396  33.953   2.526
46789W        W11609  17.079   2.045  14.918
46790W        W11610  30.689  43.209   3.242
46791W        W11611  39.606   7.137   2.210
46792W        W11612  11.318  44.649   4.176
46793W        W11613  15.307  24.252  12.540
46794W        W11614  15.810  15.261  12.365
46795W        W11615  12.358  19.701  13.963
46796W        W11616  10.931  20.472   3.341
46797W        W11617   1.931   4.416  14.548
46798W        W11618  11.699  22.716   2.882
46799W        W11619  34.529   6.889   2.455
46800W        W11620  24.679  24.895   4.802
46801W        W11621  43.484  20.677   3.156
46802W        W11622  19.810  12.592   4.214
46803W        W11623  44.419  33.560   0.532
46804W        W11624  33.496  13.679   2.457
46805W        W11625  38.115   1.940   4.583
46806W        W11626  18.331  19.299   3.727
46807W        W11627  13.393  34.055  11.588
46808W        W11628  34.132  23.970   3.349
46809W        W11629  20.654  31.778   1.713
46810W        W11630  16.371   4.752   3.267
46811W        W11631   1.117  28.944   2.845
46812W        W11632  39.048   8.391   2.233
46813W        W11633  24.227  14.605   4.754
46814W        W11634  21.238   5.293  12.289
46815W        W11635  43.450  11.162   4.067
46816W        W11636  21.530   8.368   2.998
46817W        W11637   0.410  25.124   3.920
46818W        W11638  22.761  33.113   0.868
46819W        W11639  30.236  27.394   2.061
46820W        W11640  40.462  42.425   2.375
46821W        W11641  28.163  13.067   4.970
46822W        W11642  18.636   9.976  12.470
46823W        W11643   3.432  38.556  14.275
46824W        W11644  29.184  42.387   0.228
46825W        W11645  23.500   7.674   1.650
46826W        W11646  20.210  31.118   0.900
46827W        W11647  16.584  25.515  11.245
46828W        W11648  12.077  25.528  11.659
46829W        W11649  31.607   1.402  11.705
46830W        W11650   3.973  31.615  13.700
46831W        W11651   3.155  29.315  12.016
46832W        W11652  32.162  17.634   4.652
46833W        W11653   4.013  12.385  11.564
46834W        W11654  35.560  28.158  12.069
46835W        W11655  37.423   2.466  10.729
46836W        W11656  10.755  24.944   2.279
46837W        W11657  24.280  12.101   3.237
46838W        W11658  22.083  34.258   2.851
46839W        W11659  39.734  40.217   1.203
46840W        W11660  28.194  22.754  14.089
46841W        W11661  39.931  11.336  13.504
46842W        W11662  35.341  15.210  11.593
46843W        W11663   8.856  26.674   1.813
46844W        W11664  17.830  32.714  13.562
46845W        W11665  38.533   3.228   3.744
46846W        W11666  28.403  27.135  14.642
46847W        W11667  44.748  31.922  13.006
46848W        W11668  15.649  37.855  10.376
46849W        W11669  16.712  44.273   4.230
46850W        W11670   6.139  18.602  10.776
46851W        W11671  15.871  22.062   1.762
46852W        W11672   7.339  37.110   0.488
46853W        W11673  30.833   6.237  14.527
46854W        W11674  44.352  28.690  11.496
46855W        W11675   0.326  38.912   4.886
46856W        W11676  39.453  42.338   0.922
46857W        W11677  40.543   1.387   1.122
46858W        W11678  25.933  12.757  13.824
46859W        W11679  19.646   1.377   4.131
46860W        W11680  14.248  22.519   1.365
46861W        W11681  38.984  17.698   3.387
46862W        W11682  24.855  31.954  14.283
46863W        W11683  38.021  37.038  12.761
46864W        W11684   7.208  41.579   4.836
46865W        W11685   5.228   1.920  12.176
46866W        W11686   3.191  18.507  12.005
46867W        W11687  21.991  29.042  12.890
46868W        W11688  33.483   5.643  13.310
46869W        W11689   0.405   7.207  12.034
46870W        W11690  41.314  10.961  14.176
46871W        W11691  34.868  18.266   3.701
46872W        W11692  19.736  13.622  11.532
46873W        W11693  24.176   4.673   4.978
46874W        W11694  39.473  39.142  10.777
46875W        W11695  41.097   0.734   0.140
46876W        W11696  13.295  22.066   1.891
46877W        W11697  11.351  26.969   0.390
46878W        W11698  21.570   1.999   1.682
46879W        W11699  23.504  24.580   3.901
46880W        W11700  19.043   9.693  14.288
46881W        W11701  18.794  38.944   4.650
46882W        W11702  26.001   2.996  11.023
46883W        W11703   0.925   6.934  14.497
46884W        W11704  16.782  32.666   0.272
46885W        W11705  34.985  34.327   9.973
46886W        W11706   0.653   8.922   3.719
46887W        W11707  42.612  11.388   3.341
46888W        W11708  23.296  33.822   3.632
46889W        W11709   3.754  20.917   4.896
46890W        W11710   1.890   6.117  14.986
46891W        W11711   0.651  37.821  10.780
46892W        W11712  20.199   5.732   3.235
46893W        W11713   3.849  20.226   0.910
46894W        W11714  38.472  27.405   1.251
46895W        W11715  24.760  14.826  13.867
46896W        W11716  26.860  26.554   1.830
46897W        W11717  15.533  10.965  13.353
46898W        W11718  18.853  22.378  11.694
46899W        W11719  12.839   7.190  12.879
46900W        W11720   7.676  16.638   0.210
46901W        W11721  24.491  24.984   2.453
46902W        W11722  29.228  29.995   2.167
46903W        W11723  23.585  15.101  11.657
46904W        W11724   7.979   9.303  13.113
46905W        W11725  23.534  27.106   4.729
46906W        W11726  42.874   7.393  14.836
46907W        W11727  38.915  15.037   1.318
46908W        W11728  40.396  42.739  11.151
46909W        W11729   5.142  30.442   4.594
46910W        W11730  13.404   7.317   2.088
46911W        W11731  26.517  25.240   4.177
46912W        W11732   3.200  36.972   1.904
46913W        W11733   4.629  19.333   3.681
46914W        W11734  20.327   3.157   3.876
46915W        W11735  21.350  10.861   4.566
46916W        W11736  21.634  43.524  12.441
46917W        W11737   8.285  31.496   0.284
46918W        W11738  29.438  35.126  13.859
46919W        W11739  32.096   2.721   1.827
46920W        W11740  13.677   9.573   1.725
46921W        W11741  38.875  26.647  13.587
46922W        W11742  42.267   7.328   2.839
46923W        W11743  36.135  17.360   2.328
46924W        W11744  11.292  17.294  13.828
46925W        W11745  28.858   9.431  11.499
46926W        W11746   5.922  14.774  11.591
46927W        W11747  16.290  21.136  14.055
46928W        W11748   4.370  27.535  14.508
46929W        W11749  35.137  34.832  12.523
46930W        W11750  34.040  19.538   1.406
46931W        W11751   2.002  42.752  13.136
46932W        W11752  12.343  25.245  12.810
46933W        W11753  17.848   9.682  13.003
46934W        W11754  29.664  34.723   3.778
46935W        W11755   7.267  27.294  13.530
46936W        W11756  30.994   5.898   4.833
46937W        W11757  40.212  20.179  14.857
46938W        W11758  30.809  19.618  13.961
46939W        W11759  22.435   3.254  14.363
46940W        W11760   1.877  32.049   1.261
46941W        W11761   8.850  19.778   2.735
46942W        W11762  21.803  38.538   2.173
46943W        W11763  22.751   5.821  11.127
46944W        W11764   6.763  40.018  12.538
46945W        W11765   0.801  21.730   0.912
46946W        W11766   2.521  37.944   2.852
46947W        W11767  35.831  42.868   2.730
46948W        W11768  15.711  34.952  12.670
46949W        W11769  30.086  32.600  12.557
46950W        W11770  38.310  22.680   4.256
46951W        W11771  14.785  13.531  11.929
46952W        W11772  30.143  29.945  14.991
46953W        W11773  26.687  38.757   2.302
46954W        W11774  33.132  16.604  12.180
46955W        W11775  25.467  42.345   1.830
46956W        W11776  18.328  24.236   4.854
46957W        W11777  11.886  37.058   3.736
46958W        W11778  23.492  32.825   4.527
46959W        W11779  14.773  38.016  14.484
46960W        W11780  17.376   8.797   3.324
46961W        W11781   1.571  31.055  11.206
46962W        W11782  41.472  13.347   0.836
46963W        W11783  14.421  42.267  12.479
46964W        W11784   4.819  42.479   4.609
46965W        W11785  41.818  11.836  11.219
46966W        W11786   4.844  13.770  12.478
46967W        W11787  14.320  14.041  11.037
46968W        W11788  19.137  39.098  11.023
46969W        W11789  17.851  41.952  12.675
46970W        W11790   2.194  15.106   0.304
46971W        W11791  36.555  27.392  14.838
46972W        W11792  35.356  11.368   3.634
46973W        W11793  13.322  40.470   1.322
46974W        W11794   6.174  40.067  10.573
46975W        W11795  31.732   9.271   1.016
46976W        W11796  18.236  30.959   4.611
46977W        W11797   6.157  44.871   0.784
46978W        W11798   6.451  16.687  10.660
46979W        W11799  22.893  31.901  11.427
46980W        W11800   6.489  41.397  10.697
46981W        W11801  11.821  31.477   2.334
46982W        W11802  16.409  14.266   4.066
46983W        W11803   1.386  36.527  13.083
46984W        W11804  19.874  15.482   0.335
46985W        W11805   4.213  41.551   4.246
46986W        W11806  26.532   8.407  12.303
46987W        W11807   0.266  43.894  14.809
46988W        W11808  41.004  24.105   4.647
46989W        W11809  34.121  29.041   3.333
46990W        W11810  13.380  21.346  12.432
46991W        W11811  19.028  31.379  14.360
46992W        W11812  14.703  11.198  11.065
46993W        W11813   3.200  44.331   4.022
46994W        W11814  42.353   8.416  12.519
46995W        W11815  16.232  40.330   3.705
46996W        W11816   6.476   3.212   2.711
46997W        W11817   0.980  32.837  11.651
46998W        W11818  19.202  31.559   1.660
46999W        W11819  19.283   2.446  13.457
47000W        W11820   0.113   5.880   2.862
47001W        W11821  18.140  13.165  13.063
47002W        W11822   3.733  39.937  10.545
47003W        W11823  25.928  30.179   2.744
47004W        W11824  16.239  44.522  13.978
47005W        W11825  12.433  27.614  14.085
47006W        W11826  10.799  15.788   2.819
47007W        W11827  32.890  11.788   4.652
47008W        W11828  23.122  10.409  12.224
47009W        W11829  10.219  18.177   4.309
47010W        W11830  12.288  38.777  14.958
47011W        W11831  12.314  35.988   2.868
47012W        W11832  18.051  22.340   0.846
47013W        W11833  25.733  40.617  13.825
47014W        W11834  24.266  42.536   0.336
47015W        W11835  31.969  21.154   3.288
47016W        W11836  30.472  43.111  11.538
47017W        W11837  40.442  43.802   1.151
47018W        W11838  30.050   5.863   2.400
47019W        W11839  27.560  21.541   0.883
47020W        W11840  30.801  14.270   3.696
47021W        W11841   2.704   2.191   0.828
47022W        W11842  23.747  32.123  10.743
47023W        W11843  11.339   1.300   4.891
47024W        W11844  17.471   4.259   2.021
47025W        W11845   5.675  15.697   4.321
47026W        W11846   1.920   4.012   2.222
47027W        W11847   2.288  34.331  12.060
47028W        W11848  11.097  24.088   1.646
47029W        W11849  41.570   9.346   2.153
47030W        W11850  26.010  30.709  13.788
47031W        W11851   7.689  31.757   0.976
47032W        W11852   0.833  25.629  10.534
47033W        W11853  35.962  19.456  10.753
47034W        W11854   7.344  14.805   3.731
47035W        W11855  42.584  25.145   1.199
47036W        W11856  35.802  42.761  13.660
47037W        W11857   6.862  12.848   2.796
47038W        W11858   7.903  38.574  14.776
47039W        W11859  23.154  21.970  14.920
47040W        W11860  40.421  12.168   4.647
47041W        W11861  15.027  12.090   1.290
47042W        W11862  38.521  39.577   2.150
47043W        W11863  21.023  41.062  11.642
47044W        W11864   6.993  20.441   1.679
47045W        W11865  10.829  21.450   4.642
47046W        W11866  43.916   0.327   4.482
47047W        W11867  35.660   6.158  13.022
47048W        W11868  15.781   8.880  13.413
47049W        W11869  37.369  40.889  11.634
47050W        W11870  35.990  10.554  14.092
47051W        W11871  21.793  42.622  13.815
47052W        W11872  11.428  10.585  14.738
47053W        W11873  33.447   4.414   2.590
47054W        W11874  26.164  24.195   1.775
47055W        W11875  44.414  10.285   0.457
47056W        W11876  39.642  32.479   3.183
47057W        W11877   4.606  17.016  10.970
47058W        W11878  38.065  39.475   4.433
47059W        W11879  16.152  28.556  13.303
47060W        W11880  15.831  27.618   2.375
47061W        W11881  20.222  34.054   4.135
47062W        W11882  36.041  25.170  13.817
47063W        W11883  38.104  37.045   4.142
47064W        W11884  29.610  26.081   4.098
47065W        W11885  21.169  28.169   4.966
47066W        W11886  31.048  11.275   4.600
47067W        W11887  36.060  33.890   0.468
47068W        W11888  19.474  37.522  11.591
47069W        W11889  13.769  26.234  10.640
47070W        W11890  33.702  15.121   3.248
47071W        W11891  28.368   0.261  12.586
47072W        W11892  15.686   9.778   2.849
47073W        W11893  29.915  11.943  13.225
47074W        W11894   5.816  32.795  10.908
47075W        W11895  32.305  40.240   3.595
47076W        W11896  10.646  12.387   4.858
47077W        W11897  33.818  30.129  12.580
47078W        W11898  34.050  43.861   3.197
47079W        W11899  29.051  16.058   3.202
47080W        W11900  42.026  30.389   1.808
47081W        W11901  25.474  18.066   1.265
47082W        W11902   0.010  15.672   3.739
47083W        W11903  14.860   2.313  12.458
47084W        W11904  39.884  27.959   2.184
47085W        W11905  27.061  20.093   2.316
47086W        W11906  36.888  12.256  12.362
47087W        W11907   9.688  38.669  11.207
47088W        W11908  41.525  44.025  13.787
47089W        W11909  40.941  16.592  13.503
47090W        W11910  30.655  14.257  13.804
47091W        W11911  12.632  13.639  14.763
47092W        W11912  18.678   3.653  13.621
47093W        W11913   1.504  44.352   2.318
47094W        W11914  31.110  42.357  12.016
47095W        W11915  13.385   1.427   3.196
47096W        W11916  21.502  21.371  11.017
47097W        W11917   6.013  10.720  14.860
47098W        W11918  22.160   7.944  14.368
47099W        W11919  43.586  14.009   4.217
47100W        W11920   4.429  13.044   4.235
47101W        W11921  41.815  12.966   4.234
47102W        W11922  42.098   3.598   2.475
47103W        W11923  33.990  32.347   2.886
47104W        W11924  24.506  34.149  13.435
47105W        W11925  34.548  22.479  12.191
47106W        W11926  30.928  29.574  11.618
47107W        W11927  17.233  14.376   3.253
47108W        W11928   3.445   8.604  12.498
47109W        W11929  16.622   4.206  11.515
47110W        W11930  16.127   7.783   0.234
47111W        W11931  31.783  20.912   3.728
47112W        W11932  42.681  22.078   3.147
47113W        W11933   2.818  23.946  13.367
47114W        W11934  24.724  19.901   2.661
47115W        W11935  20.650   5.125   2.600
47116W        W11936  27.568  39.198   3.365
47117W        W11937  14.839  36.448  12.458
47118W        W11938  21.285  37.553  11.667
47119W        W11939  27.596  16.678  14.242
47120W        W11940  14.622   5.372   2.286
47121W        W11941  14.565  14.043  13.427
47122W        W11942  19.623   4.387   2.365
47123W        W11943  10.705  19.547  13.007
47124W        W11944   5.069   2.357   1.325
47125W        W11945   1.463  13.750  13.604
47126W        W11946   7.434  18.675  13.328
47127W        W11947  17.087  31.899   2.228
47128W        W11948  22.632  15.063   1.743
47129W        W11949  30.953   3.259  13.398
47130W        W11950  20.747  20.971  11.980
47131W        W11951  19.109  17.553  13.894
47132W        W11952   8.419   6.337  12.093
47133W        W11953  25.005  43.610   4.136
47134W        W11954   4.341  18.495   1.831
47135W        W11955  21.445   3.885   4.022
47136W        W11956  41.012  17.585  11.084
47137W        W11957  13.230  39.106  11.675
47138W        W11958   7.239  15.462  11.808
47139W        W11959  29.958  44.824   0.087
47140W        W11960   0.747   1.770   1.205
47141W        W11961  11.800  43.443   3.809
47142W        W11962  30.662  10.278   3.013
47143W        W11963  19.984   2.852   3.083
47144W        W11964  32.502  21.854   5.163
47145W        W11965  41.072  35.040   3.329
47146W        W11966  41.757  31.588   3.228
47147W        W11967  32.160   9.033   1.828
47148W        W11968  22.038  20.983  14.173
47149W        W11969  37.355   3.504  12.161
47150W        W11970  34.657  14.092  11.700
47151W        W11971  24.040   3.944   2.440
47152W        W11972   3.574  17.841   3.244
47153W        W11973   9.843  22.997  12.659
47154W        W11974  33.635   2.123  10.165
47155W        W11975  12.466  29.861  13.803
47156W        W11976  43.937  39.597   2.321
47157W        W11977   3.735  26.635  13.091
47158W        W11978   8.267  19.987  11.597
47159W        W11979  39.514  32.665  14.506
47160W        W11980  40.474  37.612  12.455
47161W        W11981   6.835  10.273   3.317
47162W        W11982   1.973  31.108  11.509
47163W        W11983  34.466  13.337  12.148
47164W        W11984  25.795  44.758  12.467
47165W        W11985  31.179  20.389   1.720
47166W        W11986  35.932  18.651   1.256
47167W        W11987  35.811  17.876   4.953
47168W        W11988  19.772  22.027   3.741
47169W        W11989  24.974  26.259  14.940
47170W        W11990  35.986  16.224  12.117
47171W        W11991   9.688  27.529  11.243
47172W        W11992  36.243  43.722   0.939
47173W        W11993  14.264  11.619  13.830
47174W        W11994  32.782  22.460  13.064
47175W        W11995  43.942   1.737  13.986
47176W        W11996  26.551   3.223   0.433
47177W        W11997  26.580  10.258   4.574
47178W        W11998  35.124   2.273   2.005
47179W        W11999  35.847   9.649  10.673
47180W        W12000  20.820  42.393   2.300
47181W        W12001  33.110  15.342   1.787
47182W        W12002  18.526  37.616   0.781
47183W        W12003  20.787  19.614   3.292
47184W        W12004  13.551  40.740   0.286
47185W        W12005  37.727  31.069   0.466
47186W        W12006  32.016  12.627  13.001
47187W        W12007  37.932  24.089   1.771
47188W        W12008  10.733  26.110   4.753
47189W        W12009  12.624  38.159  13.622
47190W        W12010  21.147  21.830   3.221
47191W        W12011  30.670  39.998   2.486
47192W        W12012  19.449  13.832   1.938
47193W        W12013  44.840  34.531  14.765
47194W        W12014  28.698   1.538   2.628
47195W        W12015  21.195  38.177  11.961
47196W        W12016  43.624  42.322   4.242
47197W        W12017  17.872  43.634  11.754
47198W        W12018  17.165   3.838  13.788
47199W        W12019  11.325  29.800  13.604
47200W        W12020  10.787   9.946   3.630
47201W        W12021   7.015  18.315   2.845
47202W        W12022  42.564  34.529   4.031
47203W        W12023  34.902  35.119  13.932
47204W        W12024   5.946  17.311  13.244
47205W        W12025  35.449  15.579   1.537
47206W        W12026  18.560  13.753  13.036
47207W        W12027  26.353  32.004  12.793
47208W        W12028   5.045   6.621  13.917
47209W        W12029  11.185  23.234  11.514
47210W        W12030  15.632   8.708   0.203
47211W        W12031  42.943  43.080  11.595
47212W        W12032  14.456  37.484   4.588
47213W        W12033   6.227  16.988  12.964
47214W        W12034   4.323  14.660  10.943
47215W        W12035  25.205  22.030  13.857
47216W        W12036  16.765   4.699  11.531
47217W        W12037  28.635  20.963  12.197
47218W        W12038  41.747  28.549  14.184
47219W        W12039  19.826  35.926  13.808
47220W        W12040  44.760  12.848   0.717
47221W        W12041  10.813   6.795  13.097
47222W        W12042   6.654   4.470   3.574
47223W        W12043  36.915   8.381  12.062
47224W        W12044  23.555  29.492  13.127
47225W        W12045  19.739  10.223   1.768
47226W        W12046   3.849   2.495   4.701
47227W        W12047  14.876  16.681  10.245
47228W        W12048  16.262  40.944   0.393
47229W        W12049  27.881  20.633  10.226
47230W        W12050  33.133  42.292  10.526
47231W        W12051  33.724  41.066  10.721
47232W        W12052  30.147  12.879   1.845
47233W        W12053   7.133  37.310  12.627
47234W        W12054   6.674   3.178  13.226
47235W        W12055  17.091  44.207   0.397
47236W        W12056  11.935  10.876   4.315
47237W        W12057  20.603  14.927  14.228
47238W        W12058  30.372  38.510  12.465
47239W        W12059  29.974   3.477  12.768
47240W        W12060  26.274  25.063   2.234
47241W        W12061  24.099  16.605  12.443
47242W        W12062  42.323  14.314   3.853
47243W        W12063  21.313   0.776  12.333
47244W        W12064  26.927  27.117   2.335
47245W        W12065  37.161  38.453   2.477
47246W        W12066  44.294  41.269   3.180
47247W        W12067  29.737  21.087   1.810
47248W        W12068  43.688  24.277   0.724
47249W        W12069  33.905  31.664  14.312
47250W        W12070  32.671  27.132  13.396
47251W        W12071  43.036   7.121   0.251
47252W        W12072  23.035  19.517   1.331
47253W        W12073  42.358   2.232  10.683
47254W        W12074  33.690   0.956   3.278
47255W        W12075  38.119  41.467  12.353
47256W        W12076  36.157  21.882  12.866
47257W        W12077   6.442  27.968  11.040
47258W        W12078  12.586   1.775  13.897
47259W        W12079  29.916  30.515   4.189
47260W        W12080  26.555  10.673  14.428
47261W        W12081   3.401  38.572  11.019
47262W        W12082  41.633  26.416   0.883
47263W        W12083  38.823   5.850  10.368
47264W        W12084  10.807  14.798  10.116
47265W        W12085  25.635   3.253  13.548
47266W        W12086  29.508  30.998  11.948
47267W        W12087  23.502  11.109  14.027
47268W        W12088  18.134  31.121   2.649
47269W        W12089  12.083   0.867  10.731
47270W        W12090   5.894  24.615  14.757
47271W        W12091  38.599  32.660  14.549
47272W        W12092  14.694  28.492   0.509
47273W        W12093  41.920  17.678   3.656
47274W        W12094   5.474   4.364   2.852
47275W        W12095  27.038   1.723   4.772
47276W        W12096  13.606  11.271   1.289
47277W        W12097  14.794  21.476  13.768
47278W        W12098  37.520  36.805  11.547
47279W        W12099  23.193  25.052   0.530
47280W        W12100  13.178  26.043  14.515
47281W        W12101   8.703  32.991   4.517
47282W        W12102  38.367  13.152  14.317
47283W        W12103  21.627  35.562   1.953
47284W        W12104  32.743  41.235   1.195
47285W        W12105  43.802  39.420  14.852
47286W        W12106  27.665  18.027  13.504
47287W        W12107  33.334  37.535   3.047
47288W        W12108  10.319   7.564  12.917
47289W        W12109  44.172  15.114   0.195
47290W        W12110  24.867  22.957   3.331
47291W        W12111  21.460   5.826  10.279
47292W        W12112  44.545  12.153  14.943
47293W        W12113  28.764  17.780   3.357
47294W        W12114  19.104   2.325  12.962
47295W        W12115  33.371   8.708   0.449
47296W        W12116  15.647   3.418   4.834
47297W        W12117  29.552  21.198   2.716
47298W        W12118  31.743  28.907   2.406
47299W        W12119  39.925  36.880   4.840
47300W        W12120  10.956  30.998  11.650
47301W        W12121   5.773  26.582  13.836
47302W        W12122   3.566  21.489  12.465
47303W        W12123   1.350   2.948   0.222
47304W        W12124  19.495  11.793   0.331
47305W        W12125  15.043  14.212  13.372
47306W        W12126  14.119  21.285  12.022
47307W        W12127  23.044  14.855   0.842
47308W        W12128  15.604  44.781   3.241
47309W        W12129  19.745  23.634  10.547
47310W        W12130  36.114  12.295  14.266
47311W        W12131  17.571  37.730  13.279
47312W        W12132  44.262  15.450  14.767
47313W        W12133  42.209  18.783   2.926
47314W        W12134  30.654  31.973  10.532
47315W        W12135  44.216  39.365   4.207
47316W        W12136  35.903  24.662  14.774
47317W        W12137  22.777   3.730  14.471
47318W        W12138  43.299   0.691   2.779
47319W        W12139   2.783  28.932   4.527
47320W        W12140  16.543  24.660   1.711
47321W        W12141  35.092  40.398  13.354
47322W        W12142   4.864  23.068  10.877
47323W        W12143  14.154  28.986   0.341
47324W        W12144  22.015  39.349  12.771
47325W        W12145  34.526  38.889  11.083
47326W        W12146  20.683  44.089   1.954
47327W        W12147  35.792  10.054   2.664
47328W        W12148  13.617   2.192   0.860
47329W        W12149  27.692  10.917  14.426
47330W        W12150   3.360  17.881   4.249
47331W        W12151  27.550  33.967   0.448
47332W        W12152   2.494   3.646  14.490
47333W        W12153  17.116  12.385   0.268
47334W        W12154  32.057  14.846   2.453
47335W        W12155  34.997  19.721   0.760
47336W        W12156  25.530  31.676   2.793
47337W        W12157  29.901  34.862   0.302
47338W        W12158  42.900  42.672  13.366
47339W        W12159  41.144  11.087   4.229
47340W        W12160  43.355  24.427  10.573
47341W        W12161  15.019  31.114  12.875
47342W        W12162  17.514  25.696  11.110
47343W        W12163  13.515  11.672  14.324
47344W        W12164   9.769  25.726   4.715
47345W        W12165  20.737  42.014  12.303
47346W        W12166   7.092   2.391   1.721
47347W        W12167  18.588  18.030  14.552
47348W        W12168  14.175  18.021   2.152
47349W        W12169  17.596  33.427  13.713
47350W        W12170   0.748  26.369   1.626
47351W        W12171  29.211  36.162   3.087
47352W        W12172   3.013  42.333  13.385
47353W        W12173   6.208  20.561   2.625
47354W        W12174  23.522   0.575   4.292
47355W        W12175  15.768   5.818  14.266
47356W        W12176  37.882  16.780   1.450
47357W        W12177  16.779  11.605   1.943
47358W        W12178  18.588   9.657  14.574
47359W        W12179   2.819  30.924  12.726
47360W        W12180   4.923  33.278   9.924
47361W        W12181   9.472  13.685   2.588
47362W        W12182  36.921   7.628   1.343
47363W        W12183  33.153  36.562  14.438
47364W        W12184  11.452  23.637  13.409
47365W        W12185  40.368   0.355  11.433
47366W        W12186  25.897  16.728  12.305
47367W        W12187  29.009  44.938   3.663
47368W        W12188  21.462  13.275   1.382
47369W        W12189  21.050  38.920   4.052
47370W        W12190   8.675   6.295  10.360
47371W        W12191  19.343  15.772  11.738
47372W        W12192   1.348  34.919  10.623
47373W        W12193   7.135  42.907  12.622
47374W        W12194  10.653   2.803   3.337
47375W        W12195   5.353  14.683  13.748
47376W        W12196   6.210   5.990   1.476
47377W        W12197   8.828  12.828   0.268
47378W        W12198   3.478  22.133  13.810
47379W        W12199  26.987  36.478  13.783
47380W        W12200   0.643  41.351   1.994
47381W        W12201   2.835  15.763  13.442
47382W        W12202  16.261  41.794  12.632
47383W        W12203  30.514   9.870   4.360
47384W        W12204  42.009  33.022   3.612
47385W        W12205  37.308  33.975  11.150
47386W        W12206  14.690  10.910   4.745
47387W        W12207  35.111  21.301   4.550
47388W        W12208  19.676  21.600   0.600
47389W        W12209   6.129   5.873   2.775
47390W        W12210  22.275   8.941   3.398
47391W        W12211  26.508  42.334  13.972
47392W        W12212   2.322  38.840  14.895
47393W        W12213  39.775  15.271   1.090
47394W        W12214  17.272  20.571  14.113
47395W        W12215  34.338   3.751  12.095
47396W        W12216  19.216  10.318   0.927
47397W        W12217   7.769   4.703  13.391
47398W        W12218   8.315  37.960   1.327
47399W        W12219  28.657  37.317  12.996
47400W        W12220  31.823  18.097  11.743
47401W        W12221  37.878  28.658  13.703
47402W        W12222  24.657  43.378  13.332
47403W        W12223  35.572  29.047   1.768
47404W        W12224  36.162  39.388  12.031
47405W        W12225  33.433  13.403  10.413
47406W        W12226   9.343  10.538  10.694
47407W        W12227  17.535  39.795  10.720
47408W        W12228  16.774  38.107   4.471
47409W        W12229  19.509  25.087   0.748
47410W        W12230  22.331  43.660  11.157
47411W        W12231  35.428  34.346  13.075
47412W        W12232  31.344  27.949   0.409
47413W        W12233  34.521  12.702   4.979
47414W        W12234  36.889   7.486   4.523
47415W        W12235  33.190  11.567  13.826
47416W        W12236   4.171  20.553   1.235
47417W        W12237  34.039  38.079  12.904
47418W        W12238   2.677  38.096   1.724
47419W        W12239  21.698  23.747   4.275
47420W        W12240  43.992  20.949  12.003
47421W        W12241  18.785  44.856   3.051
47422W        W12242  17.252  17.934  11.412
47423W        W12243  40.665  20.097  14.607
47424W        W12244   2.312  39.347  14.723
47425W        W12245  10.149   4.918   4.627
47426W        W12246  36.338  43.395   3.282
47427W        W12247  13.156  19.393   1.155
47428W        W12248   1.834  25.554   1.060
47429W        W12249  10.828   8.707  11.950
47430W        W12250   7.615  21.488   1.259
47431W        W12251   6.105  22.463   2.866
47432W        W12252   9.188   3.594  11.542
47433W        W12253  28.027  31.538  11.631
47434W        W12254  30.760  28.092  12.448
47435W        W12255  41.115  36.997  11.151
47436W        W12256  25.074  38.036   1.743
47437W        W12257  21.163   4.765   1.862
47438W        W12258  13.033  26.444   1.647
47439W        W12259  37.678  22.960   2.372
47440W        W12260  18.370  40.286  14.753
47441W        W12261  35.660  42.525   3.094
47442W        W12262  34.610  33.372  12.547
47443W        W12263  44.717  16.151  12.925
47444W        W12264  11.283  25.602  12.021
47445W        W12265   9.731  35.487   2.223
47446W        W12266  28.579  15.793   2.929
47447W        W12267   4.764   2.932  12.571
47448W        W12268   2.580  30.188  10.666
47449W        W12269   0.215  29.268   1.643
47450W        W12270  44.659   4.012  13.906
47451W        W12271   5.889  13.884  10.792
47452W        W12272  27.913  39.928  13.505
47453W        W12273   9.218   8.423   3.739
47454W        W12274   4.311  39.675   2.979
47455W        W12275  16.664  10.279  12.457
47456W        W12276  28.043   4.124   2.339
47457W        W12277  15.235  22.433  13.057
47458W        W12278  13.683  36.567  13.352
47459W        W12279  21.360  27.587   2.398
47460W        W12280  27.191   7.860   3.419
47461W        W12281   7.535  44.284   1.537
47462W        W12282   9.066  37.029  12.561
47463W        W12283   5.900  30.839   2.800
47464W        W12284   0.914  35.411  14.001
47465W        W12285  15.601  19.928  14.237
47466W        W12286  22.622   9.115   1.356
47467W        W12287  37.523   5.633  13.663
47468W        W12288  32.343  20.785   3.212
47469W        W12289   3.368   9.395  12.926
47470W        W12290   7.263   3.951   4.120
47471W        W12291  44.967  12.379   0.877
47472W        W12292   6.028   9.963   4.289
47473W        W12293  35.927  28.463   2.935
47474W        W12294  20.932  22.252  12.621
47475W        W12295  37.333   6.306  14.328
47476W        W12296  39.571  36.006   2.161
47477W        W12297  27.643  42.511   0.475
47478W        W12298   2.861  32.636   1.335
47479W        W12299   6.781  43.514   0.994
47480W        W12300  37.750  32.933  14.686
47481W        W12301  16.757  37.053  14.777
47482W        W12302  37.586   1.571  13.972
47483W        W12303  30.606  14.354   3.218
47484W        W12304   5.953   5.745   4.573
47485W        W12305   5.899  34.939   0.223
47486W        W12306  16.134  34.905   1.956
47487W        W12307  26.098   4.916   4.402
47488W        W12308  32.403   1.901  10.771
47489W        W12309   7.031   4.278  12.418
47490W        W12310  43.008   0.704   3.319
47491W        W12311  28.105   3.076  13.428
47492W        W12312  26.966  43.438  12.517
47493W        W12313   4.141  26.029  10.711
47494W        W12314  12.294  32.433   1.748
47495W        W12315  15.641  14.590   3.623
47496W        W12316  22.568  24.894  14.820
47497W        W12317   9.955   3.936   3.031
47498W        W12318   0.259  38.421   3.232
47499W        W12319  27.060  35.809  11.044
47500W        W12320  20.805  42.989  12.577
47501W        W12321  37.446   5.836  14.531
47502W        W12322  34.050  29.107   1.815
47503W        W12323  12.431   7.964  12.005
47504W        W12324   3.342  27.445   3.821
47505W        W12325  23.718  27.238  14.407
47506W        W12326  15.748  13.205   4.811
47507W        W12327  12.895   1.329  13.813
47508W        W12328  29.477  24.815   4.618
47509W        W12329  15.876  31.558  11.540
47510W        W12330  42.594  13.791  14.940
47511W        W12331  24.817  22.762   0.721
47512W        W12332   3.744  32.990  12.113
47513W        W12333   6.845  28.449  14.335
47514W        W12334  30.908  36.831   0.434
47515W        W12335  32.860  19.728  10.577
47516W        W12336  11.007  30.437   0.867
47517W        W12337  13.246  31.951   4.153
47518W        W12338  14.872  40.037   0.741
47519W        W12339  31.717  31.488  14.874
47520W        W12340  33.686  17.121  11.437
47521W        W12341  10.691  18.074   4.077
47522W        W12342   6.262  35.521  11.872
47523W        W12343  22.547  16.059   2.778
47524W        W12344  19.082  35.482  13.765
47525W        W12345  37.071  12.883  14.977
47526W        W12346  41.469  23.755   3.547
47527W        W12347   2.977   8.229   3.221
47528W        W12348  31.239  37.329   3.387
47529W        W12349  16.294  26.062   0.208
47530W        W12350  38.011   8.734   1.950
47531W        W12351  18.450   8.988   2.935
47532W        W12352  33.407  34.033   2.018
47533W        W12353  38.863   8.130   4.330
47534W        W12354  18.553  19.479   3.300
47535W        W12355  33.268  11.090  13.620
47536W        W12356  29.652  31.125   1.354
47537W        W12357  17.239  35.851   3.041
47538W        W12358  17.203  37.356   2.660
47539W        W12359  20.560   2.769  14.960
47540W        W12360  37.717  35.842  11.230
47541W        W12361   5.969  25.249   1.281
47542W        W12362  31.493  19.525  12.365
47543W        W12363  35.622  22.865   4.025
47544W        W12364  27.990  10.827  10.703
47545W        W12365  35.085  25.401   2.018
47546W        W12366  31.114   7.724   3.850
47547W        W12367  29.063   2.416  12.079
47548W        W12368  12.693  38.482   4.472
47549W        W12369  28.127  29.460  14.995
47550W        W12370  42.799  28.308   2.092
47551W        W12371  10.173  40.587   3.167
47552W        W12372  14.133  35.917   0.000
47553W        W12373  43.952  21.578   3.231
47554W        W12374   7.246  19.544   2.946
47555W        W12375   9.933  41.266  14.410
47556W        W12376  13.687  43.430   3.437
47557W        W12377  28.154  12.041  13.748
47558W        W12378  42.938  25.031  12.976
47559W        W12379  17.562  32.391   0.931
47560W        W12380   6.298   6.843  12.463
47561W        W12381  21.651  36.814  14.069
47562W        W12382   6.284  28.023   0.880
47563W        W12383  12.170  34.645   3.721
47564W        W12384   7.591  26.971   2.120
47565W        W12385  24.677  11.638  10.773
47566W        W12386  31.550   8.725  14.914
47567W        W12387   7.854   4.227  14.792
47568W        W12388   1.316   8.941  12.328
47569W        W12389   2.695  22.268   2.000
47570W        W12390   2.514  42.398   0.185
47571W        W12391  30.730   9.188  10.558
47572W        W12392  22.555  40.313  12.836
47573W        W12393  41.002   9.582  13.396
47574W        W12394  30.203   3.529  10.940
47575W        W12395   8.948  43.326   0.951
47576W        W12396  22.140  10.819  12.053
47577W        W12397  27.461  12.932   4.392
47578W        W12398  28.701   1.314   0.474
47579W        W12399   3.802  27.091   1.227
47580W        W12400  31.993   2.214   1.843
47581W        W12401  14.956   8.810   4.189
47582W        W12402   9.829  41.031  13.945
47583W        W12403   0.398  14.610   1.262
47584W        W12404   2.442   6.931   3.828
47585W        W12405  44.903  21.283  14.119
47586W        W12406  18.214  39.399  12.164
47587W        W12407  43.327  14.183   1.237
47588W        W12408  16.305  19.480   3.856
47589W        W12409   8.399  18.623   1.486
47590W        W12410  24.785  11.181   4.562
47591W        W12411  35.152  33.031   2.803
47592W        W12412  34.520  14.350  10.958
47593W        W12413  24.639  18.856   1.796
47594W        W12414   3.159  28.061  11.141
47595W        W12415  17.982   7.403   3.540
47596W        W12416   1.906  21.603   1.424
47597W        W12417   3.943  36.109  13.846
47598W        W12418  21.744  15.336  12.921
47599W        W12419  18.608  27.159   2.438
47600W        W12420   3.011  26.718  12.347
47601W        W12421   7.949  29.131   4.644
47602W        W12422  43.231  34.140   3.311
47603W        W12423  42.871  32.833  11.286
47604W        W12424  13.584   9.076   1.636
47605W        W12425  22.211  35.983  14.167
47606W        W12426  22.016  32.890   2.656
47607W        W12427  31.358  32.139   3.878
47608W        W12428  41.739   7.979  12.995
47609W        W12429  17.133  29.297   0.330
47610W        W12430   9.219  44.510  11.818
47611W        W12431  30.667  21.156   0.433
47612W        W12432  13.608  10.745   3.424
47613W        W12433  26.417  37.514   4.117
47614W        W12434   6.802   9.659  11.936
47615W        W12435  15.154  22.746  13.846
47616W        W12436   0.758   9.161   1.467
47617W        W12437  18.738  17.857  14.085
47618W        W12438  40.452  14.378  10.606
47619W        W12439  36.052  44.948  13.448
47620W        W12440  11.239  17.536  13.312
47621W        W12441  17.193  19.902   9.971
47622W        W12442  41.385  10.788   3.325
47623W        W12443   9.969   2.019  12.976
47624W        W12444  35.323   7.849  10.556
47625W        W12445  31.905  22.615  13.350
47626W        W12446   4.746  13.723   0.733
47627W        W12447  27.657  23.525  13.901
47628W        W12448   4.749   7.726  12.874
47629W        W12449   5.482   3.351   3.839
47630W        W12450  42.387  42.872   0.138
47631W        W12451  26.981  34.788  10.728
47632W        W12452   9.138   2.450   3.214
47633W        W12453  32.013  44.422  14.819
47634W        W12454   1.375   5.465  12.138
47635W        W12455  31.310  18.888  12.955
47636W        W12456  26.900   5.811  11.676
47637W        W12457  34.518  40.612   3.201
47638W        W12458  14.943  10.716  10.843
47639W        W12459  37.393   2.940  10.499
47640W        W12460  20.598  25.396  13.110
47641W        W12461  27.278  31.133   2.632
47642W        W12462  32.697   3.694  11.124
47643W        W12463  40.839  22.551   3.825
47644W        W12464  43.243  42.411   1.501
47645W        W12465  25.073  33.416  12.011
47646W        W12466   9.064  25.136   1.712
47647W        W12467  11.769  20.042   1.327
47648W        W12468  33.956  25.435  13.472
47649W        W12469  33.090   4.878  11.449
47650W        W12470   2.012  44.218   2.302
47651W        W12471   1.480  14.836  11.496
47652W        W12472   0.910  42.933  14.359
47653W        W12473  11.591  16.765   1.228
47654W        W12474   1.945  32.072  10.654
47655W        W12475  12.664  22.436   3.803
47656W        W12476  39.767  21.088  14.714
47657W        W12477  27.357  27.426   0.989
47658W        W12478  24.163  12.245   0.700
47659W        W12479  25.154  20.377   1.633
47660W        W12480  36.617  16.927   5.266
47661W        W12481   0.850  41.490  14.335
47662W        W12482   4.974  29.991  12.168
47663W        W12483  26.851  13.819   2.343
47664W        W12484  16.411  38.358   2.821
47665W        W12485  41.384   1.552   1.676
47666W        W12486  41.310  10.131   2.823
47667W        W12487   1.262   5.470   1.452
47668W        W12488  33.862  32.850   3.020
47669W        W12489  22.166  15.593   1.315
47670W        W12490  13.842   7.305   2.393
47671W        W12491  16.097  17.249  11.608
47672W        W12492  38.756  13.550  12.518
47673W        W12493  20.342  21.494  11.103
47674W        W12494  25.108  28.440  14.260
47675W        W12495  15.573  23.685  13.093
47676W        W12496  13.722  42.936   3.867
47677W        W12497   3.874  12.385  12.932
47678W        W12498   4.702  28.103  11.940
47679W        W12499  40.050  13.881   0.703
47680W        W12500  29.456  40.026  13.720
47681W        W12501  37.586  28.992   3.301
47682W        W12502   7.063  11.774  11.479
47683W        W12503  24.678  26.999  14.686
47684W        W12504  27.431   1.421  12.924
47685W        W12505  42.328  12.481   1.815
47686W        W12506  34.850  32.471  12.848
47687W        W12507   4.012  30.584  10.476
47688W        W12508   9.761  30.733   3.311
47689W        W12509  16.734  29.356   4.382
47690W        W12510  41.786  29.149  11.600
47691W        W12511  35.132   8.340  10.612
47692W        W12512  23.302   9.550  10.018
47693W        W12513  25.264  18.905   4.185
47694W        W12514  22.205  11.827   2.259
47695W        W12515  25.918  13.923   3.662
47696W        W12516   9.678  21.700   0.428
47697W        W12517  32.354  30.926  11.648
47698W        W12518  35.012  43.813  12.301
47699W        W12519  22.140  20.466   2.317
47700W        W12520  10.901  38.014   0.945
47701W        W12521  13.232  27.604   0.642
47702W        W12522  38.981  42.970  13.911
47703W        W12523   7.414  22.785  12.472
47704W        W12524  28.143  30.346  12.875
47705W        W12525  24.437   0.197  12.565
47706W        W12526  27.204   2.053  12.179
47707W        W12527  24.074  25.702   0.807
47708W        W12528   8.516  31.450  12.533
47709W        W12529  32.073   0.977   0.386
47710W        W12530  39.741  39.641  13.982
47711W        W12531  17.220  17.761   0.669
47712W        W12532  37.872   1.208  14.910
47713W        W12533  10.890   5.271   2.417
47714W        W12534  27.449  29.205  11.544
47715W        W12535   4.686  18.304  14.468
47716W        W12536  15.805  23.456  13.508
47717W        W12537  13.378  15.742  10.931
47718W        W12538  16.533  24.295  10.645
47719W        W12539  23.989  16.810  12.916
47720W        W12540  31.980  19.278   2.770
47721W        W12541  12.237  43.517   0.370
47722W        W12542  13.757  29.488   2.962
47723W        W12543   1.339   3.790   4.570
47724W        W12544  12.379  38.936   3.759
47725W        W12545  43.485  33.463   0.535
47726W        W12546  38.478  30.617  11.556
47727W        W12547   1.018  41.746   3.199
47728W        W12548  15.807  27.695   4.516
47729W        W12549  10.406  23.051  13.983
47730W        W12550  12.210   3.637   0.848
47731W        W12551  19.557  39.907   2.620
47732W        W12552  44.311   2.495  14.053
47733W        W12553   2.889  37.935   0.351
47734W        W12554  26.485  30.240   4.274
47735W        W12555   9.932  44.794   4.597
47736W        W12556   7.878  27.880  14.944
47737W        W12557   3.813  27.191  11.841
47738W        W12558  34.997  39.517   1.302
47739W        W12559  43.262   5.487   4.228
47740W        W12560  42.777   6.304  11.630
47741W        W12561  29.631  30.486  10.711
47742W        W12562  29.918  30.589  13.821
47743W        W12563  14.258  15.849   5.191
47744W        W12564  42.161  13.250   0.301
47745W        W12565  24.756  27.432  11.818
47746W        W12566   9.798  32.334  13.987
47747W        W12567  19.213   1.353   0.005
47748W        W12568  18.245   4.807  14.781
47749W        W12569  37.876  12.743   3.328
47750W        W12570  28.389  28.932  14.362
47751W        W12571  33.268  14.194   3.498
47752W        W12572  13.545   6.648  12.559
47753W        W12573  19.267  20.180  12.099
47754W        W12574  35.045   0.854   5.064
47755W        W12575  15.063   1.822  12.479
47756W        W12576  12.838  22.941  13.999
47757W        W12577  42.250  20.092  10.659
47758W        W12578  10.067  32.643   2.775
47759W        W12579  38.538  30.682  13.019
47760W        W12580   0.484   5.690  12.706
47761W        W12581   7.211  24.387  14.465
47762W        W12582   7.355  13.061   2.882
47763W        W12583  37.138  41.388   0.264
47764W        W12584  28.596  19.257  11.529
47765W        W12585  40.867  40.445   1.039
47766W        W12586  12.147  44.965   1.329
47767W        W12587   0.793  13.759   3.234
47768W        W12588  22.988  11.135  14.043
47769W        W12589  31.566  33.217  13.447
47770W        W12590  32.252  28.220   1.259
47771W        W12591  15.738   1.645  12.102
47772W        W12592  25.837   5.200   4.048
47773W        W12593  15.329   2.059  11.500
47774W        W12594  10.847  37.077  12.947
47775W        W12595   1.798  21.327  13.123
47776W        W12596   6.279   2.547   2.701
47777W        W12597  42.473   0.717   3.699
47778W        W12598  41.307  21.222  12.497
47779W        W12599  26.173  40.755  14.045
47780W        W12600  33.471  38.482   2.960
47781W        W12601  26.711   5.926  12.123
47782W        W12602  24.045  34.418   3.714
47783W        W12603  23.463   6.929   2.231
47784W        W12604  20.963  31.620  14.010
47785W        W12605  22.846   2.259  14.898
47786W        W12606  23.159  15.867  11.163
47787W        W12607   2.287  29.045  11.133
47788W        W12608   9.775  26.983   2.873
47789W        W12609  18.941  15.114  12.594
47790W        W12610  31.474   5.393   3.462
47791W        W12611   7.813  36.749  14.345
47792W        W12612  25.053   4.222   2.250
47793W        W12613  17.091  16.753  14.947
47794W        W12614  43.792  20.100   4.877
47795W        W12615  13.145  29.559  12.570
47796W        W12616  44.020   6.953   0.417
47797W        W12617   9.684   9.706   3.146
47798W        W12618   1.969  25.565   2.830
47799W        W12619  33.402  34.049   3.048
47800W        W12620  37.962  16.067  12.384
47801W        W12621  37.784  44.941  14.524
47802W        W12622  11.541  44.140  14.884
47803W        W12623  11.866   4.845  10.754
47804W        W12624   2.527   0.778   0.693
47805W        W12625  16.571  15.219  12.376
47806W        W12626  10.545  23.096   0.730
47807W        W12627  17.885  31.552   3.624
47808W        W12628  42.478   3.332  11.595
47809W        W12629   9.369  37.948   4.524
47810W        W12630   7.536  20.261  11.157
47811W        W12631  11.263  41.555  13.390
47812W        W12632   5.620  20.962   3.298
47813W        W12633  43.570   2.669  14.573
47814W        W12634  30.925  34.571  10.707
47815W        W12635  30.655  28.674   3.418
47816W        W12636  23.715  17.133  13.901
47817W        W12637   6.760  38.644   3.599
47818W        W12638   7.748  43.476  13.750
47819W        W12639   7.946  41.337  14.933
47820W        W12640   3.415  13.371   3.832
47821W        W12641  16.084  24.119   0.581
47822W        W12642  26.011  18.289   2.395
47823W        W12643  27.037  37.019   3.178
47824W        W12644  17.838  24.879   2.758
47825W        W12645  25.388  19.499  11.508
47826W        W12646  34.045   5.184  12.583
47827W        W12647  12.516  41.041   4.491
47828W        W12648  19.169  32.051   2.356
47829W        W12649  24.666   3.397   4.513
47830W        W12650  27.730   8.598   1.044
47831W        W12651  40.663  19.126   2.308
47832W        W12652  36.379  38.440   1.266
47833W        W12653   9.720  41.586   2.779
47834W        W12654  35.330  31.057   2.280
47835W        W12655  40.570  15.726  11.152
47836W        W12656  40.288   4.514  11.162
47837W        W12657   7.746   1.658  12.672
47838W        W12658  13.520  35.653   0.781
47839W        W12659   1.813   2.825  14.936
47840W        W12660  22.128  32.387   2.217
47841W        W12661  38.357  32.546   3.664
47842W        W12662   4.816  28.315  12.430
47843W        W12663  19.494  41.028   4.762
47844W        W12664  36.964  18.022   0.914
47845W        W12665  24.574  11.594   1.711
47846W        W12666  38.372  18.732   4.489
47847W        W12667  24.419  41.928  12.805
47848W        W12668  17.113  22.204   3.161
47849W        W12669  22.545  40.535   1.734
47850W        W12670  43.004  30.489   0.404
47851W        W12671  41.317  17.229  10.746
47852W        W12672  28.577  36.694   4.732
47853W        W12673   6.933  10.085  14.990
47854W        W12674  36.966   3.256   2.215
47855W        W12675   6.728  24.187  13.882
47856W        W12676   3.834  32.909   1.184
47857W        W12677  15.850  28.940  13.126
47858W        W12678  10.225   9.416   4.254
47859W        W12679  20.018  12.445   1.376
47860W        W12680  27.573  14.821  11.636
47861W        W12681  18.286  17.110  11.076
47862W        W12682   6.154   1.862   4.496
47863W        W12683  33.832  36.137   0.480
47864W        W12684  29.410  19.318   2.638
47865W        W12685  25.102  25.317   1.835
47866W        W12686  36.450  17.277  14.791
47867W        W12687  12.680  32.767   1.884
47868W        W12688  27.022  14.674   4.899
47869W        W12689  18.173  19.923   0.910
47870W        W12690  23.113  36.531   3.182
47871W        W12691  10.244  17.072   1.308
47872W        W12692  12.042   0.234  12.388
47873W        W12693  16.566  29.977   1.366
47874W        W12694   5.440  16.636   1.020
47875W        W12695  11.438  29.531  13.161
47876W        W12696  25.134   9.282  12.905
47877W        W12697  17.742  41.916   2.598
47878W        W12698  33.988   1.180  13.117
47879W        W12699  42.571  11.328  14.184
47880W        W12700  18.934   9.219  13.446
47881W        W12701  37.940  41.089   1.315
47882W        W12702  39.384  29.579   2.262
47883W        W12703  44.428  31.910  11.108
47884W        W12704  37.324  43.859   1.397
47885W        W12705  26.397  44.825  14.290
47886W        W12706  13.694  28.193   4.871
47887W        W12707  23.558  31.036  14.177
47888W        W12708  29.933   9.405   4.187
47889W        W12709  16.622   5.419   1.996
47890W        W12710  40.809  28.044  12.998
47891W        W12711  42.321  18.748  12.646
47892W        W12712  24.820  14.659   1.119
47893W        W12713  27.055  40.913  14.533
47894W        W12714  28.918  23.552  12.420
47895W        W12715  18.732  28.864  13.961
47896W        W12716  21.213   2.616   4.558
47897W        W12717  31.918  34.666   2.350
47898W        W12718  13.204  39.863  11.049
47899W        W12719  40.765  10.298   0.035
47900W        W12720  15.906  14.665  13.184
47901W        W12721  32.102  10.877   4.669
47902W        W12722  26.750  29.618   1.888
47903W        W12723  39.926  12.917   1.326
47904W        W12724   1.798  25.711  12.761
47905W        W12725  18.575  44.709  11.590
47906W        W12726   1.275  42.034  14.761
47907W        W12727  17.696  16.343   1.955
47908W        W12728  29.409  18.940  11.367
47909W        W12729  38.116  29.617   2.810
47910W        W12730  32.531   2.633   4.106
47911W        W12731  36.576   1.524  11.526
47912W        W12732  35.155  40.326   4.550
47913W        W12733  34.735   6.754  14.909
47914W        W12734  39.840   1.103   4.462
47915W        W12735  23.309  12.447   3.282
47916W        W12736  43.737  43.022   3.668
47917W        W12737  26.463  29.192  10.684
47918W        W12738  14.397  28.170   3.611
47919W        W12739  30.931   0.851   4.660
47920W        W12740  41.711  12.312   4.839
47921W        W12741  28.344  12.534  13.688
47922W        W12742   2.259   8.918   2.286
47923W        W12743  31.508  13.005  10.759
47924W        W12744   5.712   4.271   4.698
47925W        W12745  25.458   4.767  14.421
47926W        W12746  30.073  13.353   2.326
47927W        W12747   7.316   7.161   2.659
47928W        W12748  22.096   9.892   1.357
47929W        W12749  41.250   7.162  11.159
47930W        W12750   1.242  26.746   4.883
47931W        W12751  15.592  11.592   5.018
47932W        W12752  36.098  21.909  12.003
47933W        W12753   9.401  43.453   0.710
47934W        W12754  27.084  25.935   4.095
47935W        W12755  44.747  23.283   2.365
47936W        W12756   8.271  39.183   2.012
47937W        W12757   8.488  43.427  11.982
47938W        W12758  43.665   0.720  12.451
47939W        W12759   8.810  40.563   4.059
47940W        W12760  38.513   5.270  12.723
47941W        W12761  22.097  17.499  10.621
47942W        W12762   8.398  37.451  10.671
47943W        W12763   5.384  14.497   3.753
47944W        W12764  18.528  12.936   0.820
47945W        W12765   9.145   0.915   4.693
47946W        W12766  34.582  27.208   0.823
47947W        W12767  43.909  23.431  10.943
47948W        W12768  20.574  38.073  12.138
47949W        W12769   4.837  17.279   1.317
47950W        W12770  34.781  22.049   3.182
47951W        W12771  20.364  27.849   3.177
47952W        W12772  34.033  42.111  10.633
47953W        W12773  43.201  43.874  10.669
47954W        W12774  44.340  35.815   2.858
47955W        W12775   0.481  42.553  13.899
47956W        W12776  25.046   4.273   3.258
47957W        W12777   6.234   5.997   3.618
47958W        W12778  19.678  43.531  14.428
47959W        W12779  35.545   5.637   3.247
47960W        W12780  16.730   8.616  13.796
47961W        W12781  26.285  26.070   4.356
47962W        W12782  33.299   7.450   4.120
47963W        W12783  17.263   9.309   4.195
47964W        W12784  15.775  23.093   2.340
47965W        W12785  23.125  30.618  13.341
47966W        W12786  22.605  22.107   0.874
47967W        W12787  21.028  13.632  14.357
47968W        W12788  13.901  25.675   0.405
47969W        W12789  38.497   8.730  14.748
47970W        W12790  41.198  29.689  12.563
47971W        W12791   9.682  39.010  12.644
47972W        W12792   1.389  29.289   4.680
47973W        W12793   2.909  31.610   0.547
47974W        W12794  40.804  22.632  11.352
47975W        W12795  34.961  42.891   2.270
47976W        W12796  36.705  38.561  11.164
47977W        W12797  42.179  37.474   3.689
47978W        W12798  22.862   7.167  10.718
47979W        W12799   1.458  18.975  12.844
47980W        W12800  36.293  42.606   2.832
47981W        W12801  40.435  20.675   2.429
47982W        W12802   6.630  18.331  13.577
47983W        W12803  44.312  25.105   3.298
47984W        W12804  20.398   0.582   2.986
47985W        W12805  26.164  37.965   2.586
47986W        W12806  29.635  30.041   0.860
47987W        W12807  20.608  44.540  12.436
47988W        W12808  29.565  25.056  11.132
47989W        W12809  33.433  24.605   3.150
47990W        W12810  28.076  20.220   0.255
47991W        W12811  23.665  20.513   0.914
47992W        W12812  33.550  31.541   1.041
47993W        W12813   7.301  32.965   2.776
47994W        W12814   0.690   7.818  14.396
47995W        W12815  31.101  12.736  10.651
47996W        W12816   5.133  25.616   0.359
47997W        W12817  36.523  43.220   2.051
47998W        W12818  19.606  19.778   1.362
47999W        W12819  21.030  38.649   3.505
48000W        W12820  12.753  31.232   0.305
48001W        W12821   3.297   8.129   4.148
48002W        W12822  13.295  14.041   3.779
48003W        W12823  40.820  22.735   1.922
48004W        W12824  34.662  18.806   4.214
48005W        W12825   9.498  22.156  12.124
48006W        W12826   2.338  33.548  13.002
48007W        W12827  36.011  22.856  13.838
48008W        W12828  17.770  19.793  10.693
48009W        W12829  41.286  44.962  12.515
48010W        W12830  13.292  26.698  14.832
48011W        W12831  25.001  32.018   4.124
48012W        W12832  41.692  22.820   0.946
48013W        W12833  16.088  14.480   2.702
48014W        W12834  34.374  32.239  10.647
48015W        W12835  15.622   4.470   2.320
48016W        W12836  36.525  44.863   3.762
48017W        W12837   7.382  40.284   4.255
48018W        W12838  14.792   7.442   2.297
48019W        W12839  36.148  25.165   1.368
48020W        W12840  24.067   5.724  10.135
48021W        W12841   8.690   5.417   2.175
48022W        W12842  38.012  26.623  13.440
48023W        W12843   0.728  26.725  10.221
48024W        W12844  40.462  14.624   0.439
48025W        W12845  40.545  26.976  12.469
48026W        W12846  31.298  16.549  11.610
48027W        W12847  10.155  14.284  12.373
48028W        W12848  16.179  43.397   0.683
48029W        W12849   7.694  36.145   4.668
48030W        W12850  38.169  15.621  14.945
48031W        W12851  17.312  37.312   0.467
48032W        W12852  43.279  36.490  12.128
48033W        W12853   5.732  33.953   4.094
48034W        W12854  17.812  39.053   1.830
48035W        W12855   0.352  14.939   3.967
48036W        W12856  22.458   5.809   3.660
48037W        W12857  12.928   8.593   2.352
48038W        W12858  26.981   0.358  10.834
48039W        W12859  32.073  29.374  12.913
48040W        W12860  25.285  39.997  14.331
48041W        W12861   1.423  17.888  13.890
48042W        W12862  29.693  18.245   1.084
48043W        W12863  18.240  18.243  10.445
48044W        W12864  14.979  26.464  11.464
48045W        W12865  17.394  28.943  13.003
48046W        W12866  33.916  33.833  12.214
48047W        W12867  38.871  42.071   1.382
48048W        W12868   4.678  15.398  11.590
48049W        W12869  19.783  41.818   0.075
48050W        W12870   5.482  15.522  14.950
48051W        W12871  24.977  17.503   1.962
48052W        W12872  31.556  29.178   0.960
48053W        W12873   0.238  42.084  13.910
48054W        W12874  20.094  10.856   2.294
48055W        W12875  23.291  18.128  10.518
48056W        W12876   3.632  20.078   3.278
48057W        W12877  10.227  43.764   4.248
48058W        W12878   1.473  25.319  12.865
48059W        W12879  34.377   5.027  14.435
48060W        W12880  36.639  42.651   4.594
48061W        W12881   3.298  12.915   4.752
48062W        W12882  17.118  30.136   0.953
48063W        W12883  43.466  21.640  10.431
48064W        W12884  19.298  23.667  11.719
48065W        W12885  31.103  17.881  11.520
48066W        W12886  36.780   0.004  14.883
48067W        W12887  16.337   6.165   3.260
48068W        W12888  24.751  29.171  12.972
48069W        W12889  13.231   1.474  14.887
48070W        W12890  24.044  28.466   0.676
48071W        W12891  42.349  10.254  10.671
48072W        W12892  44.252   6.415   3.255
48073W        W12893  31.133  10.295  11.186
48074W        W12894  37.644  40.948   3.345
48075W        W12895  19.278  40.298   1.491
48076W        W12896   6.175  28.263  14.421
48077W        W12897  34.847  35.603  14.344
48078W        W12898  41.861  16.780   2.946
48079W        W12899   0.267  22.143  12.051
48080W        W12900  32.517  17.200  12.965
48081W        W12901  15.584  30.560   0.016
48082W        W12902  20.880  26.366  12.903
48083W        W12903  41.770   0.795   1.578
48084W        W12904   6.790   7.260  13.139
48085W        W12905  38.255  30.212  11.154
48086W        W12906   3.445  15.758  13.448
48087W        W12907  24.642  12.599   0.013
48088W        W12908  12.793  35.208  13.310
48089W        W12909  37.408  31.610  14.026
48090W        W12910  17.838  10.551   5.124
48091W        W12911  19.528  38.072   2.340
48092W        W12912  40.287  21.118   2.184
48093W        W12913   4.206  32.148  14.381
48094W        W12914   8.998  34.371  14.887
48095W        W12915  18.882  31.602   2.379
48096W        W12916   8.478  37.458  13.292
48097W        W12917   3.798  15.011  14.454
48098W        W12918  15.157  35.524  14.069
48099W        W12919   4.327  26.389  13.373
48100W        W12920  27.606  32.103  13.924
48101W        W12921  20.590   0.488   1.252
48102W        W12922  43.351  20.143   4.592
48103W        W12923   3.390   4.000  12.508
48104W        W12924  13.969  43.310  12.046
48105W        W12925  44.263   7.943   2.108
48106W        W12926   5.112  19.907  12.075
48107W        W12927  27.182  40.219   0.203
48108W        W12928  34.699  22.770  14.551
48109W        W12929  43.817  21.177   2.290
48110W        W12930   2.006  33.340   0.867
48111W        W12931   8.757  21.110   4.749
48112W        W12932  26.510  39.623  11.836
48113W        W12933  41.460  30.656  11.454
48114W        W12934  43.143   6.395  10.045
48115W        W12935  43.524  37.500   1.704
48116W        W12936   9.360  19.196   1.253
48117W        W12937   0.715   3.272   4.244
48118W        W12938  20.145  44.547  12.731
48119W        W12939  29.057  41.838   1.315
48120W        W12940  44.061  38.807  13.558
48121W        W12941  36.022  41.547   4.054
48122W        W12942  43.882  11.650   3.039
48123W        W12943   8.159  23.653   1.028
48124W        W12944   4.287  14.798   3.091
48125W        W12945  25.068  35.518   1.233
48126W        W12946  20.794  30.215   1.777
48127W        W12947  24.001  31.088  12.020
48128W        W12948  31.907  11.627   0.816
48129W        W12949  13.678  42.387   4.139
48130W        W12950  11.293   6.988  14.399
48131W        W12951  26.152   7.209   0.693
48132W        W12952  18.253  26.723   1.753
48133W        W12953  17.000  37.966   1.108
48134W        W12954  21.143   5.694   2.320
48135W        W12955  44.307   6.445  14.875
48136W        W12956  38.118  37.427   0.322
48137W        W12957  43.987  24.566  13.575
48138W        W12958  36.665  26.737  12.130
48139W        W12959  39.901  37.785   2.744
48140W        W12960   1.772  28.261   0.497
48141W        W12961  31.348  24.782  11.692
48142W        W12962  12.250  31.015  12.836
48143W        W12963   4.622  14.160  13.871
48144W        W12964   8.562   7.171   1.631
48145W        W12965  26.176  39.501   4.531
48146W        W12966  30.452  17.606  10.310
48147W        W12967  33.561  33.939   0.473
48148W        W12968  31.890  31.353   4.142
48149W        W12969  27.538   8.182   2.252
48150W        W12970  36.396  10.891   1.425
48151W        W12971   1.327  26.959   3.097
48152W        W12972   3.445  36.612  14.387
48153W        W12973  30.584  34.125   3.623
48154W        W12974   0.873  13.136  13.435
48155W        W12975  22.993  39.286  10.682
48156W        W12976  23.494   2.898   2.778
48157W        W12977  31.350   8.507   0.355
48158W        W12978  26.816  35.426   2.275
48159W        W12979  24.119  35.348  11.625
48160W        W12980   9.150  32.572  12.877
48161W        W12981  41.449  12.294   0.244
48162W        W12982  22.945  13.293   4.902
48163W        W12983  39.842  15.742   3.330
48164W        W12984  10.147  41.635  11.032
48165W        W12985  20.191  14.563  11.456
48166W        W12986  21.056  38.179   3.250
48167W        W12987  43.517  27.445   2.243
48168W        W12988   0.262  29.159  11.409
48169W        W12989  24.216   0.805   4.332
48170W        W12990  40.744  43.233  13.884
48171W        W12991  37.336  27.559  13.938
48172W        W12992  22.762  18.866   2.841
48173W        W12993  13.590   5.586  11.176
48174W        W12994  27.619   6.268  11.994
48175W        W12995   9.856  39.729   0.656
48176W        W12996  43.753  34.384   4.586
48177W        W12997  37.654   5.302  13.289
48178W        W12998  28.208  20.993  14.403
48179W        W12999   7.048  32.420  11.973
48180W        W13000  14.344  42.822  11.193
48181W        W13001  23.693  29.477   0.846
48182W        W13002  18.062  30.115  14.685
48183W        W13003   5.384  44.940   1.360
48184W        W13004  35.322  11.725  12.036
48185W        W13005  36.309   5.664  11.113
48186W        W13006  24.208  20.487   0.942
48187W        W13007  13.429  43.768   1.668
48188W        W13008  22.478  40.426   5.131
48189W        W13009  32.574  19.966  14.485
48190W        W13010   6.243   5.309  11.131
48191W        W13011   2.215  38.379  13.551
48192W        W13012  32.543  42.388  14.956
48193W        W13013  34.631  22.168  11.331
48194W        W13014  12.157  32.745   4.501
48195W        W13015  32.433  20.013  12.279
48196W        W13016   0.381  44.842   1.493
48197W        W13017   6.015  15.186  14.137
48198W        W13018  43.855  39.898  12.584
48199W        W13019  28.446  16.274   1.799
48200W        W13020  38.259  30.480   3.189
48201W        W13021  37.305   4.406   4.080
48202W        W13022  27.560   7.216   3.595
48203W        W13023   6.279  19.367  11.095
48204W        W13024  36.448  23.725   3.352
48205W        W13025  11.618  13.631   2.132
48206W        W13026  14.123   0.376  11.587
48207W        W13027   3.425  19.580  12.538
48208W        W13028  12.408  14.252  10.798
48209W        W13029   1.886  15.318  14.356
48210W        W13030  27.638  22.078   0.842
48211W        W13031  44.735   2.298   2.804
48212W        W13032  23.270  19.240  13.720
48213W        W13033  36.549  39.797   0.466
48214W        W13034  24.914  20.745  11.507
48215W        W13035  16.356  12.300  10.846
48216W        W13036  26.701  41.303   2.365
48217W        W13037  15.279  12.181   2.456
48218W        W13038   1.246  39.087   2.929
48219W        W13039  26.490   8.276   1.985
48220W        W13040  21.207  29.985  11.473
48221W        W13041   1.190  18.748   4.366
48222W        W13042   7.656  28.102   3.219
48223W        W13043  12.845   5.876   3.102
48224W        W13044  37.961  30.173  12.388
48225W        W13045  35.877  34.061  10.623
48226W        W13046  21.313   7.302   4.948
48227W        W13047  39.544  11.123   0.289
48228W        W13048  21.003  20.580  12.612
48229W        W13049   9.775  18.969   3.347
48230W        W13050  33.132  26.650  13.874
48231W        W13051  27.711   4.915   2.307
48232W        W13052  24.299  29.287   4.282
48233W        W13053   3.751  37.562   0.687
48234W        W13054  44.978   3.730  10.750
48235W        W13055   2.264  15.752  10.956
48236W        W13056   3.307  26.986   0.935
48237W        W13057  20.339  33.655   2.873
48238W        W13058  26.720  37.960   1.310
48239W        W13059  22.903   4.300   4.149
48240W        W13060  44.967   6.024  11.580
48241W        W13061   2.346  21.465  11.164
48242W        W13062   0.895  21.961   2.268
48243W        W13063   7.292   5.391  13.762
48244W        W13064  33.960   4.221   2.803
48245W        W13065  44.381   4.534   3.296
48246W        W13066  41.986  35.738  10.667
48247W        W13067  35.311   0.805   1.732
48248W        W13068   3.493   7.141   0.810
48249W        W13069  43.821   6.206  14.749
48250W        W13070  39.916   7.284   3.121
48251W        W13071   7.851  26.925  12.384
48252W        W13072  36.202  10.289   1.426
48253W        W13073  44.288  38.695   2.300
48254W        W13074  30.865  36.068  12.450
48255W        W13075   4.553  37.600   0.363
48256W        W13076  41.269   1.897  11.930
48257W        W13077  13.207  12.811  12.563
48258W        W13078   5.152   7.799   4.388
48259W        W13079   1.385  33.146  14.821
48260W        W13080  36.097  44.386   4.330
48261W        W13081  26.903  18.274  11.117
48262W        W13082  12.159  18.356   0.317
48263W        W13083  14.065   1.282  12.923
48264W        W13084   6.654  21.033   3.216
48265W        W13085  31.196  28.279  13.451
48266W        W13086  19.121  29.477   2.136
48267W        W13087  34.919   5.226  13.422
48268W        W13088  29.002  11.929   3.563
48269W        W13089  18.655  40.422   2.718
48270W        W13090   4.959   1.151  12.112
48271W        W13091  32.153   7.337  13.037
48272W        W13092  10.125  35.962   1.819
48273W        W13093   9.690  40.152   4.069
48274W        W13094  43.491   8.369  12.582
48275W        W13095   8.324  13.004  11.557
48276W        W13096  42.387   9.683  12.526
48277W        W13097  34.615  20.983  11.522
48278W        W13098  10.862   5.336  11.931
48279W        W13099  16.258  27.890   4.751
48280W        W13100   9.210  25.695  12.113
48281W        W13101  38.105   7.838  11.090
48282W        W13102  44.266  32.038  12.819
48283W        W13103   5.811  27.953  11.557
48284W        W13104  12.195  31.439   3.921
48285W        W13105   3.380  27.488  10.109
48286W        W13106  21.977  40.033  13.400
48287W        W13107  14.822  24.023   3.343
48288W        W13108   6.828  36.352  11.658
48289W        W13109  38.533  37.935   2.921
48290W        W13110  21.630  37.605  10.323
48291W        W13111  27.120  10.733   3.604
48292W        W13112  25.730  40.178   1.175
48293W        W13113  18.168  13.495   4.918
48294W        W13114  10.048  27.138  10.596
48295W        W13115  19.766   2.260  13.388
48296W        W13116  16.976  33.967  10.236
48297W        W13117  27.904  19.284   0.509
48298W        W13118  41.576  15.252  13.357
48299W        W13119  29.287  17.145  11.701
48300W        W13120  42.283  10.208  12.554
48301W        W13121  20.423  42.471  11.524
48302W        W13122  22.952  42.353   3.627
48303W        W13123   0.513  19.114  14.836
48304W        W13124  39.900  26.270   0.427
48305W        W13125  10.931  13.222  11.507
48306W        W13126  43.955  26.036  11.249
48307W        W13127  21.629  37.269   5.055
48308W        W13128  19.833  15.287   4.385
48309W        W13129  40.778  44.446   4.872
48310W        W13130   1.730  44.262  13.275
48311W        W13131  44.901   3.123  12.971
48312W        W13132  24.978  10.428  12.390
48313W        W13133  27.107  34.474  11.598
48314W        W13134  18.936  19.322  14.464
48315W        W13135   6.358  19.476   3.766
48316W        W13136  17.698  18.504   2.720
48317W        W13137  42.558  31.840   3.950
48318W        W13138  30.686  32.001   3.067
48319W        W13139  31.883  17.826  12.178
48320W        W13140   0.122  28.159  12.613
48321W        W13141  35.093  19.394  11.863
48322W        W13142  28.646  33.478  14.282
48323W        W13143  44.450  41.267   1.105
48324W        W13144  38.937  15.584  12.376
48325W        W13145  40.336  39.878   3.339
48326W        W13146  15.833  10.309  14.909
48327W        W13147  40.721  42.805  12.037
48328W        W13148  15.307  15.479   4.593
48329W        W13149  41.599  43.347  11.058
48330W        W13150   5.928   8.277   4.769
48331W        W13151  43.542   6.284  13.753
48332W        W13152  39.096  10.438   2.112
48333W        W13153  36.043   5.692   3.112
48334W        W13154   3.053  30.362  10.721
48335W        W13155   8.303  32.391  12.133
48336W        W13156  10.927  23.020  13.966
48337W        W13157  25.800  40.000  12.101
48338W        W13158  22.471   6.911   0.688
48339W        W13159   5.763   6.912   1.232
48340W        W13160  25.850   0.614  14.256
48341W        W13161  24.279  42.524  11.603
48342W        W13162  18.025  38.547   1.746
48343W        W13163  14.959  42.547   4.997
48344W        W13164   8.909   1.551   3.118
48345W        W13165  29.507  25.839   4.986
48346W        W13166   4.292   6.052   0.814
48347W        W13167  11.527  39.407  10.368
48348W        W13168  41.939  39.284   0.988
48349W        W13169  21.538   7.893   0.495
48350W        W13170  10.761  36.078  13.043
48351W        W13171  14.936  15.353   0.510
48352W        W13172  27.023  21.324  12.052
48353W        W13173  21.328  16.912  11.549
48354W        W13174   6.542   0.019   3.347
48355W        W13175   6.358  16.569   0.472
48356W        W13176  22.143  15.900   0.834
48357W        W13177  27.923  33.836  10.627
48358W        W13178   7.468  30.572  11.564
48359W        W13179  43.794   0.901   2.811
48360W        W13180  27.489  39.831   4.622
48361W        W13181   6.464   7.207   2.360
48362W        W13182   2.492  28.866  11.588
48363W        W13183   0.997   4.255   2.285
48364W        W13184  33.052  29.244   1.802
48365W        W13185   7.207  25.307  11.857
48366W        W13186  26.006  41.460  11.418
48367W        W13187  10.612  43.421   2.652
48368W        W13188   7.652   0.045  11.001
48369W        W13189  36.356  16.679   1.127
48370W        W13190  20.465  36.366  12.498
48371W        W13191  39.317   2.388  11.065
48372W        W13192  38.443   8.838  13.352
48373W        W13193   8.862  39.537   4.218
48374W        W13194  42.631  13.354  13.031
48375W        W13195   0.355  38.075  11.401
48376W        W13196  19.830   8.449   0.198
48377W        W13197  16.600  43.330  13.431
48378W        W13198  36.052  12.786   3.713
48379W        W13199   6.658  14.806  13.508
48380W        W13200  11.457  20.873   3.412
48381W        W13201  26.421  27.980   3.508
48382W        W13202  10.328  28.544  10.919
48383W        W13203  35.529  24.136   1.952
48384W        W13204  32.052   7.113   4.400
48385W        W13205   2.685   1.714  10.536
48386W        W13206  30.507   8.412   4.343
48387W        W13207  34.419  18.857   2.662
48388W        W13208  12.757  37.566   3.416
48389W        W13209  29.667  10.718  13.964
48390W        W13210  24.688  36.493   2.321
48391W        W13211  11.392  20.217  11.185
48392W        W13212  19.130  13.446   2.206
48393W        W13213  37.825  35.520  10.580
48394W        W13214  13.752  37.430   4.108
48395W        W13215  33.538  31.737   0.067
48396W        W13216  36.450   1.705   2.460
48397W        W13217   1.750   0.026  14.222
48398W        W13218  19.811  23.251   0.409
48399W        W13219   4.911  24.266  13.978
48400W        W13220   6.569   3.995  11.666
48401W        W13221  17.760  25.184  12.049
48402W        W13222  34.028  10.432   3.319
48403W        W13223  29.697  41.835  10.797
48404W        W13224  44.279  30.880  11.159
48405W        W13225  43.738  19.942  13.096
48406W        W13226   1.553  41.794  11.445
48407W        W13227  44.918   7.863   3.937
48408W        W13228  43.815  20.026   4.326
48409W        W13229  38.210  18.088   4.681
48410W        W13230   8.132  27.097   0.439
48411W        W13231  29.255  15.273   2.948
48412W        W13232  34.227   7.360  11.164
48413W        W13233   9.099  17.315   4.139
48414W        W13234  10.723  21.564   2.739
48415W        W13235  11.895   0.724  13.531
48416W        W13236  20.172  36.153   0.558
48417W        W13237  39.348  33.355   9.996
48418W        W13238  41.792  11.254   2.906
48419W        W13239  21.066  10.025   4.008
48420W        W13240  15.835  14.048  10.377
48421W        W13241   9.251  14.394  14.915
48422W        W13242   2.759  37.499   1.280
48423W        W13243   2.865  27.214  11.381
48424W        W13244  13.702  11.130  11.139
48425W        W13245  38.934  36.217   2.680
48426W        W13246  33.927   5.982   4.053
48427W        W13247  17.306  44.983   4.720
48428W        W13248   9.446  36.788   2.294
48429W        W13249  20.071  14.300   1.559
48430W        W13250   2.264  17.588  12.034
48431W        W13251   3.495  43.783   3.148
48432W        W13252  20.516   7.387   3.693
48433W        W13253  19.287  27.634   2.386
48434W        W13254   8.719  41.516   1.662
48435W        W13255  32.399  40.307   2.632
48436W        W13256  10.436  35.405  12.960
48437W        W13257  12.605  20.005   1.070
48438W        W13258  40.453  16.513   4.600
48439W        W13259  17.210  41.879  11.051
48440W        W13260   6.382   0.004   4.356
48441W        W13261  11.964  14.656  10.907
48442W        W13262  28.235  28.950   1.215
48443W        W13263  23.045   0.991   1.626
48444W        W13264  10.265  14.300   2.386
48445W        W13265  15.368  44.403  14.375
48446W        W13266  44.602   8.745   2.750
48447W        W13267   3.059   2.714  11.567
48448W        W13268  40.945  18.963  11.206
48449W        W13269   9.962  40.603  14.706
48450W        W13270   1.005  29.945  11.564
48451W        W13271  14.179   9.345  14.357
48452W        W13272  22.538  35.013  13.916
48453W        W13273   7.479  41.298  12.720
48454W        W13274   8.810  10.845   3.601
48455W        W13275  10.867  17.802  13.058
48456W        W13276  16.592  20.843   3.231
48457W        W13277  16.464  43.028   0.403
48458W        W13278  35.244  42.890  14.961
48459W        W13279  25.975   4.788  14.410
48460W        W13280   5.019  32.741   4.121
48461W        W13281  22.084   2.930  14.567
48462W        W13282  12.784  19.957   2.293
48463W        W13283  22.201  23.774   4.104
48464W        W13284  32.437   0.234   1.924
48465W        W13285  40.524  39.556  13.413
48466W        W13286  14.754   0.970  11.786
48467W        W13287   4.651   4.453   3.800
48468W        W13288   9.428   9.677  13.855
48469W        W13289   7.754  10.664  10.422
48470W        W13290  20.947  43.419   1.770
48471W        W13291  31.893  44.325  11.888
48472W        W13292  22.302  42.859   1.803
48473W        W13293   2.640   6.843  12.071
48474W        W13294  34.099  13.118  11.124
48475W        W13295  16.163   7.603   5.306
48476W        W13296  19.314  23.641  11.198
48477W        W13297  15.846  25.669  12.984
48478W        W13298  41.480  18.017  12.026
48479W        W13299  17.812  20.753   2.770
48480W        W13300  32.855  42.923   2.795
48481W        W13301  18.515  31.862   4.206
48482W        W13302   8.278  18.336  13.234
48483W        W13303   4.351  16.697  14.018
48484W        W13304   1.394  30.297  11.545
48485W        W13305   3.914   3.002   1.937
48486W        W13306  14.677  22.626  14.579
48487W        W13307  16.039  10.934  10.682
48488W        W13308   1.684   0.889   4.235
48489W        W13309  34.430  36.079   1.779
48490W        W13310  35.789  12.639   3.299
48491W        W13311  25.147  25.902   3.263
48492W        W13312  41.095   2.821   4.840
48493W        W13313  36.335  25.095   0.678
48494W        W13314  21.345  42.408   2.243
48495W        W13315  26.276  27.162   4.191
48496W        W13316  37.877  39.099   1.520
48497W        W13317  32.576  35.616  10.726
48498W        W13318  12.431   5.505  12.435
48499W        W13319  14.273  22.276  12.163
48500W        W13320  17.098   1.318  10.280
48501W        W13321  24.949  29.586   4.009
48502W        W13322   1.769  35.408   3.257
48503W        W13323   2.210  38.800   3.298
48504W        W13324   3.114  44.074   0.683
48505W        W13325  26.548  16.193  12.475
48506W        W13326   8.830   8.157   3.948
48507W        W13327  17.881  40.440  14.754
48508W        W13328  11.185  18.133  12.111
48509W        W13329  15.584  41.096   3.616
48510W        W13330   9.704  37.769   2.468
48511W        W13331  39.037  41.704   2.761
48512W        W13332   6.319  19.371  11.919
48513W        W13333  22.178  43.537   4.723
48514W        W13334  16.099   3.002   1.359
48515W        W13335  10.716  12.226   0.415
48516W        W13336  44.812   6.872   2.599
48517W        W13337  24.468  12.048  14.985
48518W        W13338  41.268   9.476  12.269
48519W        W13339  11.056  15.736  12.577
48520W        W13340   0.456  39.404  14.433
48521W        W13341  37.809  27.660   4.345
48522W        W13342   4.912  41.359  14.498
48523W        W13343  18.236  39.853   2.397
48524W        W13344  16.162  43.292   3.230
48525W        W13345  23.031  40.392  12.669
48526W        W13346  10.238   2.279   0.828
48527W        W13347  23.771  27.226   3.857
48528W        W13348  37.237  40.715   5.055
48529W        W13349  35.180  11.127   5.407
48530W        W13350  21.949   7.405  12.575
48531W        W13351  26.393  44.783  13.761
48532W        W13352  40.556   1.215  11.405
48533W        W13353   0.782  28.131   1.375
48534W        W13354  32.954  22.492   3.072
48535W        W13355  10.659  34.275  11.652
48536W        W13356  12.855  33.065   2.877
48537W        W13357  36.550  41.528  10.676
48538W        W13358  18.214  22.478   1.320
48539W        W13359  40.143  33.029   4.539
48540W        W13360   2.398   5.170   0.789
48541W        W13361  18.287  20.210   0.448
48542W        W13362  30.382  15.392  10.131
48543W        W13363  40.413  10.352   9.855
48544W        W13364  23.556  34.935  13.907
48545W        W13365  11.835  17.026  12.091
48546W        W13366  16.521   4.364   3.590
48547W        W13367  37.311  21.585  11.978
48548W        W13368  37.307  21.473  10.566
48549W        W13369  28.337  11.105   1.665
48550W        W13370  30.516  35.913  10.579
48551W        W13371   1.467   8.852   3.114
48552W        W13372  44.077  32.573   4.347
48553W        W13373  43.299  40.287  14.412
48554W        W13374  10.637  42.874   0.957
48555W        W13375   9.700   9.368  10.731
48556W        W13376  16.539  27.911  12.415
48557W        W13377  40.847   8.890   1.556
48558W        W13378  13.126   4.274  14.451
48559W        W13379  38.160   8.686  11.239
48560W        W13380   2.023  41.829   0.870
48561W        W13381   1.532  13.007  12.983
48562W        W13382  25.181  30.558   2.191
48563W        W13383  33.126  14.005   5.537
48564W        W13384  28.043   6.140  14.453
48565W        W13385  19.596  34.888  13.190
48566W        W13386   6.465  31.499   0.443
48567W        W13387  44.811  41.780   1.817
48568W        W13388  27.419  11.799   1.236
48569W        W13389  17.546  42.766   4.742
48570W        W13390  17.483  30.216   1.363
48571W        W13391  40.510  11.141   3.341
48572W        W13392  36.384   1.196  11.047
48573W        W13393  38.831  18.850  12.123
48574W        W13394  19.688  28.525   0.722
48575W        W13395   9.259  35.566  11.005
48576W        W13396  20.113  23.199   4.570
48577W        W13397  13.163  11.990  12.093
48578W        W13398  34.705   4.184   4.551
48579W        W13399   3.157  12.823  13.376
48580W        W13400  30.524  12.653   3.193
48581W        W13401   4.335  17.149  14.272
48582W        W13402   6.374  32.163  12.424
48583W        W13403  38.111  35.609  12.523
48584W        W13404  15.851   7.323   3.362
48585W        W13405  22.651  34.435   1.216
48586W        W13406   1.954   6.232  13.828
48587W        W13407  19.658   5.760   0.451
48588W        W13408  26.205  34.811  12.473
48589W        W13409  36.954  11.704  13.906
48590W        W13410  31.689  37.592   1.913
48591W        W13411  13.047  34.412   1.395
48592W        W13412   0.449  18.269   2.873
48593W        W13413  44.192  38.882  10.970
48594W        W13414  17.627  41.473   1.322
48595W        W13415  43.082   9.527   4.147
48596W        W13416  31.833   2.670  11.182
48597W        W13417  27.905  17.120   0.915
48598W        W13418  35.354  36.315  14.846
48599W        W13419   3.339   1.838  11.631
48600W        W13420  39.939  13.356   3.722
48601W        W13421  40.046  21.972  12.859
48602W        W13422  15.760   3.386  14.282
48603W        W13423  22.856  44.765  10.040
48604W        W13424  15.578  35.484   0.164
48605W        W13425  38.772  16.284  11.997
48606W        W13426  12.692   7.817  13.439
48607W        W13427  39.594  33.782   3.364
48608W        W13428   0.516   0.477   3.655
48609W        W13429  40.886  24.264   3.086
48610W        W13430  34.527   0.406   0.198
48611W        W13431  16.598  42.838   4.738
48612W        W13432  17.287  22.427   9.954
48613W        W13433  36.708  12.915   2.457
48614W        W13434  38.964  34.232   4.571
48615W        W13435  37.484  36.650   2.717
48616W        W13436  27.326   1.052   2.958
48617W        W13437  28.285  43.438   1.278
48618W        W13438  10.229   5.878   3.902
48619W        W13439  41.749  43.262  13.174
48620W        W13440   8.385  25.039   9.946
48621W        W13441  32.161  36.032   4.656
48622W        W13442  12.700  21.998   1.235
48623W        W13443   3.730  42.316  14.319
48624W        W13444  40.403   1.967  10.411
48625W        W13445  15.016  41.833   3.261
48626W        W13446   1.447  33.166  11.251
48627W        W13447  32.064   3.190  12.050
48628W        W13448   6.404  12.422  14.859
48629W        W13449  42.430  12.233  11.613
48630W        W13450   7.377  32.125  11.613
48631W        W13451  26.084  34.872   2.710
48632W        W13452   2.004  19.083   4.664
48633W        W13453  32.370  15.334  10.245
48634W        W13454  38.965   2.899  14.426
48635W        W13455  24.893  36.448   4.603
48636W        W13456  19.526  43.892  11.665
48637W        W13457   4.810  25.524   2.330
48638W        W13458   4.857  16.705  12.584
48639W        W13459  26.297   1.021   2.867
48640W        W13460  12.220   3.410  14.841
48641W        W13461   7.181  40.032  10.761
48642W        W13462  13.836   5.580   0.053
48643W        W13463   1.465  39.533  14.348
48644W        W13464  30.466  26.720  11.076
48645W        W13465  37.583  38.486  11.663
48646W        W13466   6.667  34.586  11.576
48647W        W13467  33.644  35.523   4.643
48648W        W13468  34.482   4.731  13.066
48649W        W13469  40.865   9.601  10.719
48650W        W13470  39.125  27.567  14.970
48651W        W13471  29.531  16.665  11.727
48652W        W13472  40.416  24.971   0.171
48653W        W13473  38.727  14.693  12.621
48654W        W13474   0.254  29.382  14.499
48655W        W13475  21.303  11.352  11.173
48656W        W13476  28.725  17.108   0.516
48657W        W13477   3.918  11.041  13.915
48658W        W13478  12.835  43.951  13.398
48659W        W13479  28.001  12.407   4.685
48660W        W13480  30.540  30.587   0.414
48661W        W13481  31.859  36.897   2.267
48662W        W13482  26.855   6.014   3.323
48663W        W13483   2.959   2.308  12.315
48664W        W13484  37.477  21.433   2.202
48665W        W13485  37.451  17.698   0.243
48666W        W13486  14.553  44.293   0.296
48667W        W13487  38.809  14.900  11.105
48668W        W13488  27.957  25.588   3.736
48669W        W13489   7.618  39.778  10.562
48670W        W13490  23.654   7.998   2.055
48671W        W13491   0.735  22.920  12.026
48672W        W13492  43.440  22.262  13.818
48673W        W13493  25.540  39.877   4.288
48674W        W13494   7.673  35.259   0.165
48675W        W13495  30.893  18.615  11.128
48676W        W13496  25.248  23.726  11.025
48677W        W13497  30.400   0.950   1.352
48678W        W13498  23.883  21.321  12.556
48679W        W13499  41.871  25.393   3.326
48680W        W13500   3.419  11.759   2.472
48681W        W13501  26.493   3.287  14.913
48682W        W13502  35.886  23.062   0.228
48683W        W13503  13.994  15.418   2.263
48684W        W13504  23.584  26.136   0.683
48685W        W13505  31.578  37.111  11.904
48686W        W13506  26.494  18.353  12.987
48687W        W13507  21.443   0.419  14.946
48688W        W13508  37.066   6.601   3.551
48689W        W13509  14.747  38.932   2.189
48690W        W13510  14.307   6.748  13.365
48691W        W13511  36.327  23.248  11.101
48692W        W13512  31.991  34.011   2.736
48693W        W13513  33.323  30.295  13.352
48694W        W13514  19.618   5.341  11.542
48695W        W13515  28.151  16.394  14.016
48696W        W13516   5.983  42.335  11.271
48697W        W13517  16.031   5.158  12.456
48698W        W13518   6.346  12.236   2.676
48699W        W13519  24.489  12.784   1.382
48700W        W13520  23.650  23.882  14.925
48701W        W13521   5.287  11.816  14.463
48702W        W13522  40.895  16.749   4.774
48703W        W13523   5.370  26.437   3.385
48704W        W13524  40.005  23.941   4.363
48705W        W13525  19.889  37.567   4.789
48706W        W13526  38.013  43.858  12.497
48707W        W13527   9.858  37.852  14.084
48708W        W13528  32.641  10.304   1.910
48709W        W13529  19.213  39.800   1.402
48710W        W13530  37.995  21.092   4.595
48711W        W13531  23.984  42.868  12.373
48712W        W13532  40.781   5.205  12.037
48713W        W13533  27.580  41.376  12.101
48714W        W13534   2.817  20.811  13.951
48715W        W13535  12.758  34.994   4.215
48716W        W13536  31.335  33.623  12.825
48717W        W13537  29.097  19.256  14.929
48718W        W13538  22.523  29.452  10.606
48719W        W13539  31.895  20.662  14.503
48720W        W13540   3.400   7.081  12.535
48721W        W13541  38.905   6.166   2.878
48722W        W13542  12.362   3.356  13.902
48723W        W13543  36.734   9.857   2.134
48724W        W13544  39.752  38.307  13.928
48725W        W13545  20.566  20.107  10.704
48726W        W13546  20.236  17.484   0.022
48727W        W13547  14.800   0.037  11.071
48728W        W13548   7.316   9.684   3.456
48729W        W13549  24.164  27.057  13.523
48730W        W13550  21.248  43.314   2.210
48731W        W13551  30.010  33.695  12.666
48732W        W13552   3.745  17.771  11.540
48733W        W13553  23.658   0.706  11.923
48734W        W13554  21.530  21.259   1.655
48735W        W13555   8.752  30.176  10.984
48736W        W13556  28.844  20.574  10.190
48737W        W13557  13.217  36.837   3.482
48738W        W13558  37.915  39.624   0.261
48739W        W13559  35.412   9.521  13.367
48740W        W13560   2.183  30.410   0.946
48741W        W13561  19.965  40.866   3.959
48742W        W13562  11.862  34.397  12.105
48743W        W13563  38.903   0.253  13.550
48744W        W13564  41.576   5.981   4.498
48745W        W13565  29.046  41.877   4.626
48746W        W13566  24.713   4.245   1.818
48747W        W13567  37.579  34.565   4.900
48748W        W13568  20.640  40.486   1.271
48749W        W13569  11.757  30.613   2.682
48750W        W13570  22.733  18.295   0.048
48751W        W13571  33.385   0.112   3.124
48752W        W13572  18.519  10.496  11.049
48753W        W13573   1.192   4.740  13.488
48754W        W13574  34.589  32.709  11.878
48755W        W13575  22.311  25.047   3.342
48756W        W13576  15.130  27.655   4.099
48757W        W13577   6.143  14.286  13.860
48758W        W13578  34.503  27.421  12.385
48759W        W13579  41.269  25.515  11.111
48760W        W13580  25.730  20.372  11.447
48761W        W13581  24.011  26.445  14.480
48762W        W13582  42.120  37.009   4.045
48763W        W13583  43.377  23.269   4.919
48764W        W13584  23.907   6.735   0.769
48765W        W13585  28.095  37.726  11.569
48766W        W13586   3.415  23.014  10.386
48767W        W13587  15.648   7.304   0.834
48768W        W13588  12.356  31.634   3.067
48769W        W13589   8.709  16.780   3.333
48770W        W13590  40.699  17.048  13.406
48771W        W13591   9.414  29.255   2.364
48772W        W13592  27.056   6.221  14.301
48773W        W13593   2.912  17.599  13.966
48774W        W13594  15.806  29.849  12.975
48775W        W13595  22.251  36.940   2.891
48776W        W13596  22.854   3.507   2.364
48777W        W13597  20.079  26.189  14.033
48778W        W13598  23.866  10.843  11.000
48779W        W13599  36.832  21.506   1.844
48780W        W13600  16.607  12.273   2.458
48781W        W13601  11.112   7.872  12.580
48782W        W13602  34.230  41.084  10.686
48783W        W13603  22.607  28.964  10.684
48784W        W13604  22.321  29.530  12.895
48785W        W13605  29.973  30.077  10.702
48786W        W13606  20.661   5.938   3.586
48787W        W13607  42.123  15.949   3.290
48788W        W13608  20.999  29.763   4.733
48789W        W13609  41.552  12.909   2.615
48790W        W13610  15.668  42.914  13.365
48791W        W13611  20.152  28.711   0.769
48792W        W13612  11.916  26.992   0.267
48793W        W13613   6.297  30.101  10.417
48794W        W13614  27.489  16.994  10.930
48795W        W13615   9.676  23.664  13.859
48796W        W13616  33.381  39.561  11.884
48797W        W13617   4.490  43.492  11.998
48798W        W13618  19.431  33.037  13.133
48799W        W13619  42.903  28.596   1.664
48800W        W13620   6.697  41.175   2.394
48801W        W13621  25.151  22.174   5.466
48802W        W13622  34.647  41.423  12.564
48803W        W13623  43.519  36.494  14.809
48804W        W13624  28.070   4.215   0.472
48805W        W13625   2.890  21.849   3.979
48806W        W13626  12.214   7.163  14.888
48807W        W13627   6.361  15.145   3.247
48808W        W13628  10.368  40.512   3.639
48809W        W13629  28.194  22.051  14.283
48810W        W13630   6.273  41.781   0.655
48811W        W13631  38.524  37.898   1.385
48812W        W13632  30.812  11.049  14.965
48813W        W13633   7.782  35.732   0.337
48814W        W13634  31.586  21.614  13.154
48815W        W13635  28.036  12.470   0.210
48816W        W13636  10.211  27.838   3.136
48817W        W13637  40.314  24.566  11.613
48818W        W13638  15.261   3.890   0.288
48819W        W13639   2.863  34.573   0.291
48820W        W13640  36.903  17.502   3.282
48821W        W13641  42.537  38.925  11.579
48822W        W13642  41.410   8.685  10.380
48823W        W13643   1.803  12.814   2.923
48824W        W13644   1.399  22.712  13.422
48825W        W13645  40.835  17.680   2.180
48826W        W13646  33.100   3.201   2.837
48827W        W13647  29.623  21.271   3.631
48828W        W13648  26.061   4.293  11.003
48829W        W13649   7.113  11.504  14.123
48830W        W13650  30.214   8.805   4.584
48831W        W13651  11.329  35.470  10.782
48832W        W13652  34.555  41.098   0.003
48833W        W13653  17.352   1.661  14.014
48834W        W13654  20.468  44.316  13.732
48835W        W13655  22.243  39.655  12.421
48836W        W13656  14.629   1.792   2.248
48837W        W13657  25.210  10.441  14.601
48838W        W13658  22.694   2.230  12.515
48839W        W13659  38.482   6.958  10.618
48840W        W13660   4.812  28.099   2.273
48841W        W13661  30.031  42.989   4.463
48842W        W13662  15.150  24.232   2.452
48843W        W13663   5.458   4.911   4.032
48844W        W13664  19.245  42.881  14.082
48845W        W13665  14.071  23.685   2.957
48846W        W13666  35.083  38.589  14.600
48847W        W13667  41.769  32.171   1.192
48848W        W13668  28.406  43.344  11.534
48849W        W13669   4.434  10.974  14.887
48850W        W13670  33.728   0.129  11.665
48851W        W13671  44.456  19.105  13.453
48852W        W13672  26.741   5.017  11.815
48853W        W13673  23.768  39.790   3.826
48854W        W13674   3.060  25.733   4.276
48855W        W13675  43.568  27.615  13.536
48856W        W13676  27.732  33.400  12.229
48857W        W13677  19.252  13.116  14.060
48858W        W13678  25.293  20.170  14.760
48859W        W13679  25.204  42.049  13.415
48860W        W13680  20.191  39.404  13.829
48861W        W13681  21.321  35.925   4.083
48862W        W13682  27.436  40.288  14.020
48863W        W13683  35.328  23.111  12.028
48864W        W13684  17.252  22.936   4.017
48865W        W13685  27.710  10.823   0.912
48866W        W13686  39.636  41.852   3.814
48867W        W13687  27.176   9.757   3.526
48868W        W13688   7.313  33.159  12.572
48869W        W13689   7.126   9.109  12.967
48870W        W13690   8.137  36.348  11.933
48871W        W13691  14.869  40.917  14.374
48872W        W13692   3.495  11.348  14.749
48873W        W13693  34.557  24.013  12.963
48874W        W13694  29.307  27.430  12.186
48875W        W13695  21.185  18.321   3.635
48876W        W13696  30.775   7.934  11.016
48877W        W13697  17.551  19.412  11.640
48878W        W13698   8.644  28.644  12.591
48879W        W13699  42.975   7.376   1.193
48880W        W13700  24.137  21.992   0.922
48881W        W13701  43.352  16.708  14.328
48882W        W13702  20.570  33.959  12.773
48883W        W13703   6.971  23.674  13.920
48884W        W13704  40.620  33.369  11.880
48885W        W13705   8.806  16.635   0.090
48886W        W13706  29.994  35.663  13.489
48887W        W13707  14.251  18.358   2.654
48888W        W13708  18.525  44.205   2.190
48889W        W13709  15.123  32.964  14.905
48890W        W13710  22.035  21.804   9.842
48891W        W13711   9.411   4.244   3.220
48892W        W13712   6.440   0.106   4.858
48893W        W13713  18.686  23.486  10.568
48894W        W13714  41.599  37.200   2.448
48895W        W13715  35.864  17.360   4.951
48896W        W13716  40.996  23.270  13.334
48897W        W13717  17.771  43.412  14.392
48898W        W13718  28.120   1.846  12.701
48899W        W13719  14.062  15.925   2.336
48900W        W13720   3.334   7.604  12.588
48901W        W13721  10.154  35.075  12.662
48902W        W13722  37.154   7.264  11.687
48903W        W13723  11.655  42.264   1.373
48904W        W13724  16.734  16.027   3.272
48905W        W13725  12.280  40.823   0.776
48906W        W13726  24.335  35.515   4.994
48907W        W13727  14.294  43.888  13.797
48908W        W13728  35.342   4.837  14.345
48909W        W13729   7.020  18.198  10.686
48910W        W13730  17.855   4.168  12.384
48911W        W13731  26.227   5.853   2.521
48912W        W13732  14.349  31.386  12.578
48913W        W13733  28.944  43.514   3.760
48914W        W13734   1.388   3.231   2.876
48915W        W13735  31.472   2.378   0.006
48916W        W13736  19.739  39.712  13.832
48917W        W13737   6.400  17.079   3.432
48918W        W13738  42.871   0.827   1.075
48919W        W13739  18.722  16.666   1.684
48920W        W13740  42.328  39.109   4.268
48921W        W13741  16.266  15.266  13.995
48922W        W13742  32.577  17.202  14.564
48923W        W13743  24.215  39.567  11.357
48924W        W13744  25.941   0.999   2.028
48925W        W13745  32.886  10.242  14.488
48926W        W13746  23.225  37.267   1.766
48927W        W13747  15.156  26.559  14.922
48928W        W13748  11.811  29.104  12.447
48929W        W13749  34.009  23.419   0.303
48930W        W13750  24.450  12.824   3.340
48931W        W13751  35.603   7.159  10.676
48932W        W13752   3.966  22.174  11.482
48933W        W13753  17.469  38.591   4.544
48934W        W13754  30.946  21.110   0.911
48935W        W13755  15.845  16.172  11.496
48936W        W13756  12.212  14.631   0.452
48937W        W13757   9.570  36.356   2.811
48938W        W13758  12.443  42.950  14.102
48939W        W13759  22.502  32.885   0.433
48940W        W13760   9.822   1.826   4.025
48941W        W13761  27.149   5.165  10.703
48942W        W13762  26.824   9.564   2.798
48943W        W13763  41.920   1.856   3.106
48944W        W13764  35.571   7.881   3.995
48945W        W13765  24.940  40.597  12.086
48946W        W13766   6.350  23.057   1.639
48947W        W13767  43.741   7.338   3.121
48948W        W13768  22.744  44.019   1.849
48949W        W13769  30.560   2.539   2.106
48950W        W13770  12.809   3.383   1.252
48951W        W13771  15.795  27.219   3.679
48952W        W13772   6.628  36.875  11.519
48953W        W13773  42.970  38.156  13.264
48954W        W13774  32.155   5.211   0.769
48955W        W13775   3.716  30.648   0.647
48956W        W13776  23.186   5.300   2.894
48957W        W13777  40.486  23.646  11.556
48958W        W13778  21.685   0.732   2.740
48959W        W13779  28.102  37.272  12.508
48960W        W13780   4.583  12.656   0.430
48961W        W13781  26.242  31.453  14.928
48962W        W13782  40.183   8.740  12.219
48963W        W13783   2.338  25.189   0.401
48964W        W13784  32.774  33.925  14.817
48965W        W13785   8.297  16.810   1.483
48966W        W13786  29.931  38.898  14.856
48967W        W13787  31.414  15.605  14.344
48968W        W13788  37.347  10.679  11.643
48969W        W13789  39.697   9.672   4.049
48970W        W13790  19.640   4.952  14.228
48971W        W13791  11.172   6.807   2.342
48972W        W13792   8.960  25.639   2.921
48973W        W13793   5.074  29.436   0.894
48974W        W13794  37.922  11.582   4.963
48975W        W13795   3.475   1.433  13.458
48976W        W13796  25.637   8.923   4.466
48977W        W13797  28.680  22.318  14.262
48978W        W13798  22.489  22.048   1.910
48979W        W13799  18.490  32.239  10.945
48980W        W13800  14.395  26.482  13.293
48981W        W13801   8.375   4.155   0.355
48982W        W13802  33.997  17.759   4.425
48983W        W13803   6.240   8.818  11.636
48984W        W13804  15.918  44.759   3.664
48985W        W13805  12.166  11.658  13.943
48986W        W13806  14.018  34.453  14.888
48987W        W13807  25.407  23.116   4.179
48988W        W13808  32.923   3.675   1.024
48989W        W13809  42.773   1.432   4.154
48990W        W13810  21.117  35.486   3.158
48991W        W13811  10.892  23.539   2.848
48992W        W13812  11.709  19.063  11.222
48993W        W13813   5.818   8.140  12.014
48994W        W13814  44.674   2.816   2.726
48995W        W13815  17.048  21.052   1.264
48996W        W13816  25.028  35.166   0.811
48997W        W13817  13.843  43.861  13.491
48998W        W13818  25.022  21.577  14.916
48999W        W13819  27.531   9.875   1.607
49000W        W13820   0.217  44.666  10.466
49001W        W13821   4.675  36.022   2.273
49002W        W13822  27.890  39.117   2.330
49003W        W13823   2.776   3.912  11.261
49004W        W13824  36.069  22.654   3.328
49005W        W13825  16.728  11.276   3.420
49006W        W13826   2.898   1.366   3.251
49007W        W13827  38.866   0.451  11.709
49008W        W13828  17.754  39.745   2.218
49009W        W13829  23.076  43.049  14.028
49010W        W13830  15.228  25.320   4.631
49011W        W13831   0.092  28.952   4.979
49012W        W13832  42.960  29.256  14.468
49013W        W13833  22.358  24.909   1.706
49014W        W13834  14.704  26.650  10.026
49015W        W13835  19.871  28.355   1.701
49016W        W13836  17.849  29.862   3.742
49017W        W13837  13.692  43.032  13.818
49018W        W13838  30.969  35.505   1.456
49019W        W13839  17.224   6.106   1.045
49020W        W13840  39.152   6.219   4.842
49021W        W13841  29.150  25.996   3.338
49022W        W13842   0.386  21.179   4.511
49023W        W13843  20.670  38.482   1.834
49024W        W13844   3.287  23.431  11.610
49025W        W13845  33.028   5.688   0.038
49026W        W13846  31.727  18.150  12.588
49027W        W13847  19.177  26.539   2.258
49028W        W13848  27.877  21.976  11.715
49029W        W13849  24.001   2.301   2.380
49030W        W13850  32.412  23.091   3.278
49031W        W13851  37.896  37.280  11.113
49032W        W13852  13.262  10.665  13.224
49033W        W13853  10.261  37.597   0.391
49034W        W13854   0.738  38.806   0.401
49035W        W13855  14.833  38.489  14.687
49036W        W13856  23.766  42.572   0.187
49037W        W13857  41.822  23.272  10.788
49038W        W13858  29.483  29.584   2.313
49039W        W13859   2.279   8.395   2.227
49040W        W13860  14.732  18.872   4.565
49041W        W13861  40.072  39.442   3.224
49042W        W13862  14.024  40.438   3.074
49043W        W13863  16.136  14.691   1.204
49044W        W13864  15.147  11.589   4.227
49045W        W13865  24.475  30.149  12.427
49046W        W13866   4.240  12.904   2.887
49047W        W13867   0.886  18.008   1.393
49048W        W13868  33.026  24.985   3.126
49049W        W13869  39.929  20.747   4.223
49050W        W13870  23.741  31.018  11.581
49051W        W13871   1.948  37.986  13.835
49052W        W13872   8.877   3.986  13.329
49053W        W13873  32.107  18.702   1.075
49054W        W13874  27.147  17.845  12.472
49055W        W13875  42.346   7.581  14.007
49056W        W13876  36.350  28.509  13.899
49057W        W13877   0.062  28.917  13.533
49058W        W13878   8.720   2.176   4.573
49059W        W13879   5.807   6.418  13.890
49060W        W13880   3.705  37.755  12.040
49061W        W13881   5.304   4.560   1.339
49062W        W13882   7.547  31.743   3.250
49063W        W13883   7.110  16.281  11.129
49064W        W13884   2.454   2.731   2.130
49065W        W13885   1.543  23.283   1.251
49066W        W13886  18.553  14.334   3.339
49067W        W13887   3.820   7.334  11.795
49068W        W13888   2.831  28.921  14.326
49069W        W13889  11.705  37.327   0.280
49070W        W13890  42.065  29.009   1.690
49071W        W13891  37.246  23.947   5.420
49072W        W13892  28.552  22.799   0.042
49073W        W13893  23.647  11.794   0.245
49074W        W13894  39.932  36.108  14.098
49075W        W13895  42.351  44.134   2.498
49076W        W13896   0.201  13.918   2.257
49077W        W13897  37.534  20.637   2.538
49078W        W13898  44.345  36.005   1.961
49079W        W13899  41.877  16.597  14.546
49080W        W13900  27.055  44.916   0.971
49081W        W13901  17.392  18.955  12.729
49082W        W13902  37.429   8.065   9.798
49083W        W13903  16.266  19.178   1.829
49084W        W13904   6.708  27.178  13.953
49085W        W13905  35.821  41.583  12.972
49086W        W13906  44.799   0.697  10.975
49087W        W13907  24.647  24.600  12.498
49088W        W13908  28.276  35.750  12.677
49089W        W13909   9.942  14.602   2.665
49090W        W13910  39.438  42.537   4.848
49091W        W13911   5.845  14.567  12.405
49092W        W13912  38.212  37.073  13.248
49093W        W13913   4.895  43.283   0.855
49094W        W13914  24.422  16.638  14.348
49095W        W13915  11.391   9.807   1.994
49096W        W13916  36.240  29.822   1.709
49097W        W13917   7.693  27.064   0.130
49098W        W13918  41.459  44.972  11.638
49099W        W13919  29.148  16.121  14.407
49100W        W13920  24.261  24.967  11.152
49101W        W13921  34.568  12.458   2.770
49102W        W13922   3.867  43.958   2.693
49103W        W13923  10.806  27.178  14.429
49104W        W13924  31.496  13.669   0.908
49105W        W13925  23.620  20.546   2.328
49106W        W13926  43.045  30.535  14.447
49107W        W13927  42.337  16.462  14.261
49108W        W13928  23.184  13.541   1.153
49109W        W13929  31.328  13.191  12.085
49110W        W13930  34.964   9.298   1.907
49111W        W13931  11.256  20.817  12.932
49112W        W13932  18.089  28.659  14.748
49113W        W13933  39.347   4.689   1.295
49114W        W13934   2.661  13.587  14.873
49115W        W13935  21.467  38.818   3.728
49116W        W13936  11.793  26.466  12.996
49117W        W13937  37.381  15.910  10.126
49118W        W13938   8.377   6.009  13.453
49119W        W13939   7.321  35.160  11.332
49120W        W13940  39.798  20.257  14.576
49121W        W13941   8.654  35.855   2.753
49122W        W13942  22.564   9.295  13.112
49123W        W13943  24.385  31.384   2.356
49124W        W13944  36.198  26.736  13.052
49125W        W13945   0.031  12.287  14.944
49126W        W13946  23.758  26.629   4.683
49127W        W13947  10.166  26.549   3.203
49128W        W13948  30.397  17.538   0.238
49129W        W13949   9.144  16.928   2.684
49130W        W13950  27.484  19.528   5.294
49131W        W13951   9.453  37.409  10.775
49132W        W13952  24.504   1.547   2.479
49133W        W13953  28.735  29.564   2.825
49134W        W13954  22.521  33.370  10.772
49135W        W13955  18.477  36.062  13.460
49136W        W13956  13.151  19.118  13.987
49137W        W13957  15.233  15.886   3.679
49138W        W13958  14.809  34.520  12.374
49139W        W13959  30.877  28.520   2.452
49140W        W13960  16.303  30.064   2.881
49141W        W13961   6.266  16.140   4.320
49142W        W13962   7.927  30.942   0.435
49143W        W13963  26.398  15.430   4.964
49144W        W13964  41.578  18.705  11.850
49145W        W13965  22.899  39.951   0.268
49146W        W13966  12.624  41.425   1.665
49147W        W13967  30.917  36.676   5.016
49148W        W13968   3.723  19.766  11.179
49149W        W13969  30.916  25.495  13.361
49150W        W13970  15.356   7.342  10.931
49151W        W13971  42.248  31.362  14.930
49152W        W13972  15.698  11.789   4.126
49153W        W13973   9.777  30.537   4.254
49154W        W13974  32.095  30.841  13.892
49155W        W13975  22.429   7.893   2.461
49156W        W13976   7.700  33.603  10.357
49157W        W13977  27.757  15.026  13.523
49158W        W13978   3.480  22.226  12.868
49159W        W13979  19.139  20.693  14.602
49160W        W13980  11.287   1.172  10.450
49161W        W13981   6.640  23.031   4.136
49162W        W13982   3.769  30.259   2.348
49163W        W13983  37.317   5.680  13.075
49164W        W13984  19.578  30.244   1.567
49165W        W13985   8.209  27.048  13.125
49166W        W13986  36.481  32.199  12.138
49167W        W13987  12.268  25.214   1.327
49168W        W13988  16.121  28.651   0.857
49169W        W13989  29.720  12.028   5.041
49170W        W13990  28.999  18.537   2.472
49171W        W13991  19.582   5.429   3.425
49172W        W13992  25.483  24.151  12.006
49173W        W13993  32.376  32.570  13.867
49174W        W13994  23.462   5.903   0.278
49175W        W13995  24.611  43.144  14.553
49176W        W13996  20.576  31.050   0.382
49177W        W13997   6.045   9.642  14.792
49178W        W13998  19.332  30.020  10.589
49179W        W13999  30.882   9.937   2.613
49180W        W14000  30.514  36.509  14.208
49181W        W14001   6.835   1.355  10.885
49182W        W14002  33.474   3.244  12.580
49183W        W14003  41.919  33.845  12.007
49184W        W14004   6.194   3.361   4.665
49185W        W14005  14.670  42.019   0.072
49186W        W14006  25.018  18.188  12.460
49187W        W14007  35.493  32.070   4.107
49188W        W14008  38.816  12.908  11.958
49189W        W14009  27.452  39.229  12.987
49190W        W14010  22.761   4.657   4.977
49191W        W14011   3.507  10.682  13.946
49192W        W14012  40.887  42.950  13.443
49193W        W14013   4.776  36.927   0.100
49194W        W14014   9.648  30.488  12.577
49195W        W14015  33.680   5.269   3.549
49196W        W14016  11.685  43.426   0.458
49197W        W14017  29.215  44.911   0.808
49198W        W14018  15.706   7.269   2.426
49199W        W14019   3.793  28.771  10.488
49200W        W14020  43.525  36.869   1.335
49201W        W14021   4.859  19.093   4.067
49202W        W14022   7.364  40.455  14.832
49203W        W14023   3.035   4.348  13.496
49204W        W14024   6.700  15.120   3.663
49205W        W14025   9.276  14.202  13.866
49206W        W14026  33.261  40.372  12.136
49207W        W14027  10.665  33.954  11.257
49208W        W14028  12.619   1.521   3.855
49209W        W14029  15.241  44.171   4.743
49210W        W14030  19.950  17.857  11.555
49211W        W14031  31.916  29.675  11.595
49212W        W14032  20.251  21.354   3.278
49213W        W14033  11.820  16.422   2.205
49214W        W14034  10.636  40.958  11.084
49215W        W14035  22.496  27.176   0.288
49216W        W14036  43.925  36.606   0.784
49217W        W14037  26.692  30.605  13.015
49218W        W14038   7.345  44.260   2.697
49219W        W14039  17.519  20.949  13.306
49220W        W14040  27.557  37.187   5.135
49221W        W14041  15.844  20.559   1.053
49222W        W14042  28.562  43.646  14.992
49223W        W14043  16.503  31.216   0.216
49224W        W14044  15.042   3.391  10.637
49225W        W14045   3.030   1.155   3.730
49226W        W14046  17.560   9.675  12.576
49227W        W14047  27.092  40.017  11.152
49228W        W14048   2.209  44.714  14.957
49229W        W14049   2.737  16.970  12.040
49230W        W14050  25.733   1.716   0.996
49231W        W14051   7.801  31.945   5.092
49232W        W14052  10.637  11.516  12.002
49233W        W14053  18.688  21.140   2.669
49234W        W14054  23.068  23.545   4.133
49235W        W14055  27.172  18.047   4.086
49236W        W14056  28.424  25.483   0.137
49237W        W14057  18.495   3.596  14.130
49238W        W14058   5.229  30.207   2.254
49239W        W14059  26.756  32.490  10.789
49240W        W14060  37.721  31.420   1.562
49241W        W14061  25.086  28.968  14.303
49242W        W14062  28.464  36.616   3.060
49243W        W14063  16.709  39.812  12.922
49244W        W14064   0.795   6.338   0.307
49245W        W14065  38.104  25.223  12.442
49246W        W14066  12.386   0.411   0.469
49247W        W14067  41.245   9.915  11.050
49248W        W14068  44.899   1.696  12.010
49249W        W14069  26.138   8.939   0.430
49250W        W14070  42.511   0.444   3.254
49251W        W14071   1.005  44.445  10.634
49252W        W14072  39.044  20.601  10.944
49253W        W14073  38.726  21.139   3.707
49254W        W14074  31.665  12.783  14.362
49255W        W14075  28.646  20.148   3.649
49256W        W14076  16.086  10.743   3.860
49257W        W14077  20.678  14.993   2.821
49258W        W14078  39.328  17.012  11.564
49259W        W14079  42.994  20.560  12.551
49260W        W14080  25.481  10.393   0.912
49261W        W14081  25.068  36.969   0.225
49262W        W14082  12.697  30.961   5.085
49263W        W14083  22.058  26.916   0.222
49264W        W14084  24.972  26.553   1.268
49265W        W14085  16.319  33.459  13.725
49266W        W14086  23.722   9.678   3.146
49267W        W14087  35.945   0.824  12.945
49268W        W14088  16.718   6.335  10.906
49269W        W14089  30.484  11.699  14.331
49270W        W14090  34.185   3.747  13.398
49271W        W14091  25.365  21.080  13.464
49272W        W14092   6.049  15.265  12.162
49273W        W14093  20.223   0.908  14.500
49274W        W14094  32.518  32.461   3.349
49275W        W14095  21.442  20.073   0.359
49276W        W14096  32.846  13.088  11.166
49277W        W14097  33.424  25.357   5.531
49278W        W14098   6.440  31.499  11.656
49279W        W14099   5.669  28.942  13.029
49280W        W14100  27.424   0.068   3.312
49281W        W14101  38.696  28.263   1.304
49282W        W14102  36.329  43.422   4.174
49283W        W14103   7.789  18.695   3.181
49284W        W14104   4.248  15.200   2.186
49285W        W14105  15.454  34.912   3.339
49286W        W14106   6.626  35.459  12.814
49287W        W14107  39.516   1.382   3.702
49288W        W14108  21.080  44.952   3.112
49289W        W14109  32.921  20.089   0.703
49290W        W14110  18.511   1.387  13.961
49291W        W14111  12.664  10.679  14.846
49292W        W14112   8.636  15.844   1.351
49293W        W14113  41.966  14.555  10.528
49294W        W14114   9.134  28.507  11.453
49295W        W14115  44.506   0.833  14.850
49296W        W14116  14.331   9.798   3.087
49297W        W14117   5.208   9.523  11.878
49298W        W14118  43.566  38.947  11.637
49299W        W14119  42.272  17.249  11.567
49300W        W14120  12.255  40.272  14.464
49301W        W14121   7.170  26.318   2.648
49302W        W14122  25.686   3.958  13.808
49303W        W14123  43.693  32.688  11.207
49304W        W14124   2.023  40.017   4.617
49305W        W14125  24.382  18.757  11.989
49306W        W14126   5.864  21.243   2.862
49307W        W14127   6.987   3.437  10.594
49308W        W14128  32.396  36.594  12.931
49309W        W14129  10.849   4.406   1.831
49310W        W14130  12.913  34.461  10.648
49311W        W14131  27.249  23.746   3.312
49312W        W14132  27.714  38.282   3.266
49313W        W14133  15.767  28.688   3.855
49314W        W14134  33.314  15.282   4.109
49315W        W14135   5.578  12.583  13.532
49316W        W14136  18.962  13.696  14.481
49317W        W14137  44.886  14.722   3.835
49318W        W14138   7.939  11.648  12.490
49319W        W14139  31.812  31.487  11.894
49320W        W14140  35.155  28.973  10.709
49321W        W14141  42.908  41.300  12.481
49322W        W14142   6.244  25.970  12.560
49323W        W14143  36.303   0.531   0.862
49324W        W14144  27.001   2.900   4.506
49325W        W14145   9.847  28.930   2.347
49326W        W14146  19.626  11.324  11.399
49327W        W14147   8.835  12.783  14.762
49328W        W14148  37.308   7.591   3.233
49329W        W14149  21.264  35.432   0.648
49330W        W14150  16.570  30.710   1.356
49331W        W14151  20.664  23.219   4.659
49332W        W14152   6.846  20.864   1.420
49333W        W14153  14.007  26.441  11.625
49334W        W14154  14.777  12.149   0.778
49335W        W14155  12.304  19.380  14.875
49336W        W14156   2.420  14.631   1.767
49337W        W14157  17.824  36.543   0.168
49338W        W14158   4.870  11.376  14.838
49339W        W14159  13.196  40.484  12.064
49340W        W14160  35.872  39.171   1.302
49341W        W14161  20.259  27.543   4.694
49342W        W14162  43.045  29.758   0.956
49343W        W14163  31.907   6.142   1.893
49344W        W14164  12.156  11.276  12.565
49345W        W14165   6.657  41.020  11.087
49346W        W14166  33.208  27.840   1.399
49347W        W14167  13.664  18.620   4.114
49348W        W14168  25.013  18.037   4.515
49349W        W14169  12.284  15.781  12.871
49350W        W14170  20.625  42.149  14.982
49351W        W14171   8.156  22.440  14.417
49352W        W14172  41.018  19.293  11.613
49353W        W14173  15.203   3.143   2.094
49354W        W14174   2.630  33.613  10.283
49355W        W14175   7.035  16.246   3.640
49356W        W14176  30.890  35.456  13.572
49357W        W14177  26.179   9.290  10.902
49358W        W14178   5.209  23.109  12.937
49359W        W14179  29.271  43.532   0.552
49360W        W14180   0.481  10.347  12.544
49361W        W14181  14.446  37.492  14.244
49362W        W14182  42.227   7.820   4.615
49363W        W14183  36.022  25.286   4.930
49364W        W14184  11.250  14.663  13.353
49365W        W14185  25.997   3.799   1.897
49366W        W14186   3.048  18.482  14.062
49367W        W14187  31.286  41.223  12.103
49368W        W14188   4.688  10.817   3.738
49369W        W14189  38.526  35.877  12.404
49370W        W14190  15.252  12.623  12.187
49371W        W14191  10.332  25.093  14.059
49372W        W14192  17.670   2.243  13.489
49373W        W14193  13.764  14.270  14.044
49374W        W14194  19.601   2.326  12.855
49375W        W14195  20.781  44.554  13.409
49376W        W14196  33.140  11.588  11.958
49377W        W14197   4.813  39.437  11.213
49378W        W14198  16.809  34.131   2.253
49379W        W14199   9.752  12.269   3.036
49380W        W14200  36.456   0.446   4.836
49381W        W14201   4.473  15.860  11.150
49382W        W14202  31.460   3.798  13.718
49383W        W14203  44.255  41.878  11.392
49384W        W14204  41.965  11.229  14.799
49385W        W14205  34.497  17.648  12.156
49386W        W14206  27.147  38.332  12.297
49387W        W14207   7.007  40.939   1.841
49388W        W14208   6.102   8.080   4.311
49389W        W14209   1.903   4.802  11.566
49390W        W14210  37.181  32.127   1.132
49391W        W14211  33.522  14.970  13.932
49392W        W14212  18.297   4.428  12.204
49393W        W14213   5.519  20.819   4.148
49394W        W14214  29.667   5.865   3.377
49395W        W14215  24.254   1.860   3.576
49396W        W14216  42.796  43.577  12.910
49397W        W14217  19.493  13.685  12.669
49398W        W14218  28.155  25.697   0.907
49399W        W14219  36.832  41.412   1.709
49400W        W14220   4.411  10.902   1.935
49401W        W14221  13.816  39.399  12.506
49402W        W14222  25.498   4.705   1.354
49403W        W14223  39.618  15.540   3.744
49404W        W14224  36.879   1.932   1.708
49405W        W14225   3.368  42.061   0.410
49406W        W14226  43.490  39.895  11.195
49407W        W14227  19.808  33.882   4.638
49408W        W14228  19.673  11.147   4.251
49409W        W14229  32.384  40.884  12.784
49410W        W14230  13.090  14.730  12.447
49411W        W14231  26.037  16.092   0.909
49412W        W14232  32.580  13.810   3.840
49413W        W14233  16.549  34.791  14.272
49414W        W14234  36.045  13.406   1.356
49415W        W14235  12.606  32.689   3.739
49416W        W14236  18.081   4.509  11.253
49417W        W14237  24.652  14.274  14.426
49418W        W14238  35.590  31.911   0.193
49419W        W14239  15.044  32.565   1.624
49420W        W14240  37.873  39.184   2.030
49421W        W14241  15.061  32.409  13.972
49422W        W14242  23.488  37.946   3.694
49423W        W14243   7.787  29.972   1.408
49424W        W14244  39.812   6.585   2.672
49425W        W14245  36.854   6.172  14.873
49426W        W14246   8.714  23.692  12.753
49427W        W14247  35.045  40.291   9.526
49428W        W14248   2.880  35.078   0.188
49429W        W14249  24.550   1.568  13.154
49430W        W14250  31.580   3.358   3.854
49431W        W14251  34.928  40.311   2.171
49432W        W14252  24.650   2.418   1.246
49433W        W14253  38.864  36.017  14.016
49434W        W14254  26.765  16.601   4.304
49435W        W14255  12.656   2.761   2.943
49436W        W14256  28.136  16.208  14.996
49437W        W14257   9.587  21.511   4.138
49438W        W14258   1.806  17.157   0.708
49439W        W14259  12.324  14.187  14.573
49440W        W14260  21.288   7.659   0.886
49441W        W14261   2.266  15.100   1.919
49442W        W14262  40.900  44.415  13.352
49443W        W14263  35.120  38.688   1.455
49444W        W14264  17.509  31.083   0.359
49445W        W14265  44.948  21.882   0.325
49446W        W14266  22.667  36.835   4.345
49447W        W14267  37.859  11.213  12.144
49448W        W14268  37.827  26.142  13.405
49449W        W14269  12.204   5.848   2.400
49450W        W14270   8.445  28.566  14.436
49451W        W14271  38.816  10.920  12.081
49452W        W14272  33.372  30.970  12.042
49453W        W14273  31.381  23.579   2.857
49454W        W14274  19.225  26.251   0.437
49455W        W14275  22.134  41.901   2.612
49456W        W14276  30.645  36.847   4.597
49457W        W14277  39.341  43.974  14.414
49458W        W14278   7.835   0.266  13.524
49459W        W14279  40.225   8.239   3.830
49460W        W14280  39.355  37.272  11.728
49461W        W14281  31.007  19.572  12.644
49462W        W14282   0.391  20.358  10.754
49463W        W14283  15.120  31.941  14.859
49464W        W14284   9.548  16.588  14.540
49465W        W14285  27.044  23.596  14.805
49466W        W14286  34.984  14.405   2.628
49467W        W14287   2.688  12.647   2.799
49468W        W14288  42.891  28.970   5.038
49469W        W14289  15.106   1.794   2.786
49470W        W14290  15.711  27.144   4.543
49471W        W14291  38.175   0.304  10.522
49472W        W14292  28.121   4.148  12.068
49473W        W14293   6.866  36.487  10.694
49474W        W14294  30.995  13.617   4.302
49475W        W14295   5.382   0.525  14.594
49476W        W14296  29.268  43.955  10.532
49477W        W14297   1.189  40.836  13.794
49478W        W14298   0.382  42.847   2.635
49479W        W14299  29.547   9.329   0.760
49480W        W14300  19.972  21.829  11.565
49481W        W14301  43.307  28.276  11.669
49482W        W14302  18.837   3.821   4.060
49483W        W14303  30.093  20.478   1.774
49484W        W14304  36.312  11.876   4.350
49485W        W14305   3.300  17.231  13.133
49486W        W14306  42.971  44.339   2.431
49487W        W14307  15.369  19.758   0.470
49488W        W14308  24.043   8.255  12.487
49489W        W14309   4.569  31.883  14.741
49490W        W14310   0.597   2.981   2.554
49491W        W14311  35.169  24.193   0.068
49492W        W14312  43.201  39.405   3.303
49493W        W14313   0.207  28.733   2.445
49494W        W14314  29.168  23.595   4.536
49495W        W14315  10.723   6.965  12.593
49496W        W14316   2.185   9.909   2.667
49497W        W14317  30.908  27.287  11.543
49498W        W14318  16.236  15.510   1.175
49499W        W14319  16.560  22.469  14.071
49500W        W14320  29.923  22.851  14.541
49501W        W14321   8.220   0.837   3.186
49502W        W14322  38.073  36.133  14.401
49503W        W14323  20.707  20.961  10.558
49504W        W14324  20.997  38.288  11.006
49505W        W14325  43.196  34.061  11.300
49506W        W14326   8.089  29.298  12.622
49507W        W14327  13.755  20.782  14.223
49508W        W14328  20.781  44.894  10.951
49509W        W14329  32.903  26.266  11.175
49510W        W14330   0.838  25.749   3.735
49511W        W14331  29.565   6.829   3.404
49512W        W14332   5.173  15.368   1.668
49513W        W14333  28.574  35.938   2.291
49514W        W14334  35.073   4.217   4.171
49515W        W14335  18.586  33.336   1.802
49516W        W14336  15.661   6.712   2.751
49517W        W14337  28.481  44.290  10.717
49518W        W14338   4.683  23.989  13.022
49519W        W14339  30.722  24.866   3.726
49520W        W14340  18.184  18.997  13.144
49521W        W14341  39.465   6.794  10.773
49522W        W14342   0.952  44.437  14.444
49523W        W14343  27.609   7.802   0.026
49524W        W14344  24.128  27.586  13.690
49525W        W14345  28.421  42.308  13.379
49526W        W14346  28.293  43.304   4.599
49527W        W14347  39.536  36.345   3.955
49528W        W14348  10.840   6.284  12.936
49529W        W14349  16.134  17.324   1.193
49530W        W14350  25.740  28.426  11.162
49531W        W14351  24.899   6.435  14.881
49532W        W14352   1.832  21.831   4.118
49533W        W14353  30.181  23.025  11.444
49534W        W14354   5.807  21.755   0.476
49535W        W14355  36.396  25.673  11.294
49536W        W14356  41.190  43.401   2.880
49537W        W14357  26.316  17.678  11.619
49538W        W14358   3.195  30.420  13.972
49539W        W14359  31.975  15.943  11.682
49540W        W14360  26.032  19.029  12.272
49541W        W14361  18.500  38.967   5.074
49542W        W14362  24.174  11.786  10.664
49543W        W14363  24.894  12.734   3.594
49544W        W14364  29.934  36.430   3.606
49545W        W14365   8.446  29.433   1.705
49546W        W14366   4.371   1.493   3.583
49547W        W14367  15.705  10.109   5.159
49548W        W14368  25.884  38.604  12.107
49549W        W14369  24.739   2.412  10.663
49550W        W14370  18.882  39.770  11.703
49551W        W14371  44.211  16.239  12.884
49552W        W14372  34.072   0.310   4.102
49553W        W14373   2.806  30.057  12.147
49554W        W14374   9.039  25.121  10.752
49555W        W14375  22.284  26.053   0.746
49556W        W14376  29.336  30.066   0.335
49557W        W14377  21.928  19.187   0.416
49558W        W14378  37.482  33.707   2.790
49559W        W14379  14.244  39.827  14.522
49560W        W14380  30.397   9.850   2.816
49561W        W14381  39.754   0.964  11.314
49562W        W14382  21.665  20.167   2.191
49563W        W14383  11.885  13.256   0.329
49564W        W14384  44.416  32.942   4.490
49565W        W14385  16.293  41.297  14.996
49566W        W14386  23.602  22.116   4.008
49567W        W14387  33.988   9.608   3.677
49568W        W14388  17.100   5.070  11.672
49569W        W14389  19.123  10.918  10.789
49570W        W14390   3.523  19.786  13.515
49571W        W14391  26.411  44.324  14.493
49572W        W14392  42.668  38.946  13.853
49573W        W14393  26.976  14.608  13.506
49574W        W14394  41.039  11.669   9.781
49575W        W14395  10.836  37.364  13.408
49576W        W14396  28.180  27.534  12.848
49577W        W14397  18.220   7.366   5.009
49578W        W14398  39.535  16.595   2.762
49579W        W14399  37.514  14.721  10.586
49580W        W14400  26.474  33.694   4.999
49581W        W14401  14.477  21.036  14.241
49582W        W14402   1.680  25.170   2.217
49583W        W14403  16.842  34.574  11.946
49584W        W14404  43.034  16.071  14.983
49585W        W14405  23.168  16.369   1.852
49586W        W14406   3.940   5.249  14.883
49587W        W14407  43.806  36.092   0.784
49588W        W14408  19.572  30.891  11.615
49589W        W14409  36.163  31.955   4.653
49590W        W14410  37.465  13.657   0.163
49591W        W14411  20.598   4.126  12.870
49592W        W14412  11.667  31.821   0.217
49593W        W14413  13.209  34.337   3.743
49594W        W14414  29.837  23.533   2.716
49595W        W14415  27.844  21.470  13.549
49596W        W14416  34.293  15.114   2.177
49597W        W14417  38.156  29.661  13.572
49598W        W14418   8.840  24.251   4.296
49599W        W14419  12.053   6.364  11.225
49600W        W14420   5.936  31.926   4.539
49601W        W14421  18.554  37.126  10.492
49602W        W14422  20.270  40.719   0.944
49603W        W14423   4.913  10.816   1.896
49604W        W14424  39.384   7.757   4.151
49605W        W14425  22.629   4.842  11.405
49606W        W14426   7.741   1.483  10.836
49607W        W14427  32.465  28.528  13.928
49608W        W14428  39.309  20.817   4.411
49609W        W14429  34.144   3.320   0.100
49610W        W14430  36.751  34.079   3.267
49611W        W14431  22.133  32.659   4.684
49612W        W14432   4.735  34.402   0.328
49613W        W14433  25.721  30.692  13.380
49614W        W14434  17.054  41.960   4.156
49615W        W14435  39.705   3.260  14.348
49616W        W14436  44.567  20.172   2.891
49617W        W14437  44.094  25.640  14.431
49618W        W14438  43.525   7.908  11.877
49619W        W14439   8.572   0.062  14.246
49620W        W14440  36.348  32.896  11.098
49621W        W14441  12.262  34.313  14.394
49622W        W14442   7.184   2.572   0.862
49623W        W14443  40.805  22.258  10.626
49624W        W14444  14.634   4.327  10.527
49625W        W14445  34.286  43.985  14.852
49626W        W14446  44.434  43.322   3.343
49627W        W14447  31.868  22.268   2.344
49628W        W14448  36.862  23.722  10.624
49629W        W14449  25.714  16.675  13.817
49630W        W14450  41.773   2.444   1.493
49631W        W14451  36.395   1.008   4.577
49632W        W14452   8.143  25.168   3.061
49633W        W14453   1.640  29.088  12.026
49634W        W14454   9.385  36.699  13.086
49635W        W14455   4.955   7.248   4.128
49636W        W14456  11.991  22.163  11.937
49637W        W14457  42.360   5.226  13.001
49638W        W14458   4.058   8.813   3.698
49639W        W14459  29.570  17.120   3.322
49640W        W14460   1.429  20.714   0.313
49641W        W14461  39.413  10.428   1.705
49642W        W14462  21.563   5.750   1.611
49643W        W14463  42.838  32.438   3.122
49644W        W14464   2.553  16.763   1.379
49645W        W14465  43.608   9.148   0.780
49646W        W14466  43.999   4.440   4.524
49647W        W14467  39.677  27.658   4.412
49648W        W14468  32.528  19.848   3.237
49649W        W14469  27.248  43.672   1.433
49650W        W14470   9.897  28.871  12.976
49651W        W14471   5.254  37.888   3.623
49652W        W14472   8.314   3.464   4.769
49653W        W14473  41.548   8.534  12.173
49654W        W14474  17.655   8.870   1.169
49655W        W14475   9.855  17.792  13.355
49656W        W14476  36.666  17.121  13.960
49657W        W14477  15.786  22.409   4.937
49658W        W14478   6.725  28.665  11.526
49659W        W14479   1.381  11.260   4.796
49660W        W14480  16.316   3.680   0.274
49661W        W14481  35.256  42.967   3.602
49662W        W14482  11.887  39.529   2.230
49663W        W14483  10.272  15.614  14.849
49664W        W14484  36.654  39.253  10.668
49665W        W14485  10.073  12.712  12.345
49666W        W14486   8.683   0.256   1.951
49667W        W14487  43.164  43.934  12.474
49668W        W14488  28.254  41.344   5.205
49669W        W14489  24.061  32.558   0.681
49670W        W14490  31.472  36.449   4.621
49671W        W14491  32.722  38.979   4.643
49672W        W14492  20.429   7.954  13.042
49673W        W14493  33.097   9.655   4.316
49674W        W14494  32.087  33.263  14.057
49675W        W14495  38.614   0.869  11.490
49676W        W14496  36.760  34.249  14.408
49677W        W14497  37.177  12.801   0.790
49678W        W14498  32.521  10.662  13.595
49679W        W14499   5.434  40.511  12.898
49680W        W14500  16.014  15.814  13.317
49681W        W14501  34.507  34.609   0.304
49682W        W14502  25.470  21.011   2.579
49683W        W14503  15.782   2.850   3.249
49684W        W14504  29.447  39.205  14.056
49685W        W14505   9.920  13.106   3.057
49686W        W14506   0.562  20.114   0.316
49687W        W14507  43.295  38.851   0.209
49688W        W14508   7.869  25.978  13.846
49689W        W14509  39.993   4.467  10.758
49690W        W14510   6.783  20.747   4.594
49691W        W14511  32.161  21.803  10.820
49692W        W14512  44.296  17.502   4.321
49693W        W14513  11.977   9.268  11.445
49694W        W14514  39.374  38.838   3.323
49695W        W14515   2.244  28.678  14.393
49696W        W14516  32.977   0.669   2.610
49697W        W14517   8.191  34.742   2.177
49698W        W14518  20.945   2.074  11.189
49699W        W14519  17.723  15.306   1.735
49700W        W14520  34.942  37.637   1.392
49701W        W14521  12.389  25.695   0.124
49702W        W14522  23.271  15.119  13.988
49703W        W14523  35.821  28.270  11.602
49704W        W14524  22.504  14.775   2.187
49705W        W14525  10.598  42.873   3.266
49706W        W14526   9.151  14.184   0.745
49707W        W14527  14.338  25.494   0.166
49708W        W14528  44.925  41.051  14.023
49709W        W14529  35.346  23.299   0.867
49710W        W14530  43.398  40.299   2.692
49711W        W14531  25.489  38.348   3.673
49712W        W14532  10.172  28.565   0.309
49713W        W14533  38.477  39.520  13.097
49714W        W14534  11.802   9.943  10.508
49715W        W14535  36.558   1.448  12.060
49716W        W14536  26.709   0.633  13.505
49717W        W14537  21.610   0.452   2.263
49718W        W14538  15.027  17.263  10.431
49719W        W14539  37.697  44.991  11.142
49720W        W14540  34.268  41.266   2.635
49721W        W14541  24.339  10.859  11.932
49722W        W14542  13.161  31.446  10.004
49723W        W14543  40.084  41.396  14.782
49724W        W14544  31.426   4.355  10.757
49725W        W14545  15.692  11.720   3.214
49726W        W14546   1.017  34.447   1.263
49727W        W14547  43.948  17.581   0.220
49728W        W14548  41.037  21.259   2.640
49729W        W14549  41.670  42.885   4.568
49730W        W14550   1.947  35.313   1.887
49731W        W14551  34.847  37.377  11.288
49732W        W14552  17.170   4.546   4.624
49733W        W14553  25.205  11.385  10.099
49734W        W14554   5.559  43.361  10.733
49735W        W14555  36.544  32.603   3.279
49736W        W14556   9.576  16.181  13.968
49737W        W14557  38.883  41.233  13.390
49738W        W14558  43.052  32.863  14.510
49739W        W14559  33.342   8.173   4.647
49740W        W14560  35.625  11.064  14.796
49741W        W14561  21.620  40.540  14.831
49742W        W14562  20.595  21.057  11.058
49743W        W14563  20.631  41.971  11.442
49744W        W14564  19.533   4.831  14.735
49745W        W14565  15.397  15.664   1.840
49746W        W14566  30.816  24.984  13.433
49747W        W14567  29.624  35.419   4.436
49748W        W14568  34.491  37.373   4.137
49749W        W14569  44.465   0.018   0.271
49750W        W14570  23.129  16.618  13.324
49751W        W14571  28.515  37.301   2.294
49752W        W14572  34.992  39.136   1.816
49753W        W14573  15.999   9.426  14.888
49754W        W14574   8.146  17.275   4.856
49755W        W14575  26.977  16.335   3.918
49756W        W14576  20.445  34.514  14.500
49757W        W14577  11.799  15.083   2.191
49758W        W14578  32.206  36.068  11.584
49759W        W14579   9.971  24.323   9.706
49760W        W14580   6.443  16.902   2.727
49761W        W14581  27.808  38.986   1.804
49762W        W14582  13.700   6.591  11.278
49763W        W14583  30.416  38.975   1.208
49764W        W14584  16.498  42.369   4.019
49765W        W14585  34.850  12.242   0.247
49766W        W14586  11.493  12.536   4.683
49767W        W14587  35.929  19.500   3.754
49768W        W14588  44.160  17.636  11.408
49769W        W14589  22.932   8.410  11.606
49770W        W14590  32.531  32.359   2.331
49771W        W14591  20.732  36.748  12.155
49772W        W14592  23.247   5.369   1.533
49773W        W14593  12.248  33.444   2.709
49774W        W14594  14.513  11.803  12.870
49775W        W14595   2.749   1.743  13.390
49776W        W14596   7.850   5.952   4.651
49777W        W14597  43.530   7.579  10.796
49778W        W14598  25.201   5.303   0.748
49779W        W14599   0.166  22.410  14.753
49780W        W14600  22.757   2.473  11.667
49781W        W14601  41.869   0.164   2.296
49782W        W14602  19.134  34.499  12.099
49783W        W14603  22.594   9.202  13.964
49784W        W14604  11.314   8.799   4.257
49785W        W14605  44.574  34.916   2.713
49786W        W14606  37.476  33.692  11.556
49787W        W14607  22.262  37.328   1.745
49788W        W14608  22.174  41.363  14.618
49789W        W14609   4.804  17.168   4.507
49790W        W14610  28.549   4.913  12.125
49791W        W14611  11.293  35.173  11.191
49792W        W14612  31.607  32.009  14.828
49793W        W14613   6.233  31.097   0.194
49794W        W14614  16.213   4.934   3.711
49795W        W14615  38.034  22.021  12.176
49796W        W14616  13.816  13.547   1.686
49797W        W14617   7.732  34.826   4.310
49798W        W14618   8.673  24.944  11.629
49799W        W14619   2.905  15.159  13.114
49800W        W14620  22.222  17.151   3.148
49801W        W14621  12.231   9.170  13.151
49802W        W14622  17.590  13.288  12.232
49803W        W14623  29.597  24.349   4.445
49804W        W14624  14.659   2.018   2.714
49805W        W14625  27.738  32.521  12.976
49806W        W14626  25.939  33.067  13.838
49807W        W14627   6.097   2.739   2.238
49808W        W14628  24.518  26.470   4.129
49809W        W14629  23.648  42.514   0.727
49810W        W14630  11.430   1.483  13.565
49811W        W14631  24.510   0.220  13.592
49812W        W14632  44.809  19.387   0.452
49813W        W14633  35.834  17.122   2.722
49814W        W14634  42.404  38.815  14.273
49815W        W14635  31.913  15.085   1.716
49816W        W14636  44.261  10.104   4.480
49817W        W14637  43.359  29.210  12.957
49818W        W14638  23.552  20.817   3.721
49819W        W14639  40.758  22.239   0.859
49820W        W14640  24.955  26.407  13.298
49821W        W14641  10.720  39.998  13.847
49822W        W14642  42.877   7.411  11.651
49823W        W14643   0.423   6.194   2.128
49824W        W14644  43.850  38.913   3.138
49825W        W14645  40.251  29.642  11.236
49826W        W14646  44.384  14.834   3.640
49827W        W14647   4.563  37.588   5.337
49828W        W14648  41.786  37.152   3.681
49829W        W14649   7.952  34.655  11.970
49830W        W14650  34.374  28.641   4.581
49831W        W14651  32.514  30.911   0.692
49832W        W14652  38.000  17.869  10.873
49833W        W14653   4.413  33.917   0.829
49834W        W14654  12.791  23.651   1.262
49835W        W14655   2.232  17.972  11.631
49836W        W14656  20.817  37.626   4.630
49837W        W14657  12.687  33.434  14.899
49838W        W14658   3.922  40.639   0.738
49839W        W14659  36.151  36.518   3.884
49840W        W14660  26.305  41.391   4.514
49841W        W14661  16.654   6.151  10.410
49842W        W14662  26.306  40.032  12.078
49843W        W14663  31.583  26.500  14.933
49844W        W14664  23.965  44.016   0.475
49845W        W14665  11.681   8.164  14.183
49846W        W14666  22.485  37.594   1.365
49847W        W14667  14.655  18.509  12.819
49848W        W14668   9.341  22.849   4.472
49849W        W14669  19.986  26.604  11.878
49850W        W14670  18.326  22.550  10.216
49851W        W14671  35.121   9.680  11.134
49852W        W14672  24.625   4.380  11.676
49853W        W14673   2.495  42.012   0.733
49854W        W14674  34.339  34.223   2.775
49855W        W14675  42.146  28.628  12.844
49856W        W14676  30.234  40.698   4.087
49857W        W14677  16.951   4.088   4.441
49858W        W14678  36.362  27.042  10.495
49859W        W14679  36.895  18.694  11.042
49860W        W14680  32.146   6.433  14.429
49861W        W14681   4.365  15.342   4.970
49862W        W14682  19.213   6.833   1.962
49863W        W14683  36.913  11.810   3.203
49864W        W14684   6.352  24.369   1.968
49865W        W14685  10.634  31.437  14.821
49866W        W14686  18.179  25.196  10.704
49867W        W14687  16.312  19.095   4.645
49868W        W14688   6.420  32.996   0.424
49869W        W14689  20.653   0.630  14.478
49870W        W14690  24.536  18.469   5.128
49871W        W14691   4.712   7.725  10.871
49872W        W14692   0.299  33.516   3.911
49873W        W14693  13.930  21.273   2.779
49874W        W14694  28.266  31.977   2.188
49875W        W14695  10.069   7.699  12.477
49876W        W14696  21.140  28.035   2.209
49877W        W14697  11.856  29.872   1.385
49878W        W14698  25.565  25.439   4.648
49879W        W14699  39.275  43.171  12.881
49880W        W14700  41.464  17.028   2.723
49881W        W14701   4.450  21.703  12.488
49882W        W14702   8.302  35.931  13.837
49883W        W14703  18.128  10.919  13.960
49884W        W14704  36.923   9.244  11.977
49885W        W14705  43.450  21.284   4.169
49886W        W14706  19.127  43.118   1.068
49887W        W14707  37.202  40.038  14.477
49888W        W14708   9.560  22.540  11.101
49889W        W14709  27.623   2.750  13.516
49890W        W14710  42.812  29.174   3.389
49891W        W14711   0.847  42.719  10.721
49892W        W14712   1.712  15.297  12.115
49893W        W14713  10.900   8.360  12.471
49894W        W14714   1.086  20.610   2.140
49895W        W14715  17.475  17.310  10.801
49896W        W14716  25.841   8.345   3.664
49897W        W14717  18.055  20.845   1.950
49898W        W14718  29.732   0.847  13.448
49899W        W14719  13.530  39.534   2.636
49900W        W14720   5.406  23.155  11.585
49901W        W14721  32.226  23.046  11.643
49902W        W14722  24.496  29.641  12.469
49903W        W14723   9.159  15.305   4.661
49904W        W14724  23.418   9.793   5.103
49905W        W14725   8.776  15.662   4.595
49906W        W14726  42.497  27.735   2.960
49907W        W14727  26.276  24.126  13.848
49908W        W14728  32.121  43.957   1.399
49909W        W14729  16.792  16.562   0.398
49910W        W14730   4.815  41.107   3.181
49911W        W14731   3.468  27.662  14.558
49912W        W14732   8.759  26.066   2.631
49913W        W14733  37.353  24.712   0.829
49914W        W14734  30.893  18.063   1.781
49915W        W14735  28.754   7.705   0.378
49916W        W14736  15.571  24.649   4.646
49917W        W14737  40.779   8.369   0.951
49918W        W14738   8.310   8.421  11.975
49919W        W14739  13.532  19.761   0.197
49920W        W14740   5.480  12.776  11.110
49921W        W14741  15.602  12.845  12.640
49922W        W14742  44.334   5.606  11.171
49923W        W14743  12.601  17.464   0.461
49924W        W14744  29.244  15.710  12.006
49925W        W14745  20.683  30.889   0.862
49926W        W14746  36.460  24.336  10.241
49927W        W14747   2.741  18.182   3.539
49928W        W14748   6.244  11.979   4.972
49929W        W14749  34.516  22.609   2.645
49930W        W14750  30.311  31.206   0.810
49931W        W14751  16.994  19.275  10.827
49932W        W14752  10.508   7.882  13.298
49933W        W14753  44.021  12.047   2.731
49934W        W14754   9.122  15.967  13.914
49935W        W14755  39.814  31.099   1.401
49936W        W14756  13.313  10.063   4.589
49937W        W14757  14.761  32.584   3.315
49938W        W14758   7.580  11.762  14.015
49939W        W14759   5.969   5.908  12.435
49940W        W14760  35.583   4.367  13.447
49941W        W14761  36.624  37.559  11.132
49942W        W14762  30.404  17.682   4.538
49943W        W14763  13.221  31.750  13.770
49944W        W14764  39.755  10.608   3.512
49945W        W14765  21.637  10.105  12.105
49946W        W14766  38.816  34.084   4.100
49947W        W14767   3.209  37.891  12.888
49948W        W14768   4.488  27.419   3.109
49949W        W14769  44.195   4.981  13.327
49950W        W14770  30.144  17.093  14.887
49951W        W14771  35.937  10.389   2.279
49952W        W14772   8.546  29.154  12.414
49953W        W14773  27.481  38.612  14.489
49954W        W14774   6.983  32.846  14.602
49955W        W14775  41.441  31.434   2.424
49956W        W14776  41.885  23.101   0.045
49957W        W14777  29.204  22.175   1.824
49958W        W14778   6.248  36.415   1.253
49959W        W14779  15.653  11.453   1.318
49960W        W14780  22.272  44.204   2.340
49961W        W14781  34.914   4.839  11.139
49962W        W14782  30.989  26.978  12.853
49963W        W14783  35.044   2.348  13.765
49964W        W14784  23.565  30.805   1.305
49965W        W14785  36.321  26.577   2.773
49966W        W14786  33.030  26.072   4.022
49967W        W14787   1.125  34.990   4.524
49968W        W14788  37.532  21.013   5.291
49969W        W14789  39.133  18.433   4.996
49970W        W14790  41.289  34.086   4.056
49971W        W14791   5.793  26.586   3.140
49972W        W14792  37.556  24.889   4.277
49973W        W14793   0.183   6.657  10.933
49974W        W14794   6.102  20.204   1.837
49975W        W14795  31.500  44.360   3.165
49976W        W14796  42.570   2.950   0.499
49977W        W14797  37.108   8.755  11.222
49978W        W14798  36.860  15.629   0.180
49979W        W14799  17.754   7.460  10.701
49980W        W14800  31.180  12.215   0.389
49981W        W14801  24.043  22.138  12.563
49982W        W14802   4.171  31.067  11.619
49983W        W14803  16.078  19.706  11.592
49984W        W14804   3.766  35.296   1.624
49985W        W14805  17.568   9.399  11.909
49986W        W14806  17.244  22.509  14.065
49987W        W14807  22.159   5.922   0.854
49988W        W14808  36.338  13.781  10.269
49989W        W14809   3.236   0.908  11.366
49990W        W14810  12.705  14.965   2.816
49991W        W14811  28.613  39.030   0.298
49992W        W14812   7.292  14.342   0.261
49993W        W14813  42.585  20.797  12.779
49994W        W14814  15.857   4.878   3.289
49995W        W14815  29.196  13.669   0.825
49996W        W14816  42.807  31.534   1.801
49997W        W14817   6.189   7.006  14.808
49998W        W14818  13.952  36.673  11.560
49999W        W14819  13.780  16.104  14.093
50000W        W14820   9.761   0.843   2.148
50001W        W14821  41.782  12.190  14.392
50002W        W14822   7.849   8.123   1.427
50003W        W14823  28.569  18.472  14.151
50004W        W14824  12.065   0.304  14.497
50005W        W14825  27.011   2.880   1.151
50006W        W14826  39.850  36.097  14.602
50007W        W14827  41.038  19.138  12.103
50008W        W14828   2.639  27.365  14.939
50009W        W14829  37.176  21.176  14.018
50010W        W14830  38.296  25.780  11.159
50011W        W14831  33.949  28.597   3.515
50012W        W14832   4.620  16.101  14.838
50013W        W14833  28.200  20.182  12.594
50014W        W14834  34.028  13.106   0.021
50015W        W14835  40.946   8.292   0.465
50016W        W14836  43.135  30.166  13.279
50017W        W14837  37.888  28.309  14.937
50018W        W14838  41.763  22.594  14.926
50019W        W14839  44.348   9.204   2.699
50020W        W14840  43.308   5.010  13.152
50021W        W14841  14.025   3.706  14.412
50022W        W14842  43.976  33.506   4.521
50023W        W14843  42.547  25.443   0.291
50024W        W14844  10.924   3.685   2.335
50025W        W14845  32.092  28.761   5.400
50026W        W14846   0.044  22.452   1.858
50027W        W14847  12.544  31.382   3.520
50028W        W14848  15.600  24.257   0.764
50029W        W14849  44.903  21.900  12.329
50030W        W14850   9.579  31.435  14.972
50031W        W14851  21.203  20.280  11.498
50032W        W14852  26.481   7.574  11.983
50033W        W14853  15.148  43.490   1.437
50034W        W14854   4.515   7.173  11.022
50035W        W14855  41.768  32.518  11.948
50036W        W14856   3.478  36.419   3.723
50037W        W14857  35.147   8.081   3.769
50038W        W14858  34.905  39.480  11.227
50039W        W14859  29.302  27.849  13.569
50040W        W14860   9.276  28.176  13.619
50041W        W14861  40.292  27.910   1.742
50042W        W14862  14.417  15.143  13.422
50043W        W14863  20.988  29.352  10.759
50044W        W14864  35.926   2.907  13.353
50045W        W14865  19.296  16.524   2.493
50046W        W14866  19.344   6.443  10.573
50047W        W14867   1.257  36.902  13.421
50048W        W14868  34.760  35.505   0.455
50049W        W14869  31.067  10.550  10.686
50050W        W14870   2.670   7.285   2.658
50051W        W14871   8.743  39.319   0.509
50052W        W14872  24.448  24.720   1.291
50053W        W14873   1.171  19.332  12.590
50054W        W14874  19.244  25.760  11.708
50055W        W14875  39.488  33.012  13.282
50056W        W14876  11.785   2.429   1.223
50057W        W14877  20.718  20.598   4.841
50058W        W14878  39.953  35.999   1.439
50059W        W14879  39.461   8.142   3.438
50060W        W14880  35.500  30.659  12.318
50061W        W14881  34.108  28.025   4.123
50062W        W14882  38.624   0.866   0.777
50063W        W14883  26.585   0.998  12.497
50064W        W14884   8.241  36.884   2.943
50065W        W14885  24.467  29.600  13.815
50066W        W14886  31.403  38.012   0.722
50067W        W14887  18.149  11.485   1.870
50068W        W14888  15.649  17.267   2.693
50069W        W14889   3.196  15.268   1.379
50070W        W14890  31.731  31.020   0.114
50071W        W14891  44.344  27.718  11.573
50072W        W14892   0.991  21.741  12.648
50073W        W14893  38.448  14.908  10.040
50074W        W14894  20.651  36.948   0.478
50075W        W14895   6.291  25.406  14.483
50076W        W14896   5.957  37.523  13.101
50077W        W14897  33.847  37.523  14.937
50078W        W14898   9.330  29.854  10.483
50079W        W14899  23.746  29.224   0.353
50080W        W14900  24.499  35.344   5.447
50081W        W14901   3.435  14.310  10.763
50082W        W14902   3.773  14.658   2.282
50083W        W14903  14.074  13.681   3.900
50084W        W14904  23.926  11.605  10.204
50085W        W14905  12.619  20.298  10.747
50086W        W14906  44.497  28.129   4.011
50087W        W14907  38.641  40.483  12.806
50088W        W14908  14.437  22.030  14.276
50089W        W14909  16.824  39.120   3.136
50090W        W14910  32.165  11.464   3.332
50091W        W14911  18.625   5.696   0.762
50092W        W14912  31.086  30.152  10.611
50093W        W14913  16.793  12.385  12.993
50094W        W14914  33.789  26.560   1.005
50095W        W14915  30.599  16.521   3.728
50096W        W14916  16.192  15.687   2.879
50097W        W14917  35.808  15.860  13.036
50098W        W14918  22.192  23.311   0.530
50099W        W14919  33.403   2.638  13.520
50100W        W14920  18.772  27.254   0.871
50101W        W14921   0.100  44.100   3.109
50102W        W14922  21.572   4.828   4.778
50103W        W14923  40.516  10.496  12.404
50104W        W14924  24.526  30.363   4.820
50105W        W14925  37.054  15.328   4.379
50106W        W14926   2.352  33.402   2.605
50107W        W14927  42.788  21.415  11.030
50108W        W14928   5.692  35.968  10.706
50109W        W14929   4.145  31.646  14.542
50110W        W14930  34.723  34.425  12.499
50111W        W14931  16.260  10.573  11.181
50112W        W14932  11.663  42.976   4.713
50113W        W14933  27.566  28.847  13.931
50114W        W14934  23.483  31.588  14.301
50115W        W14935   3.913  41.441   4.716
50116W        W14936  26.559  40.363  11.255
50117W        W14937  38.073  33.515  10.863
50118W        W14938  26.327   7.144  10.905
50119W        W14939  11.292  18.338  11.136
50120W        W14940  36.573  13.647  12.850
50121W        W14941  44.378  10.673  11.026
50122W        W14942  44.950   6.233  14.042
50123W        W14943  22.995   2.339   0.752
50124W        W14944  25.646  16.773   3.693
50125W        W14945  31.909   9.541   2.398
50126W        W14946  43.046  44.948   1.619
50127W        W14947  37.952  27.202   0.822
50128W        W14948  41.905  36.625   3.711
50129W        W14949  31.125  36.345  13.359
50130W        W14950  39.484   1.012   1.664
50131W        W14951   2.772  22.520  12.385
50132W        W14952  26.210  18.176   0.305
50133W        W14953  23.282  13.836   4.189
50134W        W14954   4.491  13.625  11.238
50135W        W14955  39.934   6.315   2.230
50136W        W14956   8.938  23.774   4.441
50137W        W14957   5.870   0.889   0.431
50138W        W14958  40.863  27.208  13.862
50139W        W14959  10.331  44.294  13.494
50140W        W14960  35.340  12.143  11.582
50141W        W14961   3.643  37.040   2.122
50142W        W14962  18.466  23.606   0.052
50143W        W14963   0.534  35.985  14.251
50144W        W14964  17.630  28.665  12.087
50145W        W14965  17.604  10.349  10.918
50146W        W14966  32.741  36.316  12.568
50147W        W14967   4.739  30.302   0.499
50148W        W14968   2.344  42.259  13.858
50149W        W14969   3.796  44.537  12.152
50150W        W14970  43.800  42.809   1.736
50151W        W14971  31.440  19.719   1.321
50152W        W14972   0.599   9.503   1.825
50153W        W14973  14.946  25.527   1.357
50154W        W14974  27.490  43.954   2.242
50155W        W14975  18.096   7.438  12.573
50156W        W14976   9.644  37.620  12.146
50157W        W14977   7.303  12.253  13.324
50158W        W14978  33.681  33.162  13.064
50159W        W14979  35.685   1.500   1.351
50160W        W14980  31.108  18.218   2.776
50161W        W14981  38.501  15.549   1.702
50162W        W14982  33.747  43.818  12.813
50163W        W14983  11.770   8.569   4.372
50164W        W14984  32.787  11.122   4.019
50165W        W14985  15.585  23.736   0.815
50166W        W14986  39.541  11.648  14.426
50167W        W14987  33.221  43.898  13.655
50168W        W14988  36.958  26.917  12.584
50169W        W14989  19.735  35.047  14.928
50170W        W14990  22.747  21.155  10.619
50171W        W14991   3.418  36.075   3.294
50172W        W14992   1.525   2.398   3.675
50173W        W14993  16.569  15.175   0.297
50174W        W14994  24.062   8.284  13.524
50175W        W14995   9.190  18.961   0.431
50176W        W14996  36.757  19.352  13.357
50177W        W14997  13.259  37.301   4.099
50178W        W14998   1.394  35.843   3.951
50179W        W14999  36.828  26.490   1.945
50180W        W15000  26.275  16.620  12.630
50181W        W15001   6.428  17.465  13.072
50182W        W15002  38.967  40.213  11.934
50183W        W15003  19.911  10.238  12.545
50184W        W15004  41.994  39.473  14.009
50185W        W15005  16.264  12.787   2.288
50186W        W15006  43.565   9.269  12.824
50187W        W15007   0.891   5.185  13.851
50188W        W15008  12.867   8.087  11.745
50189W        W15009  44.218  27.585   4.651
50190W        W15010  33.274  35.116  12.905
50191W        W15011  14.640  14.865  13.822
50192W        W15012  28.543  26.956  10.846
50193W        W15013  33.470   2.449  10.554
50194W        W15014  20.930  20.055   0.311
50195W        W15015  31.613   0.778  10.986
50196W        W15016  20.084  12.701   2.789
50197W        W15017   5.660   2.493  13.752
50198W        W15018  43.799  36.404   3.274
50199W        W15019  39.672   0.423  13.835
50200W        W15020  25.055  39.100  12.466
50201W        W15021  15.708  17.577  12.600
50202W        W15022  28.103  33.308   3.750
50203W        W15023  35.218  27.230  14.805
50204W        W15024  13.937  38.035   3.559
50205W        W15025  25.511  35.175   0.435
50206W        W15026   0.682  32.343   0.485
50207W        W15027  21.925  10.217   3.167
50208W        W15028   2.885  40.496   1.182
50209W        W15029  20.430  44.216  14.289
50210W        W15030  33.446  13.974   3.956
50211W        W15031  31.218   9.121   1.898
50212W        W15032  18.809  23.619  11.910
50213W        W15033  25.049  13.190  14.931
50214W        W15034  43.338  34.855  12.863
50215W        W15035  31.093  14.614   1.728
50216W        W15036  41.604  36.223  11.409
50217W        W15037  10.846  35.865   1.329
50218W        W15038   0.376   6.862  13.414
50219W        W15039  17.170  13.329  13.935
50220W        W15040  32.692  18.153  12.400
50221W        W15041  31.440  39.986   3.874
50222W        W15042  42.271  34.805   2.819
50223W        W15043  44.334   8.881   4.130
50224W        W15044  29.111  37.933   1.956
50225W        W15045  20.434  27.986  14.821
50226W        W15046  43.298  36.452   3.123
50227W        W15047  33.444  23.031  11.951
50228W        W15048  39.914  38.314   3.650
50229W        W15049  25.101  32.505  12.150
50230W        W15050  26.587  20.007  12.083
50231W        W15051  12.317  31.783   4.850
50232W        W15052  36.010  23.692  14.017
50233W        W15053   4.673  10.654   2.338
50234W        W15054   2.667  24.679  11.231
50235W        W15055  28.875  33.841  11.207
50236W        W15056  41.542  36.896   1.274
50237W        W15057  30.924  31.477  13.860
50238W        W15058  10.387  30.675  13.831
50239W        W15059   2.545  32.441  11.130
50240W        W15060  18.786  22.480   1.989
50241W        W15061   2.180  19.515  11.158
50242W        W15062  17.792  44.812   4.585
50243W        W15063   4.284  41.046   4.298
50244W        W15064  39.777  15.698  11.437
50245W        W15065  38.559  37.519  10.381
50246W        W15066  43.530   3.421  14.753
50247W        W15067  23.278   7.637  14.299
50248W        W15068  23.303  41.290  11.071
50249W        W15069   0.853  18.791   0.782
50250W        W15070  37.036  38.420   4.854
50251W        W15071   9.277  37.291   3.151
50252W        W15072   0.742  42.701   2.248
50253W        W15073   3.359  12.571  12.945
50254W        W15074   5.917  36.502   1.675
50255W        W15075  28.529  32.097   0.460
50256W        W15076  12.041  32.167   0.269
50257W        W15077  31.969   1.700  10.514
50258W        W15078  25.710  25.368   3.095
50259W        W15079   9.398  41.380  14.455
50260W        W15080  33.996  28.017  14.748
50261W        W15081  21.980  19.808  14.887
50262W        W15082  41.333   1.344   2.153
50263W        W15083  21.015  15.491   3.269
50264W        W15084   4.862   6.984   4.601
50265W        W15085  15.288  35.604   1.922
50266W        W15086  12.200   3.180   3.297
50267W        W15087  44.475  27.883   5.023
50268W        W15088   1.310  21.482  11.958
50269W        W15089  19.389  32.557   4.835
50270W        W15090  30.944  44.446  13.493
50271W        W15091  17.657  43.748   3.253
50272W        W15092  31.125  18.821   1.394
50273W        W15093  25.755  21.381  11.441
50274W        W15094   0.928   4.088  13.916
50275W        W15095  25.652  23.018   3.336
50276W        W15096   2.870  33.385  13.006
50277W        W15097  17.249   7.981   1.048
50278W        W15098  15.321  26.842  13.370
50279W        W15099  18.929   9.184   0.246
50280W        W15100  42.868  27.934  13.993
50281W        W15101  44.553  21.809   1.282
50282W        W15102  35.635  26.724  13.937
50283W        W15103   9.183  18.269   4.066
50284W        W15104  23.238  26.515  11.101
50285W        W15105   6.690  44.398  14.188
50286W        W15106  12.660  19.269  13.881
50287W        W15107   8.595  35.102  11.518
50288W        W15108  32.037  24.738   0.045
50289W        W15109  11.101  35.902   4.117
50290W        W15110  21.284   6.945   4.171
50291W        W15111  13.607  43.946   4.174
50292W        W15112   6.564  10.609   1.364
50293W        W15113   3.495  32.776   2.974
50294W        W15114  11.274   4.430  11.947
50295W        W15115  36.971  33.407   1.653
50296W        W15116  22.629   6.393  12.267
50297W        W15117  42.407  42.506  13.635
50298W        W15118  18.639  12.686  14.563
50299W        W15119  28.162  18.002  11.607
50300W        W15120  36.802  18.159  11.730
50301W        W15121  43.205  35.055  13.778
50302W        W15122  25.843  41.537   1.463
50303W        W15123  39.040  30.193  14.481
50304W        W15124  26.100  17.352   1.438
50305W        W15125  42.405  38.454   3.717
50306W        W15126  31.130  44.792  12.007
50307W        W15127   9.254  13.938  11.908
50308W        W15128   0.696  25.580  12.891
50309W        W15129  14.323  10.934  11.456
50310W        W15130  29.293  13.279   3.603
50311W        W15131  17.164  19.742   1.760
50312W        W15132   2.199  12.349  12.530
50313W        W15133  35.459  22.215  11.419
50314W        W15134  39.295  29.925  10.256
50315W        W15135  16.043   7.661  12.017
50316W        W15136   4.861  18.065  12.017
50317W        W15137  24.003  34.320   2.856
50318W        W15138  37.228  23.610  13.415
50319W        W15139  16.129   2.454  12.047
50320W        W15140  26.203  32.699   2.363
50321W        W15141  12.280  22.239  14.295
50322W        W15142  33.463  21.498   5.074
50323W        W15143  11.066  22.047   1.706
50324W        W15144  43.057   1.827  13.503
50325W        W15145   4.188  33.456  13.580
50326W        W15146   6.422   8.189  10.346
50327W        W15147  22.025   2.974   0.588
50328W        W15148  20.279  44.875   1.438
50329W        W15149  23.041  20.556   1.445
50330W        W15150  19.822  34.860   3.599
50331W        W15151  20.242  30.659  11.176
50332W        W15152  37.537  38.230   4.991
50333W        W15153  31.414  23.071  10.643
50334W        W15154  36.953  17.806   0.398
50335W        W15155   4.013   5.539  11.644
50336W        W15156  24.763  42.326  11.627
50337W        W15157  34.880   1.375   2.407
50338W        W15158   1.948  15.851   1.511
50339W        W15159  43.762  16.758   1.901
50340W        W15160  23.162  35.139   4.662
50341W        W15161  22.489  29.043   0.480
50342W        W15162  37.079  31.912  10.519
50343W        W15163  43.946   9.614  13.556
50344W        W15164  31.098  34.577   0.228
50345W        W15165   8.800  16.817   1.402
50346W        W15166   2.030   8.184  14.380
50347W        W15167   4.043  27.582  13.072
50348W        W15168  36.838  29.311   3.629
50349W        W15169   4.462  31.388  13.769
50350W        W15170  19.152   4.744   0.099
50351W        W15171  43.999  20.604   2.994
50352W        W15172  11.310  43.260   3.216
50353W        W15173  31.924  21.082   0.015
50354W        W15174   9.462  36.465  11.523
50355W        W15175   3.280  21.554  12.041
50356W        W15176  30.502  39.122  14.348
50357W        W15177  44.813   6.597  12.195
50358W        W15178  12.803   1.927   3.602
50359W        W15179  43.066  22.481   1.767
50360W        W15180  15.781   7.316  11.270
50361W        W15181  37.613  16.408   1.078
50362W        W15182   1.162   8.476  12.454
50363W        W15183  31.706  14.985  13.016
50364W        W15184   2.480   1.186  14.556
50365W        W15185  27.661  18.219  12.949
50366W        W15186  13.750  26.263   4.275
50367W        W15187  10.252  11.566   1.989
50368W        W15188  37.788  22.615  14.321
50369W        W15189  24.517  24.599   2.138
50370W        W15190   8.517  43.874   3.682
50371W        W15191  20.698  14.317  13.509
50372W        W15192  41.008  39.759  10.775
50373W        W15193  40.771  28.423   4.403
50374W        W15194  35.310   6.606  13.741
50375W        W15195  29.433  22.737  11.908
50376W        W15196  15.887  12.870  14.744
50377W        W15197  11.626  28.943   1.312
50378W        W15198  11.809  31.074  14.643
50379W        W15199   6.174   7.406  10.728
50380W        W15200  18.356  37.290  13.996
50381W        W15201   5.391  21.498   0.310
50382W        W15202  20.830  21.054   4.598
50383W        W15203  26.728   1.932   0.883
50384W        W15204  26.364  12.771  12.004
50385W        W15205  17.705  16.348   2.783
50386W        W15206   9.646  37.896  10.752
50387W        W15207  27.053   2.168  13.102
50388W        W15208   4.725   0.794  11.727
50389W        W15209  29.096  29.518   3.642
50390W        W15210  36.534  16.620   2.663
50391W        W15211   6.445  30.893  11.143
50392W        W15212  34.959  26.187   3.603
50393W        W15213  41.592   9.756  14.893
50394W        W15214  44.400   8.207  12.812
50395W        W15215  21.005  11.065   4.171
50396W        W15216  29.432   4.299  11.989
50397W        W15217  29.441   1.396  14.099
50398W        W15218  41.187  14.005  11.261
50399W        W15219  17.789  40.996   1.133
50400W        W15220   3.435  40.640   0.873
50401W        W15221   8.696  15.132   0.904
50402W        W15222  17.071   6.864   1.637
50403W        W15223   3.753  33.340  12.490
50404W        W15224  41.286   7.766   4.674
50405W        W15225  38.974  34.129  14.198
50406W        W15226   5.390  20.657   0.802
50407W        W15227   7.664  27.209   3.046
50408W        W15228  20.034  32.652   1.007
50409W        W15229  19.900   0.995  11.083
50410W        W15230  35.912  42.027  13.725
50411W        W15231  27.723  20.732  13.090
50412W        W15232  24.103   9.314   3.080
50413W        W15233  43.713  27.246   1.778
50414W        W15234   9.121  35.854   3.290
50415W        W15235   1.277   8.862  12.827
50416W        W15236  28.485  20.612  12.551
50417W        W15237  16.589  11.123   4.285
50418W        W15238  29.130   5.705  14.480
50419W        W15239  25.361  33.880   0.839
50420W        W15240   9.890  17.752   0.192
50421W        W15241   5.408  43.256  11.215
50422W        W15242  24.556   4.989  13.992
50423W        W15243  29.583  25.755  14.810
50424W        W15244  25.928   9.141  13.493
50425W        W15245  25.476  42.764  14.376
50426W        W15246  41.119  20.239   0.983
50427W        W15247  31.557   9.732   1.414
50428W        W15248  39.094  22.503  11.041
50429W        W15249  42.489   9.114   4.523
50430W        W15250   2.948  13.151  14.852
50431W        W15251  19.057  24.319  12.132
50432W        W15252  39.125  19.131  11.514
50433W        W15253  23.193  34.542   5.501
50434W        W15254   9.344  13.836  10.547
50435W        W15255  44.081  39.530  13.970
50436W        W15256  32.367  15.761   1.679
50437W        W15257  24.260   9.197  14.485
50438W        W15258  13.545   7.180  12.665
50439W        W15259  40.222  44.444   9.956
50440W        W15260   1.447  39.367   3.315
50441W        W15261  31.967  14.299   0.507
50442W        W15262   0.011  15.558   4.631
50443W        W15263  37.769  29.205   2.869
50444W        W15264   4.208   2.234   0.792
50445W        W15265  17.077  34.665  11.138
50446W        W15266  22.221  43.406   2.431
50447W        W15267  13.578  23.418   1.761
50448W        W15268  38.965  41.967   3.206
50449W        W15269  25.249  22.615   1.535
50450W        W15270  39.023  13.619   2.816
50451W        W15271   0.253  41.868   2.748
50452W        W15272   5.626  32.348  14.364
50453W        W15273  37.670  26.045  11.620
50454W        W15274  38.575  34.810   4.941
50455W        W15275  36.347  15.133  11.460
50456W        W15276   8.446  31.479  10.588
50457W        W15277  17.245  21.089   0.317
50458W        W15278  13.201  42.998  14.009
50459W        W15279  29.647  23.659  12.905
50460W        W15280  26.917   5.871   4.262
50461W        W15281  43.967   3.756   2.204
50462W        W15282  17.552  35.012  11.939
50463W        W15283  28.516  16.307   0.897
50464W        W15284  44.311   4.793   2.778
50465W        W15285  23.254  11.051   3.723
50466W        W15286  38.496  43.117  14.018
50467W        W15287  32.031  15.118  13.422
50468W        W15288  34.746  40.229   4.055
50469W        W15289  34.795   3.382   3.246
50470W        W15290  35.420  25.131  12.937
50471W        W15291  28.645  12.009   3.168
50472W        W15292   0.414   8.233  12.168
50473W        W15293  31.199   7.960   0.918
50474W        W15294   3.318   8.676  13.482
50475W        W15295   8.102  21.792   4.245
50476W        W15296  12.305  24.331  13.471
50477W        W15297   5.956  19.677  14.584
50478W        W15298  27.703  17.322  11.963
50479W        W15299  42.498  39.864   0.307
50480W        W15300   6.240  28.716  10.852
50481W        W15301  44.291  23.005   2.470
50482W        W15302  44.254  14.023  12.376
50483W        W15303   3.341  32.183  11.419
50484W        W15304  43.995  25.472  12.041
50485W        W15305   5.345  27.558   1.775
50486W        W15306  25.630  12.114  11.716
50487W        W15307  39.941   2.048  14.000
50488W        W15308  24.946  27.805   2.697
50489W        W15309  44.329  26.547  13.486
50490W        W15310  36.456   2.483  12.424
50491W        W15311  11.123  21.071   0.993
50492W        W15312  29.242  31.019  12.385
50493W        W15313  17.208  39.046  11.119
50494W        W15314  13.268   0.934   2.613
50495W        W15315  44.869  20.269  12.502
50496W        W15316  29.722  40.001   3.755
50497W        W15317  18.056   3.725   2.367
50498W        W15318  17.530  41.656   5.092
50499W        W15319  44.198  26.975  14.378
50500W        W15320  15.857  41.788  14.369
50501W        W15321  13.676   1.841   3.266
50502W        W15322   3.905  36.648   2.567
50503W        W15323  22.839  35.983   4.391
50504W        W15324  16.178  41.981   4.551
50505W        W15325  21.183  25.380  11.548
50506W        W15326   8.047  15.859   2.050
50507W        W15327  25.709  16.358   4.688
50508W        W15328  41.075  17.152   4.218
50509W        W15329  44.290  32.188  10.684
50510W        W15330  11.410  25.136  12.917
50511W        W15331  31.404  37.151   4.189
50512W        W15332  13.686   8.027   0.526
50513W        W15333  39.994  40.478  11.110
50514W        W15334  17.254  23.386  12.087
50515W        W15335  11.395  17.726  12.347
50516W        W15336  22.771  32.319   0.021
50517W        W15337   1.205  10.785  12.536
50518W        W15338  20.172  39.992   0.475
50519W        W15339  26.493  26.512   4.556
50520W        W15340  11.320   5.990  13.002
50521W        W15341   5.744  11.425  11.708
50522W        W15342   1.988  24.179  10.835
50523W        W15343  13.938  40.115   3.789
50524W        W15344  10.675  43.002  11.955
50525W        W15345  37.327  16.768  13.825
50526W        W15346  26.924  35.773  12.376
50527W        W15347  12.805  10.275   2.322
50528W        W15348  21.794  33.039   4.565
50529W        W15349  24.055  32.063  10.330
50530W        W15350  18.676   5.106  13.951
50531W        W15351  28.200  21.552   4.644
50532W        W15352  41.813  41.778   2.696
50533W        W15353   0.702  30.569  13.103
50534W        W15354  16.138  27.998  10.531
50535W        W15355   3.273  22.293   1.453
50536W        W15356  37.722  43.742  14.106
50537W        W15357  43.478  22.744  13.546
50538W        W15358  28.335  39.445  10.096
50539W        W15359  15.494  17.100  13.417
50540W        W15360  37.585  44.632  12.945
50541W        W15361  44.598  30.577  14.011
50542W        W15362  33.219  24.325   3.561
50543W        W15363  28.193  29.897  14.609
50544W        W15364   5.988   7.839   1.686
50545W        W15365  12.566   4.792  11.129
50546W        W15366  33.136   6.925   1.066
50547W        W15367  13.001  41.304  14.679
50548W        W15368   9.158   4.732   4.492
50549W        W15369   6.794  22.310   2.865
50550W        W15370   0.518  32.976   4.727
50551W        W15371   3.126  18.426   4.245
50552W        W15372   0.677  15.165  10.508
50553W        W15373  25.037  17.804   0.014
50554W        W15374  42.779  36.012  14.563
50555W        W15375  36.116  28.053  13.984
50556W        W15376   2.912  18.033   4.506
50557W        W15377   8.754  11.764  11.043
50558W        W15378  14.679  17.562   2.676
50559W        W15379  41.946  35.658   3.839
50560W        W15380  21.617   7.273   0.819
50561W        W15381  19.658  29.578  12.624
50562W        W15382   6.481  22.281   1.003
50563W        W15383  43.922  17.237  12.147
50564W        W15384   4.158  25.721   1.609
50565W        W15385  41.766  13.136   3.068
50566W        W15386  36.047  40.782   4.597
50567W        W15387  35.095  20.017   2.658
50568W        W15388  13.070  28.455   2.112
50569W        W15389   4.928  28.749  13.360
50570W        W15390  31.028  36.577  10.677
50571W        W15391  13.362  39.360  13.342
50572W        W15392  31.365   4.339  11.517
50573W        W15393  35.023  11.922  12.916
50574W        W15394  12.690  14.829  11.551
50575W        W15395  36.968   1.741   1.187
50576W        W15396  13.036  41.948  13.813
50577W        W15397  18.594   4.148  11.921
50578W        W15398   1.765  27.315  14.460
50579W        W15399  26.426  28.995  12.024
50580W        W15400   8.537  27.275  14.613
50581W        W15401  18.775   4.880  11.400
50582W        W15402  23.280   3.245   2.164
50583W        W15403  41.901  38.497  11.250
50584W        W15404  38.581  40.769   1.867
50585W        W15405  27.166   9.078   1.446
50586W        W15406  24.737  24.600   1.680
50587W        W15407  36.854  17.608  13.824
50588W        W15408  29.032  14.080  11.649
50589W        W15409  15.511   1.296  13.281
50590W        W15410   0.204  43.926  10.451
50591W        W15411  34.897  21.210   0.932
50592W        W15412  29.022  22.075  13.534
50593W        W15413   7.732  33.003   2.471
50594W        W15414   7.240  36.002  11.765
50595W        W15415   4.760   1.475  14.878
50596W        W15416   7.383  18.735  11.745
50597W        W15417  37.753  32.098   4.144
50598W        W15418  18.544  11.662  14.506
50599W        W15419  23.383   6.678   0.847
50600W        W15420   8.113  21.784   2.445
50601W        W15421  15.414   8.638  14.466
50602W        W15422  38.682   2.920   4.769
50603W        W15423  38.142  33.494  13.199
50604W        W15424  18.310  32.850   2.451
50605W        W15425  25.189   6.371   4.069
50606W        W15426  40.096  16.030   1.757
50607W        W15427  11.653  27.844  12.048
50608W        W15428   1.916   6.469   0.362
50609W        W15429  13.395   5.017  11.893
50610W        W15430  42.281  44.922   3.250
50611W        W15431   8.812  44.775   2.785
50612W        W15432  34.060  17.392  13.952
50613W        W15433  26.549  31.132   0.161
50614W        W15434  22.873   6.655   4.226
50615W        W15435  39.166   4.509   5.064
50616W        W15436  42.187  12.304   4.627
50617W        W15437  44.518  22.216   4.176
50618W        W15438  29.607  28.722  11.043
50619W        W15439  11.024   3.580  11.056
50620W        W15440   9.143  34.815   3.289
50621W        W15441  22.225   9.350  12.335
50622W        W15442   2.908  21.266   0.851
50623W        W15443  40.710  12.665  12.825
50624W        W15444   0.798  14.734   4.195
50625W        W15445   2.017   8.673  14.556
50626W        W15446  23.644  33.709   0.270
50627W        W15447   9.987  43.386  10.663
50628W        W15448  27.368  33.865  14.413
50629W        W15449   4.894  33.092   0.869
50630W        W15450  43.528   9.921  13.293
50631W        W15451  33.012  28.574   3.579
50632W        W15452   8.732  36.522   1.328
50633W        W15453  26.755  41.850  13.036
50634W        W15454  24.650  15.146   0.831
50635W        W15455  41.518  31.814   0.290
50636W        W15456  22.286  20.187   3.686
50637W        W15457  43.969  16.532   2.850
50638W        W15458  41.034   7.376   2.274
50639W        W15459   6.172  34.799  13.411
50640W        W15460   4.129  37.036   2.282
50641W        W15461  30.994   0.068  12.792
50642W        W15462  18.345   5.650  13.431
50643W        W15463  12.818  41.438   0.824
50644W        W15464  37.885  36.070  12.503
50645W        W15465  11.909  25.658   4.158
50646W        W15466   4.175  20.593   0.266
50647W        W15467  19.010  41.917  14.894
50648W        W15468  36.338  42.239  11.149
50649W        W15469   6.703   4.969   2.710
50650W        W15470  43.877   9.412   4.426
50651W        W15471   0.797  25.242   1.503
50652W        W15472   0.940  38.041   0.815
50653W        W15473   8.436  26.645  13.353
50654W        W15474  14.783   5.157   0.956
50655W        W15475   8.731  13.750  13.373
50656W        W15476   0.414  40.810   3.736
50657W        W15477  15.828  27.606   0.359
50658W        W15478  15.552   3.835  11.473
50659W        W15479  26.120   3.901  11.343
50660W        W15480  38.091  32.675   2.158
50661W        W15481  41.066  34.045   4.534
50662W        W15482  30.715  31.995   4.514
50663W        W15483  43.735  20.058  13.952
50664W        W15484  43.265  22.204   1.324
50665W        W15485  30.488   5.833  11.340
50666W        W15486  27.508  38.566   4.056
50667W        W15487   5.464  12.132   2.738
50668W        W15488  39.490   8.530  11.730
50669W        W15489  26.221   8.745  11.166
50670W        W15490  15.624  22.226   3.403
50671W        W15491  35.313  42.756  11.609
50672W        W15492  19.745   6.456  13.436
50673W        W15493  30.984  30.720   1.797
50674W        W15494  16.986  34.170  12.853
50675W        W15495   7.463   6.159   2.402
50676W        W15496  42.240  34.211  12.200
50677W        W15497   8.851   1.641   1.507
50678W        W15498  17.552   1.006  12.948
50679W        W15499  32.007   0.777  12.259
50680W        W15500  16.669  38.449   4.090
50681W        W15501  38.454  11.374  14.933
50682W        W15502  25.681  14.537   4.766
50683W        W15503   4.777  36.001   1.272
50684W        W15504  19.564  14.894   2.149
50685W        W15505   4.850  29.686   1.365
50686W        W15506  33.005  22.928   5.449
50687W        W15507  22.996  10.237   3.233
50688W        W15508  30.975  42.240  11.087
50689W        W15509  10.603  26.630   4.132
50690W        W15510  27.543   9.960   1.069
50691W        W15511  23.709  25.161   0.644
50692W        W15512   0.799  36.589  14.945
50693W        W15513  34.023  44.065   2.290
50694W        W15514   0.780   6.376   3.849
50695W        W15515   2.755  16.127  14.868
50696W        W15516  30.951   7.857   4.694
50697W        W15517  13.414  13.362   2.793
50698W        W15518  14.809  39.939  11.043
50699W        W15519  25.888  14.818   1.241
50700W        W15520  27.959  42.132  10.971
50701W        W15521  37.409  18.265  13.814
50702W        W15522  12.287  15.151  14.126
50703W        W15523  34.035  39.312   1.996
50704W        W15524  15.197   0.706   1.820
50705W        W15525  14.172  41.947   2.984
50706W        W15526  38.238  22.170  13.168
50707W        W15527  35.567  25.511   4.470
50708W        W15528  43.449  25.153   1.744
50709W        W15529  22.341   0.454   1.069
50710W        W15530  43.563  30.456   2.692
50711W        W15531  32.531  20.152  13.258
50712W        W15532  14.282  31.753   2.222
50713W        W15533  32.019  12.078   0.345
50714W        W15534  16.606  18.549  13.179
50715W        W15535  29.119   3.223   2.270
50716W        W15536  38.385   4.671   3.755
50717W        W15537   2.448  15.814   2.353
50718W        W15538  20.341  40.528  14.051
50719W        W15539  23.674  11.338   3.709
50720W        W15540  10.156  19.721   3.368
50721W        W15541  26.899   3.318  13.928
50722W        W15542  32.233  16.143   3.228
50723W        W15543   7.753  12.622  14.402
50724W        W15544  26.683  34.567  14.223
50725W        W15545  19.719   0.932   3.867
50726W        W15546  10.130  30.173  10.794
50727W        W15547  40.192   8.780   4.538
50728W        W15548  11.639  27.529   3.988
50729W        W15549  21.063  21.156  10.889
50730W        W15550  32.578  27.421  14.291
50731W        W15551  35.348  42.655   4.455
50732W        W15552  26.141  36.972   4.560
50733W        W15553  42.186  36.041   3.144
50734W        W15554  23.120   4.225  14.750
50735W        W15555   2.687  35.289  12.054
50736W        W15556   5.994  28.576   4.128
50737W        W15557  44.716  43.304   3.828
50738W        W15558   9.126  27.165  13.364
50739W        W15559  39.629  44.945   2.830
50740W        W15560  11.717  26.079   2.557
50741W        W15561   6.939  30.909  11.997
50742W        W15562  22.408  21.569  13.835
50743W        W15563  43.346  44.054   2.697
50744W        W15564  34.418  13.897  14.890
50745W        W15565  30.601  17.060   2.776
50746W        W15566  44.309   4.077   4.303
50747W        W15567  34.184  26.483  13.200
50748W        W15568  36.994  21.255   2.253
50749W        W15569  24.719  28.658  12.961
50750W        W15570   4.711   5.431   4.550
50751W        W15571  10.739  44.671   0.831
50752W        W15572  32.493   9.795   0.477
50753W        W15573  22.667   3.815  11.597
50754W        W15574   7.323  25.498  13.220
50755W        W15575   2.742  44.626  11.566
50756W        W15576  32.589  32.454  11.868
50757W        W15577  41.357  19.353   1.798
50758W        W15578   9.365   8.796   1.236
50759W        W15579   8.531  39.854  10.956
50760W        W15580  37.748  21.986   0.015
50761W        W15581  18.235   3.488  13.428
50762W        W15582  29.161  34.518   2.899
50763W        W15583  34.449  26.172  13.879
50764W        W15584  43.636  26.998   4.230
50765W        W15585  30.002  43.768  11.908
50766W        W15586  13.547  32.505   3.081
50767W        W15587   1.274  44.330  11.073
50768W        W15588  44.729   5.095  13.145
50769W        W15589   5.306  43.817  10.689
50770W        W15590   3.398  26.098  10.157
50771W        W15591   4.322  35.950   3.550
50772W        W15592   8.568  36.380  13.837
50773W        W15593  41.054  12.450  11.934
50774W        W15594  20.773   2.283  13.630
50775W        W15595  28.022  26.222   3.258
50776W        W15596  13.741   2.505   2.813
50777W        W15597  15.532   6.795  12.628
50778W        W15598   6.610  34.536  13.253
50779W        W15599  44.639  21.233   3.143
50780W        W15600  38.390  17.114  14.573
50781W        W15601   6.902  39.025  14.830
50782W        W15602  31.199  15.238   0.462
50783W        W15603   8.008  44.054   1.373
50784W        W15604  41.960  37.019  13.973
50785W        W15605  13.417   7.237   0.072
50786W        W15606  13.568  22.663   0.862
50787W        W15607  16.424  32.461   3.641
50788W        W15608  22.193  37.812  12.004
50789W        W15609   8.036   3.816  13.942
50790W        W15610  35.013  40.067   0.800
50791W        W15611  12.214   3.000   4.215
50792W        W15612  26.326  30.714   0.962
50793W        W15613  33.932   9.922   4.851
50794W        W15614  12.983  28.245   5.454
50795W        W15615  14.795   1.767  12.913
50796W        W15616  25.484  44.775   1.808
50797W        W15617  18.567  43.324   3.081
50798W        W15618  32.933   8.093  10.730
50799W        W15619  41.058  13.366   4.609
50800W        W15620   9.205  27.502   4.552
50801W        W15621  41.009   8.744  10.698
50802W        W15622  42.907  10.206  13.385
50803W        W15623   8.069  39.462  13.411
50804W        W15624  11.707  23.248   2.847
50805W        W15625  36.348  27.149   3.279
50806W        W15626  25.094  41.481  10.905
50807W        W15627  33.749  13.381   0.727
50808W        W15628  12.263  29.085  14.137
50809W        W15629  18.285  10.128  14.911
50810W        W15630  40.355  44.542   1.819
50811W        W15631   8.773  15.719  11.496
50812W        W15632  42.988  42.439   0.314
50813W        W15633   1.372  20.211   4.744
50814W        W15634  34.434  22.017   3.696
50815W        W15635  20.624  23.949  11.094
50816W        W15636  16.657   4.029   0.445
50817W        W15637  34.065  40.840   0.194
50818W        W15638  18.185  16.379   4.536
50819W        W15639  23.898  23.570  13.938
50820W        W15640  11.603  34.574   0.053
50821W        W15641  24.001  24.569   3.618
50822W        W15642  35.073  20.291   4.528
50823W        W15643   2.816   7.791   0.974
50824W        W15644  14.765   8.401   3.554
50825W        W15645  38.112  41.958   1.885
50826W        W15646  29.222  13.829  12.091
50827W        W15647  39.940  29.617  10.813
50828W        W15648  41.986  36.250   0.854
50829W        W15649   3.788   0.722   3.651
50830W        W15650  28.425   0.526  11.719
50831W        W15651  44.812  34.130   0.897
50832W        W15652   5.348   9.695   0.364
50833W        W15653  21.697  23.430  13.308
50834W        W15654  26.884  38.274  14.209
50835W        W15655  36.125  11.275  14.911
50836W        W15656  15.596  18.519  11.626
50837W        W15657  33.796  11.492   4.380
50838W        W15658  34.590  17.552   1.730
50839W        W15659   2.276  27.529  12.595
50840W        W15660  40.001  34.837   4.711
50841W        W15661  29.411   7.946  14.311
50842W        W15662  17.590  13.649   3.102
50843W        W15663  41.255   0.283  14.866
50844W        W15664   6.891  43.396   4.612
50845W        W15665   4.988  44.296   0.834
50846W        W15666  12.662   5.707   2.143
50847W        W15667  27.979  30.589  12.448
50848W        W15668  44.978  34.835  13.070
50849W        W15669   2.436  23.106   1.562
50850W        W15670  32.995  26.194  14.833
50851W        W15671  11.981  13.666  10.659
50852W        W15672  36.555  25.523   4.155
50853W        W15673  36.844  13.693   0.008
50854W        W15674   9.605  34.987   2.394
50855W        W15675  41.645  36.690   5.118
50856W        W15676  14.946  15.712   3.270
50857W        W15677  34.101   3.312  11.520
50858W        W15678   4.802  22.625  11.153
50859W        W15679  33.310  11.824  14.741
50860W        W15680  25.715   6.706   0.337
50861W        W15681  15.127  24.186  13.445
50862W        W15682  17.349   2.166   4.784
50863W        W15683  22.158   7.772   2.893
50864W        W15684  40.440  35.898   5.027
50865W        W15685  28.860  38.451  14.127
50866W        W15686  21.611  11.702   5.073
50867W        W15687  17.828  23.938   4.588
50868W        W15688  29.931  23.604  12.469
50869W        W15689  40.205  29.566  14.287
50870W        W15690  17.934  19.568   3.553
50871W        W15691  34.595  42.987   0.757
50872W        W15692  25.818  19.070   3.106
50873W        W15693   2.283  12.528   4.577
50874W        W15694  35.468  30.787  14.181
50875W        W15695  15.244  25.020   2.844
50876W        W15696  44.164  39.957   4.505
50877W        W15697  29.197   7.728   2.394
50878W        W15698  22.420  17.781   0.213
50879W        W15699   4.734  37.474  12.512
50880W        W15700   1.877  22.551  13.586
50881W        W15701  32.055  38.386   2.220
50882W        W15702  17.269  27.228  14.416
50883W        W15703  33.512   4.672   1.237
50884W        W15704  23.074  15.599   2.180
50885W        W15705  20.070  17.645   3.201
50886W        W15706  20.763  37.679   0.799
50887W        W15707  30.157   6.221   0.330
50888W        W15708  21.013   2.368  10.552
50889W        W15709  22.077  32.498  10.967
50890W        W15710  17.980  33.495   0.948
50891W        W15711   0.612  17.172  10.786
50892W        W15712   0.025  29.595   3.283
50893W        W15713  39.430  17.529  11.609
50894W        W15714   1.829  17.151  13.879
50895W        W15715  28.644  32.128   4.956
50896W        W15716  43.795  11.799   2.305
50897W        W15717  39.523  40.777  12.442
50898W        W15718  41.449  32.727  11.596
50899W        W15719  11.132   0.835   4.723
50900W        W15720  25.249  28.189  13.073
50901W        W15721   1.179  42.609  11.711
50902W        W15722  28.989  25.159   1.450
50903W        W15723  22.606  40.067  11.992
50904W        W15724   1.338  19.147  10.297
50905W        W15725   8.620   8.766  12.397
50906W        W15726  22.619  37.736   4.196
50907W        W15727  20.792   1.248  12.126
50908W        W15728  37.406  14.839   3.729
50909W        W15729  10.617  17.698  12.587
50910W        W15730   4.760  32.254   2.673
50911W        W15731  14.162  38.889  14.333
50912W        W15732  36.111   0.644  14.818
50913W        W15733  19.128  32.902   1.971
50914W        W15734  20.631  38.693   4.407
50915W        W15735  34.882  19.529  13.063
50916W        W15736   2.659  41.949  14.138
50917W        W15737  20.910  34.874   2.447
50918W        W15738   4.678  32.684   2.385
50919W        W15739   2.805  40.339   2.087
50920W        W15740  18.316  39.858  12.964
50921W        W15741  29.768  32.069   3.610
50922W        W15742  31.162   1.459   1.034
50923W        W15743  18.031  17.259   5.072
50924W        W15744  36.182  26.111   4.176
50925W        W15745  31.933   4.203  10.727
50926W        W15746  35.071  18.515   4.101
50927W        W15747  31.175  10.805  14.096
50928W        W15748  35.977  21.857   2.750
50929W        W15749  16.956  42.853   3.733
50930W        W15750  16.578  44.377   0.394
50931W        W15751   9.766  29.011  13.467
50932W        W15752   1.900  36.223  12.376
50933W        W15753   9.259  37.765  11.845
50934W        W15754   8.430   8.271   4.608
50935W        W15755  27.453   9.865   0.520
50936W        W15756  29.193   7.219  13.109
50937W        W15757  11.284  37.694   1.403
50938W        W15758  10.678   2.221  12.016
50939W        W15759  36.648  20.530   3.174
50940W        W15760  12.199   2.834  11.649
50941W        W15761  21.615  22.003  12.110
50942W        W15762  28.474   8.615  13.276
50943W        W15763  34.017  19.047   3.046
50944W        W15764   8.431  35.748  14.767
50945W        W15765  12.655  19.243  12.080
50946W        W15766  36.808  28.521  12.668
50947W        W15767  26.433  25.616   0.510
50948W        W15768  23.073  35.002   4.189
50949W        W15769   5.415  29.442  14.003
50950W        W15770  28.505  18.619  12.806
50951W        W15771  41.974  20.988   1.415
50952W        W15772  40.340  31.567  13.119
50953W        W15773  12.155  12.900  11.210
50954W        W15774  44.739  41.704  11.259
50955W        W15775   9.759  43.936  13.064
50956W        W15776   0.893   4.727   1.143
50957W        W15777  13.712   6.981   0.405
50958W        W15778  34.832  10.834   4.325
50959W        W15779   5.778  27.964   2.968
50960W        W15780  40.482   3.088   0.544
50961W        W15781  17.899  39.418  10.586
50962W        W15782  39.315   2.337  14.720
50963W        W15783  13.021  24.438  12.989
50964W        W15784   2.486  32.643  13.169
50965W        W15785  41.045  28.562   2.881
50966W        W15786   2.693  22.114   2.856
50967W        W15787  41.062  17.460  13.428
50968W        W15788  33.059  23.896   0.935
50969W        W15789  33.735  18.874   2.396
50970W        W15790  41.942  19.624   0.877
50971W        W15791  20.525   0.728  12.035
50972W        W15792  34.046  33.123  13.912
50973W        W15793  16.624  38.869   1.078
50974W        W15794   5.363   1.912  11.674
50975W        W15795  23.930  26.724  10.512
50976W        W15796  17.544  33.042   1.324
50977W        W15797  20.263  13.642  11.454
50978W        W15798  12.913  12.440   3.789
50979W        W15799  30.473   6.707  11.086
50980W        W15800  14.455  10.670  11.031
50981W        W15801   9.316   3.649  13.311
50982W        W15802  23.062  41.793  12.014
50983W        W15803  22.255  16.145   2.333
50984W        W15804  22.214  25.708   5.038
50985W        W15805  14.272  44.276  12.011
50986W        W15806   9.338  43.096  11.629
50987W        W15807  37.436  33.169  11.590
50988W        W15808  11.408  14.322   0.930
50989W        W15809  44.243  12.371   1.220
50990W        W15810   2.769  20.822  11.619
50991W        W15811  14.384  33.877  11.484
50992W        W15812  26.969  30.910   2.247
50993W        W15813  27.431  11.307  12.986
50994W        W15814   5.429   5.460  13.261
50995W        W15815   4.419   4.439  11.475
50996W        W15816  17.519  27.696  14.988
50997W        W15817  19.103  14.831  13.304
50998W        W15818  25.506  32.691  11.842
50999W        W15819  17.831  24.928  11.605
51000W        W15820  33.470  24.065   2.160
51001W        W15821  29.879  18.968   4.441
51002W        W15822   6.938  40.027   4.455
51003W        W15823  31.435   5.416  14.435
51004W        W15824  38.836  35.924   3.096
51005W        W15825   5.781   9.371   3.128
51006W        W15826  11.619  30.183   2.320
51007W        W15827   7.986  35.736  11.150
51008W        W15828  38.255  20.688   0.271
51009W        W15829   5.791  33.659   0.523
51010W        W15830  18.697  36.854  13.877
51011W        W15831  11.076  32.323   1.428
51012W        W15832  39.440  42.978   3.674
51013W        W15833  31.169  34.707   2.558
51014W        W15834  44.341  43.333   4.626
51015W        W15835  39.646  28.987   4.178
51016W        W15836  41.634  41.499  13.951
51017W        W15837  40.559  27.627  10.566
51018W        W15838  33.506  19.152   2.779
51019W        W15839  11.914   4.984  11.650
51020W        W15840  13.101   3.118   4.948
51021W        W15841  32.535  39.792  11.094
51022W        W15842   6.596  37.253   5.216
51023W        W15843  13.416  24.114   1.016
51024W        W15844   5.371  11.627   3.773
51025W        W15845  11.253  14.278  13.965
51026W        W15846  34.456   5.494  12.542
51027W        W15847  28.694   9.964   4.429
51028W        W15848  20.206   1.074   3.664
51029W        W15849   0.381  31.593   4.158
51030W        W15850   8.341  29.916  13.967
51031W        W15851   4.237  36.423   0.637
51032W        W15852  20.136  29.974  14.868
51033W        W15853  43.268  18.809   1.910
51034W        W15854  12.138   3.232   1.821
51035W        W15855  43.373  22.640  12.138
51036W        W15856  24.458  10.256  12.518
51037W        W15857  33.470   4.823   3.399
51038W        W15858  21.012   2.975  11.591
51039W        W15859  19.368  16.338   3.929
51040W        W15860  23.086  15.073  11.514
51041W        W15861   8.425  15.710   2.835
51042W        W15862  18.857   1.224   4.426
51043W        W15863   0.660  21.110   4.068
51044W        W15864  17.643  26.955  10.737
51045W        W15865  18.565  23.469  13.486
51046W        W15866  21.052   3.454  11.471
51047W        W15867  27.510  34.899  14.974
51048W        W15868  28.147  38.346  12.343
51049W        W15869   3.189   0.972  11.889
51050W        W15870   5.059  44.658  14.537
51051W        W15871   9.862  30.039   5.074
51052W        W15872   3.285  44.355  13.961
51053W        W15873  15.177  30.718   4.236
51054W        W15874  28.141  23.699  14.072
51055W        W15875   7.214   4.535   1.974
51056W        W15876   5.509  14.135   0.732
51057W        W15877  21.680  33.847   4.364
51058W        W15878  24.536  18.350   1.786
51059W        W15879  41.804  11.804   1.241
51060W        W15880  32.376  30.454   2.931
51061W        W15881  27.251  24.628  13.013
51062W        W15882  21.776  41.619   1.753
51063W        W15883  44.093  40.031  14.061
51064W        W15884  16.061  22.666  10.880
51065W        W15885  28.492  19.292   2.581
51066W        W15886   8.766   6.750   2.413
51067W        W15887  29.413  29.612  11.716
51068W        W15888  38.883   5.737  12.092
51069W        W15889  33.846  25.889  14.936
51070W        W15890   9.185  44.046  14.428
51071W        W15891  27.766  35.031   1.892
51072W        W15892  37.403  24.129   0.223
51073W        W15893  19.530  36.457  14.498
51074W        W15894   0.738   6.447   4.361
51075W        W15895  15.338  19.764  11.082
51076W        W15896   5.089  26.125  10.465
51077W        W15897  14.019  11.830   4.953
51078W        W15898  15.848  14.119   2.426
51079W        W15899  18.397  16.660   1.271
51080W        W15900   5.310   5.497  10.362
51081W        W15901  33.074   9.597   2.234
51082W        W15902   8.205  26.781  11.199
51083W        W15903  33.459  34.625  12.974
51084W        W15904  10.188  29.761  13.578
51085W        W15905  12.394  26.045  10.938
51086W        W15906  26.499  37.779   2.229
51087W        W15907  38.048  35.920   1.290
51088W        W15908  23.395  30.316   1.274
51089W        W15909  27.086   8.465  13.040
51090W        W15910   7.319  16.546   4.403
51091W        W15911  15.824  39.875   4.150
51092W        W15912  26.219  29.642   1.895
51093W        W15913  23.266  23.519  10.743
51094W        W15914  23.012  12.108   1.901
51095W        W15915  27.471  39.339   2.127
51096W        W15916   1.950   2.841  14.420
51097W        W15917  17.251   7.613   4.278
51098W        W15918  37.097   0.225  11.655
51099W        W15919  27.215  24.386   4.129
51100W        W15920  11.594  34.399  11.175
51101W        W15921  25.463  44.798   0.872
51102W        W15922   7.493  16.323  13.857
51103W        W15923  12.563  12.310   3.439
51104W        W15924   1.275  12.762   3.813
51105W        W15925  18.767  34.031  11.638
51106W        W15926   5.987  25.539  12.415
51107W        W15927  12.742  24.487  10.776
51108W        W15928   7.234   1.386   3.198
51109W        W15929  24.401  21.687   4.510
51110W        W15930  11.826  14.383   2.744
51111W        W15931  19.185  33.064   0.455
51112W        W15932  17.838   1.993   0.351
51113W        W15933   4.978  42.774   5.040
51114W        W15934   4.024   9.737  13.974
51115W        W15935   0.589  14.733  13.990
51116W        W15936   7.769  13.934   0.928
51117W        W15937  15.062   5.957  11.987
51118W        W15938  13.589  41.949  12.968
51119W        W15939  40.398   0.478  14.398
51120W        W15940  35.929  22.730  14.334
51121W        W15941  29.895  31.058  14.841
51122W        W15942  32.075  39.557  13.120
51123W        W15943  44.322  12.132   3.159
51124W        W15944   4.295  44.903  14.318
51125W        W15945  27.008   8.172   1.218
51126W        W15946  13.163  44.194  10.907
51127W        W15947  20.160   2.800   1.783
51128W        W15948  40.419  44.696  13.863
51129W        W15949  38.564  25.238   2.456
51130W        W15950  19.843  38.499  14.311
51131W        W15951  13.567  33.375  13.419
51132W        W15952   2.178   7.657   3.228
51133W        W15953  15.143  35.912   4.183
51134W        W15954  16.969  22.961  12.898
51135W        W15955  36.849   5.348  12.089
51136W        W15956  27.714   7.350   1.770
51137W        W15957  22.090  21.433   1.232
51138W        W15958   7.980  36.897   3.947
51139W        W15959  27.929  37.953   3.641
51140W        W15960  12.866  18.673  14.864
51141W        W15961   4.408  22.954  11.134
51142W        W15962  22.818  12.525  12.520
51143W        W15963   8.349  33.997   4.197
51144W        W15964   5.887  13.254  12.844
51145W        W15965  17.298  14.390  13.119
51146W        W15966  42.351  39.606   0.812
51147W        W15967  20.174   5.684   0.421
51148W        W15968  23.587  27.060  12.234
51149W        W15969  38.064  37.662  14.418
51150W        W15970  39.644  37.623   2.108
51151W        W15971  37.050  30.245   4.320
51152W        W15972  38.352  33.002   1.281
51153W        W15973  43.933  42.695  12.813
51154W        W15974  26.092  33.064  10.613
51155W        W15975   2.646   4.446   1.222
51156W        W15976  19.821  13.608  10.541
51157W        W15977  20.988  19.047  10.803
51158W        W15978  40.556  35.828  13.012
51159W        W15979  29.954  23.896   1.869
51160W        W15980  11.474  18.789   0.248
51161W        W15981   6.382  14.093   0.727
51162W        W15982  36.438  32.093   3.311
51163W        W15983  11.710  33.489   0.250
51164W        W15984  28.006  34.805  12.998
51165W        W15985  34.195  17.453   0.444
51166W        W15986   4.292   5.386   0.258
51167W        W15987  33.804  27.080   4.461
51168W        W15988  36.098  18.299   2.431
51169W        W15989  13.578  20.701  11.691
51170W        W15990   6.344  32.859   2.267
51171W        W15991   3.793   9.774   1.997
51172W        W15992  38.600  16.870  13.748
51173W        W15993   3.046  16.158   3.449
51174W        W15994  24.493   3.755   2.688
51175W        W15995  43.246  21.748  14.784
51176W        W15996  21.057  42.219   4.581
51177W        W15997  15.249  25.377   3.316
51178W        W15998  18.556  29.590   3.268
51179W        W15999   1.722  36.934  10.496
51180W        W16000  27.486  36.208  13.806
51181W        W16001  44.896   2.893  12.483
51182W        W16002  31.416  43.578  11.592
51183W        W16003   1.067  12.814   4.296
51184W        W16004  34.934  34.129  14.009
51185W        W16005  35.043  26.717  11.206
51186W        W16006  36.972  26.983   2.169
51187W        W16007  14.819  39.070   1.338
51188W        W16008  41.857  39.352   3.981
51189W        W16009  18.241  30.196  10.747
51190W        W16010  17.318   4.806   0.017
51191W        W16011  24.648  26.918  11.110
51192W        W16012  44.755  42.234  13.531
51193W        W16013  27.868  19.100   4.630
51194W        W16014  32.453   1.569   0.705
51195W        W16015  39.570  38.960  12.217
51196W        W16016   7.285   6.630  10.834
51197W        W16017  34.394  19.532   2.397
51198W        W16018   4.793  20.221   3.792
51199W        W16019  24.971   2.900   3.672
51200W        W16020  30.131  29.380  13.533
51201W        W16021   7.420  40.912   2.797
51202W        W16022  20.521   6.858  12.594
51203W        W16023   8.242  28.576   3.385
51204W        W16024  43.363   9.247   4.905
51205W        W16025  17.259  24.715  10.580
51206W        W16026  36.838  30.588  10.856
51207W        W16027  42.017  11.409   0.284
51208W        W16028  30.894   5.241  11.667
51209W        W16029  10.801   9.240   4.186
51210W        W16030  25.093  28.280   2.787
51211W        W16031  18.022  36.299  13.798
51212W        W16032  33.356  28.437  11.618
51213W        W16033  31.039  40.552   1.331
51214W        W16034  24.084   3.801  12.109
51215W        W16035  34.908  26.390  11.601
51216W        W16036   0.988  19.749  12.833
51217W        W16037  43.427  21.544   0.710
51218W        W16038   5.188   1.384  12.510
51219W        W16039  15.610  21.008  11.176
51220W        W16040   1.846  14.241  11.955
51221W        W16041  42.178  19.741   3.656
51222W        W16042   5.690  36.174  11.202
51223W        W16043  19.759  39.565   3.326
51224W        W16044  40.280   3.468   2.353
51225W        W16045   7.504   9.447  10.815
51226W        W16046   0.498  18.593   3.724
51227W        W16047  14.535  40.473   3.162
51228W        W16048  26.195  19.806   1.357
51229W        W16049  34.375   3.231  12.088
51230W        W16050  18.925   0.761  14.051
51231W        W16051  29.232   4.023   2.577
51232W        W16052  37.585  34.428  13.927
51233W        W16053  11.826  32.922  13.560
51234W        W16054   1.199   4.251  11.838
51235W        W16055  23.492  23.849   4.086
51236W        W16056  23.364   2.278  14.858
51237W        W16057  35.323   8.136  14.825
51238W        W16058  31.853  14.798   0.268
51239W        W16059  24.518  37.376   2.337
51240W        W16060   9.618  41.780   3.800
51241W        W16061  28.034  33.226  13.433
51242W        W16062  42.564  32.524  12.354
51243W        W16063   0.978  10.313  12.521
51244W        W16064   3.766   8.348  11.115
51245W        W16065  44.298   1.525   2.776
51246W        W16066  38.882   1.723  11.511
51247W        W16067  42.587  37.365  11.658
51248W        W16068  21.187  41.796   4.328
51249W        W16069   4.204  28.919   1.382
51250W        W16070  41.566   8.972  13.607
51251W        W16071  24.959  32.977   3.365
51252W        W16072  25.925  37.990   0.816
51253W        W16073  23.698   6.945  13.619
51254W        W16074  43.353   8.724  12.953
51255W        W16075  18.784  11.960  11.877
51256W        W16076   2.689  34.476  10.556
51257W        W16077  32.045  28.941  12.625
51258W        W16078   5.335  18.634   4.336
51259W        W16079  42.561  33.551   0.363
51260W        W16080   3.455  25.766   2.337
51261W        W16081  17.021   4.345  10.573
51262W        W16082  26.452  28.933   0.205
51263W        W16083  35.207  11.759   3.328
51264W        W16084  37.534  28.069  12.106
51265W        W16085  36.571  25.485   1.499
51266W        W16086  42.911  34.001   2.007
51267W        W16087  32.430  28.813  10.832
51268W        W16088  38.761   7.794   3.169
51269W        W16089   1.708  38.857   4.981
51270W        W16090  39.836  38.998   3.129
51271W        W16091  36.568  42.943   4.118
51272W        W16092  44.283   9.729   2.760
51273W        W16093  39.977   2.296  13.492
51274W        W16094  13.738  42.845   0.923
51275W        W16095   1.306  27.139  14.310
51276W        W16096   8.420   2.335  12.230
51277W        W16097  32.042  27.187   1.880
51278W        W16098  27.094  43.643  13.986
51279W        W16099  23.181  40.005   0.700
51280W        W16100  31.584  24.087   2.115
51281W        W16101  20.413  14.157   1.969
51282W        W16102  29.190  13.585  14.425
51283W        W16103   4.054  39.889  14.358
51284W        W16104  15.812   9.889  14.257
51285W        W16105  21.228  13.088  14.400
51286W        W16106  16.656   0.284  12.122
51287W        W16107  22.862  16.347  12.811
51288W        W16108  34.596  13.094   0.444
51289W        W16109  25.666  10.058   2.269
51290W        W16110  15.607  39.559  11.481
51291W        W16111  16.834  19.158   3.037
51292W        W16112  18.219   7.662   2.296
51293W        W16113  25.810  10.637  12.951
51294W        W16114   9.431  16.251   0.404
51295W        W16115   1.186  35.557  12.871
51296W        W16116  15.992  18.118  14.817
51297W        W16117  26.679   6.847   1.367
51298W        W16118  32.848  20.864   3.078
51299W        W16119  10.404   0.847  12.931
51300W        W16120  19.863  44.184  10.461
51301W        W16121  16.618   9.931   0.751
51302W        W16122  24.954  14.299  13.976
51303W        W16123  40.431  21.309   0.678
51304W        W16124  27.016  44.302  12.944
51305W        W16125   4.163  43.279   4.481
51306W        W16126   0.741  43.010  13.891
51307W        W16127   8.159   0.885   4.139
51308W        W16128  42.329  23.289  14.019
51309W        W16129  37.579  31.025  12.622
51310W        W16130  40.542  10.313  11.133
51311W        W16131  22.234  31.160   3.681
51312W        W16132  11.792  37.382   4.593
51313W        W16133  15.586   4.706   4.941
51314W        W16134  27.918  10.968   4.093
51315W        W16135  10.317  11.003  10.643
51316W        W16136  32.905   4.979   1.446
51317W        W16137  36.889   2.585   2.774
51318W        W16138  28.412  30.513   1.437
51319W        W16139   7.630  24.200   3.088
51320W        W16140  34.077  20.273   0.701
51321W        W16141  35.921  43.802  11.789
51322W        W16142  21.526  30.297  12.432
51323W        W16143  16.690   9.373   3.189
51324W        W16144  33.109  16.024   0.850
51325W        W16145  18.007  18.650  10.696
51326W        W16146   3.157  14.230  12.021
51327W        W16147   1.999  43.900   2.776
51328W        W16148  27.936  15.817   0.289
51329W        W16149   3.447  30.016   1.994
51330W        W16150  14.701  42.688  13.362
51331W        W16151  30.489  18.727  12.408
51332W        W16152   2.973  44.323  10.775
51333W        W16153   6.940  29.399  11.999
51334W        W16154  29.139   9.665   0.830
51335W        W16155   1.197  39.500  12.555
51336W        W16156  11.601  30.413   4.598
51337W        W16157  12.966  14.825  10.355
51338W        W16158  10.663   4.907   0.362
51339W        W16159  41.427  13.399   4.969
51340W        W16160   4.811   6.668   0.773
51341W        W16161  21.275  19.512   1.176
51342W        W16162  15.459   2.540  13.790
51343W        W16163  29.700   1.288  13.130
51344W        W16164  21.597  41.618  13.156
51345W        W16165  14.061   2.725  13.039
51346W        W16166  34.460   5.910   0.853
51347W        W16167  24.668  40.593   0.247
51348W        W16168  38.370  21.130  14.435
51349W        W16169  22.758   1.881  10.625
51350W        W16170  21.532  31.671  12.103
51351W        W16171  18.058  33.909  14.767
51352W        W16172  43.213   6.518   3.425
51353W        W16173   6.500  40.890   1.650
51354W        W16174   6.369   3.156   2.212
51355W        W16175   6.961  10.956   1.721
51356W        W16176  26.189  19.988   0.809
51357W        W16177   8.876  13.677  14.861
51358W        W16178  38.556  35.843   1.375
51359W        W16179  25.130  24.748  11.250
51360W        W16180  24.602  40.963  13.242
51361W        W16181  37.366   5.983  11.577
51362W        W16182  23.570  19.384   3.195
51363W        W16183  15.196   3.654   2.217
51364W        W16184   9.420  31.968  14.888
51365W        W16185  10.617  15.183  13.358
51366W        W16186  24.087   4.222  14.868
51367W        W16187  37.348  38.587  14.510
51368W        W16188  17.208  13.218   1.690
51369W        W16189  38.972  33.641   3.900
51370W        W16190  21.868  28.883  13.848
51371W        W16191  24.656  28.529   4.535
51372W        W16192  19.580  33.349   0.288
51373W        W16193  17.986   2.716   2.359
51374W        W16194  10.301   6.369  13.593
51375W        W16195  33.611   7.586   0.777
51376W        W16196  14.751  39.313  13.944
51377W        W16197   2.240  18.030  14.071
51378W        W16198   9.921  40.471   0.711
51379W        W16199   1.346  19.131  11.149
51380W        W16200  23.051  38.536   4.206
51381W        W16201  38.174  32.679   1.654
51382W        W16202  40.252  34.020  10.772
51383W        W16203  24.570  16.960   2.640
51384W        W16204  11.698  40.322   2.774
51385W        W16205  20.775  41.580   2.108
51386W        W16206  36.386  26.208   1.805
51387W        W16207  22.570   9.754  12.396
51388W        W16208  40.502  12.108  13.488
51389W        W16209  30.913  42.992  10.609
51390W        W16210  41.325  13.127  10.610
51391W        W16211   6.785   6.894  10.797
51392W        W16212  44.255  10.729  14.288
51393W        W16213   7.349  18.684  14.435
51394W        W16214  42.848   7.826  12.013
51395W        W16215  31.830   4.277  14.873
51396W        W16216  40.829   7.130   2.691
51397W        W16217  39.893   8.328  12.484
51398W        W16218  31.715  11.275   1.178
51399W        W16219  17.071   1.519   1.186
51400W        W16220  39.574  35.056   1.929
51401W        W16221  29.046  22.165   1.329
51402W        W16222  18.427  12.801   1.825
51403W        W16223  18.975  41.845   2.312
51404W        W16224   1.413   0.922  10.867
51405W        W16225  28.533  16.139  13.602
51406W        W16226  22.091  33.084  13.249
51407W        W16227  24.304   3.380  13.109
51408W        W16228  16.705  19.216  11.938
51409W        W16229  16.839  44.129  11.190
51410W        W16230  37.189  26.676  13.004
51411W        W16231  20.975   0.357  12.640
51412W        W16232  33.059  30.612  14.128
51413W        W16233  18.169  32.351  13.309
51414W        W16234  27.142  31.984  11.664
51415W        W16235  31.989  38.789  10.256
51416W        W16236  31.175  32.534   4.189
51417W        W16237  36.627  19.074  14.687
51418W        W16238  33.430  31.969  11.684
51419W        W16239  19.483  10.431  14.336
51420W        W16240   4.663  31.075   2.662
51421W        W16241   3.424  20.212  11.166
51422W        W16242  17.669  33.681  13.237
51423W        W16243   7.036  31.568  12.466
51424W        W16244  34.304  37.491   4.604
51425W        W16245  40.521  31.171   4.551
51426W        W16246  33.387  42.805   3.608
51427W        W16247  24.524  10.316  13.789
51428W        W16248  22.380  20.639  13.956
51429W        W16249  39.571  12.685  14.488
51430W        W16250   8.005  42.779  12.576
51431W        W16251  31.872   6.244   3.031
51432W        W16252  35.462  11.051   2.119
51433W        W16253  23.006  28.707  14.380
51434W        W16254  20.083   0.338   1.284
51435W        W16255   6.145  36.397   0.758
51436W        W16256  13.558  41.322  13.991
51437W        W16257  36.313  18.077   3.689
51438W        W16258  41.199  23.590   2.027
51439W        W16259  26.958   5.449  12.025
51440W        W16260   9.257  39.219   4.164
51441W        W16261  36.063   4.746   3.435
51442W        W16262  20.637  25.185  12.525
51443W        W16263   9.201   6.372   4.681
51444W        W16264  12.791  26.143  12.588
51445W        W16265  34.679  16.176   3.383
51446W        W16266  29.079  38.872   3.250
51447W        W16267  24.180  22.336   2.449
51448W        W16268  37.602  38.701   2.642
51449W        W16269  39.389  34.845  10.893
51450W        W16270  13.615  25.919   0.750
51451W        W16271   4.098  38.981   1.452
51452W        W16272  44.857  24.513  10.885
51453W        W16273  11.880  18.038   0.828
51454W        W16274  25.002  43.487   1.772
51455W        W16275  23.024   5.392  11.007
51456W        W16276  20.376  29.202   3.304
51457W        W16277  37.627  39.057  10.372
51458W        W16278  42.055  12.063   1.986
51459W        W16279  42.782  31.169   1.402
51460W        W16280   7.520  44.067  13.292
51461W        W16281  22.244  27.156  12.597
51462W        W16282   9.154  11.789   2.651
51463W        W16283  29.021  36.326  10.055
51464W        W16284  34.068  24.858  11.296
51465W        W16285  34.176  15.074   3.066
51466W        W16286  34.529  29.287  11.217
51467W        W16287  25.660  36.494   2.224
51468W        W16288   6.030   1.735   3.601
51469W        W16289  25.172  31.153  11.036
51470W        W16290  34.230  18.387  11.255
51471W        W16291  20.001  16.539   1.256
51472W        W16292  22.302  27.489  13.973
51473W        W16293   5.977  32.348   2.746
51474W        W16294  43.370  23.123   2.948
51475W        W16295  27.645  12.332  13.965
51476W        W16296  34.594  32.023  12.915
51477W        W16297   5.912   2.217  14.705
51478W        W16298  29.025   4.964  13.884
51479W        W16299   9.855  28.686   3.177
51480W        W16300  13.335  41.481  10.839
51481W        W16301  13.100  21.765  12.576
51482W        W16302  44.923  27.117   0.368
51483W        W16303  18.676  18.820   2.532
51484W        W16304  34.539  16.300   2.383
51485W        W16305  43.292  11.597   0.635
51486W        W16306  32.619  34.433   2.405
51487W        W16307  19.310  41.520  14.737
51488W        W16308   8.975  31.267  13.581
51489W        W16309  21.098  17.092   3.277
51490W        W16310   5.942  25.470  14.888
51491W        W16311  17.681   2.280  12.358
51492W        W16312  29.923  27.974   4.307
51493W        W16313   2.382  13.137   1.720
51494W        W16314  25.262  21.230   3.406
51495W        W16315  42.084  18.768  11.846
51496W        W16316  13.050  43.375   3.165
51497W        W16317  42.398  19.778   2.116
51498W        W16318  22.714  24.300   3.604
51499W        W16319  24.671   7.094   3.382
51500W        W16320  25.085  26.708   4.654
51501W        W16321  39.612  11.080  10.528
51502W        W16322  14.737  39.320   1.795
51503W        W16323  41.343  12.249   2.108
51504W        W16324  42.681  30.673  10.789
51505W        W16325  43.767   8.104  14.344
51506W        W16326   7.977  21.186  12.112
51507W        W16327  10.875  31.497   4.538
51508W        W16328  41.327  35.075  12.147
51509W        W16329  44.821  42.473   2.512
51510W        W16330  38.804  38.929  13.373
51511W        W16331   3.661  42.982  14.995
51512W        W16332   0.455   7.208   1.375
51513W        W16333   0.495  38.987  12.552
51514W        W16334  14.108   2.785   3.653
51515W        W16335  34.626  24.368   1.854
51516W        W16336  24.111  38.320  13.024
51517W        W16337  41.109  26.318   0.865
51518W        W16338  26.319  24.733   4.087
51519W        W16339  40.471  23.617   0.894
51520W        W16340  27.541  28.914  11.129
51521W        W16341  33.898  14.174   3.751
51522W        W16342  36.074  40.593  11.692
51523W        W16343  43.856  12.584   2.792
51524W        W16344  37.575  29.649   2.158
51525W        W16345  26.718   6.671   2.296
51526W        W16346  34.143  21.462   1.255
51527W        W16347  30.489  28.597   1.631
51528W        W16348   7.641   0.288  14.374
51529W        W16349  15.576  31.600   4.093
51530W        W16350   2.423   1.678  14.351
51531W        W16351  17.217   8.393   1.794
51532W        W16352   7.417  12.203   4.165
51533W        W16353  28.954  11.721   4.142
51534W        W16354  19.076   8.226  12.065
51535W        W16355   6.901  23.759   2.190
51536W        W16356  20.296  42.379   2.354
51537W        W16357  25.603  41.337  12.176
51538W        W16358  28.446  29.128  10.712
51539W        W16359  41.023  40.112  12.084
51540W        W16360  13.775  40.623   4.875
51541W        W16361  12.874  25.783  11.135
51542W        W16362  20.748  16.078   4.330
51543W        W16363   3.405  43.697   2.641
51544W        W16364   6.825  23.947  12.171
51545W        W16365  23.568  20.303   3.102
51546W        W16366   2.233  15.609  13.367
51547W        W16367   5.809  40.677   3.093
51548W        W16368  40.004  12.181  13.562
51549W        W16369  30.693  27.147  14.784
51550W        W16370  44.866   7.009  11.728
51551W        W16371  43.535  27.925  12.465
51552W        W16372  15.600  36.088   2.747
51553W        W16373  25.014  40.618   4.107
51554W        W16374   4.755   6.181   4.201
51555W        W16375  37.402  11.452  11.908
51556W        W16376  24.574   7.790  11.077
51557W        W16377  23.236  13.707  10.734
51558W        W16378   0.260   2.257  13.499
51559W        W16379  44.995  22.947   1.909
51560W        W16380  30.215  31.617  12.492
51561W        W16381  26.042  30.003   0.794
51562W        W16382  40.328  23.384   4.460
51563W        W16383  43.864  35.677  11.266
51564W        W16384  15.359   3.216  13.488
51565W        W16385  17.670  24.020  10.293
51566W        W16386  12.406  12.714   2.452
51567W        W16387   1.479  11.231  12.576
51568W        W16388   2.937  20.327  14.763
51569W        W16389  36.394  34.983  13.966
51570W        W16390  28.191  12.568  11.638
51571W        W16391  11.115  44.401   4.900
51572W        W16392  21.198  12.271  12.433
51573W        W16393  21.224  44.831  12.610
51574W        W16394   2.729  35.892   2.656
51575W        W16395  43.674  37.250  13.797
51576W        W16396  28.123  39.358   3.295
51577W        W16397  16.755  28.498   1.643
51578W        W16398   6.672   1.812  12.083
51579W        W16399   7.906  25.503  14.026
51580W        W16400   6.689  41.488   2.831
51581W        W16401  31.217  33.601  13.339
51582W        W16402  44.864  38.926  10.443
51583W        W16403  18.545  14.026  12.355
51584W        W16404   3.688  16.525  11.038
51585W        W16405   8.513  21.998  11.903
51586W        W16406  37.303  15.528   0.745
51587W        W16407  32.158  29.672   0.904
51588W        W16408  26.170  12.563  14.259
51589W        W16409  24.962  41.791  13.821
51590W        W16410  41.699  21.807   0.829
51591W        W16411   3.692  43.354   1.448
51592W        W16412   2.025  19.620   1.775
51593W        W16413  39.406  42.033   1.360
51594W        W16414  21.578  38.488   1.708
51595W        W16415  23.222   6.639  13.490
51596W        W16416  12.137  12.641  13.250
51597W        W16417  23.052   7.362   1.730
51598W        W16418  29.164   2.329   3.636
51599W        W16419  16.051  31.926   2.280
51600W        W16420  25.537  41.742  10.813
51601W        W16421  39.084  12.105  11.623
51602W        W16422  33.489  28.585   3.831
51603W        W16423  40.909   3.768   4.661
51604W        W16424  24.078   4.879  10.666
51605W        W16425   5.049  34.549   2.665
51606W        W16426  36.528  26.161  13.830
51607W        W16427  35.329  33.610   0.477
51608W        W16428   6.812   5.151  12.387
51609W        W16429  42.344   0.218   3.681
51610W        W16430   7.467  10.933   3.358
51611W        W16431  11.362  18.656  13.922
51612W        W16432  43.583  43.964  13.347
51613W        W16433  38.369  44.549  11.432
51614W        W16434  36.455  17.814   1.032
51615W        W16435  22.160   7.365  13.896
51616W        W16436  10.931  11.118   4.344
51617W        W16437   7.204  16.094   1.661
51618W        W16438  23.208  26.102   1.035
51619W        W16439   5.757  16.185   4.125
51620W        W16440  40.578   9.471  11.541
51621W        W16441   8.278   3.715  10.596
51622W        W16442  28.092  25.072   4.888
51623W        W16443  43.759  12.760   4.173
51624W        W16444  43.507  43.465  13.370
51625W        W16445  41.049  12.736  12.448
51626W        W16446   4.752  21.019   4.149
51627W        W16447  23.775  13.192   3.828
51628W        W16448   4.703   7.558  14.763
51629W        W16449  32.019  43.519  13.546
51630W        W16450  18.248   6.796   2.306
51631W        W16451  28.667  29.466  13.746
51632W        W16452  25.110  17.772  11.095
51633W        W16453  44.235  35.285  13.893
51634W        W16454  44.959   0.818  12.962
51635W        W16455  17.268  22.208  11.200
51636W        W16456  29.212  20.839   4.938
51637W        W16457  28.924  18.464   2.970
51638W        W16458  22.247   4.784  10.602
51639W        W16459  14.413   8.945   2.927
51640W        W16460   1.469  15.175  11.084
51641W        W16461  39.536  35.828  10.472
51642W        W16462   3.651   0.294  13.680
51643W        W16463  34.974   8.429  11.097
51644W        W16464  16.828  16.592   1.267
51645W        W16465   3.802  21.828  14.332
51646W        W16466   2.917  18.057  11.993
51647W        W16467   3.789   1.666  11.824
51648W        W16468  25.196   2.832  14.880
51649W        W16469  16.652  26.707   4.601
51650W        W16470  15.827   6.263   3.374
51651W        W16471   2.075  18.741   0.319
51652W        W16472  28.933   4.968  12.455
51653W        W16473  34.998  34.953   0.323
51654W        W16474   3.361   4.165  13.145
51655W        W16475  22.656   6.407   1.902
51656W        W16476   5.451  14.692  12.822
51657W        W16477  21.913   9.231  14.788
51658W        W16478  18.312   5.676   4.032
51659W        W16479  38.849   9.027   1.433
51660W        W16480  33.262  26.162   5.492
51661W        W16481  19.620  28.127   2.115
51662W        W16482   6.756  16.281  11.536
51663W        W16483  17.727   5.204  12.857
51664W        W16484  21.634  44.966  13.524
51665W        W16485   4.451  34.423   0.813
51666W        W16486   4.847   3.640  11.965
51667W        W16487  17.147  23.571  10.709
51668W        W16488  28.980   3.164  14.585
51669W        W16489  28.494   9.203  12.451
51670W        W16490   8.823  17.339   1.384
51671W        W16491  33.482  30.096  12.052
51672W        W16492  16.282  11.670  13.823
51673W        W16493  33.168  42.444   4.360
51674W        W16494  41.138  22.058  14.388
51675W        W16495  18.272  42.930   4.154
51676W        W16496  30.205  19.011   4.042
51677W        W16497  23.478   8.209  14.944
51678W        W16498  40.720  34.547  12.822
51679W        W16499  12.620  23.529   0.747
51680W        W16500  36.620  34.687   2.388
51681W        W16501  24.164  17.452   0.996
51682W        W16502  44.429  22.177   5.073
51683W        W16503  15.702   4.853   3.782
51684W        W16504   8.951   8.715   2.189
51685W        W16505   2.969  35.637  14.838
51686W        W16506   5.703  35.629  11.084
51687W        W16507  26.421  19.451  14.484
51688W        W16508  40.381  25.509   2.435
51689W        W16509  19.326  31.381   3.109
51690W        W16510  14.571  40.763  14.012
51691W        W16511  40.557  32.590   3.375
51692W        W16512  37.572   6.193  12.038
51693W        W16513  24.963  36.298  11.569
51694W        W16514  22.224  25.160   4.253
51695W        W16515  18.150  43.952  11.457
51696W        W16516  20.083  11.887  12.093
51697W        W16517  18.012  14.466  11.080
51698W        W16518  11.388  19.805   1.713
51699W        W16519  43.726  36.606  13.848
51700W        W16520  35.794  10.320  11.893
51701W        W16521   1.300  32.629   4.416
51702W        W16522  28.611  43.927   3.800
51703W        W16523   2.849  18.630   3.800
51704W        W16524  17.209  32.445   4.143
51705W        W16525  43.914  30.459   1.357
51706W        W16526  36.419  38.831   3.596
51707W        W16527  26.143  26.982   2.816
51708W        W16528  29.135  20.091   3.465
51709W        W16529   7.830   8.931   3.591
51710W        W16530  27.109  15.481   0.236
51711W        W16531  42.784  16.889  14.746
51712W        W16532  35.876  37.507  12.615
51713W        W16533   7.312   3.661  12.016
51714W        W16534  29.505  43.029  14.845
51715W        W16535  11.843   8.167   4.697
51716W        W16536  31.577  34.858  13.444
51717W        W16537  12.613  26.028   2.644
51718W        W16538   9.661  36.429  12.030
51719W        W16539  15.677  15.253   5.041
51720W        W16540  32.583  22.530   4.449
51721W        W16541  21.677  26.190   2.003
51722W        W16542  31.328  29.571  14.163
51723W        W16543  12.672  11.003   1.764
51724W        W16544   0.361  36.182  11.545
51725W        W16545  40.774  21.254  14.818
51726W        W16546  27.084  25.413  10.243
51727W        W16547   3.008  21.525   2.217
51728W        W16548  37.808  43.267  13.922
51729W        W16549  16.246  29.854  12.678
51730W        W16550  42.886  37.972   3.335
51731W        W16551  11.343  34.948   4.423
51732W        W16552  15.750  39.352   4.095
51733W        W16553  34.137  29.711  12.420
51734W        W16554  44.265   1.355  11.119
51735W        W16555  35.910  26.034  12.322
51736W        W16556  10.742  42.430  14.653
51737W        W16557   6.328  42.625  10.352
51738W        W16558  38.854  32.459  13.359
51739W        W16559  21.980  44.016  12.386
51740W        W16560  35.226  39.967  12.524
51741W        W16561   3.404  32.540  14.959
51742W        W16562   5.880   1.543  10.713
51743W        W16563  16.135  29.583   4.167
51744W        W16564  19.156   8.668   2.149
51745W        W16565  31.896  39.750  13.589
51746W        W16566   4.708  34.632   2.227
51747W        W16567   9.768   2.229   1.748
51748W        W16568  32.928  35.446   3.300
51749W        W16569   6.515  42.351   3.498
51750W        W16570  25.100   0.755  12.553
51751W        W16571  43.416  35.342  12.937
51752W        W16572  34.546  11.016   1.665
51753W        W16573  36.138   0.689  12.446
51754W        W16574  40.740   7.833   0.222
51755W        W16575  31.697  18.489  13.865
51756W        W16576   9.761  44.835  12.976
51757W        W16577  35.069  38.504  13.660
51758W        W16578   2.534  14.347   0.810
51759W        W16579  22.793   5.706  13.974
51760W        W16580   7.899  10.226  11.184
51761W        W16581  19.674   2.264  10.885
51762W        W16582  39.962  14.549   5.069
51763W        W16583  28.491  30.984   1.656
51764W        W16584  41.887  29.884   2.767
51765W        W16585  29.969  15.265   2.111
51766W        W16586   5.541   4.241  14.554
51767W        W16587  32.137  22.011  11.359
51768W        W16588  38.699  34.936  12.940
51769W        W16589   5.272  30.955   4.813
51770W        W16590  39.251  41.834  12.781
51771W        W16591  36.422  19.062   2.732
51772W        W16592  40.447  18.223  11.486
51773W        W16593  11.566  32.222   1.370
51774W        W16594  30.352  19.630  10.928
51775W        W16595  34.838  15.055  14.649
51776W        W16596  40.307   6.906   4.359
51777W        W16597  37.187  31.105  12.248
51778W        W16598  12.666  13.865   0.274
51779W        W16599  30.471  37.332   4.474
51780W        W16600  30.119  30.072  13.825
51781W        W16601  33.493  24.182   1.000
51782W        W16602  17.785  12.792   3.605
51783W        W16603  30.626  32.864  12.512
51784W        W16604  18.464  11.163  12.144
51785W        W16605   4.492  11.154   4.586
51786W        W16606  21.503  10.909   0.877
51787W        W16607  44.746  14.408  11.580
51788W        W16608  26.968  29.381   2.336
51789W        W16609  17.306  42.855   4.135
51790W        W16610  26.196   2.243  10.723
51791W        W16611  15.299  44.080   3.027
51792W        W16612  24.068  11.238  12.163
51793W        W16613   6.539   3.574  10.775
51794W        W16614   3.961  44.441  11.678
51795W        W16615   4.437   3.335   0.768
51796W        W16616  32.510  26.098   3.321
51797W        W16617  22.059  30.014   3.028
51798W        W16618  27.013  31.900  14.535
51799W        W16619  20.166   3.710  11.661
51800W        W16620  42.280  34.901  10.649
51801W        W16621  43.691  40.324   3.663
51802W        W16622  11.448   4.608   0.488
51803W        W16623  30.378  17.659  12.024
51804W        W16624  36.069  26.509   4.486
51805W        W16625  42.526   7.486  12.898
51806W        W16626  18.693  43.850   3.137
51807W        W16627  20.264  14.179   3.664
51808W        W16628  41.960  19.894   3.149
51809W        W16629  34.762  31.372  14.358
51810W        W16630  19.648  14.616   0.788
51811W        W16631  26.271  16.159  11.133
51812W        W16632  14.098   4.270   3.531
51813W        W16633  11.594  22.963   2.443
51814W        W16634  30.089  13.731  14.443
51815W        W16635   4.245  13.575  14.606
51816W        W16636   0.659  44.564   4.897
51817W        W16637  13.385  12.345  13.959
51818W        W16638  33.528  13.956  13.866
51819W        W16639   7.607   7.405  12.998
51820W        W16640  25.046  11.947  14.305
51821W        W16641  22.776  11.385  14.466
51822W        W16642   4.165  14.977   1.345
51823W        W16643   5.131  39.343   3.174
51824W        W16644  43.040  22.130   4.410
51825W        W16645  39.563  20.257  11.227
51826W        W16646   7.778  42.518   4.220
51827W        W16647  32.561  44.399  13.542
51828W        W16648  32.995  14.266   9.739
51829W        W16649  42.067  40.771   2.692
51830W        W16650  35.353  24.313  13.377
51831W        W16651   6.173  43.005   1.380
51832W        W16652   0.248  42.847   0.760
51833W        W16653  31.528  33.586   3.917
51834W        W16654  24.444  40.974   0.540
51835W        W16655  29.965  42.351  13.510
51836W        W16656  41.950   7.065   1.266
51837W        W16657  32.213   8.388  11.146
51838W        W16658  12.879  28.408  10.224
51839W        W16659  34.548  11.175  10.691
51840W        W16660   1.626  23.948  12.189
51841W        W16661  10.887  44.360   2.174
51842W        W16662  15.116  30.787   3.294
51843W        W16663  20.564  26.615  13.408
51844W        W16664  14.077  13.075  11.101
51845W        W16665  29.966  24.730   3.845
51846W        W16666  16.246   5.860  14.493
51847W        W16667  35.533  38.744   4.430
51848W        W16668  20.138  15.038   0.273
51849W        W16669   0.217  24.417   0.785
51850W        W16670  37.882   1.738   2.341
51851W        W16671  25.939  19.459  12.546
51852W        W16672   5.142  43.769  13.062
51853W        W16673  24.041  29.404  12.962
51854W        W16674   7.978  20.708  10.486
51855W        W16675  43.310   3.955  13.911
51856W        W16676   7.932  33.728  12.140
51857W        W16677  36.473  23.482  11.530
51858W        W16678  31.569  42.618   5.269
51859W        W16679  19.000  31.435   0.672
51860W        W16680  22.140  16.254  13.285
51861W        W16681   1.800  32.512   3.693
51862W        W16682  30.587  33.022   4.709
51863W        W16683  30.600  33.517   4.260
51864W        W16684  18.649  43.457  10.570
51865W        W16685  39.511  39.453  13.539
51866W        W16686  18.615  25.577  12.359
51867W        W16687   8.193  13.749   2.590
51868W        W16688  41.366   7.679   2.961
51869W        W16689  18.687  11.840  11.396
51870W        W16690   8.161  15.003  12.446
51871W        W16691  26.520  15.501   3.101
51872W        W16692  38.011  38.924   4.052
51873W        W16693  15.222  42.859   4.171
51874W        W16694  25.792  26.526   0.851
51875W        W16695  30.470  43.760   0.943
51876W        W16696   5.458  30.382  10.781
51877W        W16697  13.179  28.575  14.383
51878W        W16698  21.251  21.145  11.387
51879W        W16699  20.110  25.984   0.081
51880W        W16700  26.014   9.733   1.314
51881W        W16701  20.805   5.057  12.085
51882W        W16702  20.756  16.600   0.986
51883W        W16703   7.183  25.015   0.696
51884W        W16704  39.739   6.704  11.188
51885W        W16705  35.173  16.569  14.686
51886W        W16706  19.541  24.072  14.308
51887W        W16707  35.508  37.806  10.708
51888W        W16708  23.321  12.617  12.468
51889W        W16709  33.375  34.019   4.298
51890W        W16710  36.426  44.263   5.186
51891W        W16711  16.586   6.288  14.852
51892W        W16712   6.683  21.853   1.303
51893W        W16713  38.075  39.866   3.681
51894W        W16714  19.242  10.853   1.354
51895W        W16715  19.111  21.053  14.989
51896W        W16716  17.496  12.660   0.521
51897W        W16717  26.487  19.104  12.481
51898W        W16718  37.049  44.774   3.028
51899W        W16719  25.418   9.200   1.973
51900W        W16720  39.057  38.079   4.580
51901W        W16721  37.442   3.876   1.294
51902W        W16722  25.934  22.552  10.613
51903W        W16723  25.240  34.199   1.972
51904W        W16724  11.688  20.809   1.707
51905W        W16725  18.594  37.024   3.033
51906W        W16726  41.577  38.496  10.471
51907W        W16727  32.626  20.004   1.907
51908W        W16728  24.406  19.186   0.577
51909W        W16729   8.163  43.832   4.098
51910W        W16730  32.939  34.603   3.772
51911W        W16731   0.904   0.227  13.771
51912W        W16732  29.825  37.896   1.409
51913W        W16733  41.847  20.888   4.722
51914W        W16734   4.926   8.683  13.439
51915W        W16735  36.418  30.225   0.420
51916W        W16736  13.239   1.933   2.297
51917W        W16737   8.160  44.479   1.781
51918W        W16738   4.257  18.247   2.771
51919W        W16739  34.083  28.577   0.397
51920W        W16740  10.774  22.025  11.731
51921W        W16741  33.233  22.182  13.533
51922W        W16742  17.845  34.868  10.611
51923W        W16743  18.808  43.570  14.482
51924W        W16744  26.661  11.371  13.402
51925W        W16745  44.970  35.625  11.205
51926W        W16746   7.491  17.271  12.613
51927W        W16747  30.507  12.899   0.066
51928W        W16748  39.964  28.360  13.008
51929W        W16749  12.983  30.433  11.868
51930W        W16750  14.232  25.025  13.233
51931W        W16751   3.861  29.223  14.798
51932W        W16752  13.382  25.515   4.649
51933W        W16753   7.470  25.617  12.198
51934W        W16754   2.288  21.551  12.968
51935W        W16755  20.728   6.336  11.965
51936W        W16756  24.503   2.976  11.058
51937W        W16757  32.482   6.414  12.916
51938W        W16758  14.116  37.637   2.735
51939W        W16759  39.295   6.390   3.275
51940W        W16760   8.334  37.484  11.520
51941W        W16761   5.339  27.248  13.135
51942W        W16762   2.795   3.224   4.967
51943W        W16763  36.333  28.129   0.334
51944W        W16764  38.755  28.950  12.041
51945W        W16765  33.945  12.344  14.361
51946W        W16766  16.758  35.114   2.407
51947W        W16767  39.776  25.933  14.440
51948W        W16768  35.952  27.559   1.822
51949W        W16769   1.480   1.505   3.729
51950W        W16770   8.233   6.895   3.808
51951W        W16771  30.534  28.645   4.407
51952W        W16772  15.546  32.408   1.471
51953W        W16773  11.341   0.874   2.782
51954W        W16774  40.376  22.883   4.510
51955W        W16775  17.432  18.699  13.503
51956W        W16776   2.066  32.490  12.484
51957W        W16777  40.003  25.463  14.853
51958W        W16778   3.414  35.544   3.576
51959W        W16779  21.251   1.351  10.626
51960W        W16780   7.716  10.810  13.545
51961W        W16781  28.776  42.346   2.112
51962W        W16782  42.465  44.781  11.402
51963W        W16783  15.620  25.656   3.101
51964W        W16784  11.188  17.133   2.782
51965W        W16785   2.961  29.984   2.267
51966W        W16786  27.913  41.480   0.389
51967W        W16787   0.880  39.982  12.936
51968W        W16788  10.149   1.175  14.053
51969W        W16789  37.933   6.169  10.772
51970W        W16790  37.112  15.398   3.868
51971W        W16791  36.509  42.039  10.702
51972W        W16792  35.378  35.040  13.813
51973W        W16793  34.526  12.146   2.346
51974W        W16794   2.481  13.479  14.299
51975W        W16795  41.329  44.252   0.463
51976W        W16796  20.978  14.209   3.256
51977W        W16797  33.833  10.808   1.788
51978W        W16798  19.619  14.915  13.989
51979W        W16799  14.683   3.871   0.944
51980W        W16800  42.368  13.261   4.630
51981W        W16801  31.205  27.746  14.322
51982W        W16802  24.990  35.918  12.157
51983W        W16803  18.551  35.440  13.890
51984W        W16804  13.264   9.371  12.642
51985W        W16805  39.816  31.997   4.089
51986W        W16806   7.260  31.060  10.738
51987W        W16807  23.296   0.551   0.942
51988W        W16808  31.386   6.772  13.980
51989W        W16809  39.257  28.053  13.838
51990W        W16810  11.741   7.290   3.616
51991W        W16811   1.302  41.076  11.210
51992W        W16812  29.185   3.692   1.732
51993W        W16813   9.000  12.111   4.219
51994W        W16814  27.416  38.207   3.670
51995W        W16815  18.837  14.369  11.571
51996W        W16816  34.968  20.805   2.806
51997W        W16817   5.139  44.689  11.104
51998W        W16818  36.268  42.508  13.028
51999W        W16819  44.017  13.134   0.705
52000W        W16820  30.663  25.884   2.451
52001W        W16821  21.296  38.403   0.374
52002W        W16822  36.362  31.652   5.055
52003W        W16823  25.230  40.290   2.135
52004W        W16824   6.356  38.029   3.674
52005W        W16825  38.476  39.032  14.903
52006W        W16826  20.541  33.099  12.491
52007W        W16827   4.880  15.789  13.394
52008W        W16828   5.465   6.821  11.113
52009W        W16829   4.537   8.800   4.548
52010W        W16830  28.039   2.578  13.313
52011W        W16831  18.461  34.490  11.009
52012W        W16832   1.355   6.015   3.119
52013W        W16833  31.763  44.952   1.445
52014W        W16834  29.811   6.415  14.444
52015W        W16835  17.449  39.058   3.668
52016W        W16836   1.289  22.014   0.769
52017W        W16837  13.107  33.049   0.811
52018W        W16838  23.183   4.782  13.921
52019W        W16839  29.815   4.398  12.641
52020W        W16840   9.212  19.309  14.401
52021W        W16841  27.465  21.134   4.167
52022W        W16842  37.288   4.066   1.770
52023W        W16843   2.929   2.345   1.274
52024W        W16844   4.831  16.601   3.691
52025W        W16845  14.050  22.283   4.141
52026W        W16846  11.716  12.581   0.770
52027W        W16847  44.510   7.350   1.325
52028W        W16848  13.092  29.890   1.918
52029W        W16849  17.538  16.202  14.220
52030W        W16850  22.060   8.809  12.133
52031W        W16851  43.104   9.573  12.020
52032W        W16852  18.730   0.547   3.633
52033W        W16853  29.286  29.146  11.086
52034W        W16854   6.227  18.061   0.472
52035W        W16855  20.632  23.959  11.982
52036W        W16856   5.210  17.327   1.818
52037W        W16857  31.005  14.746  12.605
52038W        W16858  42.062  30.874   0.904
52039W        W16859  31.464   4.996   4.736
52040W        W16860  20.501  27.383  14.394
52041W        W16861  39.540  26.230   0.058
52042W        W16862  40.320  44.295   2.702
52043W        W16863  16.852   6.905  13.131
52044W        W16864  36.172  11.366   3.310
52045W        W16865   5.877   9.158   2.082
52046W        W16866  15.319   7.475   4.176
52047W        W16867   4.316  30.559  14.878
52048W        W16868  28.108  33.516  10.985
52049W        W16869  18.082  36.698  12.573
52050W        W16870  28.246  24.017  12.273
52051W        W16871  26.671  30.352   3.724
52052W        W16872   4.748   2.366   4.472
52053W        W16873  33.911  11.791   4.756
52054W        W16874  41.030  25.608  12.346
52055W        W16875   2.885   3.974   1.247
52056W        W16876  30.269  12.298   3.864
52057W        W16877  11.079  18.999  12.642
52058W        W16878  26.059  41.974  12.176
52059W        W16879  27.032  14.136  13.727
52060W        W16880   2.698  25.944  11.693
52061W        W16881  33.027  37.492  10.923
52062W        W16882   5.390  14.147  11.595
52063W        W16883  29.510  11.683  11.231
52064W        W16884  12.172  28.188   3.446
52065W        W16885  10.463  36.317  13.399
52066W        W16886   8.970  32.729  13.621
52067W        W16887  19.341  37.667  10.635
52068W        W16888   3.390  21.750  11.127
52069W        W16889  31.168  27.624  12.093
52070W        W16890  19.950  26.500  14.426
52071W        W16891  11.384  38.674  12.083
52072W        W16892  14.756  10.889   2.264
52073W        W16893   4.786   8.261  14.954
52074W        W16894  24.227  29.580  12.008
52075W        W16895  36.738  41.380  12.072
52076W        W16896   6.170  39.422  14.061
52077W        W16897   3.614   1.210  12.529
52078W        W16898  11.313  39.663   3.259
52079W        W16899   4.709  20.146   1.427
52080W        W16900  11.529  22.256   1.751
52081W        W16901  14.516   8.446  10.689
52082W        W16902  24.681  43.984   2.943
52083W        W16903  32.968   6.238   0.810
52084W        W16904  30.474   9.784   1.392
52085W        W16905  12.793  15.485   2.751
52086W        W16906  40.559  10.392   5.142
52087W        W16907  42.257  22.527  11.624
52088W        W16908  34.013  18.077   2.104
52089W        W16909  30.894  33.752   2.714
52090W        W16910  21.438  10.262   3.478
52091W        W16911  36.531  26.544   1.450
52092W        W16912  31.122  21.173   4.171
52093W        W16913  34.819  29.894  13.574
52094W        W16914   4.430  32.750   4.607
52095W        W16915  39.837  12.299   4.653
52096W        W16916  43.366  42.797  14.811
52097W        W16917   6.817  28.525   4.578
52098W        W16918  23.959  37.000   4.115
52099W        W16919  27.113   2.644  11.723
52100W        W16920  14.524  21.704  13.359
52101W        W16921  33.854  14.671   5.351
52102W        W16922   7.899  24.784  11.328
52103W        W16923  43.013  20.784   3.533
52104W        W16924  20.076  33.172   5.104
52105W        W16925  38.079  34.034  10.803
52106W        W16926  32.016  33.214   0.848
52107W        W16927  44.364  44.571   4.121
52108W        W16928  12.807   2.192  10.701
52109W        W16929  24.749  22.745   1.700
52110W        W16930  10.857  21.275   0.445
52111W        W16931  28.126  22.374  11.944
52112W        W16932  23.197  33.415   0.848
52113W        W16933  16.508   9.684   0.295
52114W        W16934   9.754  12.668   0.044
52115W        W16935  25.894  30.894  14.560
52116W        W16936   7.694  44.016   4.297
52117W        W16937  15.556  35.972   4.482
52118W        W16938  20.185  12.434  14.142
52119W        W16939  12.308   4.733  14.948
52120W        W16940  39.700  36.325  10.603
52121W        W16941  15.592  29.172  12.378
52122W        W16942  10.166  37.269   1.907
52123W        W16943  37.040  20.059   4.372
52124W        W16944   8.818  11.392   2.739
52125W        W16945  12.078  24.930   1.920
52126W        W16946   5.389  15.863  12.053
52127W        W16947  24.054  35.777   2.183
52128W        W16948   1.035  34.876  11.640
52129W        W16949  34.131   1.031   4.577
52130W        W16950  27.250  14.650  12.173
52131W        W16951   0.032  34.674   1.870
52132W        W16952  44.968  32.980   3.769
52133W        W16953  22.838  38.933   1.401
52134W        W16954  35.421  12.648   4.567
52135W        W16955   3.218   3.736  11.458
52136W        W16956  29.325  11.818   4.520
52137W        W16957   7.919   3.950   0.244
52138W        W16958  35.177   3.407  13.639
52139W        W16959   6.475  37.855  12.909
52140W        W16960  24.596  36.143  14.450
52141W        W16961   0.053  13.221   2.239
52142W        W16962  12.303  38.901  11.247
52143W        W16963  35.815  34.875  12.045
52144W        W16964  23.061  41.762  12.705
52145W        W16965  17.207   9.287   3.319
52146W        W16966  22.631  36.967  14.077
52147W        W16967  32.748  15.110   4.161
52148W        W16968   4.530  19.595  10.789
52149W        W16969  14.681   3.391  11.981
52150W        W16970  41.100  22.251   2.673
52151W        W16971  31.183   5.501   3.877
52152W        W16972  20.523  24.421  13.955
52153W        W16973   7.479  29.434  12.027
52154W        W16974  34.022  14.526   1.403
52155W        W16975  21.200  17.605  11.042
52156W        W16976  34.186  17.706  10.677
52157W        W16977  23.793  32.037  14.331
52158W        W16978  39.550   5.390   4.561
52159W        W16979  13.712  33.873  13.338
52160W        W16980  32.940  17.242   2.762
52161W        W16981  22.967  26.969   0.207
52162W        W16982  26.225  24.532   3.163
52163W        W16983  14.399  43.673  12.519
52164W        W16984  35.429  36.398   2.621
52165W        W16985   7.408   8.973  11.826
52166W        W16986   1.220  42.077   1.787
52167W        W16987  23.677  17.588  14.829
52168W        W16988  26.435   5.696   3.451
52169W        W16989  13.606  32.855   0.813
52170W        W16990  42.877  35.361   4.671
52171W        W16991  35.153  30.971  11.991
52172W        W16992  30.459   7.935   0.418
52173W        W16993   9.465   6.157  12.988
52174W        W16994  29.934  11.477  11.483
52175W        W16995  23.948  39.421   2.133
52176W        W16996   7.568   4.284  13.610
52177W        W16997  40.835  43.759  14.966
52178W        W16998  36.856  41.845   1.410
52179W        W16999   1.348  43.084  13.839
52180W        W17000  17.964  33.141  12.090
52181W        W17001   7.284  11.394   3.190
52182W        W17002   8.715  25.644  12.014
52183W        W17003  38.976  39.488   4.194
52184W        W17004  42.924  23.035   1.693
52185W        W17005  18.672   6.879   3.268
52186W        W17006  27.014   8.235  12.580
52187W        W17007  36.008  30.240   3.683
52188W        W17008  43.058  10.170   0.233
52189W        W17009  38.776  43.271  12.634
52190W        W17010   3.242  28.711  13.480
52191W        W17011  35.717  19.315   2.172
52192W        W17012  17.040  12.447  12.507
52193W        W17013  19.688   0.667   4.875
52194W        W17014  26.917  36.857   2.293
52195W        W17015  39.887   3.829   0.961
52196W        W17016  39.531   1.985   2.432
52197W        W17017  36.849  14.228   1.301
52198W        W17018   1.434  28.496  13.875
52199W        W17019  14.293  41.038  11.444
52200W        W17020  28.564  33.336  13.317
52201W        W17021  11.038  31.183   4.174
52202W        W17022  41.893   3.684   0.504
52203W        W17023   5.241  18.362   0.940
52204W        W17024  34.781   2.403   3.383
52205W        W17025  11.244  40.377  12.608
52206W        W17026  37.980  11.733   3.306
52207W        W17027   2.045  42.678  13.682
52208W        W17028   6.027   2.334  11.102
52209W        W17029  20.608  15.572   1.916
52210W        W17030   7.252  32.083  10.635
52211W        W17031   0.243  28.672  12.570
52212W        W17032   8.006  25.453  12.087
52213W        W17033   5.088  33.802  12.972
52214W        W17034  19.662  40.494  13.467
52215W        W17035  25.191  13.764  11.850
52216W        W17036  21.491  22.924  11.273
52217W        W17037  25.380  11.328  14.683
52218W        W17038   2.814  19.180  13.432
52219W        W17039  14.513  23.935  10.688
52220W        W17040  27.996  15.809  13.316
52221W        W17041  19.565  27.030   1.258
52222W        W17042  31.996  24.425  12.173
52223W        W17043  25.552  10.873   2.301
52224W        W17044   2.808  16.349   1.197
52225W        W17045  18.295  28.459   4.472
52226W        W17046  44.548  16.527   4.364
52227W        W17047  20.140  35.494   1.775
52228W        W17048  21.106  12.227  13.309
52229W        W17049   6.450  13.332  12.113
52230W        W17050  22.613  30.689  13.366
52231W        W17051  25.487  32.305  13.847
52232W        W17052   2.957  37.351   4.142
52233W        W17053  37.508  34.108   4.625
52234W        W17054  14.812  31.593  12.799
52235W        W17055   9.129  39.563   2.856
52236W        W17056   8.187  42.731   0.974
52237W        W17057  28.697   5.230   2.328
52238W        W17058  44.772   2.325  13.287
52239W        W17059  24.033  38.072  14.172
52240W        W17060  24.162  11.596   3.238
52241W        W17061  12.668  44.921   3.564
52242W        W17062   3.915  23.095  12.549
52243W        W17063  18.134  44.960  11.670
52244W        W17064  18.808  14.309   2.372
52245W        W17065  30.887  33.976  12.091
52246W        W17066   3.444  27.105   4.192
52247W        W17067  19.056   3.255   2.729
52248W        W17068   9.354  29.315  13.521
52249W        W17069  39.735  14.183   2.875
52250W        W17070   3.002  35.790  11.572
52251W        W17071  23.148  13.563   2.139
52252W        W17072   5.171   4.589   3.659
52253W        W17073   5.229  39.722  11.117
52254W        W17074  26.915  17.541  13.118
52255W        W17075  23.647  33.616   1.968
52256W        W17076  19.593   2.813   4.758
52257W        W17077   4.988  29.519  14.801
52258W        W17078  40.834  40.960   2.332
52259W        W17079  33.883  17.657  13.564
52260W        W17080  13.740  20.244  11.451
52261W        W17081   4.152  15.621   1.273
52262W        W17082   5.825  29.984  10.688
52263W        W17083  15.200   8.092  12.609
52264W        W17084  41.690  11.809  11.717
52265W        W17085   4.140  42.404   2.427
52266W        W17086  11.229  21.775  11.543
52267W        W17087  42.423  18.282   1.672
52268W        W17088  33.546  20.600   0.188
52269W        W17089  33.917  34.704   3.669
52270W        W17090  17.045  23.542  13.929
52271W        W17091  30.228  39.380   4.212
52272W        W17092  18.705  20.105   0.123
52273W        W17093  14.424  19.571   0.476
52274W        W17094  11.731  15.100  12.018
52275W        W17095  43.912  33.622  11.429
52276W        W17096   8.872  34.538  12.444
52277W        W17097  12.008   1.685   4.156
52278W        W17098  22.192   3.581   4.578
52279W        W17099  41.283  44.435   3.934
52280W        W17100  17.255  34.463   1.903
52281W        W17101  40.416   3.456  13.395
52282W        W17102  36.108  31.305  13.474
52283W        W17103  15.835   7.938  14.772
52284W        W17104  19.217  39.587  14.952
52285W        W17105  28.513   9.672  11.822
52286W        W17106  10.886  42.028  12.039
52287W        W17107  37.448  43.963  13.729
52288W        W17108  17.832  17.995   0.290
52289W        W17109  13.616  38.963  13.097
52290W        W17110  20.003   8.356   1.839
52291W        W17111  14.800   6.950  12.991
52292W        W17112  28.645  36.007  11.425
52293W        W17113  41.678  14.133  11.318
52294W        W17114  11.551  29.204  14.722
52295W        W17115  39.868  12.586   4.124
52296W        W17116   4.129   9.189  13.928
52297W        W17117  18.908   2.587   4.628
52298W        W17118   9.326  42.570  10.980
52299W        W17119  22.869  25.491  12.378
52300W        W17120  31.124  25.731   3.642
52301W        W17121  38.536   6.902  11.581
52302W        W17122   9.950  28.457  11.249
52303W        W17123   3.407  38.259  10.578
52304W        W17124   8.200   1.929   1.931
52305W        W17125  12.235  32.930   2.750
52306W        W17126   7.775  30.150  11.445
52307W        W17127  37.160  34.582   1.717
52308W        W17128  11.312  30.736  13.942
52309W        W17129   7.581  39.944   1.859
52310W        W17130   5.626  16.351   0.610
52311W        W17131  32.226  15.245  12.158
52312W        W17132  18.336  40.436   4.540
52313W        W17133  22.488  44.431  14.004
52314W        W17134  22.036  18.446  11.113
52315W        W17135  39.497  24.753  10.621
52316W        W17136  17.425  26.311   5.070
52317W        W17137  25.101  39.325  11.276
52318W        W17138  35.663  19.788  11.080
52319W        W17139  22.025  24.240   1.543
52320W        W17140  33.972  25.761   4.429
52321W        W17141   7.007  23.493  12.010
52322W        W17142   2.706   8.382   3.654
52323W        W17143  18.721  11.244  10.819
52324W        W17144   2.971  18.461   3.166
52325W        W17145  34.526  34.365  12.961
52326W        W17146  15.186  25.900   3.210
52327W        W17147  40.406  30.003  12.507
52328W        W17148   9.769  10.246  10.592
52329W        W17149  23.958  44.363   3.076
52330W        W17150  13.407  16.247   1.323
52331W        W17151   7.591  29.489   4.479
52332W        W17152   0.863  33.388   2.582
52333W        W17153  42.208   4.302  12.779
52334W        W17154  29.403   8.678  10.734
52335W        W17155  41.045  30.580   4.166
52336W        W17156  37.074  24.388   3.068
52337W        W17157  42.259  25.246  11.622
52338W        W17158  38.506  12.445  14.968
52339W        W17159  17.207  39.001   0.263
52340W        W17160  32.840   1.399  12.059
52341W        W17161   2.705   2.503  13.043
52342W        W17162  35.683  36.860  12.948
52343W        W17163   5.823  15.701   0.324
52344W        W17164  21.260  26.220   0.764
52345W        W17165   7.954   1.397   3.897
52346W        W17166  23.013  13.788   4.650
52347W        W17167  31.966  10.644   0.515
52348W        W17168  30.688  15.018  13.237
52349W        W17169   9.925  16.888   3.094
52350W        W17170   0.526  18.855   0.304
52351W        W17171   5.798  42.725   4.567
52352W        W17172   3.279  21.430   3.282
52353W        W17173  29.405  28.660  12.864
52354W        W17174  38.616  30.939  11.959
52355W        W17175   4.288  27.270   2.660
52356W        W17176  23.055  26.703  13.084
52357W        W17177  23.217  14.588   1.270
52358W        W17178  20.062  27.059   4.839
52359W        W17179  18.495  41.253   4.926
52360W        W17180  27.179  12.656  13.051
52361W        W17181  26.180  37.517   0.866
52362W        W17182  22.210   4.776   4.188
52363W        W17183  33.576  18.626  14.254
52364W        W17184  12.230  44.636  13.840
52365W        W17185  27.579   4.666   0.004
52366W        W17186  37.441  21.363   3.540
52367W        W17187   6.818  32.981  12.454
52368W        W17188   9.661  29.075   4.474
52369W        W17189  42.491  18.508  14.581
52370W        W17190   4.652  20.701   0.420
52371W        W17191  10.201  19.023  12.589
52372W        W17192  28.417  39.804   0.020
52373W        W17193  29.892  16.642   4.671
52374W        W17194  12.321   4.934   0.429
52375W        W17195  37.971  19.523  14.948
52376W        W17196  35.676  39.302  10.782
52377W        W17197   7.576   3.576   4.307
52378W        W17198  20.726  29.094   3.667
52379W        W17199  23.244  27.092  14.778
52380W        W17200  13.150  26.919  14.347
52381W        W17201  12.127  13.806  13.865
52382W        W17202   5.476   7.336   4.114
52383W        W17203  35.416  33.469  11.112
52384W        W17204  28.555  13.708   2.397
52385W        W17205  10.764  13.113   0.738
52386W        W17206  13.762  16.530   0.133
52387W        W17207  11.692   5.987  11.308
52388W        W17208   0.996  40.297   2.421
52389W        W17209  20.173  35.471  10.435
52390W        W17210  36.192  18.734  11.598
52391W        W17211   3.101  38.374   0.237
52392W        W17212  18.557   4.696  10.569
52393W        W17213   6.170  32.427  12.844
52394W        W17214  15.489   5.890   2.174
52395W        W17215  22.645  41.843   3.332
52396W        W17216  14.787  33.581   1.570
52397W        W17217   9.317   5.594  13.608
52398W        W17218   5.326  42.171   3.808
52399W        W17219   4.805  37.168  14.001
52400W        W17220  34.913  40.880  10.818
52401W        W17221  13.269  10.604   1.495
52402W        W17222  28.717  37.670   1.750
52403W        W17223  31.920   4.126   4.879
52404W        W17224   5.412  23.926   0.456
52405W        W17225  28.691  22.481  13.755
52406W        W17226  31.916   7.905  13.396
52407W        W17227   5.939  33.406  13.016
52408W        W17228  41.383  16.552  14.307
52409W        W17229   2.385   5.966  13.903
52410W        W17230  15.101  22.544   1.857
52411W        W17231   0.510  13.674   1.272
52412W        W17232  20.829  27.589   2.396
52413W        W17233  26.962  12.945   2.324
52414W        W17234   2.243  20.510   0.806
52415W        W17235  34.758  24.753   1.507
52416W        W17236  14.639  10.767   3.717
52417W        W17237  35.417   1.780   3.371
52418W        W17238  12.132   2.128   0.962
52419W        W17239  37.485  41.908  10.645
52420W        W17240  32.748  30.377   3.768
52421W        W17241  26.821  33.910  11.606
52422W        W17242   4.744  10.218  10.716
52423W        W17243  24.546  25.136  12.455
52424W        W17244  40.066   5.663  12.905
52425W        W17245  35.799  38.685  12.898
52426W        W17246  33.380  12.075  12.555
52427W        W17247  15.592  44.544   0.119
52428W        W17248  13.383  25.708   0.282
52429W        W17249  18.263  15.394  11.129
52430W        W17250   7.316  19.923   3.744
52431W        W17251   1.438  32.498   2.357
52432W        W17252  24.136  17.326  14.820
52433W        W17253  11.664  40.962   0.941
52434W        W17254  40.859  11.839   2.770
52435W        W17255  36.901  22.191  13.238
52436W        W17256  19.926  20.562  14.800
52437W        W17257  41.183  22.015  13.477
52438W        W17258  21.792  18.352  10.658
52439W        W17259  24.933  14.342  10.676
52440W        W17260   0.004  29.529   4.307
52441W        W17261   7.538  44.255  12.820
52442W        W17262  11.018  42.760   4.129
52443W        W17263  22.176  28.654   0.665
52444W        W17264  27.909  12.605   0.851
52445W        W17265  41.885  29.972   4.553
52446W        W17266   7.416  32.662  11.677
52447W        W17267  23.432  20.143   9.808
52448W        W17268   8.815  22.610   1.144
52449W        W17269   9.798  26.150   3.519
52450W        W17270  36.972  40.306   3.246
52451W        W17271  12.708  34.358   2.962
52452W        W17272  13.266  34.269   0.902
52453W        W17273  16.084  41.404   1.018
52454W        W17274   4.264   0.830   2.756
52455W        W17275  16.542  17.347  10.764
52456W        W17276  23.740  22.991  11.309
52457W        W17277  32.883  26.198  14.023
52458W        W17278  31.279  39.804  12.016
52459W        W17279  40.078  39.667   4.160
52460W        W17280  17.994  26.553  13.060
52461W        W17281  31.129  22.473   3.011
52462W        W17282   1.608  32.957  11.712
52463W        W17283   1.421   1.948   0.522
52464W        W17284  27.471  36.549  12.075
52465W        W17285  24.176  35.363  14.473
52466W        W17286  11.485  27.374  12.379
52467W        W17287  14.251  37.294   5.016
52468W        W17288  32.418   3.169   3.246
52469W        W17289  11.083  12.272  13.051
52470W        W17290   4.721  13.838   2.706
52471W        W17291  41.832  28.524   1.707
52472W        W17292  41.035   9.738   3.536
52473W        W17293  41.847  43.505  14.977
52474W        W17294  10.200  36.040  13.016
52475W        W17295  33.368  35.329  13.412
52476W        W17296  37.856   9.052   0.070
52477W        W17297  28.127  43.521   1.778
52478W        W17298  15.143   4.666  14.854
52479W        W17299  44.452   3.937  14.842
52480W        W17300   6.756  23.025  14.857
52481W        W17301  35.473  11.788   0.947
52482W        W17302  34.822   7.940  12.492
52483W        W17303  35.877  36.299   4.743
52484W        W17304  15.237   8.691   1.776
52485W        W17305  19.148   6.891   0.240
52486W        W17306  34.382  25.159  13.919
52487W        W17307  14.236   6.689   1.298
52488W        W17308  27.476  20.144  13.547
52489W        W17309   3.805  33.121  13.831
52490W        W17310   0.839   7.777   4.396
52491W        W17311  32.534  39.437  10.717
52492W        W17312   7.873  18.590   0.694
52493W        W17313   8.732  43.211  10.797
52494W        W17314  14.338   1.280   0.788
52495W        W17315  16.308  32.497   9.637
52496W        W17316  17.010  20.966  12.404
52497W        W17317   4.433  43.218   3.665
52498W        W17318  15.341  35.863   3.131
52499W        W17319  37.640  43.409   3.739
52500W        W17320   6.062   8.606  10.419
52501W        W17321  18.629   4.468  12.945
52502W        W17322  43.459  30.631   0.171
52503W        W17323  16.786  16.202   1.903
52504W        W17324   1.658  19.249  10.694
52505W        W17325  36.832   7.323  14.415
52506W        W17326  18.742   4.175  10.633
52507W        W17327  17.568   1.745   2.704
52508W        W17328  42.230  13.293  10.799
52509W        W17329  31.108  17.519   0.903
52510W        W17330  30.406  40.330  13.933
52511W        W17331  27.687  23.792  11.102
52512W        W17332   9.258  36.038   0.463
52513W        W17333  25.652  16.160  14.973
52514W        W17334  42.996   5.476  11.650
52515W        W17335  25.521  22.356   0.742
52516W        W17336  26.493  37.569   0.052
52517W        W17337  39.052   2.527   3.824
52518W        W17338  18.220  23.252  14.476
52519W        W17339  17.094   4.796  10.836
52520W        W17340  25.041   2.805  13.027
52521W        W17341   3.324  31.411   0.182
52522W        W17342   6.266  23.838   3.259
52523W        W17343   6.432  25.489   1.288
52524W        W17344  27.020  38.047  12.710
52525W        W17345  25.703  27.918  12.894
52526W        W17346   9.858   1.249   4.667
52527W        W17347  31.059  25.137   5.342
52528W        W17348   3.259  16.800  13.568
52529W        W17349  44.863  34.594  12.007
52530W        W17350  42.194  34.384  10.692
52531W        W17351  42.658  44.120  12.504
52532W        W17352  23.654  37.691  11.545
52533W        W17353   4.714  21.556   2.949
52534W        W17354   9.383  20.237  13.411
52535W        W17355  27.152   4.969   0.347
52536W        W17356  14.210  34.857   4.169
52537W        W17357  19.583  24.965  12.107
52538W        W17358  15.184   3.466  13.046
52539W        W17359  39.329  35.996   4.781
52540W        W17360   8.919  17.579   2.746
52541W        W17361   0.500  34.411  12.815
52542W        W17362  18.963  40.850  12.165
52543W        W17363  36.520  37.516   4.196
52544W        W17364  15.388  25.511   4.156
52545W        W17365  24.759  13.241   3.603
52546W        W17366  23.602  42.443   2.787
52547W        W17367   4.731  35.644   4.964
52548W        W17368  20.650  10.153   4.283
52549W        W17369  37.984   0.435   3.201
52550W        W17370  23.891  30.818  14.541
52551W        W17371  32.945   2.447   2.405
52552W        W17372   8.721  12.330   4.622
52553W        W17373  26.497  18.897   0.192
52554W        W17374  41.937  42.494   4.306
52555W        W17375  16.113   6.443  12.734
52556W        W17376  32.998  31.959  12.779
52557W        W17377  11.344  37.000   5.011
52558W        W17378   7.752   4.930  10.400
52559W        W17379  31.616   7.972  12.068
52560W        W17380   2.455  18.230  12.616
52561W        W17381  20.987  23.708  12.571
52562W        W17382  22.627  35.977  13.884
52563W        W17383  10.060   8.028  12.859
52564W        W17384  25.542  15.647   0.053
52565W        W17385   4.028  43.080  13.970
52566W        W17386   0.809   0.742   1.231
52567W        W17387  18.135  27.284  14.384
52568W        W17388  10.741  43.742   1.787
52569W        W17389  35.285  43.895   1.261
52570W        W17390   9.860  39.679   4.034
52571W        W17391  23.230  20.794  11.974
52572W        W17392   3.324  28.242   2.833
52573W        W17393  41.178  14.142   1.857
52574W        W17394  31.928  44.801   0.465
52575W        W17395  34.082  26.539   3.261
52576W        W17396  11.307  21.656   4.583
52577W        W17397  16.923  21.488   2.325
52578W        W17398   1.452   3.339  12.206
52579W        W17399  22.284  29.474   3.120
52580W        W17400  21.563  11.397  14.691
52581W        W17401  23.270  35.476   4.257
52582W        W17402   6.288  25.693  14.016
52583W        W17403  19.027  11.300   2.858
52584W        W17404  41.058  20.935  12.906
52585W        W17405  38.500  28.154   2.275
52586W        W17406  25.144  30.027   2.329
52587W        W17407  37.978  13.352   0.178
52588W        W17408   1.242  40.753   4.188
52589W        W17409  42.234  11.532  11.111
52590W        W17410  17.546   6.242  11.564
52591W        W17411  31.578   8.315   1.809
52592W        W17412  13.312   8.731   1.928
52593W        W17413  41.313  20.954   1.697
52594W        W17414  17.940  10.379   1.193
52595W        W17415  22.525  20.812   4.500
52596W        W17416  11.975  16.559  12.855
52597W        W17417  11.799  33.903  11.839
52598W        W17418  30.644  19.576   1.780
52599W        W17419  39.113   3.823   1.759
52600W        W17420   2.618  41.511  11.073
52601W        W17421  10.763   3.780   4.530
52602W        W17422  16.968  22.449  12.922
52603W        W17423   1.439  22.451   1.656
52604W        W17424   1.842  35.116  10.680
52605W        W17425  15.820   1.881   2.344
52606W        W17426  24.769  33.650   2.899
52607W        W17427   9.119   6.203   2.682
52608W        W17428  16.648   3.744  13.876
52609W        W17429  17.836  41.808   3.674
52610W        W17430  21.019   7.180  11.534
52611W        W17431   7.230  16.277   0.200
52612W        W17432  22.694  33.660  12.983
52613W        W17433   0.928  12.390   0.278
52614W        W17434   7.600  21.312  13.387
52615W        W17435   1.541   2.322  10.581
52616W        W17436  28.182  35.581  12.187
52617W        W17437  27.595  35.948  13.360
52618W        W17438  28.451   4.163   9.811
52619W        W17439  38.293  36.563   2.303
52620W        W17440  42.374   9.357   0.470
52621W        W17441  30.153   4.317  14.402
52622W        W17442   1.285  30.575   0.578
52623W        W17443   5.359  12.666   0.851
52624W        W17444  11.649   9.997   0.921
52625W        W17445   2.151  10.139  11.630
52626W        W17446  27.515  23.447  11.452
52627W        W17447  19.792   2.201  11.368
52628W        W17448  12.758   4.980  14.834
52629W        W17449  41.445   8.254   4.573
52630W        W17450  27.857  31.883  14.748
52631W        W17451  18.362   2.808   4.104
52632W        W17452  12.415  21.790  11.926
52633W        W17453   7.718   2.335   2.590
52634W        W17454   1.277  34.620   1.697
52635W        W17455  22.037  23.442  14.079
52636W        W17456   6.418  33.387  14.825
52637W        W17457  28.183   7.749   1.447
52638W        W17458  14.019  15.078   4.612
52639W        W17459  43.865  21.246   0.755
52640W        W17460  10.663   9.559  14.101
52641W        W17461  15.300   5.634  14.455
52642W        W17462  26.048  19.507  14.886
52643W        W17463  25.529  39.164  14.758
52644W        W17464  33.599  38.826   4.358
52645W        W17465  15.608  15.351  13.274
52646W        W17466  31.900  42.314  13.739
52647W        W17467   0.921  14.730   3.174
52648W        W17468   6.765  15.895  13.367
52649W        W17469   0.843  42.961   2.818
52650W        W17470  17.579  19.503   0.442
52651W        W17471   4.346  11.300  12.284
52652W        W17472  34.559  24.815   2.499
52653W        W17473  12.897  36.754  13.597
52654W        W17474  34.093  25.948   1.752
52655W        W17475  30.128   5.398  11.159
52656W        W17476  22.468   7.303   3.757
52657W        W17477   7.813  39.657  11.041
52658W        W17478  25.087  14.373   0.783
52659W        W17479  24.263  12.800  13.461
52660W        W17480   5.303  11.358   3.306
52661W        W17481  20.163  35.455   4.230
52662W        W17482  38.034  15.280  12.946
52663W        W17483  25.115  29.263   4.737
52664W        W17484  13.663   2.327  13.857
52665W        W17485   3.624  22.727  12.197
52666W        W17486  22.283  33.583  13.331
52667W        W17487  28.954  33.236   2.476
52668W        W17488  39.932  32.580   2.745
52669W        W17489  23.571  42.993   1.515
52670W        W17490  39.490  22.952  14.950
52671W        W17491   4.281  40.115  11.144
52672W        W17492  16.918   3.823   1.851
52673W        W17493   8.704   3.303  12.213
52674W        W17494  36.185  38.872   3.113
52675W        W17495  25.716  21.490   2.655
52676W        W17496  40.567  30.580   0.100
52677W        W17497   7.955  27.874  12.406
52678W        W17498  41.867  34.496   4.504
52679W        W17499  32.451   1.503  11.680
52680W        W17500   1.945  24.755   1.987
52681W        W17501  28.149  14.990   1.797
52682W        W17502   2.605  18.152   1.327
52683W        W17503  14.841   6.815  11.964
52684W        W17504  32.352  31.703  10.247
52685W        W17505   7.668  14.830  12.594
52686W        W17506   0.179  24.200   4.943
52687W        W17507  43.560  35.417  13.502
52688W        W17508  15.521  31.036  12.990
52689W        W17509   8.169   4.723  11.127
52690W        W17510  34.918  10.848  14.358
52691W        W17511  18.333  16.784  14.276
52692W        W17512  40.886   9.379  12.925
52693W        W17513   2.232   2.744   3.429
52694W        W17514  37.101  14.657  11.339
52695W        W17515   3.872  31.274   2.268
52696W        W17516  32.027  16.521   2.501
52697W        W17517  25.614  35.102   1.829
52698W        W17518  26.903  29.565   3.216
52699W        W17519  33.675  30.700   4.811
52700W        W17520  30.310  39.305  14.817
52701W        W17521  10.255   5.366   3.707
52702W        W17522   9.789   7.660   1.157
52703W        W17523  20.121  14.556  11.965
52704W        W17524  22.283  26.121   4.127
52705W        W17525  23.575  27.480   2.684
52706W        W17526  13.812  14.503  11.088
52707W        W17527   9.256   1.421   4.690
52708W        W17528  34.100  36.129   0.919
52709W        W17529   7.855  14.711  12.142
52710W        W17530   1.329   4.472  13.059
52711W        W17531  30.574   1.196  12.885
52712W        W17532  27.752  31.051  13.636
52713W        W17533  22.721  17.153   1.221
52714W        W17534  41.414  37.451   1.991
52715W        W17535  11.804   9.740  14.560
52716W        W17536  35.129  27.596   1.209
52717W        W17537   0.996  23.576   0.435
52718W        W17538  36.034  39.907   2.678
52719W        W17539   6.181   5.406   4.227
52720W        W17540   3.415  10.653  11.183
52721W        W17541  14.588   4.013  12.575
52722W        W17542  20.291  22.727  11.996
52723W        W17543   4.218  23.211   2.709
52724W        W17544   6.819  43.992   0.080
52725W        W17545  19.923  17.870   2.327
52726W        W17546   9.453  11.835   4.481
52727W        W17547  36.660   0.519  11.622
52728W        W17548  44.257  42.824   4.610
52729W        W17549  37.817   3.303  12.605
52730W        W17550  13.604  12.293   0.382
52731W        W17551   5.985  42.908   4.127
52732W        W17552   1.808  18.659  12.624
52733W        W17553   5.131  36.525   2.766
52734W        W17554  33.450   0.405   0.422
52735W        W17555  19.642  11.115  10.908
52736W        W17556  13.646  42.014   3.369
52737W        W17557  11.815   5.962  14.738
52738W        W17558  21.530  18.699   3.746
52739W        W17559  37.966  18.816   4.837
52740W        W17560  34.943   4.320   3.262
52741W        W17561   7.633  10.650  12.816
52742W        W17562  29.368  38.075   4.641
52743W        W17563  19.628   3.628  11.627
52744W        W17564  11.420  28.704  14.950
52745W        W17565  38.409   8.172  12.890
52746W        W17566  26.192  15.153  13.396
52747W        W17567  32.235   1.322  13.427
52748W        W17568  28.050  38.312   0.188
52749W        W17569   5.830  25.266   4.137
52750W        W17570   0.761  29.343  13.965
52751W        W17571   9.350  24.417  12.571
52752W        W17572  12.270   3.398   1.318
52753W        W17573  19.005  23.932  14.374
52754W        W17574  23.999  32.187   1.043
52755W        W17575  18.340   6.903  13.836
52756W        W17576  29.674  19.989   3.263
52757W        W17577   8.361  28.353   2.264
52758W        W17578  34.639  31.568   0.869
52759W        W17579  21.808  13.923  11.657
52760W        W17580  22.672  39.319  14.347
52761W        W17581   7.944  13.111  13.180
52762W        W17582   7.788  18.539  14.675
52763W        W17583  28.717   6.242  11.181
52764W        W17584  32.001  30.122   2.605
52765W        W17585  17.242  31.974   1.238
52766W        W17586  24.025  14.904  10.807
52767W        W17587  34.584  19.937  12.899
52768W        W17588  17.185  13.760   4.585
52769W        W17589  44.061  12.669  14.367
52770W        W17590   7.155  27.015   0.490
52771W        W17591  13.264   1.030  11.166
52772W        W17592   9.105  42.508   1.336
52773W        W17593   5.489  12.295  12.850
52774W        W17594  30.150  20.327   2.796
52775W        W17595  17.232   9.175  14.803
52776W        W17596  31.388  21.359   0.886
52777W        W17597  41.560  28.459   2.765
52778W        W17598  28.570  11.501  14.891
52779W        W17599  22.103   4.726  12.099
52780W        W17600  20.525  43.803  11.747
52781W        W17601  24.886  14.043  13.131
52782W        W17602  38.039   5.403  11.199
52783W        W17603  28.681  12.692  11.631
52784W        W17604   6.684  34.984   1.697
52785W        W17605  10.891  15.799  13.896
52786W        W17606  41.585  40.933   3.521
52787W        W17607  34.475  23.162  12.904
52788W        W17608  24.921  43.211   0.817
52789W        W17609   8.563  11.364  11.280
52790W        W17610  22.956  34.062  11.170
52791W        W17611  37.836  33.879  11.224
52792W        W17612  30.005  18.458  10.338
52793W        W17613  12.749  17.351   1.820
52794W        W17614   3.569  16.108   4.559
52795W        W17615  20.133  36.100  12.762
52796W        W17616  10.251   0.379  13.060
52797W        W17617  27.018  16.429  11.554
52798W        W17618  11.769  27.477  10.627
52799W        W17619   0.011  17.741  11.046
52800W        W17620  20.547   8.688   4.184
52801W        W17621  31.498  40.579   0.331
52802W        W17622  31.632  27.451  14.395
52803W        W17623  29.232  26.189  14.870
52804W        W17624  27.455  40.591  14.452
52805W        W17625   8.693  16.863   2.350
52806W        W17626  37.088   6.683   1.176
52807W        W17627  22.781  19.585   9.742
52808W        W17628  17.085  25.614  14.456
52809W        W17629  24.463  24.404   4.655
52810W        W17630  25.734  10.819   1.818
52811W        W17631  31.205   4.850  13.028
52812W        W17632  37.542   4.384   1.341
52813W        W17633  15.660   7.240   0.324
52814W        W17634   1.601   8.217   4.649
52815W        W17635   7.229   2.196   3.668
52816W        W17636  20.815  39.489  11.998
52817W        W17637   4.661  40.283   1.741
52818W        W17638  23.018  23.052  10.759
52819W        W17639   1.940   7.250   1.320
52820W        W17640   6.333  44.483  12.372
52821W        W17641  11.299   1.159  10.952
52822W        W17642  26.176  14.606  12.997
52823W        W17643   8.483  21.581  10.776
52824W        W17644  22.361  33.953  11.133
52825W        W17645  39.882  17.108   2.309
52826W        W17646   4.122  23.707   4.582
52827W        W17647  44.930  37.749  14.977
52828W        W17648   9.355  30.874  14.452
52829W        W17649  43.997  40.058  13.064
52830W        W17650   7.138  33.979   1.903
52831W        W17651   4.040  15.846  12.785
52832W        W17652  27.409   1.527  14.805
52833W        W17653  13.472  41.629   3.694
52834W        W17654  40.002  23.088  13.005
52835W        W17655  39.317  22.400  13.349
52836W        W17656  30.584  32.805  11.643
52837W        W17657  31.886  21.803  13.529
52838W        W17658  16.460  24.634  13.852
52839W        W17659  32.710  13.745  11.697
52840W        W17660  21.707   7.143  14.018
52841W        W17661  43.704   1.692  14.915
52842W        W17662  34.786   4.772   4.730
52843W        W17663  10.048   3.185  11.801
52844W        W17664  44.463   1.005  14.096
52845W        W17665   3.567  16.323   0.742
52846W        W17666   9.115  19.734   0.878
52847W        W17667  26.025   8.303  11.427
52848W        W17668  39.015  32.946  10.082
52849W        W17669  11.290  16.302   0.877
52850W        W17670  31.347  16.017  10.793
52851W        W17671  40.770  14.786   0.058
52852W        W17672  13.543  38.585  11.224
52853W        W17673  34.624  25.305   2.241
52854W        W17674  11.363  27.128   0.935
52855W        W17675  19.589  37.514  10.153
52856W        W17676  10.758  22.414  11.373
52857W        W17677  44.349   1.748   1.270
52858W        W17678  30.530  35.219  10.079
52859W        W17679  28.439  26.591  14.595
52860W        W17680  19.701   1.437  14.058
52861W        W17681  34.159  22.256  13.807
52862W        W17682  41.537  41.577  12.574
52863W        W17683  13.767  13.038   4.772
52864W        W17684   1.293  30.964   1.172
52865W        W17685  26.135  43.205   0.280
52866W        W17686   7.833   2.498  14.057
52867W        W17687   6.700   9.226  14.457
52868W        W17688  36.687  21.422  10.044
52869W        W17689  17.193  19.950  14.919
52870W        W17690  32.268  33.979  14.785
52871W        W17691  39.330   9.216  10.950
52872W        W17692  18.680  33.798  13.937
52873W        W17693  42.583  30.586   4.597
52874W        W17694  34.484  11.287   1.177
52875W        W17695  32.418  40.920   1.425
52876W        W17696  29.335   7.350  13.580
52877W        W17697  27.504  41.652   3.307
52878W        W17698  22.463  37.257  14.509
52879W        W17699  38.583  22.274   1.305
52880W        W17700  44.147  38.186   2.192
52881W        W17701  19.004   1.195  11.265
52882W        W17702   5.902   8.901  12.100
52883W        W17703  41.747   1.634  13.477
52884W        W17704  36.498  39.508  11.081
52885W        W17705   5.882   9.737  14.034
52886W        W17706  27.083  28.705  11.130
52887W        W17707   3.303   4.631   3.657
52888W        W17708  32.861  43.040  11.102
52889W        W17709   0.863  23.486  11.991
52890W        W17710  10.423   8.761   2.770
52891W        W17711   0.457  25.146  10.690
52892W        W17712  17.053  18.077  14.854
52893W        W17713  19.096  21.450   2.724
52894W        W17714   7.830  28.358   2.246
52895W        W17715  11.367   9.709  10.831
52896W        W17716  18.622   7.927   0.410
52897W        W17717  32.446  13.642  12.602
52898W        W17718  11.271  41.023  14.785
52899W        W17719  28.615   9.761   3.415
52900W        W17720   2.171  22.209   4.214
52901W        W17721  27.531  20.783   2.651
52902W        W17722  13.895  12.301  12.177
52903W        W17723  21.784  43.024  12.362
52904W        W17724  23.307  42.320  11.182
52905W        W17725  29.525   4.429   0.432
52906W        W17726  11.311  17.185   1.160
52907W        W17727   2.341  19.005   2.408
52908W        W17728   4.143  27.235   4.587
52909W        W17729  39.773  21.316   1.303
52910W        W17730  44.602  26.729  12.612
52911W        W17731   1.736   6.959  14.109
52912W        W17732  12.203  43.640   4.089
52913W        W17733  29.694   4.958   4.768
52914W        W17734  31.098  31.481  11.229
52915W        W17735  21.230  36.470  11.313
52916W        W17736  20.489  10.342   3.841
52917W        W17737  17.780  10.864   3.593
52918W        W17738  26.990  43.271  11.480
52919W        W17739   3.052   7.310  14.317
52920W        W17740  11.728  38.911   4.578
52921W        W17741  43.933  36.923  14.725
52922W        W17742  19.075   6.102   4.026
52923W        W17743   9.592  28.047   1.318
52924W        W17744  16.552  26.242  13.821
52925W        W17745   3.925   3.911   4.443
52926W        W17746  26.487  42.077  11.908
52927W        W17747  42.058   0.330  13.783
52928W        W17748  31.225   9.340  14.232
52929W        W17749   8.468  17.389  12.901
52930W        W17750  23.150  25.940   0.453
52931W        W17751  36.538  40.543   2.332
52932W        W17752  19.188   5.654  13.413
52933W        W17753  39.538   5.720   1.348
52934W        W17754  22.028  43.007  11.591
52935W        W17755  10.463  30.062  11.655
52936W        W17756  20.153  11.189  10.637
52937W        W17757  16.084   7.013   2.691
52938W        W17758  13.575   5.179  12.388
52939W        W17759   0.426  41.763   1.217
52940W        W17760  17.914  20.711  10.722
52941W        W17761  36.603  36.603   0.245
52942W        W17762   5.127  31.701  11.004
52943W        W17763   7.478  36.485   4.979
52944W        W17764   9.264  23.801   2.616
52945W        W17765  13.245   9.804   0.423
52946W        W17766  26.544  41.915   2.703
52947W        W17767  20.756  42.942   1.837
52948W        W17768  26.579  11.795   4.486
52949W        W17769  27.473  33.515   1.245
52950W        W17770  18.565  31.122  13.388
52951W        W17771  28.451  39.551   4.597
52952W        W17772  21.210  19.454   2.217
52953W        W17773  13.263  35.389  13.525
52954W        W17774  43.862  30.191   0.898
52955W        W17775  24.092   9.827  10.523
52956W        W17776  24.663  17.137   2.176
52957W        W17777  34.084  16.463  12.924
52958W        W17778   4.267   8.429  14.981
52959W        W17779  23.311  15.229  13.114
52960W        W17780  41.532  16.732   3.928
52961W        W17781  21.463  34.828   3.232
52962W        W17782  12.706  16.189   2.246
52963W        W17783  15.668   2.933   2.353
52964W        W17784  43.712  41.780  11.997
52965W        W17785  27.729   2.898  13.013
52966W        W17786  15.295  33.048   2.232
52967W        W17787  37.847  32.575   0.030
52968W        W17788  31.534  16.082  12.503
52969W        W17789  16.964  19.523   1.310
52970W        W17790  39.435   5.865  11.202
52971W        W17791  20.615  38.083   1.492
52972W        W17792  17.313   7.889  11.628
52973W        W17793  28.069   5.705  10.801
52974W        W17794  22.339  14.896  11.117
52975W        W17795  43.527  28.429   0.197
52976W        W17796  23.600   9.821   3.662
52977W        W17797  39.375  38.141  12.801
52978W        W17798  18.050  23.751  13.758
52979W        W17799  38.403   6.099  14.829
52980W        W17800  16.701   9.416  12.509
52981W        W17801   5.814   9.659  10.457
52982W        W17802  31.542  28.496  11.126
52983W        W17803   4.498   9.597  12.025
52984W        W17804  13.904  21.284  13.997
52985W        W17805  26.639  27.608  10.625
52986W        W17806  10.290   6.658  12.598
52987W        W17807   9.948  36.318  11.602
52988W        W17808  37.975  10.405   0.315
52989W        W17809  41.084  38.969   3.806
52990W        W17810  21.482  29.137  12.973
52991W        W17811  36.017  44.491  14.590
52992W        W17812  33.212  36.309  11.545
52993W        W17813  35.671  14.854  14.878
52994W        W17814  31.579  36.090   2.848
52995W        W17815  10.886  21.032   4.977
52996W        W17816  29.654  11.009  12.026
52997W        W17817  15.049  35.289   3.398
52998W        W17818  42.433  16.218   2.374
52999W        W17819   7.644  34.986  13.148
53000W        W17820  39.759  21.902  13.389
53001W        W17821  25.955  23.911   3.143
53002W        W17822  44.756  31.046  14.140
53003W        W17823  13.509  19.704   4.690
53004W        W17824  44.870   9.618  12.893
53005W        W17825  44.001  37.515  11.603
53006W        W17826   7.241  23.360   2.180
53007W        W17827   0.779   8.887  13.591
53008W        W17828  23.450  30.595  14.449
53009W        W17829  31.496   4.403   2.217
53010W        W17830  43.338   1.202   2.797
53011W        W17831  10.406   7.697  13.807
53012W        W17832  27.624  24.661  11.219
53013W        W17833  22.980   7.313  12.461
53014W        W17834  22.043  16.696  14.581
53015W        W17835  15.646  31.106   3.927
53016W        W17836  36.892  16.972  14.889
53017W        W17837   3.486   0.634  14.070
53018W        W17838   0.012  41.983   2.274
53019W        W17839  14.630   6.696   1.858
53020W        W17840  17.375   0.018  12.537
53021W        W17841  22.003  39.907   0.263
53022W        W17842  10.376  23.040  13.039
53023W        W17843  44.605  44.501  13.800
53024W        W17844  24.473  31.166   4.296
53025W        W17845  11.244  25.099   2.341
53026W        W17846  44.755   6.642   0.857
53027W        W17847   3.298   6.776  10.765
53028W        W17848  28.390  33.064  10.980
53029W        W17849  28.902  26.219   2.904
53030W        W17850   3.428  35.505  12.538
53031W        W17851  38.803  17.962  11.169
53032W        W17852  43.768   9.648   2.777
53033W        W17853  24.287  18.725  12.949
53034W        W17854  22.337   9.011   0.367
53035W        W17855  26.107   3.618   4.992
53036W        W17856  41.031  32.673   3.118
53037W        W17857   5.674  35.313   2.761
53038W        W17858  26.902   2.214   4.578
53039W        W17859  35.907  11.111   1.281
53040W        W17860  32.221  36.868   2.669
53041W        W17861  12.124  19.273   0.387
53042W        W17862  12.081  27.092  13.008
53043W        W17863  15.345  18.509  11.166
53044W        W17864  32.470  35.209   0.351
53045W        W17865  37.484  35.852   3.177
53046W        W17866  24.393  42.285   0.789
53047W        W17867   5.843  43.826  12.469
53048W        W17868  21.795  37.788  12.601
53049W        W17869   0.391   6.078   4.344
53050W        W17870  22.114  27.561   2.627
53051W        W17871  10.280  19.652  13.365
53052W        W17872  14.313  44.345  12.860
53053W        W17873  10.593  25.944   0.323
53054W        W17874   8.847  31.952  13.898
53055W        W17875  16.296  26.929   1.755
53056W        W17876  43.436  17.610  14.817
53057W        W17877  27.330  44.505  11.524
53058W        W17878  12.396  19.583  13.457
53059W        W17879   5.338  23.439  10.327
53060W        W17880  21.501  12.739   2.628
53061W        W17881   5.769  40.783  12.066
53062W        W17882  38.830   8.581   0.102
53063W        W17883  21.517   1.169  14.223
53064W        W17884  40.053   0.994  12.515
53065W        W17885  27.684  42.572  12.762
53066W        W17886   6.108  19.722   2.466
53067W        W17887   3.495  40.052   3.738
53068W        W17888  15.701  20.774   4.821
53069W        W17889  40.019  18.806   4.627
53070W        W17890  28.822  39.697  13.618
53071W        W17891  38.140   5.907  12.878
53072W        W17892  40.928   2.569   1.303
53073W        W17893  39.431  44.919  13.500
53074W        W17894  44.292  14.636  11.233
53075W        W17895  30.549   8.608  10.504
53076W        W17896  15.399  31.130  14.392
53077W        W17897  19.356  44.651  11.155
53078W        W17898  24.373  26.040  14.480
53079W        W17899  12.186  10.649  11.853
53080W        W17900  44.419   1.267  11.599
53081W        W17901  42.992  11.723   4.566
53082W        W17902  20.834  10.584  11.216
53083W        W17903  44.932   7.379  12.093
53084W        W17904  10.403  27.041   1.740
53085W        W17905  14.782  23.136   0.875
53086W        W17906   5.696  18.752   3.511
53087W        W17907  30.170  16.051  14.835
53088W        W17908  39.439   6.988  13.613
53089W        W17909  35.018  42.647   1.799
53090W        W17910  29.972  16.694  12.012
53091W        W17911   9.432  19.907   0.210
53092W        W17912  18.247  36.649  14.845
53093W        W17913  24.277  41.323   1.346
53094W        W17914  34.526  33.566   0.783
53095W        W17915  17.229  16.934   4.469
53096W        W17916  36.821  21.219   2.733
53097W        W17917   3.854  42.480   2.901
53098W        W17918  44.646  11.887   0.381
53099W        W17919  27.555  11.101  12.119
53100W        W17920   2.720   6.836  13.466
53101W        W17921  20.285  28.905  13.459
53102W        W17922  20.588  32.093  13.329
53103W        W17923  40.391   0.537   1.864
53104W        W17924  36.694  11.397   3.416
53105W        W17925   5.277  18.520  13.891
53106W        W17926  22.032  32.156   4.637
53107W        W17927  11.238  26.690   1.646
53108W        W17928  18.105   7.350   3.034
53109W        W17929   4.132   3.328   2.410
53110W        W17930  35.973  24.459  12.335
53111W        W17931  18.229   8.796  10.238
53112W        W17932  10.389   9.480  12.867
53113W        W17933  37.145  16.958  11.167
53114W        W17934  14.728  16.084  13.749
53115W        W17935  19.285   5.971  11.528
53116W        W17936   2.080  11.619   0.270
53117W        W17937  19.416  39.353   0.393
53118W        W17938   3.421   0.811   2.658
53119W        W17939  10.780  38.652   4.223
53120W        W17940   2.089  35.590   1.469
53121W        W17941  20.928  34.331  10.808
53122W        W17942  31.454  43.720   2.371
53123W        W17943  32.275  42.869  10.239
53124W        W17944  37.929  35.600   3.070
53125W        W17945   5.670  25.563   1.814
53126W        W17946   9.693   9.852  10.939
53127W        W17947   2.470  12.097  13.485
53128W        W17948  38.482  25.094   1.043
53129W        W17949  44.316  19.570  14.200
53130W        W17950  32.883   6.135   2.111
53131W        W17951   2.200   9.878  10.716
53132W        W17952  20.863  37.202  13.902
53133W        W17953  31.884  21.685  12.650
53134W        W17954  10.422  42.933   2.799
53135W        W17955  36.385  15.854   0.441
53136W        W17956  14.197  26.467   2.820
53137W        W17957  33.531  24.035  12.017
53138W        W17958  29.219  30.416  10.405
53139W        W17959  18.764  19.044   3.720
53140W        W17960   9.306  38.274  10.518
53141W        W17961   2.369  12.300  11.190
53142W        W17962  29.191  24.395   2.284
53143W        W17963  21.940  44.777   3.566
53144W        W17964  32.403   5.302  11.488
53145W        W17965  16.878  36.188   3.199
53146W        W17966  16.729  42.253   3.071
53147W        W17967   8.241  13.531  13.317
53148W        W17968  40.921   3.440   3.200
53149W        W17969  14.416  18.685  11.265
53150W        W17970   0.232  14.386  14.248
53151W        W17971  39.230  30.439  11.186
53152W        W17972  26.696   8.992   4.020
53153W        W17973   1.552  37.001   1.264
53154W        W17974  34.515  20.757   0.169
53155W        W17975  22.568  12.703  12.930
53156W        W17976  22.979  17.777  12.942
53157W        W17977   0.053  34.457  14.296
53158W        W17978  31.566  26.688  12.947
53159W        W17979  39.458  31.685  12.509
53160W        W17980  25.027  26.238   4.831
53161W        W17981  13.684  15.809   1.285
53162W        W17982  16.902  22.775   2.337
53163W        W17983  17.607  42.850   0.876
53164W        W17984   9.708  10.616   2.295
53165W        W17985  16.214  30.600  12.424
53166W        W17986  12.359  44.531   4.225
53167W        W17987  28.467  10.241   3.580
53168W        W17988   0.218  39.853   0.898
53169W        W17989  23.261  42.052   0.853
53170W        W17990  22.471  12.185  11.128
53171W        W17991  18.099   8.867   4.588
53172W        W17992  23.297  18.898  13.343
53173W        W17993  26.640  21.123  12.314
53174W        W17994  12.342   7.430  13.395
53175W        W17995  21.041   5.346  12.774
53176W        W17996  23.245   2.073   0.320
53177W        W17997  11.802  33.781  12.821
53178W        W17998  30.541  42.366   0.472
53179W        W17999  16.460  10.960  10.324
53180W        W18000  27.119  12.957   4.797
53181W        W18001   1.920  29.021   3.621
53182W        W18002  35.101   6.692   3.544
53183W        W18003  32.217   7.492  13.521
53184W        W18004   1.360  27.416   0.760
53185W        W18005  20.774  15.700  10.215
53186W        W18006  11.364  26.220  11.047
53187W        W18007  13.790  27.546   3.641
53188W        W18008  41.747  26.783  11.681
53189W        W18009  21.354  13.143   3.727
53190W        W18010  26.697  44.928   1.345
53191W        W18011  43.266  37.817  12.993
53192W        W18012   5.683  31.600  12.151
53193W        W18013  14.227  10.211  14.814
53194W        W18014   5.686  14.569   3.175
53195W        W18015  15.226  43.070   3.268
53196W        W18016  32.568  41.709  12.084
53197W        W18017  36.613   0.145   2.009
53198W        W18018  38.911  30.889   1.281
53199W        W18019  11.142   9.909   1.071
53200W        W18020   9.100  33.788   2.122
53201W        W18021  22.092  28.025  11.311
53202W        W18022  13.261  20.320  12.928
53203W        W18023  22.743  30.027  11.682
53204W        W18024  24.227  34.021  13.956
53205W        W18025   4.542  41.491   1.416
53206W        W18026  19.634  28.447   1.249
53207W        W18027  31.395  25.331   4.995
53208W        W18028  15.791   5.773   2.600
53209W        W18029  22.969  18.735  14.870
53210W        W18030  34.921  32.443  11.595
53211W        W18031   5.746  12.212   0.953
53212W        W18032  35.806  12.144  13.307
53213W        W18033  13.597  31.165   0.714
53214W        W18034  35.805  40.917  12.009
53215W        W18035  31.993   6.657   1.824
53216W        W18036  15.463  13.562   1.202
53217W        W18037   8.213   7.101   4.428
53218W        W18038  16.367  34.846  12.972
53219W        W18039  10.584  13.188  10.150
53220W        W18040  22.570   5.640  12.115
53221W        W18041  27.141  12.424   1.175
53222W        W18042  39.482  11.767  12.897
53223W        W18043   1.035  24.085   0.587
53224W        W18044   7.912   5.412  12.971
53225W        W18045   0.885  15.552  14.017
53226W        W18046  28.684  16.188  14.628
53227W        W18047  26.444  30.677  10.541
53228W        W18048  41.069   2.203   0.317
53229W        W18049  37.344  33.085   4.581
53230W        W18050  21.065  21.470   2.236
53231W        W18051  27.936  26.279  12.474
53232W        W18052  15.638  10.878   2.668
53233W        W18053  27.725  10.899  12.806
53234W        W18054  23.004  38.476  13.284
53235W        W18055   4.407  18.240  14.937
53236W        W18056  20.576   8.824  13.083
53237W        W18057   4.669  21.278  10.727
53238W        W18058  17.210  17.299   2.346
53239W        W18059  18.209  21.149   3.593
53240W        W18060  36.382   7.883  13.991
53241W        W18061  41.864  34.396   0.104
53242W        W18062  43.496   0.785  11.531
53243W        W18063  30.586  28.709   0.125
53244W        W18064   6.234  41.924  12.380
53245W        W18065  33.383  22.131   1.347
53246W        W18066  44.941  21.706   1.995
53247W        W18067  35.977  28.447  10.374
53248W        W18068  41.562  21.037  14.908
53249W        W18069  40.822   0.182  14.372
53250W        W18070  22.729  18.589  11.670
53251W        W18071  19.105   8.915  12.763
53252W        W18072  43.506  18.765   0.552
53253W        W18073  37.155  19.802  12.401
53254W        W18074  36.836  12.860   3.184
53255W        W18075  40.265  17.237  10.705
53256W        W18076  20.602  11.802  12.656
53257W        W18077   0.422  40.294  13.033
53258W        W18078  43.780   6.537   3.762
53259W        W18079  34.006  16.239  13.993
53260W        W18080  30.603  28.147  10.573
53261W        W18081  19.534  38.969  14.253
53262W        W18082  30.136   5.355   4.052
53263W        W18083  31.635   9.080  12.686
53264W        W18084  36.771   6.686  13.881
53265W        W18085  17.995  22.250   4.559
53266W        W18086   9.853  40.476   3.674
53267W        W18087  40.829   1.252   3.289
53268W        W18088  42.753  31.214  14.795
53269W        W18089  26.465  22.208   2.603
53270W        W18090   7.879   7.880  13.535
53271W        W18091  40.911   2.878   0.791
53272W        W18092  19.574   2.947  14.367
53273W        W18093  35.879  34.995  13.889
53274W        W18094   7.061  42.537   1.346
53275W        W18095  42.239  34.308   3.010
53276W        W18096  21.594   6.579   2.206
53277W        W18097  33.736  36.445   1.730
53278W        W18098  28.352  30.002   1.293
53279W        W18099  37.521  39.905  11.659
53280W        W18100  19.743  43.919   0.960
53281W        W18101  30.955  15.297   4.094
53282W        W18102  21.036  13.219  14.858
53283W        W18103   7.414  10.196  14.795
53284W        W18104  16.701   4.972   2.244
53285W        W18105  21.099  15.782  11.059
53286W        W18106  34.848   4.696  13.455
53287W        W18107  27.706  14.392   1.183
53288W        W18108  34.348  31.641   4.899
53289W        W18109  16.324   3.270  11.526
53290W        W18110  38.442   5.400  14.261
53291W        W18111  28.788  43.406   1.432
53292W        W18112  10.403   0.866   5.282
53293W        W18113  28.675  18.225  10.622
53294W        W18114   8.401   0.736  14.040
53295W        W18115  11.324  16.902   3.325
53296W        W18116  37.597  32.044  14.288
53297W        W18117  10.138  42.083   4.277
53298W        W18118   3.771  20.454   4.648
53299W        W18119  44.532  18.322   3.757
53300W        W18120  25.987  26.248   3.334
53301W        W18121  41.767  18.546  11.064
53302W        W18122  17.013   7.282  14.013
53303W        W18123  31.877  29.564   3.862
53304W        W18124  24.399  35.194   9.760
53305W        W18125  43.430  18.157  14.409
53306W        W18126   2.876   8.148  14.832
53307W        W18127  22.513  36.233  13.458
53308W        W18128  19.833  14.141   0.646
53309W        W18129  24.274  30.650   3.900
53310W        W18130  11.107  36.173   2.154
53311W        W18131   1.451  30.483   3.782
53312W        W18132  26.187  15.791   1.305
53313W        W18133  27.366  36.973   4.266
53314W        W18134  10.995   7.638   0.678
53315W        W18135  37.532  13.169  12.842
53316W        W18136  17.126  11.074  10.057
53317W        W18137  28.203  22.848  11.496
53318W        W18138  42.085   4.335   0.023
53319W        W18139  21.130  13.126  10.521
53320W        W18140  35.989  13.933   1.442
53321W        W18141  36.838  39.098   4.500
53322W        W18142  43.406  40.520  13.111
53323W        W18143   0.366  37.698  13.874
53324W        W18144   8.480  19.974  11.114
53325W        W18145  17.256  12.580   1.153
53326W        W18146  35.069  40.542  14.887
53327W        W18147  12.418  26.415   4.304
53328W        W18148   3.009  30.066   0.681
53329W        W18149  12.412   2.244   4.888
53330W        W18150  36.541   9.145  12.914
53331W        W18151  44.379  19.519   2.199
53332W        W18152  42.529  24.563  12.175
53333W        W18153  36.534   6.285  10.424
53334W        W18154   6.667  19.126   1.331
53335W        W18155  12.937  15.404   1.762
53336W        W18156   6.887  22.565   0.795
53337W        W18157  14.245  23.677   0.417
53338W        W18158  34.574  23.963  12.185
53339W        W18159  18.075   0.980  11.112
53340W        W18160  28.477  20.997   4.698
53341W        W18161   4.767  22.224  14.293
53342W        W18162  29.050  27.922   1.313
53343W        W18163  32.655  33.845  13.396
53344W        W18164   4.751  21.133   1.029
53345W        W18165  38.132  24.037   2.258
53346W        W18166   5.968  22.457   0.885
53347W        W18167  26.147  25.631   1.075
53348W        W18168   4.357  19.306   4.116
53349W        W18169   9.222  37.528   0.282
53350W        W18170  36.952  14.115  12.815
53351W        W18171   8.358   0.317   3.273
53352W        W18172  38.872  30.089  10.535
53353W        W18173  24.338   4.080   0.365
53354W        W18174   0.589  28.184  13.811
53355W        W18175   4.798  19.712   0.346
53356W        W18176  30.687  18.271  12.552
53357W        W18177  17.998  38.239   3.641
53358W        W18178  13.062   7.433   4.435
53359W        W18179  23.305  12.632   0.644
53360W        W18180  15.088  10.670  13.416
53361W        W18181  43.260  40.438  10.620
53362W        W18182  30.697  44.983  10.919
53363W        W18183   0.265  27.583   3.678
53364W        W18184  16.826  35.844  11.384
53365W        W18185  36.909   1.082  13.516
53366W        W18186  18.505   1.215  11.323
53367W        W18187   8.276   0.959   4.635
53368W        W18188  28.648   6.782   3.391
53369W        W18189   1.831  42.415   3.436
53370W        W18190  14.651  18.685   1.849
53371W        W18191  21.339   4.430  11.693
53372W        W18192  35.649   9.841  14.645
53373W        W18193   6.269  34.565  12.835
53374W        W18194  35.287   9.252   2.311
53375W        W18195  25.096  24.023  11.667
53376W        W18196  30.449  23.426  11.616
53377W        W18197  12.852  18.723   2.833
53378W        W18198  10.799   2.131  13.349
53379W        W18199  30.136  17.027   5.077
53380W        W18200  31.363  40.922   0.697
53381W        W18201  22.814   0.021  11.047
53382W        W18202  35.950  35.797  13.689
53383W        W18203  43.816  15.512  11.478
53384W        W18204  36.504  44.269   4.639
53385W        W18205  43.917  20.576   2.470
53386W        W18206  21.209  38.449  11.507
53387W        W18207  42.902  40.512  12.910
53388W        W18208  11.303   3.720  11.462
53389W        W18209  42.610  37.535   4.629
53390W        W18210  18.345  19.094   2.243
53391W        W18211  10.055  12.105  13.053
53392W        W18212  35.438  21.741   2.693
53393W        W18213   1.744  36.043   0.783
53394W        W18214  16.164  10.639   2.716
53395W        W18215  17.485  38.754   2.359
53396W        W18216  21.125   0.032  11.303
53397W        W18217   5.435  18.034  14.214
53398W        W18218  20.699  29.330  14.661
53399W        W18219  42.964  42.049   1.725
53400W        W18220   3.123  42.963   3.528
53401W        W18221   4.450   3.712   2.187
53402W        W18222   0.726  16.574  12.233
53403W        W18223  32.824   6.990  14.065
53404W        W18224  39.243   4.524  13.913
53405W        W18225  21.464  32.281  11.655
53406W        W18226  14.361  25.011  10.594
53407W        W18227  17.823  27.474  12.504
53408W        W18228   8.597  31.867  14.373
53409W        W18229  10.120  25.589   2.206
53410W        W18230  22.269   0.418   3.653
53411W        W18231  19.100  27.994   2.036
53412W        W18232  29.266   9.845  13.819
53413W        W18233  11.571  24.101  14.880
53414W        W18234  36.887  36.464  10.445
53415W        W18235  12.424   1.191  13.949
53416W        W18236  37.854  30.241   3.574
53417W        W18237  40.335  35.978  14.406
53418W        W18238  39.009  33.051  13.122
53419W        W18239  32.845  36.798  12.737
53420W        W18240  35.951  27.962   1.488
53421W        W18241  23.539  10.267   2.363
53422W        W18242  12.293  30.575  12.597
53423W        W18243  40.319  35.959   4.060
53424W        W18244  13.807  20.106  14.931
53425W        W18245  29.024   3.171  13.426
53426W        W18246  27.540   5.482   3.207
53427W        W18247  35.485   1.544  11.403
53428W        W18248  16.682  24.170   1.836
53429W        W18249  13.207  39.810  13.547
53430W        W18250  23.970  39.697  10.799
53431W        W18251  18.723  27.766   0.732
53432W        W18252  28.142  21.737  13.869
53433W        W18253  33.141  10.598   0.287
53434W        W18254   2.465   1.304  12.234
53435W        W18255  15.605   9.952  13.352
53436W        W18256  35.612  31.218   4.430
53437W        W18257  28.992  41.605   0.833
53438W        W18258  44.812  36.202  12.056
53439W        W18259  20.601  38.415   3.312
53440W        W18260  14.376  23.074   3.388
53441W        W18261  26.508  13.601   1.248
53442W        W18262  39.078  24.066   2.704
53443W        W18263  37.865   0.756  12.624
53444W        W18264  36.549  29.644   3.876
53445W        W18265  28.007  37.461  14.898
53446W        W18266  10.933   6.772  12.021
53447W        W18267  36.474  37.634   1.820
53448W        W18268  30.068  20.144  13.603
53449W        W18269   2.004   6.123  11.886
53450W        W18270  13.260  18.186  14.558
53451W        W18271   1.964  22.645   2.893
53452W        W18272   2.013  16.371   4.686
53453W        W18273  32.248   9.931   0.027
53454W        W18274  24.257  24.244   1.290
53455W        W18275   2.813   0.411   0.970
53456W        W18276  23.144   5.653  14.823
53457W        W18277  43.451  27.010  14.815
53458W        W18278  34.179  12.283  13.909
53459W        W18279  23.676  33.701  14.758
53460W        W18280  41.825  21.706   1.757
53461W        W18281  32.710   8.478  11.203
53462W        W18282  19.785  35.547   1.003
53463W        W18283  19.518  13.748  13.525
53464W        W18284   2.186  28.172  12.022
53465W        W18285   7.896  18.605  11.721
53466W        W18286   8.925   4.662   3.759
53467W        W18287  17.617  44.566   2.786
53468W        W18288  21.834  39.867   4.588
53469W        W18289  12.703  21.507  14.441
53470W        W18290  29.607  36.039   4.402
53471W        W18291  10.395  39.045  11.692
53472W        W18292  38.001  36.586  11.648
53473W        W18293   0.992   2.947  10.718
53474W        W18294   2.685   5.385   0.435
53475W        W18295  25.662  15.769  10.734
53476W        W18296  15.664  39.744   9.938
53477W        W18297   2.305   1.564   4.673
53478W        W18298  20.999  43.434  14.322
53479W        W18299  31.951  28.989  12.119
53480W        W18300   4.245  37.900  10.881
53481W        W18301  14.343  29.570  12.131
53482W        W18302   4.310  30.031  12.071
53483W        W18303  34.511  15.012  11.568
53484W        W18304  35.112  19.105   0.027
53485W        W18305   3.478  27.154   3.284
53486W        W18306  30.737  11.984  10.820
53487W        W18307  30.973   9.152   3.206
53488W        W18308  13.347   6.203  10.536
53489W        W18309  38.719  35.511   1.741
53490W        W18310  20.751  40.255  13.833
53491W        W18311  39.303  34.150   0.112
53492W        W18312   8.521   9.813   0.294
53493W        W18313   6.255  20.803  11.067
53494W        W18314  22.265  30.445  11.087
53495W        W18315  17.824  36.288  11.229
53496W        W18316  12.655   3.275   3.087
53497W        W18317  21.685  11.012  12.602
53498W        W18318   8.198  32.847   0.793
53499W        W18319  23.335  21.736  12.135
53500W        W18320   4.862  11.936  14.942
53501W        W18321   1.530  10.235  11.002
53502W        W18322  25.564   2.903  13.051
53503W        W18323  17.016  22.955   4.468
53504W        W18324   0.918  44.928   4.102
53505W        W18325  27.037  24.458  13.501
53506W        W18326  29.429  41.795  12.575
53507W        W18327  19.656   4.506   5.014
53508W        W18328  14.713  12.927   0.075
53509W        W18329  20.101  44.794  12.279
53510W        W18330  12.101  24.100  11.165
53511W        W18331  38.632  41.930   1.869
53512W        W18332  12.828  17.161  13.858
53513W        W18333  28.423  34.746  14.734
53514W        W18334  33.196  37.038  10.751
53515W        W18335  38.627   2.013   4.601
53516W        W18336  35.256  38.571  11.105
53517W        W18337  39.908   7.358  13.593
53518W        W18338  37.572  36.202   1.257
53519W        W18339  20.717   5.136  10.588
53520W        W18340  33.066  44.943  12.070
53521W        W18341   0.543  10.251  10.741
53522W        W18342  14.796  32.682   0.836
53523W        W18343  34.360   6.183   1.296
53524W        W18344   1.847  33.885   0.025
53525W        W18345  17.792  39.989   3.549
53526W        W18346   8.816  42.704  11.520
53527W        W18347  36.358  19.581   1.415
53528W        W18348   2.202  37.869  14.278
53529W        W18349   9.690  12.764  14.469
53530W        W18350  27.458  42.026  10.572
53531W        W18351  15.835  28.669   3.325
53532W        W18352  41.791  35.360  11.970
53533W        W18353   2.930  24.087  13.868
53534W        W18354   0.815   4.662  14.785
53535W        W18355  31.915  34.121  12.016
53536W        W18356  32.865   1.692   4.875
53537W        W18357  11.309   1.250   1.472
53538W        W18358  27.996   0.803  11.597
53539W        W18359  19.316  14.417  11.393
53540W        W18360  30.406  41.127   4.334
53541W        W18361  20.145  10.952  13.815
53542W        W18362  27.212  43.161   2.124
53543W        W18363  13.159  37.961  12.119
53544W        W18364  24.635  42.309   0.040
53545W        W18365  40.039   1.725   3.117
53546W        W18366   0.205  38.677  10.133
53547W        W18367  22.635  41.996  12.905
53548W        W18368  35.067   1.088   3.738
53549W        W18369  10.548  19.630  12.147
53550W        W18370  25.483  36.136  14.312
53551W        W18371  34.969   6.194   0.718
53552W        W18372   6.333  24.874  11.026
53553W        W18373   8.052   3.436  11.464
53554W        W18374  33.619  30.558  13.699
53555W        W18375  10.633  29.624   1.795
53556W        W18376  44.958  10.943  13.101
53557W        W18377  41.837  13.678  12.511
53558W        W18378   4.920  18.371   1.359
53559W        W18379  24.386  38.585  10.370
53560W        W18380  42.061  40.060   2.150
53561W        W18381  11.964   7.164   2.699
53562W        W18382  30.992   9.352   0.585
53563W        W18383  16.558   9.425   0.731
53564W        W18384  29.977  40.557  13.007
53565W        W18385  13.627   4.575  12.024
53566W        W18386  11.082  12.170   2.311
53567W        W18387  31.228  35.381  13.970
53568W        W18388  40.495  36.088   0.717
53569W        W18389  22.608  29.125  10.175
53570W        W18390  24.550  13.833   1.420
53571W        W18391   1.619  27.582  10.550
53572W        W18392  19.223  12.590   4.676
53573W        W18393  42.819   3.865   0.093
53574W        W18394  36.431   6.801   1.823
53575W        W18395   2.242  40.281   1.818
53576W        W18396  17.276  44.984  11.605
53577W        W18397  27.102  34.195   5.347
53578W        W18398  15.755  17.145  13.896
53579W        W18399   6.214  11.392   1.826
53580W        W18400  21.871  38.049   4.298
53581W        W18401  31.393   6.308   3.627
53582W        W18402  33.525  32.062  10.677
53583W        W18403   4.496  27.745  12.858
53584W        W18404  16.215   0.161   3.417
53585W        W18405  19.450  33.033   3.407
53586W        W18406  35.134   9.381   2.796
53587W        W18407  29.658  36.983  11.470
53588W        W18408  37.303  16.785  10.714
53589W        W18409  39.584  41.536   1.408
53590W        W18410  13.047  31.532   3.634
53591W        W18411  16.117  29.219   3.523
53592W        W18412  21.493  31.619  11.216
53593W        W18413   4.362  31.856  10.692
53594W        W18414  44.289   3.042  11.603
53595W        W18415  32.947  20.465  12.352
53596W        W18416  23.850   5.694  13.975
53597W        W18417  16.114  25.696  13.456
53598W        W18418   1.249   7.467   0.762
53599W        W18419  35.624  40.441  11.938
53600W        W18420  36.562  19.778   0.507
53601W        W18421  43.028   3.352  12.350
53602W        W18422   6.343   5.196  13.755
53603W        W18423   1.119  28.090   2.489
53604W        W18424  24.974  26.412   3.212
53605W        W18425  26.924  34.490   1.809
53606W        W18426  15.184  26.730   0.480
53607W        W18427  24.116  14.391   1.740
53608W        W18428  40.697   9.682   0.280
53609W        W18429  36.649   6.346   1.727
53610W        W18430  31.611  20.587   4.590
53611W        W18431   9.777  31.564  11.168
53612W        W18432  25.561   0.769   3.697
53613W        W18433  43.341  40.051   1.836
53614W        W18434   3.063  16.693  11.718
53615W        W18435  29.840   2.830  11.218
53616W        W18436  38.366  26.952   1.037
53617W        W18437   6.785  37.857  10.732
53618W        W18438  20.105  27.170   3.851
53619W        W18439  21.923  44.364   1.941
53620W        W18440   1.701  34.975  14.923
53621W        W18441  36.412  13.087   2.847
53622W        W18442  16.635  41.806  11.974
53623W        W18443  10.116   8.421   0.874
53624W        W18444   7.189  23.945  14.759
53625W        W18445   2.096  17.619   2.322
53626W        W18446  12.182   3.730  11.461
53627W        W18447  18.237  20.962   0.032
53628W        W18448  31.983   1.164   3.244
53629W        W18449  44.579  23.004   4.815
53630W        W18450  34.353   5.967  13.736
53631W        W18451  41.474  31.252  14.603
53632W        W18452  25.563  37.372  12.998
53633W        W18453   8.425  34.868   0.984
53634W        W18454  11.175  23.686  12.925
53635W        W18455   8.874  14.831  14.949
53636W        W18456  33.418  18.784  11.403
53637W        W18457   9.896   2.239   4.296
53638W        W18458  36.612  26.851   9.510
53639W        W18459  42.323  25.003   2.065
53640W        W18460  32.846  39.304  11.125
53641W        W18461  22.300  37.074  10.512
53642W        W18462  35.888  27.470   3.646
53643W        W18463  43.353  18.257   5.294
53644W        W18464  37.039  21.760  11.093
53645W        W18465  30.616  14.866   1.720
53646W        W18466   5.926  19.541   3.267
53647W        W18467   3.986  16.594   2.310
53648W        W18468  18.625  26.829  14.670
53649W        W18469  44.284   8.143  12.322
53650W        W18470  34.997  10.153   0.752
53651W        W18471  42.895  32.266  12.674
53652W        W18472  36.912   3.164  11.050
53653W        W18473  42.314  21.756  12.915
53654W        W18474  23.998  38.786   2.838
53655W        W18475  17.568  16.131   0.427
53656W        W18476  20.144  13.214  12.180
53657W        W18477  34.062  14.985  11.310
53658W        W18478  33.478   9.135  12.659
53659W        W18479  18.273  36.108   1.343
53660W        W18480  42.457  22.632   3.780
53661W        W18481  38.153   2.443   3.982
53662W        W18482   8.154  27.523   3.725
53663W        W18483   0.899  14.746  12.101
53664W        W18484  24.058  14.016  14.007
53665W        W18485  27.009  43.744  11.181
53666W        W18486  25.037  23.558   1.382
53667W        W18487  32.801  20.608  13.490
53668W        W18488  34.044  19.075  13.007
53669W        W18489  19.037  26.433  10.944
53670W        W18490  13.029  14.276  12.719
53671W        W18491   9.339  36.301   2.359
53672W        W18492  25.908  13.761   0.725
53673W        W18493  15.049   8.335   1.463
53674W        W18494   0.985   1.260  14.978
53675W        W18495  15.815   2.007   4.152
53676W        W18496  20.017  25.675  14.180
53677W        W18497  19.343  19.571   0.949
53678W        W18498  20.663  41.189  12.588
53679W        W18499  15.167  24.090   1.011
53680W        W18500   5.319  22.848   4.239
53681W        W18501  37.423  35.023   1.798
53682W        W18502  16.156  27.068  10.894
53683W        W18503  20.832  24.756  11.748
53684W        W18504  19.037   0.915  12.918
53685W        W18505  30.596  33.917  13.354
53686W        W18506  12.922  25.709   4.751
53687W        W18507  30.579  31.986   3.578
53688W        W18508  36.017  38.445   4.062
53689W        W18509   9.129   4.897  14.042
53690W        W18510  42.414   9.216   3.839
53691W        W18511  11.748  15.287   3.565
53692W        W18512  23.024   0.728   4.145
53693W        W18513  14.654   2.212   0.727
53694W        W18514  21.949   6.621   9.874
53695W        W18515   5.966  37.991  12.891
53696W        W18516  20.766  16.063   0.987
53697W        W18517  30.067   0.891   2.375
53698W        W18518   4.343  25.878   2.422
53699W        W18519  12.563  10.887  11.160
53700W        W18520  34.102  39.379  14.874
53701W        W18521   1.658  29.111   0.612
53702W        W18522  18.681  26.566   3.124
53703W        W18523  19.307  42.281   2.320
53704W        W18524  35.345  42.533   2.183
53705W        W18525   9.566  40.790   4.586
53706W        W18526  10.681  12.399   1.343
53707W        W18527  44.354  20.119   3.343
53708W        W18528  26.621  25.757   4.154
53709W        W18529  44.252  40.343  14.433
53710W        W18530  29.948  11.695  10.978
53711W        W18531  33.992  13.162  14.498
53712W        W18532  15.604   0.034   1.003
53713W        W18533  38.759   4.284   4.666
53714W        W18534  13.413  29.667  12.107
53715W        W18535  21.197  33.961  14.689
53716W        W18536  15.604  25.834  10.594
53717W        W18537  39.778   7.880  11.690
53718W        W18538  23.653  30.619  11.921
53719W        W18539   6.301  24.005  10.694
53720W        W18540  39.177  21.783  12.974
53721W        W18541  40.974  25.471  13.244
53722W        W18542  22.220  27.357  14.858
53723W        W18543  24.529  13.078   0.967
53724W        W18544  27.654  19.261  10.451
53725W        W18545  26.447  18.778  13.862
53726W        W18546  40.515  42.730   1.948
53727W        W18547  14.115  44.764  11.934
53728W        W18548  18.067  33.706  11.179
53729W        W18549  21.460  40.818   3.584
53730W        W18550  34.928  38.743   0.482
53731W        W18551   4.012  35.661  11.586
53732W        W18552  28.253  19.062  13.008
53733W        W18553   2.482  29.516  11.179
53734W        W18554  25.142  30.010  14.551
53735W        W18555  24.217  21.203   4.277
53736W        W18556  44.455  36.282   4.169
53737W        W18557  28.685  42.510   2.623
53738W        W18558  28.586  23.992   1.427
53739W        W18559  29.312   9.521  11.138
53740W        W18560  17.205  12.054  14.863
53741W        W18561  38.053  22.585   0.624
53742W        W18562  36.136  40.362   4.933
53743W        W18563  28.979   1.389   3.986
53744W        W18564  22.263  15.864   1.754
53745W        W18565  27.255   4.002   1.875
53746W        W18566  32.916  11.024   3.327
53747W        W18567  24.571  10.819  12.389
53748W        W18568  10.340  34.627   3.769
53749W        W18569   7.332  19.067  12.426
53750W        W18570  12.929  25.121  14.481
53751W        W18571  27.535  42.304  11.868
53752W        W18572  12.321  33.557  13.857
53753W        W18573   0.298  40.414   1.244
53754W        W18574  13.000  21.482   4.543
53755W        W18575  35.869  13.164  11.318
53756W        W18576  32.485  35.876   3.293
53757W        W18577  42.842  38.091   2.817
53758W        W18578   5.836  35.578   4.680
53759W        W18579  12.637  35.522  11.138
53760W        W18580  38.052  28.354  14.072
53761W        W18581   5.155  33.082   2.022
53762W        W18582   7.384  34.570   4.605
53763W        W18583  22.767  17.341  11.175
53764W        W18584  25.427  32.696   2.726
53765W        W18585  28.326   4.793   4.904
53766W        W18586  15.670  19.388  14.287
53767W        W18587  23.089  42.330  12.640
53768W        W18588  35.017  25.135   1.247
53769W        W18589  21.949  22.223  11.152
53770W        W18590  28.077   0.503   1.959
53771W        W18591  11.862  44.573  11.096
53772W        W18592  25.135  21.273   4.217
53773W        W18593  33.971   4.659   1.842
53774W        W18594   8.891  30.380  11.885
53775W        W18595  38.594   3.829   1.734
53776W        W18596  31.360  34.895   1.217
53777W        W18597  43.307  14.511  13.494
53778W        W18598   8.520  22.728   2.124
53779W        W18599  36.257   8.697  11.233
53780W        W18600  20.288  17.644   1.741
53781W        W18601  40.519  32.519   0.920
53782W        W18602  29.902  19.582  11.176
53783W        W18603   0.461  26.154  10.940
53784W        W18604   4.423  34.312  12.049
53785W        W18605  43.470   2.958   2.190
53786W        W18606  11.098   1.161   0.923
53787W        W18607  17.087  24.940   3.992
53788W        W18608  34.824  43.724   2.655
53789W        W18609  32.428   7.314   4.718
53790W        W18610  43.034  20.606  10.783
53791W        W18611  44.600  35.063  11.989
53792W        W18612   2.700  29.692   0.483
53793W        W18613  17.495  33.238   2.601
53794W        W18614  31.554  28.472  14.780
53795W        W18615   3.506   3.355  11.241
53796W        W18616  36.581  28.954  12.480
53797W        W18617  24.980  31.969   0.774
53798W        W18618  27.066  39.837   0.528
53799W        W18619   5.221   6.865  10.637
53800W        W18620  38.981  10.259  14.284
53801W        W18621  44.818   8.343   3.698
53802W        W18622  12.681  18.443   0.280
53803W        W18623  11.559  28.570  13.250
53804W        W18624  17.726   7.645  14.217
53805W        W18625  11.175   7.338  12.440
53806W        W18626  43.487   2.476   3.227
53807W        W18627  41.912  27.632   1.864
53808W        W18628  28.389   6.359  12.791
53809W        W18629  39.370   1.232   0.795
53810W        W18630  44.013  12.203   3.593
53811W        W18631  44.315   5.389   0.991
53812W        W18632  23.515  40.458  12.471
53813W        W18633   9.528   1.575   2.785
53814W        W18634  11.419  11.901   2.601
53815W        W18635  12.937  40.409   0.903
53816W        W18636   0.269   9.710   3.555
53817W        W18637  12.240  31.804   3.562
53818W        W18638  15.827  32.065   4.161
53819W        W18639  16.507  26.632   2.774
53820W        W18640  40.549  40.873   0.989
53821W        W18641  29.924   6.338   0.832
53822W        W18642  15.752  27.087  11.504
53823W        W18643  18.487  27.973  11.029
53824W        W18644   2.333  31.953   3.205
53825W        W18645  13.516  29.599  14.447
53826W        W18646   4.275  11.085   3.278
53827W        W18647  29.108  22.987   3.896
53828W        W18648  37.955  19.319  10.726
53829W        W18649  44.839   5.236   4.596
53830W        W18650  26.780   7.391   4.119
53831W        W18651  26.252  16.681   4.080
53832W        W18652  42.415  15.420   1.496
53833W        W18653  26.463  11.614   1.311
53834W        W18654  10.427  26.219   2.872
53835W        W18655  15.376  38.444   3.065
53836W        W18656   1.103  43.401   2.715
53837W        W18657  29.595  31.057   0.472
53838W        W18658  44.996   3.152   0.575
53839W        W18659   7.441  33.696   3.148
53840W        W18660   5.365  44.490  12.055
53841W        W18661  30.059  25.921  14.651
53842W        W18662  39.927  36.370   2.063
53843W        W18663  38.345  29.184   3.795
53844W        W18664   6.313  25.248   0.854
53845W        W18665  39.472  26.714   0.337
53846W        W18666  15.206  16.629  12.068
53847W        W18667   8.416  18.333   2.830
53848W        W18668  16.223  33.745  11.785
53849W        W18669  43.462  19.784  12.442
53850W        W18670  28.680  40.595   1.612
53851W        W18671   9.696  21.634  13.190
53852W        W18672  28.186  28.561   3.691
53853W        W18673  20.119   4.308   1.956
53854W        W18674  43.360  19.538  14.397
53855W        W18675  30.039  26.675  13.858
53856W        W18676   9.663  23.987  11.680
53857W        W18677   2.911  42.274   2.948
53858W        W18678  26.317  38.479  14.174
53859W        W18679  23.094  26.544   1.343
53860W        W18680   2.849  31.155   3.175
53861W        W18681  22.144  23.736  14.503
53862W        W18682  37.814   2.845   3.998
53863W        W18683  18.225  17.141   0.025
53864W        W18684  14.187   2.886  12.518
53865W        W18685  43.364   6.410  14.822
53866W        W18686   9.747   3.445   3.852
53867W        W18687  36.965   4.987   0.346
53868W        W18688  15.152   1.714  13.286
53869W        W18689  18.801  29.739   0.848
53870W        W18690  35.188  43.205   0.451
53871W        W18691  15.252  39.464   4.223
53872W        W18692  11.350  13.028   4.498
53873W        W18693  16.180  10.384   1.226
53874W        W18694  21.180   1.963  12.464
53875W        W18695  44.840  43.892   0.855
53876W        W18696   1.216  43.932  12.397
53877W        W18697  19.542  32.404   2.730
53878W        W18698   8.303  10.352  10.454
53879W        W18699  23.543  18.679   5.547
53880W        W18700  42.486   9.562   3.460
53881W        W18701  29.955  25.291  12.568
53882W        W18702  20.329  32.035   2.788
53883W        W18703   4.999  32.103   3.121
53884W        W18704  10.742  15.766   1.495
53885W        W18705  19.256  37.041   0.801
53886W        W18706  12.005   3.868  14.885
53887W        W18707  19.165  25.736   0.411
53888W        W18708   0.299  16.283   0.068
53889W        W18709  29.973   9.816   2.169
53890W        W18710  39.298   7.436   1.746
53891W        W18711  41.533  35.567  14.730
53892W        W18712  13.880  16.077   3.710
53893W        W18713  16.670   6.832  11.141
53894W        W18714   5.273   5.281  10.832
53895W        W18715  13.303   9.825   3.246
53896W        W18716  24.458  40.293  13.281
53897W        W18717   1.379  39.423  12.064
53898W        W18718   4.670  44.252   0.412
53899W        W18719  21.484   7.807   3.833
53900W        W18720  21.964   4.228  12.722
53901W        W18721  11.933  41.348   2.778
53902W        W18722  42.063  37.273   3.197
53903W        W18723  21.178   3.265  11.978
53904W        W18724   0.817   5.349  10.664
53905W        W18725  27.156  33.936   1.199
53906W        W18726  35.151  34.992   3.184
53907W        W18727   0.293  33.914   0.798
53908W        W18728  22.956  35.614  11.140
53909W        W18729  43.616  24.203  14.611
53910W        W18730  18.043  35.156  12.713
53911W        W18731   6.565  18.071  11.634
53912W        W18732  23.667  44.212  13.456
53913W        W18733   0.917  42.531   0.060
53914W        W18734  39.461  22.659  12.392
53915W        W18735  41.964  19.236  12.044
53916W        W18736  28.429  26.642   1.953
53917W        W18737  17.616  38.772  14.316
53918W        W18738  23.800   7.464   4.799
53919W        W18739  12.255  37.436  13.982
53920W        W18740   3.317   1.922  14.441
53921W        W18741   9.848  34.990   4.611
53922W        W18742  35.768  13.783   1.881
53923W        W18743  44.367  37.738  14.396
53924W        W18744  15.350  17.501   0.707
53925W        W18745  13.862  39.882  10.552
53926W        W18746  26.966   2.368   1.003
53927W        W18747   0.001  13.327  11.577
53928W        W18748  15.546  42.017  13.059
53929W        W18749  38.268  11.886  13.641
53930W        W18750  20.844  43.751   3.893
53931W        W18751  10.833  13.598   5.315
53932W        W18752  19.767   9.984   1.301
53933W        W18753   1.947  24.697  10.755
53934W        W18754  17.190  42.248   2.872
53935W        W18755  20.640   7.656   4.093
53936W        W18756  33.775   7.560  11.009
53937W        W18757  34.807  27.371  11.848
53938W        W18758   5.413   1.417   4.589
53939W        W18759  25.432  14.207  14.893
53940W        W18760  20.565   3.161   0.341
53941W        W18761  24.969  12.280   3.883
53942W        W18762   1.376  42.277   0.821
53943W        W18763  14.362   4.136  11.229
53944W        W18764  27.421  27.906   0.795
53945W        W18765  36.549  32.878  14.491
53946W        W18766  35.495   4.265   1.278
53947W        W18767  35.359   8.682   4.543
53948W        W18768  35.870  42.975  11.197
53949W        W18769   8.133  13.143  13.659
53950W        W18770  18.915  18.970  12.536
53951W        W18771  32.947  35.933   1.320
53952W        W18772  34.505  42.868  10.201
53953W        W18773  34.130  35.450  13.865
53954W        W18774  39.792  13.362   2.797
53955W        W18775  11.682  17.362   4.521
53956W        W18776  35.978  21.626   3.719
53957W        W18777  23.209  44.229   2.306
53958W        W18778  43.992  33.636  12.052
53959W        W18779  25.989  27.119  12.040
53960W        W18780  40.162  34.015  13.006
53961W        W18781   0.587  15.328   1.685
53962W        W18782  21.551  15.587   1.836
53963W        W18783  24.608  42.268  13.573
53964W        W18784  32.556   5.648  13.403
53965W        W18785  42.829  14.477   2.542
53966W        W18786   4.463  37.965   1.277
53967W        W18787   9.810  17.514  12.917
53968W        W18788  40.789  11.187  11.517
53969W        W18789  27.786  14.877   0.257
53970W        W18790  18.861  20.548  13.325
53971W        W18791  26.411  18.457   3.677
53972W        W18792   7.656  15.634  12.050
53973W        W18793  31.456  25.733  13.975
53974W        W18794  39.842  30.343   4.602
53975W        W18795   5.117  10.824  11.599
53976W        W18796  24.907  22.678   5.472
53977W        W18797  43.488  34.481   0.801
53978W        W18798  32.658   5.802   1.781
53979W        W18799  39.063   0.235  14.068
53980W        W18800  37.361  15.130   1.465
53981W        W18801  29.953   2.241  14.315
53982W        W18802  29.465   7.508   1.938
53983W        W18803   1.884  28.660  12.913
53984W        W18804  36.476  28.347   0.820
53985W        W18805  10.827  32.578   0.763
53986W        W18806  25.458  12.943   0.184
53987W        W18807  44.501   4.392   4.683
53988W        W18808  21.293  22.099  13.466
53989W        W18809  39.884  40.945   4.220
53990W        W18810  10.066  25.796   0.625
53991W        W18811  17.780  39.152   4.523
53992W        W18812  14.949   2.863  11.361
53993W        W18813  26.619   4.219   4.187
53994W        W18814  20.504  29.593  11.407
53995W        W18815  22.151   0.047   4.425
53996W        W18816  30.562  28.146   4.558
53997W        W18817   0.815   1.431  11.919
53998W        W18818   4.944  13.697   1.702
53999W        W18819   8.752   1.255   2.174
54000W        W18820  11.425  33.438  12.987
54001W        W18821  37.358  40.240   2.037
54002W        W18822  30.213  17.914   3.729
54003W        W18823  20.166  17.021  11.584
54004W        W18824  39.483   4.285  14.742
54005W        W18825  36.063  42.515  11.484
54006W        W18826  30.425   5.457   0.440
54007W        W18827  43.442  23.801   4.838
54008W        W18828  24.121  33.055   0.810
54009W        W18829  13.636  23.449   3.115
54010W        W18830  17.302  18.086   0.289
54011W        W18831  31.997   4.027   1.294
54012W        W18832  44.466  23.771   2.599
54013W        W18833  38.397  36.330   3.285
54014W        W18834  15.321  42.846  12.022
54015W        W18835   2.642  41.376   2.870
54016W        W18836  28.031  15.075   0.820
54017W        W18837  18.521  33.408   9.641
54018W        W18838   6.852  20.624  13.834
54019W        W18839  11.692  13.569   1.634
54020W        W18840  34.712   7.920  13.380
54021W        W18841  23.177   6.716  12.453
54022W        W18842  32.695  42.541   0.415
54023W        W18843  13.114  33.067  11.567
54024W        W18844   9.167  44.248   2.891
54025W        W18845  10.076  25.587  11.257
54026W        W18846  21.826   3.285   2.326
54027W        W18847  12.183  12.886   1.990
54028W        W18848  25.335  31.132   0.932
54029W        W18849  27.175  15.106   1.661
54030W        W18850   5.673  31.206  12.491
54031W        W18851   7.870  33.606   0.268
54032W        W18852  24.048  15.151  13.376
54033W        W18853  39.836   5.999   4.462
54034W        W18854  18.318   7.442  14.458
54035W        W18855  36.687  14.004   4.167
54036W        W18856  14.177  37.130  12.874
54037W        W18857  34.404  23.414   9.803
54038W        W18858  37.261  27.925  10.805
54039W        W18859  33.532  37.925   5.081
54040W        W18860  39.959   4.078   4.124
54041W        W18861   1.763   5.793   4.274
54042W        W18862  29.576  41.273   4.184
54043W        W18863  37.621  41.581   2.714
54044W        W18864  44.548  17.200   3.365
54045W        W18865  26.354  32.519  12.578
54046W        W18866  10.976  13.359  14.897
54047W        W18867  13.356  12.423  12.245
54048W        W18868   5.721  29.070  14.490
54049W        W18869  40.709  33.972  12.546
54050W        W18870  31.590  19.780  11.393
54051W        W18871   2.772  10.244  13.030
54052W        W18872  36.358  17.551  13.930
54053W        W18873  33.931  25.434  14.026
54054W        W18874   0.538  36.971   0.338
54055W        W18875  15.334  29.471  13.868
54056W        W18876  14.121  43.076  14.115
54057W        W18877  20.566  35.057  13.392
54058W        W18878  34.173  29.596   2.250
54059W        W18879  39.493  31.649   4.227
54060W        W18880  28.561  21.627  10.914
54061W        W18881  22.185   8.788   2.355
54062W        W18882  26.648  44.513  10.653
54063W        W18883  13.755  10.866   2.387
54064W        W18884  10.188  20.473   0.922
54065W        W18885  32.467   3.725   4.092
54066W        W18886  39.945  14.359   2.447
54067W        W18887  37.414  28.478  14.793
54068W        W18888  25.019  25.219  13.362
54069W        W18889  36.414   5.884   0.048
54070W        W18890  26.530  39.759   2.260
54071W        W18891  15.668  33.888  10.562
54072W        W18892  28.086  11.714  14.167
54073W        W18893  13.750  39.487  13.017
54074W        W18894  39.840  24.365  14.352
54075W        W18895  36.375  33.732  14.146
54076W        W18896  35.004  16.673   0.175
54077W        W18897  25.039  15.221   4.701
54078W        W18898  31.858  16.203  13.920
54079W        W18899  31.961  22.612  12.429
54080W        W18900  42.243  30.117   4.932
54081W        W18901   2.951  24.777  10.811
54082W        W18902  16.597   7.254   3.728
54083W        W18903  13.137  40.266   4.197
54084W        W18904  31.595  37.918  14.519
54085W        W18905  10.102  33.536  12.665
54086W        W18906   9.194  28.284   0.039
54087W        W18907  37.809  40.559  12.753
54088W        W18908   2.237  26.689   1.589
54089W        W18909  39.981  31.374  14.037
54090W        W18910  43.346   1.765   3.650
54091W        W18911  11.755  12.157   1.692
54092W        W18912  21.537  23.505   3.853
54093W        W18913   9.261  19.549  14.879
54094W        W18914  33.561  21.381  12.933
54095W        W18915  31.615  11.042   4.696
54096W        W18916   9.612  10.635  11.565
54097W        W18917  28.948  24.179   1.888
54098W        W18918  29.963  35.847   2.225
54099W        W18919  17.848  16.831   3.649
54100W        W18920   6.446   1.468  11.252
54101W        W18921  28.570  19.661   1.777
54102W        W18922  10.317  33.253  10.842
54103W        W18923   3.871  36.973  13.513
54104W        W18924  15.322  15.243   0.907
54105W        W18925  40.574   2.589  13.777
54106W        W18926  40.743  10.827  11.132
54107W        W18927  34.856  24.939  13.892
54108W        W18928  39.118   3.288  10.707
54109W        W18929  13.220   4.760  14.625
54110W        W18930  13.836  13.888  12.878
54111W        W18931  23.691  35.041  10.241
54112W        W18932  37.489  37.844  13.511
54113W        W18933  12.932  14.126  13.887
54114W        W18934  10.143  34.661  10.310
54115W        W18935  44.522  42.707   1.210
54116W        W18936  40.419   1.404   2.160
54117W        W18937  38.801   6.389  14.110
54118W        W18938  14.257  23.239  13.004
54119W        W18939  20.212  22.179   1.249
54120W        W18940  10.259  16.185  12.309
54121W        W18941  27.912   2.171  14.418
54122W        W18942  41.946   2.299   3.407
54123W        W18943   6.663  38.132   2.855
54124W        W18944   6.945  34.327  11.211
54125W        W18945  37.061   7.980   4.511
54126W        W18946   6.844  43.717   2.090
54127W        W18947   6.239  11.694  13.743
54128W        W18948  30.231   9.696  12.492
54129W        W18949  33.933  15.578  10.655
54130W        W18950  19.274  24.458   2.822
54131W        W18951  24.639  18.290  11.163
54132W        W18952  10.718  30.246   0.473
54133W        W18953  43.506   6.882   0.395
54134W        W18954  24.932  12.740   4.739
54135W        W18955  27.298  30.017   0.484
54136W        W18956  35.906  22.305  11.183
54137W        W18957  33.678   9.206  12.198
54138W        W18958  21.472  11.251  11.648
54139W        W18959  35.012  32.112  10.133
54140W        W18960  38.595  19.728   3.138
54141W        W18961  39.616  37.045  10.939
54142W        W18962  31.978  44.377   3.976
54143W        W18963   3.475   5.795   2.213
54144W        W18964   8.255  17.808   0.017
54145W        W18965  44.488  34.903   1.775
54146W        W18966  27.468  14.220   0.750
54147W        W18967  14.519   8.500  14.269
54148W        W18968  34.543   1.481  14.335
54149W        W18969   7.659   0.742  12.862
54150W        W18970  26.986  14.120   3.771
54151W        W18971  27.555  20.024   0.952
54152W        W18972  12.790  39.593  12.885
54153W        W18973  19.522   5.707  11.916
54154W        W18974  38.116  41.351   3.041
54155W        W18975   5.627  41.069   4.262
54156W        W18976  15.185  34.971  12.551
54157W        W18977  13.676   0.960  11.502
54158W        W18978  36.822  19.631  10.229
54159W        W18979   0.229  37.390   0.441
54160W        W18980   5.771  12.595   1.309
54161W        W18981  18.701   7.403   1.401
54162W        W18982  24.689  40.071   3.732
54163W        W18983  13.557  19.105  11.932
54164W        W18984  44.061  26.057  10.737
54165W        W18985  18.050  10.317  14.479
54166W        W18986  31.583   3.800   4.131
54167W        W18987  44.211   3.388  14.436
54168W        W18988  37.363  14.318  14.950
54169W        W18989  17.200  19.520  13.957
54170W        W18990  23.528  18.478  13.155
54171W        W18991  11.181  26.188  13.924
54172W        W18992  27.692  41.411   1.137
54173W        W18993   0.739  33.637   0.863
54174W        W18994  10.949   8.680  13.764
54175W        W18995  37.940  32.562   2.636
54176W        W18996   2.300  22.596   3.595
54177W        W18997  20.702  27.362  12.074
54178W        W18998  28.586  25.121  10.703
54179W        W18999  19.370  29.825   4.531
54180W        W19000  14.515  23.187   3.923
54181W        W19001   8.425  37.310  14.966
54182W        W19002  20.998  35.073  13.097
54183W        W19003  22.727  26.333  12.666
54184W        W19004  42.928  13.750   2.849
54185W        W19005  31.975  18.025  13.885
54186W        W19006  43.126  30.971   4.043
54187W        W19007  37.482  13.820  12.338
54188W        W19008  31.263   6.931  10.431
54189W        W19009  22.608  36.175  14.460
54190W        W19010  11.898   4.800   2.386
54191W        W19011  25.050  14.398   3.678
54192W        W19012  28.100  20.685  11.527
54193W        W19013  10.118  24.224  11.783
54194W        W19014  12.625  12.839   0.176
54195W        W19015  43.178  30.912  14.832
54196W        W19016  43.193   0.419   1.354
54197W        W19017  28.509  30.112  14.970
54198W        W19018  34.010   7.764  13.799
54199W        W19019  11.864  20.249   0.386
54200W        W19020  41.432  10.979  12.467
54201W        W19021   2.811  17.857   1.854
54202W        W19022   4.536   1.932   3.774
54203W        W19023  16.609  42.478   0.282
54204W        W19024   8.240   7.807  14.803
54205W        W19025  27.267  42.773   3.662
54206W        W19026   6.254  10.080  13.910
54207W        W19027  32.592  41.594   1.717
54208W        W19028  16.735  10.249   3.138
54209W        W19029  33.170  33.877  13.422
54210W        W19030  36.807   3.665   3.710
54211W        W19031   7.349  16.371  12.992
54212W        W19032   5.170  41.270   4.115
54213W        W19033  15.038  39.760   1.741
54214W        W19034  25.717  41.773  14.338
54215W        W19035  41.992  21.635   3.591
54216W        W19036  29.493   7.962   0.354
54217W        W19037  15.813  21.850   3.071
54218W        W19038  21.898  32.046  11.192
54219W        W19039  17.132  24.106  10.615
54220W        W19040   2.571  32.696  14.004
54221W        W19041  27.720  27.137   2.688
54222W        W19042  27.651  42.249   0.047
54223W        W19043  27.084   2.494   1.935
54224W        W19044  20.705  17.525  12.153
54225W        W19045  33.047   4.463  11.122
54226W        W19046   9.859  40.923   3.357
54227W        W19047  27.826  23.271  10.243
54228W        W19048  29.636  11.949  14.839
54229W        W19049  14.078  33.431  13.364
54230W        W19050  22.195  41.985   3.118
54231W        W19051   2.362  14.246   3.172
54232W        W19052  18.449  28.929   2.660
54233W        W19053  40.193  43.986  12.909
54234W        W19054  12.829  13.715  11.913
54235W        W19055  22.332  28.195  12.614
54236W        W19056  43.930   4.247   3.133
54237W        W19057  28.725  20.325   1.277
54238W        W19058  24.054  14.918   1.627
54239W        W19059   7.817   4.552  10.762
54240W        W19060  10.415  38.406   2.223
54241W        W19061  24.886  15.068  12.080
54242W        W19062   2.359  11.389  12.322
54243W        W19063  12.285  28.873  14.605
54244W        W19064  35.095  32.576   3.255
54245W        W19065  10.395  21.229   3.653
54246W        W19066  37.701  15.739  14.041
54247W        W19067  41.864  43.363   4.557
54248W        W19068   3.525   7.274   3.109
54249W        W19069  20.449  26.496  14.211
54250W        W19070  24.411  22.955   0.438
54251W        W19071  39.596   7.428  14.870
54252W        W19072  11.833  13.595   5.042
54253W        W19073   9.079  32.481   3.288
54254W        W19074  17.703   2.508  11.353
54255W        W19075  15.355  32.501  11.643
54256W        W19076  41.803   3.328   3.674
54257W        W19077  36.883  21.241   3.623
54258W        W19078  13.740  41.644  11.715
54259W        W19079  39.127   6.215   3.803
54260W        W19080  40.921   5.176  13.254
54261W        W19081  42.876   9.877   4.465
54262W        W19082  24.252  30.476  14.504
54263W        W19083  43.533  20.719  11.864
54264W        W19084  21.119  39.763  10.670
54265W        W19085  28.467  36.870   0.929
54266W        W19086  11.503  14.749  11.112
54267W        W19087  12.260  36.554   1.641
54268W        W19088  26.050   7.164   3.655
54269W        W19089  16.067  15.044  10.632
54270W        W19090   3.276  31.686  11.181
54271W        W19091  38.884  19.543   3.545
54272W        W19092  19.673   3.314  10.376
54273W        W19093  33.944  18.055  14.776
54274W        W19094  19.060  28.038  12.525
54275W        W19095  36.265  28.911   2.852
54276W        W19096  31.624  39.563  14.948
54277W        W19097  35.912   7.555  14.575
54278W        W19098  26.447   9.863   0.452
54279W        W19099  26.559  23.952   1.978
54280W        W19100   9.897  38.320  13.280
54281W        W19101   0.567   5.214   4.532
54282W        W19102   5.396  12.649   1.699
54283W        W19103   7.224  31.064  11.582
54284W        W19104   8.815  13.670  11.957
54285W        W19105  39.933  22.652   4.680
54286W        W19106  11.220  21.303   3.226
54287W        W19107   6.862   0.035   1.875
54288W        W19108  42.790  24.090  11.018
54289W        W19109  28.719  37.469  11.226
54290W        W19110  32.993   4.921  10.919
54291W        W19111  23.417  29.037   0.768
54292W        W19112  11.517  28.968   2.815
54293W        W19113  11.770  26.216  13.448
54294W        W19114  10.338  20.934   4.069
54295W        W19115  39.547  25.286   4.051
54296W        W19116  26.986  18.310  14.849
54297W        W19117  19.514  22.487   5.016
54298W        W19118  21.272  40.371   2.879
54299W        W19119   0.916  29.506   4.598
54300W        W19120   4.316  33.419   4.176
54301W        W19121  40.710  30.482   4.565
54302W        W19122  37.150  31.222  12.778
54303W        W19123  34.890  15.808   0.212
54304W        W19124   3.165  39.650   3.787
54305W        W19125  18.497   9.835   2.005
54306W        W19126  24.013  43.379  11.657
54307W        W19127  39.027  25.406   2.281
54308W        W19128  37.769   3.522   0.510
54309W        W19129  25.316  44.890  14.610
54310W        W19130  16.265  17.649   0.766
54311W        W19131  19.810   9.765  11.858
54312W        W19132  23.714  12.475   0.904
54313W        W19133  11.019  17.662   4.119
54314W        W19134  29.752  42.893  10.152
54315W        W19135  12.909  43.039   4.898
54316W        W19136   9.295  42.826  14.564
54317W        W19137  34.643  44.064  10.668
54318W        W19138   5.042  43.730   4.587
54319W        W19139  39.850  42.231   4.158
54320W        W19140  32.859  24.589   0.230
54321W        W19141  40.772  30.103   3.258
54322W        W19142  17.217  42.682  14.988
54323W        W19143   9.783   0.022   4.139
54324W        W19144  11.049  33.890  11.574
54325W        W19145  44.962  10.574   1.322
54326W        W19146  33.414   0.023  14.369
54327W        W19147  16.740  33.729   3.910
54328W        W19148  25.288   0.999  11.938
54329W        W19149  36.785   2.425  14.987
54330W        W19150  31.698  41.370   1.984
54331W        W19151  42.816  17.189  13.386
54332W        W19152  29.828   0.813  11.514
54333W        W19153  11.871   9.786  13.635
54334W        W19154   2.013   9.781  14.686
54335W        W19155  29.485  32.912  12.427
54336W        W19156   9.441  35.621   3.747
54337W        W19157  42.168  20.670  12.499
54338W        W19158  36.419  10.095  13.363
54339W        W19159   3.084   4.897  14.038
54340W        W19160  12.862  19.282   3.372
54341W        W19161  23.224  25.962   4.363
54342W        W19162  42.653  13.873   2.007
54343W        W19163   6.109  10.308  11.246
54344W        W19164  27.703  38.027  10.718
54345W        W19165  29.436  15.192  14.946
54346W        W19166  25.696  17.453   0.156
54347W        W19167  24.212  28.646   2.376
54348W        W19168   7.210  32.870  12.998
54349W        W19169  39.588  29.719   3.231
54350W        W19170  34.859  31.165   0.336
54351W        W19171  22.005  33.728  12.495
54352W        W19172  38.035  12.726   2.860
54353W        W19173  39.296   0.806   4.717
54354W        W19174  44.365   5.276  11.645
54355W        W19175  10.132  13.704   3.568
54356W        W19176  36.582  30.836   3.072
54357W        W19177   8.148  44.017  11.533
54358W        W19178   5.776   6.149   3.824
54359W        W19179   0.292  28.669   4.396
54360W        W19180  21.618   8.233   3.544
54361W        W19181  10.386  38.235   4.112
54362W        W19182  14.840  40.529  10.120
54363W        W19183  33.212  37.758   4.699
54364W        W19184  11.140  26.975  13.478
54365W        W19185  10.533   6.117  13.992
54366W        W19186  12.254  43.083   2.165
54367W        W19187   8.422   5.882   2.173
54368W        W19188  32.782  19.399   3.302
54369W        W19189   5.155   9.895  10.724
54370W        W19190  22.535  31.160   1.881
54371W        W19191   5.825   8.893   3.293
54372W        W19192  40.027  12.842  12.386
54373W        W19193  14.282  39.027   0.062
54374W        W19194  29.513   6.751  14.992
54375W        W19195  42.008   6.196  12.026
54376W        W19196  39.994  40.239  12.938
54377W        W19197  33.981  26.147   4.068
54378W        W19198   1.277   9.278  14.898
54379W        W19199  39.675   5.764   3.250
54380W        W19200   6.144  29.022   4.509
54381W        W19201  30.402  33.573   1.801
54382W        W19202  21.085  22.032   3.724
54383W        W19203   3.221  28.840   1.887
54384W        W19204  35.443  29.198  11.821
54385W        W19205  40.620  30.757  12.125
54386W        W19206  28.987  29.898  11.706
54387W        W19207  25.613  22.690  14.395
54388W        W19208  23.508  29.489  14.927
54389W        W19209  14.223   2.682  12.039
54390W        W19210  38.264  44.922  14.318
54391W        W19211  41.897  14.124   3.608
54392W        W19212  31.983  44.532   3.491
54393W        W19213  42.007   1.319   4.638
54394W        W19214   1.001  14.238   3.412
54395W        W19215  23.702  18.390   3.154
54396W        W19216  31.165   4.686   4.437
54397W        W19217  37.472  16.512   4.578
54398W        W19218   8.905  18.099   2.815
54399W        W19219   7.468  42.016   4.927
54400W        W19220  38.867   6.387   1.527
54401W        W19221  14.682  35.933   4.618
54402W        W19222  11.804  40.104  14.236
54403W        W19223  36.372  44.500  12.514
54404W        W19224  37.289  27.767   0.277
54405W        W19225  40.133  42.847   2.390
54406W        W19226   3.356  33.464  14.923
54407W        W19227  33.324  13.573   4.297
54408W        W19228  23.482   7.132  12.455
54409W        W19229  31.469  21.101  13.249
54410W        W19230  22.226  33.866   0.425
54411W        W19231   2.984  39.035   1.682
54412W        W19232   8.685  32.680   2.690
54413W        W19233  41.409  30.634   3.383
54414W        W19234  10.233  22.211  12.603
54415W        W19235   6.585  37.546   0.257
54416W        W19236  22.009  31.079   1.852
54417W        W19237  32.544  41.455   0.785
54418W        W19238  33.940  28.566  11.597
54419W        W19239  33.504  12.304   1.459
54420W        W19240   2.863  41.998   0.149
54421W        W19241  11.398  38.506  13.384
54422W        W19242  11.550  21.048  14.965
54423W        W19243  15.625  41.369   1.380
54424W        W19244   6.669  39.882  13.541
54425W        W19245  10.621  22.168   0.409
54426W        W19246   8.786  42.825   2.776
54427W        W19247  24.764  39.323  12.076
54428W        W19248  24.227   2.778   2.529
54429W        W19249   6.808   8.937  13.558
54430W        W19250  19.345  24.418   3.335
54431W        W19251  37.330  31.454   4.581
54432W        W19252  33.031  20.113   4.683
54433W        W19253   2.300  22.952   3.213
54434W        W19254  12.106  30.926   0.909
54435W        W19255  42.776  25.574   3.590
54436W        W19256  13.336  10.586   4.624
54437W        W19257  19.470   3.371  12.082
54438W        W19258  19.638  22.826   0.704
54439W        W19259  23.992   5.745   3.782
54440W        W19260   7.036  40.354   3.201
54441W        W19261  10.119   9.115   3.838
54442W        W19262  15.760  12.222   0.895
54443W        W19263  36.308  35.857  12.748
54444W        W19264  19.027  13.989  13.816
54445W        W19265  40.694   4.501   1.470
54446W        W19266  18.259  30.593  14.779
54447W        W19267  25.245  32.488   4.093
54448W        W19268  35.868  28.008  10.727
54449W        W19269   1.355   1.541   0.227
54450W        W19270  13.644  10.911  14.995
54451W        W19271  24.188  19.176  12.669
54452W        W19272  41.222   3.809   4.248
54453W        W19273  26.433  12.738   4.091
54454W        W19274  42.070  16.191  13.836
54455W        W19275  28.987  11.182   2.864
54456W        W19276  26.400  13.780   4.584
54457W        W19277  20.249  28.228   2.856
54458W        W19278   7.638  35.843   5.188
54459W        W19279  16.379  23.469   1.162
54460W        W19280   4.736  11.141   0.287
54461W        W19281  22.586   5.684   1.031
54462W        W19282  11.053  38.511  11.722
54463W        W19283   7.864   2.810   3.711
54464W        W19284  25.663   7.936   1.329
54465W        W19285   1.846  15.848  10.425
54466W        W19286  19.811  18.696  12.510
54467W        W19287   4.801  21.712   1.917
54468W        W19288  22.469  12.458   2.655
54469W        W19289  10.341  26.333   2.352
54470W        W19290  15.748  39.692   0.458
54471W        W19291  15.789   4.755  13.469
54472W        W19292  22.918  15.610   3.072
54473W        W19293  44.330   0.063  10.781
54474W        W19294  11.456   8.304  11.632
54475W        W19295   8.700  18.217  12.971
54476W        W19296  20.593  35.846   0.551
54477W        W19297  33.524  16.912   1.079
54478W        W19298  44.552  24.440  14.459
54479W        W19299  39.502  20.759  10.696
54480W        W19300  42.325  32.968  12.526
54481W        W19301   9.613  24.011   1.043
54482W        W19302  22.643  43.484   1.208
54483W        W19303  35.130  21.592   4.058
54484W        W19304   7.751  42.095   2.297
54485W        W19305  30.385  16.286   0.302
54486W        W19306  32.817  20.198   3.736
54487W        W19307   1.845  28.423   1.371
54488W        W19308  34.639  27.140   4.094
54489W        W19309  22.467  34.531  14.770
54490W        W19310  13.603  31.419   5.084
54491W        W19311  15.632  21.792   0.491
54492W        W19312  33.355  37.314  14.929
54493W        W19313   1.180  11.717  14.436
54494W        W19314  13.193  40.737  11.248
54495W        W19315   3.855  31.401   4.750
54496W        W19316  44.512  25.148  10.417
54497W        W19317  37.569   6.667   0.173
54498W        W19318   4.312  25.427  13.855
54499W        W19319  32.705  24.681  14.266
54500W        W19320   3.491  21.542  11.587
54501W        W19321  31.025   3.507  10.643
54502W        W19322   2.901  36.117  13.963
54503W        W19323   0.428  34.028  13.566
54504W        W19324  39.933   0.952   2.850
54505W        W19325  25.644  19.815  11.816
54506W        W19326  37.106  34.557  10.730
54507W        W19327   8.585  34.589  11.614
54508W        W19328   6.185  32.373  11.668
54509W        W19329  38.434  37.933   2.400
54510W        W19330   8.430  29.068   3.308
54511W        W19331  38.026  19.824   0.934
54512W        W19332  22.251  29.836   2.140
54513W        W19333  34.519   5.347   3.589
54514W        W19334   8.399   7.252   4.897
54515W        W19335  12.352  28.445  14.875
54516W        W19336  36.564   1.908   0.881
54517W        W19337  30.390  11.161   3.590
54518W        W19338  35.050   1.203   0.532
54519W        W19339  25.986  39.013   4.641
54520W        W19340  16.284  31.942   1.816
54521W        W19341  12.704  41.992   4.289
54522W        W19342   3.845  25.327  14.042
54523W        W19343  37.471  38.550   4.587
54524W        W19344  18.104  10.285   4.521
54525W        W19345  24.202  13.855  11.595
54526W        W19346  24.046  10.353  11.707
54527W        W19347   9.427   1.599  11.573
54528W        W19348   3.609   5.792  13.679
54529W        W19349  16.597  27.656  11.966
54530W        W19350  35.926  15.378   1.469
54531W        W19351  15.231   9.675   2.604
54532W        W19352  41.396  38.409  12.905
54533W        W19353  31.425  29.452  14.715
54534W        W19354  40.339  27.500  12.318
54535W        W19355  38.818  30.560   4.732
54536W        W19356  15.138  21.829   3.831
54537W        W19357  10.047   4.016  13.050
54538W        W19358  41.704   8.059   1.178
54539W        W19359   6.262  39.577   1.475
54540W        W19360  36.968   2.961   1.792
54541W        W19361   2.991  17.629  14.486
54542W        W19362  32.687  33.558   4.069
54543W        W19363  43.652  26.630   0.520
54544W        W19364  41.589  12.649  10.640
54545W        W19365  38.788   0.432   4.595
54546W        W19366   7.440  20.629   3.103
54547W        W19367  25.938   3.461  13.916
54548W        W19368  19.757  21.217  14.288
54549W        W19369  23.220  44.997  13.469
54550W        W19370  35.363  13.837   4.019
54551W        W19371  31.973  10.112   1.277
54552W        W19372  19.297  21.112   4.067
54553W        W19373  32.562  16.145  14.260
54554W        W19374  34.176   1.366  10.863
54555W        W19375  10.859   8.581   3.604
54556W        W19376  29.158  41.876   0.114
54557W        W19377  22.613   8.070   2.007
54558W        W19378   5.228  14.975  11.193
54559W        W19379  15.211  23.718   2.473
54560W        W19380  16.846   8.376  11.006
54561W        W19381  37.930  39.043   0.157
54562W        W19382  18.267  26.446   3.536
54563W        W19383  27.182  15.797  13.722
54564W        W19384  31.713  18.764  14.336
54565W        W19385   7.371  12.803   0.220
54566W        W19386   4.041  28.131   3.135
54567W        W19387  33.965  14.285  13.838
54568W        W19388   4.516  10.349  12.481
54569W        W19389  39.998  43.349   0.034
54570W        W19390  42.299  29.470   1.873
54571W        W19391   1.825  24.796   3.355
54572W        W19392  19.089  24.796  11.972
54573W        W19393  14.094  41.762   0.901
54574W        W19394  16.045  40.840  14.929
54575W        W19395   6.944  24.937   3.037
54576W        W19396  29.165  38.746   2.493
54577W        W19397  11.874   6.689  12.114
54578W        W19398  14.340  13.743  14.329
54579W        W19399  41.771  39.874   4.641
54580W        W19400  11.331   0.158  14.794
54581W        W19401  25.012  10.114  14.989
54582W        W19402  41.035  33.470   2.110
54583W        W19403  16.039  37.083   3.184
54584W        W19404  34.802  25.599   5.052
54585W        W19405  31.671  15.584  12.571
54586W        W19406  16.361  44.956  11.526
54587W        W19407   4.072  27.649   3.310
54588W        W19408  32.127   1.446   3.661
54589W        W19409   5.702  32.020  11.367
54590W        W19410  40.885   5.703  12.106
54591W        W19411  19.645  29.983   2.748
54592W        W19412  43.021  27.305  14.793
54593W        W19413  33.578  12.169   1.997
54594W        W19414   0.281  26.443  10.177
54595W        W19415  39.607  12.973   0.745
54596W        W19416  44.044  23.117  12.494
54597W        W19417  30.013  19.803  11.648
54598W        W19418  39.929  11.332   1.221
54599W        W19419   6.458  31.070  14.265
54600W        W19420   8.197  37.974   0.781
54601W        W19421   1.372  39.777  14.822
54602W        W19422   9.167   4.786  13.031
54603W        W19423  10.408  20.379  12.829
54604W        W19424   3.184  36.065  13.237
54605W        W19425   9.992  20.222   5.212
54606W        W19426   1.556  16.751  12.441
54607W        W19427  26.711  35.836  13.914
54608W        W19428  29.201  29.007   3.724
54609W        W19429  43.101  33.307   4.588
54610W        W19430  12.676   7.929  14.424
54611W        W19431   3.659  39.268  13.724
54612W        W19432   9.858  24.591   3.806
54613W        W19433  40.230  35.233  11.037
54614W        W19434   2.639  15.551   2.775
54615W        W19435  27.901   1.005  13.063
54616W        W19436  36.836  33.690  11.102
54617W        W19437   5.469  38.512  12.699
54618W        W19438  36.077  41.322   4.541
54619W        W19439  29.576  18.180  10.250
54620W        W19440   6.243  32.577   1.823
54621W        W19441  16.311  31.049  13.365
54622W        W19442  12.216  35.599  14.995
54623W        W19443  12.681  27.141   1.935
54624W        W19444  22.489  41.840   0.464
54625W        W19445  26.247   9.080  14.919
54626W        W19446  20.310  11.961  10.288
54627W        W19447   5.667  27.164   2.258
54628W        W19448  30.163   4.893  11.028
54629W        W19449   0.983  31.764   0.029
54630W        W19450  14.720  16.259   1.887
54631W        W19451   8.804  24.483  13.486
54632W        W19452  36.493  31.081   4.308
54633W        W19453  26.330  15.993  13.347
54634W        W19454  25.408  26.751   1.718
54635W        W19455  44.679  13.628   3.675
54636W        W19456  42.123  13.605  12.024
54637W        W19457  10.932  18.677   1.910
54638W        W19458  21.086  19.222  14.847
54639W        W19459  13.869  25.914   3.294
54640W        W19460  16.513  41.988   2.332
54641W        W19461  25.372  22.158  11.413
54642W        W19462  10.185  31.585   4.080
54643W        W19463  41.899  18.736  12.340
54644W        W19464  38.582  20.566   3.973
54645W        W19465  10.765   0.938   4.317
54646W        W19466  42.332   9.926   0.954
54647W        W19467  41.630  34.772  13.505
54648W        W19468  43.532  35.428   2.265
54649W        W19469   2.470   1.679   3.263
54650W        W19470  38.500   0.393   4.105
54651W        W19471   9.252  34.460   4.493
54652W        W19472  13.274  37.114   2.624
54653W        W19473  13.799   8.866   4.960
54654W        W19474   5.661   0.275  12.561
54655W        W19475  38.410  27.531  14.753
54656W        W19476   8.129  29.326  13.370
54657W        W19477   8.477  33.419   4.745
54658W        W19478   9.035  40.753   2.182
54659W        W19479  38.107   7.123  14.037
54660W        W19480  23.377  36.927   2.144
54661W        W19481  41.334   5.377  11.154
54662W        W19482  12.424  14.724  11.107
54663W        W19483   3.179   9.367   3.617
54664W        W19484   3.386  24.021   2.210
54665W        W19485  10.421  36.096  13.895
54666W        W19486  10.889   5.706   4.581
54667W        W19487   4.724  38.226   0.862
54668W        W19488  40.360  31.838  14.628
54669W        W19489  28.503   1.873   0.440
54670W        W19490  25.564  26.964  13.999
54671W        W19491  32.957  28.941   0.431
54672W        W19492  38.579  20.922  12.448
54673W        W19493  14.415  42.412  14.843
54674W        W19494  10.965  35.787   0.352
54675W        W19495  40.128  14.346   1.288
54676W        W19496  33.080  29.818   0.949
54677W        W19497  33.602  11.875   0.175
54678W        W19498  24.041   7.311   4.365
54679W        W19499  35.363  17.322  13.028
54680W        W19500   8.279  17.774  14.502
54681W        W19501  38.918  21.609  14.747
54682W        W19502  23.978  42.289   4.609
54683W        W19503  37.846   3.317  13.157
54684W        W19504  41.413   5.189   1.333
54685W        W19505  22.981  27.650   0.009
54686W        W19506  44.039  36.905  11.872
54687W        W19507   4.651   2.558  12.956
54688W        W19508  11.921  23.237   4.081
54689W        W19509  11.403  36.540   4.706
54690W        W19510  16.325  30.595   2.334
54691W        W19511  27.905  24.698  12.568
54692W        W19512  26.151  11.606  10.510
54693W        W19513  41.505   6.854  13.453
54694W        W19514  14.034  38.457  11.157
54695W        W19515  39.673  42.941   2.132
54696W        W19516   0.334  11.669  10.705
54697W        W19517  21.080   1.709   4.884
54698W        W19518  15.475  16.253   2.660
54699W        W19519   5.621   9.592  10.946
54700W        W19520  25.386   7.238   4.758
54701W        W19521  27.649  25.084   1.686
54702W        W19522  28.349  14.222  10.430
54703W        W19523  38.365   1.098  12.752
54704W        W19524  44.667  10.848  14.653
54705W        W19525   7.129   5.422  10.672
54706W        W19526  14.150  43.286  11.219
54707W        W19527   4.451  39.836  14.011
54708W        W19528  13.576  28.005   0.384
54709W        W19529   5.809   3.319   0.505
54710W        W19530   8.295  18.311  13.752
54711W        W19531   4.828  43.401   3.407
54712W        W19532  41.511  23.570   0.360
54713W        W19533  14.043   2.000   1.643
54714W        W19534   7.140   9.455   0.368
54715W        W19535  42.507  10.800   2.667
54716W        W19536  17.986  20.602  12.501
54717W        W19537  17.732  44.309   4.152
54718W        W19538  21.527  26.247  11.706
54719W        W19539  31.023   2.507   0.269
54720W        W19540  40.904  30.641   1.321
54721W        W19541  41.079  35.365  14.801
54722W        W19542  15.815  37.094   2.729
54723W        W19543  23.147  31.119   0.147
54724W        W19544  10.574  29.015   4.538
54725W        W19545  15.791  10.836  11.583
54726W        W19546  14.322  16.298  13.468
54727W        W19547   7.126  42.888   1.736
54728W        W19548  20.944   2.952   4.265
54729W        W19549  16.387  41.070   1.300
54730W        W19550  30.603  16.245  11.051
54731W        W19551  31.666  28.560  12.006
54732W        W19552  14.305   7.631   1.278
54733W        W19553  16.003  38.543  11.150
54734W        W19554  30.003  15.833  10.851
54735W        W19555  32.487  21.938   3.840
54736W        W19556  14.406   1.791   3.567
54737W        W19557  19.046  15.916   4.812
54738W        W19558  43.118   6.562  13.881
54739W        W19559  17.150  33.606  12.070
54740W        W19560  21.758  22.577  14.884
54741W        W19561  43.437  29.997  10.621
54742W        W19562  28.532   1.978   4.373
54743W        W19563  17.788  38.078   2.727
54744W        W19564  26.674  30.624   1.904
54745W        W19565  19.516  34.621  14.197
54746W        W19566  13.660  28.597  10.584
54747W        W19567  35.573  16.273  13.849
54748W        W19568   4.279  38.340  12.515
54749W        W19569  32.481  21.711  12.598
54750W        W19570  12.727   8.375   0.805
54751W        W19571  29.151  39.238   4.149
54752W        W19572  14.811  13.904  11.107
54753W        W19573  13.406  21.781  12.152
54754W        W19574  39.351  29.546  11.666
54755W        W19575  28.181  35.098   1.200
54756W        W19576  28.108  40.471   1.755
54757W        W19577  26.445  24.840  10.654
54758W        W19578  33.342  11.753  13.355
54759W        W19579  24.533  42.080  10.433
54760W        W19580   7.804  23.694  13.402
54761W        W19581  35.615  27.564  12.921
54762W        W19582  41.501  14.907   2.583
54763W        W19583  15.795  30.485   5.172
54764W        W19584   4.866   0.690  14.460
54765W        W19585   9.665  22.788   4.079
54766W        W19586  27.687  23.038  14.855
54767W        W19587  32.847   8.657   4.551
54768W        W19588  30.980  43.065   5.118
54769W        W19589  42.794  17.764  11.151
54770W        W19590  38.277  22.121  12.624
54771W        W19591  34.936  10.349   4.146
54772W        W19592  31.975  27.233   1.358
54773W        W19593  10.856   8.198   4.272
54774W        W19594  36.049  38.858   1.807
54775W        W19595  10.349  21.049   5.013
54776W        W19596  31.001   4.050  13.921
54777W        W19597  32.152   4.269  12.011
54778W        W19598  41.814  17.185   1.440
54779W        W19599  15.263  24.755  12.527
54780W        W19600  38.941  33.676  13.887
54781W        W19601  23.006  19.556   0.817
54782W        W19602  24.454  25.744   0.339
54783W        W19603   5.836   5.171  13.062
54784W        W19604  18.594   1.060   1.768
54785W        W19605   3.307   6.923  14.651
54786W        W19606  10.854  39.604  12.860
54787W        W19607  25.736   1.771   3.704
54788W        W19608   9.748  20.219   2.402
54789W        W19609  16.222   7.234   4.220
54790W        W19610  43.707  38.848  14.849
54791W        W19611  44.454  34.824  13.785
54792W        W19612  41.721  26.784  10.740
54793W        W19613  39.923  14.785  13.009
54794W        W19614   8.563  24.696  12.071
54795W        W19615   7.188  31.886   3.615
54796W        W19616   5.096  22.961  13.887
54797W        W19617  15.134   3.939   1.337
54798W        W19618  26.838  13.615  13.998
54799W        W19619  38.828  18.560   4.289
54800W        W19620   3.365  37.426  14.768
54801W        W19621  28.436  10.103  10.657
54802W        W19622  14.256  24.889  11.556
54803W        W19623   0.009  39.035   1.027
54804W        W19624  26.802  33.028   0.989
54805W        W19625  10.549   3.001   1.488
54806W        W19626  12.282  29.132  13.087
54807W        W19627  32.163  43.310  14.905
54808W        W19628  16.698  19.265   0.250
54809W        W19629  12.685   8.753   1.173
54810W        W19630  10.668  29.649   2.887
54811W        W19631  23.647   6.202   0.803
54812W        W19632   0.977  29.326   1.819
54813W        W19633  11.227  34.009   1.978
54814W        W19634   0.938   1.855   2.687
54815W        W19635  40.784  13.613   0.199
54816W        W19636   2.300   5.909   4.864
54817W        W19637  35.031  39.086  10.369
54818W        W19638  38.572  10.432  12.134
54819W        W19639  13.428  34.822   3.814
54820W        W19640  26.945  31.233  11.003
54821W        W19641  14.042  40.294  10.825
54822W        W19642  26.535   4.758  10.470
54823W        W19643   9.714  35.353  12.742
54824W        W19644  39.587  35.420  11.580
54825W        W19645  37.554  12.896   5.013
54826W        W19646  31.899  35.923  12.502
54827W        W19647  14.627  42.186  13.926
54828W        W19648  18.716  13.182  11.104
54829W        W19649   2.376  41.960  10.904
54830W        W19650  40.475  26.116   4.697
54831W        W19651  39.056   4.401  11.709
54832W        W19652   0.488  42.415  12.986
54833W        W19653  13.229  15.991   0.892
54834W        W19654  12.307  17.917   4.212
54835W        W19655  11.879  24.074  12.470
54836W        W19656  13.545  43.863  10.940
54837W        W19657   6.672  18.750  12.812
54838W        W19658  12.368   6.014  13.590
54839W        W19659  35.333  31.135   1.398
54840W        W19660  18.073  44.987   2.303
54841W        W19661  14.246  39.178  11.576
54842W        W19662   7.467   0.714   3.641
54843W        W19663   6.741  10.180   4.832
54844W        W19664  32.583  23.603  12.747
54845W        W19665  43.155  33.270  12.430
54846W        W19666  30.066  20.809   0.075
54847W        W19667   8.750  36.908   1.751
54848W        W19668   0.753  43.919  14.145
54849W        W19669  42.525  23.154   2.398
54850W        W19670  43.333  10.408   2.697
54851W        W19671  35.509  22.495  14.504
54852W        W19672  20.163   6.272  14.124
54853W        W19673  23.036  20.754   3.772
54854W        W19674  24.487  31.387  12.010
54855W        W19675  27.571  35.205  14.020
54856W        W19676  26.336  13.180  14.853
54857W        W19677   8.985   2.493  11.213
54858W        W19678  26.441   5.367   2.683
54859W        W19679  24.945  14.629   2.083
54860W        W19680  43.763  35.446  10.805
54861W        W19681  22.570  43.868   4.600
54862W        W19682  44.313  31.186   0.406
54863W        W19683  19.061  43.763   4.021
54864W        W19684  44.784  18.252   1.790
54865W        W19685  23.131  24.539  14.774
54866W        W19686  18.350  28.470  10.978
54867W        W19687  38.367  20.486   0.921
54868W        W19688  18.087   4.309  11.714
54869W        W19689  39.529  19.371  12.572
54870W        W19690  32.944  18.710   3.662
54871W        W19691  41.170  13.608   2.070
54872W        W19692  40.992   6.872  11.583
54873W        W19693   0.378  37.905   0.218
54874W        W19694   3.545   6.240  13.390
54875W        W19695  37.375  20.526   1.159
54876W        W19696  28.395  40.521   0.378
54877W        W19697   4.216  39.122  12.930
54878W        W19698  22.708   5.302   0.351
54879W        W19699  10.620  11.072  12.262
54880W        W19700  40.366  19.098  10.882
54881W        W19701  18.313   8.370   1.298
54882W        W19702  39.389  25.025  12.813
54883W        W19703   4.234  13.487   4.406
54884W        W19704  41.439  28.254  12.431
54885W        W19705  39.008  22.146  13.912
54886W        W19706  15.051  35.959   5.016
54887W        W19707  31.106  26.952   0.526
54888W        W19708  11.227  17.132  11.114
54889W        W19709  18.127  12.668  13.274
54890W        W19710  36.600  11.714  11.587
54891W        W19711   6.952  23.549  11.106
54892W        W19712   1.776  27.732   3.242
54893W        W19713  21.323  18.378   0.601
54894W        W19714   0.364  17.590  14.878
54895W        W19715  35.781  40.797   1.602
54896W        W19716  28.492  31.433  12.626
54897W        W19717  17.690  39.330  12.222
54898W        W19718   5.742   2.027   0.936
54899W        W19719  11.588  10.049  10.023
54900W        W19720  31.441   7.809  13.144
54901W        W19721  40.803  31.096   0.151
54902W        W19722   5.971  16.814   2.901
54903W        W19723   2.980  10.112   2.357
54904W        W19724  22.791   5.791  13.396
54905W        W19725  33.509  30.446   5.237
54906W        W19726  44.100  12.612   3.240
54907W        W19727  34.974  39.101  14.482
54908W        W19728  20.690  30.725  14.034
54909W        W19729  32.224  25.487  12.052
54910W        W19730  11.715  34.375   1.941
54911W        W19731  33.379   9.165   2.336
54912W        W19732  10.412  41.285  10.745
54913W        W19733  22.691  44.641   0.865
54914W        W19734  12.718  32.707  11.994
54915W        W19735   6.349  38.568  13.978
54916W        W19736  24.587  13.894   2.900
54917W        W19737  14.182  12.782   3.203
54918W        W19738  14.624   0.871   3.606
54919W        W19739  20.977  19.873   0.813
54920W        W19740  16.764   9.832   1.626
54921W        W19741  12.103  16.790   2.443
54922W        W19742  26.822  38.257  11.904
54923W        W19743  19.515  32.533   1.907
54924W        W19744   6.462  22.315   3.258
54925W        W19745  38.576   5.666  13.053
54926W        W19746  41.611  39.959   2.862
54927W        W19747  17.170  38.473  11.917
54928W        W19748   0.705  31.698  10.680
54929W        W19749   7.556  27.685   1.426
54930W        W19750  29.659  18.749   1.235
54931W        W19751  31.631   3.009   4.491
54932W        W19752  28.659  20.759  13.045
54933W        W19753   7.979   8.885  10.994
54934W        W19754  32.706  31.471   4.728
54935W        W19755   0.274  38.051  14.738
54936W        W19756   1.974  42.905  14.611
54937W        W19757   9.156  10.450   0.290
54938W        W19758  35.992  16.719  11.981
54939W        W19759   6.630  17.290   1.781
54940W        W19760  24.707  40.353  12.497
54941W        W19761  38.790  31.389   3.313
54942W        W19762  15.095  11.303  13.275
54943W        W19763  33.103  29.410   1.288
54944W        W19764  41.414  23.454   0.867
54945W        W19765  10.661   4.397  10.881
54946W        W19766  43.956  25.984   1.619
54947W        W19767  43.944  13.411   1.139
54948W        W19768  25.663   9.001  12.581
54949W        W19769  43.741  25.987   2.463
54950W        W19770  20.251   6.784   0.497
54951W        W19771  26.021  35.277  12.562
54952W        W19772   6.538   4.944  11.956
54953W        W19773   9.041  20.355  14.637
54954W        W19774  30.329  17.283  13.825
54955W        W19775   1.840  13.924  11.527
54956W        W19776   6.751  31.073  14.748
54957W        W19777   0.828  13.647   4.569
54958W        W19778   5.073  41.394   5.058
54959W        W19779   7.529   6.758   4.173
54960W        W19780  41.379  25.733  13.067
54961W        W19781  43.033  32.078   4.020
54962W        W19782   8.043  16.365   1.371
54963W        W19783  34.823  21.222  12.155
54964W        W19784  19.344   4.246   2.790
54965W        W19785  15.898  18.591   1.220
54966W        W19786  28.475  34.423  10.778
54967W        W19787   8.400   1.696   2.341
54968W        W19788  12.601  41.036  12.045
54969W        W19789   7.384  37.886   4.488
54970W        W19790  39.501  22.502  14.514
54971W        W19791  10.156  21.004   2.394
54972W        W19792  18.163  21.082  11.399
54973W        W19793  23.330  25.963   2.818
54974W        W19794   2.698  24.540   3.673
54975W        W19795  18.350  25.986  13.926
54976W        W19796   6.338  22.014   3.710
54977W        W19797  24.494  39.475   0.706
54978W        W19798  42.245  19.776   2.678
54979W        W19799  34.440  44.352   2.976
54980W        W19800  25.946  28.413   2.686
54981W        W19801  31.002  37.478  10.144
54982W        W19802  14.302  10.951  14.439
54983W        W19803  43.544  16.894   1.274
54984W        W19804  37.108  17.310   0.415
54985W        W19805  38.723  14.397  11.117
54986W        W19806  33.870  44.371   4.298
54987W        W19807  34.972  11.472  10.622
54988W        W19808  30.691  32.439  10.765
54989W        W19809  36.071  33.883  13.316
54990W        W19810  41.463  44.358   4.405
54991W        W19811   9.637  13.122   0.686
54992W        W19812  28.479   7.722  10.574
54993W        W19813  31.624  19.153   1.306
54994W        W19814   1.012   1.332   5.082
54995W        W19815   4.544  31.389  14.909
54996W        W19816  43.383   9.804  12.409
54997W        W19817  41.049  21.141  11.171
54998W        W19818  41.809  11.794   3.078
54999W        W19819  22.070   5.495   1.898
55000W        W19820  21.082  22.751   0.987
55001W        W19821   9.744   9.401  11.234
55002W        W19822   0.417  42.853   3.258
55003W        W19823  18.070  40.475   0.659
55004W        W19824  41.985  22.560  13.344
55005W        W19825   2.878  27.988  10.703
55006W        W19826   5.980   6.926  14.325
55007W        W19827  21.640  23.748   3.379
55008W        W19828  29.540  27.794   1.471
55009W        W19829  32.903   7.825   2.081
55010W        W19830   3.293  29.011   4.642
55011W        W19831   6.873  36.124   1.863
55012W        W19832  24.891  14.353   2.802
55013W        W19833  28.388  14.336   3.271
55014W        W19834  28.010  41.839   2.230
55015W        W19835  30.254  35.614  13.934
55016W        W19836  37.524  16.811  12.484
55017W        W19837   1.025  23.459   1.324
55018W        W19838  11.576  19.306   0.378
55019W        W19839  27.056  39.153  11.702
55020W        W19840   1.655  13.556   0.949
55021W        W19841  18.499  29.076  10.741
55022W        W19842  24.070  11.842  11.536
55023W        W19843  39.904   5.609   1.700
55024W        W19844  43.998  31.166  11.969
55025W        W19845  33.995   4.812  14.764
55026W        W19846  17.211  17.842   1.646
55027W        W19847  37.639  43.948   3.242
55028W        W19848   7.399  11.722   0.890
55029W        W19849   6.809  42.212  11.732
55030W        W19850   6.300  26.362   5.274
55031W        W19851  26.194  12.565   1.179
55032W        W19852  43.798  16.236  13.193
55033W        W19853  28.871  17.642  12.636
55034W        W19854  33.438  26.231   4.985
55035W        W19855   3.367  20.732  13.819
55036W        W19856   1.335  33.935  13.448
55037W        W19857  11.732  11.589  12.618
55038W        W19858  40.053   2.672   1.331
55039W        W19859  36.243  10.620  13.630
55040W        W19860  10.395  37.919  14.995
55041W        W19861  44.883  33.833   0.471
55042W        W19862   4.463   3.824   3.137
55043W        W19863  26.192  22.603   0.258
55044W        W19864  15.874  21.934  13.300
55045W        W19865   8.619   8.310   2.120
55046W        W19866  20.851  10.876   4.629
55047W        W19867   1.373  17.019  12.028
55048W        W19868  34.964  10.158  10.994
55049W        W19869  22.081  12.585   0.429
55050W        W19870  12.205  36.613   3.960
55051W        W19871  27.725  35.157   0.936
55052W        W19872   1.984   8.244  13.254
55053W        W19873   2.497  16.208  11.003
55054W        W19874   4.957   3.036   2.887
55055W        W19875   9.133   3.283   1.376
55056W        W19876  36.609   3.867  12.071
55057W        W19877  36.439  43.192  13.859
55058W        W19878  27.361  19.038  13.831
55059W        W19879  40.816  41.715  14.952
55060W        W19880   9.192  38.698  12.008
55061W        W19881  35.601   6.323   3.684
55062W        W19882  37.397   7.142   2.970
55063W        W19883   4.345  25.979   0.174
55064W        W19884  31.103  13.433  10.558
55065W        W19885  15.655  23.998   0.164
55066W        W19886   4.275   3.044  11.090
55067W        W19887  41.494  32.878  12.972
55068W        W19888  40.602  18.660   4.595
55069W        W19889  23.321  22.560   4.121
55070W        W19890   8.689  40.389   3.090
55071W        W19891  12.402  33.366  12.118
55072W        W19892  25.712   1.214  13.561
55073W        W19893  19.755  21.103  11.858
55074W        W19894   8.374  32.459  11.640
55075W        W19895  28.270  13.751  12.036
55076W        W19896  40.532  33.630  11.451
55077W        W19897  35.075  26.102   2.643
55078W        W19898  25.618  34.018  12.383
55079W        W19899   5.009  33.664  12.046
55080W        W19900   2.050  40.069   3.323
55081W        W19901  10.127   5.899   1.286
55082W        W19902  16.521  41.294  11.122
55083W        W19903  39.471  22.249   0.766
55084W        W19904  23.491  28.226  14.458
55085W        W19905  41.258  16.187   0.559
55086W        W19906  19.765  29.248   2.370
55087W        W19907  39.292  12.732  11.945
55088W        W19908  31.003  39.363   0.443
55089W        W19909  14.772  17.743  11.533
55090W        W19910   4.138  22.183   1.844
55091W        W19911   9.801  23.282   9.716
55092W        W19912  32.575   4.818   2.355
55093W        W19913  21.141  30.317  10.189
55094W        W19914  36.205  31.085  13.011
55095W        W19915  44.391  24.126   1.647
55096W        W19916  12.350  14.410  12.132
55097W        W19917  13.682   8.413   0.908
55098W        W19918   0.479  13.092  11.578
55099W        W19919   1.836  26.356  10.960
55100W        W19920   7.759  11.785  10.854
55101W        W19921  16.400  16.230   3.622
55102W        W19922  20.118  26.641  13.774
55103W        W19923  17.478  39.576  11.410
55104W        W19924  26.149  42.463   3.638
55105W        W19925  23.094  34.334  12.487
55106W        W19926  12.162   9.282   4.529
55107W        W19927   9.732  27.051  12.984
55108W        W19928  17.319  23.361  13.519
55109W        W19929  31.683   8.960  13.197
55110W        W19930  36.462  15.735  12.515
55111W        W19931  10.830  19.749  12.555
55112W        W19932   8.728  20.735  11.955
55113W        W19933  18.160  17.569   0.827
55114W        W19934  12.999   8.217  14.115
55115W        W19935  14.118  37.343   2.281
55116W        W19936  41.419  12.762   2.131
55117W        W19937  31.111  11.432   3.310
55118W        W19938  12.857  31.756  11.693
55119W        W19939   5.816   4.500  13.919
55120W        W19940   5.954  27.113  13.472
55121W        W19941  32.887  18.154  14.940
55122W        W19942   9.156  38.254   2.805
55123W        W19943  42.711  31.874  11.039
55124W        W19944  39.860  25.989  10.708
55125W        W19945  43.911   8.100  12.670
55126W        W19946   3.820  12.315  10.668
55127W        W19947  32.562  22.604   2.045
55128W        W19948  20.139   0.239   3.295
55129W        W19949  38.093  27.712   0.754
55130W        W19950  22.255  38.012  14.316
55131W        W19951  42.499   5.274  11.602
55132W        W19952  44.856   4.016   2.787
55133W        W19953   5.734  22.627  12.897
55134W        W19954   3.169  33.972   4.999
55135W        W19955  25.100   1.659   3.253
55136W        W19956  10.354  17.929  13.463
55137W        W19957  36.419  42.545  10.742
55138W        W19958   6.444  38.791  14.826
55139W        W19959  17.477  27.735   1.780
55140W        W19960  42.373  24.188  10.729
55141W        W19961  10.595   5.201  14.919
55142W        W19962  43.021  40.133   1.134
55143W        W19963  33.971  15.220  12.812
55144W        W19964  26.042  31.158   3.761
55145W        W19965  44.290   2.812   4.137
55146W        W19966  18.193  39.041   3.012
55147W        W19967   4.665  22.201   4.074
55148W        W19968   8.353   3.268   4.176
55149W        W19969  30.722  27.010  12.423
55150W        W19970  16.331  36.130   0.786
55151W        W19971   2.699   7.361   0.711
55152W        W19972   8.591  16.162   0.098
55153W        W19973  40.078   9.633  11.963
55154W        W19974   1.350   2.177   1.945
55155W        W19975  10.414  16.328   1.970
55156W        W19976  36.089   4.957   4.819
55157W        W19977  43.967  10.385   4.145
55158W        W19978   3.277   7.905  13.846
55159W        W19979   8.468  40.947  12.090
55160W        W19980  24.021  21.215   0.341
55161W        W19981   4.352  31.789  14.056
55162W        W19982  37.411  23.165   0.807
55163W        W19983  23.238   0.986  13.398
55164W        W19984  37.834  13.575  12.638
55165W        W19985  28.164  44.791  12.545
55166W        W19986  36.836  37.362   2.038
55167W        W19987  30.550   6.397   3.170
55168W        W19988  37.004   7.258  13.850
55169W        W19989  11.917  44.494  14.891
55170W        W19990  31.410  26.310   2.759
55171W        W19991  31.149  30.470  12.601
55172W        W19992  39.756  11.453   4.511
55173W        W19993  12.593  42.271   2.219
55174W        W19994   1.080   9.192   3.785
55175W        W19995  11.283  10.941  13.005
55176W        W19996  43.990  25.914  11.764
55177W        W19997  11.271   5.470   0.242
55178W        W19998  12.121  24.570   1.053
55179W        W19999  24.162  13.720  13.384
55180W        W20000  36.607   3.708   0.524
55181W        W20001  32.017   0.270  14.295
55182W        W20002  43.917  22.580  12.302
55183W        W20003  17.075  17.068   0.366
55184W        W20004  20.672  39.511  10.615
55185W        W20005  13.689  32.732  13.984
55186W        W20006   5.390   2.348  12.434
55187W        W20007  16.447  36.118   2.415
55188W        W20008  29.413  36.010  13.796
55189W        W20009  27.196   4.812  11.682
55190W        W20010  18.542  36.355   1.744
55191W        W20011  17.389  31.581   0.479
55192W        W20012   8.139   1.606  13.913
55193W        W20013  25.570  13.662  12.596
55194W        W20014  17.719  34.087  11.484
55195W        W20015   5.447  30.346   0.934
55196W        W20016   6.845  20.199   3.765
55197W        W20017  19.271  38.967  13.719
55198W        W20018   2.947  23.195   1.777
55199W        W20019  19.348  19.772  12.949
55200W        W20020  14.377  27.479  12.970
55201W        W20021  24.561  16.636  10.663
55202W        W20022  23.785   6.884  14.445
55203W        W20023  25.029  43.006  11.693
55204W        W20024  12.256  29.426   0.152
55205W        W20025  19.122  23.324   3.586
55206W        W20026  30.465   9.260   0.631
55207W        W20027  40.291   4.733   2.607
55208W        W20028  22.038  19.418   4.496
55209W        W20029  41.063  17.715  11.893
55210W        W20030  12.353  35.360  14.522
55211W        W20031  28.145  27.233   4.691
55212W        W20032  34.920   9.673   0.908
55213W        W20033  21.703  27.519   4.178
55214W        W20034   1.963  39.402   4.199
55215W        W20035  38.820  44.886  12.423
55216W        W20036  17.715  31.692  13.556
55217W        W20037  22.713  40.821  12.720
55218W        W20038  35.538  23.465  10.502
55219W        W20039  44.287  42.983   1.734
55220W        W20040   0.261  23.740  10.856
55221W        W20041  36.409  44.706  11.565
55222W        W20042   8.842  27.432  10.678
55223W        W20043  21.340   9.271   2.673
55224W        W20044  26.490  37.398  11.652
55225W        W20045  44.580   7.324   9.859
55226W        W20046  25.666  10.140  10.235
55227W        W20047  30.352  21.197   4.675
55228W        W20048  28.932  13.259  13.825
55229W        W20049  12.557   8.116  13.851
55230W        W20050   7.384   3.473   0.674
55231W        W20051  35.112   6.239  11.028
55232W        W20052   1.322  38.838   0.953
55233W        W20053  34.650  21.254  14.428
55234W        W20054   7.955  18.274  10.058
55235W        W20055   1.800  16.704   1.959
55236W        W20056  43.375  42.432   4.710
55237W        W20057  25.746   9.508  12.597
55238W        W20058   7.233  21.010  13.763
55239W        W20059  18.619  39.017   3.358
55240W        W20060   0.250  37.109   4.530
55241W        W20061  27.095  35.971   0.044
55242W        W20062  26.816  44.389   3.488
55243W        W20063  35.008  27.519   1.750
55244W        W20064  38.564   9.403   1.670
55245W        W20065  17.664   6.273   0.757
55246W        W20066  29.825  24.583   0.109
55247W        W20067  16.671   8.306   4.315
55248W        W20068  32.457  20.649   1.168
55249W        W20069  25.991  32.733   0.603
55250W        W20070  22.975  19.617  12.792
55251W        W20071   8.383  19.244   2.732
55252W        W20072  14.837  36.332   1.768
55253W        W20073  16.257   0.563   0.971
55254W        W20074  19.214  41.046  14.936
55255W        W20075  34.881  14.454   4.556
55256W        W20076  38.532   0.791  12.006
55257W        W20077   1.942   1.878   0.477
55258W        W20078  22.474   6.878  12.136
55259W        W20079  24.372   6.601   1.842
55260W        W20080  35.548  40.761   1.065
55261W        W20081  34.855  25.506   1.553
55262W        W20082  32.995  15.120  10.531
55263W        W20083   2.625  39.625  11.439
55264W        W20084  10.990  42.859  14.964
55265W        W20085  26.530  36.862   4.214
55266W        W20086  31.380  31.468  10.533
55267W        W20087  34.210  24.533  11.861
55268W        W20088   0.387  10.169   1.275
55269W        W20089  36.493  41.356  13.499
55270W        W20090  12.590  35.036  12.434
55271W        W20091  28.175   1.748   0.800
55272W        W20092  42.404  23.607   0.984
55273W        W20093  37.361  23.550   3.911
55274W        W20094  26.829  39.908   4.147
55275W        W20095  34.624  44.947  11.615
55276W        W20096  39.878  28.825   4.653
55277W        W20097  35.991  42.941  14.108
55278W        W20098  41.444  29.556   1.434
55279W        W20099  20.482  14.817   4.160
55280W        W20100  24.267  15.699   4.180
55281W        W20101  32.531  25.023  12.925
55282W        W20102   8.258  23.453   4.325
55283W        W20103  27.170   9.408   4.433
55284W        W20104   1.332  12.762  14.975
55285W        W20105  43.974  35.808   1.186
55286W        W20106  15.266   4.756   2.012
55287W        W20107  40.205  14.767   0.876
55288W        W20108   9.710  33.385  11.974
55289W        W20109  26.900  35.583   0.456
55290W        W20110  41.300  25.450   0.772
55291W        W20111  10.425  36.412   4.418
55292W        W20112   7.783  31.203  14.527
55293W        W20113  35.827  19.758   1.860
55294W        W20114  36.385  42.714   5.059
55295W        W20115  38.891   3.998  14.995
55296W        W20116  36.077  18.596  14.362
55297W        W20117  18.673  12.137   3.758
55298W        W20118  36.995  38.878   2.719
55299W        W20119  31.161  23.013  13.406
55300W        W20120  41.093   9.209   4.772
55301W        W20121  20.757  21.650   1.819
55302W        W20122  13.307  10.209   0.105
55303W        W20123  23.142  20.036   5.446
55304W        W20124   3.714  19.650  12.081
55305W        W20125  13.818  11.305  10.672
55306W        W20126  38.960  12.431   0.385
55307W        W20127  21.722  28.582  10.748
55308W        W20128   3.768   5.086   3.087
55309W        W20129  35.707  13.135  14.811
55310W        W20130  20.994  35.103  11.591
55311W        W20131  40.317  34.569   3.436
55312W        W20132  33.536  40.037   2.518
55313W        W20133   9.830  30.725  14.346
55314W        W20134   6.421  24.030   4.818
55315W        W20135  28.594  17.988  13.855
55316W        W20136  10.631  30.634   3.107
55317W        W20137   0.580  38.293  12.066
55318W        W20138  44.658  18.184  10.352
55319W        W20139  38.514  23.024  13.406
55320W        W20140  26.904  20.752  12.640
55321W        W20141  23.511  10.132  14.876
55322W        W20142   0.544  22.649   3.124
55323W        W20143  40.372   8.526  11.721
55324W        W20144  13.644  28.440   1.462
55325W        W20145  27.544  15.048  12.521
55326W        W20146  19.065  10.146  12.179
55327W        W20147  42.471  35.175  11.947
55328W        W20148   8.633  27.900   1.382
55329W        W20149   3.853  19.004  13.437
55330W        W20150  28.863  32.129   1.267
55331W        W20151  33.110  11.257  13.163
55332W        W20152  33.579  18.789   3.159
55333W        W20153  10.410   8.821  13.333
55334W        W20154  31.026  10.787  11.133
55335W        W20155  35.699  31.116  13.155
55336W        W20156  11.756   6.203  10.842
55337W        W20157  44.827  11.901  12.756
55338W        W20158  30.059   7.290  10.730
55339W        W20159   9.919  32.181  14.875
55340W        W20160  22.250  24.486  14.835
55341W        W20161   5.755   8.755   1.284
55342W        W20162  11.728   3.851  14.424
55343W        W20163  41.085  24.113  11.458
55344W        W20164  43.823  44.195   0.931
55345W        W20165  38.336   4.845   3.272
55346W        W20166  28.186   6.318   3.080
55347W        W20167  10.778   2.502  14.701
55348W        W20168  17.133  38.014  12.147
55349W        W20169  35.149  28.753  14.862
55350W        W20170  28.589   2.827  13.380
55351W        W20171  40.073   4.726   0.743
55352W        W20172  34.327  42.889   1.198
55353W        W20173  15.022   4.841  13.837
55354W        W20174  29.262  28.322   3.251
55355W        W20175  21.121  18.114   1.973
55356W        W20176  27.143  21.344   4.627
55357W        W20177  35.589   6.723  12.000
55358W        W20178  34.373  11.414  11.120
55359W        W20179   3.453   1.934  10.406
55360W        W20180  15.610  15.983  11.903
55361W        W20181  19.063   3.016  14.385
55362W        W20182  32.400   7.388   4.163
55363W        W20183  23.951  35.093  12.401
55364W        W20184  44.614  38.145   0.691
55365W        W20185  38.044  17.033  11.155
55366W        W20186   4.624   8.789   0.809
55367W        W20187   9.929   3.273  10.019
55368W        W20188  41.051  19.477  12.490
55369W        W20189  27.605   9.180  14.367
55370W        W20190  11.583  26.137  14.337
55371W        W20191   5.821  32.821   0.778
55372W        W20192  40.772  41.252   3.382
55373W        W20193   9.710  18.208   4.103
55374W        W20194  19.938  17.192  10.810
55375W        W20195   6.458  15.131  11.238
55376W        W20196  22.171   6.632  10.930
55377W        W20197  28.181   8.785  11.425
55378W        W20198  34.792  41.909  11.304
55379W        W20199  10.591  24.042   0.743
55380W        W20200   5.718  10.619   1.301
55381W        W20201   1.557   2.497  12.465
55382W        W20202   9.198  15.279  14.972
55383W        W20203   8.646  37.018  13.513
55384W        W20204   7.485   9.843   0.310
55385W        W20205  37.601   6.072  12.868
55386W        W20206  10.773   4.163   1.379
55387W        W20207  14.683  41.684  14.658
55388W        W20208  38.017   1.939  11.092
55389W        W20209  25.734  43.074  11.165
55390W        W20210  19.558  41.103   3.677
55391W        W20211  41.045  18.003   1.193
55392W        W20212   2.450   2.052   4.582
55393W        W20213  14.073   3.714  14.933
55394W        W20214  35.599  40.091   2.332
55395W        W20215  24.105  23.629  14.830
55396W        W20216  20.661  10.709  12.946
55397W        W20217  25.098  44.783  14.121
55398W        W20218  11.851  17.922   0.311
55399W        W20219   9.188  30.191  11.307
55400W        W20220  26.882  17.770  13.849
55401W        W20221  19.659  39.315   2.906
55402W        W20222  34.212  39.548   2.424
55403W        W20223  31.446  43.998   2.797
55404W        W20224  10.899   3.840   0.981
55405W        W20225  14.109  16.196   1.857
55406W        W20226  18.250  32.128  12.845
55407W        W20227  11.726  40.431  11.011
55408W        W20228  43.354   9.598   2.443
55409W        W20229   4.635   4.891  13.848
55410W        W20230   0.972   2.880   2.937
55411W        W20231  27.936   8.323  12.563
55412W        W20232  43.923  43.682   2.737
55413W        W20233   1.486  23.790   0.472
55414W        W20234  25.665  27.173   1.880
55415W        W20235  26.393   7.467  13.878
55416W        W20236  42.006  25.131  13.072
55417W        W20237   1.974  44.331   0.208
55418W        W20238   6.450  30.884  12.863
55419W        W20239   6.347   7.218   0.988
55420W        W20240  24.938  38.566   1.854
55421W        W20241  17.237  18.598   3.634
55422W        W20242  19.107  25.673  10.360
55423W        W20243  31.371  34.953  11.157
55424W        W20244  12.289  12.234  12.490
55425W        W20245   3.278   3.148  13.929
55426W        W20246  24.254  44.833   2.336
55427W        W20247  24.631  43.966  14.473
55428W        W20248  38.570  39.835   2.801
55429W        W20249  34.632   3.844   0.900
55430W        W20250  22.222  10.208  13.516
55431W        W20251   0.246  34.161  14.701
55432W        W20252  12.889  22.062  10.961
55433W        W20253  26.039  34.004  10.195
55434W        W20254  22.049  40.903  12.882
55435W        W20255  44.807  36.052   4.490
55436W        W20256  19.568   9.951   0.502
55437W        W20257  19.901  11.369  12.046
55438W        W20258  25.753  22.784   2.885
55439W        W20259  12.785  31.881  14.670
55440W        W20260  31.817   0.890  14.967
55441W        W20261  29.153  32.837   3.622
55442W        W20262  31.893  29.618   2.892
55443W        W20263  18.186  34.714   4.212
55444W        W20264  26.436   9.825  13.081
55445W        W20265  20.592   3.181  10.705
55446W        W20266   4.823  28.598  12.869
55447W        W20267  23.079  27.581  10.982
55448W        W20268  40.058  26.073   0.896
55449W        W20269  37.820  40.089  13.023
55450W        W20270   9.280  28.448   0.539
55451W        W20271  33.193   6.487   4.270
55452W        W20272  16.412  36.987  11.970
55453W        W20273  30.845   5.802  14.007
55454W        W20274   2.477  14.867   0.772
55455W        W20275   1.890  37.121  11.471
55456W        W20276  40.864   9.086  13.392
55457W        W20277  13.546  32.407   2.570
55458W        W20278  20.770  27.866   4.108
55459W        W20279  23.123  27.506  11.919
55460W        W20280   9.335  15.788   0.014
55461W        W20281   5.391  26.461   0.954
55462W        W20282  38.575  29.091   3.345
55463W        W20283  13.275   3.519  11.980
55464W        W20284   3.421   3.985   1.337
55465W        W20285  26.419   9.250  14.328
55466W        W20286  24.233  10.274  10.730
55467W        W20287  28.400  16.266  12.623
55468W        W20288  44.715  34.115  14.474
55469W        W20289  27.137  39.943   3.719
55470W        W20290  12.873  36.106   0.427
55471W        W20291   5.105  23.012   2.187
55472W        W20292   4.373  15.124   2.687
55473W        W20293  27.589  32.532  11.165
55474W        W20294   1.990  11.313  10.666
55475W        W20295  31.589  11.425   1.663
55476W        W20296  34.844   7.611   1.781
55477W        W20297   5.451   8.208   4.537
55478W        W20298  19.741  39.362   1.976
55479W        W20299  42.954  28.587  11.905
55480W        W20300  34.890  13.280  10.658
55481W        W20301   4.414  19.024   1.937
55482W        W20302  34.606  26.337  13.434
55483W        W20303  18.038  40.421  11.148
55484W        W20304  31.469   2.517  12.607
55485W        W20305  41.029   7.747  11.662
55486W        W20306  23.479  35.617   3.815
55487W        W20307  23.102   8.931   1.187
55488W        W20308  37.917  17.512  14.013
55489W        W20309  30.430   0.367   2.530
55490W        W20310  21.431   9.218   0.046
55491W        W20311  24.104  30.399   5.109
55492W        W20312   8.664   9.722   0.793
55493W        W20313   8.387  17.169   0.892
55494W        W20314  14.953  40.114   4.824
55495W        W20315  23.723   8.431  14.524
55496W        W20316  37.485  32.423  10.930
55497W        W20317  33.024  16.313  12.990
55498W        W20318  11.267  27.114  11.142
55499W        W20319   2.251  39.869  14.839
55500W        W20320  18.160  31.113   3.650
55501W        W20321  15.969  35.409   2.799
55502W        W20322  31.916  27.594   0.029
55503W        W20323  42.851  17.155   2.477
55504W        W20324  31.740  41.354  10.781
55505W        W20325  29.542   3.972   3.694
55506W        W20326   8.807   7.341  13.503
55507W        W20327  10.570  41.328   1.522
55508W        W20328  16.144   2.523  11.183
55509W        W20329  32.127  23.002   5.038
55510W        W20330  27.953  13.765  13.839
55511W        W20331  19.666   4.184  10.503
55512W        W20332   0.347  16.641   1.871
55513W        W20333  29.980  40.036   4.686
55514W        W20334  23.612   3.876   1.733
55515W        W20335  37.014  33.025   2.445
55516W        W20336  23.191  40.863   2.708
55517W        W20337  31.395  36.572   2.882
55518W        W20338  10.477  17.635   4.200
55519W        W20339  44.575   7.687  13.934
55520W        W20340   8.849  20.778  14.864
55521W        W20341  26.107  10.153  11.469
55522W        W20342   4.017  41.500   1.375
55523W        W20343   9.297  23.034  12.600
55524W        W20344  13.171  35.324   2.283
55525W        W20345  28.006  41.097   4.274
55526W        W20346  31.855  36.327   0.521
55527W        W20347  24.243   2.206  14.044
55528W        W20348  19.842  39.767  11.119
55529W        W20349  18.804   4.467  12.411
55530W        W20350   2.733   9.912  13.421
55531W        W20351  11.071   0.256  12.173
55532W        W20352   9.105  24.537   1.235
55533W        W20353  44.711  19.650   1.269
55534W        W20354  14.851  43.010  12.953
55535W        W20355  40.286  34.615   0.981
55536W        W20356   3.954  21.813  12.542
55537W        W20357  23.496  17.821   1.161
55538W        W20358   7.966  41.418  12.915
55539W        W20359  22.789  43.072   1.666
55540W        W20360  15.474  20.537  11.966
55541W        W20361  29.609  17.955  13.295
55542W        W20362  40.507   0.885   2.213
55543W        W20363   2.791   9.854  12.562
55544W        W20364  18.194  15.565   1.747
55545W        W20365  28.960  39.018   0.916
55546W        W20366  35.520   1.803  12.451
55547W        W20367  35.148   5.226  11.403
55548W        W20368  43.797   4.594  14.773
55549W        W20369  27.489   2.480  14.461
55550W        W20370  11.360   7.933  11.232
55551W        W20371  25.551  30.334   2.449
55552W        W20372  20.503   8.716  12.103
55553W        W20373  21.605   9.338   0.808
55554W        W20374   2.751  30.473   0.953
55555W        W20375  34.987  18.309  12.431
55556W        W20376  22.864  11.053  11.897
55557W        W20377  22.564  15.839   4.652
55558W        W20378   5.772  22.323  13.456
55559W        W20379  16.595  41.456  12.839
55560W        W20380   2.216  24.120  13.027
55561W        W20381  26.512  16.548  11.618
55562W        W20382   0.475  11.227  12.362
55563W        W20383  15.567  42.525  13.776
55564W        W20384  42.413  16.783   1.533
55565W        W20385  25.913  43.357   3.752
55566W        W20386  27.855  34.633  12.538
55567W        W20387  36.459  14.455  12.009
55568W        W20388  33.761  21.004  10.278
55569W        W20389  17.773  21.244   3.875
55570W        W20390  27.921  36.037   2.882
55571W        W20391  28.915  19.064  11.155
55572W        W20392  14.649   0.440  12.381
55573W        W20393  19.165  39.532  11.314
55574W        W20394   2.330  40.198   2.889
55575W        W20395  20.190  30.992   2.376
55576W        W20396  10.962  31.640  14.430
55577W        W20397  29.595  17.017  11.310
55578W        W20398  25.120  35.195   1.650
55579W        W20399  23.681  17.667   4.196
55580W        W20400  40.090  21.646   1.603
55581W        W20401  18.178  27.276  13.446
55582W        W20402  36.923  32.701  14.190
55583W        W20403  43.212  27.708   4.702
55584W        W20404  38.266  37.022   0.034
55585W        W20405   7.111  40.000   1.632
55586W        W20406  24.505  13.329  11.929
55587W        W20407  28.068   6.478  13.176
55588W        W20408   7.187  36.883  13.797
55589W        W20409  30.916  13.908  14.085
55590W        W20410   6.663  23.366  10.265
55591W        W20411   7.790  38.075   2.939
55592W        W20412  28.067   2.865   4.189
55593W        W20413  19.280   9.790  13.316
55594W        W20414  23.073   3.191  13.086
55595W        W20415  25.607  23.540   3.322
55596W        W20416  10.526  27.275  10.718
55597W        W20417  19.277   6.856  11.393
55598W        W20418  30.884  38.034   2.836
55599W        W20419  17.560  44.002   0.456
55600W        W20420  27.981   5.936   0.891
55601W        W20421   4.997  38.508   4.111
55602W        W20422  10.570   1.272  12.681
55603W        W20423  27.409  37.589   2.868
55604W        W20424  30.857  22.070   1.337
55605W        W20425  42.123  41.381  13.821
55606W        W20426  40.810  38.419  13.889
55607W        W20427  15.612  27.978   1.588
55608W        W20428  33.308  18.611   0.157
55609W        W20429  12.906  11.205  14.239
55610W        W20430  25.829  34.492  12.269
55611W        W20431   3.229  19.916   2.165
55612W        W20432  11.635  34.632  12.501
55613W        W20433  44.460   5.246   3.698
55614W        W20434   2.280  11.558  12.800
55615W        W20435  34.162  38.785   3.418
55616W        W20436   6.195  13.879   2.353
55617W        W20437  10.421  33.749   1.410
55618W        W20438  42.343  37.078   4.531
55619W        W20439   4.861  20.870  14.569
55620W        W20440   4.519  21.426  14.970
55621W        W20441   1.958  25.147  11.643
55622W        W20442  19.239  35.683  12.775
55623W        W20443  11.380  28.154   1.687
55624W        W20444  27.000  20.456   2.713
55625W        W20445  27.871  13.321   3.634
55626W        W20446  15.327  22.444  11.368
55627W        W20447   0.270   6.680   2.360
55628W        W20448   8.784  10.252  10.696
55629W        W20449  38.343   7.502   1.892
55630W        W20450  40.180  43.845  14.239
55631W        W20451  27.473   5.443  13.847
55632W        W20452  42.822  24.013  12.027
55633W        W20453  32.933   0.226  13.461
55634W        W20454   3.185  38.618   2.452
55635W        W20455  38.519  26.035   0.662
55636W        W20456  11.785  38.503  10.606
55637W        W20457   1.351   4.819  10.794
55638W        W20458  42.563  11.629   1.375
55639W        W20459  10.286  13.181   4.335
55640W        W20460  28.173   2.744   9.855
55641W        W20461  13.744  22.787   0.360
55642W        W20462   0.697  28.533  14.339
55643W        W20463  12.072  43.530  11.963
55644W        W20464  42.360  14.878  10.617
55645W        W20465   3.318  21.340  13.192
55646W        W20466  15.365  14.794  11.619
55647W        W20467   5.446  10.830   3.040
55648W        W20468   9.287  16.820   1.281
55649W        W20469  14.076  36.824   2.266
55650W        W20470   3.234  39.921  12.048
55651W        W20471  31.109   9.784  11.086
55652W        W20472  42.363  39.026   2.370
55653W        W20473  37.420  15.061   4.167
55654W        W20474  31.193   3.120   1.856
55655W        W20475  42.782  15.509   5.094
55656W        W20476  41.277   8.414   3.665
55657W        W20477  28.269  33.078   3.054
55658W        W20478  29.259  12.125   1.883
55659W        W20479  42.557  43.152  14.714
55660W        W20480  14.188  44.851   2.953
55661W        W20481  30.642  14.689   0.836
55662W        W20482  27.957   1.880   1.245
55663W        W20483  24.787  20.299  13.538
55664W        W20484  41.833  22.508   2.220
55665W        W20485   6.630   9.284  13.051
55666W        W20486  23.015   6.153  11.588
55667W        W20487  23.797  35.622  10.479
55668W        W20488  30.847  28.689  11.706
55669W        W20489  21.183  41.834   3.809
55670W        W20490  15.562   5.607  10.668
55671W        W20491  16.613  12.101   1.831
55672W        W20492  24.048  40.507  11.162
55673W        W20493   8.646  42.516  14.029
55674W        W20494  33.265   2.751  12.476
55675W        W20495  41.948  18.753  10.625
55676W        W20496  17.642  26.372   9.654
55677W        W20497  33.142   0.940  10.732
55678W        W20498  36.666  35.463  14.008
55679W        W20499  41.412  14.229   4.353
55680W        W20500  27.390   7.114  14.713
55681W        W20501  23.098   7.925  13.912
55682W        W20502  11.899  43.246   4.312
55683W        W20503  33.137   0.973  11.982
55684W        W20504  31.330   5.282  12.463
55685W        W20505   0.812  38.655  12.333
55686W        W20506  31.708  22.832   0.385
55687W        W20507  22.136  27.500   1.753
55688W        W20508   9.530  29.596  11.066
55689W        W20509  30.233   6.254  11.125
55690W        W20510  27.502  15.525   1.684
55691W        W20511   3.467  20.295  14.770
55692W        W20512   8.888  38.114  14.828
55693W        W20513  26.895  29.568  13.533
55694W        W20514  30.810  41.373  12.197
55695W        W20515  42.861  30.030  12.869
55696W        W20516  12.837  14.342   1.159
55697W        W20517  27.901  44.025   4.232
55698W        W20518   2.852  40.542  14.438
55699W        W20519  31.255  41.547   1.354
55700W        W20520  43.400  13.882   3.121
55701W        W20521  15.727  29.175   4.964
55702W        W20522   5.393   6.950  13.056
55703W        W20523  32.859   9.857   2.850
55704W        W20524  14.220   8.110  12.465
55705W        W20525  15.048  21.047  12.976
55706W        W20526  26.543  16.342  10.718
55707W        W20527  16.105  19.067  11.993
55708W        W20528  38.222  20.561  11.031
55709W        W20529  19.959   4.155   3.293
55710W        W20530  41.247   0.795   3.744
55711W        W20531   6.470  24.019  14.583
55712W        W20532  30.035  35.128  14.441
55713W        W20533  18.732  30.061  14.086
55714W        W20534  36.329  12.053   2.154
55715W        W20535  42.024   0.926   4.176
55716W        W20536   4.812  40.850   2.699
55717W        W20537   4.974  17.124  12.324
55718W        W20538  17.750  12.605   1.367
55719W        W20539   6.403   0.293  13.055
55720W        W20540  26.768  34.851   0.984
55721W        W20541  12.755  28.291   4.144
55722W        W20542  31.918   7.567   3.243
55723W        W20543   7.679   4.972   2.829
55724W        W20544   0.442  12.773  13.069
55725W        W20545  34.436  38.632  11.516
55726W        W20546  15.146  23.696  11.414
55727W        W20547  39.918  19.012   1.649
55728W        W20548  37.926  12.976  13.435
55729W        W20549  22.054  39.443   1.465
55730W        W20550   8.930  29.628   0.865
55731W        W20551  41.534  32.372   1.966
55732W        W20552  25.617  20.884   3.563
55733W        W20553  19.251  37.636   9.753
55734W        W20554  43.539  32.410  13.047
55735W        W20555  17.411  21.132   4.856
55736W        W20556  23.961  29.005   0.779
55737W        W20557   6.473  20.677   2.183
55738W        W20558  11.646  18.546  14.371
55739W        W20559  32.815  28.035  10.446
55740W        W20560  31.036  22.877   1.639
55741W        W20561  14.448  21.269   3.664
55742W        W20562   6.925  16.867  14.815
55743W        W20563  33.903  14.116   4.659
55744W        W20564   0.989  27.695   1.564
55745W        W20565  29.127   9.868  12.437
55746W        W20566  16.179   9.140   0.926
55747W        W20567  28.944  15.571   3.288
55748W        W20568  32.536  23.172   0.430
55749W        W20569  30.049  35.465  14.870
55750W        W20570  35.726   2.991  10.730
55751W        W20571   3.940   7.295   2.210
55752W        W20572  37.828  17.984  12.985
55753W        W20573  23.488  34.591   4.585
55754W        W20574  24.344  25.643   3.533
55755W        W20575  12.142  24.730   0.008
55756W        W20576  12.752   6.399  14.965
55757W        W20577  12.684   1.550  11.467
55758W        W20578  26.590   2.664  14.423
55759W        W20579  11.962   4.740  12.921
55760W        W20580   5.796   3.332  11.115
55761W        W20581  34.969  26.009  12.403
55762W        W20582  25.037   8.670   2.643
55763W        W20583   3.927  31.606   1.846
55764W        W20584  28.639   9.157  11.957
55765W        W20585  27.992  15.663   4.714
55766W        W20586  20.553  34.498   4.229
55767W        W20587  25.975  26.333   4.650
55768W        W20588  44.506  41.826   2.273
55769W        W20589   2.883  27.677   4.062
55770W        W20590  11.820  24.902   3.712
55771W        W20591  31.920  28.865  11.144
55772W        W20592  17.100  18.202  11.834
55773W        W20593  15.304  20.549   4.566
55774W        W20594  26.122  41.511   1.976
55775W        W20595  24.360  16.753   5.453
55776W        W20596   4.508  13.775   1.967
55777W        W20597  17.100  17.796   2.662
55778W        W20598  13.785  40.370   2.131
55779W        W20599  16.788  12.913  13.992
55780W        W20600  27.131  19.145  10.469
55781W        W20601   1.400  25.987   4.567
55782W        W20602  14.754   6.184  14.870
55783W        W20603   5.854   7.185  11.059
55784W        W20604  36.952  37.205   4.236
55785W        W20605   8.000  18.786   3.985
55786W        W20606   0.924  40.986  13.351
55787W        W20607   7.809  24.137   0.424
55788W        W20608  31.157  14.303  13.836
55789W        W20609  12.672  35.562   3.609
55790W        W20610  18.389   0.934   3.627
55791W        W20611  27.728  15.640  11.931
55792W        W20612  15.833  23.071   1.814
55793W        W20613  11.075  15.009   3.078
55794W        W20614  13.521  22.009   3.263
55795W        W20615  43.054  25.221   1.381
55796W        W20616  24.984  23.810  14.908
55797W        W20617   7.754  26.722  14.705
55798W        W20618  42.801  22.020   1.811
55799W        W20619  21.579  34.284   3.084
55800W        W20620  24.536  37.461  14.681
55801W        W20621   2.247  12.858  12.459
55802W        W20622  30.357  33.119  14.539
55803W        W20623  27.094  13.149  14.283
55804W        W20624   4.709   1.660   2.505
55805W        W20625  28.870  38.774   4.577
55806W        W20626  32.938  15.214  11.402
55807W        W20627  44.741   5.112   1.862
55808W        W20628  24.993  36.149   3.627
55809W        W20629  42.881  15.244  11.960
55810W        W20630  33.153  44.469   4.548
55811W        W20631  40.585   7.834  10.447
55812W        W20632  11.301  34.539   0.694
55813W        W20633  19.359  44.924  12.991
55814W        W20634  10.629  24.653  12.463
55815W        W20635  23.927  32.474   2.868
55816W        W20636  14.694  25.615  11.051
55817W        W20637  27.479  26.248   2.276
55818W        W20638  13.503  23.632  10.001
55819W        W20639  24.639  28.652  10.648
55820W        W20640  19.246  28.714  14.122
55821W        W20641  25.292  18.079  10.661
55822W        W20642   5.177  25.999   0.781
55823W        W20643  38.558  27.863  11.906
55824W        W20644  36.078  14.610   3.201
55825W        W20645   8.970   7.678  14.400
55826W        W20646  42.297  43.222   1.718
55827W        W20647  41.361  18.027   4.671
55828W        W20648  35.589  21.070   1.257
55829W        W20649   6.189  40.975  11.409
55830W        W20650  29.610  17.757  13.787
55831W        W20651  18.993   8.172  13.492
55832W        W20652  16.887   0.272   4.605
55833W        W20653  42.853  34.866   4.372
55834W        W20654  25.307  34.404  12.212
55835W        W20655  13.370  28.203  11.949
55836W        W20656   2.348  11.796  11.348
55837W        W20657  11.188   3.939  14.080
55838W        W20658  31.669  20.560  10.627
55839W        W20659  26.169  10.330   0.387
55840W        W20660  34.467  10.417  13.612
55841W        W20661  38.324  33.094  13.456
55842W        W20662  28.226   0.828   3.096
55843W        W20663  25.392  28.982   2.013
55844W        W20664  14.690   4.381   2.219
55845W        W20665  25.791  44.380   0.970
55846W        W20666  42.060  31.814   4.152
55847W        W20667  27.024  44.852  13.101
55848W        W20668  31.035  26.061   4.327
55849W        W20669  19.193  12.813  10.610
55850W        W20670  28.700  40.496  13.369
55851W        W20671  42.234  32.253   0.944
55852W        W20672  42.995  15.793   3.105
55853W        W20673  35.546  10.865  12.610
55854W        W20674  37.437   4.633   3.128
55855W        W20675  37.920   4.442   3.873
55856W        W20676   9.730  19.961  13.975
55857W        W20677  20.987   8.051   0.996
55858W        W20678   5.786   3.894   2.680
55859W        W20679  20.133  10.380   2.463
55860W        W20680  18.452   9.067  13.386
55861W        W20681  43.916  19.699  10.659
55862W        W20682  10.493  12.964  14.857
55863W        W20683   7.461  37.412  13.016
55864W        W20684  32.383  30.419   2.015
55865W        W20685   3.412   2.584   1.242
55866W        W20686   3.900  15.903  10.582
55867W        W20687   5.911  31.344   4.616
55868W        W20688  20.048  20.059  14.794
55869W        W20689  36.237   0.327   3.941
55870W        W20690  13.325  38.501   1.160
55871W        W20691  42.879  14.719  12.634
55872W        W20692  26.366  31.552   0.464
55873W        W20693  36.088  24.955   4.530
55874W        W20694  32.686  18.634  13.393
55875W        W20695   1.360  13.674   0.523
55876W        W20696  28.501  21.127  12.681
55877W        W20697  25.994   5.940  11.457
55878W        W20698  13.329   6.708   3.462
55879W        W20699  21.411   7.068   2.292
55880W        W20700  43.010  41.271   0.346
55881W        W20701  12.135  13.620  13.021
55882W        W20702  34.932  14.856  13.997
55883W        W20703  37.158   1.805  10.771
55884W        W20704  16.959  14.595  10.319
55885W        W20705  13.497  16.209   0.470
55886W        W20706  24.541  17.546  13.538
55887W        W20707  27.574  24.776   1.214
55888W        W20708  20.415  25.625  12.659
55889W        W20709  31.911   8.808   0.865
55890W        W20710  34.624  20.534  11.218
55891W        W20711  17.608  21.206   4.373
55892W        W20712  35.493  12.216  12.900
55893W        W20713   1.415  18.023  14.991
55894W        W20714  18.752  12.656  13.045
55895W        W20715  19.068  18.181   0.696
55896W        W20716  34.940  42.311  10.961
55897W        W20717  31.038  29.484   3.276
55898W        W20718   2.987  11.278   2.830
55899W        W20719  33.826   7.667   1.895
55900W        W20720  37.819  10.744  13.846
55901W        W20721  24.217  40.603   3.251
55902W        W20722  12.274   5.351   2.227
55903W        W20723   3.956  32.014  14.886
55904W        W20724  27.667   2.280   2.793
55905W        W20725  22.386  41.979  13.780
55906W        W20726  25.118  18.984  14.012
55907W        W20727  36.382  15.253  14.022
55908W        W20728   2.186  38.737   0.417
55909W        W20729  30.190  10.279   0.385
55910W        W20730   0.725  34.682   4.830
55911W        W20731  26.734  39.064   4.074
55912W        W20732  39.349  16.833  12.581
55913W        W20733  24.951  36.683  13.041
55914W        W20734   3.788  31.058  14.333
55915W        W20735  26.536   8.201   4.413
55916W        W20736  38.430   7.711  14.764
55917W        W20737  41.724  33.118   3.101
55918W        W20738  40.277  31.219   1.217
55919W        W20739  44.325  29.616  12.139
55920W        W20740  30.045  41.218   3.993
55921W        W20741  10.719  35.100  11.931
55922W        W20742  42.380  28.515   1.715
55923W        W20743  14.892  41.299   1.917
55924W        W20744  30.022   7.842   4.159
55925W        W20745  34.554  33.073   3.682
55926W        W20746  23.478  27.331  11.221
55927W        W20747  14.801   4.676  13.313
55928W        W20748  21.528  40.868  13.492
55929W        W20749  13.857  28.175   2.850
55930W        W20750  40.358  10.363  10.671
55931W        W20751  22.652  22.505   0.527
55932W        W20752  18.097  33.857   0.281
55933W        W20753  19.392  21.044  13.154
55934W        W20754   0.801   8.562  12.114
55935W        W20755   9.743  14.070  11.680
55936W        W20756  20.423  25.444  12.097
55937W        W20757  15.375   6.296  12.606
55938W        W20758  21.784   2.383   2.247
55939W        W20759  13.236  23.152  11.154
55940W        W20760   3.445   1.694   3.429
55941W        W20761  32.870  41.456   2.968
55942W        W20762  44.424   0.337  10.358
55943W        W20763  24.523   3.931  10.953
55944W        W20764   8.270  17.667  11.454
55945W        W20765  22.062  17.768   1.181
55946W        W20766  25.858   4.879  11.522
55947W        W20767  15.623   5.463  12.427
55948W        W20768  15.179  27.498  14.864
55949W        W20769  38.479  39.023   3.858
55950W        W20770  39.942  32.467   2.211
55951W        W20771  13.113   8.317   4.138
55952W        W20772   9.788   3.355   3.325
55953W        W20773  13.268  39.386  10.828
55954W        W20774  11.752  24.096  11.597
55955W        W20775  24.162  10.554  13.468
55956W        W20776  25.490  32.042   4.293
55957W        W20777   1.488  11.565   1.486
55958W        W20778   6.930  28.957  14.428
55959W        W20779  20.292  43.770  12.224
55960W        W20780  32.998  37.954  10.694
55961W        W20781  16.319   5.356  11.092
55962W        W20782  33.945   5.927   2.178
55963W        W20783  30.642  36.683   5.448
55964W        W20784   3.854  11.931  14.139
55965W        W20785  34.678  35.139   2.122
55966W        W20786  41.009  28.388  14.687
55967W        W20787  19.609  41.656   3.664
55968W        W20788  34.318  31.155  12.052
55969W        W20789  30.202   4.717   1.688
55970W        W20790  10.792  19.130  11.100
55971W        W20791  20.220  35.890  14.192
55972W        W20792  18.665  19.610   4.556
55973W        W20793  21.637   2.155  13.115
55974W        W20794  29.465  24.554  14.172
55975W        W20795  25.093  22.213   0.095
55976W        W20796  25.098  10.296  10.995
55977W        W20797   6.200  37.826  14.891
55978W        W20798  16.878  20.081   3.298
55979W        W20799  34.079  29.535   3.188
55980W        W20800  14.674  11.393  13.570
55981W        W20801  18.593   7.201   2.868
55982W        W20802  19.620  42.433   4.127
55983W        W20803  39.197  35.375   2.653
55984W        W20804  13.224  13.794  12.242
55985W        W20805  13.603   6.498   3.016
55986W        W20806  24.963  24.893   3.337
55987W        W20807  37.020  44.022  10.902
55988W        W20808  33.053  32.393   1.119
55989W        W20809  39.101   1.978   1.758
55990W        W20810  35.224  31.869   2.081
55991W        W20811  21.661  32.939   4.082
55992W        W20812  25.877  36.019   0.793
55993W        W20813  25.505  20.063   1.445
55994W        W20814  39.178  24.927  14.979
55995W        W20815  31.480  21.197  10.107
55996W        W20816  43.625  35.182   1.791
55997W        W20817  36.226  35.029   2.333
55998W        W20818  43.531  41.186  11.529
55999W        W20819  16.770   7.700  13.823
56000W        W20820   2.457  10.315   5.054
56001W        W20821  14.854  27.999   0.884
56002W        W20822  35.943  44.445   0.499
56003W        W20823  26.529  33.455   1.175
56004W        W20824  24.491   8.374   2.338
56005W        W20825  25.496  21.531   5.543
56006W        W20826   3.328  36.980  11.233
56007W        W20827   2.388  22.981   4.725
56008W        W20828  25.289  11.561   3.156
56009W        W20829  34.544  35.951  12.874
56010W        W20830  11.453  40.509   2.142
56011W        W20831  29.935   8.861   5.061
56012W        W20832   5.315  18.421   0.064
56013W        W20833  24.061  39.361   3.787
56014W        W20834  19.754  37.675  12.859
56015W        W20835  16.715   4.743  13.069
56016W        W20836  28.591  30.152  11.498
56017W        W20837  13.245  43.406   1.244
56018W        W20838  15.243  38.381   3.932
56019W        W20839  20.471  44.745  11.930
56020W        W20840  17.560  29.072   0.827
56021W        W20841  21.468  40.372   2.367
56022W        W20842  21.828  23.041  14.682
56023W        W20843  37.873   1.691  12.943
56024W        W20844  35.074   4.388  11.408
56025W        W20845  30.552  37.360  10.965
56026W        W20846  17.748  16.088  11.059
56027W        W20847  19.919  22.802   2.377
56028W        W20848  23.183   5.836  10.771
56029W        W20849  26.342  36.255   0.896
56030W        W20850  28.660   1.859  14.280
56031W        W20851  18.445  24.772   1.451
56032W        W20852  35.398  22.172  12.367
56033W        W20853   5.883  22.920  11.588
56034W        W20854   6.217  27.910   2.701
56035W        W20855  23.000  15.849   2.632
56036W        W20856  29.946  42.996  11.562
56037W        W20857  17.199  33.488   1.611
56038W        W20858  41.234  10.069  13.541
56039W        W20859  31.406  20.740  13.633
56040W        W20860  21.964  23.068  11.460
56041W        W20861   1.445  14.464   0.972
56042W        W20862  34.615  41.237   0.968
56043W        W20863  36.040  33.619   2.004
56044W        W20864  32.087   7.440  14.382
56045W        W20865  29.510  23.493   0.515
56046W        W20866  38.585  38.818  14.430
56047W        W20867  29.594  30.156  13.845
56048W        W20868  28.604  40.865   2.853
56049W        W20869   6.629  37.484   2.438
56050W        W20870  36.392  33.579  13.653
56051W        W20871  43.220  18.892  11.168
56052W        W20872  28.404  22.308   0.032
56053W        W20873  22.608   0.502  11.628
56054W        W20874   4.401  41.761   3.780
56055W        W20875  43.568  16.386   2.231
56056W        W20876  44.271  41.119  12.365
56057W        W20877  33.840  43.192   2.757
56058W        W20878  15.801  38.846  10.786
56059W        W20879  37.876  39.300   0.638
56060W        W20880  43.676   1.110  11.197
56061W        W20881  11.471   1.883   0.521
56062W        W20882  44.852  16.331   0.453
56063W        W20883  19.436  17.553  11.635
56064W        W20884  10.087  38.815   0.940
56065W        W20885  10.814  41.334   1.037
56066W        W20886  44.496  22.473   1.894
56067W        W20887  42.897  31.449   4.103
56068W        W20888  33.084  22.723   4.116
56069W        W20889  19.253  18.163   3.336
56070W        W20890  36.923  21.859  14.735
56071W        W20891  31.866  24.977  14.335
56072W        W20892   3.882   2.760  10.672
56073W        W20893  25.683  10.170   0.488
56074W        W20894  43.866  38.590  10.203
56075W        W20895  15.723  35.416  11.973
56076W        W20896  17.191  31.543   3.280
56077W        W20897  39.560   1.061  12.613
56078W        W20898  33.957  23.202  11.951
56079W        W20899  40.240  29.510  12.484
56080W        W20900  44.821   3.685  13.552
56081W        W20901   5.390  22.551   5.036
56082W        W20902  25.224  10.739  10.754
56083W        W20903  16.971  10.713   3.198
56084W        W20904  27.536  17.118   4.868
56085W        W20905  11.091  39.096   4.355
56086W        W20906  19.445  33.437  13.490
56087W        W20907  34.713   0.455  11.566
56088W        W20908   7.095  32.460   4.184
56089W        W20909  34.080   6.984   4.090
56090W        W20910   2.403   2.362   1.281
56091W        W20911  17.819  11.871   3.340
56092W        W20912  19.480  39.083  11.465
56093W        W20913  44.761  41.424   4.954
56094W        W20914   5.064  42.934  13.930
56095W        W20915  30.380  35.519   2.253
56096W        W20916  29.216  28.627   2.804
56097W        W20917  24.736  20.622  13.968
56098W        W20918  12.792  23.458  14.049
56099W        W20919   1.494  17.598   3.136
56100W        W20920  23.681  44.419   2.141
56101W        W20921  18.752  25.525   4.797
56102W        W20922  22.346  43.462   3.400
56103W        W20923  18.394   6.530  13.042
56104W        W20924  40.636  21.148   5.141
56105W        W20925  42.013  27.609   2.725
56106W        W20926  13.779  14.142   3.317
56107W        W20927  21.583   6.110   3.114
56108W        W20928  38.875  38.564  12.205
56109W        W20929  23.720  15.354   0.379
56110W        W20930  12.376  21.187  12.585
56111W        W20931  11.437  21.080  11.073
56112W        W20932   5.989  41.339   0.447
56113W        W20933   8.171   4.068  14.384
56114W        W20934  37.164  23.689  11.046
56115W        W20935  26.476  17.757   0.462
56116W        W20936  43.713   7.808   1.312
56117W        W20937  18.051  28.062  13.892
56118W        W20938   1.137   8.400  10.735
56119W        W20939  44.493  33.451   4.573
56120W        W20940  15.249  16.523   3.059
56121W        W20941  28.088  18.735  14.816
56122W        W20942   9.385   5.490  14.983
56123W        W20943   4.270  10.242   0.295
56124W        W20944  14.130  20.785  11.878
56125W        W20945  34.968  11.579   0.673
56126W        W20946  20.592  11.344   1.715
56127W        W20947  13.188   4.888   0.118
56128W        W20948  34.122  13.741  10.509
56129W        W20949  43.374   0.276   3.650
56130W        W20950  19.772  13.615   0.483
56131W        W20951  34.627  35.981  10.751
56132W        W20952  29.509  12.271   2.803
56133W        W20953   2.941  27.055  13.076
56134W        W20954  41.853  40.458  11.634
56135W        W20955  20.759  17.759   0.831
56136W        W20956   5.194  34.630  12.454
56137W        W20957  13.445  41.585   3.182
56138W        W20958   2.156  41.248   2.714
56139W        W20959  40.554  18.071   0.958
56140W        W20960  11.558  19.555   3.107
56141W        W20961  44.195  20.692  11.607
56142W        W20962   1.245  28.950   0.939
56143W        W20963   0.404  28.510  12.081
56144W        W20964   2.734  11.662  12.100
56145W        W20965   8.447   1.742  11.049
56146W        W20966   4.236   5.757  12.070
56147W        W20967  30.351  19.776  12.401
56148W        W20968  39.559   5.015   1.650
56149W        W20969  24.761  27.113  12.954
56150W        W20970  18.985  11.128  12.025
56151W        W20971   9.166  43.944  11.558
56152W        W20972  28.590  14.724   3.765
56153W        W20973  36.491  21.579  12.143
56154W        W20974  20.081  33.086   4.160
56155W        W20975  21.643   6.434  14.550
56156W        W20976  18.040  28.492  11.795
56157W        W20977  43.901  26.715  14.780
56158W        W20978  16.857  21.740  13.453
56159W        W20979  35.562  26.933   2.317
56160W        W20980  18.542  11.175   3.660
56161W        W20981   7.946  12.767  10.446
56162W        W20982  21.615   6.220  11.457
56163W        W20983  40.408  44.903   2.200
56164W        W20984  23.768  40.486   1.199
56165W        W20985   8.354  44.534  12.161
56166W        W20986  30.742  37.816  11.240
56167W        W20987  23.510  42.843  13.536
56168W        W20988  14.328  14.536  11.089
56169W        W20989  39.895  26.339   3.264
56170W        W20990   0.377   7.107  11.116
56171W        W20991  39.705  21.898  11.102
56172W        W20992  33.980  16.575   0.836
56173W        W20993  24.247  15.279  14.718
56174W        W20994  33.383   1.245   4.155
56175W        W20995  23.325  10.882  12.896
56176W        W20996  44.659  41.624   3.082
56177W        W20997  24.422  17.131   0.681
56178W        W20998   9.958  41.535  12.048
56179W        W20999  19.014  22.972   3.218
56180W        W21000  30.218  40.353  14.742
56181W        W21001  33.366  41.651   3.147
56182W        W21002  39.832  35.801   0.957
56183W        W21003   8.917  33.992  11.170
56184W        W21004  33.594  21.997   2.734
56185W        W21005  19.295  42.367   3.282
56186W        W21006  38.978  27.888  11.201
56187W        W21007  44.890  14.787  14.394
56188W        W21008  44.547  40.423   0.916
56189W        W21009   2.293   0.865   3.621
56190W        W21010   9.434  30.097   2.589
56191W        W21011  42.217   7.447   3.352
56192W        W21012  22.541  34.951   2.274
56193W        W21013  36.090  21.243  14.414
56194W        W21014  19.831   1.016   2.704
56195W        W21015  20.720  33.048   2.491
56196W        W21016   2.025  36.037   0.183
56197W        W21017  10.246   1.209   2.308
56198W        W21018  37.432  29.165   0.296
56199W        W21019  26.185  20.176  13.113
56200W        W21020  20.049  17.858  10.278
56201W        W21021   5.788  20.703   4.642
56202W        W21022  36.135  18.232   1.023
56203W        W21023  21.601  15.084   0.823
56204W        W21024  16.877  10.653   4.047
56205W        W21025  21.113  20.856  13.062
56206W        W21026  23.438  20.660  10.005
56207W        W21027  36.306   0.823   1.294
56208W        W21028  38.000  33.391  14.761
56209W        W21029  23.702  10.186  10.607
56210W        W21030  43.410  36.910   4.920
56211W        W21031   3.391  43.740  13.931
56212W        W21032  36.523  28.439  14.888
56213W        W21033  36.483  21.103   1.799
56214W        W21034  11.293   5.416   1.690
56215W        W21035   0.256  41.065   3.312
56216W        W21036  26.140   3.740  11.986
56217W        W21037  43.003  25.523  11.118
56218W        W21038  12.185  22.588   3.023
56219W        W21039  40.693  16.595  14.475
56220W        W21040   0.789  36.959  10.948
56221W        W21041   2.732   2.787   3.719
56222W        W21042   9.119  21.107   1.224
56223W        W21043  10.901   6.829  14.062
56224W        W21044   0.519   1.389  10.844
56225W        W21045   0.047  13.756   2.779
56226W        W21046  10.135  28.941  11.168
56227W        W21047  28.867   9.827  11.121
56228W        W21048  43.532  25.639   0.312
56229W        W21049  22.954   6.294  10.571
56230W        W21050  33.479  43.440   1.836
56231W        W21051  13.788  32.586  12.886
56232W        W21052  37.492  43.335  14.329
56233W        W21053  40.270  13.800   0.228
56234W        W21054  25.489  24.664  14.297
56235W        W21055  24.379  30.166   2.742
56236W        W21056  17.090  12.404  11.079
56237W        W21057  17.082  35.988  12.374
56238W        W21058  10.887  32.494   2.288
56239W        W21059  41.055  38.448   4.547
56240W        W21060   4.040   2.073  11.631
56241W        W21061  25.546  37.551   2.294
56242W        W21062   5.665  25.177   3.055
56243W        W21063  36.841  20.858  12.903
56244W        W21064   7.326  22.918   0.818
56245W        W21065  31.326   1.141   1.704
56246W        W21066  12.344   0.061   4.656
56247W        W21067  25.688  13.209   3.165
56248W        W21068  27.090  32.412   1.411
56249W        W21069   5.716  41.089   0.838
56250W        W21070  28.280  14.745  13.857
56251W        W21071  23.019  14.867  14.980
56252W        W21072   0.699  19.588  12.421
56253W        W21073  43.617  10.953   1.357
56254W        W21074  32.109  24.019   3.038
56255W        W21075   9.432  21.479   1.399
56256W        W21076  13.070  16.558   3.330
56257W        W21077  43.508  29.264  13.902
56258W        W21078  36.537  10.940  13.355
56259W        W21079  22.119  20.465   0.696
56260W        W21080  20.983  37.003   2.369
56261W        W21081  38.758  11.298  13.172
56262W        W21082  26.660  25.663   5.079
56263W        W21083   0.418   6.795  14.553
56264W        W21084  39.100  44.670   4.145
56265W        W21085  11.706  11.084  13.307
56266W        W21086   6.352  23.265  11.580
56267W        W21087  24.281  11.711  12.068
56268W        W21088  22.834   2.022  11.418
56269W        W21089  22.123  40.973  11.241
56270W        W21090   4.682   3.319   3.229
56271W        W21091  31.538  43.580   0.520
56272W        W21092  37.643   7.088  12.630
56273W        W21093  23.448  44.744  14.031
56274W        W21094  12.924  37.536   2.295
56275W        W21095   8.640   5.782  11.979
56276W        W21096   2.839   3.461   1.260
56277W        W21097  16.815  41.058  11.476
56278W        W21098   2.579   3.304  14.944
56279W        W21099  37.437  44.878  12.513
56280W        W21100  36.804  34.220  11.114
56281W        W21101  23.244  12.724  14.790
56282W        W21102  16.192  25.241   4.792
56283W        W21103  28.313  44.246  14.276
56284W        W21104  42.389  33.862   3.240
56285W        W21105   8.902  17.064   0.918
56286W        W21106   4.084   9.806   2.430
56287W        W21107   8.302  27.452   2.300
56288W        W21108  37.774  15.116  12.514
56289W        W21109  37.796  44.223   1.795
56290W        W21110  38.036  11.046  14.931
56291W        W21111  31.608   1.933   4.757
56292W        W21112   4.614  36.401   4.498
56293W        W21113  37.847   3.389  12.096
56294W        W21114  31.639  40.727  12.022
56295W        W21115  17.823   8.806  12.900
56296W        W21116  38.008  26.955  11.211
56297W        W21117   2.886  11.370  10.242
56298W        W21118  42.723  25.624   1.444
56299W        W21119  25.465  29.178  10.598
56300W        W21120   9.372  17.669   0.212
56301W        W21121  10.429  38.901  14.993
56302W        W21122  43.323   5.143   0.415
56303W        W21123   1.025  36.916   1.248
56304W        W21124  20.797  13.784  12.895
56305W        W21125  26.474   8.404  13.729
56306W        W21126  24.080  37.459  12.494
56307W        W21127  39.984  37.762  12.220
56308W        W21128   6.739  17.074  12.932
56309W        W21129  32.594  31.920   4.417
56310W        W21130   3.168  40.482   1.764
56311W        W21131  18.169  25.969   1.689
56312W        W21132  28.715  25.966   3.658
56313W        W21133   6.784  37.961   1.203
56314W        W21134  25.622   2.738   1.132
56315W        W21135  43.388  44.196  10.320
56316W        W21136  21.466   0.263  12.446
56317W        W21137   0.170  19.780   4.755
56318W        W21138  30.862  42.762   4.148
56319W        W21139  18.739  22.015   0.327
56320W        W21140  38.458  43.717  10.998
56321W        W21141  38.489  29.706   4.618
56322W        W21142  36.528  22.798  14.835
56323W        W21143   0.868   2.658  12.971
56324W        W21144  12.749  39.982  14.896
56325W        W21145  26.590  14.201  12.839
56326W        W21146  15.749  26.037   0.218
56327W        W21147  31.199  20.107   4.688
56328W        W21148  25.103  25.992   0.367
56329W        W21149   3.323   6.354  12.936
56330W        W21150  40.713  13.470   2.226
56331W        W21151  32.869   5.272  13.199
56332W        W21152  10.331  11.870   4.118
56333W        W21153   4.478  23.501  14.305
56334W        W21154  22.542   5.716  14.423
56335W        W21155  35.334   5.270   1.383
56336W        W21156  11.256  12.285  14.513
56337W        W21157  28.146  44.843   0.899
56338W        W21158  30.939   8.368   4.644
56339W        W21159  14.538  35.052   0.439
56340W        W21160   8.741  32.281   4.893
56341W        W21161  13.840  17.756   0.888
56342W        W21162  20.692   5.940  10.971
56343W        W21163   4.909  24.420   0.693
56344W        W21164  16.533  21.853   1.329
56345W        W21165   3.900   2.506   2.123
56346W        W21166  24.512  28.595   0.066
56347W        W21167  10.428   7.182   2.819
56348W        W21168  21.680  18.762  12.539
56349W        W21169  29.295  18.681   3.240
56350W        W21170   7.232   6.166   3.462
56351W        W21171  29.039   9.828  11.924
56352W        W21172  19.268  24.103  13.864
56353W        W21173  36.536  30.568  11.759
56354W        W21174  19.696  19.791  14.489
56355W        W21175  32.172  38.109   0.064
56356W        W21176  26.910  26.822  14.536
56357W        W21177  23.493  15.109   0.817
56358W        W21178  39.540  12.924  14.027
56359W        W21179  36.055  14.523  14.789
56360W        W21180  14.662  36.481   4.611
56361W        W21181  27.884  12.320   3.858
56362W        W21182  16.222  12.408   0.910
56363W        W21183  44.964  16.485   1.445
56364W        W21184  41.901  35.393   1.000
56365W        W21185  33.673  21.213  14.504
56366W        W21186   6.892   5.785   4.301
56367W        W21187  38.360   8.966   3.252
56368W        W21188  37.879  33.981  13.960
56369W        W21189  17.184  14.564   0.879
56370W        W21190   5.757  27.614  13.035
56371W        W21191  24.129  37.788   0.973
56372W        W21192  20.659   5.276  13.500
56373W        W21193  40.632  33.147   2.347
56374W        W21194  28.146  18.226  12.588
56375W        W21195  43.025  22.627   3.168
56376W        W21196  13.385  37.001  10.682
56377W        W21197  14.591  19.370   0.011
56378W        W21198  36.997  30.379  11.661
56379W        W21199  24.478  25.362   2.775
56380W        W21200  42.469  38.101   4.096
56381W        W21201   8.794  38.315   1.241
56382W        W21202   2.826  13.037   3.146
56383W        W21203   9.859   5.784   1.725
56384W        W21204   1.091  14.219   1.865
56385W        W21205  34.332  12.786  13.754
56386W        W21206  27.972  14.802  14.414
56387W        W21207  16.976  38.828   2.313
56388W        W21208  19.308  22.650  14.870
56389W        W21209  44.803   9.368  13.902
56390W        W21210  25.165   8.093   4.631
56391W        W21211  42.292  18.606   3.400
56392W        W21212  33.593  19.279   1.383
56393W        W21213   6.621  23.581   4.128
56394W        W21214  19.595  43.404  13.550
56395W        W21215   8.203  24.436   3.264
56396W        W21216  12.361  14.612  12.867
56397W        W21217  35.774  27.972  13.278
56398W        W21218  30.348  31.027  14.574
56399W        W21219  19.656  25.132   1.741
56400W        W21220  23.063  34.423   2.762
56401W        W21221  31.429  29.455   1.585
56402W        W21222  29.522  41.060   4.638
56403W        W21223  16.511  43.217   5.114
56404W        W21224  14.061  33.906   2.034
56405W        W21225  37.015  36.018   2.065
56406W        W21226  44.493   7.222  12.305
56407W        W21227  23.287  30.571  12.731
56408W        W21228   3.038  40.481  10.612
56409W        W21229  40.435  41.637   0.357
56410W        W21230   0.974   5.880  14.611
56411W        W21231  44.304   2.566   1.028
56412W        W21232  34.861   4.730   2.441
56413W        W21233  18.194  26.952   3.172
56414W        W21234  23.945  29.202  14.844
56415W        W21235  30.527  26.092  14.966
56416W        W21236  26.947  22.740  13.863
56417W        W21237  44.075   5.433   1.456
56418W        W21238   5.951  28.249   4.902
56419W        W21239  40.025   8.803   3.659
56420W        W21240  29.123  16.330  14.867
56421W        W21241   4.337  33.512   0.364
56422W        W21242  17.047  30.533  11.147
56423W        W21243   1.490  15.102   1.770
56424W        W21244  26.845  28.747  11.986
56425W        W21245  27.419  17.336   2.959
56426W        W21246   9.632  27.004  12.464
56427W        W21247  20.221  18.556   4.510
56428W        W21248  16.718  32.869   3.610
56429W        W21249  13.915   8.840   3.090
56430W        W21250  19.772   9.625  13.188
56431W        W21251  19.661  43.239   2.243
56432W        W21252  32.716  12.935   4.069
56433W        W21253  42.239   5.306  10.493
56434W        W21254  36.632  33.659   4.154
56435W        W21255  35.535  34.031   1.432
56436W        W21256  37.416   8.673   4.974
56437W        W21257   0.723  29.957   3.893
56438W        W21258   7.417  36.041  13.551
56439W        W21259  19.105  23.940   4.699
56440W        W21260   8.962   5.089   4.150
56441W        W21261   5.515  27.171  11.726
56442W        W21262  44.249  18.707  14.401
56443W        W21263  18.535   1.867  12.011
56444W        W21264  35.002  32.544   0.725
56445W        W21265  26.994  16.659  11.009
56446W        W21266   8.522  15.206  12.129
56447W        W21267  42.802  11.730   0.511
56448W        W21268  37.859   3.941   3.751
56449W        W21269  14.621  32.820   4.564
56450W        W21270  35.125  28.501  10.918
56451W        W21271  34.995   6.742  12.518
56452W        W21272  42.052  27.182  13.907
56453W        W21273  36.623  12.639  11.514
56454W        W21274  11.358  32.178   3.312
56455W        W21275  30.906   0.407   2.720
56456W        W21276  18.823  40.352  14.988
56457W        W21277  23.200  27.659  12.792
56458W        W21278  28.062   5.847   3.656
56459W        W21279  20.360  22.211   2.597
56460W        W21280   4.294  44.096  12.795
56461W        W21281  21.264  12.256  14.854
56462W        W21282  42.800   8.157  12.501
56463W        W21283   9.226  21.972  12.551
56464W        W21284  17.454   4.160   0.687
56465W        W21285  22.476  23.074   5.208
56466W        W21286  41.829  11.261   5.265
56467W        W21287   8.695   5.918   0.469
56468W        W21288  24.189  16.833  11.931
56469W        W21289  26.646  44.275   4.141
56470W        W21290  21.251  41.315   3.598
56471W        W21291   9.114  25.493   0.512
56472W        W21292  33.896  44.954   3.197
56473W        W21293   4.384   9.721  11.357
56474W        W21294  29.494  28.073   4.066
56475W        W21295  33.623  31.999   2.742
56476W        W21296  44.924  14.287  12.097
56477W        W21297  39.087  19.531   3.072
56478W        W21298  39.559  27.720  11.557
56479W        W21299   6.826  23.847   0.356
56480W        W21300  23.750   9.058   4.148
56481W        W21301  36.860  37.605   9.880
56482W        W21302   3.567  18.571  10.703
56483W        W21303  23.062  25.478   0.248
56484W        W21304  14.676  42.286   4.655
56485W        W21305   4.327  44.435   1.287
56486W        W21306  40.717   2.526  12.434
56487W        W21307  31.891   2.974   4.030
56488W        W21308  40.462  38.977   2.955
56489W        W21309  23.270   2.550  11.690
56490W        W21310  10.700  13.902  14.941
56491W        W21311  12.773  38.309   1.920
56492W        W21312   0.987  18.016  11.227
56493W        W21313  19.576  24.133   2.295
56494W        W21314   4.682   6.249   1.074
56495W        W21315  40.099  33.843   2.370
56496W        W21316  31.978  27.269   0.438
56497W        W21317   2.376  31.806   4.614
56498W        W21318  31.909  29.602   1.845
56499W        W21319   8.881  21.806   0.717
56500W        W21320   3.467  17.000  12.174
56501W        W21321  22.472  20.470  12.390
56502W        W21322  42.230  38.859   1.863
56503W        W21323  14.817  39.038   3.178
56504W        W21324  39.434  41.976   4.817
56505W        W21325  38.456  18.727   3.002
56506W        W21326  25.351   0.375  13.536
56507W        W21327  20.580  18.553  10.865
56508W        W21328  29.718  23.511   4.694
56509W        W21329  31.124  21.957   2.885
56510W        W21330   9.785  40.529   2.782
56511W        W21331   5.288   4.343   0.860
56512W        W21332   2.873  23.918   0.445
56513W        W21333  26.941  17.196   3.725
56514W        W21334  23.557   3.599  13.911
56515W        W21335  44.694  31.392  10.796
56516W        W21336  28.026  16.765   1.279
56517W        W21337  39.941  42.809   0.180
56518W        W21338  10.606   5.974   4.233
56519W        W21339  10.560   6.414  11.120
56520W        W21340  11.634  36.001   4.235
56521W        W21341  42.378  37.293   2.722
56522W        W21342  25.498  25.183   0.376
56523W        W21343  34.404  38.307   4.111
56524W        W21344  16.041   8.221  12.838
56525W        W21345  28.167   3.851  13.884
56526W        W21346  27.789  23.742  14.588
56527W        W21347   7.145  41.355   2.608
56528W        W21348  22.675  42.996  12.197
56529W        W21349  13.172  35.980  13.079
56530W        W21350  26.611  23.268  10.666
56531W        W21351  25.317  17.127   0.316
56532W        W21352  32.683   0.164   4.229
56533W        W21353  30.533  14.332  14.879
56534W        W21354  24.965  35.974  13.490
56535W        W21355  37.838  11.231  13.644
56536W        W21356   3.790  34.860  11.102
56537W        W21357  20.614  21.992   2.195
56538W        W21358  21.738  43.255   1.307
56539W        W21359  41.652  18.633  14.327
56540W        W21360   1.535  12.318  10.761
56541W        W21361   1.990  44.956   0.738
56542W        W21362  21.664  39.558   1.826
56543W        W21363   0.808   2.443  11.572
56544W        W21364  14.788  11.524   1.752
56545W        W21365  22.029  27.444   0.337
56546W        W21366  31.610  25.977  13.512
56547W        W21367   9.080  40.972  14.592
56548W        W21368   2.245  23.104   3.734
56549W        W21369  37.402  22.674  11.080
56550W        W21370  41.437   2.926   0.953
56551W        W21371  38.253  40.943  11.173
56552W        W21372  25.349  21.611   3.044
56553W        W21373  36.315  14.685  12.777
56554W        W21374  38.851  17.170  13.371
56555W        W21375   3.263  33.621  13.314
56556W        W21376  26.023  27.149  14.766
56557W        W21377  33.180  40.641   3.258
56558W        W21378  40.439   4.994  14.980
56559W        W21379  28.397  21.988  11.615
56560W        W21380  26.506  31.201   3.994
56561W        W21381  12.079  20.311   4.197
56562W        W21382  37.273  25.423   5.136
56563W        W21383  11.347  42.413   0.887
56564W        W21384   1.764  11.597   3.027
56565W        W21385   0.958  22.548   0.325
56566W        W21386  10.764  44.822  14.468
56567W        W21387  11.954   7.058  11.238
56568W        W21388   6.408  22.207  14.663
56569W        W21389  20.573   4.858   4.801
56570W        W21390  16.913  31.811  13.424
56571W        W21391   2.267  19.380  14.753
56572W        W21392  34.859  42.348  12.687
56573W        W21393   6.460  13.898   1.906
56574W        W21394  31.091   5.894  13.567
56575W        W21395  35.343  17.694  13.847
56576W        W21396  13.596  32.175  11.505
56577W        W21397  37.130  12.978  13.764
56578W        W21398  24.141   6.323  11.048
56579W        W21399  25.029  37.038   2.688
56580W        W21400  44.741  41.996  13.987
56581W        W21401  18.200  44.517   3.410
56582W        W21402  12.804   2.273   2.810
56583W        W21403  11.160   0.021   2.416
56584W        W21404   5.964  23.829  13.424
56585W        W21405  25.022  24.171   0.903
56586W        W21406  29.473  24.379   4.955
56587W        W21407   6.818   5.874   2.381
56588W        W21408  23.062  31.302  14.264
56589W        W21409  26.987  31.447   2.289
56590W        W21410  24.590  40.800  10.492
56591W        W21411  44.374   4.365   0.500
56592W        W21412  15.679  22.538  14.548
56593W        W21413   4.702  30.643   1.601
56594W        W21414  32.271  19.385   3.198
56595W        W21415  18.447  28.481  11.485
56596W        W21416  33.060  41.486  14.526
56597W        W21417  13.443  15.217   4.595
56598W        W21418   1.383   4.172   0.714
56599W        W21419  22.979  36.616   4.709
56600W        W21420  24.768   5.424   0.378
56601W        W21421   8.669   5.460  12.412
56602W        W21422  21.155  11.145  12.025
56603W        W21423   4.904   3.213  13.474
56604W        W21424  24.031  32.668   3.738
56605W        W21425  34.786   0.459  12.437
56606W        W21426  31.232   9.378   1.050
56607W        W21427  39.223  34.020   3.112
56608W        W21428  22.231  23.030   0.982
56609W        W21429  19.158  30.016   4.104
56610W        W21430   0.845  26.095  13.659
56611W        W21431  32.838  15.128   1.240
56612W        W21432  38.389  13.817   4.792
56613W        W21433  34.080  26.564   1.414
56614W        W21434  35.713  20.760   3.362
56615W        W21435   6.076  25.799  13.530
56616W        W21436  37.119  39.136   4.026
56617W        W21437  43.900  22.986   1.307
56618W        W21438  39.660  42.852   2.641
56619W        W21439   4.695  15.080  12.014
56620W        W21440  34.094  13.998   1.355
56621W        W21441  13.873  37.122   0.436
56622W        W21442  33.762  14.202  12.631
56623W        W21443  41.410  16.280  10.665
56624W        W21444  26.352  35.994  13.036
56625W        W21445  29.138   3.654   4.111
56626W        W21446  15.102  26.008   2.697
56627W        W21447  10.436  36.152   0.523
56628W        W21448   7.092  17.228   2.790
56629W        W21449  30.918  31.599  10.776
56630W        W21450  44.728  44.580   0.160
56631W        W21451   8.927   8.902   5.039
56632W        W21452  40.511   0.141  14.805
56633W        W21453  40.993  25.979   1.771
56634W        W21454  22.334  11.329   2.416
56635W        W21455  24.618  14.353   0.443
56636W        W21456  10.085  33.055  12.021
56637W        W21457  36.512  33.671   0.046
56638W        W21458  33.559  33.995  11.877
56639W        W21459  29.055  37.766  11.531
56640W        W21460  14.278   9.042   4.704
56641W        W21461  32.024  17.315  10.369
56642W        W21462   2.293  16.988  10.732
56643W        W21463   0.054  29.025   3.300
56644W        W21464  16.230   6.003   2.786
56645W        W21465  20.893  14.866   1.442
56646W        W21466   1.192  43.670   4.741
56647W        W21467  25.529  23.655  13.577
56648W        W21468  15.646  19.374  11.204
56649W        W21469  11.320  13.288  13.400
56650W        W21470   6.673   8.260  12.947
56651W        W21471  18.301  39.090   4.553
56652W        W21472  40.014  39.489  13.365
56653W        W21473  38.317  35.570   3.786
56654W        W21474  40.268  42.443   4.407
56655W        W21475  27.720  26.098   1.753
56656W        W21476   2.025  35.491  11.445
56657W        W21477  32.622   7.973  14.908
56658W        W21478  32.220  39.631   3.185
56659W        W21479  10.690   1.002   1.433
56660W        W21480  14.219  42.940   4.016
56661W        W21481  32.307  41.428  14.076
56662W        W21482  36.950  19.857   2.293
56663W        W21483   9.893  36.592   3.131
56664W        W21484  33.327  44.831   5.123
56665W        W21485  41.789  31.397  12.472
56666W        W21486   2.731  39.134  11.579
56667W        W21487  37.112   2.746   4.883
56668W        W21488  35.869  25.172  14.889
56669W        W21489  33.469  43.060   4.586
56670W        W21490   4.244  41.818  12.591
56671W        W21491  14.869  17.365   2.203
56672W        W21492   5.266  17.556   1.341
56673W        W21493  39.887  43.335   1.025
56674W        W21494  36.327   8.365  14.781
56675W        W21495  22.772   9.727   2.506
56676W        W21496  42.919  27.456   2.845
56677W        W21497  38.093  24.940   2.360
56678W        W21498   3.326  32.358   2.245
56679W        W21499  44.098  44.286   3.241
56680W        W21500  36.415   8.691   1.839
56681W        W21501  23.781  30.597   4.094
56682W        W21502   6.196  24.113  13.042
56683W        W21503  17.270  28.221   0.437
56684W        W21504   7.159  17.724   2.199
56685W        W21505  28.177   8.300  12.113
56686W        W21506  31.636  36.654   0.888
56687W        W21507  16.189  10.334   2.275
56688W        W21508  12.268  13.832  11.047
56689W        W21509  11.126  35.350  14.873
56690W        W21510  31.546   6.881   1.918
56691W        W21511  42.150  13.607  12.936
56692W        W21512  41.086  30.404   1.808
56693W        W21513  36.972   2.707  11.259
56694W        W21514   9.415  20.616   4.142
56695W        W21515   5.163   0.074   2.427
56696W        W21516  34.991  30.662  14.039
56697W        W21517   2.141  32.335   2.881
56698W        W21518  30.956  13.981  10.425
56699W        W21519  40.954  19.981  12.554
56700W        W21520  11.350  13.579   5.229
56701W        W21521  34.991  36.975  12.390
56702W        W21522  39.111  11.663   0.725
56703W        W21523  21.630  40.057  13.020
56704W        W21524  13.152  28.214  14.789
56705W        W21525  29.968  30.825  14.280
56706W        W21526   7.804   0.533   1.217
56707W        W21527  30.088  12.749  12.165
56708W        W21528  18.128  20.324   4.541
56709W        W21529  35.135  22.897  12.461
56710W        W21530   1.197  18.315  13.598
56711W        W21531  39.119  40.352   5.067
56712W        W21532  11.479  26.669   1.196
56713W        W21533  44.988  40.812   0.035
56714W        W21534  14.870   2.272   2.230
56715W        W21535  41.414  27.939  11.236
56716W        W21536  20.552  23.125  12.119
56717W        W21537  19.602  40.603  10.620
56718W        W21538  13.807   4.650  11.069
56719W        W21539  32.103  14.900   0.767
56720W        W21540   4.952   4.309  12.604
56721W        W21541   7.012   2.275  11.082
56722W        W21542  19.816  40.433   4.233
56723W        W21543  13.302  24.706   1.234
56724W        W21544   9.332  35.362  13.516
56725W        W21545  44.295  29.308   3.780
56726W        W21546  24.927  40.093  13.428
56727W        W21547  16.087  43.977   0.007
56728W        W21548  22.751  14.376  11.716
56729W        W21549  26.571  41.861   1.093
56730W        W21550  42.840  29.237   2.240
56731W        W21551  17.398   4.139   4.885
56732W        W21552  41.620  26.553   1.412
56733W        W21553  25.268   0.664  11.154
56734W        W21554  34.396   4.373   3.090
56735W        W21555  36.950   2.799   4.059
56736W        W21556  19.873  14.346   2.108
56737W        W21557  21.492  20.662  12.761
56738W        W21558   1.924  13.393  11.560
56739W        W21559  22.877  22.131  10.865
56740W        W21560  42.922  10.584  14.923
56741W        W21561   0.829  11.149  10.224
56742W        W21562   6.703  27.697   0.753
56743W        W21563   7.618  38.279  12.001
56744W        W21564  20.114  41.999   3.294
56745W        W21565   6.514  30.204   1.776
56746W        W21566  34.349  35.322  12.362
56747W        W21567  28.127  38.808   4.050
56748W        W21568  17.855  38.368   2.312
56749W        W21569  28.439  22.628   0.890
56750W        W21570  15.852  32.503  10.435
56751W        W21571  41.791  44.805  12.437
56752W        W21572  24.131  21.286   4.782
56753W        W21573  35.183  15.396   1.128
56754W        W21574  43.178   1.266   1.975
56755W        W21575   7.949  37.639   2.681
56756W        W21576   5.212  28.637  12.420
56757W        W21577  42.099  11.702   1.644
56758W        W21578  32.958  38.505   2.153
56759W        W21579  26.091  28.399   4.165
56760W        W21580  26.919  41.336  10.906
56761W        W21581  36.879   1.826   0.263
56762W        W21582  33.200  14.765  11.515
56763W        W21583  44.208  24.295   0.774
56764W        W21584  26.902  39.850  14.934
56765W        W21585  40.808  31.681  12.910
56766W        W21586  11.055   3.397  11.936
56767W        W21587  16.103  12.727   3.188
56768W        W21588  23.123  24.506  11.862
56769W        W21589  30.718  26.238  13.913
56770W        W21590   5.267  27.211   0.465
56771W        W21591  24.969  10.717  13.147
56772W        W21592  17.148   9.680   1.932
56773W        W21593   5.319   1.294   1.744
56774W        W21594  25.931  21.056   3.982
56775W        W21595  17.220  31.975   3.562
56776W        W21596  32.986  39.919  12.844
56777W        W21597  23.464   4.920  12.016
56778W        W21598  34.588  30.074   3.612
56779W        W21599  23.768  10.149   4.938
56780W        W21600  12.935   3.362  10.570
56781W        W21601  33.063  39.956  11.906
56782W        W21602  24.316  43.673  11.943
56783W        W21603  12.112  34.829  12.305
56784W        W21604  31.127  33.543   1.337
56785W        W21605  27.086  29.641   0.906
56786W        W21606  32.673  12.594  11.112
56787W        W21607  31.381   9.336   2.336
56788W        W21608  16.608   2.685   3.676
56789W        W21609  24.195  41.248  11.999
56790W        W21610  24.960  28.682   3.772
56791W        W21611  18.505  38.139  13.449
56792W        W21612   1.015  37.067   3.747
56793W        W21613   7.909   8.785  11.929
56794W        W21614  11.962  27.457  13.924
56795W        W21615  16.324  32.594  12.556
56796W        W21616  12.018   6.117   3.947
56797W        W21617  43.303  32.177   3.266
56798W        W21618  41.789  18.502   3.315
56799W        W21619  37.791   7.951  12.414
56800W        W21620  30.848  33.567  13.734
56801W        W21621   0.911  38.746   3.281
56802W        W21622  21.185  22.399   1.343
56803W        W21623   6.153  39.672  14.941
56804W        W21624  18.834  16.151  13.080
56805W        W21625  36.285   8.839   0.956
56806W        W21626   2.481   0.552   4.472
56807W        W21627  37.603   3.973  12.041
56808W        W21628   4.460  29.870   4.439
56809W        W21629  34.840  17.231   2.867
56810W        W21630  12.635  39.557  12.014
56811W        W21631  11.920  23.582  13.653
56812W        W21632  36.568   0.567   4.330
56813W        W21633  11.833  11.504   2.610
56814W        W21634  27.229   2.312   3.616
56815W        W21635  35.103  42.493   1.278
56816W        W21636  42.741  39.617  11.102
56817W        W21637   0.532  17.755   2.782
56818W        W21638  19.690  40.748  11.110
56819W        W21639  33.126  23.429   2.183
56820W        W21640  20.591  34.877  12.318
56821W        W21641  35.426  43.733  11.600
56822W        W21642  20.592  41.955   2.409
56823W        W21643  39.613  25.492   3.071
56824W        W21644  20.614   8.129   4.341
56825W        W21645  21.259  37.301  13.018
56826W        W21646  11.418  23.195  14.006
56827W        W21647  40.924   4.424   0.263
56828W        W21648  19.668   7.718   2.329
56829W        W21649  18.449  35.804  14.879
56830W        W21650  19.709  38.587   3.874
56831W        W21651  27.675  26.072  14.198
56832W        W21652  14.178  19.253  10.706
56833W        W21653  32.496  32.417   4.612
56834W        W21654   7.905  28.608   0.822
56835W        W21655  29.934  32.577   3.303
56836W        W21656  26.077  43.951  14.558
56837W        W21657  24.491  10.741   4.547
56838W        W21658   8.731  27.715   4.506
56839W        W21659  17.667   7.661   0.473
56840W        W21660   4.997  16.823   3.257
56841W        W21661  22.687   6.364  12.769
56842W        W21662  41.014  20.231   0.000
56843W        W21663  39.813  28.479  14.244
56844W        W21664  13.317  19.676   3.784
56845W        W21665  41.917  44.849  14.390
56846W        W21666  14.229   5.234  10.429
56847W        W21667  42.153  27.723   3.322
56848W        W21668   8.434  13.659   1.601
56849W        W21669  44.396  26.918  11.959
56850W        W21670  44.734  23.217  11.121
56851W        W21671  19.122  12.941  12.787
56852W        W21672   9.294  38.510   1.290
56853W        W21673   1.793  33.568   3.573
56854W        W21674  40.060  37.580   0.498
56855W        W21675   5.702  39.618   0.708
56856W        W21676  34.571  37.843   4.845
56857W        W21677   1.893  19.759  12.106
56858W        W21678   0.941  22.977   3.178
56859W        W21679   3.542  41.466   3.036
56860W        W21680  33.246  20.308  10.110
56861W        W21681   9.551  11.280  14.931
56862W        W21682  43.049   6.230  12.098
56863W        W21683   2.258  24.691  10.308
56864W        W21684  24.264  20.570   3.096
56865W        W21685   0.388  25.137  12.834
56866W        W21686  22.553  22.986   0.115
56867W        W21687  38.515  43.220  10.839
56868W        W21688  29.352  15.814   3.553
56869W        W21689   8.407  41.723  14.779
56870W        W21690  44.427  26.987   2.380
56871W        W21691   3.916   2.185  13.332
56872W        W21692  33.378   9.442  13.595
56873W        W21693   0.480  30.225   3.530
56874W        W21694  34.537  13.636  14.000
56875W        W21695  30.216   1.566   0.663
56876W        W21696  33.964  38.765  13.989
56877W        W21697   5.180  15.323  11.575
56878W        W21698   3.739  36.918  10.953
56879W        W21699  18.007  38.975  11.678
56880W        W21700  40.994  29.147  11.240
56881W        W21701  22.415   8.306  14.983
56882W        W21702  37.905  34.183   3.417
56883W        W21703  23.576  12.062  11.670
56884W        W21704   2.275  40.881  13.820
56885W        W21705   5.891  12.193   4.288
56886W        W21706  22.717  16.458   0.516
56887W        W21707  39.884  25.004   1.887
56888W        W21708  42.832  11.383   2.298
56889W        W21709  42.817  36.768  13.599
56890W        W21710   8.855   7.801   2.269
56891W        W21711   5.193  23.783   4.035
56892W        W21712  12.324  42.976  14.599
56893W        W21713  28.906  44.289   4.288
56894W        W21714  10.226  23.542  13.000
56895W        W21715  11.168   9.022  14.585
56896W        W21716   7.867  36.081   3.344
56897W        W21717   2.823  41.014   1.215
56898W        W21718  18.264  39.233  14.660
56899W        W21719   6.238  43.498   2.230
56900W        W21720  38.052  17.141   4.516
56901W        W21721  15.746  24.258  11.667
56902W        W21722  31.325   0.961   1.218
56903W        W21723  23.280  31.584   4.086
56904W        W21724  20.105  17.017   4.509
56905W        W21725   1.458  25.055   4.148
56906W        W21726  28.660  14.896   1.876
56907W        W21727  24.403  20.870  10.296
56908W        W21728  17.254  24.011  14.019
56909W        W21729  20.991  36.469   1.818
56910W        W21730  33.991  25.246   0.479
56911W        W21731  15.215   3.741   4.560
56912W        W21732  25.741   9.393   1.613
56913W        W21733   8.551  20.630  12.604
56914W        W21734  27.711  14.265   4.622
56915W        W21735   2.380  19.191   0.252
56916W        W21736  37.041  16.189   4.577
56917W        W21737  13.177   9.126   2.824
56918W        W21738  36.081  41.393   2.220
56919W        W21739  13.761  24.837  13.364
56920W        W21740  40.907  39.067   4.299
56921W        W21741  29.739  15.329  11.548
56922W        W21742  40.084  37.242  12.362
56923W        W21743  18.171  42.826  11.902
56924W        W21744  17.229  44.699   0.326
56925W        W21745  24.709   2.703   4.090
56926W        W21746  24.621  35.893  11.400
56927W        W21747   7.636  10.276  14.318
56928W        W21748  42.950  37.403   4.193
56929W        W21749   6.476  30.528  10.731
56930W        W21750  35.333  41.308   0.213
56931W        W21751  31.555  28.073   3.460
56932W        W21752  18.102  13.717   2.339
56933W        W21753  11.523  15.174   9.881
56934W        W21754   9.236  22.294  14.362
56935W        W21755  36.540  18.849   4.113
56936W        W21756  37.349  43.009   3.582
56937W        W21757  35.416  13.004   2.641
56938W        W21758  41.839   5.321  13.059
56939W        W21759  33.640  22.035   0.603
56940W        W21760  32.887  34.616   0.412
56941W        W21761   6.384  16.220  14.275
56942W        W21762   1.430   9.591   1.786
56943W        W21763  40.851  32.242  12.136
56944W        W21764  16.187  25.080   4.198
56945W        W21765  21.207  41.329   4.553
56946W        W21766  44.023   6.254   1.941
56947W        W21767  15.686  33.394   2.385
56948W        W21768   7.745  31.100   0.945
56949W        W21769  42.252  14.316   4.915
56950W        W21770  44.866   8.896  13.075
56951W        W21771  29.519   0.988   5.106
56952W        W21772  24.653  12.974   2.593
56953W        W21773  13.203  14.082  14.616
56954W        W21774  42.552  35.754   2.832
56955W        W21775   1.203   0.743   4.437
56956W        W21776  38.352  32.029   3.727
56957W        W21777  13.245   0.775  13.920
56958W        W21778   4.781  34.121   1.239
56959W        W21779  29.720  17.631  12.922
56960W        W21780  19.740  43.056  11.832
56961W        W21781  35.893  18.637   2.777
56962W        W21782   2.579  33.861  11.983
56963W        W21783  39.896  10.459   9.900
56964W        W21784  43.446  15.670   0.012
56965W        W21785   0.856  32.352   3.675
56966W        W21786   2.860  10.655  14.783
56967W        W21787  13.862  32.920   3.205
56968W        W21788  19.404   0.578  14.053
56969W        W21789  34.918  21.707   2.775
56970W        W21790  16.501  16.645  11.168
56971W        W21791   1.613  33.813   4.109
56972W        W21792  15.013  28.230  13.326
56973W        W21793  27.356  21.384  11.169
56974W        W21794  21.639  25.595   4.284
56975W        W21795  32.965  22.305  12.204
56976W        W21796  41.306  13.591   0.149
56977W        W21797   1.326   0.309  14.059
56978W        W21798  12.754  12.777   2.829
56979W        W21799  37.314  31.687  14.542
56980W        W21800  33.161  33.162   3.640
56981W        W21801  32.459   1.654   1.213
56982W        W21802   6.696  15.925  11.134
56983W        W21803  31.389  24.459   3.277
56984W        W21804  16.336  15.275   0.740
56985W        W21805  23.779   1.762   3.727
56986W        W21806  42.995  33.606  11.434
56987W        W21807  26.507  44.900  13.267
56988W        W21808   9.047  12.732   4.561
56989W        W21809  29.130  28.688  13.276
56990W        W21810  16.769  17.527   1.434
56991W        W21811  19.966  33.582   3.262
56992W        W21812  20.077  43.533  14.735
56993W        W21813  44.504  32.705   2.257
56994W        W21814  26.471  14.252   2.915
56995W        W21815  35.352  10.050  10.667
56996W        W21816  25.484  40.876   2.922
56997W        W21817  43.307  23.561  14.977
56998W        W21818  38.032   6.846  11.543
56999W        W21819  24.011  16.356  14.149
57000W        W21820   9.183  25.108   4.215
57001W        W21821  20.607  31.237  14.050
57002W        W21822  30.017   4.434  10.832
57003W        W21823   1.724  15.835  10.938
57004W        W21824  30.410  19.303  13.309
57005W        W21825   6.375  11.320  11.118
57006W        W21826  25.234  21.173  13.937
57007W        W21827   6.794  19.502  14.778
57008W        W21828   5.873   5.301  13.562
57009W        W21829  18.816  23.161   1.715
57010W        W21830  33.946  36.127  14.963
57011W        W21831   2.534  28.938   1.618
57012W        W21832  14.625  31.961  11.539
57013W        W21833  23.887   8.298  14.014
57014W        W21834  30.063  37.876  14.893
57015W        W21835  44.997  38.865   3.219
57016W        W21836  29.565  44.287  11.257
57017W        W21837  21.785   1.316   1.913
57018W        W21838  14.662  40.311  12.050
57019W        W21839   6.307   2.475   4.818
57020W        W21840   2.424  37.179   5.022
57021W        W21841  21.705  11.439   4.081
57022W        W21842  28.636   4.198   3.628
57023W        W21843   9.422  35.919  12.042
57024W        W21844  17.674  39.370   4.063
57025W        W21845  43.494  44.420  14.601
57026W        W21846  38.135  17.589   2.140
57027W        W21847  12.599  41.002   3.611
57028W        W21848   1.494  18.031  11.101
57029W        W21849  24.638  43.720  10.982
57030W        W21850  25.172  33.774   4.586
57031W        W21851   3.967  42.036   3.646
57032W        W21852   6.799  35.000  13.033
57033W        W21853   7.801   0.014  14.863
57034W        W21854  29.084  19.511  10.404
57035W        W21855  32.092  17.861   2.410
57036W        W21856  44.512  34.998  10.767
57037W        W21857  21.104  28.495  10.764
57038W        W21858  21.083  29.251   1.483
57039W        W21859  17.749  26.104  13.107
57040W        W21860   1.324   8.660   4.712
57041W        W21861  29.338  25.322  13.383
57042W        W21862  34.070  22.368   1.882
57043W        W21863  14.544  15.128   5.167
57044W        W21864  27.659  43.021   3.359
57045W        W21865  14.124  28.564  12.382
57046W        W21866  37.449  37.024  11.048
57047W        W21867  41.485  40.102  11.657
57048W        W21868   4.854  33.640  13.877
57049W        W21869  12.278  13.305  14.006
57050W        W21870  37.377   2.912  11.009
57051W        W21871  34.421  14.310   1.079
57052W        W21872  22.171  14.805   1.792
57053W        W21873   1.464   3.194  13.596
57054W        W21874  30.037   2.050  10.621
57055W        W21875   1.906  21.140  10.875
57056W        W21876  41.763  27.551   0.500
57057W        W21877   8.481  34.076   1.444
57058W        W21878   0.519  22.449  12.461
57059W        W21879  16.190   6.188  12.261
57060W        W21880  28.764  15.307   2.849
57061W        W21881  28.128  43.758   3.832
57062W        W21882  12.402  18.481  11.480
57063W        W21883  35.057  18.723  14.342
57064W        W21884  10.126  18.206   0.208
57065W        W21885  13.376  19.128   1.963
57066W        W21886  35.795   9.809  13.600
57067W        W21887  21.501  32.837   2.607
57068W        W21888  18.841  11.455  14.989
57069W        W21889  25.233  31.585   3.352
57070W        W21890  13.810   3.839  13.923
57071W        W21891  41.920  14.137   2.365
57072W        W21892   9.686   5.472  11.484
57073W        W21893   4.826  11.055  13.051
57074W        W21894  25.796  20.585   5.432
57075W        W21895  25.096  28.989   3.293
57076W        W21896   9.648  39.910  11.669
57077W        W21897   8.388   9.293   2.095
57078W        W21898   8.729  20.112   3.180
57079W        W21899  12.727  30.918  13.563
57080W        W21900  28.544  17.681  10.679
57081W        W21901  19.211  35.476  13.254
57082W        W21902  15.254   5.211   0.404
57083W        W21903  44.892  16.803  14.486
57084W        W21904  37.827  13.372   0.660
57085W        W21905  30.381  21.077  11.846
57086W        W21906   7.745   8.272  12.712
57087W        W21907  10.883  16.629   0.963
57088W        W21908  26.970  29.692   0.260
57089W        W21909  34.844   3.961  11.599
57090W        W21910   9.198  44.340   3.879
57091W        W21911  32.552   4.709   0.282
57092W        W21912   6.698  19.777  11.135
57093W        W21913  15.061   7.788  14.371
57094W        W21914   2.304  31.993  13.817
57095W        W21915  37.897   3.617   2.883
57096W        W21916  40.939   6.383   0.580
57097W        W21917  30.926  21.693   4.195
57098W        W21918  27.462   0.356  14.494
57099W        W21919  28.761  32.155  12.383
57100W        W21920  21.973   4.448   2.782
57101W        W21921   6.576  14.332   3.260
57102W        W21922   3.570  23.119  10.876
57103W        W21923   7.666  22.148  14.951
57104W        W21924  19.562   4.408  11.968
57105W        W21925   1.686  34.983   3.871
57106W        W21926  15.332   3.804  10.487
57107W        W21927  17.326   6.647  11.856
57108W        W21928  44.528  30.179  10.590
57109W        W21929  28.955  12.803   1.354
57110W        W21930   3.442  33.522  11.422
57111W        W21931  29.905   8.227   1.357
57112W        W21932  36.748  19.369   2.296
57113W        W21933   9.203  35.073  10.781
57114W        W21934  23.191  15.205   4.537
57115W        W21935  31.426  19.982   3.815
57116W        W21936  24.126  44.244   4.516
57117W        W21937   0.372  26.171   0.364
57118W        W21938  31.956   2.456  14.828
57119W        W21939  23.498  41.193  12.981
57120W        W21940  15.934  17.741   1.491
57121W        W21941   7.389  19.480   3.440
57122W        W21942  39.794  10.707   1.013
57123W        W21943  26.980  16.986  12.987
57124W        W21944  17.593  15.219   0.339
57125W        W21945  21.523   8.677   1.519
57126W        W21946  10.618   7.312  10.953
57127W        W21947   4.174  33.656  10.973
57128W        W21948  43.159  23.094   4.459
57129W        W21949  21.209  11.079   0.456
57130W        W21950  11.799  44.510  11.997
57131W        W21951  41.962  18.470   5.064
57132W        W21952  43.276   7.336   4.040
57133W        W21953  29.425  19.584   3.072
57134W        W21954  14.946   3.614  14.332
57135W        W21955  25.543  35.300   1.345
57136W        W21956  42.847   9.086   4.161
57137W        W21957  15.429  29.068   4.054
57138W        W21958  15.704  33.051   2.771
57139W        W21959   6.674   8.827   0.911
57140W        W21960  13.872  21.684   2.445
57141W        W21961  18.902  21.998   2.707
57142W        W21962  18.702  13.000  10.605
57143W        W21963   3.633  22.664   1.510
57144W        W21964  31.964  25.740  13.878
57145W        W21965   0.509   5.604   4.191
57146W        W21966   2.962  10.318   3.674
57147W        W21967  33.674  17.132  12.485
57148W        W21968  21.808  26.071  10.808
57149W        W21969  41.356  26.188  11.541
57150W        W21970   0.752  14.426  14.370
57151W        W21971  15.824  27.207  10.521
57152W        W21972   2.268  10.433   2.183
57153W        W21973  35.778   5.853  14.302
57154W        W21974   4.736  12.814  12.607
57155W        W21975   8.661  22.065  14.847
57156W        W21976  12.221   8.146   1.835
57157W        W21977  14.729  44.702  14.085
57158W        W21978  33.346  38.167  12.541
57159W        W21979   9.325   7.277   0.309
57160W        W21980  19.492  20.154  14.049
57161W        W21981  32.148  11.264  10.891
57162W        W21982  40.059   2.705   3.687
57163W        W21983  42.872  15.232   3.199
57164W        W21984  40.892  14.153   0.847
57165W        W21985  21.668  32.552  11.271
57166W        W21986  44.557  32.433  12.968
57167W        W21987   8.204  40.093   4.720
57168W        W21988  26.667   4.653   4.529
57169W        W21989  21.278  21.858   0.793
57170W        W21990  33.480  38.143  10.695
57171W        W21991  22.332  17.180  11.386
57172W        W21992  43.188  40.421   3.825
57173W        W21993  21.310  13.562   0.245
57174W        W21994  28.954   4.093   1.045
57175W        W21995  31.737  30.652   1.476
57176W        W21996  14.281  36.152  10.336
57177W        W21997  26.538  29.887   3.910
57178W        W21998  31.501  43.198   4.151
57179W        W21999  15.358  28.565   3.562
57180W        W22000  17.041  20.266  14.505
57181W        W22001  38.362  19.796   4.786
57182W        W22002  44.310  41.913   3.332
57183W        W22003  40.005  35.485   1.311
57184W        W22004   2.789  25.785  12.382
57185W        W22005  41.834   7.111   2.641
57186W        W22006   5.341  33.061  13.480
57187W        W22007  35.952   4.488   3.887
57188W        W22008  17.408  14.633   1.799
57189W        W22009   3.189   7.494  11.220
57190W        W22010  42.356  10.265   1.348
57191W        W22011  12.762  13.543  11.406
57192W        W22012  32.468   4.891   3.259
57193W        W22013   6.873  31.823   0.352
57194W        W22014  13.282   0.471  10.407
57195W        W22015  30.961  23.475   0.814
57196W        W22016   1.065  29.516  12.483
57197W        W22017  32.480  13.766   4.343
57198W        W22018  37.820  17.755   0.612
57199W        W22019   1.594  30.609  12.813
57200W        W22020  38.205  39.277  11.948
57201W        W22021  31.571  16.405   1.790
57202W        W22022  41.808  44.388   4.806
57203W        W22023  40.128   6.910   0.376
57204W        W22024  12.543  32.133  11.540
57205W        W22025  20.971  30.909   3.178
57206W        W22026  27.241   7.760   2.392
57207W        W22027  26.455  30.039  14.822
57208W        W22028   6.480  13.786  12.971
57209W        W22029  18.117  23.662  13.257
57210W        W22030  44.864  43.476  11.384
57211W        W22031  18.505  30.100  13.202
57212W        W22032  20.170  31.169   3.385
57213W        W22033   3.632   8.896  13.871
57214W        W22034  39.407  31.293  12.852
57215W        W22035  24.580  13.687   4.425
57216W        W22036  23.467  13.318  11.225
57217W        W22037  14.542   0.980   2.630
57218W        W22038  42.014  40.342  12.655
57219W        W22039   7.399  27.199   1.659
57220W        W22040  29.156  28.240   0.213
57221W        W22041   7.924  29.680  11.240
57222W        W22042  35.579   9.477   1.406
57223W        W22043  18.497  10.422   4.179
57224W        W22044  13.107   2.288  12.906
57225W        W22045   2.756  38.480  11.165
57226W        W22046  22.502  15.907  13.137
57227W        W22047   1.286  32.688  12.960
57228W        W22048   8.820  13.174  11.663
57229W        W22049  33.447  12.198   4.880
57230W        W22050  14.993  15.669   9.944
57231W        W22051  31.871  28.539  11.538
57232W        W22052  28.164  43.840  11.633
57233W        W22053  42.352  13.062  12.703
57234W        W22054  13.852  34.338  13.994
57235W        W22055   6.827  22.193  13.858
57236W        W22056  40.831  28.383  11.950
57237W        W22057  16.989   4.366   0.150
57238W        W22058  20.575  31.449  11.683
57239W        W22059   6.689  29.599  10.692
57240W        W22060  41.957  44.850   5.138
57241W        W22061  38.432   5.528   0.632
57242W        W22062  28.973  29.998  11.187
57243W        W22063  35.888  43.421  11.463
57244W        W22064   9.941  10.757  12.813
57245W        W22065   6.592  29.917   3.313
57246W        W22066  15.959   2.339  10.721
57247W        W22067   7.833   0.289   1.718
57248W        W22068  17.766  35.107   1.309
57249W        W22069  43.674  23.017   4.576
57250W        W22070  38.777  28.461   1.778
57251W        W22071   0.913  27.245  11.627
57252W        W22072  38.442  13.563   1.264
57253W        W22073  26.679  12.366   3.202
57254W        W22074  44.426  16.177  10.929
57255W        W22075  24.440  21.576  14.927
57256W        W22076  32.821  42.559  14.083
57257W        W22077   7.223  27.826  13.514
57258W        W22078  22.330  26.015  12.954
57259W        W22079  12.576   8.910   2.157
57260W        W22080  19.699  44.921   3.594
57261W        W22081  40.559  11.192  13.514
57262W        W22082  12.810  33.688  12.074
57263W        W22083  30.665   6.282  12.616
57264W        W22084  40.041  17.947  11.367
57265W        W22085   9.273  20.530  13.828
57266W        W22086  15.170   2.341   2.795
57267W        W22087  11.808   3.725  12.867
57268W        W22088  39.202  37.818  11.603
57269W        W22089  37.972  13.007  10.518
57270W        W22090  11.137  36.065  14.466
57271W        W22091  33.522  31.791  12.154
57272W        W22092  12.846  32.216  11.955
57273W        W22093  36.117  20.508   0.324
57274W        W22094  13.648  14.117   0.871
57275W        W22095  41.111  22.256  11.668
57276W        W22096   8.787  39.920   3.278
57277W        W22097  13.159  25.261  12.565
57278W        W22098   9.207  43.987  14.970
57279W        W22099  41.859  23.312  13.295
57280W        W22100   4.739  28.892   3.586
57281W        W22101   8.656  24.590   0.357
57282W        W22102  26.554  13.393  13.491
57283W        W22103  19.218   2.907  11.884
57284W        W22104  14.595   5.650  11.900
57285W        W22105   3.449  38.379  12.413
57286W        W22106  13.835  39.828  14.180
57287W        W22107  44.058  13.851  13.953
57288W        W22108  43.149  32.340  14.430
57289W        W22109  26.895  41.042  11.561
57290W        W22110  28.607  37.025  12.563
57291W        W22111   6.279  16.314  11.691
57292W        W22112  19.554  40.590  12.975
57293W        W22113  19.288  41.374   0.793
57294W        W22114  16.787  35.877   0.660
57295W        W22115   7.465  11.633   1.445
57296W        W22116  30.960  31.450   2.956
57297W        W22117  36.112  27.975   2.805
57298W        W22118  21.195  44.196   2.124
57299W        W22119  27.842  24.016  11.961
57300W        W22120  37.107   5.527  12.581
57301W        W22121  24.463  42.884   1.488
57302W        W22122  14.908  40.553  13.433
57303W        W22123   8.832  33.234  12.713
57304W        W22124  44.868  33.923  14.955
57305W        W22125  35.827   1.810  13.918
57306W        W22126  38.907  28.965   0.573
57307W        W22127  29.195  43.460  14.078
57308W        W22128  41.417  11.264  10.469
57309W        W22129   6.202  34.527   2.398
57310W        W22130  30.982  43.548   2.275
57311W        W22131   8.702  18.089  13.996
57312W        W22132  21.704  33.380   0.756
57313W        W22133   6.652   3.911  11.166
57314W        W22134   3.848  17.499  14.915
57315W        W22135   6.467   1.699   9.999
57316W        W22136   4.574  40.351  14.022
57317W        W22137  28.198  23.076   0.776
57318W        W22138  26.727   7.688   3.252
57319W        W22139  24.003  18.490   0.791
57320W        W22140  18.851  43.648   4.480
57321W        W22141   7.288  32.419   2.767
57322W        W22142  13.734   6.462   0.314
57323W        W22143  20.621  25.248   1.393
57324W        W22144  35.405  41.407   0.718
57325W        W22145   2.487  24.495   3.071
57326W        W22146   0.781  14.696   3.670
57327W        W22147  18.719  39.911   2.620
57328W        W22148   7.550   4.342  12.429
57329W        W22149   5.354   7.209  14.064
57330W        W22150  16.582  24.277   0.433
57331W        W22151   6.907  31.535  12.974
57332W        W22152  36.818  40.938  13.442
57333W        W22153  36.628  43.557  13.233
57334W        W22154  27.893   6.218  10.780
57335W        W22155  12.093   0.215   0.851
57336W        W22156  17.136  26.172  12.428
57337W        W22157  13.187  32.367  12.788
57338W        W22158  12.765  30.896   3.109
57339W        W22159  26.749  24.654   2.212
57340W        W22160  30.285  19.795  14.021
57341W        W22161  40.407  35.625   2.206
57342W        W22162  35.399   3.905   2.903
57343W        W22163  25.036  14.618  12.466
57344W        W22164  18.509  30.995   4.060
57345W        W22165  11.361   5.526   4.188
57346W        W22166  39.994  26.142   4.547
57347W        W22167   0.431  33.127  13.875
57348W        W22168  31.891  26.439  13.307
57349W        W22169  31.053  40.729   2.676
57350W        W22170  18.788  34.393  12.962
57351W        W22171  22.229  31.459   3.219
57352W        W22172  12.589  36.930  11.853
57353W        W22173  39.151  23.930  14.822
57354W        W22174  23.772   0.943   4.551
57355W        W22175  22.149  24.249  14.386
57356W        W22176   1.898  41.798  10.699
57357W        W22177  25.605  11.740   3.963
57358W        W22178  18.127  29.872  11.525
57359W        W22179  22.202   0.172   1.480
57360W        W22180  39.950  29.672   2.857
57361W        W22181  37.522  16.761  14.858
57362W        W22182  20.565   1.680  11.869
57363W        W22183   3.421  44.738   2.719
57364W        W22184  25.800  32.980   4.623
57365W        W22185  22.262  12.742  11.780
57366W        W22186  41.623  42.410  13.158
57367W        W22187  15.589  10.948   3.665
57368W        W22188  13.767  42.870   2.804
57369W        W22189  31.286  39.064  13.413
57370W        W22190  26.242  39.571   0.987
57371W        W22191  15.824   7.798   0.706
57372W        W22192   7.665  24.357   0.857
57373W        W22193  16.465  10.185   2.694
57374W        W22194  38.496  32.544  10.517
57375W        W22195  19.255  28.959  10.693
57376W        W22196  40.969  37.265  10.669
57377W        W22197   2.910  43.004   2.544
57378W        W22198  11.914  15.050  10.576
57379W        W22199  14.777  21.547   4.089
57380W        W22200  40.454   8.991  14.736
57381W        W22201  22.437  23.061  10.774
57382W        W22202  21.563  18.321  12.257
57383W        W22203  34.865  18.989  11.151
57384W        W22204  23.963  37.010  14.406
57385W        W22205  35.950   9.367  13.368
57386W        W22206   1.380  19.192   0.213
57387W        W22207  15.604  26.586   0.201
57388W        W22208  19.544   0.714  13.495
57389W        W22209  15.574   7.770  11.121
57390W        W22210  23.151  22.161  11.298
57391W        W22211  30.502   1.363  12.404
57392W        W22212   6.941  40.199   2.137
57393W        W22213  14.124  35.574   1.389
57394W        W22214  40.763  26.919   3.718
57395W        W22215  12.055  43.055   0.462
57396W        W22216  23.936  21.178  14.407
57397W        W22217  10.392  30.683  11.228
57398W        W22218   7.935   9.384   1.834
57399W        W22219   0.581  43.844  11.405
57400W        W22220  32.119  13.300  14.841
57401W        W22221  20.785  12.230  10.263
57402W        W22222  18.863   1.851   0.677
57403W        W22223  37.574  33.017  12.595
57404W        W22224  11.237  35.422   4.214
57405W        W22225  11.976  35.377  11.660
57406W        W22226   3.937  21.283  10.458
57407W        W22227   7.598  44.566   0.037
57408W        W22228  38.883  20.445   2.577
57409W        W22229   4.994  43.247   2.310
57410W        W22230  12.930  11.354  11.577
57411W        W22231  26.470  10.755   0.462
57412W        W22232  26.688   8.086   4.894
57413W        W22233  37.479  10.269  11.216
57414W        W22234   6.969  39.113  13.011
57415W        W22235  28.428  26.568   4.373
57416W        W22236  44.394  12.169   1.728
57417W        W22237  43.764  25.537   4.861
57418W        W22238  20.662  25.474   1.885
57419W        W22239  14.320  24.768  12.611
57420W        W22240  39.385  34.296   1.428
57421W        W22241   8.678  39.984   1.838
57422W        W22242  34.050   9.733   1.221
57423W        W22243  11.402  28.952   2.114
57424W        W22244  36.974   4.817   4.201
57425W        W22245  10.424   8.624  11.129
57426W        W22246  21.998  36.940  13.061
57427W        W22247  30.239  23.705  12.014
57428W        W22248  42.860  39.573  14.285
57429W        W22249  17.675  27.538  14.252
57430W        W22250  41.462  35.788  12.713
57431W        W22251  14.657  44.380   3.310
57432W        W22252  29.178  13.090  14.681
57433W        W22253  36.470   5.217  13.345
57434W        W22254  13.340  33.044  12.511
57435W        W22255  20.288  34.865   1.232
57436W        W22256  37.260  27.665  11.983
57437W        W22257  37.866  30.432   2.174
57438W        W22258   4.405  36.359  13.784
57439W        W22259   4.684   9.651  10.712
57440W        W22260  17.677   7.638   3.159
57441W        W22261  38.278  16.103   4.864
57442W        W22262  40.304   8.813   2.212
57443W        W22263  27.707  31.008  12.578
57444W        W22264   6.896  32.332   0.433
57445W        W22265  37.399   9.156  11.037
57446W        W22266  25.142  17.234  12.022
57447W        W22267  27.657  29.420   0.755
57448W        W22268  16.390  27.729  14.422
57449W        W22269  35.417   2.788   1.823
57450W        W22270  16.230  32.685  10.744
57451W        W22271  19.010  35.051   1.861
57452W        W22272   8.084   0.736  12.554
57453W        W22273   7.456   2.681  13.565
57454W        W22274  30.898  17.826  12.444
57455W        W22275  20.708  42.672   0.002
57456W        W22276  24.479  14.231  10.405
57457W        W22277  34.875  40.936  13.327
57458W        W22278  33.103  13.046   0.863
57459W        W22279  25.630  29.029   3.241
57460W        W22280  28.148  31.058  14.271
57461W        W22281  27.729   4.318  14.362
57462W        W22282  20.972  15.795   2.242
57463W        W22283   5.393   3.339  13.560
57464W        W22284  29.509   4.496   4.607
57465W        W22285  13.008  20.405  12.475
57466W        W22286  11.672  37.627   1.757
57467W        W22287  36.891  36.372  14.858
57468W        W22288  22.971  32.563   1.815
57469W        W22289  34.306   6.879  10.469
57470W        W22290  14.245  25.537  13.276
57471W        W22291  13.859  21.587   3.206
57472W        W22292   4.007  34.212   4.296
57473W        W22293  42.310   1.450  11.152
57474W        W22294  18.261   3.552   1.885
57475W        W22295  29.857  19.738   4.962
57476W        W22296  29.436  31.531   0.623
57477W        W22297  41.241   6.659  11.981
57478W        W22298  38.349  35.307   3.271
57479W        W22299   4.842  39.933  13.680
57480W        W22300  32.283  15.614  14.574
57481W        W22301  19.551   8.036  12.013
57482W        W22302  26.052   7.219   2.746
57483W        W22303  30.043   9.219   1.509
57484W        W22304  14.332  15.126   3.178
57485W        W22305   6.344  21.527   2.679
57486W        W22306  44.221   8.277  10.245
57487W        W22307   7.854  19.987  14.374
57488W        W22308  11.732  30.918   4.594
57489W        W22309  20.261  39.702  10.382
57490W        W22310  32.660   6.790  11.436
57491W        W22311  15.866  20.554  12.833
57492W        W22312  33.878  43.444  13.735
57493W        W22313  21.169   0.492   3.032
57494W        W22314  34.638  44.918   0.357
57495W        W22315  19.045  11.805  14.389
57496W        W22316  39.750  26.626   1.872
57497W        W22317   0.731  11.305  10.701
57498W        W22318  34.155  29.995   0.397
57499W        W22319  28.581  16.783  12.625
57500W        W22320  42.748  22.921   4.150
57501W        W22321  30.182   8.200   0.891
57502W        W22322  34.470  10.086  10.707
57503W        W22323   1.528   2.859   4.233
57504W        W22324  27.897  10.434   4.215
57505W        W22325  41.876  16.647  13.535
57506W        W22326  27.151  32.900  11.591
57507W        W22327  31.175  11.877   5.073
57508W        W22328  37.168  44.929  11.191
57509W        W22329  29.005   7.328  13.966
57510W        W22330   5.335  22.971   4.725
57511W        W22331  36.599  29.628   4.400
57512W        W22332  12.080   2.833  12.626
57513W        W22333  27.620  29.466  12.924
57514W        W22334  41.578  39.322   0.620
57515W        W22335   2.683  14.390  12.092
57516W        W22336  19.177  13.381  13.625
57517W        W22337   1.943  20.363   4.086
57518W        W22338  11.123  10.281  14.368
57519W        W22339  13.802  36.143   0.379
57520W        W22340  35.073  10.032  12.839
57521W        W22341   6.644  30.971   4.273
57522W        W22342  39.059  16.038   0.250
57523W        W22343  27.403   3.832  10.822
57524W        W22344  13.357  38.726   5.042
57525W        W22345  27.641   4.407   1.993
57526W        W22346   7.800  12.260  11.618
57527W        W22347  31.434  38.192   1.194
57528W        W22348  28.105  13.249  10.616
57529W        W22349  43.932   8.760  11.585
57530W        W22350  37.012  19.798   4.812
57531W        W22351  44.805  22.689   2.306
57532W        W22352  15.773  22.095  14.810
57533W        W22353  37.419  35.678  13.572
57534W        W22354  16.870   7.881   0.654
57535W        W22355   9.807  32.631   9.775
57536W        W22356   3.742  13.006   0.218
57537W        W22357  10.551  12.376  14.936
57538W        W22358   9.312  20.632   1.367
57539W        W22359  28.396  42.244   0.793
57540W        W22360  34.003  29.391  14.819
57541W        W22361  30.881  12.244   3.212
57542W        W22362   9.728  28.293   0.301
57543W        W22363  40.513  36.397   2.765
57544W        W22364  12.299   1.801   2.725
57545W        W22365  42.445   3.149   1.791
57546W        W22366  31.448  31.841   2.174
57547W        W22367  23.913  18.153   2.753
57548W        W22368  10.974  22.179  13.063
57549W        W22369  12.515   0.268  11.140
57550W        W22370  41.076   6.872   2.236
57551W        W22371  20.019  43.251  10.959
57552W        W22372   2.908   6.795   0.132
57553W        W22373   2.051  39.694  13.549
57554W        W22374  15.837  32.608  12.474
57555W        W22375  28.365  11.741   0.435
57556W        W22376   3.198  33.084  13.320
57557W        W22377  43.484  16.536   3.669
57558W        W22378  31.787  14.112  12.578
57559W        W22379   9.687  21.069  14.793
57560W        W22380  39.555  43.266  11.983
57561W        W22381   7.273   1.018   4.356
57562W        W22382  32.065  38.577  14.760
57563W        W22383  31.982  37.636   3.149
57564W        W22384  38.535  39.048  11.101
57565W        W22385  37.479  30.223   0.956
57566W        W22386   5.903  12.433   0.500
57567W        W22387  42.063  16.302   2.909
57568W        W22388  44.459  43.539  13.869
57569W        W22389  30.354  14.601   2.653
57570W        W22390   2.402  31.429   3.231
57571W        W22391  11.478   5.846   4.580
57572W        W22392  18.637  26.933   3.476
57573W        W22393  16.696  32.920   5.076
57574W        W22394  34.895  34.274  12.045
57575W        W22395   3.447   8.413  12.978
57576W        W22396  36.369  42.428  12.539
57577W        W22397  31.696  21.090   1.744
57578W        W22398   9.855  18.282   1.394
57579W        W22399  42.949   6.252  10.731
57580W        W22400  23.662   4.302  12.626
57581W        W22401  33.701  14.627   4.732
57582W        W22402   0.973   7.176   1.247
57583W        W22403   4.831  12.621  12.148
57584W        W22404  27.868  29.082   0.271
57585W        W22405  27.372  33.463   4.908
57586W        W22406   8.462  24.717  10.349
57587W        W22407  28.076  44.859   3.756
57588W        W22408  18.221  17.815  12.431
57589W        W22409   7.247   2.546   2.617
57590W        W22410  20.267  22.513   0.057
57591W        W22411  43.394   5.819  12.497
57592W        W22412  30.550  40.273   4.987
57593W        W22413  35.979  40.165   0.333
57594W        W22414  24.975  27.667   1.836
57595W        W22415  13.377   8.805  13.101
57596W        W22416  44.852   4.958  13.963
57597W        W22417   0.412  21.578   4.164
57598W        W22418  32.830  23.620   1.789
57599W        W22419  36.742  10.448  13.514
57600W        W22420  36.393  20.493   1.302
57601W        W22421   8.440  36.967   1.307
57602W        W22422  38.389   2.558  12.887
57603W        W22423  16.329  22.975   3.677
57604W        W22424  30.993  43.231  11.164
57605W        W22425  31.372   7.972   2.173
57606W        W22426  30.962  43.759   4.101
57607W        W22427  34.917  35.963   2.898
57608W        W22428  41.434   0.600   2.881
57609W        W22429   0.583   1.756  11.258
57610W        W22430  25.971  28.259   4.668
57611W        W22431   8.333  37.332  12.819
57612W        W22432   9.839  33.511   0.312
57613W        W22433   1.312  43.252  14.357
57614W        W22434  31.655   5.913  14.380
57615W        W22435  34.800  30.472   0.956
57616W        W22436  16.778   3.736   2.700
57617W        W22437  18.064   4.068   4.503
57618W        W22438  36.485   5.417  11.680
57619W        W22439  44.009  26.159   4.088
57620W        W22440  22.786  21.970   0.392
57621W        W22441  33.807  34.527  13.365
57622W        W22442  26.568  33.901   0.859
57623W        W22443  15.193  21.458  13.294
57624W        W22444  28.102  32.447   4.143
57625W        W22445  37.853  39.461   3.383
57626W        W22446  38.984  31.997  13.130
57627W        W22447  21.242  23.061   3.754
57628W        W22448   1.407  44.580   1.409
57629W        W22449  33.853  20.771  13.404
57630W        W22450  27.524  39.341  11.690
57631W        W22451  20.099   6.584   3.579
57632W        W22452  39.493   2.975  13.363
57633W        W22453  33.852   9.192  13.004
57634W        W22454  44.275   6.694   1.813
57635W        W22455   8.593  27.389   1.350
57636W        W22456  25.117  21.519  10.665
57637W        W22457  23.788  13.144   2.153
57638W        W22458  31.078   4.303   0.934
57639W        W22459   3.291  38.401   1.152
57640W        W22460  44.983   5.809   4.180
57641W        W22461  33.677   5.966  12.163
57642W        W22462  41.253  30.343  13.005
57643W        W22463  22.194  20.736  11.135
57644W        W22464  40.218  10.728  11.071
57645W        W22465   6.870  37.949  12.552
57646W        W22466  20.169  24.085  12.186
57647W        W22467  16.692   7.946   0.147
57648W        W22468  14.581  27.090  12.190
57649W        W22469  15.711  30.833   4.801
57650W        W22470  20.560  20.504  10.382
57651W        W22471   1.400  14.647   1.454
57652W        W22472  10.322  18.065   1.280
57653W        W22473  14.207  43.562  14.301
57654W        W22474   6.427  44.936   2.158
57655W        W22475  23.097   3.752   0.964
57656W        W22476   3.988   5.153   0.920
57657W        W22477   7.859  34.667   3.838
57658W        W22478  29.021  43.940   0.757
57659W        W22479  31.621  43.625   3.780
57660W        W22480  21.006  22.880  12.932
57661W        W22481  42.994  19.944  10.255
57662W        W22482  21.290  37.436   4.526
57663W        W22483   7.927  29.137  12.143
57664W        W22484   8.579  32.340  12.971
57665W        W22485  17.682  41.704  10.846
57666W        W22486  12.832  10.609   0.318
57667W        W22487   1.293  15.033  11.949
57668W        W22488  22.192   3.674  10.646
57669W        W22489  40.423   6.766   1.433
57670W        W22490   6.299   5.887  14.964
57671W        W22491  40.032  41.947  11.127
57672W        W22492  28.467  40.399  12.914
57673W        W22493  11.439   8.402   0.542
57674W        W22494  10.165  33.043   0.810
57675W        W22495  10.841  18.507   3.884
57676W        W22496  21.767  16.606   1.946
57677W        W22497  10.129  10.680   3.736
57678W        W22498  14.205   2.245   2.692
57679W        W22499  21.705  27.071  12.040
57680W        W22500   9.692  39.123   1.377
57681W        W22501  30.954  34.509  13.822
57682W        W22502  13.214  10.556   3.732
57683W        W22503  30.009  41.395   2.243
57684W        W22504  10.487  31.169   4.266
57685W        W22505  11.859   6.777  12.920
57686W        W22506  41.496  36.377   1.742
57687W        W22507  16.540  20.774   4.027
57688W        W22508  23.000  37.986   0.514
57689W        W22509  29.529  16.526  11.164
57690W        W22510  43.277  18.734   5.039
57691W        W22511  23.404  18.719  13.866
57692W        W22512   6.099  15.366   0.029
57693W        W22513  37.628  13.402   3.354
57694W        W22514   8.781  16.502  12.031
57695W        W22515   9.444  15.511   1.566
57696W        W22516  39.339  35.455  13.045
57697W        W22517  26.443  26.566  14.465
57698W        W22518   4.992  24.044  11.684
57699W        W22519  34.912   7.333   5.156
57700W        W22520   0.771  19.281  13.940
57701W        W22521  26.707  40.872   0.759
57702W        W22522   6.647  34.349   1.226
57703W        W22523  13.099   4.278  10.707
57704W        W22524  27.663   9.625  11.971
57705W        W22525  30.947  44.634   1.531
57706W        W22526  26.123  34.096   1.984
57707W        W22527  34.820   5.366   1.308
57708W        W22528  44.834   4.292  14.736
57709W        W22529  17.034  18.821  11.067
57710W        W22530  35.196  16.607   3.459
57711W        W22531   3.568  18.855  12.055
57712W        W22532  27.001  13.151  13.302
57713W        W22533  21.106  24.493   3.205
57714W        W22534  21.081  43.240  11.614
57715W        W22535  18.299  41.795   1.716
57716W        W22536  43.711   2.207  12.341
57717W        W22537  30.611  37.503   4.006
57718W        W22538  27.694  28.554   3.850
57719W        W22539  27.235  33.571   3.418
57720W        W22540  40.097   7.353  12.358
57721W        W22541  10.833  41.045   3.301
57722W        W22542  38.000  22.501  12.840
57723W        W22543  39.494  23.099  12.154
57724W        W22544  21.227  14.524  11.607
57725W        W22545  10.128  38.059  10.630
57726W        W22546  12.320   8.080   0.982
57727W        W22547   5.147  41.726   2.844
57728W        W22548  41.112  16.187  13.207
57729W        W22549   8.004   0.268   0.790
57730W        W22550  34.207  14.595  11.643
57731W        W22551  24.996  36.632   0.921
57732W        W22552  38.842   3.331  11.888
57733W        W22553   3.258  23.954  10.609
57734W        W22554  38.293  29.457   0.246
57735W        W22555  42.422   5.875  12.370
57736W        W22556   8.276   7.402   3.978
57737W        W22557   7.376  12.238   5.057
57738W        W22558   3.897  30.636  11.521
57739W        W22559  26.131  40.034   4.080
57740W        W22560  37.436  14.061  13.344
57741W        W22561  42.675  22.144  13.001
57742W        W22562  23.010  22.373   0.186
57743W        W22563  44.224  35.702  10.647
57744W        W22564  21.121  26.833   4.221
57745W        W22565  29.594  19.799   2.652
57746W        W22566   8.768  41.599   3.802
57747W        W22567  18.230  38.447  14.760
57748W        W22568   1.296  36.388  13.573
57749W        W22569  25.574   5.576   3.115
57750W        W22570  41.080  16.147   1.751
57751W        W22571   0.794  24.728  11.547
57752W        W22572  37.446  42.927   0.900
57753W        W22573  32.979  42.895   4.509
57754W        W22574  31.747   8.220   3.761
57755W        W22575  39.143   2.880  12.038
57756W        W22576  36.933   0.390   1.679
57757W        W22577  41.460  21.211   4.210
57758W        W22578   6.371  23.246   0.653
57759W        W22579   8.210  23.060   3.546
57760W        W22580  25.955  14.330  11.644
57761W        W22581  19.542  23.162   2.412
57762W        W22582   3.745   5.618   0.736
57763W        W22583  20.036   1.667   4.297
57764W        W22584  15.661   4.980   4.507
57765W        W22585   0.604  11.626   4.499
57766W        W22586  24.510  27.388   4.075
57767W        W22587   2.233  21.125  13.876
57768W        W22588   7.851  14.778   4.387
57769W        W22589  33.004  12.217   1.285
57770W        W22590  32.540  17.089   1.423
57771W        W22591  28.668   4.897  13.501
57772W        W22592  10.944  21.045   2.785
57773W        W22593  36.612   3.322   1.837
57774W        W22594  15.918  42.454  13.389
57775W        W22595  35.100  40.059   1.715
57776W        W22596  14.126   8.861   3.916
57777W        W22597  32.252  28.972   3.299
57778W        W22598  17.711  32.470  14.039
57779W        W22599  34.177  20.335  14.178
57780W        W22600  13.271   1.698   3.625
57781W        W22601  42.868  28.739  13.619
57782W        W22602   8.892  42.411   1.791
57783W        W22603  28.569  41.972  14.478
57784W        W22604  28.557  42.401   1.261
57785W        W22605  23.694  34.700   1.412
57786W        W22606  27.905  24.508  14.279
57787W        W22607  23.613  28.446   1.861
57788W        W22608  33.151   8.373   2.870
57789W        W22609  30.631  33.109   3.759
57790W        W22610  23.684  19.998   1.737
57791W        W22611  22.218   3.249  11.008
57792W        W22612  42.760  23.565  13.859
57793W        W22613   3.874   2.662  12.437
57794W        W22614  28.660  29.711  14.698
57795W        W22615   9.820  30.636   0.285
57796W        W22616  40.796  20.571   0.365
57797W        W22617  24.952  32.453   0.996
57798W        W22618   0.584   0.925  11.985
57799W        W22619  15.932  16.384   3.719
57800W        W22620  19.962   6.747  14.639
57801W        W22621  43.964  29.894  11.881
57802W        W22622  35.648  11.209  10.182
57803W        W22623  34.054  42.727   0.386
57804W        W22624  30.142   8.345  14.259
57805W        W22625   3.620   0.591  11.098
57806W        W22626  32.436  23.773   0.746
57807W        W22627  26.086  29.961   4.137
57808W        W22628   1.062  19.235  13.113
57809W        W22629   3.984   3.422   1.028
57810W        W22630  29.632  30.358   3.801
57811W        W22631   4.117   8.617  10.821
57812W        W22632  39.446  25.287  12.377
57813W        W22633   7.949  27.549  14.534
57814W        W22634  41.559  31.319   0.402
57815W        W22635  26.992  43.693  10.671
57816W        W22636  30.099  43.163  11.060
57817W        W22637   0.861  14.049  14.768
57818W        W22638  16.725  25.263  10.790
57819W        W22639  24.644   1.499   4.803
57820W        W22640  35.643  43.330   1.880
57821W        W22641  35.527  18.275   4.076
57822W        W22642   6.629  27.978  14.346
57823W        W22643  30.424   7.788  13.253
57824W        W22644  13.197  15.013  11.568
57825W        W22645  31.684  22.401  12.030
57826W        W22646   6.862   3.995   3.606
57827W        W22647  44.794  21.374   0.413
57828W        W22648   7.390   8.195   1.680
57829W        W22649  14.692  44.067   3.718
57830W        W22650  40.358  34.766  12.368
57831W        W22651   5.498   2.961  13.908
57832W        W22652   4.847  11.033  12.043
57833W        W22653  16.324  29.984  14.993
57834W        W22654  43.972   2.802  13.100
57835W        W22655  42.873  35.139  12.898
57836W        W22656  25.050   3.496  14.278
57837W        W22657   6.636  33.273   4.686
57838W        W22658  38.474   5.664  11.323
57839W        W22659  19.166   7.786   3.991
57840W        W22660   7.777  38.191   3.828
57841W        W22661   0.083  31.494   3.750
57842W        W22662   0.437   0.470  12.631
57843W        W22663  21.690  31.797  14.406
57844W        W22664  30.258  14.251   2.126
57845W        W22665  19.209  22.833  11.346
57846W        W22666  15.763  25.135  11.320
57847W        W22667  30.507  44.007   1.435
57848W        W22668  23.991  19.068   3.083
57849W        W22669   5.312  28.206   3.697
57850W        W22670  15.199  21.221   2.250
57851W        W22671  20.553  28.453   0.986
57852W        W22672  15.116  25.679   3.724
57853W        W22673   0.274   5.817  13.403
57854W        W22674   5.343  30.715   2.220
57855W        W22675  32.338   6.076  10.480
57856W        W22676  24.916  16.371  10.363
57857W        W22677  35.045  28.542  11.460
57858W        W22678  26.009  42.046  14.846
57859W        W22679   5.766  25.630  13.910
57860W        W22680  36.048  28.679  14.902
57861W        W22681  11.139  36.345  14.933
57862W        W22682  33.680   8.609  11.614
57863W        W22683  12.317  34.356  13.564
57864W        W22684  43.768  29.227   2.901
57865W        W22685   0.451  25.466  12.450
57866W        W22686  26.002   1.019  13.951
57867W        W22687   0.960  33.145  10.600
57868W        W22688  43.385   6.528   2.046
57869W        W22689  19.168  42.044   1.854
57870W        W22690  36.356   6.680  13.349
57871W        W22691  31.342  10.124  10.738
57872W        W22692   6.332  44.750  13.208
57873W        W22693   4.398   6.396   0.428
57874W        W22694  39.819   1.502   4.127
57875W        W22695   7.728  24.000   3.565
57876W        W22696   8.753  24.728   4.155
57877W        W22697   9.299  26.941   1.707
57878W        W22698   9.898  29.448   2.393
57879W        W22699  13.209  34.448   3.228
57880W        W22700  44.989  26.184  13.379
57881W        W22701  31.951  27.786   1.345
57882W        W22702  34.072  10.621  13.331
57883W        W22703   0.056  17.526   2.758
57884W        W22704  41.986  26.019  14.998
57885W        W22705  21.772   0.032  10.722
57886W        W22706  34.612  10.798   0.285
57887W        W22707  27.422   0.578   3.318
57888W        W22708  38.890   2.916  11.564
57889W        W22709  21.282  39.555   0.728
57890W        W22710  25.121   6.910   2.239
57891W        W22711   8.691  21.886  12.393
57892W        W22712  21.979  25.924   3.767
57893W        W22713  44.470  15.839  11.717
57894W        W22714  38.790  41.950  14.731
57895W        W22715  22.499  32.445  10.662
57896W        W22716  28.638  28.026   4.292
57897W        W22717  37.187  20.742  11.194
57898W        W22718   2.347  34.459  14.530
57899W        W22719   7.807  30.948  12.928
57900W        W22720  12.270   0.496   4.387
57901W        W22721  35.300   9.840  14.270
57902W        W22722  31.912  36.602  13.632
57903W        W22723   7.745  10.453   1.768
57904W        W22724  24.963  34.959   5.396
57905W        W22725   8.173  41.262   1.277
57906W        W22726   8.669   9.986   1.409
57907W        W22727  27.118  22.166  11.133
57908W        W22728  32.896   4.978  13.617
57909W        W22729   9.192  21.914  13.964
57910W        W22730  44.397  17.285   2.907
57911W        W22731  44.387  21.177  11.615
57912W        W22732  22.623  12.292  14.722
57913W        W22733  17.088  24.358   0.440
57914W        W22734  33.863   4.331   0.027
57915W        W22735  18.215  35.631  13.479
57916W        W22736  43.783  42.075  11.569
57917W        W22737   4.870  43.406  13.804
57918W        W22738  14.889   8.159  14.039
57919W        W22739  14.338   4.935   2.472
57920W        W22740   8.344  37.824  12.954
57921W        W22741  37.434  27.993   1.195
57922W        W22742   6.410  32.978   3.918
57923W        W22743   1.550  41.582  14.800
57924W        W22744  24.218  24.491   1.739
57925W        W22745   4.725  34.869  10.834
57926W        W22746  41.843  29.974  13.630
57927W        W22747  22.187  44.698   2.357
57928W        W22748  23.434  31.964   2.392
57929W        W22749  16.781  35.677  13.066
57930W        W22750  29.387  40.532   5.207
57931W        W22751  19.607  15.770  12.818
57932W        W22752  12.119  41.182   3.665
57933W        W22753  35.937  13.747   0.968
57934W        W22754  33.620  12.668   1.816
57935W        W22755  40.672  18.281   1.435
57936W        W22756  37.513  38.938   0.452
57937W        W22757  14.650   0.353   2.405
57938W        W22758  32.156  32.220  14.222
57939W        W22759   0.852  39.439  11.604
57940W        W22760  32.005  30.122  10.653
57941W        W22761  22.301  31.950  10.177
57942W        W22762  35.399  16.839  13.183
57943W        W22763  30.240   1.916  11.084
57944W        W22764  21.492  22.155   4.029
57945W        W22765  19.319  42.820   4.304
57946W        W22766   9.157  35.811   1.011
57947W        W22767  27.213  37.941   0.436
57948W        W22768  39.518   3.313   2.755
57949W        W22769  36.808  41.449   0.688
57950W        W22770  31.030  15.711   0.283
57951W        W22771  32.082  41.347  13.623
57952W        W22772  26.927   3.283  11.189
57953W        W22773  33.416  34.413   1.071
57954W        W22774  39.791  29.879  13.990
57955W        W22775  32.956  30.903   3.238
57956W        W22776  28.241  14.205   4.728
57957W        W22777  27.289   2.003  14.555
57958W        W22778  18.878  10.419  12.578
57959W        W22779  16.913  43.104  12.608
57960W        W22780  31.587   7.548  14.528
57961W        W22781  12.621  42.937   3.392
57962W        W22782  23.651  29.102   3.645
57963W        W22783  19.192  24.533   4.759
57964W        W22784  42.819  35.569   3.266
57965W        W22785   4.941  32.304   2.158
57966W        W22786  24.183  35.865  14.674
57967W        W22787  28.482  12.611   1.411
57968W        W22788  33.115  43.132  11.539
57969W        W22789   2.991  11.152  11.738
57970W        W22790  28.435  24.503  14.248
57971W        W22791  10.819  15.332   1.239
57972W        W22792  26.891  40.892  10.655
57973W        W22793   7.143  40.079  12.136
57974W        W22794   7.311   4.212  11.984
57975W        W22795  15.109  43.933   1.211
57976W        W22796  41.120   5.793   1.295
57977W        W22797  19.820  41.545   4.551
57978W        W22798  18.839  23.791   1.423
57979W        W22799   4.327  36.009   0.947
57980W        W22800  12.376  10.131   0.289
57981W        W22801  41.591  39.761  13.824
57982W        W22802  16.203  10.414  10.682
57983W        W22803  12.312  25.520  12.157
57984W        W22804  41.853  36.089   2.178
57985W        W22805  28.879  25.047  12.595
57986W        W22806  29.216  27.500  11.108
57987W        W22807  29.979  38.499   2.131
57988W        W22808   0.376  24.179   4.452
57989W        W22809   6.879   0.785   4.665
57990W        W22810  35.878   2.420  10.680
57991W        W22811  21.052  30.675  10.790
57992W        W22812  25.228  32.399   2.359
57993W        W22813   1.302   5.773   1.851
57994W        W22814  26.745  15.105   0.243
57995W        W22815  37.023   8.880  14.975
57996W        W22816  17.943  44.826  11.208
57997W        W22817  19.623  11.028   3.131
57998W        W22818  27.446  40.947  10.718
57999W        W22819  20.605  15.089   0.503
58000W        W22820   0.673  16.710  11.078
58001W        W22821  28.905  13.269   2.840
58002W        W22822   3.703  26.668   2.424
58003W        W22823  20.220   0.841   1.952
58004W        W22824  21.704  17.608   0.772
58005W        W22825  19.809  41.965  13.231
58006W        W22826  19.637  20.102   2.767
58007W        W22827  34.411   9.901   4.631
58008W        W22828  11.850  24.702   2.883
58009W        W22829  10.839  18.347   2.597
58010W        W22830   3.782   1.538   1.855
58011W        W22831  12.300   8.019  13.155
58012W        W22832  19.340  20.656  11.401
58013W        W22833  29.010  10.358   2.295
58014W        W22834  18.012  36.438   1.710
58015W        W22835  34.930  18.857   0.463
58016W        W22836  12.235  43.965  10.643
58017W        W22837   6.483  14.420  14.803
58018W        W22838  20.256  36.701  14.323
58019W        W22839  26.738  40.306   1.371
58020W        W22840  28.793  24.212   4.179
58021W        W22841  41.912  18.214   4.602
58022W        W22842  39.227  42.671  13.009
58023W        W22843  10.186  12.864  10.101
58024W        W22844  14.874  14.305  12.479
58025W        W22845  19.243   6.178   3.530
58026W        W22846  13.161  13.539   3.721
58027W        W22847  34.278  41.060   4.434
58028W        W22848  24.940  26.998   2.420
58029W        W22849  22.720  14.029   3.562
58030W        W22850  27.964  13.129  13.316
58031W        W22851  18.026   3.098  10.927
58032W        W22852  41.788  31.956   1.694
58033W        W22853  33.033  20.399   2.925
58034W        W22854  25.137   7.291   0.730
58035W        W22855  27.877  29.577  11.631
58036W        W22856  32.139  25.266  13.839
58037W        W22857  14.144  23.034  11.615
58038W        W22858  23.013  39.823   1.962
58039W        W22859  44.192  37.053   4.584
58040W        W22860  39.931  34.751   0.369
58041W        W22861  26.495  33.838  10.669
58042W        W22862  33.845  34.111   2.725
58043W        W22863   9.744  10.431   4.543
58044W        W22864   1.089   1.292  10.373
58045W        W22865   5.455  18.116   2.706
58046W        W22866  30.930  33.053   1.644
58047W        W22867   5.822  28.547   2.276
58048W        W22868  43.498   4.810   1.374
58049W        W22869  22.249  37.830  10.916
58050W        W22870   6.506  10.074  11.627
58051W        W22871  11.751   7.732  14.474
58052W        W22872  43.590  36.872   3.223
58053W        W22873  27.954  22.933  12.913
58054W        W22874  26.766   8.634  14.974
58055W        W22875  29.694  35.290   0.507
58056W        W22876  22.987  21.049   0.895
58057W        W22877  39.532  22.099   4.142
58058W        W22878  27.841  16.186  12.988
58059W        W22879  43.904   5.295   3.257
58060W        W22880  36.488  40.745  12.110
58061W        W22881  20.358  26.965  11.923
58062W        W22882  44.545  32.902  13.836
58063W        W22883  28.230   7.403   0.860
58064W        W22884  28.252  19.598   1.315
58065W        W22885   9.081   1.023  11.160
58066W        W22886   6.456  43.092   4.286
58067W        W22887  29.121  38.292   0.668
58068W        W22888   7.706  38.551   4.190
58069W        W22889  22.984  20.111  12.011
58070W        W22890  28.993  10.530   1.145
58071W        W22891   2.404  23.555   4.411
58072W        W22892  10.303  34.767  14.895
58073W        W22893  38.560  25.455  11.565
58074W        W22894  18.153  40.897   3.400
58075W        W22895   9.169  22.525  13.030
58076W        W22896  21.106   3.796   0.030
58077W        W22897  39.233  16.694   4.215
58078W        W22898   4.495  22.072   3.604
58079W        W22899   9.714  38.524  12.832
58080W        W22900  30.773  39.548  11.957
58081W        W22901  18.568  24.577  12.042
58082W        W22902  26.088  23.708   0.697
58083W        W22903  17.968  24.608   2.332
58084W        W22904  12.327  32.400  13.089
58085W        W22905  31.883  27.130  13.027
58086W        W22906  22.761  35.808   2.868
58087W        W22907  20.452  13.574  12.426
58088W        W22908  17.773  29.924   1.729
58089W        W22909  18.620  18.149  12.424
58090W        W22910  37.142  17.322  10.785
58091W        W22911  41.616   8.343   4.092
58092W        W22912  25.235   1.410   3.700
58093W        W22913  24.814  28.575   2.395
58094W        W22914  44.774  41.259   3.441
58095W        W22915  21.348  26.965  12.443
58096W        W22916  43.393   7.675   2.740
58097W        W22917  14.892  21.281  14.486
58098W        W22918   7.016  14.599   0.681
58099W        W22919  21.465   6.458   3.992
58100W        W22920  13.859   4.815  10.578
58101W        W22921   3.997  43.832   3.274
58102W        W22922   2.337  30.897   3.135
58103W        W22923  21.478   1.973   2.227
58104W        W22924   8.359  29.445  11.490
58105W        W22925  27.869  20.173   9.948
58106W        W22926  16.146   2.345   3.827
58107W        W22927  29.205  21.093   1.165
58108W        W22928   9.085   9.188  11.497
58109W        W22929  25.964  33.867   5.045
58110W        W22930  32.444  22.671  13.403
58111W        W22931   9.377  19.630  12.576
58112W        W22932  34.206  44.031   4.053
58113W        W22933  41.498  21.347  11.980
58114W        W22934  35.564   1.282  12.392
58115W        W22935  29.100  13.844  14.869
58116W        W22936   1.530   9.120  13.482
58117W        W22937  17.171  35.655  10.509
58118W        W22938  32.884  44.083   3.735
58119W        W22939  43.317  14.361   2.287
58120W        W22940  43.429  31.904   1.289
58121W        W22941  27.669   9.160  14.891
58122W        W22942  25.631  14.594   0.830
58123W        W22943  16.129  38.544   0.928
58124W        W22944  12.553  28.646  13.251
58125W        W22945  42.148  16.626   2.525
58126W        W22946  42.814  40.088   3.552
58127W        W22947  44.050  41.031   0.362
58128W        W22948  43.694   3.880   0.296
58129W        W22949  20.811  26.371  13.831
58130W        W22950  10.805  18.808   2.395
58131W        W22951  41.443  30.270  11.117
58132W        W22952  19.897  23.566   3.231
58133W        W22953  30.926   4.561   2.891
58134W        W22954  19.144  30.923   0.698
58135W        W22955  31.177  41.931   2.266
58136W        W22956  38.720  19.867  14.384
58137W        W22957  28.466  25.568  10.458
58138W        W22958  41.722   1.355  12.585
58139W        W22959  44.969  11.798  13.738
58140W        W22960  17.117   9.877  10.381
58141W        W22961  39.132   8.432  11.369
58142W        W22962  14.815   0.165  13.922
58143W        W22963   9.707  40.655   4.126
58144W        W22964   1.418   8.543  14.999
58145W        W22965  13.726   7.266   3.334
58146W        W22966  41.956   9.460  10.589
58147W        W22967  30.242  34.096   3.132
58148W        W22968  13.957   3.220  14.256
58149W        W22969   8.668  11.806   0.911
58150W        W22970  31.809  17.554  12.640
58151W        W22971  39.338  11.307   3.000
58152W        W22972  18.799   6.851  13.153
58153W        W22973  29.016  28.971   1.776
58154W        W22974  21.770  36.083   2.844
58155W        W22975  33.452   0.525  11.902
58156W        W22976   9.404  23.908   5.491
58157W        W22977   5.844  40.287   0.468
58158W        W22978  31.197  37.047  13.858
58159W        W22979  28.445  25.095  12.074
58160W        W22980   6.747  20.692  11.139
58161W        W22981   1.748  10.349  14.946
58162W        W22982  34.087   9.975   5.333
58163W        W22983  12.408  12.776  10.763
58164W        W22984  26.513  29.480  11.127
58165W        W22985  13.299  16.679   0.303
58166W        W22986  22.316  38.846   1.333
58167W        W22987  24.774   9.239  10.656
58168W        W22988  36.706   2.792  11.681
58169W        W22989  11.582  24.703   2.425
58170W        W22990   3.813  16.640  13.270
58171W        W22991  24.470  23.949   0.906
58172W        W22992  11.335  21.942  13.408
58173W        W22993  44.753  17.590   0.435
58174W        W22994  34.062  18.408   0.114
58175W        W22995   3.697   0.796  12.843
58176W        W22996  27.663  12.181   2.451
58177W        W22997  40.903  27.721  11.646
58178W        W22998  13.830  16.629  11.938
58179W        W22999  42.303  42.135   2.340
58180W        W23000  31.053  26.675   2.895
58181W        W23001   8.574   1.766  12.608
58182W        W23002  31.335  25.647   4.158
58183W        W23003   8.709  27.269  12.042
58184W        W23004  22.589  19.359   2.875
58185W        W23005  20.693  11.609   2.219
58186W        W23006   7.399  36.983  11.078
58187W        W23007   3.573  23.594   1.083
58188W        W23008  26.242  14.727  11.247
58189W        W23009  28.255  21.892  12.100
58190W        W23010  21.454  30.189  14.854
58191W        W23011  15.608   4.175   1.336
58192W        W23012  36.583  14.276  11.479
58193W        W23013   6.690  40.942  10.582
58194W        W23014  43.859  17.748   4.114
58195W        W23015   6.214  31.454  11.211
58196W        W23016   6.361  18.147   3.227
58197W        W23017  17.744  19.718  12.472
58198W        W23018  22.521  36.783   4.870
58199W        W23019  27.384  12.807  12.103
58200W        W23020  26.039  35.816   0.327
58201W        W23021  10.275  44.919   0.738
58202W        W23022  18.939  19.061   0.471
58203W        W23023   8.418  36.592  10.480
58204W        W23024  13.385   0.778  12.413
58205W        W23025  41.951  19.601  13.342
58206W        W23026  42.612  18.923   0.517
58207W        W23027  14.528  41.780  11.067
58208W        W23028  32.387  22.575  11.492
58209W        W23029   2.009   9.217   0.901
58210W        W23030  37.031   3.405  14.772
58211W        W23031  23.205  28.091  14.899
58212W        W23032  19.743   7.671  12.984
58213W        W23033  43.360  34.529   1.424
58214W        W23034   3.321  21.971  12.439
58215W        W23035  22.038   1.163   1.419
58216W        W23036  37.360  15.435  11.108
58217W        W23037  43.800  23.957  13.885
58218W        W23038   4.613  14.940  14.900
58219W        W23039  20.238   7.444   5.362
58220W        W23040  11.249  10.951  11.570
58221W        W23041  29.645  15.971   0.621
58222W        W23042  23.393  36.636  11.453
58223W        W23043  16.773  28.606  14.305
58224W        W23044  29.098  16.876  13.832
58225W        W23045  28.229   2.742  12.443
58226W        W23046  41.092  11.137   9.796
58227W        W23047  28.615  44.844  13.401
58228W        W23048   8.746  23.757   3.650
58229W        W23049  22.776  15.157  11.132
58230W        W23050  35.990  16.779   1.475
58231W        W23051  31.662  13.958  13.068
58232W        W23052  26.467  22.180   0.676
58233W        W23053  13.495  35.572   1.731
58234W        W23054  34.439  36.702  11.098
58235W        W23055  32.860  12.605  13.157
58236W        W23056  39.405  32.064   1.257
58237W        W23057  12.032   5.940   0.539
58238W        W23058  37.653   3.847   4.829
58239W        W23059  33.890  44.118   3.662
58240W        W23060  21.959  25.741   1.167
58241W        W23061   5.280  33.343  14.827
58242W        W23062  19.092  34.352  14.325
58243W        W23063   3.703  12.654   4.545
58244W        W23064  19.217   6.115  12.036
58245W        W23065  14.799  15.518   4.303
58246W        W23066   9.878  27.813   0.293
58247W        W23067  41.919  23.449   4.632
58248W        W23068   6.490  14.669  13.039
58249W        W23069  41.973  19.031   5.043
58250W        W23070  19.903  15.607  14.472
58251W        W23071  18.035  17.575  12.014
58252W        W23072  25.091  20.307   3.433
58253W        W23073  40.396  23.950  14.105
58254W        W23074  11.706  38.424  11.108
58255W        W23075  22.154  18.617  14.393
58256W        W23076  30.409  35.913   3.022
58257W        W23077  43.893  25.616  10.948
58258W        W23078  26.209  44.756  10.923
58259W        W23079  30.647  10.556  12.437
58260W        W23080  34.904  23.259   3.577
58261W        W23081  31.599  11.826   1.990
58262W        W23082   3.753  18.740   2.208
58263W        W23083  27.839   3.930   2.781
58264W        W23084  44.921  21.659  14.479
58265W        W23085  17.648  27.415  13.332
58266W        W23086  40.467  32.633   4.346
58267W        W23087   5.040  30.635   0.782
58268W        W23088   1.523  43.034   2.806
58269W        W23089   5.682   3.267   4.712
58270W        W23090  42.516   6.283  12.061
58271W        W23091  24.031  16.182   0.694
58272W        W23092   4.767  30.142  13.606
58273W        W23093  40.475  17.921   3.392
58274W        W23094  12.350   4.229  14.924
58275W        W23095  39.908  38.337   4.555
58276W        W23096  37.859   8.784  12.673
58277W        W23097  32.317  41.244  12.184
58278W        W23098  15.018  15.565  12.646
58279W        W23099  42.715  44.661  12.607
58280W        W23100  28.554  19.257  13.505
58281W        W23101  36.880  26.524   4.884
58282W        W23102  31.220  12.821   0.824
58283W        W23103  13.607   3.772   0.850
58284W        W23104  32.060  11.553   0.303
58285W        W23105   0.757  39.542  14.839
58286W        W23106  36.308  17.412  11.156
58287W        W23107   3.533  16.147   3.614
58288W        W23108  12.855   0.488   0.641
58289W        W23109  39.120   9.848  12.194
58290W        W23110  20.821  13.298  11.175
58291W        W23111  17.678   8.554  12.487
58292W        W23112  33.071   7.770   0.109
58293W        W23113  12.417  38.877  13.466
58294W        W23114   9.194  29.732   5.302
58295W        W23115   8.154  34.120   0.575
58296W        W23116  44.370  22.177  13.833
58297W        W23117   4.977   5.376   1.509
58298W        W23118   1.468   6.459  10.636
58299W        W23119  29.493  15.546   1.259
58300W        W23120  16.538  33.562  12.594
58301W        W23121  23.183  38.269   0.935
58302W        W23122  32.695  24.243  14.521
58303W        W23123   5.295  44.173   3.677
58304W        W23124  16.122   5.371   1.821
58305W        W23125  28.433   6.614   3.887
58306W        W23126  31.489  31.393   3.327
58307W        W23127   3.362  25.139   3.825
58308W        W23128  30.423  14.178  14.391
58309W        W23129  40.802  22.155   4.837
58310W        W23130  13.110  33.294  13.632
58311W        W23131   0.029  11.413   4.171
58312W        W23132   3.169   8.625   0.360
58313W        W23133  35.656  26.524   0.408
58314W        W23134   2.900  28.463  10.463
58315W        W23135  22.048  35.113   4.573
58316W        W23136   2.481   3.951   0.357
58317W        W23137  37.611  33.274  10.732
58318W        W23138  15.206  24.447   1.464
58319W        W23139  24.380  14.330   2.696
58320W        W23140  38.947   9.076   0.029
58321W        W23141  40.246  19.459  12.060
58322W        W23142  32.022  24.927  12.997
58323W        W23143  38.406  35.047   2.832
58324W        W23144  28.615  13.164  10.454
58325W        W23145  32.811  37.389  14.915
58326W        W23146  13.176   0.745   1.598
58327W        W23147  22.249   7.172   0.246
58328W        W23148   5.910   3.458  12.147
58329W        W23149   1.524  37.328   1.711
58330W        W23150  16.749  13.265   1.413
58331W        W23151   0.954  22.712  12.533
58332W        W23152   7.857   8.272  12.201
58333W        W23153   4.818  34.977  13.320
58334W        W23154  29.560  26.803   3.152
58335W        W23155  26.011  42.107  13.999
58336W        W23156  27.685  35.604  10.237
58337W        W23157  23.986  11.126   3.374
58338W        W23158  25.504  11.495  13.021
58339W        W23159  22.103  36.324  11.113
58340W        W23160  31.588  44.276  14.232
58341W        W23161   6.237  22.783   3.264
58342W        W23162  11.763  10.121   4.958
58343W        W23163   4.961   6.467   3.803
58344W        W23164  26.878   4.017  11.714
58345W        W23165  19.155   6.583  11.851
58346W        W23166  25.324  24.145   2.248
58347W        W23167   9.706  35.816  13.004
58348W        W23168   6.757  12.162   2.327
58349W        W23169   9.843  39.989  13.039
58350W        W23170  18.502   3.291   1.328
58351W        W23171   5.703   5.244   4.355
58352W        W23172  15.927  37.591   1.410
58353W        W23173  18.505   2.381  12.321
58354W        W23174  28.354  26.506   2.443
58355W        W23175  32.007  42.865   2.461
58356W        W23176   8.981  27.543   0.457
58357W        W23177  21.839  39.805   3.654
58358W        W23178   4.163  40.850  11.600
58359W        W23179  10.237  40.815   2.703
58360W        W23180   0.021  21.255  12.208
58361W        W23181  37.092   5.047  13.447
58362W        W23182  22.317  10.026   2.713
58363W        W23183  29.712  23.086  11.652
58364W        W23184  30.701  44.004  13.424
58365W        W23185  33.311  43.246   2.719
58366W        W23186  21.843  18.801  10.393
58367W        W23187   9.618  19.659  14.384
58368W        W23188  31.977   8.191  13.882
58369W        W23189  13.810  29.162  13.518
58370W        W23190  13.920  23.553   2.231
58371W        W23191   2.704  36.763   2.389
58372W        W23192   6.583   7.161   3.133
58373W        W23193  34.089  11.131   1.483
58374W        W23194  27.559  21.715  10.838
58375W        W23195  30.243  42.800  11.945
58376W        W23196  17.440  39.539   4.494
58377W        W23197  14.760  31.192   4.841
58378W        W23198  10.223   3.182   4.065
58379W        W23199   1.596  16.142  12.593
58380W        W23200   6.497  24.079   4.278
58381W        W23201  20.749   1.743   2.808
58382W        W23202  12.617  18.455   1.581
58383W        W23203  31.153   9.471   3.639
58384W        W23204  18.275  32.467   2.108
58385W        W23205  16.825  23.353   1.486
58386W        W23206  36.316  30.975  13.863
58387W        W23207  11.599  18.182   3.623
58388W        W23208  18.105  17.483   4.581
58389W        W23209  40.408  41.238   1.797
58390W        W23210  15.387  18.116   1.781
58391W        W23211  11.792  44.986   0.023
58392W        W23212   9.579   9.793  12.567
58393W        W23213  22.184  44.522  12.401
58394W        W23214  20.650  35.562   1.915
58395W        W23215  11.046   2.763  12.423
58396W        W23216  29.087   3.941  13.878
58397W        W23217  30.117  15.550  14.352
58398W        W23218  15.473   1.732   3.628
58399W        W23219  28.629  37.612   3.214
58400W        W23220   3.953  42.807  12.438
58401W        W23221  30.684  37.594  11.945
58402W        W23222  35.136  14.541   0.760
58403W        W23223  18.837  19.429  11.624
58404W        W23224  20.416  42.825  14.348
58405W        W23225  10.001  14.290  14.519
58406W        W23226  18.430  15.013   4.646
58407W        W23227  36.454  30.006   3.542
58408W        W23228  15.717  18.654  12.640
58409W        W23229   7.300  39.381  10.414
58410W        W23230  27.752  31.520  10.904
58411W        W23231  41.692  25.049  13.544
58412W        W23232  11.046   4.292   4.400
58413W        W23233  22.019   0.023  11.606
58414W        W23234  28.902   4.843  10.702
58415W        W23235  13.586  39.441   0.191
58416W        W23236  14.724  20.244   0.515
58417W        W23237  34.390  33.066   2.304
58418W        W23238  40.870  25.326  11.360
58419W        W23239  26.359  20.345   0.454
58420W        W23240  34.598  34.094   0.316
58421W        W23241  12.874  16.478  12.144
58422W        W23242  15.272  16.536   4.838
58423W        W23243  21.201   6.433  14.238
58424W        W23244  18.726   5.822  11.490
58425W        W23245   1.694   5.255  11.660
58426W        W23246  24.930  44.653   0.934
58427W        W23247  15.735  11.180  14.992
58428W        W23248  12.679  12.807   1.663
58429W        W23249  20.271  30.613   0.180
58430W        W23250  35.966  10.616   1.125
58431W        W23251  18.508   5.603  12.209
58432W        W23252   7.367   1.031   2.805
58433W        W23253  34.454  22.081   0.038
58434W        W23254  32.498  18.844  13.883
58435W        W23255  21.573  34.076   2.563
58436W        W23256  19.114   1.389   0.509
58437W        W23257  28.716  33.468   1.654
58438W        W23258  41.852  14.478   2.772
58439W        W23259  44.956  16.730   4.124
58440W        W23260   7.581  14.813   2.822
58441W        W23261  41.832  37.620  11.137
58442W        W23262  23.531  33.042  14.552
58443W        W23263  22.203  28.016  14.484
58444W        W23264  23.017   7.085   3.581
58445W        W23265  43.245  38.962   4.572
58446W        W23266  31.752  33.529   2.731
58447W        W23267  15.243  18.500   4.034
58448W        W23268  37.041  33.848   1.406
58449W        W23269   2.482   0.814  11.939
58450W        W23270  31.517  13.040   2.293
58451W        W23271  12.323   1.431  10.858
58452W        W23272  26.020  16.321  11.558
58453W        W23273   8.494  42.941   0.307
58454W        W23274  21.175  28.753   2.821
58455W        W23275   3.210  19.741  11.156
58456W        W23276   9.604  31.341   5.445
58457W        W23277  22.992  36.997   0.306
58458W        W23278   2.863   6.076  11.906
58459W        W23279  22.420   5.538  13.646
58460W        W23280   6.096  31.921  11.001
58461W        W23281  43.001   3.024  13.992
58462W        W23282  22.045  40.101  11.521
58463W        W23283  38.101   9.200   1.779
58464W        W23284  33.917  25.203  10.935
58465W        W23285   6.359  29.190   2.005
58466W        W23286  31.080  36.218  14.272
58467W        W23287   7.792  34.871   3.353
58468W        W23288  24.636  31.453  13.389
58469W        W23289  20.287  43.917  13.440
58470W        W23290   2.904   7.736   2.431
58471W        W23291  34.544  29.169   3.614
58472W        W23292  41.882  27.955   4.643
58473W        W23293  22.704  25.477  13.559
58474W        W23294  30.559  42.041  10.689
58475W        W23295  15.260  11.120   2.959
58476W        W23296  38.752  33.914   3.309
58477W        W23297  11.356   2.918   2.790
58478W        W23298  32.962  13.917   4.214
58479W        W23299  38.531   1.931  11.145
58480W        W23300  22.994  25.979  11.991
58481W        W23301   6.296   7.397  13.095
58482W        W23302  37.601   8.624  10.743
58483W        W23303  32.320  17.517  12.611
58484W        W23304  44.818  43.420   4.391
58485W        W23305  19.500  44.809  11.641
58486W        W23306  13.720  40.963   2.928
58487W        W23307  26.213   6.777   0.421
58488W        W23308   4.924   4.732   3.205
58489W        W23309   4.780  44.074   1.423
58490W        W23310  22.909  26.965   1.577
58491W        W23311   1.591  19.135  12.385
58492W        W23312  14.449  42.896   0.068
58493W        W23313  10.348  31.688   0.623
58494W        W23314  39.610  21.543   1.795
58495W        W23315  30.979  28.629   1.462
58496W        W23316   7.625  42.254  14.714
58497W        W23317  37.921  18.495  14.860
58498W        W23318  24.748  40.088   0.251
58499W        W23319  10.958  25.742  11.118
58500W        W23320   6.137   7.018   5.101
58501W        W23321  22.059   0.902   4.136
58502W        W23322  17.143  30.467   2.753
58503W        W23323  36.019   6.294  14.279
58504W        W23324  19.059  18.454   2.613
58505W        W23325  13.799  38.892   3.732
58506W        W23326  27.548  16.054   1.705
58507W        W23327  24.715   2.803   2.735
58508W        W23328   7.773  12.394   1.817
58509W        W23329  42.306  33.851  12.600
58510W        W23330   6.272  29.261   0.214
58511W        W23331  21.548  40.067   0.048
58512W        W23332   1.985  13.159  12.034
58513W        W23333   4.013  32.424  13.464
58514W        W23334  42.484  41.945   1.448
58515W        W23335  26.320  33.104  12.074
58516W        W23336  23.720  31.881   4.584
58517W        W23337  11.115  34.644  14.343
58518W        W23338  30.074  35.299  10.906
58519W        W23339  38.859  42.212  13.472
58520W        W23340  29.039  15.605  11.546
58521W        W23341  37.610  26.647  11.108
58522W        W23342  44.957   6.655  14.334
58523W        W23343  13.360  40.859   1.681
58524W        W23344  22.493   5.362   2.170
58525W        W23345  18.826  38.237   2.107
58526W        W23346  42.058  29.912  14.081
58527W        W23347  36.916   1.747   2.212
58528W        W23348  35.797   0.975   1.384
58529W        W23349   1.841  44.480  14.293
58530W        W23350  12.099  12.064   1.339
58531W        W23351  32.706  15.997   3.059
58532W        W23352   7.009  44.977   3.610
58533W        W23353  18.094  40.989   0.732
58534W        W23354  37.221  15.789  13.831
58535W        W23355   2.198  14.853   4.045
58536W        W23356   2.325  35.433  13.826
58537W        W23357  23.032  35.382   2.360
58538W        W23358  18.700   5.320   3.604
58539W        W23359  18.716  29.398   2.778
58540W        W23360   5.302   2.040  11.176
58541W        W23361  36.405  34.123  10.722
58542W        W23362  40.225   9.373   0.991
58543W        W23363   7.677   0.979   2.232
58544W        W23364  14.536  31.512   1.698
58545W        W23365  22.202  19.133   0.857
58546W        W23366  10.841  35.388  10.654
58547W        W23367  25.488  28.226   0.455
58548W        W23368   7.930  30.474  14.020
58549W        W23369  36.413  36.069   0.662
58550W        W23370  22.633  43.258   0.310
58551W        W23371  35.278  10.695   2.961
58552W        W23372  42.791  33.901  12.501
58553W        W23373  25.285   8.445   3.644
58554W        W23374  42.300   9.715  11.585
58555W        W23375  44.994  31.422   2.423
58556W        W23376  32.255  19.797  13.017
58557W        W23377  39.490   2.433  13.292
58558W        W23378  26.142   4.326  10.486
58559W        W23379  36.822  20.722  11.988
58560W        W23380  40.772  36.909   2.253
58561W        W23381  25.636  31.438  12.863
58562W        W23382  43.480  36.927  14.524
58563W        W23383  36.557  24.628   0.445
58564W        W23384  27.168  23.482   5.767
58565W        W23385  38.055  15.085   2.248
58566W        W23386  27.250   9.382  12.939
58567W        W23387  17.534  40.817   3.059
58568W        W23388  43.707  38.082   2.535
58569W        W23389  23.043  10.656  10.380
58570W        W23390  34.423  10.645   3.088
58571W        W23391  16.467  32.104  13.537
58572W        W23392   3.487   6.557   3.740
58573W        W23393  32.240  31.616  11.512
58574W        W23394   1.672  18.603   3.155
58575W        W23395  15.749  13.791  14.771
58576W        W23396  29.178  26.251   9.863
58577W        W23397   9.688  15.043   0.903
58578W        W23398  21.715  13.656  10.734
58579W        W23399  28.548  11.509   3.299
58580W        W23400  13.826  31.564  14.270
58581W        W23401  11.334  30.873   2.805
58582W        W23402  35.910   8.620   1.904
58583W        W23403   9.369  41.223   2.263
58584W        W23404   8.762   3.680  13.754
58585W        W23405   6.091  11.901   3.366
58586W        W23406   0.682  40.081  13.421
58587W        W23407  21.175  14.776   0.720
58588W        W23408  25.944  30.502  14.240
58589W        W23409  42.760  16.054   2.015
58590W        W23410  12.422  35.842   0.451
58591W        W23411  26.671   0.744   1.935
58592W        W23412  42.392  28.723   3.393
58593W        W23413  23.932  17.221   3.280
58594W        W23414  35.712  23.605  14.535
58595W        W23415  38.712   9.142  14.554
58596W        W23416  33.071  11.302  12.586
58597W        W23417  32.056  29.874  11.145
58598W        W23418  38.305  23.276  10.860
58599W        W23419  33.055  37.884  12.931
58600W        W23420  36.685  27.035   4.135
58601W        W23421  24.749  32.465   4.150
58602W        W23422  23.221  43.246  12.089
58603W        W23423   7.451  16.657  11.269
58604W        W23424  35.617   5.302   0.045
58605W        W23425  13.074  18.210   3.354
58606W        W23426  37.280   4.816  11.505
58607W        W23427  14.136  25.957   2.829
58608W        W23428  11.779  23.417   2.313
58609W        W23429  28.129  25.993  14.446
58610W        W23430  13.889  43.885   3.199
58611W        W23431   3.147  32.608   4.824
58612W        W23432  31.353   5.726   2.634
58613W        W23433   7.606  15.734   4.161
58614W        W23434  26.531  20.552  13.395
58615W        W23435  38.291  30.535   0.736
58616W        W23436  20.513  11.724  11.863
58617W        W23437  31.165  13.837  13.028
58618W        W23438  37.993  10.278  11.197
58619W        W23439  30.445  41.066   0.898
58620W        W23440  35.999  11.846   0.808
58621W        W23441  16.752   7.369   4.231
58622W        W23442  20.758  20.042  13.011
58623W        W23443  33.461  15.895  14.697
58624W        W23444  37.448   1.883   0.027
58625W        W23445  31.647  17.067   2.304
58626W        W23446  20.676   0.978  10.640
58627W        W23447  15.794  19.461  13.309
58628W        W23448   7.658   3.709  11.650
58629W        W23449  23.955  17.232   4.671
58630W        W23450  42.354  18.540   2.173
58631W        W23451  18.910  20.236  14.622
58632W        W23452   9.343  28.070   2.723
58633W        W23453  18.360   0.779   2.158
58634W        W23454  33.323   0.266  12.366
58635W        W23455   2.695  17.701  10.741
58636W        W23456  37.957  33.838   3.797
58637W        W23457  16.766  35.370   4.699
58638W        W23458   7.419   7.090   0.830
58639W        W23459  38.481  44.340   0.349
58640W        W23460  11.435  13.870  12.114
58641W        W23461  24.030   2.698   3.330
58642W        W23462  35.070  38.356   2.410
58643W        W23463  32.575  40.575   1.788
58644W        W23464  36.922  18.737   2.816
58645W        W23465  26.751  10.419  12.968
58646W        W23466  14.356  32.381  14.975
58647W        W23467  26.637  32.500   4.153
58648W        W23468  30.622  15.435   4.460
58649W        W23469  43.525  20.760   2.192
58650W        W23470  24.233  16.350  12.883
58651W        W23471  42.335  32.673  10.314
58652W        W23472  37.516  35.601   2.715
58653W        W23473   9.126   0.029  11.812
58654W        W23474  15.344   8.614  13.498
58655W        W23475  14.706  23.954   2.459
58656W        W23476  31.011  26.210  14.333
58657W        W23477   9.267   2.353   1.038
58658W        W23478   6.833   9.218  11.169
58659W        W23479  14.134  27.852   2.136
58660W        W23480  32.480  11.478  14.823
58661W        W23481  36.754  20.978  13.803
58662W        W23482  31.524  16.314  13.313
58663W        W23483  11.740  21.335  14.076
58664W        W23484  34.353   6.800  13.939
58665W        W23485  12.239   3.746   1.916
58666W        W23486  27.251  37.854   1.285
58667W        W23487  23.008  14.256  13.628
58668W        W23488  10.825   7.474   2.637
58669W        W23489  41.074  10.884  10.249
58670W        W23490  32.008  21.171  14.493
58671W        W23491  10.670  33.532   5.055
58672W        W23492  14.644  31.570   3.073
58673W        W23493  22.794  34.566  13.869
58674W        W23494  21.490   4.365   3.086
58675W        W23495  34.006   8.750   0.912
58676W        W23496  14.773  15.152   1.616
58677W        W23497   7.276  22.773  11.610
58678W        W23498  26.663   5.228   3.156
58679W        W23499  32.975   8.244   2.392
58680W        W23500  36.652   2.311  11.067
58681W        W23501   9.679  23.081  14.516
58682W        W23502  30.884  13.912   3.325
58683W        W23503  43.506  28.659   1.943
58684W        W23504   1.747  22.298   0.847
58685W        W23505  23.076   9.266   3.156
58686W        W23506  20.537  28.480  13.575
58687W        W23507  26.677  17.613   2.234
58688W        W23508  44.814  28.582   4.169
58689W        W23509  16.157  10.376   1.750
58690W        W23510  19.803  26.534  11.395
58691W        W23511   6.339  30.592   0.978
58692W        W23512   0.815  15.677  12.178
58693W        W23513   5.244  11.759  11.999
58694W        W23514  28.244   6.653  14.564
58695W        W23515  12.177  24.726  11.723
58696W        W23516  13.711  34.973   1.167
58697W        W23517  16.789  16.316  10.673
58698W        W23518  32.281  23.613   0.283
58699W        W23519   7.630  18.707  12.601
58700W        W23520   1.394   0.777  14.859
58701W        W23521  31.588  10.575  10.557
58702W        W23522   5.402  23.539   1.421
58703W        W23523  26.068  14.520  14.578
58704W        W23524  37.071  18.830   4.568
58705W        W23525  35.768  15.545   3.697
58706W        W23526  20.133  42.720  13.481
58707W        W23527  27.640  17.509   0.652
58708W        W23528  34.381  18.704  12.867
58709W        W23529  26.269   7.662  12.547
58710W        W23530   9.313  18.014  12.543
58711W        W23531  34.299   6.039  14.309
58712W        W23532   6.289   2.231  10.620
58713W        W23533  16.584  17.480  13.927
58714W        W23534  38.883  28.962   4.693
58715W        W23535   6.155  33.558   4.015
58716W        W23536  21.423  18.642  13.011
58717W        W23537  44.274  37.028  10.047
58718W        W23538   9.743   5.191   0.957
58719W        W23539   3.073   3.636   2.922
58720W        W23540  30.980  28.084  11.942
58721W        W23541   4.136  14.781  14.797
58722W        W23542  13.127  17.733   2.740
58723W        W23543  34.321   8.268   1.324
58724W        W23544  33.102  39.962  14.294
58725W        W23545  40.426  28.107  14.913
58726W        W23546  14.600  38.080   2.357
58727W        W23547  18.264  20.401  12.070
58728W        W23548  25.770  44.728  10.622
58729W        W23549  18.381  22.549  11.555
58730W        W23550  27.492  12.132   2.933
58731W        W23551   4.305  21.670   1.752
58732W        W23552  18.641  14.790   4.193
58733W        W23553  22.624   2.391   4.644
58734W        W23554  18.297  37.678  12.441
58735W        W23555  44.257  32.580   4.834
58736W        W23556  17.781  26.553   0.414
58737W        W23557  44.430  39.015  13.292
58738W        W23558  32.490  15.185   4.616
58739W        W23559  14.542  22.751   2.823
58740W        W23560   4.940  10.752  14.972
58741W        W23561  15.345  37.494   4.120
58742W        W23562  43.563   2.770   0.363
58743W        W23563   5.952  28.194  13.956
58744W        W23564  17.055  38.413  11.417
58745W        W23565  33.198  32.029   1.890
58746W        W23566  38.723  26.592   1.151
58747W        W23567  30.095  24.865   3.078
58748W        W23568  42.779  42.875   2.330
58749W        W23569  15.729   4.868   1.753
58750W        W23570  33.297  27.013   3.268
58751W        W23571   5.989  33.676   2.900
58752W        W23572  34.502  39.146  13.356
58753W        W23573   0.560  19.551   1.036
58754W        W23574  15.517  27.684   2.790
58755W        W23575  20.427  41.507  14.770
58756W        W23576  18.063  13.619   3.895
58757W        W23577  18.129  41.307   1.363
58758W        W23578  12.674  13.130  10.520
58759W        W23579  21.227  14.241   0.888
58760W        W23580  23.534  17.039  13.018
58761W        W23581  24.099  27.804   4.571
58762W        W23582  37.873  18.335   4.972
58763W        W23583  14.750   4.779  11.996
58764W        W23584   9.758  38.861   4.184
58765W        W23585  20.686   5.934   2.163
58766W        W23586  26.222  10.924  11.105
58767W        W23587  19.626  34.476  12.353
58768W        W23588  44.645  22.252  10.693
58769W        W23589  22.284  32.448  13.617
58770W        W23590   8.113  19.651   2.029
58771W        W23591  31.191   3.646   1.938
58772W        W23592  31.474  40.417   0.840
58773W        W23593  33.420  39.065  10.772
58774W        W23594  41.945  25.718   4.171
58775W        W23595  10.217  11.601  14.762
58776W        W23596  30.578   0.698  12.982
58777W        W23597  25.568  28.494  14.996
58778W        W23598   2.592  30.898   3.593
58779W        W23599   3.761   6.251   2.230
58780W        W23600  39.363  15.888   1.317
58781W        W23601  44.468   5.723  12.461
58782W        W23602  12.605  33.135   2.436
58783W        W23603  35.248  15.392  10.660
58784W        W23604  37.043  10.854  13.341
58785W        W23605   4.520  12.893  13.577
58786W        W23606   8.172  35.844  12.474
58787W        W23607   1.809   1.137   2.329
58788W        W23608   5.730  34.628  10.680
58789W        W23609  16.323  17.466   0.276
58790W        W23610  37.316  32.054   2.337
58791W        W23611  20.569  30.231   0.011
58792W        W23612  39.955  31.740  12.362
58793W        W23613  37.347   5.358  12.146
58794W        W23614  15.807  19.762  13.793
58795W        W23615  15.313  10.531   1.385
58796W        W23616  27.260   5.876  12.157
58797W        W23617   2.222  36.143  12.873
58798W        W23618   3.411   9.985   1.271
58799W        W23619  34.055   5.325  13.351
58800W        W23620   0.806   3.455   1.695
58801W        W23621   5.764   1.800   0.460
58802W        W23622   3.307  25.478   1.499
58803W        W23623  16.303   1.248  10.713
58804W        W23624   6.017   4.934   0.774
58805W        W23625   8.819  27.372  13.927
58806W        W23626  19.637  43.141  12.420
58807W        W23627  42.095   4.849   3.238
58808W        W23628  19.691  28.172  11.599
58809W        W23629  44.524  22.378  14.531
58810W        W23630  16.903  29.132  11.612
58811W        W23631  24.914   9.718  13.050
58812W        W23632  35.561  31.675   0.718
58813W        W23633  34.980  11.225  12.021
58814W        W23634  15.329  32.449  14.831
58815W        W23635  41.274  35.502   3.250
58816W        W23636  20.982  28.822   1.795
58817W        W23637  15.677   1.837  14.952
58818W        W23638   9.616  44.814  11.588
58819W        W23639  21.983  22.398  12.893
58820W        W23640  29.763  29.508   2.887
58821W        W23641  32.302  21.991  13.934
58822W        W23642   7.320   9.326   4.261
58823W        W23643  44.200  10.008  10.290
58824W        W23644  32.774  40.436   4.244
58825W        W23645  15.298  34.620   0.779
58826W        W23646  39.607   4.084   0.589
58827W        W23647  40.417  28.742   2.172
58828W        W23648  42.859  27.626  14.412
58829W        W23649   7.412  25.120   0.253
58830W        W23650  26.349   9.970   1.919
58831W        W23651   7.185  26.212   0.895
58832W        W23652   7.872  14.316  13.531
58833W        W23653  10.651  19.874   1.302
58834W        W23654   7.619  34.292  14.828
58835W        W23655  22.605  23.300   2.372
58836W        W23656  23.349  41.324   0.487
58837W        W23657  15.067  35.564   2.393
58838W        W23658   3.520  35.372  11.718
58839W        W23659  36.942  41.126  11.492
58840W        W23660  13.453  22.991   2.910
58841W        W23661   8.240  42.799   4.200
58842W        W23662  38.205  16.681  12.028
58843W        W23663  15.156   9.561   4.643
58844W        W23664   7.792  14.916  11.651
58845W        W23665  15.274  26.624   1.910
58846W        W23666  36.584  42.965   3.117
58847W        W23667  27.597   3.191   3.299
58848W        W23668   3.514  34.979   4.159
58849W        W23669  34.301  30.948   2.289
58850W        W23670  38.093  25.701   3.293
58851W        W23671  17.220   3.370  14.589
58852W        W23672  27.736   1.723   5.099
58853W        W23673  36.126  12.294  14.812
58854W        W23674  10.180  40.495   4.107
58855W        W23675   1.203  27.024  12.591
58856W        W23676  25.921  44.046   1.974
58857W        W23677  14.362  12.837   3.736
58858W        W23678   7.623  39.316  11.975
58859W        W23679  34.938   9.273   0.578
58860W        W23680  40.397  37.660  14.836
58861W        W23681  35.628   7.185  12.956
58862W        W23682  23.524  11.623   1.880
58863W        W23683  35.554  35.418   2.744
58864W        W23684   8.156  13.271   0.692
58865W        W23685  15.286  20.219  11.603
58866W        W23686  39.786  35.784   4.685
58867W        W23687  20.181   7.705   2.258
58868W        W23688   6.481   7.843  14.435
58869W        W23689  38.003  17.075  10.265
58870W        W23690   8.775  43.460  12.412
58871W        W23691  43.461  39.526   1.845
58872W        W23692  21.526   2.325  10.668
58873W        W23693  29.187  22.282  11.947
58874W        W23694  34.189  20.414  12.043
58875W        W23695  35.541  15.414  11.142
58876W        W23696  23.608   6.652  12.682
58877W        W23697  23.322  26.335  12.213
58878W        W23698  39.078  43.762   3.973
58879W        W23699  27.173  26.668   2.250
58880W        W23700  27.967  31.484   0.380
58881W        W23701  30.949   6.400   4.918
58882W        W23702   5.983  13.259  11.359
58883W        W23703  32.978  13.371  10.761
58884W        W23704   4.698  21.226   2.031
58885W        W23705  40.389  37.928   0.290
58886W        W23706  33.602   8.117   0.844
58887W        W23707  32.380  23.917  14.875
58888W        W23708   8.481  34.462   0.044
58889W        W23709  22.561  27.915   0.807
58890W        W23710   5.578  37.365   5.362
58891W        W23711   4.324   8.626   4.103
58892W        W23712  17.897  16.139  13.831
58893W        W23713   7.166  41.007  14.558
58894W        W23714  28.397  36.799   2.206
58895W        W23715   6.558  27.526   3.549
58896W        W23716  42.400  12.843  11.675
58897W        W23717  27.248  42.064   0.543
58898W        W23718  15.683  25.585   4.601
58899W        W23719   8.804  17.628   1.946
58900W        W23720  27.671   4.568  11.460
58901W        W23721   2.015  12.179   3.712
58902W        W23722  33.663  22.090  13.876
58903W        W23723   4.880  15.612   2.353
58904W        W23724   8.575  37.970   3.502
58905W        W23725  35.357   5.988  11.637
58906W        W23726   2.298  23.212  13.454
58907W        W23727   9.638  11.408  12.099
58908W        W23728   2.353  42.076  12.199
58909W        W23729  15.345  19.120  13.382
58910W        W23730  39.092   8.305   0.779
58911W        W23731  36.841  35.868  14.878
58912W        W23732  19.264  21.770   1.360
58913W        W23733  24.363   8.742  12.891
58914W        W23734  30.346   0.879   4.707
58915W        W23735  13.236  22.582   1.795
58916W        W23736   1.168  38.470   0.427
58917W        W23737  17.631  39.642   5.446
58918W        W23738  35.069   6.696  14.510
58919W        W23739  30.467  19.514  12.839
58920W        W23740   3.411  39.482   4.599
58921W        W23741  36.532  26.296   4.551
58922W        W23742  23.254   4.509  10.590
58923W        W23743  20.343   8.357  14.945
58924W        W23744  23.498  27.995   2.717
58925W        W23745   2.681   8.287   0.301
58926W        W23746  20.073  39.436  11.880
58927W        W23747  35.931  14.066   0.036
58928W        W23748   5.913  25.725   3.873
58929W        W23749  19.281  38.043   0.941
58930W        W23750  14.105  26.208   2.374
58931W        W23751  13.094  42.835   3.223
58932W        W23752  22.166  16.089  10.443
58933W        W23753   7.547   4.848   0.836
58934W        W23754  14.678  26.243   0.760
58935W        W23755  25.422  27.043   3.347
58936W        W23756   9.738  27.068  10.994
58937W        W23757   0.110  15.091  13.334
58938W        W23758  32.968   4.235  13.068
58939W        W23759  19.916  13.048  13.094
58940W        W23760  10.319  15.769  13.004
58941W        W23761  38.765  11.162   1.817
58942W        W23762  40.105  10.299  13.136
58943W        W23763  40.927   7.371   4.723
58944W        W23764  14.175  41.077   2.728
58945W        W23765   4.935  35.784   2.686
58946W        W23766   5.244  31.186   2.015
58947W        W23767  32.938  19.955  12.427
58948W        W23768  23.746  43.974  14.999
58949W        W23769  40.201  37.611  11.503
58950W        W23770  11.770  39.957   1.347
58951W        W23771  24.681  17.012  11.930
58952W        W23772  39.447   4.936   4.826
58953W        W23773  24.676  34.078  10.522
58954W        W23774   7.373  41.766  12.953
58955W        W23775   2.733  21.745   4.477
58956W        W23776  31.946   7.176   1.807
58957W        W23777  18.100  12.682  14.324
58958W        W23778  20.710  11.074   0.183
58959W        W23779   8.200   5.450  12.226
58960W        W23780  23.579   2.748  14.797
58961W        W23781  27.697  26.076   4.596
58962W        W23782   3.748  13.712   1.057
58963W        W23783  13.594  32.472  11.077
58964W        W23784  40.617  15.619   2.334
58965W        W23785  31.964  44.223  12.815
58966W        W23786  41.774  29.912  11.293
58967W        W23787  23.241  25.414  14.750
58968W        W23788  23.017  28.198   2.795
58969W        W23789  31.331  16.141   2.406
58970W        W23790   0.509   5.802  14.377
58971W        W23791  20.036  30.592   1.648
58972W        W23792  41.863  23.458  14.165
58973W        W23793  12.168  18.280  11.047
58974W        W23794  11.444  35.580   0.348
58975W        W23795  24.523  12.373   3.614
58976W        W23796  14.385  30.207  14.298
58977W        W23797  36.840  30.363   0.716
58978W        W23798  40.905  42.269  12.676
58979W        W23799  14.767  13.978  11.638
58980W        W23800  43.038   7.252   3.578
58981W        W23801  37.371  18.575  11.177
58982W        W23802  15.704  43.862   3.571
58983W        W23803  43.451  19.963   0.183
58984W        W23804   3.836  16.828   3.157
58985W        W23805  39.430  40.524  12.010
58986W        W23806  15.319   3.743  13.479
58987W        W23807   0.099  35.557  13.640
58988W        W23808  14.695  13.855   3.125
58989W        W23809  42.452  34.903  14.530
58990W        W23810  27.209  20.674  14.410
58991W        W23811  29.082  11.522   3.236
58992W        W23812  29.906   2.255   4.219
58993W        W23813  27.113   5.468  12.900
58994W        W23814  43.113  14.562  13.990
58995W        W23815   2.845  38.821   4.991
58996W        W23816  41.429  19.630   2.263
58997W        W23817   6.964  30.650   3.697
58998W        W23818  31.187  36.356   0.899
58999W        W23819   4.698   7.610   1.169
59000W        W23820   7.722  27.236   1.216
59001W        W23821   7.208  44.052   4.097
59002W        W23822  37.872  19.656  12.895
59003W        W23823  19.655  44.735  13.624
59004W        W23824   0.301  34.222   1.788
59005W        W23825  41.547   9.035  12.349
59006W        W23826  40.013  17.272  12.914
59007W        W23827  10.811   1.949  14.697
59008W        W23828   9.913  35.423  14.374
59009W        W23829  21.057  12.687  13.539
59010W        W23830  14.931  21.108   2.755
59011W        W23831  19.803   3.953   2.844
59012W        W23832  20.104  31.486   4.083
59013W        W23833  20.244  10.367  12.954
59014W        W23834  14.238  36.026  12.174
59015W        W23835  22.123  19.961  13.466
59016W        W23836  27.046   1.562  14.425
59017W        W23837  38.220   2.306  14.112
59018W        W23838  35.462  32.918  13.863
59019W        W23839  27.472  15.215  13.007
59020W        W23840  28.714  40.897  14.358
59021W        W23841   8.812  12.907  13.951
59022W        W23842  35.156  13.341   2.323
59023W        W23843  38.914  27.058  14.856
59024W        W23844  42.751  25.661  11.531
59025W        W23845  44.931  20.950   1.337
59026W        W23846  31.630  30.620   0.429
59027W        W23847  27.984   7.160   3.333
59028W        W23848  28.513  31.798   4.584
59029W        W23849   6.335  15.296   2.297
59030W        W23850  19.901  38.601   3.405
59031W        W23851  12.715  41.837   4.792
59032W        W23852  28.525  14.966  12.561
59033W        W23853  44.534  20.624  14.384
59034W        W23854  17.210  42.970   1.755
59035W        W23855  34.943  15.005   4.674
59036W        W23856  35.398  43.467  12.440
59037W        W23857  20.369  21.295   4.598
59038W        W23858  10.272  10.261   1.938
59039W        W23859   8.314  24.570   1.826
59040W        W23860  15.638  25.263   1.713
59041W        W23861  36.145   9.666   3.525
59042W        W23862  25.566  37.022  11.645
59043W        W23863  33.821  11.681   0.852
59044W        W23864  37.344   0.439   0.683
59045W        W23865  32.908  42.034   1.710
59046W        W23866   1.980  28.635  13.915
59047W        W23867  22.138  14.325   0.872
59048W        W23868  43.300  42.930   1.805
59049W        W23869  27.629  27.562   0.226
59050W        W23870  23.024  39.294   1.935
59051W        W23871   8.567  32.009   3.425
59052W        W23872   6.618  37.562   1.524
59053W        W23873  35.534   4.379   1.810
59054W        W23874  17.996  42.418   0.408
59055W        W23875  16.130  39.436   3.757
59056W        W23876  11.444  17.211  10.292
59057W        W23877  40.034   8.176  13.893
59058W        W23878  34.951  34.513   4.042
59059W        W23879  20.297  13.532  14.482
59060W        W23880  23.012  30.105  13.452
59061W        W23881  18.906  22.464  14.464
59062W        W23882  21.771  36.644   3.694
59063W        W23883  36.339   1.527   3.343
59064W        W23884  30.410  11.853  11.188
59065W        W23885  39.978  18.112   2.675
59066W        W23886  34.450  10.925   3.544
59067W        W23887   5.242  21.591   4.583
59068W        W23888   4.731  18.449   2.714
59069W        W23889  38.804  21.702   4.572
59070W        W23890   7.188  16.799   0.257
59071W        W23891  11.167  24.938  14.559
59072W        W23892   3.265  44.991  13.384
59073W        W23893  42.345  33.226  12.060
59074W        W23894  31.928  12.267  11.064
59075W        W23895  12.707  32.646  13.963
59076W        W23896   1.226  32.574   1.869
59077W        W23897  29.649  27.803  10.975
59078W        W23898  10.326  25.258  10.430
59079W        W23899  38.336  14.624   0.176
59080W        W23900  36.171  26.963   4.179
59081W        W23901  39.119  18.085  12.332
59082W        W23902  24.450  12.576  11.102
59083W        W23903  40.951  27.061   0.353
59084W        W23904   9.843  30.981  12.438
59085W        W23905  14.599   5.628   1.809
59086W        W23906  22.609  24.584  11.999
59087W        W23907  16.570  31.030   2.188
59088W        W23908  42.442  33.031   4.969
59089W        W23909  37.871  40.183   4.564
59090W        W23910  35.068  26.476  12.594
59091W        W23911  43.498   5.844  14.341
59092W        W23912  36.504   0.129  11.292
59093W        W23913  34.057   5.670   1.730
59094W        W23914   1.631  14.146  14.272
59095W        W23915   5.464  28.874   2.480
59096W        W23916  18.094  35.708   4.018
59097W        W23917  22.921  22.649   1.391
59098W        W23918  35.687  16.610  14.554
59099W        W23919  28.865  31.928   4.234
59100W        W23920  20.816  27.670   3.295
59101W        W23921   8.063   8.824  13.295
59102W        W23922  25.512  22.103  14.308
59103W        W23923  29.754  43.848  11.444
59104W        W23924  13.119   8.874   1.465
59105W        W23925   1.352  17.046   1.940
59106W        W23926  19.901  35.102   4.549
59107W        W23927  30.023  31.353  14.311
59108W        W23928  24.100   3.377   0.882
59109W        W23929  12.311   9.441  12.707
59110W        W23930  12.740  21.986  13.022
59111W        W23931  29.602  35.431  12.541
59112W        W23932  43.261  22.460  11.646
59113W        W23933  16.105  10.838  12.506
59114W        W23934  18.991   2.995  11.415
59115W        W23935   5.381  23.385   4.415
59116W        W23936  39.568  26.028  13.074
59117W        W23937   3.165  26.963   3.654
59118W        W23938  43.249  30.086   4.978
59119W        W23939  21.767  14.474   1.819
59120W        W23940  15.595  28.704   0.989
59121W        W23941  25.701  22.193  12.376
59122W        W23942  35.575  19.293   4.069
59123W        W23943   9.600  32.344   4.447
59124W        W23944   1.061   0.818   1.678
59125W        W23945  41.038  15.099   3.809
59126W        W23946   0.212  10.688  11.107
59127W        W23947  35.960  25.469  12.076
59128W        W23948  28.523  24.997  14.943
59129W        W23949  20.434   0.688  14.958
59130W        W23950  21.570  35.543  12.538
59131W        W23951  39.446  24.011   4.569
59132W        W23952   7.462  44.923   0.407
59133W        W23953  11.725  44.458  13.865
59134W        W23954   8.628  44.816  13.404
59135W        W23955  21.739  16.208   2.350
59136W        W23956  30.685  35.873   1.235
59137W        W23957   4.858   3.196   0.466
59138W        W23958  28.107   7.930  10.876
59139W        W23959  25.975  24.052  11.620
59140W        W23960  41.829   9.910  11.522
59141W        W23961  28.845  23.723   4.960
59142W        W23962  26.201  11.107  12.068
59143W        W23963  25.406   9.137  13.503
59144W        W23964  40.373   0.699   1.367
59145W        W23965  37.722   2.738   3.354
59146W        W23966   6.704  14.526   0.273
59147W        W23967   9.881  41.780  11.536
59148W        W23968  23.673  39.918   3.340
59149W        W23969  22.910  19.091  12.825
59150W        W23970  17.537  29.578   0.143
59151W        W23971  18.039  24.662   0.231
59152W        W23972  40.459  41.306   2.349
59153W        W23973  34.931  24.956   3.435
59154W        W23974  35.359   8.490  13.965
59155W        W23975  28.984  31.232   2.154
59156W        W23976  15.799   6.883  14.971
59157W        W23977  11.800  31.418   0.542
59158W        W23978  18.916  17.972   2.365
59159W        W23979  24.217  17.262  12.999
59160W        W23980   5.600  19.272  14.716
59161W        W23981  21.709  23.565  14.730
59162W        W23982   5.923  26.928  12.471
59163W        W23983  42.491   5.464  13.435
59164W        W23984   3.584   1.751   2.282
59165W        W23985  28.363  14.179   0.436
59166W        W23986  18.195  33.367   3.618
59167W        W23987  24.351   6.917   4.197
59168W        W23988  12.216  26.900   4.962
59169W        W23989  22.690   6.311  13.271
59170W        W23990  25.516  17.143  12.858
59171W        W23991  34.265  29.152   0.893
59172W        W23992  44.927  13.332  10.745
59173W        W23993  28.497   1.498   4.206
59174W        W23994  39.768  32.230   3.629
59175W        W23995  15.333  44.824   1.374
59176W        W23996  43.345  19.682  13.838
59177W        W23997  12.720  36.459   1.887
59178W        W23998  37.895  39.566  10.375
59179W        W23999  27.446  36.701   3.273
59180W        W24000   2.552   1.962   1.590
59181W        W24001  21.710  10.376   1.728
59182W        W24002   4.596   1.861   0.827
59183W        W24003   7.815  33.501  13.513
59184W        W24004  23.740   1.449   4.668
59185W        W24005  41.016  36.475  14.936
59186W        W24006   0.781  23.677  14.096
59187W        W24007  23.966   4.472   0.327
59188W        W24008  42.407  36.582   1.446
59189W        W24009  29.699  36.375  14.503
59190W        W24010   5.672  20.630   3.694
59191W        W24011   3.617  34.848  13.938
59192W        W24012  44.627  29.065   4.077
59193W        W24013  39.003  15.644   3.752
59194W        W24014  41.630  32.059  12.089
59195W        W24015  16.278  34.125  14.741
59196W        W24016   0.906  35.906   4.182
59197W        W24017  24.751  16.411  11.087
59198W        W24018   2.871  35.973  12.597
59199W        W24019  26.229  10.638   3.673
59200W        W24020  23.173  12.855   4.711
59201W        W24021  43.797  31.972   0.081
59202W        W24022  31.356  41.791   0.894
59203W        W24023  14.937  36.824  10.235
59204W        W24024  28.636  18.086  12.839
59205W        W24025  36.894  31.262  14.745
59206W        W24026   5.729  15.526   2.743
59207W        W24027  41.483  30.271   4.218
59208W        W24028   8.134  25.188   5.154
59209W        W24029  14.853  19.411   4.953
59210W        W24030  42.802  13.756  13.551
59211W        W24031  28.447  32.390  11.550
59212W        W24032  16.602  29.183   2.363
59213W        W24033  32.152   2.378  12.813
59214W        W24034   7.805   8.892  14.623
59215W        W24035  34.217  20.603   2.160
59216W        W24036  11.858  19.532   2.646
59217W        W24037  28.979  39.904   1.489
59218W        W24038   5.429   6.448  13.055
59219W        W24039   1.724  44.831  11.558
59220W        W24040  20.028  27.593  14.398
59221W        W24041  25.229  10.210   1.320
59222W        W24042  12.667  36.965   2.002
59223W        W24043   3.644  11.750  11.034
59224W        W24044  30.001  13.936   2.479
59225W        W24045  33.071  13.724   3.736
59226W        W24046  36.854  30.981   3.921
59227W        W24047   1.334   6.299   2.659
59228W        W24048  13.521  40.963   4.565
59229W        W24049  15.869  32.139  13.854
59230W        W24050  17.389  29.660   3.779
59231W        W24051  43.510  19.243  12.432
59232W        W24052  32.873  29.194  12.071
59233W        W24053  24.040  38.545   2.364
59234W        W24054  36.721  36.915   1.334
59235W        W24055   6.801  15.618   0.609
59236W        W24056  30.467  31.822   1.314
59237W        W24057  40.886  38.007   0.465
59238W        W24058  36.532   3.489   3.234
59239W        W24059   7.775   1.430   2.475
59240W        W24060   1.003  41.252   3.067
59241W        W24061  41.455   7.630   2.414
59242W        W24062  26.452  43.242   2.810
59243W        W24063  10.172  29.241  12.446
59244W        W24064  23.854  26.053   2.632
59245W        W24065   5.278  19.408  11.951
59246W        W24066  40.998   6.610  14.561
59247W        W24067  17.816   7.417  12.117
59248W        W24068  18.049  32.448  10.757
59249W        W24069  41.364  22.521  10.544
59250W        W24070  11.397  15.784  13.864
59251W        W24071   2.722  33.408   3.434
59252W        W24072  25.263  32.981  12.190
59253W        W24073  12.537  37.137  13.595
59254W        W24074   3.268  16.355   0.318
59255W        W24075  18.607  44.343   4.524
59256W        W24076  33.772  18.524  11.095
59257W        W24077  35.432  38.087   0.824
59258W        W24078  40.885  41.300   0.987
59259W        W24079  16.331   5.300   0.993
59260W        W24080  16.041  42.212   2.418
59261W        W24081   7.139  10.650   3.088
59262W        W24082  28.636  13.157   0.304
59263W        W24083   9.311  27.814   3.164
59264W        W24084   8.566  16.528   4.381
59265W        W24085  44.368   8.100   3.780
59266W        W24086  35.291  14.899  12.013
59267W        W24087   4.415  35.889  13.943
59268W        W24088   3.239   6.869   1.687
59269W        W24089  24.504  34.130  11.913
59270W        W24090  27.950  15.584  10.576
59271W        W24091  10.841   7.344   4.747
59272W        W24092   0.915  17.288  12.103
59273W        W24093  20.568  20.106   2.155
59274W        W24094  41.716  40.280  10.731
59275W        W24095  35.203  18.771  12.498
59276W        W24096  10.750  24.964  13.769
59277W        W24097  22.688  17.040   2.947
59278W        W24098  29.146  23.835  14.396
59279W        W24099  18.620  35.587  12.523
59280W        W24100   5.580  26.031   2.654
59281W        W24101  20.526   5.298   1.276
59282W        W24102  22.060   9.332  13.806
59283W        W24103   4.862  20.044  13.513
59284W        W24104   3.829  32.721  10.738
59285W        W24105   7.203  20.009  11.490
59286W        W24106  14.199  34.432   0.796
59287W        W24107   1.847  32.390   1.991
59288W        W24108  28.192  31.879   0.127
59289W        W24109  38.605  38.125   4.298
59290W        W24110   8.089  16.221   0.004
59291W        W24111  11.780   3.962   0.754
59292W        W24112   1.438  22.633   2.625
59293W        W24113  37.995   2.189  13.035
59294W        W24114   0.228  29.846   3.774
59295W        W24115  25.174  33.969   3.248
59296W        W24116  24.390   7.539  11.511
59297W        W24117  18.378  24.781  13.809
59298W        W24118   4.250  41.035   1.441
59299W        W24119  14.238   6.288   2.653
59300W        W24120   9.139  36.859  11.679
59301W        W24121  17.298   5.746   4.594
59302W        W24122   7.698  11.391  12.090
59303W        W24123   2.926  34.922  14.455
59304W        W24124  22.623  39.578  13.907
59305W        W24125  31.423   0.851  14.654
59306W        W24126  41.099  10.001   2.369
59307W        W24127  12.753   4.524   4.574
59308W        W24128  17.572  36.978   2.273
59309W        W24129  44.770  15.460   2.790
59310W        W24130   5.378  16.513  13.950
59311W        W24131  15.177  26.073  10.322
59312W        W24132  32.416   4.011   3.642
59313W        W24133   4.024   1.236  11.611
59314W        W24134  41.507  33.507  12.403
59315W        W24135  25.997  13.912  11.365
59316W        W24136  19.769  24.259  12.505
59317W        W24137  42.831  27.236  12.381
59318W        W24138  41.396  14.611   1.697
59319W        W24139  13.946  33.689  12.880
59320W        W24140  39.793  31.587  10.795
59321W        W24141   3.216  36.327   4.193
59322W        W24142  16.072  31.088  11.524
59323W        W24143  15.968  33.107   9.898
59324W        W24144  20.275  29.139  12.138
59325W        W24145   5.163  14.705   4.255
59326W        W24146   3.540   3.407   0.704
59327W        W24147  20.853  28.257  12.944
59328W        W24148  35.508  35.457   4.833
59329W        W24149  35.485  26.438  14.920
59330W        W24150  26.060  19.761  12.110
59331W        W24151  37.536  15.633  12.626
59332W        W24152  11.832  18.570  12.864
59333W        W24153  10.553  29.492  11.655
59334W        W24154  30.572  25.095   2.709
59335W        W24155  42.599  20.755   0.664
59336W        W24156  22.286  42.495  13.755
59337W        W24157  11.667  26.766   0.720
59338W        W24158  27.413  23.048   1.320
59339W        W24159  18.747  21.527   4.485
59340W        W24160  15.228  43.826  14.977
59341W        W24161  34.982   7.180  14.771
59342W        W24162   1.237  11.886   1.810
59343W        W24163  17.628   5.027  14.521
59344W        W24164   7.529  19.539  12.386
59345W        W24165  32.991   4.377   0.448
59346W        W24166  39.387  32.908  14.959
59347W        W24167  22.097  23.001  13.798
59348W        W24168  17.238  38.039   1.915
59349W        W24169  27.189  33.606   2.471
59350W        W24170  24.444  30.666  12.487
59351W        W24171  26.511   7.805  14.301
59352W        W24172  34.783   9.803  14.387
59353W        W24173  17.232  38.829  13.597
59354W        W24174  32.468  23.848  13.616
59355W        W24175  35.889  42.467  12.411
59356W        W24176  30.995  22.914  11.233
59357W        W24177   3.444  14.608   3.285
59358W        W24178  27.139  42.958  14.889
59359W        W24179  37.374   8.637   0.297
59360W        W24180  43.823  35.342   0.298
59361W        W24181  29.258   9.918  11.443
59362W        W24182  17.790  35.389  11.646
59363W        W24183  13.626  31.910   4.955
59364W        W24184  19.228   1.645  14.009
59365W        W24185  39.987  14.958  14.419
59366W        W24186   3.245  24.990  12.520
59367W        W24187  23.976   3.871   0.745
59368W        W24188  15.789   3.774   0.392
59369W        W24189  26.685  30.040   2.934
59370W        W24190   4.230  28.951   2.303
59371W        W24191  36.821  16.636  13.788
59372W        W24192  15.284  25.323  14.907
59373W        W24193  26.233  11.603  14.399
59374W        W24194  22.630  41.429  14.409
59375W        W24195  24.680  30.855  14.907
59376W        W24196  32.620  16.675  13.874
59377W        W24197  29.919   6.164   1.705
59378W        W24198  43.990   5.503  13.473
59379W        W24199  14.619   7.840   0.305
59380W        W24200  16.089  43.510  13.395
59381W        W24201   8.051   2.225  11.896
59382W        W24202  17.172   3.284  12.962
59383W        W24203  24.128  14.449  13.093
59384W        W24204  24.681  12.533   1.786
59385W        W24205  31.980   1.874   3.399
59386W        W24206  36.557   8.648  13.082
59387W        W24207  14.515  14.674  12.502
59388W        W24208  43.277  30.074  14.449
59389W        W24209  36.360  35.528   3.073
59390W        W24210  28.141   4.913   1.323
59391W        W24211   8.659  29.575   2.575
59392W        W24212  11.091  31.451  10.741
59393W        W24213  26.449  13.676  14.873
59394W        W24214  33.286  18.683   2.713
59395W        W24215  44.269  15.337   2.744
59396W        W24216  41.845  22.481  13.848
59397W        W24217  17.092  11.159  14.216
59398W        W24218  36.797  15.708   4.628
59399W        W24219  14.677  30.091  11.647
59400W        W24220  28.276  21.384   3.178
59401W        W24221   4.123  43.490  10.723
59402W        W24222  35.653  21.790   3.175
59403W        W24223   4.977  15.790   1.888
59404W        W24224  20.323  39.489   5.025
59405W        W24225  40.356  15.595   5.069
59406W        W24226  13.293  41.326   1.898
59407W        W24227  32.231  10.260  13.754
59408W        W24228  38.983  43.768   0.419
59409W        W24229  18.409  41.391  13.049
59410W        W24230  42.541  25.911  11.142
59411W        W24231  39.838  43.324  13.454
59412W        W24232   8.879  22.695   1.660
59413W        W24233  41.084  41.558  14.425
59414W        W24234  16.218  26.438  11.553
59415W        W24235  41.916  36.618  11.619
59416W        W24236  41.533  10.287   3.265
59417W        W24237  14.539  19.021   5.023
59418W        W24238  39.929   4.219   1.916
59419W        W24239  22.670  27.625  10.663
59420W        W24240  22.694  44.415   3.770
59421W        W24241  11.459  18.615  10.720
59422W        W24242  36.355  17.128   2.739
59423W        W24243   9.880  12.317   1.281
59424W        W24244  10.726   3.854   3.188
59425W        W24245  26.367  18.233  10.465
59426W        W24246  26.855  30.435  13.950
59427W        W24247   7.942   6.647  10.952
59428W        W24248  43.020  38.789  12.469
59429W        W24249  26.987  29.395   4.548
59430W        W24250  33.197  36.493   3.111
59431W        W24251  40.354  31.014  13.855
59432W        W24252  23.112   1.766  14.923
59433W        W24253  31.549  40.089   2.907
59434W        W24254  21.726  36.997  11.334
59435W        W24255   6.706  39.051   3.163
59436W        W24256   9.592  10.013  13.269
59437W        W24257  26.961  12.802  11.152
59438W        W24258  42.565  24.154   3.253
59439W        W24259  39.944  43.696   0.450
59440W        W24260  10.082   8.196  12.341
59441W        W24261  13.520  29.070   0.858
59442W        W24262  43.242  32.487  11.364
59443W        W24263  10.635  18.256   0.273
59444W        W24264   7.106  40.872  13.494
59445W        W24265  43.955  44.915   0.208
59446W        W24266  25.213  31.102   4.021
59447W        W24267  29.058  44.252   1.688
59448W        W24268  20.003  26.830   0.472
59449W        W24269   3.225  34.679   3.327
59450W        W24270  10.470   8.457  11.617
59451W        W24271   1.316  27.846  10.928
59452W        W24272  24.550  10.103  14.744
59453W        W24273  35.938   8.995   2.257
59454W        W24274  27.231  33.655  13.405
59455W        W24275   8.604  26.157   3.625
59456W        W24276   4.191   2.934   3.826
59457W        W24277  21.608  39.403   4.585
59458W        W24278  32.484  39.862  12.565
59459W        W24279  36.307  15.177  12.894
59460W        W24280  26.210   2.448   3.605
59461W        W24281   2.941   9.914   0.254
59462W        W24282   6.190  25.914  11.143
59463W        W24283  34.407  27.704   0.911
59464W        W24284  44.470  39.890  13.747
59465W        W24285  39.094  14.849  11.525
59466W        W24286  34.097  19.890   1.040
59467W        W24287  26.028  22.975   2.066
59468W        W24288   3.662  23.235  12.138
59469W        W24289  25.775   5.757  13.017
59470W        W24290  16.118  14.409   1.642
59471W        W24291  27.346  18.905  12.547
59472W        W24292  18.034   9.239  13.608
59473W        W24293  32.314  37.868  13.424
59474W        W24294  15.910  33.581  10.128
59475W        W24295  21.600  21.136   2.938
59476W        W24296  15.172  21.829  11.929
59477W        W24297  41.879  30.354  11.574
59478W        W24298   0.769  38.488  11.430
59479W        W24299  30.700  30.637   4.767
59480W        W24300  30.983  36.354  11.144
59481W        W24301  22.775  28.076   3.331
59482W        W24302  28.587  39.982  12.114
59483W        W24303  16.782  19.090   1.552
59484W        W24304   5.285  16.388   3.902
59485W        W24305   7.650  39.989  12.269
59486W        W24306  32.323   8.696   4.469
59487W        W24307   3.314  13.084  12.940
59488W        W24308   6.243  27.353  13.832
59489W        W24309  30.625  36.250   0.026
59490W        W24310  31.375  38.375   4.391
59491W        W24311   5.481  14.279   2.789
59492W        W24312  23.204  19.099   5.430
59493W        W24313  25.475  36.425   1.174
59494W        W24314  11.280   9.285   1.926
59495W        W24315  26.609  43.997  10.425
59496W        W24316  10.212  15.728   1.430
59497W        W24317  11.664  32.599   4.328
59498W        W24318   6.061  44.843  11.151
59499W        W24319  27.175   4.169  12.930
59500W        W24320  35.449  31.999   5.062
59501W        W24321  33.036  43.553   1.210
59502W        W24322  20.564  15.855  13.827
59503W        W24323  30.929  17.746  14.302
59504W        W24324  41.421  40.577  13.468
59505W        W24325   2.889  16.296  13.417
59506W        W24326  32.790  44.420   0.320
59507W        W24327  41.981  11.725   3.572
59508W        W24328  30.434   3.331   1.852
59509W        W24329  38.052  30.678   0.277
59510W        W24330  35.616  22.198   2.853
59511W        W24331  12.831   7.364   0.771
59512W        W24332  40.437   7.745  12.456
59513W        W24333   7.437  37.616   1.767
59514W        W24334  20.725  27.109  13.460
59515W        W24335  18.122  41.459   0.437
59516W        W24336  30.071   3.180   3.824
59517W        W24337   4.796  29.922   0.131
59518W        W24338  34.764  17.037  10.276
59519W        W24339  23.081  16.101  11.621
59520W        W24340   8.239  29.772   0.369
59521W        W24341  10.469  23.400  12.051
59522W        W24342  43.919  16.316  11.091
59523W        W24343   7.729  21.102   0.925
59524W        W24344  28.836  39.031  10.810
59525W        W24345  34.597  34.402  14.837
59526W        W24346   0.365  11.311   0.338
59527W        W24347   6.834  15.545   1.170
59528W        W24348   6.641  23.143  11.163
59529W        W24349  24.792  29.568   5.002
59530W        W24350  18.090  40.712  11.994
59531W        W24351  42.752   8.100   3.624
59532W        W24352  22.956  20.081   2.262
59533W        W24353  28.263   6.791   0.401
59534W        W24354  19.158  31.551  12.418
59535W        W24355  21.580  28.891   4.467
59536W        W24356  13.112  22.540  10.347
59537W        W24357  38.082  12.313   4.570
59538W        W24358  22.870   1.574  11.141
59539W        W24359  18.597   2.359  12.829
59540W        W24360  40.363  15.025   4.363
59541W        W24361  29.936  41.395  13.312
59542W        W24362  11.350  41.326  10.692
59543W        W24363  11.098   4.801  14.102
59544W        W24364   2.944  10.664  13.931
59545W        W24365  12.220  19.250  13.035
59546W        W24366  25.586   4.477  11.177
59547W        W24367  23.715  31.310   1.254
59548W        W24368   8.273  39.082  13.725
59549W        W24369  10.595  14.519   4.117
59550W        W24370  36.411  16.746  11.685
59551W        W24371  23.617  32.145   0.697
59552W        W24372   0.989  12.653  13.813
59553W        W24373  13.652  38.827  14.403
59554W        W24374  33.174  30.512  12.019
59555W        W24375  22.406  12.550  10.702
59556W        W24376  34.494  23.198   0.434
59557W        W24377  17.769  12.203  11.038
59558W        W24378  25.123  19.022  13.080
59559W        W24379   0.289   2.676   1.818
59560W        W24380  21.082  27.089   0.163
59561W        W24381  33.625   7.335  13.046
59562W        W24382  19.590  34.294   2.861
59563W        W24383  18.628   9.462  12.482
59564W        W24384  44.165   3.378   2.607
59565W        W24385  22.410   8.465   3.185
59566W        W24386  36.530  21.962  13.554
59567W        W24387  42.070   3.417   1.339
59568W        W24388  44.772  27.574  12.892
59569W        W24389  12.532  20.067   4.114
59570W        W24390  11.169  39.368  14.310
59571W        W24391  29.121  37.809   4.263
59572W        W24392   0.723  10.719   4.569
59573W        W24393   5.737  15.951  13.386
59574W        W24394  11.206   8.361  14.072
59575W        W24395  22.793  42.422  10.959
59576W        W24396  10.738  43.994  13.972
59577W        W24397  18.190  37.243   3.703
59578W        W24398  38.823  12.751   4.096
59579W        W24399   3.836  15.414   0.888
59580W        W24400  39.410  30.790  12.932
59581W        W24401   6.486  28.767   2.787
59582W        W24402  36.020   9.888   2.235
59583W        W24403   8.411  29.604   0.844
59584W        W24404  37.989  30.526   4.532
59585W        W24405  36.618  18.566   4.542
59586W        W24406  35.980   7.599   0.348
59587W        W24407  34.454  41.553   1.339
59588W        W24408  10.143  16.709   1.723
59589W        W24409   8.410  17.340   1.752
59590W        W24410  20.063  36.861   2.667
59591W        W24411   9.476  21.216  12.003
59592W        W24412  36.681  18.603  11.512
59593W        W24413  21.181  10.198   0.024
59594W        W24414  33.403  43.573  11.586
59595W        W24415  22.568  26.557   4.113
59596W        W24416   7.669  40.081  13.797
59597W        W24417  40.233   2.310  14.429
59598W        W24418  41.773  31.981   2.232
59599W        W24419  16.345  30.417  11.590
59600W        W24420  12.970  14.818  11.132
59601W        W24421  21.260  35.238   3.583
59602W        W24422  42.001  34.651  11.489
59603W        W24423  36.089  12.286   3.080
59604W        W24424  35.949  13.200  11.818
59605W        W24425  42.446   3.634  13.371
59606W        W24426  21.775  23.314   4.620
59607W        W24427   6.666  26.860   3.047
59608W        W24428  28.680  17.166   1.388
59609W        W24429  32.887  32.180   3.674
59610W        W24430   7.714  39.272  10.719
59611W        W24431  34.290   3.450   3.267
59612W        W24432  35.450  32.866   1.888
59613W        W24433  29.530  24.229   2.656
59614W        W24434  39.149  28.865   4.214
59615W        W24435  11.924  28.649  11.892
59616W        W24436  40.639  28.833   4.126
59617W        W24437  15.250  18.108   0.513
59618W        W24438  14.344   5.854   2.903
59619W        W24439   7.436  34.385   3.739
59620W        W24440   0.909  23.790   2.603
59621W        W24441  38.972  14.301  11.547
59622W        W24442   1.766  41.044   2.996
59623W        W24443  42.601  33.478  11.710
59624W        W24444  31.743  44.912  13.484
59625W        W24445  25.180  29.425   0.480
59626W        W24446   7.211  35.638  12.612
59627W        W24447   1.490   2.008  10.986
59628W        W24448  30.541  12.355  11.143
59629W        W24449  14.935   2.683   0.708
59630W        W24450  33.241  30.933  14.900
59631W        W24451  27.035  14.310   2.234
59632W        W24452   8.880  15.119  10.708
59633W        W24453  22.586  23.495   3.405
59634W        W24454  29.516  11.680  13.943
59635W        W24455  19.783  12.449   1.855
59636W        W24456  36.527  10.419  14.047
59637W        W24457  19.125  25.008   1.768
59638W        W24458  37.103   8.530  10.688
59639W        W24459  44.907  40.021   2.700
59640W        W24460   7.098  21.073   0.629
59641W        W24461  10.632  18.995   3.767
59642W        W24462  35.836   6.742   0.759
59643W        W24463   0.488   4.342   2.324
59644W        W24464   9.386   1.097   1.061
59645W        W24465   1.511  40.861  12.519
59646W        W24466   1.883   7.240   3.257
59647W        W24467  16.400  13.840  11.728
59648W        W24468   4.745  40.578  13.546
59649W        W24469  38.412  21.640  14.331
59650W        W24470  23.615   6.617  14.889
59651W        W24471   0.430   3.607  11.206
59652W        W24472  22.583  43.300  13.468
59653W        W24473  33.862   6.645  10.797
59654W        W24474  24.924   0.908  14.088
59655W        W24475   6.078  34.933  14.745
59656W        W24476  31.214  35.828  13.373
59657W        W24477  35.926   7.146   1.293
59658W        W24478   8.433   6.821  10.469
59659W        W24479   0.313   6.178  12.563
59660W        W24480  28.257  30.584  10.749
59661W        W24481  20.332   7.374  14.071
59662W        W24482  21.325  29.590  13.958
59663W        W24483   0.414  16.699   1.298
59664W        W24484  38.493  39.591  11.132
59665W        W24485  12.322  41.884  11.871
59666W        W24486  29.698  21.500   3.126
59667W        W24487  29.219   2.385   0.254
59668W        W24488   1.972  35.023  11.184
59669W        W24489   1.017  34.439  12.618
59670W        W24490  10.588  24.167   1.633
59671W        W24491  29.558  12.843  14.996
59672W        W24492   3.246  21.803  14.921
59673W        W24493  21.750   5.919  12.441
59674W        W24494  42.266   0.832  13.754
59675W        W24495  33.349   3.094   0.422
59676W        W24496  21.065   6.240   4.350
59677W        W24497  32.635   4.403  13.847
59678W        W24498  21.859  14.755   1.365
59679W        W24499  36.482  15.891   3.346
59680W        W24500  43.866  26.361   2.774
59681W        W24501  41.200   7.179  12.152
59682W        W24502   9.869  42.964  14.586
59683W        W24503  30.971  34.715   3.080
59684W        W24504  10.887  43.966   2.839
59685W        W24505   1.015  29.085   3.351
59686W        W24506   8.198  42.348   2.302
59687W        W24507  24.193  25.249  10.726
59688W        W24508  20.713  13.218  14.407
59689W        W24509  34.579  40.167   1.798
59690W        W24510  28.888   2.146  12.506
59691W        W24511  21.822  36.872   1.911
59692W        W24512   8.873   5.855   2.945
59693W        W24513  20.481  23.992   1.882
59694W        W24514  22.584   4.792   0.251
59695W        W24515  36.958   5.238   3.561
59696W        W24516  35.314  19.616   2.036
59697W        W24517  20.641   9.631   3.247
59698W        W24518   3.974  22.021  13.866
59699W        W24519  44.574  24.125  14.855
59700W        W24520  24.753  43.287   1.325
59701W        W24521  12.972   0.291  14.208
59702W        W24522  16.957  38.888   3.692
59703W        W24523  10.756   9.720   3.161
59704W        W24524  38.042  16.193  12.911
59705W        W24525  23.913   4.152   4.203
59706W        W24526   9.879  40.601   1.259
59707W        W24527  41.504   6.313  12.935
59708W        W24528   9.206  33.548  12.823
59709W        W24529  26.639  24.774   0.176
59710W        W24530  20.272  38.695   3.064
59711W        W24531  26.166   5.911   4.820
59712W        W24532   9.298  19.163   2.278
59713W        W24533  17.324  16.696   2.660
59714W        W24534  17.139  27.888   4.119
59715W        W24535  19.050  19.021  11.433
59716W        W24536   3.391  40.539   4.596
59717W        W24537  39.425  28.097   1.944
59718W        W24538  22.192  29.363  14.306
59719W        W24539  44.484  34.164   0.463
59720W        W24540  27.033  31.459  14.258
59721W        W24541   1.872  13.718   0.486
59722W        W24542  38.047  34.921   0.249
59723W        W24543   7.808  18.639   1.695
59724W        W24544  42.458  11.302  14.714
59725W        W24545  24.205   2.922  11.909
59726W        W24546  34.911  36.408  10.422
59727W        W24547  32.514   1.953   5.134
59728W        W24548  40.577  28.995  13.333
59729W        W24549  40.190  36.500  14.449
59730W        W24550  21.687  27.468   1.467
59731W        W24551  11.458  43.458   4.624
59732W        W24552  13.584  44.386   4.716
59733W        W24553   2.186  42.842   1.900
59734W        W24554  43.771  25.174   2.171
59735W        W24555  21.576  35.293   4.732
59736W        W24556  30.912  21.964  13.884
59737W        W24557  24.132  16.052   2.661
59738W        W24558  18.677  27.919  10.250
59739W        W24559  30.154   6.401  13.369
59740W        W24560  38.491  39.999  12.904
59741W        W24561  32.619   9.238  12.007
59742W        W24562  37.947   7.530   0.547
59743W        W24563  18.098  38.437  11.943
59744W        W24564   1.957  19.019  14.496
59745W        W24565  37.657   3.809  11.567
59746W        W24566  34.320  26.979   3.083
59747W        W24567  12.859  24.176  14.502
59748W        W24568   1.235  17.792  10.703
59749W        W24569   6.439   8.362   4.643
59750W        W24570   1.360  11.235  13.431
59751W        W24571  37.865  32.395   0.900
59752W        W24572  39.532  31.476   2.898
59753W        W24573   5.917  12.824  14.818
59754W        W24574  25.903  39.494  14.642
59755W        W24575  29.372   7.872  11.758
59756W        W24576   9.817  26.416  14.015
59757W        W24577  11.253  22.643   3.558
59758W        W24578  26.945  14.554   1.402
59759W        W24579   4.880  12.211   0.407
59760W        W24580  18.298  40.861  11.059
59761W        W24581  23.518  25.848  13.002
59762W        W24582  42.300  14.654  14.480
59763W        W24583  22.527  14.193  11.258
59764W        W24584  41.455  33.619  11.910
59765W        W24585  38.355  19.141   2.692
59766W        W24586  15.002  24.399  14.807
59767W        W24587  43.016  13.275  11.141
59768W        W24588  44.430  30.109  13.848
59769W        W24589   9.368  24.778  14.080
59770W        W24590  11.721   6.791   2.204
59771W        W24591   7.164  36.354  13.861
59772W        W24592  34.651  25.448  11.657
59773W        W24593  28.028  19.453  13.302
59774W        W24594  40.567  22.183   2.748
59775W        W24595  33.220  14.298   3.014
59776W        W24596   8.705  33.656  12.432
59777W        W24597  39.896  26.087   1.420
59778W        W24598  10.632  20.757   0.937
59779W        W24599  26.727  24.097   1.238
59780W        W24600  41.730  31.306  13.907
59781W        W24601  40.090  24.597   2.193
59782W        W24602   9.998  22.238  13.982
59783W        W24603  19.905  20.119   4.382
59784W        W24604   3.006   5.820   1.305
59785W        W24605  40.284  24.163  14.555
59786W        W24606   5.217  10.621   1.472
59787W        W24607   5.207   3.369  14.074
59788W        W24608  29.042   5.886  13.772
59789W        W24609   7.199  34.697  11.545
59790W        W24610  16.616  27.151  14.922
59791W        W24611  11.129  35.388  14.027
59792W        W24612  27.616  37.139  14.766
59793W        W24613  39.127   1.901   4.599
59794W        W24614   7.623  28.534   1.299
59795W        W24615  21.040  30.400  14.235
59796W        W24616   9.604  16.395   1.275
59797W        W24617  39.913  13.215  13.801
59798W        W24618  44.169   1.274   4.070
59799W        W24619  25.135   0.908   4.209
59800W        W24620   1.823  29.492   4.431
59801W        W24621  18.804  34.922   4.675
59802W        W24622  15.261   9.982  11.726
59803W        W24623  34.159   3.861  10.568
59804W        W24624  14.218  33.934   0.636
59805W        W24625  28.091  24.277   3.795
59806W        W24626  11.460  24.282   4.538
59807W        W24627   4.977  13.586  12.016
59808W        W24628  36.106  43.876   4.290
59809W        W24629  44.316  35.709  14.218
59810W        W24630  13.821  36.143  13.050
59811W        W24631   7.317  16.843  11.723
59812W        W24632  14.726   1.426  13.967
59813W        W24633  41.293  18.704  13.975
59814W        W24634  39.213  22.996  11.726
59815W        W24635  25.560  43.303   1.739
59816W        W24636  16.722  32.586  11.441
59817W        W24637   2.820  37.325  10.574
59818W        W24638  29.167  23.717  12.014
59819W        W24639  11.958  23.620   0.708
59820W        W24640   2.218  35.924   2.753
59821W        W24641  38.871   2.106  14.449
59822W        W24642  22.534  25.508  10.904
59823W        W24643  35.006  33.095   0.039
59824W        W24644  13.468  37.387   4.554
59825W        W24645  12.783  13.873  10.993
59826W        W24646   0.178   1.975  11.061
59827W        W24647  20.434   5.961  10.140
59828W        W24648  26.670  12.603   1.378
59829W        W24649  18.472  12.435   5.066
59830W        W24650   5.735   4.846   1.215
59831W        W24651  14.656  15.733  14.153
59832W        W24652   2.381  10.037  11.179
59833W        W24653  43.707   8.249   3.197
59834W        W24654  33.078   0.813  14.251
59835W        W24655  21.912  37.014  10.870
59836W        W24656   5.284  29.926  14.953
59837W        W24657  13.217  27.498   2.505
59838W        W24658  10.915   7.830   1.972
59839W        W24659  42.426  44.025  12.955
59840W        W24660   5.210  28.701   3.675
59841W        W24661  27.680   7.271  14.309
59842W        W24662  27.216  30.295   3.658
59843W        W24663   3.981  26.881   2.837
59844W        W24664  44.986  22.168  14.316
59845W        W24665   9.458  26.944   0.378
59846W        W24666  16.668  18.207  12.104
59847W        W24667  28.410  15.812   3.956
59848W        W24668  16.759   8.942  14.232
59849W        W24669  43.903  23.187  14.918
59850W        W24670  39.303  25.438  11.071
59851W        W24671   9.662  44.829   2.737
59852W        W24672  38.133   8.905   4.598
59853W        W24673  21.256  29.581   0.754
59854W        W24674  21.322  22.560  10.765
59855W        W24675  34.922  28.618   3.958
59856W        W24676   2.578  21.199   2.157
59857W        W24677  38.555   7.896  11.991
59858W        W24678  27.290  24.243  13.969
59859W        W24679   7.317  29.608  12.920
59860W        W24680   2.967  14.813   0.286
59861W        W24681  43.553   0.312  12.140
59862W        W24682  26.238  43.960  12.958
59863W        W24683  42.717  39.484   3.124
59864W        W24684   5.444  35.021   0.495
59865W        W24685  39.031  17.691  13.717
59866W        W24686  30.031   0.371   0.812
59867W        W24687  19.963  44.190  13.072
59868W        W24688   9.457  41.564   4.353
59869W        W24689  37.432  40.530  12.015
59870W        W24690  16.071  35.807  14.857
59871W        W24691  33.067  14.591  10.157
59872W        W24692  14.387  19.132   1.770
59873W        W24693  30.150  44.401   0.393
59874W        W24694  16.047  34.472   1.272
59875W        W24695  16.524  11.899   4.419
59876W        W24696  18.684  22.630  10.620
59877W        W24697  17.363  18.980   3.976
59878W        W24698  31.785  44.868  14.959
59879W        W24699  41.278  31.545  13.678
59880W        W24700  23.072  39.502  12.515
59881W        W24701  39.369   1.692  11.283
59882W        W24702  25.004  34.361  14.479
59883W        W24703   0.102   1.703   1.982
59884W        W24704  29.138   3.419  13.872
59885W        W24705  31.706  26.279   1.671
59886W        W24706  41.932  11.570   0.779
59887W        W24707  12.910  23.162  12.395
59888W        W24708  33.151  25.487   3.108
59889W        W24709  13.408  42.544   4.570
59890W        W24710  41.602  12.912   5.006
59891W        W24711  31.014  40.161   3.589
59892W        W24712  17.236  20.254   0.833
59893W        W24713  28.243  18.287   1.847
59894W        W24714  15.802  19.993   1.909
59895W        W24715  39.373  43.225   2.843
59896W        W24716  36.439   3.381  11.106
59897W        W24717   7.310  25.362   1.092
59898W        W24718  10.580   6.195   2.760
59899W        W24719  39.559  10.430   2.601
59900W        W24720  11.455  44.850   4.631
59901W        W24721  44.428  40.911   0.733
59902W        W24722  10.847  34.408   1.905
59903W        W24723  33.833  26.091  14.456
59904W        W24724   3.854  23.347  11.682
59905W        W24725  26.647   3.974  12.952
59906W        W24726  43.486  21.929  12.562
59907W        W24727  42.419  15.297  10.291
59908W        W24728  17.006  15.217  13.432
59909W        W24729  21.003  25.577  10.697
59910W        W24730  29.831  41.953   0.730
59911W        W24731  40.922   2.983  12.724
59912W        W24732  35.879  36.284  10.749
59913W        W24733  19.718  34.142   4.200
59914W        W24734  35.627  25.042  12.035
59915W        W24735  37.430  29.490   3.218
59916W        W24736  43.345  30.176   0.993
59917W        W24737   2.806   6.350  14.295
59918W        W24738  22.575   1.049   4.121
59919W        W24739  19.813  33.284  11.550
59920W        W24740  22.545  16.158  13.616
59921W        W24741  33.859  36.587  12.968
59922W        W24742  22.237  21.592  10.824
59923W        W24743  23.825  38.579  14.943
59924W        W24744   3.800  30.345  12.384
59925W        W24745   1.303  23.484   3.426
59926W        W24746  42.954  12.319   1.047
59927W        W24747  21.910  42.462   4.622
59928W        W24748  21.122  19.838   4.613
59929W        W24749   3.186  37.938   1.837
59930W        W24750  12.636  13.699  13.880
59931W        W24751  39.904   1.277   0.806
59932W        W24752  29.716  28.876   3.753
59933W        W24753   3.283  38.872  12.382
59934W        W24754   4.456   7.191   4.262
59935W        W24755   8.785  21.800   1.726
59936W        W24756  15.184  32.397  12.116
59937W        W24757  20.746  30.439  11.173
59938W        W24758  20.662   6.684  10.097
59939W        W24759  13.233  38.006  10.782
59940W        W24760  25.030  31.966   2.107
59941W        W24761  43.922  35.533  14.844
59942W        W24762  38.018  31.908   3.316
59943W        W24763  14.812  37.773  10.593
59944W        W24764   6.698   1.511  13.359
59945W        W24765  29.993  14.780  13.809
59946W        W24766  35.000  20.320   1.634
59947W        W24767  44.785   6.168  12.521
59948W        W24768  15.276  33.358   1.168
59949W        W24769  36.149  21.547   4.220
59950W        W24770  14.708   6.028   4.528
59951W        W24771  28.989  42.195  14.039
59952W        W24772  28.209   9.817   4.273
59953W        W24773   1.716   6.740  13.642
59954W        W24774  20.705  16.542  13.119
59955W        W24775  29.546  42.023   4.865
59956W        W24776   7.217  40.724   0.534
59957W        W24777   8.326  24.617  13.368
59958W        W24778  20.227  42.173   0.860
59959W        W24779  32.099  34.071  12.506
59960W        W24780  36.485  25.203  14.045
59961W        W24781   5.295  44.980  10.711
59962W        W24782   1.523  30.178  10.698
59963W        W24783  26.538   7.216  10.399
59964W        W24784   4.780   2.844   2.449
59965W        W24785  44.358  38.244  11.570
59966W        W24786  29.401  26.950  14.471
59967W        W24787  18.717  43.407   0.435
59968W        W24788   7.122  35.345  13.836
59969W        W24789  42.029  31.122   0.422
59970W        W24790  38.669   6.535  11.223
59971W        W24791  14.231   3.501   1.792
59972W        W24792  21.074  30.241   4.410
59973W        W24793   2.760   9.421   0.158
59974W        W24794  18.580  40.443  11.139
59975W        W24795  23.701  30.984  13.266
59976W        W24796  41.877  19.030   4.259
59977W        W24797   5.803  29.722  12.684
59978W        W24798  22.269  21.088  13.705
59979W        W24799  38.823  33.383  11.443
59980W        W24800  37.265  43.897  12.344
59981W        W24801  43.841  42.820  12.040
59982W        W24802   4.777  20.216   3.269
59983W        W24803  17.206  42.699   2.646
59984W        W24804   2.006  16.998  11.591
59985W        W24805  32.134  37.359  14.550
59986W        W24806   3.234   4.291   2.329
59987W        W24807  10.485   1.471   2.677
59988W        W24808  19.896  39.209   0.290
59989W        W24809  22.500  34.350  11.863
59990W        W24810  20.203   5.190   3.750
59991W        W24811  25.107   7.668   2.731
59992W        W24812  39.398  30.686  14.111
59993W        W24813  16.511   3.236  13.974
59994W        W24814  12.734  22.752   1.711
59995W        W24815  14.208  29.208   1.303
59996W        W24816  43.331  13.992   4.948
59997W        W24817  28.443  42.672   3.057
59998W        W24818  34.395  25.107  12.966
59999W        W24819  23.571  29.612   3.817
60000W        W24820  43.990   7.569  13.556
60001W        W24821  38.759  16.244   4.972
60002W        W24822  25.795  24.544  11.827
60003W        W24823  35.509  30.419   4.844
60004W        W24824  30.661  25.563   1.939
60005W        W24825  40.441  28.627   4.769
60006W        W24826  35.806  11.407  10.868
60007W        W24827  40.601  12.981   2.178
60008W        W24828  13.910   4.194   1.645
60009W        W24829   3.630   3.707  13.311
60010W        W24830  38.124  20.153  12.618
60011W        W24831  31.586  31.920  12.533
60012W        W24832  31.568  11.382   0.439
60013W        W24833  19.769  10.623   4.136
60014W        W24834  32.719  19.089  11.919
60015W        W24835  24.309  22.980  12.112
60016W        W24836  12.135  28.651   1.452
60017W        W24837  11.736  32.492   3.230
60018W        W24838  38.056  44.929   3.031
60019W        W24839  34.683  43.069   5.037
60020W        W24840  32.482  34.810   0.039
60021W        W24841  19.878  16.248   4.046
60022W        W24842   9.703  23.702   2.255
60023W        W24843   8.439  15.242   0.480
60024W        W24844  37.020  23.166  12.332
60025W        W24845  41.045  20.309  11.563
60026W        W24846  13.216  32.567   0.611
60027W        W24847  33.855  30.445  13.008
60028W        W24848  21.382  13.578   2.695
60029W        W24849   9.806  38.612   1.324
60030W        W24850  43.854  27.093  11.168
60031W        W24851  33.099  41.852  10.795
60032W        W24852  28.219  34.972   2.155
60033W        W24853  38.995   6.812  13.844
60034W        W24854  35.320  30.162  12.468
60035W        W24855  23.154  40.810  12.368
60036W        W24856   9.767  33.709  10.476
60037W        W24857   4.171   0.303   4.167
60038W        W24858   4.487   3.997   0.306
60039W        W24859  33.048  31.866  12.294
60040W        W24860  29.916  22.650  12.451
60041W        W24861  27.805  28.033   0.449
60042W        W24862  32.315  15.142  11.311
60043W        W24863  20.201  21.119  14.031
60044W        W24864   5.404  43.556  12.165
60045W        W24865   5.985  21.511   1.719
60046W        W24866  42.426  24.785   0.863
60047W        W24867  39.476   5.116  14.510
60048W        W24868   3.430  26.478  14.227
60049W        W24869  24.767  17.585   5.245
60050W        W24870   9.195  24.085   3.033
60051W        W24871  29.875   4.964   3.851
60052W        W24872  30.911  34.181  14.930
60053W        W24873  17.752  30.382  10.638
60054W        W24874  38.842   2.257   2.869
60055W        W24875  35.386   3.834   3.745
60056W        W24876   0.958  21.596   3.528
60057W        W24877  35.566  35.806  11.586
60058W        W24878  10.256  18.015   3.808
60059W        W24879  20.272  26.715  11.469
60060W        W24880   8.313  12.316   0.230
60061W        W24881   6.217   4.908  11.528
60062W        W24882  36.398  37.885  14.904
60063W        W24883  31.489  26.755   1.714
60064W        W24884  39.272  32.215   0.801
60065W        W24885  12.168  23.701  10.453
60066W        W24886  39.986  21.942   3.907
60067W        W24887   8.718  37.463   2.297
60068W        W24888  23.544  22.930   0.875
60069W        W24889  30.980   8.776  10.728
60070W        W24890  31.662   0.175  13.920
60071W        W24891   1.212   9.767  14.202
60072W        W24892  30.063  17.864  11.542
60073W        W24893   6.633  18.659  12.307
60074W        W24894  16.572  16.155  12.503
60075W        W24895  13.115  30.585  13.736
60076W        W24896  12.326   0.674  12.410
60077W        W24897   7.289  22.236  13.084
60078W        W24898  37.588   4.638  13.989
60079W        W24899   5.095  27.382  13.587
60080W        W24900  13.386  44.386   1.920
60081W        W24901  27.408  40.681   5.003
60082W        W24902  30.101   4.724  12.284
60083W        W24903   7.726   6.376   0.554
60084W        W24904  17.023  16.603  11.977
60085W        W24905  26.103   0.945   4.425
60086W        W24906  10.838   9.353  10.694
60087W        W24907  24.129   1.290  13.049
60088W        W24908  37.484   2.315  13.618
60089W        W24909   6.711  43.620   0.453
60090W        W24910  35.724  29.737   2.311
60091W        W24911  24.603  28.875   4.094
60092W        W24912  32.443  34.125   1.591
60093W        W24913  36.593  40.977   1.922
60094W        W24914  22.233  11.188  11.204
60095W        W24915   7.753  12.107   2.344
60096W        W24916  29.175  36.898  14.004
60097W        W24917   0.894  23.644  10.658
60098W        W24918   1.839  24.626  11.644
60099W        W24919   7.800  32.688   1.479
60100W        W24920   9.823  40.325   2.292
60101W        W24921   6.194  43.566   1.317
60102W        W24922   6.238  11.355   1.299
60103W        W24923  20.527   1.943   3.298
60104W        W24924  36.423  28.950   2.372
60105W        W24925  39.914  18.172  13.326
60106W        W24926  35.573   2.453  13.672
60107W        W24927  32.526  22.745  14.354
60108W        W24928  24.088  16.189   3.159
60109W        W24929  28.417  17.534  13.688
60110W        W24930  24.080  10.930   1.721
60111W        W24931   0.974  15.400  14.512
60112W        W24932  20.718  31.030  10.918
60113W        W24933  20.143  40.032  10.762
60114W        W24934   4.794  21.552   4.244
60115W        W24935  31.548  11.215  12.190
60116W        W24936  43.811  43.046  13.455
60117W        W24937  41.005  42.817   4.056
60118W        W24938   0.437  20.458  14.386
60119W        W24939   5.248  15.892   3.407
60120W        W24940   2.375  29.674  12.604
60121W        W24941  21.453   7.316  10.645
60122W        W24942  33.936  11.262  12.871
60123W        W24943  27.091   1.099  14.642
60124W        W24944   6.391  38.139  11.485
60125W        W24945  43.814   8.621  14.429
60126W        W24946   1.866  30.379   1.335
60127W        W24947  34.177  28.477  14.889
60128W        W24948  33.448  13.335  12.760
60129W        W24949   0.922  19.089   4.672
60130W        W24950   7.363  12.925  11.064
60131W        W24951   4.758  10.049   4.151
60132W        W24952  36.867  44.931   1.208
60133W        W24953  22.078  13.688   0.798
60134W        W24954  32.593  13.347  12.981
60135W        W24955  30.420  20.561  11.955
60136W        W24956  41.992   3.920  13.185
60137W        W24957   4.594   9.214   2.699
60138W        W24958   3.055  38.517   2.960
60139W        W24959  18.457  26.098  12.090
60140W        W24960  24.297  21.511   1.039
60141W        W24961  40.907  16.574   1.989
60142W        W24962   2.696   2.819   1.407
60143W        W24963   1.211  23.124  11.984
60144W        W24964  16.633   2.136   0.120
60145W        W24965  36.393  29.179  13.141
60146W        W24966  22.783  17.465  13.299
60147W        W24967   7.858  28.155   4.124
60148W        W24968   3.297  41.132   1.016
60149W        W24969  33.925  14.254   0.929
60150W        W24970  11.617  29.638  14.253
60151W        W24971  41.843  32.950   0.731
60152W        W24972  11.216  35.132   2.289
60153W        W24973  27.084  25.103   2.917
60154W        W24974  27.247  17.221  12.206
60155W        W24975   3.899  13.399  11.667
60156W        W24976   7.931   9.272   2.347
60157W        W24977  30.161  42.039   0.296
60158W        W24978  12.160  21.312  11.733
60159W        W24979  43.072   4.603  12.866
60160W        W24980  20.009   8.795   0.975
60161W        W24981  26.880  14.618   3.849
60162W        W24982   5.346  33.364   0.731
60163W        W24983  42.447  34.486   1.452
60164W        W24984  34.234  44.884  10.720
60165W        W24985   8.900  10.434  11.170
60166W        W24986  23.155  11.633  10.705
60167W        W24987  29.026  14.146  14.439
60168W        W24988  23.394  19.154   2.214
60169W        W24989  24.956  27.106  11.492
60170W        W24990  17.422   0.945  10.098
60171W        W24991  19.793  27.669   2.337
60172W        W24992  37.404  19.275   3.705
60173W        W24993  13.706  19.639   4.192
60174W        W24994  13.069  11.680  12.902
60175W        W24995  14.136   8.311  12.920
60176W        W24996   7.004   7.167  14.824
60177W        W24997   5.120  28.413  14.882
60178W        W24998  24.158  27.644  12.340
60179W        W24999   5.695  32.584   1.641
60180W        W25000  36.289  42.270   1.874
60181W        W25001  26.319  36.309  14.019
60182W        W25002   6.761  13.394  13.297
60183W        W25003   2.005  41.782  11.670
60184W        W25004  38.714   2.837   0.722
60185W        W25005  42.385   5.879   4.214
60186W        W25006   7.147  20.726  12.050
60187W        W25007  15.718  35.964   0.310
60188W        W25008  24.959   1.369   4.411
60189W        W25009  11.353  26.218  12.993
60190W        W25010  14.673  24.470   0.838
60191W        W25011  30.887   5.076   0.507
60192W        W25012  31.456  26.103   3.943
60193W        W25013   6.936  28.678  12.941
60194W        W25014  18.283  27.554   4.833
60195W        W25015  38.916  27.776   3.581
60196W        W25016  31.452   4.961   0.888
60197W        W25017  27.531   7.687  13.166
60198W        W25018  23.816  31.444   3.788
60199W        W25019   3.322   0.779   1.700
60200W        W25020  34.182  27.958   1.465
60201W        W25021  20.513  18.824   4.146
60202W        W25022  28.386  12.164  12.616
60203W        W25023  11.536  11.374   1.672
60204W        W25024   9.666  11.737  10.759
60205W        W25025  10.637  26.206  13.318
60206W        W25026  33.688  44.707   0.746
60207W        W25027  19.145   0.998  13.409
60208W        W25028  38.851  35.435  12.925
60209W        W25029  19.954  13.650  11.051
60210W        W25030   5.712   7.626  12.776
60211W        W25031  19.187  22.024  14.428
60212W        W25032   4.386  32.068  12.555
60213W        W25033  29.695   8.323  14.529
60214W        W25034  16.837  41.117   3.740
60215W        W25035  20.072   6.345  11.535
60216W        W25036  35.424  22.013  11.886
60217W        W25037   1.018   2.839   4.264
60218W        W25038   5.653  30.894  10.729
60219W        W25039  26.046  41.505  11.931
60220W        W25040  38.916  41.179  11.950
60221W        W25041  21.054  41.092  13.468
60222W        W25042   6.907  36.233  13.409
60223W        W25043  16.211  24.027   2.102
60224W        W25044  20.617  18.465  14.234
60225W        W25045  29.572   9.766   3.910
60226W        W25046  40.808  17.006   2.246
60227W        W25047  14.581  39.554   9.806
60228W        W25048   5.745   2.855   1.835
60229W        W25049  14.125   1.750   0.828
60230W        W25050   9.698   7.747   4.496
60231W        W25051  15.385  11.326   0.857
60232W        W25052   6.713  30.932   0.284
60233W        W25053   3.403  42.013   0.956
60234W        W25054  39.620  34.100   2.425
60235W        W25055  13.098   1.430   4.044
60236W        W25056   7.809   3.287   1.879
60237W        W25057   7.819  37.533  11.565
60238W        W25058  25.085  27.504   2.315
60239W        W25059  21.543  22.146   2.074
60240W        W25060   1.979  34.098  10.776
60241W        W25061  19.136   9.205  13.906
60242W        W25062   4.780   4.944   3.653
60243W        W25063  16.720  18.587   2.382
60244W        W25064   3.282  25.136   0.293
60245W        W25065  43.483   2.954  12.384
60246W        W25066   6.709  27.920   1.241
60247W        W25067  28.618  42.913   1.334
60248W        W25068  35.876  18.725   1.781
60249W        W25069  36.923  25.196  13.783
60250W        W25070  11.275  38.168  12.065
60251W        W25071  37.812   7.896   0.881
60252W        W25072   3.908  35.580  12.700
60253W        W25073  32.423  16.106   0.395
60254W        W25074  35.086  36.309   3.878
60255W        W25075  15.977   2.417   4.809
60256W        W25076  15.746  22.521   4.123
60257W        W25077  35.606  25.923   1.498
60258W        W25078  42.941  35.572   0.244
60259W        W25079  43.066  44.911  10.599
60260W        W25080  42.458   6.219  14.416
60261W        W25081   6.980  38.997  11.603
60262W        W25082  35.132   6.071  12.914
60263W        W25083  44.959  12.489  14.409
60264W        W25084  27.087  30.164   0.948
60265W        W25085   6.264   6.890   1.392
60266W        W25086  10.400  17.132  13.830
60267W        W25087  32.414   4.403   2.106
60268W        W25088   3.958  14.180   4.544
60269W        W25089  10.622  10.147  11.809
60270W        W25090   7.853  13.184   2.326
60271W        W25091   4.530  41.225  14.178
60272W        W25092   4.729  27.588  11.993
60273W        W25093   4.720  21.560   2.435
60274W        W25094  36.974  42.368   1.464
60275W        W25095   8.200  13.241  10.557
60276W        W25096  16.128  18.335  13.411
60277W        W25097   4.382  22.963  14.356
60278W        W25098   6.069   0.281   2.619
60279W        W25099  11.717  35.373   3.553
60280W        W25100   5.738  24.886   0.355
60281W        W25101  13.845  20.998   1.751
60282W        W25102  20.048   1.743  12.006
60283W        W25103  29.807   9.252  11.539
60284W        W25104  15.716  17.408   3.726
60285W        W25105   9.722  22.045  11.182
60286W        W25106  39.479   5.426   0.762
60287W        W25107  43.316   7.369   1.744
60288W        W25108  20.280  42.806  10.176
60289W        W25109  41.962   8.735  12.436
60290W        W25110  16.565   1.455   4.183
60291W        W25111  39.532  28.673  11.601
60292W        W25112  29.591  26.101  14.412
60293W        W25113  18.723   0.874   4.033
60294W        W25114  32.122  36.523   0.066
60295W        W25115  30.962  40.529  11.648
60296W        W25116  11.969  21.676  12.168
60297W        W25117  12.249   3.528  10.569
60298W        W25118  35.900  40.795   3.066
60299W        W25119  33.183  21.099   2.751
60300W        W25120   6.738  21.450   0.028
60301W        W25121  14.140  10.215   3.317
60302W        W25122  39.577  34.505   4.048
60303W        W25123  26.071  32.165  10.613
60304W        W25124   6.734  23.479  12.438
60305W        W25125  22.015  38.297   3.583
60306W        W25126   8.285  19.609   4.166
60307W        W25127  28.660   4.866   1.137
60308W        W25128  19.266  18.692   0.666
60309W        W25129  35.300   7.614   1.021
60310W        W25130  19.662   0.266  14.927
60311W        W25131  11.027  37.295   4.144
60312W        W25132  17.312   9.206  11.510
60313W        W25133  40.863   8.736   4.940
60314W        W25134  21.213  31.790   0.489
60315W        W25135  23.694  10.322   0.340
60316W        W25136  41.251  16.974   3.573
60317W        W25137  33.530  11.397   2.615
60318W        W25138  26.676  15.657  12.566
60319W        W25139  42.413  36.465   0.022
60320W        W25140  33.467  44.829   2.226
60321W        W25141  31.110  19.860   4.207
60322W        W25142  31.083   7.104   1.970
60323W        W25143  19.844   4.222   4.621
60324W        W25144  33.061   7.024  13.459
60325W        W25145  44.767   3.662  12.026
60326W        W25146  41.550  23.805   1.266
60327W        W25147  34.397  12.682   1.417
60328W        W25148   0.848   6.569   5.317
60329W        W25149  20.818   8.315  12.874
60330W        W25150  43.799  13.630  13.529
60331W        W25151  27.778  19.558   2.160
60332W        W25152   6.328  24.136   2.854
60333W        W25153   7.195  15.294   3.669
60334W        W25154   4.123  24.321   0.060
60335W        W25155  24.024  37.837   2.682
60336W        W25156  32.598  18.521  14.424
60337W        W25157   7.464  39.622   1.485
60338W        W25158  14.697  37.486  11.880
60339W        W25159  23.102  18.183  13.195
60340W        W25160  43.639  38.243  11.771
60341W        W25161  26.470   6.286  13.321
60342W        W25162   5.070  42.286  11.672
60343W        W25163  35.890  37.164   2.719
60344W        W25164   3.611  27.650   0.069
60345W        W25165  27.686  37.456   1.022
60346W        W25166   8.463   5.006  12.262
60347W        W25167  39.019  13.836   3.273
60348W        W25168  30.128  11.335   0.981
60349W        W25169   7.846  13.196   3.225
60350W        W25170  27.763   3.493  13.984
60351W        W25171  19.259  27.248  14.930
60352W        W25172   0.073  34.464   3.140
60353W        W25173  10.650  26.024   1.301
60354W        W25174  41.950  31.613  12.928
60355W        W25175  15.372  22.515  11.883
60356W        W25176  31.582  32.969   0.942
60357W        W25177   1.738   4.307   2.680
60358W        W25178  23.914   5.317  10.427
60359W        W25179   4.226  24.646   3.604
60360W        W25180   8.403  38.507  11.593
60361W        W25181  11.240  28.205  13.057
60362W        W25182  24.070   2.897  13.440
60363W        W25183  10.169  30.586  12.535
60364W        W25184  11.762  28.409   0.241
60365W        W25185   5.250  34.901  13.612
60366W        W25186  30.663  35.940   4.767
60367W        W25187  33.559  15.196  12.139
60368W        W25188  25.681   6.488  13.964
60369W        W25189   3.443  31.653   3.597
60370W        W25190  36.554  14.273   0.304
60371W        W25191  20.851  34.816  10.661
60372W        W25192  41.869   0.231  14.757
60373W        W25193   8.176  37.835  13.488
60374W        W25194  13.800   7.972   2.682
60375W        W25195  32.079  12.845  12.522
60376W        W25196  30.371  42.894   1.784
60377W        W25197  13.449  42.166  13.604
60378W        W25198  11.655   1.222  14.430
60379W        W25199  44.340  20.212  10.818
60380W        W25200   6.315  43.998  12.583
60381W        W25201  33.613   8.177   3.040
60382W        W25202  42.475  10.193   4.571
60383W        W25203   1.037  31.012  14.411
60384W        W25204  16.605   4.666  10.670
60385W        W25205  20.957  11.934  11.706
60386W        W25206  22.556  42.906   2.630
60387W        W25207   4.991  20.253  12.912
60388W        W25208   3.752   5.949   1.801
60389W        W25209  15.578  15.779   4.948
60390W        W25210   3.805   7.627  14.936
60391W        W25211   6.260  41.250   2.680
60392W        W25212  11.254   3.419   2.751
60393W        W25213  39.414   6.433   0.771
60394W        W25214   3.448   2.833   2.754
60395W        W25215  32.511  21.774   3.226
60396W        W25216  38.096  22.051  13.644
60397W        W25217   7.446  23.653  11.151
60398W        W25218   1.788  15.026  12.560
60399W        W25219  11.165  29.488  13.984
60400W        W25220   0.902  23.837  14.582
60401W        W25221  43.915  42.291  12.020
60402W        W25222  12.660  11.321   2.250
60403W        W25223  13.865   0.900  13.250
60404W        W25224  28.199  17.810   2.066
60405W        W25225  43.124  14.256   2.893
60406W        W25226  28.399   5.136   4.514
60407W        W25227  28.889  14.126  13.443
60408W        W25228  28.648  25.560  11.988
60409W        W25229   7.211  33.389  11.241
60410W        W25230  21.026   2.869  10.705
60411W        W25231  26.876  11.677   0.392
60412W        W25232  44.737  26.616   2.690
60413W        W25233  15.091  12.797   3.022
60414W        W25234  10.274  31.786  12.477
60415W        W25235  43.765   5.657  14.741
60416W        W25236  35.193  30.014   1.840
60417W        W25237  43.289  28.365  12.654
60418W        W25238  24.727  26.086   1.276
60419W        W25239  24.343   9.936  11.962
60420W        W25240  27.108  44.028   2.643
60421W        W25241  35.103  27.558   4.542
60422W        W25242   6.878  34.498   4.570
60423W        W25243   3.026  17.542   0.503
60424W        W25244  32.967  13.723   9.905
60425W        W25245  26.019  42.014   4.450
60426W        W25246  28.488  37.944  11.219
60427W        W25247  39.209  21.661  13.880
60428W        W25248  39.369   7.267  12.832
60429W        W25249   7.416  12.670   0.739
60430W        W25250   4.833  18.527  11.010
60431W        W25251   8.364  27.528  13.708
60432W        W25252  34.914  16.734  12.543
60433W        W25253  36.044   2.992   2.254
60434W        W25254  11.139  32.963  11.089
60435W        W25255  25.617  12.851  13.397
60436W        W25256  37.116  43.538   2.842
60437W        W25257   4.362   2.433  13.395
60438W        W25258  21.972   8.153   4.073
60439W        W25259  28.115  16.687   4.896
60440W        W25260  29.152  37.978   0.254
60441W        W25261  30.009  15.550  14.867
60442W        W25262   4.511   3.342   3.841
60443W        W25263  41.578  24.518   4.050
60444W        W25264  42.069  24.912   3.301
60445W        W25265  19.737  16.768   4.085
60446W        W25266  23.092  16.627  12.367
60447W        W25267  30.555  35.578   3.395
60448W        W25268  16.001  39.424   0.034
60449W        W25269  39.565   5.175  10.678
60450W        W25270  23.284  20.722   3.293
60451W        W25271  11.180   6.747  12.460
60452W        W25272  38.442   5.274  10.921
60453W        W25273  19.086   2.185   2.709
60454W        W25274  36.182  18.316  14.816
60455W        W25275  29.120   0.442   3.798
60456W        W25276  11.648  27.684  14.256
60457W        W25277  28.262   9.463   0.991
60458W        W25278  19.128  39.740   3.295
60459W        W25279   6.456  28.341  13.992
60460W        W25280  12.724  11.984  12.359
60461W        W25281  24.016  23.437   5.045
60462W        W25282  29.429   5.868   4.412
60463W        W25283   8.897  42.490  14.493
60464W        W25284  26.961  13.295  11.023
60465W        W25285  17.101  39.318  12.313
60466W        W25286  40.785  31.415  13.376
60467W        W25287   5.648  15.881   3.111
60468W        W25288  26.660   9.180  11.028
60469W        W25289  13.555  24.518  14.825
60470W        W25290   2.932  24.203  12.441
60471W        W25291   2.270  32.853  11.350
60472W        W25292  22.007  38.490  12.231
60473W        W25293  28.139  25.158  10.954
60474W        W25294   8.841  30.908  14.363
60475W        W25295   6.503  29.674   1.774
60476W        W25296  40.861  38.319   3.652
60477W        W25297   0.006  24.008   1.797
60478W        W25298   5.363  43.520  11.645
60479W        W25299  37.957  16.505  14.880
60480W        W25300  25.967   1.387   4.156
60481W        W25301  13.331  32.931  12.004
60482W        W25302   6.757   5.782  13.210
60483W        W25303  15.709   5.731  13.762
60484W        W25304  21.148  24.096  13.376
60485W        W25305  35.500   1.452   2.251
60486W        W25306  13.406   1.237   4.921
60487W        W25307  24.038  39.989  11.623
60488W        W25308   6.437  13.830  12.121
60489W        W25309  35.044  34.305   4.510
60490W        W25310   4.914  16.986  10.486
60491W        W25311  43.483  30.465  10.378
60492W        W25312  41.372   2.264  13.655
60493W        W25313  22.772  21.177  13.627
60494W        W25314  44.932   0.479  12.573
60495W        W25315  14.926  44.928  11.549
60496W        W25316   5.149  35.926  13.431
60497W        W25317  11.858  38.891   3.700
60498W        W25318  30.685  43.374  13.854
60499W        W25319   9.802  24.088  12.157
60500W        W25320  28.230  31.049   3.026
60501W        W25321  33.881   9.241   2.250
60502W        W25322   2.970   0.976  13.557
60503W        W25323   3.388  21.126   1.820
60504W        W25324  10.226  32.552   4.165
60505W        W25325  26.525   1.911  13.802
60506W        W25326  32.927  41.636  12.500
60507W        W25327  38.788  44.731   3.753
60508W        W25328  30.179  32.725   0.943
60509W        W25329   4.053  21.393   9.963
60510W        W25330  27.683  35.505  12.022
60511W        W25331  18.748   6.038   3.207
60512W        W25332   3.418  33.935  11.936
60513W        W25333  17.817  43.998   3.690
60514W        W25334  33.494  40.885   1.609
60515W        W25335  35.222  19.174   2.286
60516W        W25336  16.371  33.564  14.743
60517W        W25337  22.220  35.462   4.209
60518W        W25338  19.626  16.737   4.597
60519W        W25339  16.138  41.574  13.158
60520W        W25340   9.651  23.577   3.593
60521W        W25341  26.481  25.180   5.195
60522W        W25342  28.649  28.256  11.638
60523W        W25343  28.532  37.963   1.338
60524W        W25344  39.819  39.284  12.937
60525W        W25345  20.609   1.339   0.272
60526W        W25346  14.633   7.468   3.261
60527W        W25347  10.002  23.126   0.797
60528W        W25348  21.157   4.671  12.107
60529W        W25349   8.694   0.968  10.830
60530W        W25350  16.701  37.457   3.399
60531W        W25351   1.902  34.518   2.631
60532W        W25352  26.961  17.531   0.511
60533W        W25353   9.365  42.991   0.482
60534W        W25354  19.003   7.912   0.868
60535W        W25355   5.342   2.286  14.206
60536W        W25356   6.525  42.526   0.323
60537W        W25357  43.330  18.577  14.089
60538W        W25358  20.633  22.739  12.467
60539W        W25359  36.878  40.602   0.182
60540W        W25360  25.578  31.072  14.998
60541W        W25361  30.004  12.198   0.533
60542W        W25362  26.171   2.933  12.544
60543W        W25363  14.545  32.090  13.338
60544W        W25364   6.765   8.752  10.768
60545W        W25365  16.965  39.828  14.272
60546W        W25366  17.064   9.223  10.247
60547W        W25367   5.881  26.562  12.840
60548W        W25368   0.861  11.955  14.838
60549W        W25369  22.041  20.916  10.098
60550W        W25370  22.320   1.780   3.607
60551W        W25371   2.261  20.487   3.280
60552W        W25372  18.469  36.567   3.247
60553W        W25373  44.872  29.516   0.918
60554W        W25374   8.450  10.687  14.066
60555W        W25375  13.820   1.869   3.777
60556W        W25376  40.091  38.559   3.194
60557W        W25377   8.747  30.422   0.275
60558W        W25378  19.214  43.380  14.242
60559W        W25379  36.979  33.586  14.783
60560W        W25380  21.559  10.019  10.671
60561W        W25381  40.709  15.503   0.471
60562W        W25382  38.927  42.223   3.657
60563W        W25383  20.729   2.671   0.444
60564W        W25384  29.735  31.044   3.236
60565W        W25385  42.957   2.359   1.785
60566W        W25386   6.671  17.191  11.554
60567W        W25387  36.581  23.699   0.472
60568W        W25388  14.701   6.438  13.054
60569W        W25389  11.252   3.995  13.542
60570W        W25390  32.244  35.118  13.050
60571W        W25391  37.387  41.841  11.632
60572W        W25392  41.298  40.139  12.541
60573W        W25393  22.680  29.837  13.141
60574W        W25394  36.907  25.621  10.033
60575W        W25395   3.597  26.972   1.976
60576W        W25396  40.776  35.481  14.392
60577W        W25397  36.590  14.753  11.223
60578W        W25398  42.941  43.093   4.135
60579W        W25399  22.022   2.635  10.579
60580W        W25400   7.778   3.435  12.105
60581W        W25401  44.225  33.631   2.259
60582W        W25402  42.883  34.579  11.190
60583W        W25403  42.868  43.337   4.623
60584W        W25404  28.386   6.215   3.558
60585W        W25405  29.176  33.251  10.752
60586W        W25406  32.390  30.896  12.159
60587W        W25407  11.676  16.844   4.514
60588W        W25408  40.363  20.519   4.415
60589W        W25409  25.142  15.646   4.419
60590W        W25410  12.370  24.257   0.281
60591W        W25411  11.167  35.407  12.048
60592W        W25412  15.698  14.799   4.113
60593W        W25413  14.944  26.794   3.967
60594W        W25414  15.084  34.138   0.695
60595W        W25415  34.985  22.669   2.905
60596W        W25416   7.300  39.149   4.788
60597W        W25417  30.835  42.267  14.608
60598W        W25418  39.175  26.377  13.913
60599W        W25419  23.677  41.147  11.862
60600W        W25420  20.761  32.500   3.993
60601W        W25421  28.562  33.426   2.133
60602W        W25422  13.780  35.462  13.507
60603W        W25423  33.460  15.107  14.472
60604W        W25424  17.056  42.726  11.173
60605W        W25425   3.799   0.015   1.816
60606W        W25426  10.704   4.461  12.597
60607W        W25427  41.928  44.504   1.095
60608W        W25428   9.777   3.349   1.888
60609W        W25429   0.297  27.685   4.569
60610W        W25430  32.056  19.473  13.358
60611W        W25431   5.186  31.261  11.592
60612W        W25432  42.197   9.200  12.428
60613W        W25433  12.840  41.330   4.860
60614W        W25434  22.793  38.984   2.282
60615W        W25435   4.262  29.914   3.186
60616W        W25436  14.174  27.939  13.142
60617W        W25437  40.282  29.658  14.797
60618W        W25438  28.047  41.455   3.284
60619W        W25439   4.234  39.895  10.684
60620W        W25440  13.650   3.216  14.678
60621W        W25441   4.369  31.122   2.237
60622W        W25442   8.242  39.627  11.319
60623W        W25443  35.391   3.971   0.284
60624W        W25444  24.890  18.183   3.588
60625W        W25445  39.292  40.659  14.990
60626W        W25446  19.694  22.280   2.287
60627W        W25447  33.473  44.440   1.513
60628W        W25448  41.923  39.634   1.362
60629W        W25449  34.867  28.897  11.144
60630W        W25450  25.480  26.412  14.964
60631W        W25451  35.101  14.309   0.286
60632W        W25452  37.939  35.303   2.586
60633W        W25453  39.459   3.054  12.441
60634W        W25454  25.062  15.801   0.252
60635W        W25455  20.488  39.352   1.248
60636W        W25456  12.245  18.213   1.318
60637W        W25457  10.137  25.474  12.447
60638W        W25458  25.604  41.991  12.987
60639W        W25459  12.399  25.526   4.245
60640W        W25460  31.405   7.244   3.703
60641W        W25461  31.678  20.144  10.325
60642W        W25462  25.008  13.852   0.808
60643W        W25463  31.814  22.754   3.769
60644W        W25464  15.755   9.205   1.362
60645W        W25465  19.082  17.490  12.006
60646W        W25466   6.230  40.543  11.136
60647W        W25467  34.500   4.796  14.906
60648W        W25468  42.733  14.226  13.868
60649W        W25469  43.660  21.155   3.255
60650W        W25470  44.762  31.011   2.222
60651W        W25471  42.155   8.800   3.650
60652W        W25472  41.309  21.481  11.454
60653W        W25473  34.756  14.193   3.513
60654W        W25474  14.021  40.187  11.384
60655W        W25475  15.751  30.210   4.158
60656W        W25476  34.673  19.065   1.303
60657W        W25477  43.097   6.198  11.221
60658W        W25478   5.589  27.497  13.516
60659W        W25479  40.259  30.489  11.226
60660W        W25480   2.496  43.256  13.866
60661W        W25481  39.038  42.252   2.733
60662W        W25482   9.887  27.202  14.513
60663W        W25483  25.300  13.372   2.832
60664W        W25484  22.267  40.947   0.906
60665W        W25485  18.977  28.967   2.840
60666W        W25486   8.723  28.096   3.141
60667W        W25487  16.609  41.999  12.995
60668W        W25488   7.577  19.280  14.789
60669W        W25489  22.258  24.016  11.738
60670W        W25490  42.501   9.659   0.064
60671W        W25491   9.320  12.297   2.686
60672W        W25492  21.883   5.208  12.099
60673W        W25493  28.673  26.684   2.905
60674W        W25494  11.782  36.830   2.413
60675W        W25495   5.408  13.806   1.945
60676W        W25496   7.535  43.402   4.105
60677W        W25497  33.162  32.454  11.033
60678W        W25498  43.687  44.844  12.376
60679W        W25499  11.156  10.227   4.497
60680W        W25500  31.685   3.720   2.705
60681W        W25501  24.175   1.784   4.092
60682W        W25502  42.425   7.124  14.903
60683W        W25503  20.179  12.168   2.901
60684W        W25504  27.648  10.606  14.954
60685W        W25505  37.842  42.919   3.690
60686W        W25506  29.929   1.831   2.393
60687W        W25507  40.930  25.685   3.174
60688W        W25508  15.161  31.051  12.394
60689W        W25509  41.426  30.026  14.670
60690W        W25510  22.979   4.690   4.505
60691W        W25511  21.887  23.692  12.920
60692W        W25512  40.610  32.348   2.925
60693W        W25513  11.835  30.343  12.477
60694W        W25514  27.330  13.005   0.337
60695W        W25515  21.747  19.627  14.442
60696W        W25516  29.447  35.680  12.966
60697W        W25517  39.184  19.186  14.678
60698W        W25518  28.112   1.379   1.393
60699W        W25519   5.810  40.071   2.218
60700W        W25520  43.088  11.673   2.639
60701W        W25521  33.197  26.650  12.949
60702W        W25522  41.317   8.340  10.781
60703W        W25523  21.301  44.720   1.310
60704W        W25524  16.694  32.903  14.406
60705W        W25525  11.467  14.008   4.974
60706W        W25526  42.731   9.263  12.764
60707W        W25527  39.867  26.556   2.793
60708W        W25528  35.356  34.347  11.687
60709W        W25529  21.058   0.027  14.926
60710W        W25530   3.874  17.686   2.165
60711W        W25531   9.289  37.721   2.796
60712W        W25532  42.879   6.212   3.673
60713W        W25533   6.150  16.062  12.613
60714W        W25534   4.480  38.511  13.923
60715W        W25535   6.846  43.747   1.566
60716W        W25536  38.444  23.492  11.350
60717W        W25537  37.124  43.435  13.301
60718W        W25538  36.330   7.450  14.934
60719W        W25539  16.033  21.623   3.654
60720W        W25540  24.159  31.520  11.115
60721W        W25541  34.545  32.883  12.839
60722W        W25542  10.226  12.423  11.703
60723W        W25543  11.619  44.043  12.882
60724W        W25544  17.797  37.878  10.330
60725W        W25545   4.391   2.304   2.087
60726W        W25546  23.074  26.574  13.593
60727W        W25547  25.194  12.736  11.697
60728W        W25548   6.048  15.292   4.411
60729W        W25549   0.821  30.560  13.618
60730W        W25550  30.904  14.246  11.696
60731W        W25551  31.296  12.772  11.225
60732W        W25552  24.617  10.609  14.543
60733W        W25553  22.435  26.189   5.038
60734W        W25554  18.685  22.651  11.147
60735W        W25555  36.313  18.492   1.982
60736W        W25556  23.483   8.607  14.114
60737W        W25557   9.777  43.615  12.654
60738W        W25558  14.443  14.640   3.244
60739W        W25559  37.777  36.087  13.429
60740W        W25560  26.468   0.955  11.596
60741W        W25561  37.359   0.830   2.284
60742W        W25562   0.458   5.722   2.348
60743W        W25563   4.478  33.042   0.505
60744W        W25564  21.773  37.117   2.783
60745W        W25565  37.066   2.571  14.573
60746W        W25566  19.571  36.819  12.823
60747W        W25567  42.823  31.755  12.835
60748W        W25568   7.448  10.890  11.891
60749W        W25569   7.978  26.319  12.060
60750W        W25570  31.905   3.832  14.018
60751W        W25571  41.924   5.735   3.395
60752W        W25572  32.435  23.503  14.006
60753W        W25573  34.173  29.214  13.393
60754W        W25574  40.562  20.704  10.396
60755W        W25575  36.850  12.676   4.169
60756W        W25576  23.670  26.173  13.701
60757W        W25577   1.837  33.025   3.684
60758W        W25578  15.772   4.783  14.342
60759W        W25579  20.582  40.705  13.631
60760W        W25580  33.529   8.542   1.755
60761W        W25581  33.901  23.595  12.309
60762W        W25582  32.475  13.606   4.819
60763W        W25583   2.420  36.072   1.374
60764W        W25584  16.255  17.754  11.612
60765W        W25585  25.914  42.729   0.212
60766W        W25586   5.781  15.644   3.702
60767W        W25587  17.311  21.483  13.114
60768W        W25588  30.874  34.638   1.551
60769W        W25589  34.102  40.975   3.126
60770W        W25590  41.379   8.726   5.065
60771W        W25591  19.543  37.857   5.054
60772W        W25592  23.656  15.620  13.010
60773W        W25593   1.455  41.403   3.347
60774W        W25594  17.540  42.875  11.137
60775W        W25595  14.227   6.151  10.356
60776W        W25596   3.159  35.362   2.207
60777W        W25597   0.656  16.794   2.392
60778W        W25598  19.123  27.029   4.106
60779W        W25599  25.865  43.434  14.728
60780W        W25600   6.350  13.236   3.098
60781W        W25601   9.157  40.016  11.533
60782W        W25602  44.549  18.707   0.345
60783W        W25603   4.160  24.033  12.942
60784W        W25604  21.262  10.046  12.861
60785W        W25605  37.994  30.465  11.528
60786W        W25606  36.515  25.157  13.049
60787W        W25607  20.067  11.756   2.136
60788W        W25608  23.225  29.934   0.368
60789W        W25609  37.415   8.955  13.386
60790W        W25610  40.269  44.005   1.998
60791W        W25611   2.765  15.198  12.599
60792W        W25612  27.143  42.259   4.721
60793W        W25613   2.901  43.019  14.115
60794W        W25614  36.190  14.117   4.057
60795W        W25615  40.901  20.492   4.567
60796W        W25616  13.593  11.751   0.355
60797W        W25617  23.595   3.391   4.481
60798W        W25618   2.014   6.758   3.112
60799W        W25619  44.026  43.936   3.630
60800W        W25620  17.330  20.954  10.832
60801W        W25621  43.500   1.823  10.721
60802W        W25622   5.847  21.564  11.477
60803W        W25623  26.985   1.636  13.077
60804W        W25624   3.785  13.066   3.640
60805W        W25625  40.353  33.575   5.102
60806W        W25626   1.286  24.506   3.326
60807W        W25627  11.393  31.095  13.350
60808W        W25628  21.509  37.393  10.778
60809W        W25629  14.484   0.272  14.837
60810W        W25630  43.069  18.077   0.834
60811W        W25631  19.315  24.160   3.786
60812W        W25632   7.745  33.443   2.184
60813W        W25633  37.852   9.913   0.839
60814W        W25634  39.898  37.946   0.847
60815W        W25635  37.905  27.152  12.205
60816W        W25636  13.390  28.754  12.633
60817W        W25637  40.852   2.158   3.733
60818W        W25638  41.305  12.476   1.657
60819W        W25639  22.661   8.543  10.581
60820W        W25640  10.171  39.029   4.525
60821W        W25641  27.156  36.060   3.284
60822W        W25642   0.281  22.002  12.674
60823W        W25643  44.430  43.467   1.912
60824W        W25644  13.384  41.330   2.742
60825W        W25645  40.643  14.715  12.288
60826W        W25646  13.704  10.099   2.762
60827W        W25647  27.185  18.796   0.979
60828W        W25648   9.344  17.159  12.880
60829W        W25649  19.459   5.321   1.339
60830W        W25650  43.938   1.423  11.532
60831W        W25651  44.966  23.469  13.093
60832W        W25652  40.432  23.700  10.768
60833W        W25653   3.751  23.512  14.780
60834W        W25654  18.743  20.243  11.960
60835W        W25655  28.522  10.152   0.245
60836W        W25656   5.412  44.828   2.057
60837W        W25657   1.623  32.290   2.840
60838W        W25658  20.984   9.603  11.639
60839W        W25659   5.893  32.850   3.630
60840W        W25660  16.738  28.059  12.895
60841W        W25661  31.555   1.394  14.395
60842W        W25662  22.799  16.002   4.170
60843W        W25663  23.207  37.786   1.870
60844W        W25664  28.644  30.809   2.856
60845W        W25665  38.553  40.288  10.568
60846W        W25666   1.355  18.205   1.363
60847W        W25667   8.234  24.749   1.308
60848W        W25668   8.826  15.768  14.806
60849W        W25669  23.310   8.343   3.678
60850W        W25670  29.526   7.328  14.852
60851W        W25671   3.422  10.127   0.300
60852W        W25672  27.272  34.306   4.010
60853W        W25673  41.091  34.207  12.983
60854W        W25674  15.152  30.505   0.317
60855W        W25675  26.208  28.753  14.009
60856W        W25676  33.434   5.628   3.090
60857W        W25677  36.635  21.406  11.241
60858W        W25678   8.664  35.177   4.702
60859W        W25679   7.856  37.045  12.941
60860W        W25680  41.768  16.122  11.946
60861W        W25681   5.272   6.890   0.042
60862W        W25682  33.325  15.088   0.855
60863W        W25683  33.270   6.788  12.645
60864W        W25684  14.311  24.333   1.856
60865W        W25685  12.762  31.355  14.809
60866W        W25686  40.278  19.965  11.978
60867W        W25687   4.892  42.896  10.517
60868W        W25688  27.000  11.063   4.283
60869W        W25689  14.512  28.471  13.308
60870W        W25690  40.894  18.773   0.769
60871W        W25691  35.077  41.522  14.121
60872W        W25692  20.765  29.189  11.993
60873W        W25693  44.975  30.205  12.322
60874W        W25694  22.963  21.208   1.838
60875W        W25695   3.842  37.075  11.441
60876W        W25696  33.522  12.857  12.444
60877W        W25697  38.980  12.416  13.652
60878W        W25698  35.377   9.645   1.965
60879W        W25699   3.242  33.645  10.593
60880W        W25700  32.502  22.627  12.439
60881W        W25701  14.565  27.659   2.975
60882W        W25702  35.475  17.238   0.047
60883W        W25703  26.992  40.435   4.260
60884W        W25704   0.494  11.210  13.789
60885W        W25705   6.099   5.238   4.715
60886W        W25706  18.064  35.098  11.991
60887W        W25707  30.467   4.244  10.686
60888W        W25708  22.096   6.643   2.310
60889W        W25709   6.293  39.352   3.044
60890W        W25710  39.599  20.187   0.714
60891W        W25711  30.933   7.434  14.789
60892W        W25712  39.292  24.064   1.259
60893W        W25713  40.099  23.433  13.468
60894W        W25714  12.314  29.018   2.430
60895W        W25715  17.854  31.893  12.598
60896W        W25716  10.554  29.235  10.962
60897W        W25717   4.315  32.576  12.500
60898W        W25718  36.886  17.218   2.832
60899W        W25719  22.492  25.825   3.651
60900W        W25720   8.692  29.399   1.258
60901W        W25721  31.423  35.809   0.046
60902W        W25722  39.575  37.917   1.246
60903W        W25723  35.658  19.648  12.556
60904W        W25724  14.805  29.367   0.930
60905W        W25725   0.332  19.937  14.398
60906W        W25726  10.177   9.687   4.709
60907W        W25727  42.713   2.465   1.336
60908W        W25728  31.016  43.363   1.155
60909W        W25729  37.813  10.434   0.824
60910W        W25730   2.081  30.919  11.003
60911W        W25731  40.301  38.036  13.564
60912W        W25732   0.706  15.820   0.840
60913W        W25733  21.073   9.349   2.233
60914W        W25734  33.501  42.524  11.347
60915W        W25735   2.640   8.662  10.417
60916W        W25736  24.674  26.846   2.841
60917W        W25737  13.201  23.288  11.937
60918W        W25738   5.891  22.262   1.386
60919W        W25739  42.822  27.361   1.062
60920W        W25740  26.170  11.107   0.716
60921W        W25741   6.389   1.542  14.344
60922W        W25742   3.852  30.420   5.060
60923W        W25743  14.367  14.331   1.280
60924W        W25744  19.662  33.901  12.902
60925W        W25745   2.347  17.654   2.780
60926W        W25746   4.953  33.456  10.528
60927W        W25747  16.533   5.177  11.556
60928W        W25748  23.066  12.857  12.858
60929W        W25749  21.072   2.702  13.572
60930W        W25750   8.081   4.966  14.076
60931W        W25751   1.761  30.604   2.490
60932W        W25752  38.306  15.218  13.416
60933W        W25753   7.252  15.052   0.672
60934W        W25754  44.518  13.227  11.768
60935W        W25755  32.382  34.917   2.268
60936W        W25756  25.074  34.861  12.278
60937W        W25757   0.972   1.561  14.358
60938W        W25758   0.239   9.215   3.693
60939W        W25759   5.382  18.508  11.723
60940W        W25760  32.798  20.228  14.081
60941W        W25761  42.814  39.065   0.001
60942W        W25762  30.203  35.350   0.350
60943W        W25763  29.977  19.031  14.573
60944W        W25764  31.895   5.309  11.581
60945W        W25765  17.653  44.283   2.324
60946W        W25766   7.019  37.536   3.225
60947W        W25767  33.134  44.313  10.439
60948W        W25768  17.974   8.203   3.050
60949W        W25769   4.258  21.711  13.550
60950W        W25770  41.931  12.182   3.815
60951W        W25771  12.537  43.925   1.315
60952W        W25772  25.133  28.457  12.640
60953W        W25773  44.137  22.155  10.798
60954W        W25774  34.821  31.966   1.234
60955W        W25775  37.325   3.226   3.217
60956W        W25776  17.262   3.941   2.759
60957W        W25777   6.945  33.027  11.482
60958W        W25778   0.570  21.579   3.193
60959W        W25779  11.900   7.212  10.759
60960W        W25780   2.345  13.766  13.873
60961W        W25781  12.264  23.210   3.680
60962W        W25782  41.075  35.112   4.653
60963W        W25783   9.883  43.814   2.721
60964W        W25784  22.085  38.797  13.851
60965W        W25785  17.239  25.669   1.948
60966W        W25786   8.097   9.279  11.692
60967W        W25787  19.249  18.853  12.136
60968W        W25788  21.555  21.640   2.279
60969W        W25789   4.906  40.409  14.445
60970W        W25790   0.374   0.434   4.472
60971W        W25791  35.354  18.369  12.791
60972W        W25792   1.324  24.105  14.712
60973W        W25793  36.542  36.180   3.715
60974W        W25794  12.801   6.329   4.558
60975W        W25795   1.397   9.838   0.788
60976W        W25796  34.361   4.817   0.773
60977W        W25797   5.335  14.309  13.361
60978W        W25798  33.085  24.235   0.553
60979W        W25799   5.410  35.462  14.771
60980W        W25800  43.928  44.880  11.586
60981W        W25801  16.278  13.277   2.126
60982W        W25802  17.291  44.747  11.117
60983W        W25803  44.920  13.063  12.028
60984W        W25804  37.424   0.736  14.312
60985W        W25805  13.118  40.460   0.380
60986W        W25806  37.490  31.549   1.044
60987W        W25807  38.888   5.935  13.826
60988W        W25808  10.125  44.868  11.350
60989W        W25809   0.235  14.206  12.954
60990W        W25810  39.506  18.865  12.464
60991W        W25811  11.636   6.726  10.406
60992W        W25812  33.494   0.912   3.769
60993W        W25813  35.686  27.401  14.948
60994W        W25814  17.249  33.821   2.348
60995W        W25815  29.239  38.786  11.631
60996W        W25816  30.648  33.410   2.303
60997W        W25817  13.419   3.442   0.468
60998W        W25818  32.510   7.461  14.011
60999W        W25819  13.069   9.836  12.919
61000W        W25820  14.857   9.360   2.292
61001W        W25821  31.565  38.590  11.106
61002W        W25822  22.639   7.701   1.630
61003W        W25823  26.330   6.322   2.716
61004W        W25824  25.051  20.688  13.307
61005W        W25825   2.925  12.072   3.455
61006W        W25826  30.521   8.710  12.856
61007W        W25827  12.590  21.977  13.909
61008W        W25828   5.817  11.327  12.897
61009W        W25829  36.477  21.589  10.488
61010W        W25830  13.786  25.536   2.326
61011W        W25831   4.941  17.808   4.508
61012W        W25832   6.881   2.785   4.317
61013W        W25833  25.523  17.167   2.735
61014W        W25834   5.304   7.796  13.962
61015W        W25835  21.747   5.762  11.135
61016W        W25836   4.165  42.436  11.528
61017W        W25837  34.659  11.704   3.257
61018W        W25838  44.272  22.520  11.953
61019W        W25839  29.354  20.125   1.819
61020W        W25840  12.811   1.921   0.519
61021W        W25841  32.573   4.777   4.184
61022W        W25842  32.880  39.385   3.794
61023W        W25843   3.046  28.110  14.280
61024W        W25844   4.829  30.848   2.146
61025W        W25845  31.604  25.120   1.819
61026W        W25846  11.219   6.268   3.558
61027W        W25847   0.575  12.246  13.204
61028W        W25848  40.462  37.022  10.708
61029W        W25849  15.099  22.829  13.329
61030W        W25850  32.423  22.509   1.539
61031W        W25851  10.070  37.762  12.373
61032W        W25852  22.445  35.197   1.834
61033W        W25853   9.652  16.693   3.499
61034W        W25854  11.495  18.684  11.548
61035W        W25855  18.600  36.977   3.541
61036W        W25856  12.646  44.807   2.179
61037W        W25857  24.328  20.889   2.453
61038W        W25858  19.806  12.955   1.595
61039W        W25859  44.133  33.092   2.228
61040W        W25860   6.801  32.594   1.236
61041W        W25861  33.508  38.359   3.484
61042W        W25862  17.058  33.256   5.258
61043W        W25863   6.355  31.021   0.683
61044W        W25864  31.235  35.322   5.222
61045W        W25865  13.745  20.153  12.954
61046W        W25866   9.626  35.974   0.840
61047W        W25867  43.724  24.155  11.435
61048W        W25868   7.256  28.690   3.362
61049W        W25869  29.095   9.684  14.834
61050W        W25870  33.864   4.613  11.089
61051W        W25871  22.618  10.256  12.964
61052W        W25872   9.785  31.011  11.918
61053W        W25873  13.876  40.389   0.569
61054W        W25874  24.949  29.657  14.058
61055W        W25875  40.440  40.362   4.643
61056W        W25876  35.246   7.400  13.283
61057W        W25877  28.241   1.425   1.915
61058W        W25878  17.073  26.482  11.234
61059W        W25879   7.810  20.721  14.818
61060W        W25880  10.593  28.434   1.291
61061W        W25881  25.721  21.614   1.746
61062W        W25882  35.005  19.249  14.529
61063W        W25883  28.146  12.873  12.829
61064W        W25884  11.693  18.007  14.406
61065W        W25885  30.416  31.444  13.857
61066W        W25886  37.811   7.188   1.417
61067W        W25887  39.300  17.773   0.485
61068W        W25888   1.742  44.833  13.334
61069W        W25889  21.685  40.355  12.602
61070W        W25890  14.279  43.568   4.613
61071W        W25891  22.087  36.439   1.754
61072W        W25892  27.105  22.773  10.936
61073W        W25893  12.122   8.028  12.421
61074W        W25894  37.771  10.801  14.498
61075W        W25895  12.932  40.808  10.750
61076W        W25896  44.425  37.862   4.136
61077W        W25897  20.256  26.298   2.855
61078W        W25898  38.873  15.717  11.373
61079W        W25899  12.088   4.519   2.800
61080W        W25900  33.533  26.868   4.051
61081W        W25901  34.449   8.537   1.760
61082W        W25902   0.122  39.039   3.920
61083W        W25903  24.008  31.039   4.170
61084W        W25904  40.785  13.573   1.269
61085W        W25905  30.568  41.201   3.401
61086W        W25906  23.894  20.842  13.566
61087W        W25907  11.588  19.516  13.198
61088W        W25908  13.780  26.922  12.469
61089W        W25909   3.788  11.282  10.753
61090W        W25910  13.206  14.382   0.804
61091W        W25911   0.392  31.598  11.292
61092W        W25912  17.456  28.906  10.675
61093W        W25913  13.823  44.251  11.185
61094W        W25914  24.762   1.752  11.500
61095W        W25915  22.584  26.984   2.359
61096W        W25916  15.518  41.834   3.184
61097W        W25917  26.579  23.120   3.238
61098W        W25918   7.432  14.101  13.339
61099W        W25919  16.796  33.336  11.046
61100W        W25920  34.513  33.194   0.417
61101W        W25921  18.196   0.061  14.425
61102W        W25922  38.812  17.078  10.649
61103W        W25923  30.853  24.414  12.259
61104W        W25924   5.172   9.226   1.443
61105W        W25925   3.360   0.998  13.177
61106W        W25926   1.269   0.093  11.622
61107W        W25927  13.725   6.291  14.823
61108W        W25928   6.797  24.088   0.855
61109W        W25929   4.842  32.838  14.504
61110W        W25930  10.946  36.820  12.467
61111W        W25931  17.730  21.947   0.736
61112W        W25932   2.714  28.455  14.506
61113W        W25933   6.542  39.243  12.761
61114W        W25934  20.813  25.501   4.353
61115W        W25935  27.982   7.874  13.399
61116W        W25936  37.996  37.439  12.012
61117W        W25937  27.339  28.409   4.776
61118W        W25938   3.590  11.779  11.570
61119W        W25939  27.886   5.306   1.922
61120W        W25940  31.613  19.049  12.151
61121W        W25941  29.551  16.738  10.470
61122W        W25942  44.528   4.696  10.192
61123W        W25943   2.810  17.148  10.782
61124W        W25944  13.293  41.952   1.236
61125W        W25945   5.154   3.292   1.461
61126W        W25946   9.146  15.826   1.311
61127W        W25947  12.651  36.295   1.412
61128W        W25948  29.331  22.142  14.836
61129W        W25949   3.843  11.362   1.269
61130W        W25950  38.851   8.892   2.282
61131W        W25951   1.746   3.051  12.519
61132W        W25952   4.339  41.928   3.301
61133W        W25953  40.838   0.814  10.540
61134W        W25954  33.511  41.429   3.757
61135W        W25955  25.800  42.541  14.732
61136W        W25956  30.982  22.693  14.350
61137W        W25957   4.399   1.375  13.434
61138W        W25958  20.532  37.542  13.450
61139W        W25959  11.803  37.574  11.051
61140W        W25960  17.694  44.437   0.218
61141W        W25961  30.577  40.362   1.427
61142W        W25962   1.729  12.801  10.708
61143W        W25963   4.921  25.642  13.067
61144W        W25964  30.884   9.631   4.637
61145W        W25965  19.076  31.481  10.565
61146W        W25966  37.176  16.440  11.075
61147W        W25967   8.251   4.226  12.979
61148W        W25968  44.691  32.041  14.549
61149W        W25969  10.413  40.007   3.827
61150W        W25970  17.891   3.309   4.970
61151W        W25971  21.093   8.230   3.615
61152W        W25972  41.358   2.238   2.327
61153W        W25973  21.511   0.444  13.003
61154W        W25974  43.019  43.463   3.211
61155W        W25975   7.509  28.537   4.151
61156W        W25976   6.772   6.998  12.143
61157W        W25977  29.909  27.471   1.660
61158W        W25978   1.050  36.782   4.193
61159W        W25979   4.712  33.019   1.785
61160W        W25980  39.038  31.405  11.180
61161W        W25981  18.554  30.598  13.391
61162W        W25982   8.208  11.163  14.896
61163W        W25983  42.880   9.953  13.841
61164W        W25984   2.805  13.838  12.981
61165W        W25985  44.886  24.599  11.738
61166W        W25986   5.949  23.099  10.747
61167W        W25987  33.901   1.292   4.170
61168W        W25988  35.994  11.817  14.976
61169W        W25989  29.054  39.875   3.180
61170W        W25990  32.133  20.847   1.924
61171W        W25991  41.052  33.555  10.780
61172W        W25992  18.790  35.106   1.385
61173W        W25993   9.312  44.816  10.753
61174W        W25994  26.685  13.220   2.690
61175W        W25995  29.713  12.704   4.141
61176W        W25996   0.829  30.502   4.578
61177W        W25997  36.685  29.868  12.454
61178W        W25998  38.073  15.340   0.401
61179W        W25999  17.405  29.043   2.721
61180W        W26000   4.576  17.134   5.009
61181W        W26001  23.753  19.124  13.884
61182W        W26002   2.319  33.043   0.053
61183W        W26003  30.103  42.407   0.754
61184W        W26004  32.046  30.320   0.377
61185W        W26005  15.438  28.036  13.558
61186W        W26006  12.837   7.342   3.899
61187W        W26007  30.661   2.019  11.855
61188W        W26008  24.003  17.598   2.902
61189W        W26009  34.627  14.560  12.435
61190W        W26010   7.186   0.925  12.778
61191W        W26011  14.001  36.174   3.804
61192W        W26012   7.734  14.150   0.466
61193W        W26013  27.186  16.127  14.758
61194W        W26014   5.706   4.296  10.668
61195W        W26015  23.718  39.788  12.952
61196W        W26016  43.751  27.452   3.483
61197W        W26017   1.846  11.356  14.072
61198W        W26018   9.181  30.982   3.737
61199W        W26019  27.771   8.314   2.757
61200W        W26020  43.315  36.962   3.642
61201W        W26021   3.289  41.179  14.990
61202W        W26022  37.787  42.950   1.321
61203W        W26023  16.863  22.061   3.629
61204W        W26024  44.998  14.235   4.604
61205W        W26025  11.545  26.736  14.932
61206W        W26026  28.991   8.777  12.049
61207W        W26027  21.412  16.364  11.422
61208W        W26028   7.217  39.055  10.812
61209W        W26029  10.394  24.642  11.635
61210W        W26030  32.158   7.068   1.348
61211W        W26031  23.123   3.127   4.653
61212W        W26032  14.575   3.130   2.783
61213W        W26033  43.955  19.937  11.127
61214W        W26034  16.037  44.921   4.858
61215W        W26035  12.656  29.662  12.501
61216W        W26036  37.860  27.474   4.838
61217W        W26037   6.764   4.327   0.937
61218W        W26038   6.317  40.445  14.240
61219W        W26039  40.912  11.746  12.379
61220W        W26040   5.154  16.167  14.826
61221W        W26041  38.527   6.676  12.958
61222W        W26042  13.463   1.386   4.398
61223W        W26043   3.223  39.373  12.268
61224W        W26044  31.447   3.999  13.234
61225W        W26045   1.130  16.428  13.880
61226W        W26046  24.418  21.553   3.189
61227W        W26047  15.373  19.360  11.709
61228W        W26048  42.825  23.188  11.658
61229W        W26049  25.626   2.995   4.764
61230W        W26050  11.701  40.838   3.651
61231W        W26051  11.669  10.126   4.438
61232W        W26052   6.738   8.761  13.045
61233W        W26053  26.112  36.540  13.218
61234W        W26054  43.754   5.413  11.066
61235W        W26055  32.016  27.385  12.160
61236W        W26056   3.661  15.181  12.106
61237W        W26057  24.592  37.547  11.373
61238W        W26058  34.596  18.644   3.251
61239W        W26059  11.859  35.296  13.021
61240W        W26060  35.385  30.960   4.830
61241W        W26061  39.920  44.723  13.365
61242W        W26062  32.860  13.946  12.637
61243W        W26063  13.936  31.513   0.872
61244W        W26064  19.152  19.202  13.541
61245W        W26065   4.903   4.434  11.694
61246W        W26066  44.593  15.538   2.309
61247W        W26067   5.279  19.389   4.017
61248W        W26068  25.613  31.553  13.362
61249W        W26069  42.535  26.420  11.173
61250W        W26070   8.973  22.532   2.289
61251W        W26071  35.483  37.851  11.544
61252W        W26072  11.733   0.497  14.908
61253W        W26073  35.590  18.277  11.979
61254W        W26074  39.955  22.560  12.146
61255W        W26075   5.485  30.380   3.584
61256W        W26076   0.758  38.447  13.979
61257W        W26077  41.117  24.567  12.493
61258W        W26078  36.179  36.307   1.744
61259W        W26079   4.317   4.549  14.410
61260W        W26080   0.751  20.194   0.795
61261W        W26081  43.918  13.717   0.270
61262W        W26082   7.467  10.775  14.260
61263W        W26083  34.856  41.459  12.044
61264W        W26084  34.953  28.541   0.944
61265W        W26085  26.966   0.307  14.308
61266W        W26086  26.416  13.715   3.674
61267W        W26087  29.496  15.836  10.659
61268W        W26088  40.380  13.325   0.071
61269W        W26089  15.093   8.305   2.099
61270W        W26090   1.247  35.971   1.774
61271W        W26091  43.977  16.556   3.784
61272W        W26092   1.311  13.282  11.191
61273W        W26093  12.147  40.874   2.705
61274W        W26094  21.103  41.959  11.271
61275W        W26095   0.945   5.415  14.366
61276W        W26096  13.199  42.443   0.177
61277W        W26097   9.677  31.904  11.886
61278W        W26098  37.034   2.479  13.396
61279W        W26099  34.390   0.387  11.166
61280W        W26100  36.062  24.084   3.293
61281W        W26101  44.899  26.471  14.259
61282W        W26102  34.927  17.404  13.888
61283W        W26103   4.717   9.965   1.694
61284W        W26104   3.745   9.826   3.600
61285W        W26105  35.839   9.562   0.427
61286W        W26106  12.299  27.958  13.104
61287W        W26107  30.050  25.198   4.093
61288W        W26108  23.242  37.123   9.732
61289W        W26109  14.701  39.334  14.955
61290W        W26110  24.190   7.965  10.292
61291W        W26111  31.119  30.840   5.033
61292W        W26112   6.152  25.290   3.138
61293W        W26113  11.264  31.922   2.832
61294W        W26114  13.656  12.572   3.173
61295W        W26115  15.674   1.069   0.204
61296W        W26116  16.022   5.176   4.153
61297W        W26117  13.076  41.738   1.660
61298W        W26118  43.609  35.418   4.535
61299W        W26119  12.702  24.406   3.592
61300W        W26120  41.900  17.572  13.012
61301W        W26121  17.009  17.142  13.349
61302W        W26122  32.469   0.010  14.195
61303W        W26123  36.924   6.859   4.536
61304W        W26124   8.955  14.536   2.662
61305W        W26125  33.032   6.241  11.243
61306W        W26126  37.751  35.948   1.766
61307W        W26127  11.096  44.338   0.068
61308W        W26128  36.798   8.702   0.941
61309W        W26129  42.137  29.479   5.169
61310W        W26130   5.304  14.986   3.858
61311W        W26131  27.915   3.832  10.787
61312W        W26132  26.636   9.236   1.582
61313W        W26133   2.499  10.684  13.061
61314W        W26134   3.715  32.535  14.520
61315W        W26135  42.494  36.641   4.834
61316W        W26136  35.505  43.761  13.092
61317W        W26137  26.558  16.310  12.994
61318W        W26138  16.660  40.552  12.447
61319W        W26139  19.876  33.448   2.759
61320W        W26140  27.197   8.004  11.851
61321W        W26141   3.873  18.563   2.691
61322W        W26142  18.196  13.570  13.368
61323W        W26143  33.364  35.048  10.962
61324W        W26144  38.349  16.741   0.212
61325W        W26145  37.155   8.222   4.970
61326W        W26146  20.101   6.747  12.296
61327W        W26147  43.113  15.259   1.756
61328W        W26148  12.045  19.091   3.728
61329W        W26149   1.787  14.776   0.285
61330W        W26150  40.081  13.618   4.132
61331W        W26151   8.365  31.941  11.866
61332W        W26152  28.050  15.826   2.983
61333W        W26153  35.632  11.749   1.880
61334W        W26154  27.033  28.666  12.481
61335W        W26155  20.331   6.255   1.327
61336W        W26156  44.763  31.988   3.631
61337W        W26157  28.120  25.139  10.447
61338W        W26158  23.661  16.809  11.656
61339W        W26159   5.463  21.150   3.739
61340W        W26160  25.443  14.563   2.081
61341W        W26161  18.652  28.242   3.581
61342W        W26162  15.562  26.164   0.692
61343W        W26163  14.635  10.318  10.691
61344W        W26164  38.596   5.510   4.367
61345W        W26165  30.256  18.235  10.731
61346W        W26166  20.117  12.760  12.640
61347W        W26167  36.666  44.874   0.387
61348W        W26168   2.246  36.223  14.759
61349W        W26169  11.053  13.884   4.043
61350W        W26170  21.525  23.061  12.969
61351W        W26171  37.790   0.457  10.907
61352W        W26172  18.050  17.321  13.401
61353W        W26173  29.972   0.977   3.849
61354W        W26174  33.553   2.545  14.022
61355W        W26175  14.296   9.755   3.620
61356W        W26176  14.187  38.365   2.240
61357W        W26177  31.990   7.686  13.933
61358W        W26178  33.549  18.535  12.410
61359W        W26179  26.451  19.608  12.403
61360W        W26180   1.335  38.032   4.586
61361W        W26181  29.192  41.910  13.404
61362W        W26182  11.797   2.947  14.008
61363W        W26183  23.715  11.166   2.192
61364W        W26184  27.506  24.309  14.528
61365W        W26185  11.671  20.649   4.647
61366W        W26186  15.715  43.602  14.980
61367W        W26187  18.915  41.331   2.222
61368W        W26188  17.543  17.529  11.263
61369W        W26189  32.295  37.620   0.967
61370W        W26190  41.918  28.526  13.308
61371W        W26191  41.922  14.861   0.263
61372W        W26192  26.484  11.314   1.885
61373W        W26193  29.461  31.733  10.744
61374W        W26194  40.298  21.622  14.697
61375W        W26195  41.804  38.103   2.354
61376W        W26196  24.105  17.669   4.461
61377W        W26197  27.733  43.461   1.451
61378W        W26198   0.361  11.315   4.875
61379W        W26199   3.409  33.305  12.906
61380W        W26200  18.295  15.255  14.935
61381W        W26201   4.840   0.762   2.206
61382W        W26202   0.364  15.402  12.449
61383W        W26203  13.339  32.173   0.268
61384W        W26204  14.125  18.206  11.933
61385W        W26205  29.925  14.176  14.214
61386W        W26206  16.628  14.698  12.626
61387W        W26207   1.778  36.074  11.171
61388W        W26208  43.384  35.038   3.247
61389W        W26209  43.949  12.636  10.786
61390W        W26210  12.579  11.885   1.232
61391W        W26211  14.002  42.665  14.974
61392W        W26212  27.076  35.408  13.359
61393W        W26213  10.209  14.212  13.852
61394W        W26214  27.932  24.734   3.616
61395W        W26215  11.273  42.297  11.166
61396W        W26216  27.927  22.195   1.306
61397W        W26217  16.628   8.388   0.481
61398W        W26218  14.729  16.125   0.892
61399W        W26219  30.235   6.001  12.595
61400W        W26220   0.523  19.266  11.792
61401W        W26221  40.401  38.957  14.460
61402W        W26222  21.661  26.992  11.133
61403W        W26223  10.164  32.364  11.384
61404W        W26224  21.622  39.746  11.250
61405W        W26225  44.960  10.902   4.273
61406W        W26226  18.910  26.399  10.452
61407W        W26227  10.907  16.563   3.270
61408W        W26228  30.136  26.049  13.275
61409W        W26229  40.112   2.727  12.168
61410W        W26230  34.874  34.806  12.088
61411W        W26231  16.279  26.351   4.530
61412W        W26232  20.773  30.469   3.348
61413W        W26233  36.813  10.236  14.943
61414W        W26234  29.017  18.650   1.938
61415W        W26235   0.055  44.035  12.958
61416W        W26236   5.137  28.540   1.400
61417W        W26237  41.265  44.942  10.582
61418W        W26238  19.512  23.007  13.120
61419W        W26239  27.893  35.563   3.141
61420W        W26240  12.256  37.272   3.264
61421W        W26241  32.267  20.708  14.901
61422W        W26242  28.193  25.717   1.489
61423W        W26243  35.088  37.097  13.982
61424W        W26244  34.725  32.916   1.942
61425W        W26245  14.021  26.539  12.907
61426W        W26246  41.526   8.131  14.800
61427W        W26247  19.977  43.543   1.955
61428W        W26248  18.740  15.755   3.581
61429W        W26249  35.154  24.067  12.942
61430W        W26250  34.344  15.030  10.296
61431W        W26251   1.977  31.587   2.389
61432W        W26252  41.029  29.189  12.543
61433W        W26253  15.262  26.560  13.850
61434W        W26254   0.024  37.478   0.929
61435W        W26255  17.512  44.990   0.842
61436W        W26256  21.289  10.767   3.614
61437W        W26257  11.372   3.889   1.196
61438W        W26258  33.649   7.817  13.409
61439W        W26259  30.638  44.572   4.201
61440W        W26260  29.400  37.927  13.410
61441W        W26261  21.552  11.928   4.155
61442W        W26262  10.796   8.200  14.396
61443W        W26263  11.607  34.847  10.938
61444W        W26264   2.404  24.033   4.207
61445W        W26265  33.665  28.391  14.561
61446W        W26266  38.123  20.673  12.451
61447W        W26267   3.031  27.410   0.810
61448W        W26268   6.196  40.922  14.466
61449W        W26269   3.273  32.103  12.224
61450W        W26270  11.261  22.115   1.235
61451W        W26271  17.760  37.553   2.630
61452W        W26272  20.717   8.639   2.720
61453W        W26273  35.292  23.748  13.429
61454W        W26274   9.125  42.829   0.916
61455W        W26275  26.219  31.701   2.155
61456W        W26276  42.768  40.011  12.885
61457W        W26277  25.057  35.456  13.396
61458W        W26278  40.171  21.551   1.082
61459W        W26279  43.562  34.015   3.855
61460W        W26280   1.426  26.735   0.192
61461W        W26281   0.480  39.848   4.926
61462W        W26282  18.397  26.740   2.711
61463W        W26283   3.939  24.309  13.893
61464W        W26284   9.742  10.796  14.766
61465W        W26285  38.511  21.339  11.139
61466W        W26286   0.496  41.095   4.183
61467W        W26287   9.284  34.178  11.978
61468W        W26288   2.356   8.615   1.771
61469W        W26289  27.527   5.161   4.605
61470W        W26290  37.948   6.482   3.229
61471W        W26291  13.124  15.746  14.362
61472W        W26292  11.614  33.983  10.892
61473W        W26293   1.250   3.417  10.834
61474W        W26294  11.256  40.584  11.802
61475W        W26295  10.169  10.825  12.230
61476W        W26296  44.899  12.873  12.502
61477W        W26297  31.012  38.069   4.605
61478W        W26298   7.193  21.772   1.355
61479W        W26299  44.894  40.310  14.425
61480W        W26300  14.775  41.031  13.615
61481W        W26301  36.564   4.443  13.098
61482W        W26302  30.093  10.544  12.931
61483W        W26303  16.197  13.515  14.041
61484W        W26304  15.591  15.020  14.359
61485W        W26305   9.665  21.128   0.320
61486W        W26306  21.050  10.473   5.014
61487W        W26307  36.891  35.664  11.252
61488W        W26308  19.992  30.529  12.516
61489W        W26309  31.413  26.754  11.111
61490W        W26310  41.303  38.977  13.397
61491W        W26311   0.352  17.499   4.163
61492W        W26312   4.882  10.798   4.603
61493W        W26313  17.944  33.055   2.779
61494W        W26314  41.993   0.814  14.526
61495W        W26315  31.427  18.552  11.148
61496W        W26316  13.640  22.704  10.524
61497W        W26317   5.848  30.180  14.148
61498W        W26318  42.685   3.925  11.114
61499W        W26319  25.771  42.084  11.117
61500W        W26320   3.266  29.976  10.431
61501W        W26321  43.481  13.364   3.593
61502W        W26322   2.958  27.702  10.291
61503W        W26323  14.486  43.404  12.960
61504W        W26324   2.321  42.889  11.111
61505W        W26325  27.203  42.515   4.150
61506W        W26326  12.208  13.423   4.220
61507W        W26327   2.557  32.467   2.603
61508W        W26328   7.138  10.350  13.464
61509W        W26329  23.751  44.618  12.556
61510W        W26330   1.368  30.206   3.325
61511W        W26331  23.504  34.050  12.426
61512W        W26332  14.024   8.798   2.601
61513W        W26333  17.479  39.493   2.728
61514W        W26334  34.087  10.815   0.233
61515W        W26335  17.538   0.912   1.762
61516W        W26336  16.640  34.372   2.692
61517W        W26337  16.546   7.308   1.290
61518W        W26338   3.327  25.892  14.343
61519W        W26339  27.963  33.377   0.664
61520W        W26340  19.008  22.244   4.531
61521W        W26341  17.590  38.916   4.933
61522W        W26342  21.623  26.423   2.841
61523W        W26343  31.883   8.757  11.023
61524W        W26344  27.262  30.967  14.381
61525W        W26345  22.310   4.421   0.001
61526W        W26346  17.728  27.170   3.987
61527W        W26347  13.190  14.953   0.827
61528W        W26348  23.444  43.862  10.385
61529W        W26349  44.482   3.402  12.749
61530W        W26350   5.650  13.353   1.878
61531W        W26351  20.050  25.521   4.209
61532W        W26352   7.417   7.787  14.426
61533W        W26353  43.209   0.186   0.888
61534W        W26354   0.361   3.094  11.373
61535W        W26355  32.576   0.917   2.792
61536W        W26356   5.264  34.995   4.725
61537W        W26357   4.951  42.086  13.336
61538W        W26358  29.392  11.916  10.696
61539W        W26359  11.804   8.734  12.068
61540W        W26360   3.030  21.258  14.968
61541W        W26361  30.018  33.351  13.068
61542W        W26362  33.080   4.463  13.528
61543W        W26363  16.482   5.824  10.793
61544W        W26364  28.692  33.951  14.086
61545W        W26365   0.446  21.192  11.250
61546W        W26366   4.311  39.297  11.535
61547W        W26367  41.400  23.646   4.254
61548W        W26368  42.208  17.444  14.578
61549W        W26369  15.711  33.373  10.571
61550W        W26370   7.915  19.130   2.939
61551W        W26371  43.460   6.689   1.198
61552W        W26372  24.717   2.479   2.236
61553W        W26373  12.884  41.397   2.659
61554W        W26374  10.964  24.640  10.940
61555W        W26375  42.364  32.765  14.959
61556W        W26376   3.328  31.648  13.366
61557W        W26377  18.601  32.403   3.696
61558W        W26378  22.255  24.517  11.614
61559W        W26379  41.542  43.584  14.091
61560W        W26380  37.448  41.496   3.711
61561W        W26381  27.989   5.663  13.489
61562W        W26382   5.980  21.378  12.644
61563W        W26383  38.592  42.364   2.236
61564W        W26384  23.093  25.650  13.260
61565W        W26385   6.090   2.475   1.784
61566W        W26386  42.409  15.034   3.067
61567W        W26387  20.249  27.565  11.037
61568W        W26388   0.039  14.038   3.689
61569W        W26389  13.570  22.919   3.752
61570W        W26390  31.442  11.638  13.573
61571W        W26391  12.657  29.405  13.977
61572W        W26392  31.904  29.649   2.373
61573W        W26393   4.765  32.575   3.067
61574W        W26394  34.860   2.546   1.624
61575W        W26395   1.419   8.584   1.705
61576W        W26396  31.644  35.980   3.726
61577W        W26397  36.407  36.537   3.186
61578W        W26398  41.177  27.787   1.875
61579W        W26399   4.545   6.057  13.392
61580W        W26400   5.694  19.353  13.007
61581W        W26401  40.268  25.667  10.771
61582W        W26402  38.693  13.726  10.686
61583W        W26403  22.766  15.361   1.324
61584W        W26404  34.343   8.691  13.981
61585W        W26405  21.145   8.591  11.557
61586W        W26406  11.055  22.959   0.704
61587W        W26407  24.029   7.181   3.864
61588W        W26408  13.156   5.763   0.428
61589W        W26409  32.535  12.351   1.484
61590W        W26410  11.018  24.691   3.245
61591W        W26411  15.449  38.529   4.369
61592W        W26412  30.032  22.752  11.033
61593W        W26413  20.247   3.536   2.492
61594W        W26414  37.998  22.416  14.771
61595W        W26415  21.629   2.394  13.635
61596W        W26416  18.277   2.285   2.269
61597W        W26417   9.854  26.215   4.538
61598W        W26418  23.780  16.528  12.060
61599W        W26419   0.488  26.672   1.296
61600W        W26420   4.621   7.285  12.072
61601W        W26421   0.916  34.909  14.041
61602W        W26422   9.154   8.674  11.554
61603W        W26423   6.307  17.219  10.696
61604W        W26424   1.934  28.970  12.484
61605W        W26425  31.470  41.094   2.711
61606W        W26426  18.175  27.053  14.868
61607W        W26427  38.450   8.817   9.858
61608W        W26428  38.221   1.854  10.573
61609W        W26429  23.830   9.918  11.942
61610W        W26430  17.806  23.248   3.545
61611W        W26431  22.195  36.401   2.794
61612W        W26432   0.626  28.571   2.104
61613W        W26433  17.030  21.063  13.284
61614W        W26434  12.646  40.956   2.713
61615W        W26435  30.611   8.862  11.957
61616W        W26436  38.861  29.968   1.501
61617W        W26437  11.484  41.392  12.916
61618W        W26438   2.720  40.029   1.030
61619W        W26439   3.804  10.291  14.987
61620W        W26440   7.458  27.646  14.445
61621W        W26441   1.787   0.234  12.452
61622W        W26442  27.167  42.395  12.205
61623W        W26443  14.602  27.647   2.291
61624W        W26444  14.167  35.494  10.919
61625W        W26445   5.810  39.310  12.153
61626W        W26446  39.392  38.886   2.204
61627W        W26447  39.130   5.388   4.248
61628W        W26448  36.897  10.299  13.038
61629W        W26449  38.959   2.699  13.832
61630W        W26450  14.678  44.859   3.134
61631W        W26451  19.475  25.343  10.130
61632W        W26452   8.785  40.047  13.004
61633W        W26453  38.581  34.854   0.313
61634W        W26454   4.472  17.194  12.308
61635W        W26455  35.637  31.623  12.007
61636W        W26456  27.241  20.623   2.246
61637W        W26457   6.374  38.601   1.424
61638W        W26458  42.437  23.612   4.807
61639W        W26459   4.889   8.830   3.236
61640W        W26460   5.215  13.248   4.758
61641W        W26461  17.200  24.113  11.561
61642W        W26462  10.144  27.596  11.546
61643W        W26463  32.061  33.570   0.493
61644W        W26464   5.458  17.764   3.322
61645W        W26465  19.239  31.335   2.118
61646W        W26466   1.205  38.923   4.296
61647W        W26467   5.209   5.712  12.857
61648W        W26468   2.933  15.192   4.715
61649W        W26469  13.581  44.494   2.398
61650W        W26470  15.328  27.921   3.252
61651W        W26471  18.206  29.359   3.573
61652W        W26472  22.660   2.210   0.385
61653W        W26473  42.859  31.674   2.672
61654W        W26474  32.121  37.484  13.140
61655W        W26475  22.735  15.812  14.054
61656W        W26476   8.879   0.048  10.942
61657W        W26477   4.255  44.860  11.434
61658W        W26478  13.106  43.185  11.303
61659W        W26479  20.464  40.257   0.819
61660W        W26480  38.252   8.622   3.701
61661W        W26481  22.696  36.915  10.821
61662W        W26482  15.888  33.858  11.421
61663W        W26483   6.443  30.719   5.052
61664W        W26484   9.858  32.451   1.773
61665W        W26485  22.080  26.327  10.444
61666W        W26486  37.045  27.451  10.696
61667W        W26487  24.693  13.616  12.538
61668W        W26488   6.586   4.962   3.762
61669W        W26489   8.687  43.770   0.768
61670W        W26490   1.688  38.786  14.294
61671W        W26491   4.490   6.560   4.618
61672W        W26492  18.559  44.198  11.617
61673W        W26493  31.794  33.240   3.171
61674W        W26494  44.982  18.581   3.741
61675W        W26495   7.386  41.820   2.995
61676W        W26496   7.854  17.608  13.116
61677W        W26497  14.227  43.815   2.446
61678W        W26498  20.326  35.888   4.536
61679W        W26499   9.154  29.528   0.424
61680W        W26500  30.648  42.021  13.355
61681W        W26501   9.168  41.828   4.020
61682W        W26502  13.783  43.218   4.745
61683W        W26503  34.033  13.569  14.808
61684W        W26504   7.811  36.176   1.731
61685W        W26505  11.980  33.389   1.868
61686W        W26506  24.200  29.483   0.744
61687W        W26507   3.514  16.980  11.462
61688W        W26508   4.719  25.939   4.080
61689W        W26509  16.765  29.031   1.845
61690W        W26510  27.148   8.374  10.613
61691W        W26511  28.864  42.099   0.915
61692W        W26512  27.234  10.966   2.406
61693W        W26513  39.785   9.574  14.833
61694W        W26514  25.020  35.544   9.905
61695W        W26515   8.179  33.864   4.755
61696W        W26516  37.063   0.431   4.208
61697W        W26517  27.625  28.381   0.839
61698W        W26518   2.846  40.124   1.539
61699W        W26519  22.126  33.617   1.478
61700W        W26520  28.500   8.668  10.514
61701W        W26521  33.829  15.072  13.462
61702W        W26522  39.116   6.279  14.526
61703W        W26523  27.532  24.461   0.175
61704W        W26524  32.029  23.569   0.983
61705W        W26525  12.602  28.340   1.340
61706W        W26526  12.229   0.201  13.692
61707W        W26527  36.960   0.327   0.306
61708W        W26528   5.827  39.811  14.223
61709W        W26529  14.276  10.572   2.321
61710W        W26530  39.016  13.822  13.361
61711W        W26531  12.074  31.592  12.084
61712W        W26532  31.006  33.125  11.632
61713W        W26533   2.766  36.800  10.537
61714W        W26534  31.630   8.760  10.562
61715W        W26535  10.503  11.737  11.154
61716W        W26536  36.549   8.714   4.295
61717W        W26537  17.235  30.416   0.083
61718W        W26538  16.800  27.046   1.623
61719W        W26539  34.726   0.721  13.243
61720W        W26540  11.595  11.794   1.354
61721W        W26541  41.000  24.560   2.182
61722W        W26542  12.218  44.844  10.753
61723W        W26543  22.759  16.138   0.069
61724W        W26544   1.247  15.623   2.890
61725W        W26545  42.763  11.918   2.279
61726W        W26546   6.135  35.069  14.243
61727W        W26547  23.894  43.329   0.789
61728W        W26548  42.789  18.064  13.623
61729W        W26549  16.147  43.792  11.670
61730W        W26550  39.050  37.641   4.933
61731W        W26551  32.281  27.951   1.719
61732W        W26552  10.236  28.782  13.381
61733W        W26553  32.171  24.659  13.405
61734W        W26554  11.594  35.866   2.552
61735W        W26555   8.815  14.266  13.537
61736W        W26556  40.063   9.685  11.221
61737W        W26557   5.311  35.349   1.757
61738W        W26558  23.833  32.165   2.144
61739W        W26559  18.529  26.450  14.316
61740W        W26560  17.852  35.292  13.591
61741W        W26561   0.851  27.420  14.418
61742W        W26562  17.946  38.574   2.841
61743W        W26563  12.832  12.191  12.976
61744W        W26564  18.571  41.859  11.830
61745W        W26565  29.237   6.426  11.167
61746W        W26566  37.298  37.473   0.887
61747W        W26567  23.696  32.600   1.874
61748W        W26568  36.624  12.113  14.871
61749W        W26569  38.849  25.360   5.004
61750W        W26570  14.107  13.808  10.633
61751W        W26571   1.781  37.575  14.710
61752W        W26572  42.781  28.028   4.628
61753W        W26573  37.904  19.557   1.413
61754W        W26574  27.132  19.227   0.685
61755W        W26575  12.172   5.655   0.929
61756W        W26576  35.891  34.252   0.808
61757W        W26577  38.864  39.852  10.457
61758W        W26578  39.111  18.560   1.149
61759W        W26579  13.694  19.631  12.819
61760W        W26580  34.034  27.514   4.652
61761W        W26581  12.778  16.280   0.800
61762W        W26582   4.941  17.021  11.397
61763W        W26583  13.879   8.437  13.624
61764W        W26584  39.718  31.612   3.743
61765W        W26585  11.317  23.942   2.944
61766W        W26586   4.867  14.385   1.266
61767W        W26587  12.927  28.712  12.883
61768W        W26588  39.570  43.892  13.577
61769W        W26589  27.670  33.354  11.209
61770W        W26590   7.794  12.590   1.284
61771W        W26591   9.722  15.394   2.194
61772W        W26592  38.852  18.253  14.905
61773W        W26593  27.676  13.371  11.517
61774W        W26594  28.477  43.640   4.223
61775W        W26595   8.673   0.927   0.773
61776W        W26596   1.801  10.646   3.319
61777W        W26597  39.495  13.859   4.182
61778W        W26598  20.218   7.702  14.476
61779W        W26599   2.614   1.836   2.374
61780W        W26600  34.893  24.515  13.598
61781W        W26601  20.604  25.185  14.969
61782W        W26602   9.981  33.667   4.256
61783W        W26603   9.301  19.034   1.762
61784W        W26604  27.174  36.825  12.429
61785W        W26605   8.697  19.634   3.394
61786W        W26606  28.132  27.609   0.352
61787W        W26607  25.859  13.554   2.212
61788W        W26608  43.797  31.174   4.065
61789W        W26609  34.019   7.458   1.454
61790W        W26610   5.988  18.534   0.475
61791W        W26611  29.529  13.301  10.575
61792W        W26612   1.724   8.227  11.376
61793W        W26613  41.285  41.183   3.203
61794W        W26614   7.156   9.799   2.474
61795W        W26615  44.908   6.307   4.323
61796W        W26616  31.347   0.780   3.723
61797W        W26617  42.298  18.913  14.868
61798W        W26618  15.604   6.668   1.343
61799W        W26619  21.549  30.401   2.330
61800W        W26620  35.001  32.461   1.240
61801W        W26621  38.020  29.054   0.442
61802W        W26622  19.149  12.852  14.651
61803W        W26623  26.744  12.814   1.855
61804W        W26624  33.859  28.519   4.563
61805W        W26625  36.511  13.831   2.287
61806W        W26626  26.261  32.605  10.755
61807W        W26627  41.689  13.669   3.757
61808W        W26628  34.632  34.936  12.543
61809W        W26629   3.293  20.147   3.973
61810W        W26630  38.731  30.973   0.377
61811W        W26631  36.506   4.563  13.941
61812W        W26632   6.726  35.804  12.410
61813W        W26633  11.764   0.994  11.131
61814W        W26634  28.304  19.760   0.433
61815W        W26635   2.005  37.922  11.136
61816W        W26636   8.886  42.945  14.225
61817W        W26637   0.408  20.355  11.260
61818W        W26638  11.597   2.531  12.006
61819W        W26639  23.826   1.303   0.981
61820W        W26640  28.180  25.290  13.932
61821W        W26641  11.172  32.630   4.170
61822W        W26642  22.235  40.139   4.771
61823W        W26643  30.184  29.601   4.169
61824W        W26644  22.061  23.606  11.487
61825W        W26645  13.614  27.496  11.258
61826W        W26646  21.822  14.551  12.553
61827W        W26647  23.070  41.222  12.666
61828W        W26648  39.097  12.422   2.289
61829W        W26649  38.098  43.774   1.864
61830W        W26650  20.923  28.551  11.234
61831W        W26651  16.559  32.078   2.259
61832W        W26652  40.798  42.434  13.561
61833W        W26653  39.283  15.980   2.118
61834W        W26654  24.199   2.693   4.201
61835W        W26655  28.433  29.616   2.326
61836W        W26656  43.319   0.157  14.355
61837W        W26657   8.794  42.302   4.523
61838W        W26658  16.630  43.344   4.592
61839W        W26659   7.203  11.338  12.005
61840W        W26660  25.078  28.004   0.233
61841W        W26661  11.219   9.023   2.395
61842W        W26662   0.085  27.972  13.078
61843W        W26663  11.811  16.212   3.702
61844W        W26664  18.552   8.070   4.474
61845W        W26665  32.033  29.615  10.724
61846W        W26666  27.738  20.095   4.635
61847W        W26667  35.342  36.163   4.292
61848W        W26668  25.939  38.333   2.875
61849W        W26669  30.665  22.555   1.757
61850W        W26670  14.059  33.088  14.023
61851W        W26671  18.078  31.529  10.328
61852W        W26672   9.917  41.882  13.832
61853W        W26673  43.471  25.420  13.819
61854W        W26674  13.640   2.972   0.490
61855W        W26675  35.152  38.457   3.765
61856W        W26676  20.821  27.106   0.851
61857W        W26677   0.115  21.596   2.453
61858W        W26678  31.602  33.828   0.548
61859W        W26679   5.290  25.153   0.485
61860W        W26680  21.671  18.603   4.716
61861W        W26681  18.019  10.288   2.612
61862W        W26682  39.086  44.910   2.800
61863W        W26683   0.717  29.742   5.049
61864W        W26684  20.422  17.388   0.714
61865W        W26685  32.615  27.081  10.746
61866W        W26686  17.590   0.531  13.217
61867W        W26687  15.206   9.904  12.984
61868W        W26688  43.362  42.941  12.663
61869W        W26689  24.650   8.742   5.160
61870W        W26690  22.714   6.227   0.582
61871W        W26691   9.727  13.144  12.089
61872W        W26692  25.036  34.870  14.453
61873W        W26693   8.748  34.023   3.389
61874W        W26694   2.789  34.193  12.690
61875W        W26695  18.329  16.854  10.619
61876W        W26696  31.256  20.758  11.514
61877W        W26697  36.015  11.715  14.142
61878W        W26698  34.540  35.411   1.428
61879W        W26699  32.604  38.436   2.957
61880W        W26700   6.887  14.104   0.502
61881W        W26701  22.587  41.059  11.022
61882W        W26702   9.898  37.854   0.793
61883W        W26703  10.361  38.334  12.192
61884W        W26704   2.925   3.291  13.583
61885W        W26705  44.933  35.282  12.656
61886W        W26706  38.142  15.532   1.302
61887W        W26707  14.781  32.719   2.539
61888W        W26708  29.505   7.142   4.339
61889W        W26709   5.746  39.328   0.011
61890W        W26710  13.758  30.049  13.613
61891W        W26711   2.363  44.441   4.009
61892W        W26712  36.530  28.361  10.987
61893W        W26713  19.402  31.280   9.997
61894W        W26714  30.825  20.799   3.094
61895W        W26715  32.434  22.046  13.048
61896W        W26716  35.085   3.421   4.980
61897W        W26717  12.735  27.406   2.823
61898W        W26718  32.477  38.626  11.700
61899W        W26719   9.814  15.456  13.068
61900W        W26720  24.514  37.338   1.410
61901W        W26721  21.612  25.566   3.255
61902W        W26722  24.429   1.465   0.240
61903W        W26723  23.580   2.897   4.263
61904W        W26724  38.730  22.055  13.088
61905W        W26725  35.375  19.782   3.057
61906W        W26726  16.044  22.789  13.436
61907W        W26727   3.700  40.841  10.656
61908W        W26728  27.726  29.721  14.735
61909W        W26729   2.866  23.314  14.239
61910W        W26730  36.923   7.748   4.968
61911W        W26731  44.838  30.452   4.311
61912W        W26732  30.071   3.665   3.644
61913W        W26733   7.508  40.454   3.355
61914W        W26734  20.262  25.884  10.789
61915W        W26735   4.869   9.847   0.309
61916W        W26736  19.606  35.148  11.723
61917W        W26737  17.727   8.979   3.689
61918W        W26738  31.167   0.733  13.511
61919W        W26739  37.068  17.755   4.522
61920W        W26740  44.097  28.097   2.171
61921W        W26741  36.941  21.619  12.434
61922W        W26742  15.767  40.576  11.179
61923W        W26743  16.870  38.078  14.569
61924W        W26744   4.240  36.086  10.717
61925W        W26745   3.973  20.898  14.554
61926W        W26746  39.466   0.930  14.320
61927W        W26747   7.902  26.508  13.797
61928W        W26748  18.095  38.251   4.906
61929W        W26749  40.617  16.136  13.374
61930W        W26750  13.933  33.399  14.814
61931W        W26751  21.186  30.604  13.796
61932W        W26752  12.000  13.911   4.150
61933W        W26753  40.497  10.770   4.790
61934W        W26754  12.098  13.456  12.212
61935W        W26755  30.755  33.028   3.265
61936W        W26756   1.435  28.658   0.513
61937W        W26757   6.703  31.499   4.633
61938W        W26758  27.606  38.904  13.956
61939W        W26759  32.564   0.168  12.073
61940W        W26760  28.528  10.467  14.737
61941W        W26761  12.090  30.096   0.814
61942W        W26762  10.132  32.134  12.095
61943W        W26763   8.273   2.477   4.575
61944W        W26764   5.190  42.405  14.165
61945W        W26765   1.804   0.687   3.752
61946W        W26766  20.568  18.776   1.979
61947W        W26767  18.616  12.676  13.538
61948W        W26768  34.621  38.243   1.851
61949W        W26769  13.217  33.512   0.615
61950W        W26770  17.257  41.001   4.342
61951W        W26771  34.984  15.142  11.072
61952W        W26772  34.539  43.373   1.386
61953W        W26773  36.917  29.154  11.254
61954W        W26774   7.762  35.562  12.413
61955W        W26775  40.728  42.100  13.129
61956W        W26776  25.994  19.764  14.447
61957W        W26777  29.070  12.381  10.751
61958W        W26778  23.230  38.482   0.452
61959W        W26779  40.048   0.261   2.664
61960W        W26780  15.761  39.395   1.383
61961W        W26781   1.682   3.333  12.945
61962W        W26782  42.595  23.730  10.613
61963W        W26783  16.155   6.516   2.845
61964W        W26784  43.836  18.169  12.082
61965W        W26785  30.422   5.218   1.699
61966W        W26786  18.109   7.896   0.253
61967W        W26787  37.035  32.634  11.057
61968W        W26788  15.589   2.911   0.692
61969W        W26789  13.789   2.963  12.191
61970W        W26790   2.485   0.235   2.715
61971W        W26791  38.352  35.561   2.799
61972W        W26792  38.571  20.204  13.994
61973W        W26793  14.051   3.309   3.209
61974W        W26794   2.586   2.728  12.273
61975W        W26795  13.204  27.641  13.423
61976W        W26796  10.467   5.895  11.116
61977W        W26797  30.626  42.687  14.354
61978W        W26798   3.970  44.887  13.847
61979W        W26799  17.195  41.248  14.441
61980W        W26800  12.280  10.682   1.588
61981W        W26801  27.691  43.841  12.808
61982W        W26802  39.442  42.213   3.388
61983W        W26803  17.792  14.699   4.052
61984W        W26804  17.672  36.403   3.663
61985W        W26805  24.261   6.778  14.235
61986W        W26806  25.007   7.872  12.931
61987W        W26807  31.369  18.324  11.633
61988W        W26808  34.632  18.639  11.467
61989W        W26809  30.316  24.508  11.227
61990W        W26810  20.679  11.631   3.630
61991W        W26811  11.411   0.903   3.678
61992W        W26812  39.914  27.643   2.667
61993W        W26813  19.158  42.828   1.499
61994W        W26814  22.144  36.815  13.944
61995W        W26815   6.367  23.578   3.688
61996W        W26816  44.143   5.877   4.477
61997W        W26817   3.835  23.935  11.177
61998W        W26818   5.686  10.461  14.555
61999W        W26819  44.831  18.258  14.313
62000W        W26820   0.481  13.336   0.745
62001W        W26821  43.229  41.380   1.220
62002W        W26822  31.114  40.409   3.110
62003W        W26823  27.567   0.359   2.008
62004W        W26824  14.860  35.944  10.264
62005W        W26825  26.601  33.892   1.889
62006W        W26826  12.642  17.273  11.869
62007W        W26827  29.153   6.357   2.772
62008W        W26828  11.749  14.865   0.451
62009W        W26829  26.961   5.715  14.303
62010W        W26830  15.673  37.603  14.880
62011W        W26831  17.493   9.526  11.115
62012W        W26832  34.067  33.012  12.644
62013W        W26833  38.561   5.210  13.309
62014W        W26834  11.810  31.601  11.650
62015W        W26835   3.366  12.589   1.940
62016W        W26836  35.380   6.901   0.558
62017W        W26837  37.823  40.039   2.167
62018W        W26838  28.548   3.424   1.450
62019W        W26839   1.508  19.624   2.594
62020W        W26840  44.519  27.164   4.589
62021W        W26841  11.269  38.443  12.532
62022W        W26842  35.397  25.726  12.790
62023W        W26843   8.142  37.410   1.404
62024W        W26844  20.182  37.585   2.092
62025W        W26845  29.534  33.416  11.559
62026W        W26846   9.369   2.808  10.995
62027W        W26847  15.455  39.609   2.746
62028W        W26848   6.328   1.291  13.073
62029W        W26849   6.966  19.964   4.222
62030W        W26850   1.368   3.960   1.182
62031W        W26851  40.228  28.580  12.446
62032W        W26852  16.577   6.720   3.759
62033W        W26853  41.947  39.056  14.450
62034W        W26854  42.690  43.937  10.634
62035W        W26855   0.856   2.675   0.986
62036W        W26856  19.629  28.849   4.757
62037W        W26857   7.448   0.030  11.506
62038W        W26858  34.058  14.372  13.016
62039W        W26859   8.873  15.248  14.570
62040W        W26860  31.652  21.495   2.143
62041W        W26861   6.528  24.159   5.309
62042W        W26862  22.054  26.565   4.994
62043W        W26863  24.576  20.947   2.911
62044W        W26864  39.274  29.072  13.797
62045W        W26865   3.126   1.941   2.463
62046W        W26866   0.719  43.762   2.339
62047W        W26867  18.992  27.260   3.648
62048W        W26868  34.575  13.593  14.523
62049W        W26869  44.952  30.703  12.492
62050W        W26870  44.423   3.857  14.334
62051W        W26871  33.128  12.828   2.719
62052W        W26872   7.331   4.231   3.701
62053W        W26873  27.615  19.753  12.743
62054W        W26874  30.111  43.138   2.778
62055W        W26875  30.352  41.560  14.159
62056W        W26876  18.267  29.116   4.015
62057W        W26877   4.248  13.944   2.871
62058W        W26878  43.370  23.684  13.001
62059W        W26879  14.912   0.778   2.263
62060W        W26880  21.664  33.342   2.724
62061W        W26881  35.667   6.206   0.437
62062W        W26882  36.991   6.656  10.852
62063W        W26883  39.332  31.526  14.604
62064W        W26884  21.479  28.861  12.538
62065W        W26885  43.832  38.120   0.326
62066W        W26886  14.798  31.955   2.749
62067W        W26887  27.454  19.392   0.289
62068W        W26888  43.471  31.390   1.342
62069W        W26889  34.903  10.228   2.389
62070W        W26890  19.587  13.542   4.656
62071W        W26891  15.285  31.462   1.301
62072W        W26892   1.092  36.095  11.928
62073W        W26893  32.364  44.416   2.675
62074W        W26894   1.783  14.072   0.859
62075W        W26895  36.912  35.137   1.755
62076W        W26896  32.264  43.972  13.475
62077W        W26897  37.610   9.301   3.647
62078W        W26898  35.673  20.031  14.353
62079W        W26899  38.210  13.733   0.443
62080W        W26900   5.628  14.230  13.805
62081W        W26901  43.362  18.482   0.958
62082W        W26902   5.703  25.417   0.364
62083W        W26903  39.358   3.665   0.863
62084W        W26904  26.258   8.663   2.273
62085W        W26905  42.046  34.145  12.936
62086W        W26906  32.947   5.380  10.700
62087W        W26907  13.726  15.586   2.689
62088W        W26908  27.127   1.609  10.296
62089W        W26909  30.055   9.137   3.755
62090W        W26910  12.508   6.934  13.490
62091W        W26911  11.949  29.563  13.356
62092W        W26912   7.771  37.071  13.916
62093W        W26913  40.673   3.308   4.491
62094W        W26914  15.885   6.822   3.205
62095W        W26915  28.943  26.657   1.904
62096W        W26916   2.839  31.028   0.091
62097W        W26917  33.208  41.814  13.468
62098W        W26918  14.792  16.518  11.546
62099W        W26919  18.191  29.577   0.362
62100W        W26920  24.991  12.325  12.386
62101W        W26921  34.849  25.761   2.323
62102W        W26922  44.649  21.778  14.037
62103W        W26923   8.777  30.053  12.458
62104W        W26924  21.641   6.942  11.241
62105W        W26925  21.870  29.438   2.799
62106W        W26926  12.891  34.715  12.144
62107W        W26927  23.113  23.193   2.199
62108W        W26928  28.363  19.223  12.499
62109W        W26929  32.728  26.618   3.915
62110W        W26930  13.247  24.509  10.632
62111W        W26931   5.825   6.189   4.323
62112W        W26932  36.047  34.973   0.266
62113W        W26933  38.601  38.101  12.355
62114W        W26934   7.882  15.789   4.610
62115W        W26935  35.832  24.109  10.951
62116W        W26936  25.300   6.343  13.124
62117W        W26937  37.397  37.036  12.017
62118W        W26938  14.766   3.895   2.399
62119W        W26939  28.181  13.758  10.559
62120W        W26940  41.029  32.561   3.632
62121W        W26941  33.890  37.588  12.457
62122W        W26942  30.487   0.337  11.651
62123W        W26943  31.918  35.058  12.636
62124W        W26944  39.612  32.119  13.411
62125W        W26945  24.616  26.384  12.009
62126W        W26946   2.261  40.371  13.948
62127W        W26947  13.125   1.407  12.947
62128W        W26948  39.094  17.722  13.224
62129W        W26949   2.173  18.600  13.514
62130W        W26950  15.198  43.926   4.024
62131W        W26951   4.159  11.074   0.957
62132W        W26952   5.710  22.175  12.032
62133W        W26953   0.213  16.186  14.058
62134W        W26954  27.124  33.437   2.953
62135W        W26955   2.243   0.780  14.302
62136W        W26956   6.376  17.291  13.562
62137W        W26957  27.963  22.174   0.334
62138W        W26958  19.650  18.070  11.923
62139W        W26959  36.486  16.309   3.066
62140W        W26960  43.815  28.708   2.837
62141W        W26961   5.452  28.083   4.178
62142W        W26962  37.384  10.397  12.085
62143W        W26963   1.920  31.646   3.282
62144W        W26964  30.819  22.590  13.371
62145W        W26965  19.000  43.920  12.540
62146W        W26966  19.745  44.444   1.031
62147W        W26967  42.414  33.493   2.416
62148W        W26968  36.943  16.978   3.279
62149W        W26969  34.608  19.561  13.916
62150W        W26970  13.652  40.381  11.777
62151W        W26971   7.693   2.007  14.502
62152W        W26972  26.245  15.216  11.083
62153W        W26973   8.088  26.162   5.022
62154W        W26974   4.848  19.676   4.042
62155W        W26975  37.829   1.948   0.371
62156W        W26976  37.313  15.602  14.380
62157W        W26977   9.777  11.778   3.235
62158W        W26978  44.975  30.446   4.823
62159W        W26979  12.328  40.005   1.433
62160W        W26980   4.297  41.952   1.356
62161W        W26981  28.954  13.145  13.315
62162W        W26982  15.357   0.364   3.605
62163W        W26983  40.322  41.352  11.425
62164W        W26984  10.313   2.267  14.784
62165W        W26985  34.652  31.452  11.718
62166W        W26986  38.753  19.170   0.564
62167W        W26987  42.865  38.049   0.293
62168W        W26988  40.950  11.334   2.683
62169W        W26989  15.780  28.691  12.249
62170W        W26990   3.700  16.496   0.062
62171W        W26991  19.199   8.851  14.736
62172W        W26992  11.306  34.596   2.170
62173W        W26993   4.302  28.088   2.387
62174W        W26994  11.882  24.910  10.516
62175W        W26995  40.416  15.728  13.654
62176W        W26996  44.818  19.339  13.779
62177W        W26997  38.921  14.368  13.399
62178W        W26998  32.362  25.784   2.146
62179W        W26999  10.413  34.453   0.955
62180W        W27000  20.056  18.788  12.958
62181W        W27001  22.792  41.831  14.673
62182W        W27002  38.923   9.177   0.957
62183W        W27003  36.520  14.381   3.206
62184W        W27004   7.412  22.128   4.377
62185W        W27005   6.874   6.243   3.097
62186W        W27006  18.321  28.724  14.270
62187W        W27007  13.680  39.310   0.692
62188W        W27008   0.778  43.874  12.107
62189W        W27009  43.845   8.888  13.033
62190W        W27010  15.045  29.044  13.765
62191W        W27011  27.878  11.578  13.707
62192W        W27012  28.054  30.031   0.875
62193W        W27013  40.481   5.978  12.299
62194W        W27014  26.355   4.988  11.463
62195W        W27015   7.498  29.180   0.290
62196W        W27016  17.983   4.685  14.331
62197W        W27017   1.423  36.839   4.558
62198W        W27018  35.608   5.356  14.504
62199W        W27019  31.231  36.737   1.407
62200W        W27020  41.075   5.839   4.390
62201W        W27021  23.125  21.234   4.169
62202W        W27022  34.099  21.784  11.975
62203W        W27023  25.251  41.375   0.484
62204W        W27024  12.026  28.067  14.940
62205W        W27025  26.979  42.952  13.381
62206W        W27026   2.695  18.768  12.487
62207W        W27027  23.055  20.161  14.421
62208W        W27028  25.438   3.877   4.512
62209W        W27029  25.544   7.694   1.798
62210W        W27030  17.835  11.892   1.923
62211W        W27031  18.523   3.869   2.248
62212W        W27032  16.550   6.354  11.902
62213W        W27033  21.804   3.419   5.175
62214W        W27034  38.050  28.142   3.884
62215W        W27035  20.134  39.287   2.742
62216W        W27036  27.135  18.020   2.765
62217W        W27037  30.122  14.827   0.991
62218W        W27038   6.317  30.260   4.253
62219W        W27039  14.156  17.598  12.672
62220W        W27040  17.591  34.113   0.463
62221W        W27041  36.826  17.355  12.061
62222W        W27042   1.353  32.508   4.938
62223W        W27043  31.728  43.011  10.146
62224W        W27044  11.392  24.804   4.623
62225W        W27045  17.799  36.521   2.274
62226W        W27046  22.007   7.080  13.433
62227W        W27047  25.271  31.514  14.985
62228W        W27048  13.352  21.181   3.651
62229W        W27049   9.189  24.474   0.391
62230W        W27050  42.911  20.030  13.793
62231W        W27051  27.725  13.884   1.311
62232W        W27052   0.266  12.838   0.856
62233W        W27053  29.189   1.283  10.808
62234W        W27054  21.210  24.964   4.601
62235W        W27055  30.759   5.489  10.508
62236W        W27056  36.796  16.746   0.809
62237W        W27057   6.728  11.771  13.572
62238W        W27058  40.033  12.881  11.623
62239W        W27059  41.364  18.995   0.842
62240W        W27060  28.031  26.049  12.923
62241W        W27061  27.996  18.800   0.319
62242W        W27062  15.488   8.880  12.512
62243W        W27063  32.123  22.618  11.930
62244W        W27064  39.572  39.894   2.847
62245W        W27065  44.418  20.697  12.098
62246W        W27066  20.743   1.066  14.838
62247W        W27067  10.647  24.180  11.800
62248W        W27068   7.854   5.972  14.295
62249W        W27069   2.440   5.800   0.241
62250W        W27070  27.426  41.217  13.047
62251W        W27071  18.768  15.279   4.967
62252W        W27072  26.005  26.594  12.059
62253W        W27073   4.269  38.305   1.827
62254W        W27074  38.764  27.883  12.986
62255W        W27075  38.400  41.808  12.015
62256W        W27076  21.083  42.063  13.435
62257W        W27077  23.786  31.880  13.034
62258W        W27078  32.130  30.605   2.464
62259W        W27079  31.373  13.705   2.742
62260W        W27080  38.154  25.101  14.907
62261W        W27081  31.430  26.768  11.983
62262W        W27082  36.930   6.330  12.118
62263W        W27083  10.266  44.574   1.527
62264W        W27084  12.865  16.847   5.116
62265W        W27085  30.437  27.930   5.351
62266W        W27086   0.291  23.727  11.360
62267W        W27087  36.394  16.111   1.747
62268W        W27088  34.304  37.326  13.600
62269W        W27089  35.992  23.613   3.586
62270W        W27090  35.562  32.088   1.237
62271W        W27091  15.201  10.568  12.564
62272W        W27092   6.395  39.009   1.782
62273W        W27093  43.886  44.218   1.846
62274W        W27094  12.366  32.383  14.918
62275W        W27095  19.052  26.166   1.892
62276W        W27096  18.705  33.084  12.526
62277W        W27097   7.739  12.102  14.413
62278W        W27098  33.879   5.545  11.289
62279W        W27099  37.288  27.388   2.344
62280W        W27100  14.000  41.952   2.450
62281W        W27101   4.524   9.565   2.316
62282W        W27102   3.629  20.675  11.112
62283W        W27103  14.815  26.161  13.083
62284W        W27104  16.420  28.539   0.321
62285W        W27105  35.117  16.555  11.604
62286W        W27106  29.531  31.525  14.196
62287W        W27107   9.807  18.800  13.346
62288W        W27108  13.403  24.015  10.397
62289W        W27109  23.451  24.592   2.196
62290W        W27110   0.871  33.078  12.661
62291W        W27111   1.341  37.310  14.790
62292W        W27112   8.819  42.385   0.895
62293W        W27113  20.247   4.658   3.776
62294W        W27114  35.820  24.549   2.126
62295W        W27115  13.339   1.979  13.644
62296W        W27116  44.367  34.387   0.927
62297W        W27117   8.103  26.631  14.259
62298W        W27118  26.570  11.844   3.369
62299W        W27119  18.108  14.559   3.461
62300W        W27120  33.396  28.249   4.636
62301W        W27121  24.261  32.467  12.448
62302W        W27122  24.121  33.507  14.025
62303W        W27123  31.452  13.774  13.508
62304W        W27124  39.703  11.133   1.780
62305W        W27125  23.688  17.324   1.222
62306W        W27126  22.550   3.227   1.457
62307W        W27127  30.209  24.087  11.524
62308W        W27128   9.933  33.971  14.383
62309W        W27129  18.105  34.952  13.234
62310W        W27130  31.871  39.027  14.945
62311W        W27131  25.610   7.215  14.473
62312W        W27132  40.393  40.686   5.062
62313W        W27133   4.863   6.214   0.565
62314W        W27134  38.858  17.605  12.333
62315W        W27135   6.277  21.628   4.630
62316W        W27136  41.948  44.955   2.841
62317W        W27137  12.405  18.203   2.090
62318W        W27138  22.702  13.577  12.502
62319W        W27139  24.116  16.882  10.775
62320W        W27140  43.917  19.102   2.608
62321W        W27141   6.004  18.643   1.365
62322W        W27142  32.469  10.112   3.150
62323W        W27143  40.286  17.159   3.852
62324W        W27144  28.090   6.396   1.135
62325W        W27145  16.306  34.391   4.111
62326W        W27146  20.115   8.188   3.637
62327W        W27147  40.782  17.454  11.540
62328W        W27148  22.449  22.519   3.038
62329W        W27149  15.859  13.384   2.946
62330W        W27150   9.708  39.008  12.121
62331W        W27151   6.181  10.947  12.036
62332W        W27152  21.631  17.635  11.779
62333W        W27153   2.710  31.412   1.904
62334W        W27154  43.207  39.407  11.173
62335W        W27155  26.700  14.267   4.781
62336W        W27156   8.329  34.021  13.386
62337W        W27157  18.369  38.581   0.251
62338W        W27158  39.365   5.919  14.804
62339W        W27159  22.910  19.049  11.056
62340W        W27160  29.191  24.057  12.445
62341W        W27161  41.222  22.793   2.664
62342W        W27162  42.372  36.943  12.754
62343W        W27163  14.762  38.271  10.729
62344W        W27164  24.059  36.854  11.973
62345W        W27165  16.186  20.184  12.643
62346W        W27166  12.014  23.051   3.237
62347W        W27167  44.519  16.274   1.713
62348W        W27168  43.310  17.672  12.542
62349W        W27169  30.367  32.009   4.924
62350W        W27170   2.018  32.925  13.173
62351W        W27171  20.780  33.407   2.834
62352W        W27172  23.004  15.206  10.668
62353W        W27173   2.865  11.867  14.885
62354W        W27174  22.635  38.009  11.760
62355W        W27175   9.963  26.780   3.658
62356W        W27176  35.534  23.781  11.477
62357W        W27177  23.850  16.106  13.128
62358W        W27178  17.810  21.667   4.231
62359W        W27179  24.435  14.727  14.266
62360W        W27180   5.355  33.562   1.781
62361W        W27181  24.180   1.938   1.052
62362W        W27182  31.038  34.746  14.280
62363W        W27183  16.877  24.629  12.455
62364W        W27184  25.326  34.673  10.023
62365W        W27185  17.800   9.916   3.719
62366W        W27186  22.515   7.852  14.749
62367W        W27187  43.942  41.833  10.599
62368W        W27188   2.730  27.925   0.339
62369W        W27189  22.526  30.401   3.293
62370W        W27190  38.413  21.210  13.196
62371W        W27191  12.401   7.898   2.909
62372W        W27192  11.224  18.363   2.234
62373W        W27193  24.568  12.095  13.070
62374W        W27194  29.186  14.524  12.901
62375W        W27195  38.290  20.627  13.828
62376W        W27196  33.142  26.934  11.615
62377W        W27197  44.703  21.125  14.570
62378W        W27198  41.461  20.152   2.211
62379W        W27199  16.133  14.400   3.608
62380W        W27200  13.754  13.085   3.207
62381W        W27201  15.931  43.081   0.360
62382W        W27202  29.072  26.205  10.756
62383W        W27203  15.165  23.207   2.318
62384W        W27204   9.187  25.978   0.341
62385W        W27205  20.309   1.821  10.518
62386W        W27206   2.838   7.195   3.621
62387W        W27207  27.078  11.753   9.973
62388W        W27208   4.757  32.235   4.041
62389W        W27209  28.149   9.237   1.453
62390W        W27210  12.181  31.459   0.895
62391W        W27211  31.160  12.818  14.421
62392W        W27212  22.214  39.860   4.234
62393W        W27213   3.863  23.410   3.755
62394W        W27214  17.565  43.496   2.788
62395W        W27215  17.523  21.699  13.966
62396W        W27216   4.427   6.766   1.410
62397W        W27217  17.595  29.645   4.782
62398W        W27218  19.592  10.801   1.757
62399W        W27219  35.410  23.364  10.026
62400W        W27220  14.596  35.734  14.797
62401W        W27221  18.133   2.191  14.975
62402W        W27222  19.140  25.711   1.306
62403W        W27223   3.165  20.082   3.496
62404W        W27224   2.979  22.095  13.743
62405W        W27225  28.178  36.762  12.574
62406W        W27226   2.422  37.113  13.624
62407W        W27227  28.380   9.627  10.826
62408W        W27228  18.788  16.977  13.182
62409W        W27229   5.357  39.392   4.191
62410W        W27230   6.340   8.727  13.559
62411W        W27231   9.304   6.614  13.560
62412W        W27232  40.266  12.334   2.664
62413W        W27233  27.762  18.832  11.185
62414W        W27234  37.474  39.851  10.274
62415W        W27235   2.927  42.545  11.231
62416W        W27236  14.308  18.548   1.263
62417W        W27237  22.753   8.438  14.355
62418W        W27238   8.305  23.168  13.882
62419W        W27239  37.919   4.993  14.189
62420W        W27240  20.691  36.001   0.016
62421W        W27241  15.796  30.609   3.795
62422W        W27242  37.399  36.997   0.237
62423W        W27243  18.121  35.459   4.475
62424W        W27244   4.881  31.592   3.180
62425W        W27245  17.166  42.495   0.825
62426W        W27246   9.486   6.777   0.323
62427W        W27247  37.855   3.213   3.189
62428W        W27248  30.319  28.765  11.849
62429W        W27249   7.123  36.869  12.386
62430W        W27250  13.167   0.740  11.574
62431W        W27251  19.776   2.403  14.373
62432W        W27252   6.879  12.822   0.916
62433W        W27253   6.137  38.163  11.041
62434W        W27254  29.757  33.160   0.313
62435W        W27255   5.296  15.447   3.655
62436W        W27256  39.075  39.458  11.732
62437W        W27257  39.010   3.815   4.497
62438W        W27258  39.365   1.364   4.643
62439W        W27259  40.285  38.066  12.644
62440W        W27260  41.266   0.420  11.485
62441W        W27261   5.693  26.610  13.316
62442W        W27262  36.825   7.231  12.914
62443W        W27263  24.087  14.894  11.604
62444W        W27264  35.605  23.577   0.469
62445W        W27265  43.835  31.633   2.726
62446W        W27266  20.947   7.352   2.604
62447W        W27267   8.717   1.773   1.031
62448W        W27268  34.005  31.817  13.786
62449W        W27269   8.392  16.027  14.614
62450W        W27270  34.605  11.249  12.437
62451W        W27271  15.424  10.854  10.788
62452W        W27272   1.609  24.719   5.117
62453W        W27273  25.911  27.390   0.824
62454W        W27274  44.248  41.854   2.800
62455W        W27275   9.634  25.554  13.580
62456W        W27276  41.267  40.364  13.017
62457W        W27277  14.746  32.086   4.193
62458W        W27278   4.010   9.545  10.421
62459W        W27279  42.454  22.702  12.064
62460W        W27280  20.130  13.027  14.423
62461W        W27281   1.361  13.229   4.084
62462W        W27282  12.752  37.531  14.725
62463W        W27283  24.531   7.355  10.780
62464W        W27284  42.246  34.418   3.546
62465W        W27285  30.589  30.828   1.456
62466W        W27286  34.543   0.513  14.195
62467W        W27287  43.693  27.123  13.409
62468W        W27288   9.392   7.366   1.301
62469W        W27289  17.249  20.031  13.836
62470W        W27290  14.848  23.587   2.129
62471W        W27291  14.801  23.647   0.307
62472W        W27292  32.076   8.927  13.545
62473W        W27293  12.509  21.391   4.380
62474W        W27294  13.993  43.982  10.722
62475W        W27295  17.260  17.832   4.764
62476W        W27296  39.126  32.458   1.437
62477W        W27297   7.897  28.927  11.658
62478W        W27298  29.743   1.981  11.034
62479W        W27299  24.975  31.666  11.079
62480W        W27300  44.796   5.298  12.311
62481W        W27301  27.725  26.618  14.867
62482W        W27302  24.885  26.166   4.336
62483W        W27303  16.033  13.083  14.256
62484W        W27304  11.020  39.395  12.119
62485W        W27305  10.486  10.128  11.320
62486W        W27306  20.920   5.758  13.548
62487W        W27307  12.046   8.294  11.626
62488W        W27308   0.366  15.677  11.562
62489W        W27309   3.510  37.523   1.688
62490W        W27310   3.456  44.845  10.625
62491W        W27311  30.932   4.840   0.973
62492W        W27312  43.828  44.778   2.495
62493W        W27313  11.386   9.662  10.327
62494W        W27314  38.854  42.299   0.531
62495W        W27315  44.956  36.036  14.382
62496W        W27316  36.628  25.207  11.224
62497W        W27317  41.157  26.533   2.645
62498W        W27318  22.338  41.466  11.496
62499W        W27319   1.537  21.027  12.129
62500W        W27320  21.070  16.675  13.593
62501W        W27321   8.679  17.315  10.733
62502W        W27322  13.317  24.900   2.687
62503W        W27323  34.463  18.194  11.675
62504W        W27324  42.953  36.079   2.991
62505W        W27325  34.962  23.039  10.964
62506W        W27326  20.416  37.579  12.021
62507W        W27327   0.522  16.767  13.073
62508W        W27328  33.902  24.122   2.904
62509W        W27329  42.793  31.181  10.778
62510W        W27330  38.460  12.645  11.747
62511W        W27331  36.537  40.374  13.886
62512W        W27332   1.946   0.014   1.259
62513W        W27333  20.319  14.538  12.457
62514W        W27334  34.099  38.806   1.808
62515W        W27335  13.769   1.262   1.456
62516W        W27336   5.231  18.383   1.791
62517W        W27337   8.208  16.377   4.058
62518W        W27338  28.987  40.423   4.389
62519W        W27339  36.868   7.891  11.417
62520W        W27340  35.118  10.702  12.161
62521W        W27341  29.774  10.800  10.736
62522W        W27342   1.347  42.920   1.419
62523W        W27343  40.308  37.107  13.333
62524W        W27344  23.244  37.265  14.959
62525W        W27345  39.607  40.334   0.309
62526W        W27346  39.866   9.804   0.315
62527W        W27347  25.662  23.314   2.874
62528W        W27348  32.665  29.128   3.958
62529W        W27349  23.533  17.155   0.756
62530W        W27350   9.317  18.727   3.205
62531W        W27351  11.307  35.620   3.711
62532W        W27352   5.979  16.205   0.245
62533W        W27353   6.970  37.601  11.688
62534W        W27354  31.567   6.538  12.932
62535W        W27355  13.107  25.654   3.726
62536W        W27356  28.509  25.881  14.775
62537W        W27357  40.426  13.324   3.868
62538W        W27358   7.253   8.281  11.052
62539W        W27359  41.048   6.891   0.495
62540W        W27360  13.209  18.300   3.864
62541W        W27361  31.204  21.102   1.896
62542W        W27362  37.905   5.807   4.113
62543W        W27363  39.942   6.862  14.325
62544W        W27364  14.523  16.981   4.158
62545W        W27365   1.494  20.135   4.247
62546W        W27366  42.720  25.708  10.716
62547W        W27367  30.432   5.730   4.237
62548W        W27368  28.699  35.050   2.327
62549W        W27369  32.920  41.659  11.513
62550W        W27370  43.162  17.698  14.350
62551W        W27371  35.794  36.400   2.201
62552W        W27372  40.727  15.880   4.368
62553W        W27373  28.585  11.884  13.996
62554W        W27374  38.440  13.619  11.471
62555W        W27375  36.778   5.882  11.168
62556W        W27376  19.248  12.586  13.158
62557W        W27377  39.440  40.370   2.182
62558W        W27378   5.701  37.890  10.958
62559W        W27379   9.194   8.690   0.183
62560W        W27380   5.751  37.536  13.563
62561W        W27381  11.364  33.946   3.708
62562W        W27382  21.462  18.347   1.643
62563W        W27383  15.515  41.561  11.115
62564W        W27384  27.509  25.719  14.959
62565W        W27385  26.727  38.571  12.430
62566W        W27386  27.472  30.360   4.131
62567W        W27387  30.593  26.548   2.223
62568W        W27388  11.282  26.442   0.310
62569W        W27389  41.267  20.670  11.266
62570W        W27390   6.891   8.158  14.357
62571W        W27391   7.300  38.289   0.343
62572W        W27392   7.379  18.569  10.754
62573W        W27393  14.384   7.959  13.939
62574W        W27394   2.043   9.421   2.635
62575W        W27395  18.872   1.884  11.626
62576W        W27396  42.016  38.300  12.233
62577W        W27397   3.884  24.939   5.009
62578W        W27398  15.163  24.654  11.601
62579W        W27399   1.468  17.802   4.107
62580W        W27400  16.845  37.504   0.417
62581W        W27401   2.849   0.496  12.124
62582W        W27402  24.631   1.830   4.353
62583W        W27403  40.096  34.567  14.929
62584W        W27404  43.829  12.792   2.324
62585W        W27405  36.150  19.416  14.025
62586W        W27406   6.439  37.343  14.815
62587W        W27407   9.235   1.599   1.027
62588W        W27408  17.098  30.913   0.039
62589W        W27409  39.870  26.650   4.525
62590W        W27410  16.321  11.555  12.996
62591W        W27411  15.620   1.730  10.172
62592W        W27412   9.853   1.315  11.678
62593W        W27413  22.718  10.680   3.267
62594W        W27414  28.673   8.346   0.649
62595W        W27415  18.913   1.280  14.261
62596W        W27416   7.586   5.384   0.462
62597W        W27417  15.020  21.695  14.191
62598W        W27418  20.708  21.573   3.260
62599W        W27419  15.370  10.781  13.994
62600W        W27420  25.179  44.733   2.296
62601W        W27421  37.991  29.909   2.343
62602W        W27422  44.948  13.376  12.457
62603W        W27423  27.898  15.230  12.179
62604W        W27424  39.418  31.714  13.136
62605W        W27425  32.866  27.458   4.265
62606W        W27426  32.087  28.600   2.985
62607W        W27427   6.162  39.063   1.323
62608W        W27428   5.757  39.822   0.231
62609W        W27429  26.031   9.664   4.124
62610W        W27430   7.272  30.180  12.924
62611W        W27431  35.054  36.412  13.469
62612W        W27432   8.195  39.605   4.544
62613W        W27433  28.660  21.809   4.361
62614W        W27434  33.452  37.419   2.558
62615W        W27435  31.380  17.744  13.397
62616W        W27436  15.743  31.056   0.034
62617W        W27437  12.771  26.679  13.540
62618W        W27438  32.160   1.453  12.522
62619W        W27439  14.583  28.066   1.336
62620W        W27440  21.183  20.540   0.370
62621W        W27441   9.891  21.825   0.897
62622W        W27442  24.898  22.108  13.315
62623W        W27443   4.978  37.063   3.939
62624W        W27444  13.257  31.710   1.387
62625W        W27445   7.706  41.070   2.394
62626W        W27446  44.041  21.808   3.689
62627W        W27447   3.722  10.369  11.525
62628W        W27448   5.661   3.229  13.105
62629W        W27449  25.538  23.758  11.667
62630W        W27450  33.375   4.929   1.716
62631W        W27451   8.591  13.416   4.905
62632W        W27452  29.854  29.330  11.810
62633W        W27453  38.563  43.026   3.765
62634W        W27454  18.546  23.264  11.352
62635W        W27455  18.211   2.733  14.937
62636W        W27456   4.776  23.734   0.242
62637W        W27457   7.356  22.152   3.338
62638W        W27458  15.624  42.591   3.558
62639W        W27459  23.235  33.544  11.191
62640W        W27460  33.339  44.527  14.457
62641W        W27461   5.862  36.128   3.340
62642W        W27462  35.548   7.162   2.183
62643W        W27463  20.106   2.931   0.191
62644W        W27464   5.160  21.347   9.828
62645W        W27465  28.785  40.926   3.873
62646W        W27466  21.260  17.904   0.821
62647W        W27467  20.455  44.369   3.133
62648W        W27468   6.600   7.170   4.936
62649W        W27469  35.005  42.147   0.804
62650W        W27470  17.701   3.731   4.730
62651W        W27471  17.267  43.278   1.335
62652W        W27472  19.611  31.108  14.929
62653W        W27473  40.550  11.605   3.847
62654W        W27474  20.448   1.836   0.178
62655W        W27475  38.357  37.328   0.804
62656W        W27476  11.132  21.668  12.460
62657W        W27477  27.194  24.796   3.344
62658W        W27478  10.163   1.284  13.516
62659W        W27479  44.343   4.999   1.512
62660W        W27480  28.439  12.180   4.490
62661W        W27481  25.245  36.879   4.109
62662W        W27482  38.777  32.483  11.376
62663W        W27483  18.682  29.627   3.780
62664W        W27484   4.174  31.604  12.404
62665W        W27485  31.707  36.990   2.880
62666W        W27486   5.711  29.220   3.235
62667W        W27487   9.389   6.570   3.703
62668W        W27488   0.435  27.912   4.088
62669W        W27489  38.895  30.698  12.372
62670W        W27490  29.703  32.930   1.033
62671W        W27491  20.649   3.670   0.278
62672W        W27492  38.664  41.416  12.355
62673W        W27493  26.665  36.418  13.115
62674W        W27494  13.516  20.776   0.975
62675W        W27495  27.567  13.107   1.585
62676W        W27496  20.551  41.008   4.278
62677W        W27497  38.091  12.364  13.145
62678W        W27498  19.115  31.576   1.160
62679W        W27499  32.539  44.262   3.150
62680W        W27500   4.252  24.503   1.348
62681W        W27501   6.296  31.950   2.752
62682W        W27502  44.024  23.772   1.738
62683W        W27503  40.530   5.313   1.890
62684W        W27504  22.473  31.543  10.494
62685W        W27505   3.923  28.101  12.968
62686W        W27506  12.212  17.763  14.656
62687W        W27507  28.832  34.064   2.259
62688W        W27508   4.989   9.326   2.297
62689W        W27509  29.025  34.375   1.863
62690W        W27510  35.418  19.103   0.468
62691W        W27511  10.435  35.285  14.370
62692W        W27512  37.592   4.776   4.686
62693W        W27513   1.301   2.351  11.992
62694W        W27514   9.603  38.540  12.320
62695W        W27515  30.682  34.560   4.589
62696W        W27516  38.974  10.352   0.195
62697W        W27517  29.140  39.892  12.872
62698W        W27518   3.362  10.211  10.303
62699W        W27519  14.770  27.032  10.839
62700W        W27520  30.203  15.728   1.962
62701W        W27521  15.501   6.199   1.175
62702W        W27522  26.515  30.622   1.423
62703W        W27523  41.521   8.391  13.306
62704W        W27524  21.716  31.193  13.382
62705W        W27525  16.308  31.883   2.727
62706W        W27526  35.609   8.336  11.666
62707W        W27527  12.945  37.463   4.475
62708W        W27528  15.393  33.645   3.554
62709W        W27529  35.275  10.840   3.511
62710W        W27530  20.686  42.434  14.542
62711W        W27531  17.316  43.168   0.499
62712W        W27532  36.716  35.910   5.140
62713W        W27533   6.290  15.014  12.540
62714W        W27534  13.257   7.398   3.108
62715W        W27535  16.580  16.822  12.124
62716W        W27536  16.561  17.620  11.211
62717W        W27537  29.717  33.185   3.645
62718W        W27538  26.027   2.884   1.977
62719W        W27539   2.519  12.308  12.094
62720W        W27540  12.975  11.305   3.245
62721W        W27541  28.731   1.986   2.855
62722W        W27542  42.370  26.874   0.327
62723W        W27543  23.553  12.756  12.025
62724W        W27544  26.401  36.788   2.354
62725W        W27545  10.175   4.536  10.775
62726W        W27546   1.314  42.260  12.587
62727W        W27547  29.722   3.404  10.704
62728W        W27548  34.419  35.316  14.768
62729W        W27549  37.969  26.744  13.953
62730W        W27550   0.566  31.547  12.444
62731W        W27551   3.186  19.148   3.892
62732W        W27552   7.010  33.457   2.767
62733W        W27553  21.832  26.520  11.195
62734W        W27554  37.303  33.456  11.116
62735W        W27555  35.393   6.164   2.342
62736W        W27556  21.039  22.558   0.485
62737W        W27557   9.816  36.365  12.863
62738W        W27558  31.031   8.586  12.996
62739W        W27559   0.957   3.921   0.364
62740W        W27560  34.075  39.422   4.544
62741W        W27561  24.244  26.742  14.844
62742W        W27562   3.703   3.447   2.765
62743W        W27563  22.655  43.871   3.220
62744W        W27564  19.986  23.178  10.683
62745W        W27565   2.860   0.714   1.425
62746W        W27566  14.830  22.102   4.813
62747W        W27567   9.676  25.262  14.986
62748W        W27568  28.629  26.547   1.479
62749W        W27569  17.985  44.787   0.798
62750W        W27570   7.180   7.165  12.798
62751W        W27571  35.018  29.464  13.055
62752W        W27572   7.561  29.089  13.916
62753W        W27573  42.449  18.443   3.862
62754W        W27574   1.063  35.576   1.501
62755W        W27575   0.237   9.262   3.183
62756W        W27576  39.365   1.762  11.790
62757W        W27577  25.633  23.337   0.790
62758W        W27578  23.635  43.028  14.936
62759W        W27579  19.519  36.839  12.317
62760W        W27580  10.291  32.536   0.796
62761W        W27581  17.007   9.765   3.286
62762W        W27582  43.435  21.618   3.170
62763W        W27583  38.767  13.694   0.413
62764W        W27584  38.287   0.870   3.908
62765W        W27585  34.462  14.166  10.503
62766W        W27586   7.472  17.795   1.745
62767W        W27587  12.113  43.292  13.876
62768W        W27588   2.528  12.139   3.809
62769W        W27589  36.668  19.713   4.410
62770W        W27590  38.782   1.570   3.338
62771W        W27591  38.755  18.788  14.056
62772W        W27592  39.954   4.293   3.246
62773W        W27593   1.709   7.115   4.216
62774W        W27594   7.331  36.924  14.470
62775W        W27595   6.172  22.993  13.545
62776W        W27596  43.552  12.652   3.190
62777W        W27597   0.474  43.451   1.975
62778W        W27598   9.232  19.626  10.756
62779W        W27599  29.997  28.565  14.970
62780W        W27600  13.770   7.052  11.103
62781W        W27601  19.048  10.731  11.678
62782W        W27602  18.212  16.388  11.376
62783W        W27603  19.607  15.747  14.853
62784W        W27604  27.226   6.842   0.445
62785W        W27605  42.531  18.079  14.857
62786W        W27606   5.977  30.893   3.713
62787W        W27607   3.834  17.018  14.203
62788W        W27608  24.679   6.441   3.663
62789W        W27609  32.490   8.248   4.260
62790W        W27610  36.730  11.236   0.914
62791W        W27611  33.589  33.451   0.745
62792W        W27612   6.632  20.180   0.793
62793W        W27613   5.293  12.644  11.611
62794W        W27614  17.349  22.065   2.713
62795W        W27615  12.870  20.100   3.151
62796W        W27616   5.775  18.020   0.750
62797W        W27617   7.854  27.833  14.124
62798W        W27618  39.125   6.366   4.330
62799W        W27619  24.945  11.675   4.635
62800W        W27620  12.319  23.057  11.134
62801W        W27621   2.619  37.177   0.893
62802W        W27622  15.664   8.808   3.662
62803W        W27623  28.188  36.311   2.221
62804W        W27624  30.951  22.020   2.384
62805W        W27625  31.382  14.764  13.965
62806W        W27626  29.186  13.771  10.479
62807W        W27627   6.951  38.930  13.911
62808W        W27628   0.550  44.125  12.869
62809W        W27629  27.620  26.137  11.683
62810W        W27630  41.559  11.049   9.586
62811W        W27631  32.280  33.392   3.255
62812W        W27632  28.751  34.121  10.441
62813W        W27633  37.370   5.862  10.656
62814W        W27634  19.278  14.663  14.309
62815W        W27635  43.381  24.155  14.144
62816W        W27636   1.548  27.045   4.586
62817W        W27637  18.163  14.678   0.831
62818W        W27638   7.165  20.998   3.333
62819W        W27639   3.503  25.953  14.838
62820W        W27640  10.600  12.298   3.939
62821W        W27641  36.541  11.214  11.793
62822W        W27642  14.287  15.540   4.296
62823W        W27643  14.889   5.198   1.858
62824W        W27644  36.773  25.916  12.536
62825W        W27645  42.203  41.071  11.947
62826W        W27646  15.538   3.065  13.035
62827W        W27647  36.129  37.484  11.286
62828W        W27648  32.241  14.646  14.817
62829W        W27649  40.268  29.068  10.422
62830W        W27650  34.275  24.454   2.771
62831W        W27651  41.873  19.460   1.402
62832W        W27652   0.116   4.655   1.608
62833W        W27653  24.642  22.746   2.219
62834W        W27654  43.243  20.012  14.221
62835W        W27655  36.493  33.475   1.836
62836W        W27656  37.781   8.818   3.740
62837W        W27657  37.607  20.382   2.075
62838W        W27658  24.665  23.718  14.477
62839W        W27659   7.171  19.586   2.418
62840W        W27660  39.060  36.139  11.125
62841W        W27661   1.747   1.938   0.963
62842W        W27662  30.997  16.367  13.384
62843W        W27663  38.552  42.438  11.550
62844W        W27664  20.843  24.222   3.643
62845W        W27665  23.890  36.640  11.554
62846W        W27666  23.456   3.474  12.919
62847W        W27667  17.125   0.339   3.565
62848W        W27668  10.243  33.168   2.076
62849W        W27669  34.658  11.375  13.881
62850W        W27670  35.163  30.156   2.894
62851W        W27671   7.284  16.034   2.193
62852W        W27672  38.911  15.013  10.258
62853W        W27673  25.978  27.069   3.781
62854W        W27674   3.449  44.675   4.345
62855W        W27675  17.617  31.015   2.157
62856W        W27676  16.753   7.300   0.812
62857W        W27677  41.480   4.748   4.652
62858W        W27678  23.254  35.649  12.064
62859W        W27679  10.116  40.011   4.830
62860W        W27680  38.275  12.957  14.937
62861W        W27681   4.274   6.163   2.127
62862W        W27682  42.337  24.724  11.710
62863W        W27683  26.041  35.599  14.387
62864W        W27684   4.709  41.909  13.793
62865W        W27685  44.854  19.467  10.673
62866W        W27686   3.450   6.858   0.177
62867W        W27687  11.287  26.950   4.563
62868W        W27688  40.703  23.687   1.889
62869W        W27689  16.284  37.534   3.094
62870W        W27690  33.606   1.405   2.760
62871W        W27691  15.624  34.474   0.367
62872W        W27692  16.784  38.488  14.246
62873W        W27693  34.112  35.068  14.426
62874W        W27694  43.093   5.405   1.303
62875W        W27695  10.846  29.760   0.352
62876W        W27696  41.470  39.958  14.317
62877W        W27697   6.706  31.060  11.563
62878W        W27698   9.630  19.162   0.247
62879W        W27699  11.759  36.099  10.156
62880W        W27700  10.124  29.673   1.962
62881W        W27701  32.155  32.389   4.093
62882W        W27702   9.964  38.892   3.707
62883W        W27703  13.821  38.696   4.728
62884W        W27704  33.735  38.949  12.674
62885W        W27705  35.542  14.067   1.186
62886W        W27706  22.516  34.069  14.967
62887W        W27707  35.965  41.351  13.420
62888W        W27708  32.199   1.894  14.376
62889W        W27709   6.175  27.573   3.882
62890W        W27710  18.329  31.925  12.378
62891W        W27711  16.579  37.357   1.843
62892W        W27712  27.733   6.770  11.877
62893W        W27713   0.733  42.328  11.731
62894W        W27714  15.743  40.772  13.535
62895W        W27715  16.819  26.575   1.825
62896W        W27716   9.670  44.369   3.679
62897W        W27717  32.545  38.749   4.173
62898W        W27718  39.939   7.677   4.097
62899W        W27719  14.150  21.461   0.496
62900W        W27720  31.643  23.632   3.316
62901W        W27721  15.251  43.585   3.190
62902W        W27722   4.488  33.909   2.910
62903W        W27723  10.661  29.014  11.413
62904W        W27724  42.374  14.613   2.747
62905W        W27725  44.888  26.072  12.837
62906W        W27726  36.882  43.076   0.877
62907W        W27727  34.885  19.803   3.671
62908W        W27728  39.196  26.369   4.582
62909W        W27729  31.928  31.346  12.963
62910W        W27730  26.977  31.409   1.381
62911W        W27731   4.964  26.703  11.585
62912W        W27732  31.657  21.276   4.108
62913W        W27733  15.000  41.064  12.487
62914W        W27734  27.673  15.575  13.891
62915W        W27735  44.419  33.683   0.035
62916W        W27736   4.176   2.518  11.129
62917W        W27737  25.947  26.589   1.573
62918W        W27738  21.595  18.377   4.218
62919W        W27739  36.044  28.165  14.887
62920W        W27740  20.142   1.907   4.728
62921W        W27741  18.602  29.418  12.591
62922W        W27742  13.880  11.262   4.648
62923W        W27743  13.464  15.727   4.027
62924W        W27744   1.278  31.965  13.557
62925W        W27745   5.989  24.618   2.857
62926W        W27746  23.758  12.743  13.380
62927W        W27747  31.670  20.204   0.361
62928W        W27748   8.785   2.684   4.529
62929W        W27749  22.279  42.202   1.181
62930W        W27750   1.328  13.308  12.617
62931W        W27751   4.539  39.971  14.507
62932W        W27752  34.576  21.106  13.480
62933W        W27753  33.308  43.914  13.128
62934W        W27754  41.003  18.262  13.918
62935W        W27755  15.627  10.722   4.144
62936W        W27756   1.763  13.625  11.108
62937W        W27757  34.169  43.893  13.273
62938W        W27758   9.923  13.629  14.772
62939W        W27759  41.480  35.590  10.701
62940W        W27760  20.071   9.893   0.842
62941W        W27761   4.459  12.475   4.182
62942W        W27762  25.761  11.745  12.109
62943W        W27763  14.225  39.512  10.640
62944W        W27764   3.461  19.298  11.206
62945W        W27765  35.580   3.296  13.348
62946W        W27766   4.340  25.470  11.700
62947W        W27767  29.185  19.218  13.073
62948W        W27768   5.358  42.053  14.562
62949W        W27769  14.701  40.469   1.801
62950W        W27770  41.980  33.871   4.769
62951W        W27771   1.436  25.201   3.631
62952W        W27772  16.415  37.728   5.082
62953W        W27773  43.373  32.287   0.317
62954W        W27774  28.983  31.439   4.458
62955W        W27775  37.981  30.386  14.226
62956W        W27776   0.359  18.763  11.619
62957W        W27777  13.844  41.995   3.831
62958W        W27778   2.214  43.420  11.162
62959W        W27779  27.000  11.231   3.798
62960W        W27780   7.434   8.379   1.186
62961W        W27781  44.855   0.970   1.170
62962W        W27782  14.526   4.793  13.717
62963W        W27783   2.888  41.385  11.984
62964W        W27784  20.936  23.513  14.978
62965W        W27785  43.814   2.334   4.233
62966W        W27786  15.177  19.358   3.849
62967W        W27787  20.544  36.288  14.586
62968W        W27788  26.913  21.955   3.977
62969W        W27789  40.272  26.202  13.651
62970W        W27790  33.420  43.458  13.452
62971W        W27791  28.810  17.482  13.298
62972W        W27792  27.194   7.319   0.754
62973W        W27793   7.166  30.919  13.460
62974W        W27794  16.233  42.831  14.979
62975W        W27795   8.776  20.722  10.756
62976W        W27796  17.288   4.435  12.874
62977W        W27797  36.862  26.598   2.851
62978W        W27798  18.067  31.355  11.478
62979W        W27799  41.051  10.402  11.867
62980W        W27800  11.327  20.323   0.400
62981W        W27801  26.648   3.514   3.491
62982W        W27802   2.970   5.441  11.113
62983W        W27803   2.851   8.649  14.960
62984W        W27804  37.104   7.789  10.438
62985W        W27805  29.709  40.293  13.370
62986W        W27806  36.997  39.836   4.826
62987W        W27807  40.569  19.257  12.417
62988W        W27808  21.771  34.162  14.484
62989W        W27809  22.942   5.171   4.711
62990W        W27810  43.553  39.310   2.936
62991W        W27811  40.945   9.587   5.142
62992W        W27812   0.510  28.873  10.573
62993W        W27813  24.725   1.306   3.786
62994W        W27814   9.112  31.618   4.286
62995W        W27815   7.820  32.869   0.143
62996W        W27816  31.558  33.422  11.562
62997W        W27817  31.588   3.350   0.819
62998W        W27818  11.338  39.686  13.008
62999W        W27819  44.054   5.450  12.645
63000W        W27820   2.425  26.906  11.502
63001W        W27821  30.252  33.040   2.321
63002W        W27822  34.250  25.452  14.529
63003W        W27823   9.732  38.471   3.566
63004W        W27824  34.183  44.619   1.581
63005W        W27825  21.393  37.776  14.819
63006W        W27826  27.209  40.469   1.214
63007W        W27827  24.759   1.785  13.567
63008W        W27828   7.132  34.000   0.332
63009W        W27829   0.848  37.899  13.921
63010W        W27830   5.172  31.993   2.506
63011W        W27831   5.016  13.650  11.163
63012W        W27832   6.293  10.976   4.588
63013W        W27833   4.117  23.125  14.831
63014W        W27834   9.006  41.767  10.530
63015W        W27835  19.839  35.108  13.974
63016W        W27836   9.825  29.262   9.885
63017W        W27837  14.573   2.586   4.140
63018W        W27838  24.112  14.370  11.592
63019W        W27839  30.003  35.309  13.099
63020W        W27840  16.256  27.340   0.234
63021W        W27841  44.386  43.859   0.029
63022W        W27842  24.925  43.277  14.958
63023W        W27843  24.746  11.320   2.420
63024W        W27844  20.193   9.403  12.116
63025W        W27845  31.048  13.334   3.619
63026W        W27846  34.187  10.342   0.413
63027W        W27847  31.949  10.755   1.968
63028W        W27848  25.621  12.872  10.667
63029W        W27849   3.384   5.123   3.763
63030W        W27850   3.765   1.977  13.776
63031W        W27851  31.498  11.545   4.538
63032W        W27852  38.781  24.601  11.122
63033W        W27853   7.971  12.401  12.084
63034W        W27854   4.812  37.045  13.478
63035W        W27855  40.858  16.473   0.395
63036W        W27856  39.602  20.473  13.551
63037W        W27857  27.482   2.314  11.557
63038W        W27858   4.313  34.949   2.332
63039W        W27859  23.751  31.987   5.070
63040W        W27860  11.343  25.067   3.738
63041W        W27861  30.457  22.954  14.786
63042W        W27862  44.221  11.153  10.994
63043W        W27863  42.106   4.446  14.386
63044W        W27864  42.040  33.479  12.379
63045W        W27865  12.905  33.969  12.596
63046W        W27866   7.095  21.369  13.360
63047W        W27867  40.745  25.707   4.161
63048W        W27868   1.907   4.931  14.547
63049W        W27869  20.518  35.128   1.642
63050W        W27870  26.210  26.143   1.363
63051W        W27871  20.011  34.290   0.055
63052W        W27872  24.200  18.622   4.747
63053W        W27873  20.286  32.998  11.566
63054W        W27874  29.226   2.336   1.798
63055W        W27875  18.938  24.571  11.091
63056W        W27876   6.156  32.096   4.087
63057W        W27877  43.207  35.935   1.466
63058W        W27878  42.824   4.109   0.550
63059W        W27879  32.369  11.365   0.764
63060W        W27880  16.678  28.124  13.509
63061W        W27881  15.519   0.467   4.121
63062W        W27882  29.933  19.518   3.177
63063W        W27883  25.147  44.006  14.335
63064W        W27884  23.639  30.157  12.183
63065W        W27885  16.988  38.502   1.905
63066W        W27886   0.433  22.963  12.470
63067W        W27887  34.007   9.818  12.861
63068W        W27888  14.732  30.103  13.923
63069W        W27889   4.603  35.424   2.541
63070W        W27890  30.634  44.319  12.578
63071W        W27891  28.683  32.461  12.815
63072W        W27892  25.273  18.147   2.737
63073W        W27893  41.346  41.732   2.252
63074W        W27894   6.472   9.067  13.986
63075W        W27895  35.984  30.905   4.243
63076W        W27896  37.193  39.426  11.989
63077W        W27897  34.109   6.519  14.312
63078W        W27898  13.882  39.631   2.220
63079W        W27899  40.585  19.765  13.430
63080W        W27900  39.488  31.674  13.652
63081W        W27901   3.667  19.642  14.941
63082W        W27902  42.746  44.077   4.177
63083W        W27903  42.396  31.474  13.171
63084W        W27904  35.786  42.336   1.903
63085W        W27905  17.154  12.678  11.498
63086W        W27906  21.186  34.074  10.427
63087W        W27907  11.713  18.739   4.781
63088W        W27908  32.536  44.327   1.750
63089W        W27909  24.188  33.967  10.683
63090W        W27910  18.735  44.964  14.504
63091W        W27911  23.925  25.027  11.992
63092W        W27912   8.984  33.904   1.547
63093W        W27913  34.774  26.739   0.902
63094W        W27914  39.962   3.032  12.564
63095W        W27915  19.221  23.322  12.432
63096W        W27916  20.362  27.677  11.521
63097W        W27917  43.982  31.958   1.459
63098W        W27918   4.637  31.821   1.309
63099W        W27919  22.906  14.215  13.088
63100W        W27920  13.518   7.327   4.737
63101W        W27921  40.962  27.967  10.676
63102W        W27922  17.888  22.946   2.707
63103W        W27923  42.803  30.559  14.920
63104W        W27924  42.320   9.387   0.992
63105W        W27925   7.040  18.209   4.698
63106W        W27926  11.739  14.783  13.335
63107W        W27927  28.368   2.306  13.052
63108W        W27928   5.424  43.816   0.571
63109W        W27929  18.035  43.964   1.412
63110W        W27930  22.468  23.374  13.796
63111W        W27931  33.882   2.804  13.280
63112W        W27932   1.668   2.284  11.537
63113W        W27933  34.862   0.812   0.199
63114W        W27934  18.621  15.781   5.099
63115W        W27935   2.930  44.447  14.345
63116W        W27936   4.408  28.096  13.784
63117W        W27937  40.466  25.635   3.420
63118W        W27938  20.631  20.598   2.930
63119W        W27939   8.790  25.772   1.929
63120W        W27940  35.157   4.433   4.634
63121W        W27941  39.215  26.676  14.342
63122W        W27942  35.004  12.734   3.681
63123W        W27943   3.739  41.894  13.953
63124W        W27944  38.795  31.667  11.541
63125W        W27945  17.387  29.005  11.594
63126W        W27946  31.420  38.991   3.714
63127W        W27947  15.835  28.200  12.035
63128W        W27948   0.889   6.009   2.423
63129W        W27949  37.380  24.983  13.550
63130W        W27950  17.664  23.279   4.022
63131W        W27951   5.321  28.537  10.913
63132W        W27952  18.268  37.165   0.960
63133W        W27953  17.042  41.992   2.425
63134W        W27954  31.391  15.883   4.145
63135W        W27955  17.313  18.526  14.803
63136W        W27956   4.235  38.107   3.413
63137W        W27957   9.736   5.376   0.472
63138W        W27958  40.817  26.983  13.407
63139W        W27959  24.827  16.873  10.277
63140W        W27960   0.870   9.904   0.616
63141W        W27961   5.462  34.835   2.839
63142W        W27962  22.576  15.099   0.882
63143W        W27963  11.695  11.614   0.897
63144W        W27964   1.444  41.015  13.388
63145W        W27965  27.549  19.367  12.399
63146W        W27966  15.257  44.777  12.471
63147W        W27967  22.399  14.727   4.261
63148W        W27968  13.202  22.264  12.284
63149W        W27969  10.723   9.764  12.574
63150W        W27970  12.609  38.967   4.231
63151W        W27971  25.093  19.805  14.433
63152W        W27972  41.224  44.194   3.039
63153W        W27973  33.010  17.355  13.053
63154W        W27974  15.269  24.700  10.703
63155W        W27975  42.450  33.550  11.224
63156W        W27976   5.760   8.726   2.365
63157W        W27977  32.495  35.295   3.056
63158W        W27978  22.497  27.365  12.181
63159W        W27979  13.202   6.860   1.928
63160W        W27980   8.726  34.538   1.345
63161W        W27981  32.528  37.408   1.377
63162W        W27982  16.664  44.946   4.255
63163W        W27983  39.553  38.967   2.696
63164W        W27984  28.551  36.275  13.919
63165W        W27985  42.466  22.090   2.239
63166W        W27986  42.839  36.691  13.071
63167W        W27987  34.324   2.332  12.586
63168W        W27988  19.528   0.383  12.295
63169W        W27989  30.866  17.821  13.336
63170W        W27990  34.569  29.668   3.260
63171W        W27991  34.989  29.017   4.331
63172W        W27992  31.992  32.706  12.515
63173W        W27993  12.345  16.666  14.945
63174W        W27994  31.130   6.967  10.936
63175W        W27995   5.992  42.123   0.390
63176W        W27996  13.949   0.821   4.877
63177W        W27997  18.627   1.575   4.766
63178W        W27998   9.501  31.471  10.638
63179W        W27999   3.255  25.626   0.488
63180W        W28000  39.852   6.357  13.478
63181W        W28001  37.553  22.207   1.805
63182W        W28002  25.039  10.549  13.633
63183W        W28003   2.871  32.640   2.180
63184W        W28004  35.577  41.947  14.403
63185W        W28005  14.827  12.191  12.965
63186W        W28006  22.738  43.552  14.443
63187W        W28007  41.384  32.860   2.771
63188W        W28008  33.498  16.392   0.936
63189W        W28009  26.137   0.851   0.003
63190W        W28010  36.685  19.743  11.137
63191W        W28011   2.550  13.336   0.818
63192W        W28012  12.404  32.744   4.972
63193W        W28013  18.696  24.260  13.193
63194W        W28014   1.664  22.011  11.601
63195W        W28015  36.473  15.587   1.831
63196W        W28016   9.345  15.109  10.456
63197W        W28017   0.416  22.807  13.397
63198W        W28018  19.466  38.159  13.855
63199W        W28019  24.175   7.164  14.706
63200W        W28020  20.634  43.895  11.260
63201W        W28021  37.494  35.317   2.267
63202W        W28022  22.753  22.237  11.655
63203W        W28023   8.245  40.917   0.855
63204W        W28024   6.176  11.773   2.865
63205W        W28025  29.953   1.646  11.437
63206W        W28026   4.578  40.502   2.352
63207W        W28027  38.269  29.706   3.758
63208W        W28028  21.928   3.400  14.351
63209W        W28029  21.134  38.251  10.507
63210W        W28030  17.081  26.133   4.705
63211W        W28031  32.794  19.144  13.525
63212W        W28032  37.067  39.582   1.110
63213W        W28033   5.139   8.515   2.837
63214W        W28034  22.930  12.387  13.339
63215W        W28035  13.431  23.662  14.816
63216W        W28036  14.248  16.106  12.562
63217W        W28037  28.185  26.815  14.996
63218W        W28038  33.087  20.881  10.771
63219W        W28039  13.530  14.793   4.868
63220W        W28040  19.277  36.038   1.709
63221W        W28041  34.148   8.969   0.257
63222W        W28042   5.821   1.560   4.193
63223W        W28043  26.643  29.634  12.466
63224W        W28044   4.868  29.564   2.748
63225W        W28045  24.140  21.641   4.036
63226W        W28046  17.465  13.292   2.347
63227W        W28047  21.141  19.536  12.578
63228W        W28048  37.976  38.596   2.257
63229W        W28049  27.455   2.937  12.027
63230W        W28050  16.373  12.044  14.150
63231W        W28051   0.521   6.407  11.623
63232W        W28052  19.927   1.297   4.637
63233W        W28053   7.195  29.655  10.741
63234W        W28054  24.598  13.889  14.063
63235W        W28055  10.890   5.730   1.611
63236W        W28056  29.466  22.796   4.219
63237W        W28057  22.772  15.410  13.105
63238W        W28058   9.037  41.909   0.901
63239W        W28059   7.438  30.401   3.722
63240W        W28060  34.421   8.491   2.720
63241W        W28061   4.273  11.751  11.996
63242W        W28062  18.349  37.165   9.992
63243W        W28063  33.589   7.170   0.222
63244W        W28064  13.309  15.647  14.837
63245W        W28065  23.217  40.746  13.001
63246W        W28066   5.245  34.745  14.521
63247W        W28067  19.500  29.071  12.387
63248W        W28068  30.070   1.944  12.944
63249W        W28069  15.168  39.065   0.896
63250W        W28070   9.943   7.734   3.244
63251W        W28071  11.236  14.896   4.946
63252W        W28072  12.133  37.841   0.417
63253W        W28073  24.210  23.692   3.695
63254W        W28074  35.795  41.302   1.739
63255W        W28075   1.388  26.170  13.443
63256W        W28076   9.554  43.168  10.454
63257W        W28077  11.633  19.277   2.239
63258W        W28078  27.125  31.463  14.827
63259W        W28079   2.318  28.212  14.751
63260W        W28080  26.033  28.968  13.440
63261W        W28081  18.620  30.106  14.591
63262W        W28082  15.011  37.640  13.528
63263W        W28083  12.926  40.230   2.308
63264W        W28084  34.280   0.323   3.264
63265W        W28085  28.186   3.933  13.012
63266W        W28086  19.051  13.811   0.928
63267W        W28087  11.748  22.540   3.368
63268W        W28088   6.609  42.526  13.918
63269W        W28089  38.318  37.052  11.001
63270W        W28090   5.417  21.344  14.813
63271W        W28091  10.924  28.249   2.669
63272W        W28092  26.547  20.802   1.802
63273W        W28093   7.805  16.822   0.694
63274W        W28094  32.386  38.986   3.690
63275W        W28095  15.982  13.208  11.142
63276W        W28096  32.379  33.567   1.840
63277W        W28097  27.438  32.173  12.114
63278W        W28098  42.229  29.171  10.893
63279W        W28099  12.130  28.427   5.059
63280W        W28100  18.238  12.600  11.916
63281W        W28101  33.189  15.585   1.321
63282W        W28102   5.610  12.713   3.446
63283W        W28103   7.906  38.128   2.427
63284W        W28104  24.869   6.305   2.279
63285W        W28105   2.247  28.640   3.257
63286W        W28106  33.602  19.598  14.364
63287W        W28107   7.570  43.749   0.620
63288W        W28108  36.113  22.959   4.703
63289W        W28109  32.901  24.609  12.046
63290W        W28110  12.901  19.527  13.366
63291W        W28111  30.137   0.204  12.089
63292W        W28112  25.704  19.129  14.782
63293W        W28113  32.939  30.135   2.784
63294W        W28114  18.502  42.925  12.857
63295W        W28115   4.418  30.654   2.458
63296W        W28116  23.214   4.017  10.757
63297W        W28117   6.710   5.348   4.084
63298W        W28118  20.695  23.016   0.814
63299W        W28119  18.119   7.924  14.400
63300W        W28120  24.057   8.472   0.758
63301W        W28121  10.514  29.036  14.879
63302W        W28122   5.167  25.026  14.855
63303W        W28123  38.584   1.943  14.027
63304W        W28124  29.625  43.007   4.116
63305W        W28125  23.234  37.534   4.607
63306W        W28126   9.767   5.999   2.554
63307W        W28127  11.824  21.550   2.165
63308W        W28128  10.397  27.592   1.766
63309W        W28129  30.199  37.801  13.069
63310W        W28130  13.537  27.145  12.047
63311W        W28131  11.279   3.842   4.547
63312W        W28132  13.787   6.366   1.302
63313W        W28133  25.477  27.139   1.369
63314W        W28134  35.056  24.063   2.229
63315W        W28135   6.785   9.360   0.008
63316W        W28136  32.880  20.546  11.098
63317W        W28137  43.948  37.616   4.189
63318W        W28138  27.255  37.971  14.924
63319W        W28139  44.832  21.754   0.812
63320W        W28140  42.057  18.262  13.869
63321W        W28141  12.567   2.985  12.614
63322W        W28142  28.799  13.246  14.341
63323W        W28143  29.818  15.231   4.664
63324W        W28144  36.554  44.776  13.498
63325W        W28145  38.851  32.928  11.140
63326W        W28146  27.856   7.418  11.228
63327W        W28147  27.968   9.815   4.792
63328W        W28148  36.793  37.601  12.633
63329W        W28149  41.449  39.653   0.255
63330W        W28150  13.009  19.803   0.289
63331W        W28151  44.366  13.341   4.543
63332W        W28152  40.135  33.776   1.388
63333W        W28153  14.273  22.076   1.869
63334W        W28154  27.997  25.593  11.185
63335W        W28155  16.633  41.779  14.820
63336W        W28156   7.928  13.757   3.110
63337W        W28157  23.118   6.393  14.058
63338W        W28158  17.626  43.251   2.305
63339W        W28159  23.473  21.090   1.830
63340W        W28160  21.918  41.891  13.953
63341W        W28161  10.762  28.306   0.432
63342W        W28162  27.518  21.306   5.079
63343W        W28163  33.888  35.787  12.097
63344W        W28164  37.029  41.457   3.342
63345W        W28165  14.245  38.940  13.294
63346W        W28166   3.261  16.799   0.033
63347W        W28167  41.787   9.724  13.059
63348W        W28168  18.000   8.803   4.090
63349W        W28169  43.753  23.442  13.943
63350W        W28170  28.765   5.132  11.705
63351W        W28171   7.266  16.514   2.002
63352W        W28172   8.645  44.487  12.558
63353W        W28173  37.169   1.280   1.330
63354W        W28174   4.596  13.851   3.698
63355W        W28175   6.402  16.795   1.838
63356W        W28176  36.841  33.453  13.335
63357W        W28177  15.718  20.280  12.410
63358W        W28178  43.053  43.782  13.360
63359W        W28179  18.112  19.636  12.990
63360W        W28180  41.933  35.329   4.845
63361W        W28181  39.512   8.151  12.090
63362W        W28182  17.244  19.829   4.147
63363W        W28183  29.007  34.281  14.863
63364W        W28184  33.994  12.287  10.962
63365W        W28185  34.012  14.028  12.218
63366W        W28186  37.898  26.734   1.055
63367W        W28187  23.503  40.444  11.158
63368W        W28188  18.310  36.406  12.173
63369W        W28189  13.425  16.719   3.007
63370W        W28190   1.439  18.713  14.461
63371W        W28191  16.586  16.735  14.926
63372W        W28192  19.338  24.568   0.421
63373W        W28193  37.472   2.273   0.519
63374W        W28194  23.614   1.780  10.757
63375W        W28195  30.028  29.619   1.479
63376W        W28196  41.948  33.654   2.274
63377W        W28197  14.208   1.563   2.000
63378W        W28198  14.686  12.347   4.167
63379W        W28199  21.314  39.943  14.447
63380W        W28200  43.698  42.832   0.850
63381W        W28201   4.163   7.169  11.400
63382W        W28202   7.769   1.112  11.214
63383W        W28203  28.689  31.977  14.983
63384W        W28204   9.707  24.098  10.591
63385W        W28205   1.770  30.371  11.947
63386W        W28206  14.197  25.826  14.226
63387W        W28207  20.529  19.692   3.743
63388W        W28208  12.748  24.529  11.652
63389W        W28209  21.745  43.817   0.448
63390W        W28210  22.103  10.749   3.219
63391W        W28211  43.256  10.985  14.959
63392W        W28212  31.155  39.813   0.169
63393W        W28213  15.097  16.725   3.886
63394W        W28214  16.329  44.592   4.031
63395W        W28215   7.566   4.727   3.755
63396W        W28216  15.604  12.367  14.529
63397W        W28217  14.721  43.001   4.145
63398W        W28218  29.165   0.939  12.085
63399W        W28219  18.979  12.336  11.572
63400W        W28220  28.964  23.137   1.457
63401W        W28221   5.936   0.010  12.985
63402W        W28222  25.426  39.403   1.841
63403W        W28223   2.980  37.715  12.160
63404W        W28224  28.599  15.120   2.374
63405W        W28225  35.036  32.942   3.837
63406W        W28226   1.532   6.221   1.731
63407W        W28227  16.529  11.716   1.469
63408W        W28228  42.393  43.502  10.702
63409W        W28229  38.903   0.775  13.439
63410W        W28230  16.392  12.215   1.363
63411W        W28231  16.681   0.334   3.300
63412W        W28232  17.616  43.407  10.951
63413W        W28233  12.250  20.614   3.296
63414W        W28234   3.455   4.282   0.901
63415W        W28235   4.367  12.800  10.962
63416W        W28236  15.419   3.372  10.213
63417W        W28237  34.833  39.355  12.045
63418W        W28238  33.411  32.531   1.853
63419W        W28239   9.985   7.252   3.751
63420W        W28240  44.491  42.383  14.776
63421W        W28241  42.457  37.465   2.230
63422W        W28242  29.565  37.926   2.308
63423W        W28243  13.079  36.646   0.008
63424W        W28244  27.634  18.707  14.564
63425W        W28245  31.849   1.415  13.071
63426W        W28246   1.317   0.435  13.555
63427W        W28247   0.278   0.022  12.420
63428W        W28248   1.561  29.212  14.391
63429W        W28249  20.196  21.257  14.569
63430W        W28250  37.910  26.635   0.551
63431W        W28251  23.306  13.603  14.829
63432W        W28252  15.470  15.617  11.082
63433W        W28253  15.332  40.072  14.801
63434W        W28254  36.788   9.524  13.632
63435W        W28255  37.922  20.141  13.107
63436W        W28256  28.697  44.338   1.322
63437W        W28257  25.206   1.524   4.878
63438W        W28258   7.933  30.565   3.753
63439W        W28259  12.266  21.192  14.428
63440W        W28260  22.629  34.508   3.681
63441W        W28261  19.705   4.684  10.616
63442W        W28262   3.271  26.471  12.728
63443W        W28263  38.359  21.087  10.702
63444W        W28264  25.088   6.520   1.385
63445W        W28265  14.874  19.248   3.449
63446W        W28266  16.338  27.115   2.814
63447W        W28267  27.446   8.854  13.064
63448W        W28268  21.018  33.769   4.253
63449W        W28269  44.702  17.323  13.383
63450W        W28270  28.947  13.775  12.546
63451W        W28271   6.578  34.111  12.958
63452W        W28272  36.908  31.323  11.468
63453W        W28273   0.787   8.695  10.267
63454W        W28274  33.410  43.448  12.917
63455W        W28275  18.210  41.174   2.757
63456W        W28276  39.270  15.566   4.176
63457W        W28277  20.487  41.899  13.145
63458W        W28278  14.567  39.105  10.723
63459W        W28279  38.983   0.953  12.951
63460W        W28280  34.516   4.976  12.605
63461W        W28281  27.405  24.208  11.154
63462W        W28282   5.704  14.091  12.277
63463W        W28283  39.016  22.454   2.424
63464W        W28284  17.676  10.195  12.419
63465W        W28285  36.536  37.311  11.559
63466W        W28286  44.218  24.503   1.346
63467W        W28287   2.352  40.505   4.474
63468W        W28288  25.692  43.887  14.899
63469W        W28289  13.354   3.674  13.746
63470W        W28290   7.368  13.323  11.988
63471W        W28291   0.955  22.053  11.071
63472W        W28292  33.992  13.831   0.253
63473W        W28293  27.003  30.892   0.250
63474W        W28294  44.718  13.308   0.412
63475W        W28295  35.488  15.699   2.038
63476W        W28296  35.912  44.938   1.676
63477W        W28297   1.227  37.787  10.634
63478W        W28298  27.644  33.015  13.991
63479W        W28299   2.127   8.505  12.427
63480W        W28300  24.085  15.073   4.924
63481W        W28301   7.711  30.682  14.445
63482W        W28302   3.761   8.581   2.856
63483W        W28303  40.288  39.022   5.043
63484W        W28304  18.072  33.990   0.775
63485W        W28305   2.175  20.718  10.716
63486W        W28306   3.021  10.396   4.588
63487W        W28307  44.023  12.529  12.212
63488W        W28308  32.096  22.582   4.587
63489W        W28309  11.595  35.353   0.806
63490W        W28310   0.850   8.466  11.184
63491W        W28311  38.955  43.570  12.054
63492W        W28312  33.652  44.900   2.738
63493W        W28313  35.118  24.496   1.877
63494W        W28314  11.779   6.997  14.669
63495W        W28315   3.080   3.374  14.856
63496W        W28316  29.536  33.903  14.239
63497W        W28317  38.986  16.210  13.654
63498W        W28318  15.668  20.800   1.498
63499W        W28319   2.378  31.253  14.321
63500W        W28320  17.393  19.063  12.234
63501W        W28321   1.049  15.721   0.431
63502W        W28322  11.612  17.245  10.787
63503W        W28323  14.124  22.519  13.414
63504W        W28324  36.392  10.540   1.830
63505W        W28325  30.077   2.780   0.347
63506W        W28326   7.975  19.431  12.094
63507W        W28327  23.731  26.558   2.689
63508W        W28328  26.587  21.126  12.816
63509W        W28329  27.522  14.537  12.588
63510W        W28330   0.242  27.203  11.143
63511W        W28331  16.754  15.592   1.264
63512W        W28332  15.380   6.415  10.853
63513W        W28333  35.995  33.735   2.846
63514W        W28334   5.988  14.353   2.605
63515W        W28335   5.259  13.706  10.717
63516W        W28336   1.875  21.614  12.670
63517W        W28337  23.036  15.270  12.679
63518W        W28338  25.264  32.481   0.511
63519W        W28339  38.892  10.469  13.397
63520W        W28340  32.356  25.775  12.548
63521W        W28341  35.500  23.863   4.120
63522W        W28342  31.262  12.195   1.841
63523W        W28343  14.631  26.732   2.751
63524W        W28344  33.476  30.348   3.320
63525W        W28345  17.149  13.993   3.580
63526W        W28346  36.062  43.451   4.613
63527W        W28347   1.749  25.918   0.687
63528W        W28348  15.023  37.016   4.986
63529W        W28349  16.127  38.035   4.242
63530W        W28350  33.812  34.383  11.567
63531W        W28351  37.473  44.884   3.319
63532W        W28352  41.982  16.941  10.351
63533W        W28353  15.792  36.448  12.825
63534W        W28354  19.032  11.219   3.827
63535W        W28355  32.974   5.042  10.292
63536W        W28356  33.995  17.165  12.940
63537W        W28357  28.276  21.341  12.186
63538W        W28358  32.091  35.580  11.455
63539W        W28359  30.083   7.022  12.628
63540W        W28360  34.095  13.643  11.176
63541W        W28361  33.408  20.512  14.318
63542W        W28362  32.687  34.125   3.714
63543W        W28363  19.796  42.966  11.326
63544W        W28364   6.465  20.554  10.678
63545W        W28365  11.763  39.914   0.297
63546W        W28366  25.705  22.555   5.043
63547W        W28367   4.050  42.893   3.198
63548W        W28368   5.499   3.738  13.871
63549W        W28369  24.407   9.062  13.371
63550W        W28370  32.015   3.781   1.735
63551W        W28371  23.830  12.612  12.442
63552W        W28372   1.259  35.842  14.856
63553W        W28373  33.740  15.259  11.036
63554W        W28374   7.706  16.232   4.078
63555W        W28375  36.124   2.960  12.376
63556W        W28376   3.317  27.503  11.781
63557W        W28377  27.269  12.182  14.323
63558W        W28378  36.049  15.918  11.686
63559W        W28379  29.034  39.011  10.335
63560W        W28380  33.374  38.236   2.311
63561W        W28381  19.240  41.622   0.263
63562W        W28382   1.990   9.692   0.192
63563W        W28383   9.656  23.641   0.670
63564W        W28384  20.610  31.149  12.708
63565W        W28385   4.372  15.935  13.569
63566W        W28386  31.981  26.576   2.345
63567W        W28387  22.935  10.212   0.766
63568W        W28388   0.290  43.732   4.289
63569W        W28389  36.216   2.782  11.890
63570W        W28390  30.229  23.735  10.299
63571W        W28391  44.723  13.751   0.778
63572W        W28392  27.687  30.359  14.002
63573W        W28393  23.127  38.703  12.074
63574W        W28394  44.760  18.817  14.362
63575W        W28395   7.807   4.237   2.470
63576W        W28396  16.483  17.130  12.528
63577W        W28397  44.452  23.840   0.664
63578W        W28398  22.469  43.267  11.457
63579W        W28399  40.442  30.510  14.583
63580W        W28400  19.139   0.500  12.619
63581W        W28401  42.872   3.481  11.300
63582W        W28402  42.859   0.420   2.873
63583W        W28403  41.017  27.146   3.291
63584W        W28404  41.918  26.995   1.540
63585W        W28405  19.449   3.497  14.492
63586W        W28406  41.321   0.744  10.792
63587W        W28407  25.605   9.200  12.118
63588W        W28408  17.922   6.325  12.921
63589W        W28409  13.233  16.897   1.748
63590W        W28410  30.810  35.169  12.595
63591W        W28411  29.746  32.102   2.556
63592W        W28412   1.204  27.835   3.552
63593W        W28413  23.184  41.656  10.693
63594W        W28414  26.577   1.819   4.553
63595W        W28415  34.048   2.229   1.123
63596W        W28416  40.822   1.190  13.177
63597W        W28417  30.737  32.919   2.118
63598W        W28418  38.414  40.604  14.859
63599W        W28419  36.386  14.831  13.266
63600W        W28420  23.257  32.933   0.018
63601W        W28421  20.129  22.707   1.368
63602W        W28422  33.300  20.246  11.058
63603W        W28423  14.111   5.369  12.566
63604W        W28424  15.069  17.429  12.507
63605W        W28425  13.512  31.465  13.387
63606W        W28426   7.613  38.756  14.379
63607W        W28427  19.548  43.311   0.794
63608W        W28428  21.826   6.939  14.470
63609W        W28429   8.930   7.959  11.037
63610W        W28430   4.017  24.991  14.411
63611W        W28431  13.870  32.977  13.566
63612W        W28432  10.397   6.681   2.772
63613W        W28433   2.962  13.256  14.345
63614W        W28434  26.821  15.239  11.960
63615W        W28435  36.726  42.594  13.232
63616W        W28436  43.804  40.972  13.989
63617W        W28437  26.574  16.787   4.748
63618W        W28438   4.250  37.116   3.695
63619W        W28439  15.723  41.126   0.699
63620W        W28440   1.482   8.015  14.894
63621W        W28441   0.295  13.190   1.247
63622W        W28442   3.498  28.181  14.528
63623W        W28443  40.802  18.530   2.864
63624W        W28444  33.475  20.734  12.543
63625W        W28445  32.337  15.445  10.765
63626W        W28446  11.368   1.769   4.149
63627W        W28447  27.962  41.296  14.412
63628W        W28448   9.350   4.432  14.382
63629W        W28449  20.734  19.483  12.962
63630W        W28450  12.283  11.481  14.918
63631W        W28451  40.839  34.852  12.178
63632W        W28452  40.521  29.232   2.368
63633W        W28453  34.442   7.787  10.750
63634W        W28454  32.141  14.168  13.981
63635W        W28455  16.593  29.827  10.534
63636W        W28456  28.160  29.771  10.327
63637W        W28457  33.619  16.606  14.031
63638W        W28458  24.711  11.299  12.653
63639W        W28459   7.501  16.777  10.773
63640W        W28460   7.382  43.030   3.774
63641W        W28461   7.674   9.340   0.397
63642W        W28462  44.778  43.485  12.427
63643W        W28463   7.668  13.715  14.356
63644W        W28464  25.021  12.308   0.798
63645W        W28465   7.957  10.927  13.986
63646W        W28466  32.133   4.451  11.155
63647W        W28467  18.304  44.724   4.764
63648W        W28468  39.699  41.578  12.832
63649W        W28469  39.766   4.456  13.828
63650W        W28470  33.673  35.373   2.298
63651W        W28471  24.007  22.969   0.022
63652W        W28472  40.571  44.415   2.248
63653W        W28473  13.505  28.132   5.357
63654W        W28474  27.514   2.032   1.924
63655W        W28475  18.674   3.333   0.814
63656W        W28476   6.812   3.475   3.637
63657W        W28477  32.433  26.592   0.622
63658W        W28478  44.238  35.047   0.159
63659W        W28479  26.917  32.200  12.113
63660W        W28480  42.539  20.242  13.472
63661W        W28481   4.671  18.125   9.834
63662W        W28482  31.205   0.931   0.697
63663W        W28483  33.129  29.206   4.232
63664W        W28484   2.953  24.932   2.274
63665W        W28485  44.369   1.697  12.839
63666W        W28486  37.326  27.034   3.276
63667W        W28487   4.937   1.118   1.346
63668W        W28488  44.167  22.022  14.315
63669W        W28489  23.076  17.180   4.534
63670W        W28490  10.028   8.366  11.863
63671W        W28491  26.215   3.435  12.423
63672W        W28492  36.370  23.508  10.662
63673W        W28493  39.314  28.924  14.707
63674W        W28494  11.781  33.960  10.412
63675W        W28495  42.939  28.426   2.631
63676W        W28496  31.964  39.551  11.441
63677W        W28497   4.825  25.138   0.230
63678W        W28498  22.987  23.964  10.724
63679W        W28499  18.211   2.696   3.266
63680W        W28500  42.861  40.283  11.654
63681W        W28501  18.430   0.871  13.994
63682W        W28502  40.475   8.858   2.720
63683W        W28503  23.299  11.342  14.461
63684W        W28504  15.844  23.483  14.408
63685W        W28505  24.546   0.390  14.627
63686W        W28506  11.812  15.536  11.455
63687W        W28507  12.575  18.178   3.806
63688W        W28508  21.718  34.569   2.663
63689W        W28509  24.674  18.421   4.643
63690W        W28510  39.997  18.891  13.346
63691W        W28511  32.555  38.104   2.110
63692W        W28512  10.031  17.266   0.248
63693W        W28513  26.615  37.470  12.130
63694W        W28514  10.143  42.551   4.018
63695W        W28515  19.337  24.675  12.469
63696W        W28516  42.127   9.374   1.468
63697W        W28517  15.227  11.106   1.362
63698W        W28518  27.226  36.114  11.909
63699W        W28519   5.433  34.946  14.973
63700W        W28520   5.887  12.248  13.225
63701W        W28521   5.398  28.697   1.989
63702W        W28522  26.176  25.604   2.413
63703W        W28523  18.764  32.947  13.611
63704W        W28524  37.583  17.153  10.978
63705W        W28525   0.833  42.809  13.101
63706W        W28526   8.129   7.109  10.835
63707W        W28527  39.546   6.597  14.536
63708W        W28528  24.495   3.854   1.254
63709W        W28529  25.065   1.516   1.362
63710W        W28530  32.564   5.255   0.290
63711W        W28531   0.964  15.467   1.154
63712W        W28532   8.475  33.353  10.671
63713W        W28533  22.506  12.952   4.657
63714W        W28534   1.271  14.152  10.950
63715W        W28535  39.010   7.697  13.502
63716W        W28536  15.390   5.980  11.588
63717W        W28537  38.359  11.153   0.795
63718W        W28538  24.161  14.098   0.425
63719W        W28539   3.013  10.746  13.041
63720W        W28540  41.354  10.976   1.442
63721W        W28541  16.201  33.497   1.187
63722W        W28542  43.748  27.837   3.117
63723W        W28543  41.373  26.038   4.436
63724W        W28544  11.256  22.125   4.322
63725W        W28545  18.333   9.837   3.811
63726W        W28546  38.095  17.168   3.650
63727W        W28547  26.397  41.449  12.981
63728W        W28548  19.719  19.703   0.015
63729W        W28549  29.520  35.900   2.749
63730W        W28550  12.717   8.608   0.175
63731W        W28551  24.978  13.328   0.841
63732W        W28552   7.247  36.426   1.673
63733W        W28553  39.924  41.228   1.137
63734W        W28554  29.091  18.277  13.097
63735W        W28555  16.788  20.578   2.802
63736W        W28556  44.217   1.216   0.067
63737W        W28557  13.674  15.346  11.038
63738W        W28558  17.569  20.688   3.216
63739W        W28559  29.744  11.203  11.080
63740W        W28560  28.952  44.254  11.459
63741W        W28561  21.042  32.191  10.783
63742W        W28562  13.861  36.308  13.785
63743W        W28563  27.173  16.983   4.162
63744W        W28564  39.806  22.651  13.920
63745W        W28565  35.622  34.497  12.567
63746W        W28566   3.336  18.790   1.439
63747W        W28567  44.013  29.678   0.897
63748W        W28568  15.686  12.789  11.269
63749W        W28569  24.733  23.279   2.345
63750W        W28570  36.615  22.846  10.162
63751W        W28571   6.416  35.792   2.730
63752W        W28572  10.686  34.420   1.402
63753W        W28573   5.196  26.744  13.167
63754W        W28574   9.460  35.288  11.394
63755W        W28575  14.255  35.373   4.105
63756W        W28576   6.154  36.683   4.502
63757W        W28577  22.693  15.376   0.450
63758W        W28578  34.899  10.843  11.648
63759W        W28579   7.202  44.746  14.742
63760W        W28580  17.217   6.776  13.977
63761W        W28581  40.446  16.892  12.108
63762W        W28582  13.904   3.949   2.445
63763W        W28583  11.043  25.629   0.834
63764W        W28584  20.626  32.399  11.055
63765W        W28585   4.967  43.061  12.982
63766W        W28586  33.146  34.207   0.673
63767W        W28587  44.234  35.407  12.062
63768W        W28588  18.372  30.080  13.701
63769W        W28589  20.972  16.167  13.956
63770W        W28590  30.461  44.337  10.676
63771W        W28591  36.112  17.197  12.604
63772W        W28592  25.493  39.352  13.415
63773W        W28593  43.467  11.421  14.744
63774W        W28594  20.650  37.108   1.410
63775W        W28595  18.596  19.735   2.827
63776W        W28596  11.905  35.606  14.374
63777W        W28597  20.634   0.828   3.530
63778W        W28598  22.729  37.424   0.453
63779W        W28599  30.560  39.638  11.477
63780W        W28600  38.861  40.350  14.896
63781W        W28601  16.175  39.098   1.221
63782W        W28602  12.313   6.386   2.785
63783W        W28603  40.390  26.829   9.739
63784W        W28604  24.127  43.039  14.731
63785W        W28605   2.275  14.631   1.220
63786W        W28606  16.311  31.570   9.832
63787W        W28607  13.649  17.138  11.824
63788W        W28608   2.916  14.387  10.757
63789W        W28609  38.950   2.232   4.228
63790W        W28610  20.939  39.988   2.671
63791W        W28611  39.713  16.781  14.500
63792W        W28612  22.630  32.196  12.801
63793W        W28613  27.178  18.791  14.798
63794W        W28614  28.115  30.050  11.626
63795W        W28615  32.950  43.570   3.772
63796W        W28616   3.479  16.598  12.608
63797W        W28617  41.481   3.653  13.898
63798W        W28618  44.291  23.145  12.045
63799W        W28619  42.410  10.143   4.057
63800W        W28620  20.010  39.410  12.395
63801W        W28621  44.365  20.499   0.877
63802W        W28622  38.733  23.747   2.924
63803W        W28623  33.745  34.825  10.316
63804W        W28624  18.244  30.186  12.370
63805W        W28625   6.832  25.282  14.615
63806W        W28626  25.412  19.059   0.451
63807W        W28627   7.958   5.990  10.327
63808W        W28628   6.973   2.983  14.374
63809W        W28629  28.551  44.145   0.869
63810W        W28630  21.024  22.681  11.180
63811W        W28631  44.239  23.828   4.513
63812W        W28632  17.664  12.730   4.112
63813W        W28633  44.841  19.616  12.515
63814W        W28634   7.516   3.819  13.851
63815W        W28635  22.137  40.508  14.954
63816W        W28636  27.946  15.552   3.949
63817W        W28637   1.813  14.797  14.410
63818W        W28638  28.365   1.145   4.631
63819W        W28639  26.995  25.004  14.351
63820W        W28640  37.369  43.275  14.825
63821W        W28641  34.417  35.363  11.542
63822W        W28642  29.917  24.104  14.928
63823W        W28643   9.510  17.269  10.293
63824W        W28644  38.523  33.339  14.864
63825W        W28645  14.556   4.895  12.460
63826W        W28646  27.383  17.698   0.256
63827W        W28647  36.920  25.575   1.915
63828W        W28648  41.680  14.641   4.970
63829W        W28649  33.053  20.314   5.158
63830W        W28650   0.984   6.611  11.528
63831W        W28651   3.998  28.542   0.858
63832W        W28652  32.829  41.073   2.372
63833W        W28653   1.582   3.837   2.591
63834W        W28654  16.414  18.148   4.580
63835W        W28655  42.005  35.484   4.317
63836W        W28656   0.363  33.496   4.444
63837W        W28657  33.318  41.041  14.370
63838W        W28658  19.730  23.807  11.463
63839W        W28659  16.576  28.035  10.785
63840W        W28660  29.979   1.453  13.943
63841W        W28661   4.759   9.237  12.998
63842W        W28662  42.408  42.091  13.939
63843W        W28663   8.578  16.790   0.540
63844W        W28664  32.693  22.555   2.562
63845W        W28665  27.944  23.807   4.030
63846W        W28666   6.406  29.157  10.659
63847W        W28667   4.326   4.664   4.212
63848W        W28668   5.368   6.466  10.325
63849W        W28669  21.914   7.886  12.917
63850W        W28670  18.546   7.795  14.150
63851W        W28671  29.589  10.617  13.019
63852W        W28672  24.260   6.738  11.540
63853W        W28673  18.821  42.971   4.162
63854W        W28674   4.002  10.252   4.643
63855W        W28675  22.300  43.329  10.773
63856W        W28676  29.124  22.796   0.398
63857W        W28677  24.077   7.870  11.224
63858W        W28678  14.142   1.472  12.441
63859W        W28679   1.504  39.561   0.750
63860W        W28680   9.580   8.180  12.206
63861W        W28681  27.854  11.841  11.986
63862W        W28682   3.479  14.592  14.413
63863W        W28683  11.577  14.186   4.113
63864W        W28684  36.183  35.116   4.097
63865W        W28685  34.886   1.926   3.156
63866W        W28686  31.415  17.809   5.507
63867W        W28687   0.268   6.499  14.997
63868W        W28688  29.603   3.850  12.938
63869W        W28689  12.750  44.387  11.692
63870W        W28690  24.233  29.394   0.233
63871W        W28691  34.327  37.549   3.292
63872W        W28692  27.904  23.665  12.464
63873W        W28693   1.234  31.135   4.042
63874W        W28694  35.473   0.047   2.761
63875W        W28695  38.387  25.614   3.813
63876W        W28696  41.604   1.818  13.937
63877W        W28697  38.497   7.296   1.449
63878W        W28698  36.271  15.627  13.114
63879W        W28699   8.958   5.828  12.612
63880W        W28700  25.160  17.225  13.461
63881W        W28701  37.890  35.581  13.382
63882W        W28702  22.282  34.516   4.077
63883W        W28703  13.522  21.584   2.798
63884W        W28704  25.490  26.130  14.472
63885W        W28705  41.075   9.744  14.736
63886W        W28706   7.743  38.282   4.628
63887W        W28707  23.513  40.473  14.526
63888W        W28708  14.599  44.957   0.899
63889W        W28709  11.159  14.125   2.927
63890W        W28710  39.539  37.973   4.684
63891W        W28711  19.249  15.960  10.448
63892W        W28712  18.633  20.770  12.042
63893W        W28713  31.865  18.243   0.942
63894W        W28714  30.972   9.206  12.104
63895W        W28715   8.278   4.024  12.071
63896W        W28716  28.506  30.965   5.029
63897W        W28717  41.483  25.713   1.750
63898W        W28718  40.353  16.659   3.281
63899W        W28719  41.319  39.309  12.121
63900W        W28720  36.365  22.467   2.202
63901W        W28721   4.539  19.353  11.244
63902W        W28722  20.710  36.808  14.544
63903W        W28723   3.063  29.732   5.084
63904W        W28724  15.847  12.020  12.268
63905W        W28725  29.061  17.485   0.414
63906W        W28726  21.048  38.543   0.814
63907W        W28727   4.231  40.977   3.389
63908W        W28728  29.298  27.824   3.108
63909W        W28729  41.157  24.724   0.383
63910W        W28730  23.335  29.146   4.072
63911W        W28731   3.142  40.363   5.056
63912W        W28732  20.194  36.213   9.872
63913W        W28733  34.403  43.440   2.879
63914W        W28734  28.620  39.440   2.363
63915W        W28735   6.351  40.799   0.723
63916W        W28736  35.174  41.579  14.617
63917W        W28737  30.965  40.790  14.852
63918W        W28738  44.528  23.306   2.853
63919W        W28739   5.233  38.050   2.252
63920W        W28740  29.288   5.675   1.718
63921W        W28741  32.108   5.272  14.860
63922W        W28742  17.683  28.572   2.416
63923W        W28743  23.261  31.953   4.828
63924W        W28744  16.686  43.422  14.973
63925W        W28745  20.322  38.451   1.244
63926W        W28746   7.252  22.071   2.817
63927W        W28747  10.839   0.712   2.877
63928W        W28748  34.355  17.112   1.880
63929W        W28749  22.293  38.953  14.330
63930W        W28750   0.783  43.803   3.563
63931W        W28751  38.669  26.162  14.052
63932W        W28752  43.251  30.628  12.761
63933W        W28753  40.241   8.995   0.656
63934W        W28754  25.153  11.037  13.496
63935W        W28755  16.599  11.664  14.374
63936W        W28756  20.536   9.182   3.044
63937W        W28757  12.910  21.559  13.940
63938W        W28758  12.016  19.822   4.036
63939W        W28759  42.621  38.946   3.813
63940W        W28760   6.741  40.721   0.352
63941W        W28761  43.059   6.891   4.169
63942W        W28762  19.212  36.592  14.897
63943W        W28763  25.573  39.828  12.519
63944W        W28764  24.054   6.492  12.461
63945W        W28765   8.453  42.446   0.534
63946W        W28766   2.466  21.090   2.651
63947W        W28767  37.026  15.020  13.026
63948W        W28768  11.189  38.239  13.010
63949W        W28769  13.167  19.631  11.136
63950W        W28770   0.507  21.087  12.168
63951W        W28771   0.363  14.640  13.521
63952W        W28772  33.441  17.782   0.345
63953W        W28773   2.122  34.093  11.649
63954W        W28774  22.697  33.752  14.592
63955W        W28775  18.345  41.697  10.965
63956W        W28776  42.843  14.665  10.653
63957W        W28777  34.627  41.438  11.478
63958W        W28778   9.292  14.021   0.275
63959W        W28779  41.928  41.968  14.223
63960W        W28780  40.416  22.631  14.790
63961W        W28781   5.183   4.447   4.560
63962W        W28782  19.275   6.213  14.757
63963W        W28783  33.545  41.291  11.270
63964W        W28784  44.228  28.029   3.074
63965W        W28785  14.793  32.948  11.559
63966W        W28786  42.974  10.858   4.910
63967W        W28787  34.353   1.908   4.623
63968W        W28788  16.590  27.850  10.293
63969W        W28789  27.487   9.656   2.621
63970W        W28790  22.206   2.636   3.748
63971W        W28791  43.886  31.670   1.865
63972W        W28792  14.924   7.143   4.127
63973W        W28793  22.230   4.516  11.437
63974W        W28794  32.593   6.767   0.304
63975W        W28795   2.534  18.654   1.382
63976W        W28796  42.500  21.546   1.874
63977W        W28797   7.211  34.487  14.514
63978W        W28798  19.886   4.537  14.490
63979W        W28799  23.144  22.698  13.328
63980W        W28800  39.059  27.653  10.735
63981W        W28801  16.380   3.191  12.400
63982W        W28802  32.438  30.107  12.322
63983W        W28803   9.732   6.356   4.642
63984W        W28804   5.177  18.575   4.816
63985W        W28805  38.313  27.225   1.919
63986W        W28806   1.061  41.625  13.850
63987W        W28807  39.328  15.506  13.102
63988W        W28808  14.206   4.942   1.414
63989W        W28809  44.517  34.035   2.753
63990W        W28810  20.497  22.549  14.622
63991W        W28811  36.004  32.878   4.181
63992W        W28812   3.040  18.660  10.792
63993W        W28813   6.139  37.392  12.636
63994W        W28814  25.127  41.788  12.958
63995W        W28815   0.555  30.514   0.019
63996W        W28816   3.833  28.629  10.981
63997W        W28817  28.067  20.438   4.262
63998W        W28818  10.333   3.843   1.316
63999W        W28819  23.440  42.856   3.056
64000W        W28820  38.881   1.050   3.253
64001W        W28821  25.970  42.914  12.135
64002W        W28822  42.369  10.428   0.855
64003W        W28823  17.832  39.445  14.870
64004W        W28824   9.178  32.110  12.673
64005W        W28825  42.345   4.756  14.740
64006W        W28826  16.286   2.775  10.755
64007W        W28827  23.665  13.338   0.254
64008W        W28828   0.316  11.230  10.402
64009W        W28829  34.649  20.818   4.193
64010W        W28830  15.162   6.357   4.541
64011W        W28831  27.160   1.089   4.365
64012W        W28832   2.736  35.298  13.496
64013W        W28833  17.680  14.776  14.219
64014W        W28834  29.625   3.320   2.936
64015W        W28835  44.302  31.226   3.996
64016W        W28836  12.353   5.415   2.772
64017W        W28837  40.334  20.639   1.928
64018W        W28838  26.222  32.370  14.379
64019W        W28839  38.085  16.704   2.857
64020W        W28840  30.557  44.499  11.161
64021W        W28841  42.332  20.152   3.420
64022W        W28842  12.819  10.647   4.077
64023W        W28843  26.384  13.233  13.026
64024W        W28844  23.599  44.887   1.340
64025W        W28845  13.284  28.396   0.253
64026W        W28846  33.225  43.321   0.319
64027W        W28847   0.377  23.734   3.810
64028W        W28848  23.516  36.483   2.798
64029W        W28849  44.521  39.729  11.170
64030W        W28850  24.119  16.305  14.673
64031W        W28851   4.376  35.436  12.506
64032W        W28852  40.247  18.269   1.705
64033W        W28853  15.077  13.118   3.607
64034W        W28854   4.420  31.889   4.808
64035W        W28855  22.286  44.569  11.656
64036W        W28856  32.428   2.172   1.315
64037W        W28857  30.432  44.971   4.465
64038W        W28858  31.262  19.027   3.161
64039W        W28859   8.090  41.982   1.931
64040W        W28860  14.290  14.838  10.689
64041W        W28861  18.602  17.320  13.523
64042W        W28862  36.242  32.187   5.107
64043W        W28863  20.213  30.154   4.966
64044W        W28864  19.397  12.119  12.947
64045W        W28865  36.125  39.412  14.958
64046W        W28866   5.729  17.671   1.140
64047W        W28867  40.496  43.632  11.126
64048W        W28868  39.968   0.283   1.643
64049W        W28869  34.630   6.835  12.871
64050W        W28870  20.620  10.695   4.219
64051W        W28871   2.387  37.187   4.136
64052W        W28872  26.264   4.477   0.420
64053W        W28873  35.369  44.762  13.106
64054W        W28874  28.497  32.319   4.490
64055W        W28875   0.431  35.775  13.309
64056W        W28876  34.403  39.392  11.174
64057W        W28877   7.528  33.463   2.679
64058W        W28878  44.870   1.850   0.020
64059W        W28879  37.947   1.179  13.094
64060W        W28880  21.792  15.311   3.247
64061W        W28881   5.801   2.046  10.711
64062W        W28882  20.513  29.941  12.565
64063W        W28883  11.425  28.536  11.994
64064W        W28884  22.201  33.425  12.053
64065W        W28885  41.285  11.264  11.459
64066W        W28886  18.812   7.760   1.749
64067W        W28887  41.458   9.457   0.634
64068W        W28888   3.706   7.644  13.958
64069W        W28889  24.830  22.094   5.049
64070W        W28890  24.665  29.594   0.472
64071W        W28891  21.566  21.650   4.142
64072W        W28892   4.202   1.462  12.555
64073W        W28893  13.550   5.081  11.125
64074W        W28894  32.051  38.014  13.837
64075W        W28895  25.541  36.266   4.432
64076W        W28896  34.624  13.504  12.982
64077W        W28897  16.116  34.663  12.502
64078W        W28898  25.085  42.354   1.476
64079W        W28899   4.633  39.885  12.421
64080W        W28900  38.875   6.904   1.446
64081W        W28901   5.238  37.872   0.878
64082W        W28902  12.154  10.122   0.909
64083W        W28903  15.353   2.420   0.914
64084W        W28904  12.309  33.803  13.379
64085W        W28905   5.351  21.075  14.372
64086W        W28906  14.819   2.550  13.456
64087W        W28907  34.536  35.446   3.854
64088W        W28908  41.878  15.302  12.232
64089W        W28909  10.289  44.444   1.027
64090W        W28910   7.930  10.714  14.985
64091W        W28911  43.274   5.360  14.917
64092W        W28912  12.863  31.721   2.133
64093W        W28913   0.490  32.976  11.838
64094W        W28914  43.959   2.701   3.259
64095W        W28915  40.793  17.277  10.720
64096W        W28916  43.570   7.294  12.128
64097W        W28917  33.951  20.033   1.508
64098W        W28918  22.683  35.630   2.014
64099W        W28919  22.965  20.751   2.884
64100W        W28920  29.180  33.621   4.173
64101W        W28921  44.386  15.076   2.322
64102W        W28922  11.631  19.516  11.441
64103W        W28923  20.871  13.966   1.765
64104W        W28924  23.676   2.381   4.636
64105W        W28925  15.253  18.611  13.444
64106W        W28926  28.442  27.033   0.389
64107W        W28927  33.209  13.823  11.581
64108W        W28928  27.460  12.192  13.008
64109W        W28929  20.773  10.202  12.914
64110W        W28930   7.423   4.845   3.287
64111W        W28931  16.096  36.952   0.431
64112W        W28932  34.513  24.860   3.707
64113W        W28933  17.737  23.191   1.202
64114W        W28934   2.887  33.418  12.058
64115W        W28935  19.908  14.694   1.232
64116W        W28936   1.678  20.739  11.726
64117W        W28937  24.053   7.174  13.315
64118W        W28938   4.756  43.505  12.798
64119W        W28939  43.182  15.195   3.604
64120W        W28940  42.292  37.440  12.951
64121W        W28941  31.185  22.984   0.784
64122W        W28942  18.909  21.689   3.332
64123W        W28943  27.347  18.218  14.488
64124W        W28944   4.800  32.112  12.900
64125W        W28945  23.361   2.959   1.152
64126W        W28946  44.855  14.403   0.471
64127W        W28947  25.661  26.085   3.730
64128W        W28948  38.444  36.920   4.545
64129W        W28949   4.759  37.792  10.691
64130W        W28950  24.055  15.681   3.253
64131W        W28951  17.569  15.195  13.449
64132W        W28952   3.817   5.747   3.151
64133W        W28953  21.649   5.714   2.152
64134W        W28954  24.919  10.724   1.306
64135W        W28955  29.836   1.171  14.353
64136W        W28956  27.864  12.675  11.249
64137W        W28957   9.150  36.174  12.427
64138W        W28958  20.189   4.680   0.482
64139W        W28959  15.666  44.442   1.330
64140W        W28960   5.210  20.069   4.072
64141W        W28961   5.314  22.527   2.360
64142W        W28962  24.182  35.933  13.664
64143W        W28963   1.825  28.491   3.643
64144W        W28964  41.572   8.487  11.190
64145W        W28965  36.974  12.396   0.106
64146W        W28966  32.668  21.652   4.694
64147W        W28967  31.251  23.363  12.098
64148W        W28968  25.950  15.866   2.701
64149W        W28969   0.053  18.217  12.309
64150W        W28970  25.459   5.458   2.558
64151W        W28971  39.490  34.947  11.810
64152W        W28972  36.564  15.692  10.557
64153W        W28973  14.315  37.146  13.770
64154W        W28974  33.155  21.452  13.245
64155W        W28975   6.833  36.920  14.323
64156W        W28976   9.576  28.957   3.560
64157W        W28977  30.512  11.186  14.265
64158W        W28978  41.210  39.850  12.965
64159W        W28979  24.562  38.081   1.814
64160W        W28980  11.783  24.517  10.827
64161W        W28981  18.299   7.836  13.360
64162W        W28982   9.709  15.879   1.314
64163W        W28983   3.380  20.531   3.334
64164W        W28984  13.225   6.765   1.345
64165W        W28985  37.970  18.544   2.988
64166W        W28986   0.023   0.317  12.083
64167W        W28987  17.185  18.253  13.286
64168W        W28988  22.029  26.017  13.861
64169W        W28989  25.513  30.895  12.155
64170W        W28990   7.359  21.243  12.927
64171W        W28991  19.259  32.349   4.375
64172W        W28992  20.298   4.746  14.268
64173W        W28993  16.861  20.555  13.805
64174W        W28994   6.310  21.032   2.819
64175W        W28995  37.534   2.864  13.420
64176W        W28996   6.307  30.159   0.101
64177W        W28997   0.531  16.139   1.769
64178W        W28998  43.764  44.656  11.134
64179W        W28999  43.974  27.945  13.970
64180W        W29000  27.291  24.951  11.581
64181W        W29001  29.956  21.509  13.757
64182W        W29002   1.201  11.884   2.337
64183W        W29003  16.265  20.655  13.498
64184W        W29004  35.756  27.550   5.313
64185W        W29005  29.236  35.549   3.610
64186W        W29006   3.805  38.280  10.896
64187W        W29007  20.754  43.440  10.543
64188W        W29008  29.692   4.439   3.222
64189W        W29009  10.835  27.266   2.251
64190W        W29010   3.137   1.532   2.153
64191W        W29011  37.536   6.926   1.048
64192W        W29012  43.106  42.556  14.350
64193W        W29013  22.285  17.974  10.704
64194W        W29014  33.683  13.309  11.296
64195W        W29015  16.076  28.848   1.350
64196W        W29016  25.944   9.336  14.568
64197W        W29017  22.292  42.723   1.024
64198W        W29018  21.240  30.659  14.804
64199W        W29019  35.425  43.557   4.551
64200W        W29020  41.495  42.014  13.864
64201W        W29021  30.807  13.155   4.039
64202W        W29022   7.141  22.529   4.108
64203W        W29023  38.438   4.892   2.774
64204W        W29024  20.709  16.778  12.271
64205W        W29025   6.719  15.617  13.786
64206W        W29026  14.112  30.657  14.224
64207W        W29027  18.740  13.399   0.822
64208W        W29028  21.280  39.246  12.078
64209W        W29029  13.812  11.891  13.934
64210W        W29030  16.667   0.394  11.200
64211W        W29031   8.443  24.259  14.208
64212W        W29032  13.050  28.214  13.990
64213W        W29033   5.450  28.206   4.807
64214W        W29034  12.021  35.825  12.071
64215W        W29035  37.163  26.236   4.147
64216W        W29036  34.878  26.886  11.694
64217W        W29037  20.157  38.911  13.653
64218W        W29038  29.061  35.750  11.619
64219W        W29039   9.896  25.001  10.137
64220W        W29040  42.305  43.663  11.522
64221W        W29041  23.296  33.440   0.029
64222W        W29042  18.523  25.273   4.390
64223W        W29043  27.742  22.801   3.211
64224W        W29044   4.297  42.380   4.680
64225W        W29045   9.499  20.169  14.778
64226W        W29046  40.727  25.183  13.601
64227W        W29047   5.229  34.206  14.337
64228W        W29048  32.840  29.599   2.708
64229W        W29049  32.643  43.253  12.889
64230W        W29050  44.025  13.725   4.260
64231W        W29051  20.368  15.341   5.094
64232W        W29052  32.412  18.124  14.698
64233W        W29053  29.916  42.053  11.647
64234W        W29054  12.295  23.602   4.123
64235W        W29055   4.833  15.266  10.418
64236W        W29056  44.765  44.867  11.141
64237W        W29057   8.903  37.164   3.609
64238W        W29058   8.693  34.573  13.517
64239W        W29059   9.718  41.277   4.714
64240W        W29060  19.142  17.038  14.004
64241W        W29061  20.257  36.516  13.073
64242W        W29062  26.547  42.553  11.685
64243W        W29063   7.050  25.189  10.450
64244W        W29064  28.832  21.225   2.184
64245W        W29065  22.863  32.245  14.117
64246W        W29066  39.107  10.844  12.525
64247W        W29067  18.032  17.602   2.296
64248W        W29068   5.427  10.920  13.513
64249W        W29069  34.652  23.731   2.275
64250W        W29070  29.856  34.638  12.110
64251W        W29071  25.958  29.532  12.570
64252W        W29072  37.254  10.368  13.434
64253W        W29073   2.291  25.628  14.408
64254W        W29074  23.522  33.562  10.547
64255W        W29075  38.013  25.152  13.991
64256W        W29076  44.692  38.753   1.382
64257W        W29077   5.784  42.543   0.788
64258W        W29078  38.054  32.068  11.645
64259W        W29079  17.972   8.864  10.683
64260W        W29080  29.729  30.583   4.696
64261W        W29081  37.072  15.731   1.161
64262W        W29082  19.256   7.873  14.406
64263W        W29083  27.694  10.758  10.294
64264W        W29084  44.982  26.671   1.297
64265W        W29085  44.848   8.408  12.956
64266W        W29086  28.152  31.908  10.837
64267W        W29087  41.252  37.961   4.621
64268W        W29088  27.719  13.100  12.412
64269W        W29089   4.452  20.266  11.159
64270W        W29090  39.546  26.564  10.217
64271W        W29091   5.025  31.603  14.798
64272W        W29092  32.516  36.167  14.936
64273W        W29093  14.519  39.668   0.821
64274W        W29094  32.415  35.832  14.585
64275W        W29095   3.139  14.182  11.176
64276W        W29096   0.727  34.794  11.197
64277W        W29097  14.244  20.183   3.644
64278W        W29098   6.485  32.300  11.246
64279W        W29099   1.294  37.009  11.091
64280W        W29100  20.371  41.276  10.997
64281W        W29101   1.960   9.742   1.174
64282W        W29102  38.118  27.935   5.021
64283W        W29103  34.928  22.748  11.995
64284W        W29104   2.496  37.527  12.045
64285W        W29105  33.042  34.377  14.962
64286W        W29106  35.438  17.817  12.926
64287W        W29107  36.762   1.916  11.876
64288W        W29108   1.411   7.846  11.546
64289W        W29109  38.099  10.353  12.566
64290W        W29110  22.270  24.447   1.963
64291W        W29111  42.806   1.763  11.138
64292W        W29112  14.594   4.393   3.163
64293W        W29113   0.058  33.646  11.237
64294W        W29114  17.160  42.968  10.175
64295W        W29115  26.181   0.242   3.246
64296W        W29116  36.166  17.809  14.753
64297W        W29117  38.466  38.082  12.849
64298W        W29118  25.510  30.214  10.711
64299W        W29119  10.129  41.034   1.463
64300W        W29120  31.525  38.491  14.017
64301W        W29121   4.684  38.071  11.111
64302W        W29122  41.424  24.032  13.643
64303W        W29123  14.323   1.077  13.898
64304W        W29124  35.891  27.123  12.924
64305W        W29125  26.916  39.581   2.769
64306W        W29126  30.502   4.764   3.139
64307W        W29127  27.924  13.740   9.850
64308W        W29128  35.548   5.820  14.778
64309W        W29129  33.576   0.731  10.543
64310W        W29130   1.339  21.000  14.264
64311W        W29131  44.218  26.488   3.656
64312W        W29132  42.678  10.104  14.820
64313W        W29133  29.604  37.363   4.178
64314W        W29134  44.306  15.007  12.184
64315W        W29135  20.965  38.376  12.365
64316W        W29136  32.990  31.437  12.592
64317W        W29137  12.331  20.631  11.088
64318W        W29138  35.845  16.914  12.953
64319W        W29139  39.562  44.286   2.350
64320W        W29140  22.450  40.076   0.045
64321W        W29141  23.278  39.102   2.381
64322W        W29142  41.284  13.790   4.079
64323W        W29143   8.391  44.802   3.387
64324W        W29144  28.611  10.688   2.226
64325W        W29145  36.033   5.010   3.909
64326W        W29146  43.143  12.791  10.001
64327W        W29147  13.067  32.211   2.240
64328W        W29148  27.711  38.004   2.842
64329W        W29149  33.590  30.705  11.406
64330W        W29150  23.484  15.123   2.647
64331W        W29151  39.075  24.471  10.702
64332W        W29152  20.638  14.854  13.335
64333W        W29153   4.821  31.181   4.976
64334W        W29154  44.431  15.294   4.605
64335W        W29155  17.178  11.342   0.468
64336W        W29156   0.186  16.666  11.809
64337W        W29157  13.233   8.268   3.143
64338W        W29158   0.031   6.349  13.098
64339W        W29159   7.600   0.547   2.900
64340W        W29160  33.471   9.161  10.340
64341W        W29161  12.139  42.576   2.215
64342W        W29162  15.528  30.125   0.636
64343W        W29163  31.379  26.562   3.708
64344W        W29164  19.810  22.793  13.489
64345W        W29165  26.576  30.345  13.492
64346W        W29166   8.336  41.989   3.709
64347W        W29167   6.736  14.880  14.380
64348W        W29168  23.390   2.444  13.501
64349W        W29169  10.617  40.496   1.700
64350W        W29170   0.840  12.930   3.607
64351W        W29171   9.247  23.173   2.851
64352W        W29172  44.560  27.568   0.515
64353W        W29173  33.964  28.684   2.615
64354W        W29174  33.911  14.658   3.533
64355W        W29175  37.886  29.895   1.183
64356W        W29176  35.973  33.290  12.372
64357W        W29177  10.063  30.214  11.318
64358W        W29178  24.337  14.902  12.984
64359W        W29179  15.118  29.938   2.363
64360W        W29180  13.412  32.585  14.740
64361W        W29181   7.660   6.415  14.065
64362W        W29182  29.375   9.056   9.542
64363W        W29183   7.675   1.721  13.459
64364W        W29184  13.503  10.350   4.164
64365W        W29185  37.025  31.895   0.396
64366W        W29186   1.475  44.408   0.345
64367W        W29187  17.477   4.609  10.548
64368W        W29188  44.934  34.421   1.429
64369W        W29189  41.955  19.467   2.373
64370W        W29190  21.061  37.901   2.418
64371W        W29191   6.370   5.113   2.266
64372W        W29192  42.338   1.810   0.639
64373W        W29193  42.950   0.586  12.899
64374W        W29194   0.881  33.284  13.612
64375W        W29195  29.336  16.928  10.892
64376W        W29196  12.568  41.800  13.968
64377W        W29197   4.750  20.155   4.288
64378W        W29198  27.984  23.089   0.278
64379W        W29199   1.901  43.365   0.017
64380W        W29200  14.427  13.626   4.838
64381W        W29201  32.544   1.038  13.094
64382W        W29202  23.622  34.988   4.888
64383W        W29203  16.662  23.253   4.152
64384W        W29204  43.139   5.740   4.670
64385W        W29205  16.529  16.088   4.110
64386W        W29206  32.049  30.065   3.094
64387W        W29207   3.499  11.678   3.428
64388W        W29208  23.074  34.970  14.118
64389W        W29209  20.964  21.706   0.270
64390W        W29210  26.909  37.558   2.888
64391W        W29211   5.684  17.541   1.644
64392W        W29212  33.969  31.985  10.414
64393W        W29213   6.215   4.233   3.392
64394W        W29214  21.792   4.810  11.343
64395W        W29215  19.282  28.379   3.622
64396W        W29216  20.636  37.094   2.756
64397W        W29217  17.625  16.034   2.360
64398W        W29218  34.837  33.586   0.367
64399W        W29219  30.304   4.827  14.286
64400W        W29220  20.765  25.871  12.968
64401W        W29221  24.828  35.173  12.618
64402W        W29222  41.861  33.915  14.915
64403W        W29223  34.972  15.858   2.738
64404W        W29224  37.879  37.294  14.074
64405W        W29225   9.287  10.133  12.858
64406W        W29226  19.039   1.734  12.092
64407W        W29227   0.387  37.873   3.861
64408W        W29228   2.953  27.128   3.191
64409W        W29229  10.682  30.478   4.579
64410W        W29230   3.707  10.165   1.654
64411W        W29231  33.316   3.773   3.322
64412W        W29232  34.490  19.556   1.113
64413W        W29233  34.993  27.223  11.339
64414W        W29234  14.326   4.459  12.617
64415W        W29235  25.129  13.927  10.403
64416W        W29236  38.109  21.053   2.880
64417W        W29237  32.684  25.621  11.721
64418W        W29238   0.360   4.115   0.779
64419W        W29239  29.713   8.660  12.038
64420W        W29240  27.679   3.386   4.869
64421W        W29241  42.847   6.715   3.750
64422W        W29242   6.738  20.084  10.679
64423W        W29243  20.566   4.943  13.883
64424W        W29244  22.222  33.332   0.273
64425W        W29245  18.750  16.628  12.424
64426W        W29246   8.614   8.705   1.767
64427W        W29247  13.403  21.913  10.934
64428W        W29248  32.480  32.505   2.826
64429W        W29249  38.434   4.883  14.213
64430W        W29250  18.650  44.104   3.600
64431W        W29251  42.410  22.282  11.167
64432W        W29252  12.362   7.057  12.986
64433W        W29253  35.185   0.808  11.106
64434W        W29254  23.473  14.365   2.172
64435W        W29255   4.770  15.506   4.380
64436W        W29256  18.833  36.426  13.497
64437W        W29257   6.476  13.182   1.252
64438W        W29258   5.384  10.402  13.361
64439W        W29259   0.602  16.559  13.984
64440W        W29260  37.908  23.574  13.894
64441W        W29261   7.415  35.183   0.937
64442W        W29262  13.839   7.384  11.905
64443W        W29263  21.574  34.422   3.591
64444W        W29264  43.757   1.482  12.901
64445W        W29265  22.290  43.267   2.906
64446W        W29266   9.623  42.870   0.939
64447W        W29267  40.370  39.122  14.954
64448W        W29268  30.698   3.785   1.900
64449W        W29269  10.140   4.253   0.807
64450W        W29270   7.564   0.193   3.700
64451W        W29271   2.495  20.448  11.936
64452W        W29272  19.274  42.967   0.021
64453W        W29273  39.819  29.450  14.632
64454W        W29274   3.596  30.929   4.805
64455W        W29275  21.009  32.563   0.759
64456W        W29276  24.333  35.395  13.899
64457W        W29277   1.952   6.739   4.591
64458W        W29278  20.740  16.636  14.000
64459W        W29279  25.596   1.504   3.263
64460W        W29280   4.282   1.128  13.933
64461W        W29281  42.875   5.362   0.271
64462W        W29282  44.924  18.554  11.805
64463W        W29283  29.271  28.242   0.709
64464W        W29284  13.617   0.933  14.256
64465W        W29285  10.798  15.380  12.840
64466W        W29286  10.615  45.000  13.005
64467W        W29287   6.201   3.855   0.972
64468W        W29288  40.011  40.741  13.073
64469W        W29289  44.078  24.656  14.453
64470W        W29290  11.718  44.481   3.729
64471W        W29291   6.303  10.781  13.373
64472W        W29292   1.353   7.896   4.304
64473W        W29293  28.361  28.342   2.344
64474W        W29294  15.674  42.175   4.482
64475W        W29295  17.306  16.210  10.784
64476W        W29296  27.493   6.474  11.518
64477W        W29297   8.806  41.386  11.286
64478W        W29298  12.940   1.899  14.960
64479W        W29299  24.076  38.359   0.825
64480W        W29300  44.800  16.661   1.917
64481W        W29301  22.369   3.204   0.259
64482W        W29302   3.750  22.101   0.205
64483W        W29303   4.662  33.852   3.381
64484W        W29304  39.534  35.455  14.046
64485W        W29305  34.280  34.829  14.865
64486W        W29306  11.735  25.135   4.178
64487W        W29307  44.761   9.159   3.008
64488W        W29308  26.107   1.488   1.906
64489W        W29309   1.881  40.995   4.855
64490W        W29310  30.955  18.292  13.006
64491W        W29311  36.406  34.657   9.702
64492W        W29312  25.272  25.701  11.469
64493W        W29313  17.216   5.952   0.511
64494W        W29314  22.895  34.494   3.240
64495W        W29315  11.549  32.336   0.167
64496W        W29316   1.713  22.211   2.693
64497W        W29317  22.214   0.911  10.516
64498W        W29318  16.109   4.395  14.983
64499W        W29319  28.352  42.712   3.847
64500W        W29320  39.607  15.784  13.448
64501W        W29321  39.645   8.699  12.192
64502W        W29322  33.614  23.777   1.327
64503W        W29323  35.882   3.924   0.451
64504W        W29324  17.224  31.085  14.476
64505W        W29325   2.038  41.364   1.150
64506W        W29326  20.206   3.838  14.566
64507W        W29327  10.265  30.375   0.250
64508W        W29328  34.631   9.433   2.897
64509W        W29329  31.628  23.257  11.093
64510W        W29330  12.117   5.211   0.032
64511W        W29331  23.325  15.732  14.710
64512W        W29332   9.560  36.490  13.715
64513W        W29333  20.297  42.905  12.579
64514W        W29334  33.671   4.661  12.408
64515W        W29335  28.451   2.384   2.097
64516W        W29336  17.261   3.208   3.228
64517W        W29337  16.796  33.402  14.499
64518W        W29338  10.262  23.421  14.391
64519W        W29339  11.209   2.939  11.131
64520W        W29340  24.130   1.829   0.003
64521W        W29341  40.003  43.689   4.477
64522W        W29342  13.809  41.267  10.712
64523W        W29343   4.928  43.240   4.790
64524W        W29344  14.833  26.383   3.658
64525W        W29345  37.120   0.434  14.827
64526W        W29346  28.157  27.270   1.679
64527W        W29347  35.015  43.003  10.252
64528W        W29348  26.841  22.179  13.026
64529W        W29349  35.360  27.641   0.290
64530W        W29350  36.121  12.729  11.568
64531W        W29351   2.174  16.015  13.051
64532W        W29352   5.151  39.002  11.843
64533W        W29353   1.772  21.031   0.066
64534W        W29354  24.192  10.052  13.431
64535W        W29355  39.992   1.760  10.700
64536W        W29356  31.639  31.000  14.027
64537W        W29357  11.487   4.714   1.003
64538W        W29358  36.530  28.702  14.367
64539W        W29359  14.937   8.796   1.262
64540W        W29360  38.071  33.164  10.486
64541W        W29361  13.675  40.552  11.083
64542W        W29362   6.220  41.019   2.189
64543W        W29363  34.595  43.771  14.071
64544W        W29364  39.842   3.952   3.644
64545W        W29365  13.819   9.800   3.388
64546W        W29366  33.551  10.925   0.314
64547W        W29367  28.697   6.258   3.146
64548W        W29368   6.633  29.007  12.563
64549W        W29369   5.998   4.165  12.637
64550W        W29370  36.414  17.269   4.078
64551W        W29371  19.617  22.989   4.860
64552W        W29372  20.174  24.030   4.361
64553W        W29373   9.026  20.289   2.786
64554W        W29374  32.461   1.248  11.245
64555W        W29375   5.720  24.117  13.869
64556W        W29376  23.752  33.320  11.990
64557W        W29377  37.019  37.256  11.242
64558W        W29378   9.506  44.016  12.538
64559W        W29379  27.387  14.044  12.486
64560W        W29380  16.776  34.846   2.863
64561W        W29381  36.424   9.856   2.590
64562W        W29382  35.208  22.639   0.377
64563W        W29383  43.315  37.764  13.890
64564W        W29384   5.261  31.182   3.402
64565W        W29385  32.638  10.074  12.108
64566W        W29386  10.304   2.447  12.310
64567W        W29387  17.143  21.583   4.781
64568W        W29388  27.879   1.478  11.982
64569W        W29389  23.643   2.498   0.264
64570W        W29390   2.451  25.070  14.891
64571W        W29391  37.570  10.906  12.592
64572W        W29392  23.121   4.420   3.698
64573W        W29393  27.435  27.466  14.234
64574W        W29394  42.697   4.219  12.862
64575W        W29395  16.598  28.663  14.803
64576W        W29396  28.056  11.434   1.363
64577W        W29397   8.374  11.514   3.022
64578W        W29398  18.036  15.607  13.003
64579W        W29399  40.695  19.681   4.122
64580W        W29400  11.182  36.815   2.649
64581W        W29401  34.119  18.665  13.374
64582W        W29402  29.597  38.129  14.953
64583W        W29403  36.423  11.737   3.053
64584W        W29404   1.779  42.410   4.734
64585W        W29405  15.260  17.153  12.081
64586W        W29406  17.252   6.976   0.774
64587W        W29407  31.011   2.974   2.759
64588W        W29408  44.187  16.916  14.805
64589W        W29409  21.557   8.880   2.399
64590W        W29410  17.192  20.014  11.895
64591W        W29411   9.481  18.225  11.636
64592W        W29412  25.030   0.876   2.842
64593W        W29413   4.695  41.043   4.998
64594W        W29414  43.518  22.490   3.145
64595W        W29415  18.811  28.171  13.080
64596W        W29416   2.364  31.232   1.357
64597W        W29417  30.737  44.384   9.743
64598W        W29418  43.617  11.694  11.260
64599W        W29419  23.447  21.766   1.258
64600W        W29420  24.051  24.171  14.778
64601W        W29421   1.378  29.676   1.923
64602W        W29422   0.423  44.257  11.159
64603W        W29423  38.616  36.515   1.804
64604W        W29424  16.184  39.496   2.376
64605W        W29425   3.833   0.790   2.312
64606W        W29426   9.275  27.451   3.544
64607W        W29427  41.664  26.656   2.718
64608W        W29428  29.880  31.445   1.992
64609W        W29429   9.260   0.560  13.045
64610W        W29430  19.817  20.560   1.773
64611W        W29431  38.973  15.718  10.857
64612W        W29432  13.838  44.872   2.109
64613W        W29433  21.618  33.166   2.204
64614W        W29434  43.783   6.839  14.302
64615W        W29435  31.942  18.709   3.747
64616W        W29436   7.293  41.234   0.683
64617W        W29437  24.752  17.206   3.606
64618W        W29438  22.179  38.937   0.236
64619W        W29439  38.912  34.506   2.299
64620W        W29440  14.836  25.361  13.091
64621W        W29441   3.691  26.630   1.541
64622W        W29442  36.880   5.100  11.616
64623W        W29443   5.319  25.529   2.864
64624W        W29444   7.948  42.211  12.452
64625W        W29445  41.978  14.095   0.442
64626W        W29446  10.798  36.577  12.962
64627W        W29447  42.879  32.923   0.828
64628W        W29448  23.694  35.921  12.025
64629W        W29449  12.702   9.143  12.863
64630W        W29450  24.632  35.907  13.940
64631W        W29451  36.005  35.296  11.139
64632W        W29452  34.179  26.219   4.551
64633W        W29453  27.014  39.082   2.080
64634W        W29454   5.478  14.186  10.734
64635W        W29455  17.327   0.518  11.622
64636W        W29456  40.725  43.487  13.403
64637W        W29457  21.557  22.128   1.572
64638W        W29458  16.131   8.426  10.747
64639W        W29459  26.983  28.112  14.030
64640W        W29460  32.548   3.214   1.286
64641W        W29461  11.770   2.558   3.705
64642W        W29462   2.492  42.895   3.239
64643W        W29463  34.125  26.600   3.792
64644W        W29464  43.319  13.863   3.639
64645W        W29465  32.197   2.653   0.909
64646W        W29466  40.557  12.422   0.347
64647W        W29467  22.989  15.333   2.633
64648W        W29468   1.033  35.461   3.384
64649W        W29469  17.028   0.696   3.208
64650W        W29470  12.539  26.600  12.672
64651W        W29471  22.263  11.104  13.451
64652W        W29472  31.366  34.533   1.623
64653W        W29473   3.948  34.360  11.176
64654W        W29474   2.086  37.928  13.326
64655W        W29475   2.263  25.493   4.936
64656W        W29476  41.264  12.360  10.922
64657W        W29477  41.921  24.259   0.780
64658W        W29478  40.762  41.951  12.224
64659W        W29479   0.715  35.869   1.783
64660W        W29480  28.154  10.615   3.802
64661W        W29481  13.834  21.589  14.867
64662W        W29482  20.769  41.537  11.189
64663W        W29483   1.545  16.230   3.196
64664W        W29484  10.341   2.203   2.441
64665W        W29485  40.489  27.923  11.437
64666W        W29486   6.688   4.818  14.243
64667W        W29487  12.428  18.354  14.838
64668W        W29488  22.270   5.156   1.334
64669W        W29489   8.832  43.446   4.554
64670W        W29490  20.190  23.544   4.194
64671W        W29491  18.062   2.948   3.704
64672W        W29492   4.387  16.550   0.956
64673W        W29493   3.858  44.750   2.243
64674W        W29494  35.411  13.078   3.488
64675W        W29495  32.440  33.704   0.180
64676W        W29496   5.465  28.847   5.634
64677W        W29497  11.707   5.482  12.501
64678W        W29498  44.658  12.067  11.091
64679W        W29499  11.155  29.139   9.805
64680W        W29500  41.519  26.354   2.317
64681W        W29501  17.743  26.212   3.767
64682W        W29502  21.515   4.012  12.876
64683W        W29503  12.473  31.440  13.475
64684W        W29504  25.825  26.045  14.915
64685W        W29505   3.815  38.733  12.406
64686W        W29506   8.216   0.526  12.096
64687W        W29507  14.399   3.574   4.842
64688W        W29508   2.942  23.769  14.479
64689W        W29509  15.598  13.766   1.653
64690W        W29510  33.011  36.566   1.021
64691W        W29511  31.551  30.125   2.867
64692W        W29512  12.792  43.168   2.723
64693W        W29513  42.398  11.055  11.286
64694W        W29514   2.589  29.974   2.629
64695W        W29515   2.543  36.243   2.221
64696W        W29516  29.139  31.053   4.134
64697W        W29517  13.430  15.261   5.112
64698W        W29518  36.395  16.911   2.261
64699W        W29519  38.341  18.194  14.788
64700W        W29520  12.711   1.413   4.384
64701W        W29521  27.286  35.004  13.586
64702W        W29522  25.986  39.204   3.702
64703W        W29523  24.827  32.930   4.842
64704W        W29524  10.390  27.925  14.427
64705W        W29525  26.566  31.542   2.597
64706W        W29526  16.656  24.197  12.809
64707W        W29527  20.934  22.237   0.867
64708W        W29528   7.486  36.533  12.461
64709W        W29529   1.823  21.700  14.542
64710W        W29530  13.134   7.308  13.794
64711W        W29531  34.678  29.654   2.299
64712W        W29532  17.516  17.339  14.239
64713W        W29533  43.563  22.557   1.613
64714W        W29534  38.391  29.322  13.247
64715W        W29535  29.137   0.791  10.654
64716W        W29536  39.514  12.817  12.398
64717W        W29537   8.850  26.575   0.745
64718W        W29538  21.583  35.006  10.349
64719W        W29539   1.476  12.800   2.301
64720W        W29540   3.876  44.178   2.222
64721W        W29541  21.547  41.634  12.156
64722W        W29542  12.265  18.463   0.818
64723W        W29543  42.498   6.615   1.113
64724W        W29544  28.114  42.347  11.502
64725W        W29545  37.328   7.250  13.010
64726W        W29546  32.259  23.928  12.023
64727W        W29547  18.964  12.715  11.048
64728W        W29548  44.747   3.716   3.234
64729W        W29549   0.198   0.721   1.834
64730W        W29550  33.895   1.169   0.935
64731W        W29551  29.923   1.172  11.178
64732W        W29552   0.725   3.652  14.975
64733W        W29553   2.729   6.283  12.814
64734W        W29554  10.827  13.185   2.650
64735W        W29555  35.647  36.099  13.369
64736W        W29556  44.222   5.616   4.017
64737W        W29557  13.445  20.688  10.686
64738W        W29558  43.490   3.460   3.201
64739W        W29559  43.507   6.666   2.589
64740W        W29560  38.696   1.232  10.042
64741W        W29561  22.192  15.799  14.589
64742W        W29562  41.332  42.198  10.723
64743W        W29563  14.670  32.453   0.382
64744W        W29564  36.520  30.380  12.530
64745W        W29565   8.928  15.696   2.794
64746W        W29566  34.995  31.050  10.479
64747W        W29567  42.733  23.168   4.777
64748W        W29568  20.045  31.021   0.393
64749W        W29569  33.645  11.074  10.638
64750W        W29570  33.116   8.694  13.366
64751W        W29571   3.818   3.963  12.009
64752W        W29572  10.753  43.806  12.363
64753W        W29573   7.943  26.557   1.326
64754W        W29574  27.132   7.245   1.715
64755W        W29575   1.865  37.731   1.617
64756W        W29576  29.952  41.681   2.864
64757W        W29577   2.017  29.076  13.647
64758W        W29578  40.544  42.326  11.900
64759W        W29579  28.580   5.715  11.254
64760W        W29580  13.950   0.528  14.362
64761W        W29581  27.587  41.523   1.863
64762W        W29582  22.150   6.830   3.698
64763W        W29583   9.208  35.789  13.237
64764W        W29584  26.608  15.497   1.291
64765W        W29585  24.941  31.996  11.991
64766W        W29586  26.145   0.492   4.709
64767W        W29587  19.240  11.292   2.369
64768W        W29588  35.298  12.133  13.377
64769W        W29589  14.598   7.058   4.551
64770W        W29590  39.153  11.522   4.687
64771W        W29591  14.738  28.522   1.525
64772W        W29592  27.727  33.656  13.548
64773W        W29593   3.913   1.812  12.828
64774W        W29594  37.621  19.132   2.285
64775W        W29595  30.669   2.938  14.434
64776W        W29596  13.103  38.446   3.282
64777W        W29597  34.621  42.550   1.484
64778W        W29598   3.425  30.050  10.921
64779W        W29599  22.062  18.103   4.112
64780W        W29600  14.766  35.833   1.719
64781W        W29601  43.433  25.271  12.007
64782W        W29602  22.622  29.017   2.353
64783W        W29603  18.828  38.518   3.474
64784W        W29604   1.884  36.619   4.489
64785W        W29605  18.767  32.674  11.036
64786W        W29606  10.287   0.723  14.265
64787W        W29607  35.060   4.390  11.929
64788W        W29608  43.296  44.277   0.450
64789W        W29609  37.163  21.686   0.190
64790W        W29610   5.778  34.532  14.951
64791W        W29611   7.238  39.057   2.257
64792W        W29612  27.935  34.367   1.149
64793W        W29613  39.438   7.282   3.278
64794W        W29614  13.302  30.442   4.072
64795W        W29615  22.769  14.841   1.298
64796W        W29616   2.364  20.140  13.209
64797W        W29617  43.436  11.858   1.173
64798W        W29618   5.243   0.650   4.159
64799W        W29619  18.532  20.774  11.179
64800W        W29620  42.277  42.264  14.519
64801W        W29621  16.035  42.819  14.513
64802W        W29622  42.340   4.980  12.200
64803W        W29623  43.728  25.656   3.450
64804W        W29624  43.173   8.803   5.128
64805W        W29625  18.812   4.756   1.412
64806W        W29626  44.713  41.537   4.467
64807W        W29627   2.991  41.517   1.299
64808W        W29628  37.915  34.155  11.654
64809W        W29629  21.006  22.558  14.560
64810W        W29630  28.229  28.849  12.981
64811W        W29631  29.418  10.534  14.392
64812W        W29632  16.250   9.701   1.026
64813W        W29633  24.577  17.830   0.314
64814W        W29634  16.580   3.930   1.418
64815W        W29635   4.651  12.502  13.201
64816W        W29636  21.678  42.266   1.364
64817W        W29637   1.909  34.516   3.665
64818W        W29638   2.333  24.675   0.265
64819W        W29639  37.634   6.596  12.818
64820W        W29640  16.128  22.712  11.393
64821W        W29641   7.181  14.190  13.777
64822W        W29642  23.411  34.499   3.132
64823W        W29643  31.087  36.089  14.776
64824W        W29644   3.707  24.057  14.311
64825W        W29645  32.655   9.768  13.427
64826W        W29646  21.159  38.398   2.626
64827W        W29647  21.492  11.071  13.900
64828W        W29648  28.356  18.276  14.584
64829W        W29649  30.401  41.429   1.458
64830W        W29650  36.876  12.190  13.742
64831W        W29651  28.219  23.144  13.323
64832W        W29652   3.426   2.209   3.255
64833W        W29653   2.325  39.911  12.194
64834W        W29654  29.745  16.268   9.161
64835W        W29655   6.186  31.910  11.484
64836W        W29656   6.127   9.430  13.084
64837W        W29657  27.166  19.082   2.867
64838W        W29658   9.808  41.773  10.681
64839W        W29659  19.115  27.157  12.429
64840W        W29660  23.161  41.996  14.974
64841W        W29661  40.553  20.150  11.584
64842W        W29662  25.966   1.277  14.789
64843W        W29663  23.644  16.103   2.807
64844W        W29664   9.958  23.581  12.006
64845W        W29665  30.747  32.786  14.451
64846W        W29666   4.526  22.735  10.673
64847W        W29667  43.546  15.152  11.175
64848W        W29668   3.160  23.616  13.921
64849W        W29669  25.935   9.804  12.967
64850W        W29670  26.659  22.913  12.888
64851W        W29671  15.009  28.144  13.856
64852W        W29672  27.598  21.001  14.003
64853W        W29673  29.233  35.007   1.189
64854W        W29674  23.197  10.411   4.586
64855W        W29675  24.060  30.102  11.457
64856W        W29676  34.484  35.798  12.403
64857W        W29677  21.106  28.092  11.111
64858W        W29678  18.060  27.420   0.960
64859W        W29679   9.370   2.758   3.632
64860W        W29680  19.013  33.961   2.203
64861W        W29681   8.679  13.233  10.768
64862W        W29682  17.430  40.733  10.780
64863W        W29683  18.023  35.592   1.286
64864W        W29684   8.318  23.042  12.526
64865W        W29685   1.198  26.948  14.782
64866W        W29686  31.332  16.736   4.319
64867W        W29687   3.438  43.423   3.704
64868W        W29688  36.108  18.702  13.395
64869W        W29689  26.470  22.754  14.804
64870W        W29690  32.444  19.867  13.956
64871W        W29691  14.234   6.116  14.841
64872W        W29692  18.810  35.997   1.467
64873W        W29693  37.907  43.845   3.728
64874W        W29694  17.960   8.127   0.696
64875W        W29695   7.872  16.431   3.235
64876W        W29696  14.817  19.933   4.911
64877W        W29697  44.988  18.014   2.902
64878W        W29698   6.755  16.692   3.571
64879W        W29699  27.685  26.554   1.334
64880W        W29700  37.908  31.482   0.716
64881W        W29701  35.432  28.251  12.572
64882W        W29702  33.721  35.365   0.653
64883W        W29703  19.789  20.579   4.658
64884W        W29704  27.943  27.959   0.965
64885W        W29705   6.926  22.034   0.844
64886W        W29706  26.503  32.286  13.969
64887W        W29707  34.003   7.935   0.353
64888W        W29708  44.059  36.496  13.423
64889W        W29709  43.919  26.123   1.099
64890W        W29710  38.248  36.937  11.973
64891W        W29711  29.160   6.893  14.223
64892W        W29712   8.166  44.261  12.587
64893W        W29713   7.847  22.686   3.805
64894W        W29714  40.914   6.522  10.775
64895W        W29715  14.813  39.844  14.882
64896W        W29716   8.400  39.591   0.172
64897W        W29717  20.504  43.703  14.942
64898W        W29718  17.247  25.773   0.474
64899W        W29719  21.666  30.989   2.404
64900W        W29720   2.602   8.906   4.867
64901W        W29721  18.255  24.101  14.898
64902W        W29722  31.029  18.197  12.054
64903W        W29723  24.613   5.295  11.625
64904W        W29724  31.100  35.884  13.876
64905W        W29725   3.365  25.305   4.301
64906W        W29726  21.240   1.902   0.266
64907W        W29727  13.901  16.135  11.726
64908W        W29728  36.119   7.921  14.958
64909W        W29729   5.683  13.053   2.286
64910W        W29730   7.374  26.167  12.061
64911W        W29731  27.045  15.524   4.245
64912W        W29732  25.485  11.619  11.706
64913W        W29733  17.405  42.351  11.021
64914W        W29734  40.293   4.499  13.772
64915W        W29735  14.873  37.491   4.915
64916W        W29736  31.088  42.307   4.137
64917W        W29737  42.355   3.159  13.517
64918W        W29738   9.708   9.894  11.465
64919W        W29739   8.639  31.420   1.178
64920W        W29740  30.036  41.870  14.455
64921W        W29741  27.379  31.934  14.929
64922W        W29742  36.371  41.513   2.644
64923W        W29743   7.675  16.904   3.170
64924W        W29744  26.624  28.680   4.038
64925W        W29745   1.499  43.498  12.496
64926W        W29746   8.863  27.595   3.130
64927W        W29747  20.734   7.129   4.115
64928W        W29748  16.378  44.377  13.486
64929W        W29749  35.393  29.946  10.612
64930W        W29750   6.222  30.641   1.980
64931W        W29751   5.908  17.584  11.392
64932W        W29752  23.707   2.854   1.761
64933W        W29753  13.182  30.022  14.433
64934W        W29754  12.038   4.491  10.418
64935W        W29755  23.211  22.179   2.595
64936W        W29756   3.443  26.895   2.817
64937W        W29757  40.088  13.390  12.949
64938W        W29758   2.522  18.705   2.793
64939W        W29759  11.288  21.422   2.726
64940W        W29760  12.764  38.329   1.389
64941W        W29761  19.534  25.459   4.199
64942W        W29762  15.837  38.279  14.232
64943W        W29763   8.864   7.388   1.259
64944W        W29764  28.821  34.588  12.204
64945W        W29765   4.393  14.666  11.946
64946W        W29766  32.103  20.343  13.058
64947W        W29767  16.155  44.546   4.521
64948W        W29768   9.497  10.682   1.091
64949W        W29769  34.965  20.105  14.800
64950W        W29770  16.039  40.325   1.775
64951W        W29771  39.220  18.383   2.383
64952W        W29772  23.735   8.901   2.285
64953W        W29773  33.567   3.637  11.170
64954W        W29774  41.501   4.891  11.045
64955W        W29775  32.626  36.997  13.880
64956W        W29776   3.048  27.236  12.475
64957W        W29777  29.502   1.217   0.940
64958W        W29778  25.579   5.239   1.407
64959W        W29779  22.763  13.812   1.300
64960W        W29780  16.526  22.669  10.659
64961W        W29781  35.953  34.059  14.997
64962W        W29782   2.153  22.047  12.878
64963W        W29783  10.715  43.820   4.423
64964W        W29784  44.995  22.630   3.195
64965W        W29785  18.268   4.733   2.220
64966W        W29786   6.978  25.745  12.067
64967W        W29787   8.354   1.008   1.736
64968W        W29788  41.057  14.488  11.150
64969W        W29789  41.262   1.347   4.040
64970W        W29790  35.733   4.979  12.341
64971W        W29791  12.803  43.367   3.636
64972W        W29792  17.746  18.648   3.900
64973W        W29793  27.991  42.900   2.414
64974W        W29794   2.223  10.667  12.646
64975W        W29795  44.289  19.587   0.299
64976W        W29796  17.618  35.010  12.447
64977W        W29797   5.348   7.223   1.391
64978W        W29798   1.560  44.040  14.994
64979W        W29799  43.061  13.216  14.470
64980W        W29800  16.916  43.851  12.016
64981W        W29801  35.593  17.017   0.522
64982W        W29802   4.879   2.683  11.679
64983W        W29803  41.442  33.733   0.952
64984W        W29804  43.213  37.459   3.707
64985W        W29805  32.065  41.863  11.168
64986W        W29806  43.971   2.421   4.727
64987W        W29807  29.582  22.527   2.492
64988W        W29808  26.363  29.227  12.481
64989W        W29809  30.028  17.589   5.026
64990W        W29810   7.208  33.941  12.100
64991W        W29811  42.571   2.200   0.909
64992W        W29812  33.096  21.008  11.607
64993W        W29813  25.159  15.814  14.744
64994W        W29814  13.253  44.855  14.037
64995W        W29815  13.221  40.012   1.156
64996W        W29816  23.532  16.132   0.854
64997W        W29817  16.836  14.183   1.286
64998W        W29818   3.593  36.898  12.062
64999W        W29819   3.135  20.767  11.225
65000W        W29820   8.562  25.007   1.636
65001W        W29821  13.098  43.801   4.208
65002W        W29822  27.448  23.518   1.518
65003W        W29823  38.097  21.030  11.136
65004W        W29824  31.508   9.400   0.568
65005W        W29825  13.923  44.791   1.600
65006W        W29826  34.565  26.104   2.653
65007W        W29827   7.617  35.094  13.666
65008W        W29828  36.571  43.193   4.596
65009W        W29829  36.123  42.813  14.593
65010W        W29830   5.820  12.436  14.016
65011W        W29831  38.705  44.946  10.656
65012W        W29832  12.043  17.460   4.179
65013W        W29833  38.910  10.729  10.674
65014W        W29834  14.564  36.075  11.223
65015W        W29835  28.998  18.610  12.670
65016W        W29836  26.765  16.097  13.809
65017W        W29837  28.516  27.978  14.036
65018W        W29838  18.090  30.174   4.077
65019W        W29839  28.397  19.940  13.952
65020W        W29840  38.844  20.949   2.294
65021W        W29841  21.138  34.666   0.199
65022W        W29842  23.338   4.073   0.207
65023W        W29843   2.836   0.798  14.471
65024W        W29844  32.108  36.317  12.041
65025W        W29845   2.794  10.151  14.803
65026W        W29846  21.520  21.074  14.204
65027W        W29847  22.387  26.889  14.810
65028W        W29848  16.941  20.511   1.372
65029W        W29849  21.315   4.290   2.183
65030W        W29850  42.977  25.607   2.343
65031W        W29851  10.762  26.172   4.208
65032W        W29852  25.585  13.292   4.175
65033W        W29853  12.663  26.897   3.703
65034W        W29854   4.722  30.902  12.451
65035W        W29855   8.859  13.294  13.167
65036W        W29856   4.456  14.608  13.175
65037W        W29857  41.005   0.735   2.176
65038W        W29858   9.419   2.517  12.797
65039W        W29859   9.937   0.738  13.847
65040W        W29860  10.557  34.427  13.426
65041W        W29861  39.585  28.474  14.933
65042W        W29862  43.817  20.667  10.470
65043W        W29863  13.302  25.743   2.277
65044W        W29864  24.222  43.402   3.433
65045W        W29865   7.942  44.702   3.724
65046W        W29866  16.390   5.567  12.825
65047W        W29867  16.107  34.104  10.392
65048W        W29868  25.942  35.605  12.175
65049W        W29869  10.259  16.195   3.024
65050W        W29870  27.674  36.000   3.345
65051W        W29871  16.465  43.281   1.663
65052W        W29872  29.978  22.952   1.899
65053W        W29873  37.437  34.952  14.011
65054W        W29874  31.913  28.128  11.922
65055W        W29875   9.499   7.904  14.771
65056W        W29876  15.392  17.716   1.445
65057W        W29877   8.425  11.731  14.370
65058W        W29878   9.857  22.473   2.811
65059W        W29879  14.525   7.717  12.405
65060W        W29880  41.341  33.644   4.304
65061W        W29881  44.441  26.503   5.274
65062W        W29882  18.211  31.947  10.034
65063W        W29883  17.636   3.182   2.193
65064W        W29884   0.245  13.735  13.386
65065W        W29885  17.747  18.984   2.915
65066W        W29886   9.327  25.103   3.675
65067W        W29887  44.476  27.207  11.557
65068W        W29888  33.664  12.161  13.961
65069W        W29889  29.656  27.004  14.000
65070W        W29890   5.762  33.076  13.857
65071W        W29891  37.926   4.257  14.901
65072W        W29892  14.196   0.827   3.915
65073W        W29893   5.393  19.545   3.190
65074W        W29894  21.445  40.855   1.197
65075W        W29895  42.791  18.178   2.613
65076W        W29896  16.759  10.744  11.256
65077W        W29897  43.594  29.781  13.897
65078W        W29898  44.207  28.890   0.548
65079W        W29899  14.552  41.311  11.805
65080W        W29900  28.507   7.685  12.601
65081W        W29901  11.372  41.052  13.938
65082W        W29902   4.443  22.042  11.663
65083W        W29903  11.124  14.721  10.759
65084W        W29904  30.463  25.775  14.348
65085W        W29905  20.244  28.815   0.280
65086W        W29906  32.657  11.514   0.330
65087W        W29907  31.587  25.411   2.745
65088W        W29908   8.827   5.416  13.410
65089W        W29909   3.134  43.405   2.317
65090W        W29910  44.214  43.884  10.698
65091W        W29911  29.876  26.915  10.681
65092W        W29912  43.527  21.144  11.165
65093W        W29913  36.418  32.438   4.618
65094W        W29914   5.752  36.924   0.992
65095W        W29915  36.442   4.410  11.304
65096W        W29916  19.893  37.934  10.228
65097W        W29917  32.615  38.473   3.735
65098W        W29918  12.279  38.212   5.024
65099W        W29919   6.699  21.118   0.981
65100W        W29920  31.847   9.132  11.361
65101W        W29921  29.062   4.028  12.974
65102W        W29922  39.110  41.367  10.999
65103W        W29923  10.769   3.355   1.818
65104W        W29924  31.111  29.080  14.221
65105W        W29925   0.856  15.051   4.624
65106W        W29926  21.685  37.573   4.175
65107W        W29927  27.855  26.541  12.022
65108W        W29928  38.979  18.173   0.803
65109W        W29929  12.238  23.211   2.188
65110W        W29930  13.602  42.553  12.452
65111W        W29931  22.383   7.675   0.243
65112W        W29932  38.411   6.173  13.848
65113W        W29933  13.281  17.248   2.887
65114W        W29934   3.772   6.734  13.464
65115W        W29935  42.900  34.481   1.715
65116W        W29936  35.875  16.069   2.216
65117W        W29937  13.192  29.498   2.279
65118W        W29938  35.178  29.517   5.087
65119W        W29939  40.919  40.325  13.864
65120W        W29940  41.788  39.420  12.914
65121W        W29941  19.242  18.300   1.582
65122W        W29942  11.140  44.512   0.548
65123W        W29943   6.222  12.266   1.193
65124W        W29944  18.190  12.284   4.609
65125W        W29945  21.725  41.801  14.449
65126W        W29946  40.691   1.480  14.588
65127W        W29947  43.410  32.865  14.938
65128W        W29948  40.355   5.008  11.173
65129W        W29949  38.850  17.494   4.337
65130W        W29950  19.292  15.295   3.705
65131W        W29951   7.592  10.513   2.876
65132W        W29952   1.416  43.367   2.300
65133W        W29953  40.967  42.278   0.943
65134W        W29954   2.812  28.301   2.824
65135W        W29955   8.002  22.763   1.867
65136W        W29956  39.818  30.495   2.438
65137W        W29957  30.587  12.698   0.865
65138W        W29958  31.671  29.458  13.785
65139W        W29959  12.260   7.620  14.618
65140W        W29960  43.139  18.558   2.854
65141W        W29961  30.083  27.081   1.345
65142W        W29962  40.317  35.515   2.748
65143W        W29963  11.344  12.063   4.341
65144W        W29964  22.140   2.566   1.862
65145W        W29965  15.029  16.821  10.718
65146W        W29966   6.438  21.597  10.662
65147W        W29967  13.320  43.729  14.751
65148W        W29968   0.419   1.384   4.893
65149W        W29969  14.795  36.499   2.289
65150W        W29970  14.325  15.164   0.806
65151W        W29971  11.065  42.292   3.001
65152W        W29972  15.635   4.745   2.774
65153W        W29973  44.332  32.917   2.695
65154W        W29974  11.752  28.210  11.677
65155W        W29975   9.317  32.545   0.570
65156W        W29976  24.750  32.364   4.931
65157W        W29977   9.690  18.909   2.843
65158W        W29978  25.456  11.870  13.884
65159W        W29979  18.184  33.925  11.648
65160W        W29980   2.435   4.211   0.815
65161W        W29981  20.749  40.937   0.902
65162W        W29982  38.380  20.751  12.013
65163W        W29983  20.998  12.598  14.563
65164W        W29984  18.089   5.833  10.804
65165W        W29985   9.814  43.316  11.617
65166W        W29986  22.578   1.660  14.510
65167W        W29987  29.025  36.310  11.587
65168W        W29988  26.053  40.523  11.156
65169W        W29989  39.935   8.362  11.485
65170W        W29990  13.940  43.494  13.853
65171W        W29991   1.010  38.535  14.453
65172W        W29992  12.708  13.576   0.744
65173W        W29993  42.162   9.817   4.383
65174W        W29994  23.163  29.100  11.970
65175W        W29995   1.611  37.545  10.288
65176W        W29996  32.857  12.589   3.114
65177W        W29997  23.540  19.180  12.966
65178W        W29998  42.492  10.730  10.514
65179W        W29999  15.049  33.448   4.385
65180W        W30000  33.831  35.364   3.208
65181W        W30001   9.866  34.896   2.833
65182W        W30002  31.560  20.297  11.243
65183W        W30003   2.992  19.579  10.720
65184W        W30004   7.325   2.328  12.578
65185W        W30005  33.533  21.961   3.679
65186W        W30006  29.417  16.434   0.585
65187W        W30007  44.466  10.511  10.234
65188W        W30008  16.715  18.548  14.022
65189W        W30009   5.593  24.542   1.630
65190W        W30010  37.813   7.022  11.043
65191W        W30011  41.705   4.193  10.932
65192W        W30012   0.358  41.522   0.241
65193W        W30013  32.656  40.534   3.330
65194W        W30014   2.883  15.596  13.939
65195W        W30015  11.646  42.892   0.166
65196W        W30016  22.612  35.686  13.477
65197W        W30017  36.965  31.515  11.965
65198W        W30018  34.838   4.310   2.754
65199W        W30019  22.270  25.036   0.715
65200W        W30020  19.315  42.843  13.000
65201W        W30021  15.317  25.773   2.227
65202W        W30022  30.588  29.946   4.156
65203W        W30023  17.749  16.257   1.461
65204W        W30024  20.083  38.382  14.771
65205W        W30025  15.217   9.659   3.671
65206W        W30026  22.054  17.260   4.657
65207W        W30027  26.454  39.941   4.496
65208W        W30028   9.865  42.423   0.797
65209W        W30029  13.953  40.012   0.011
65210W        W30030  24.072  18.111   1.747
65211W        W30031  27.948  40.370  12.057
65212W        W30032  39.513  36.690   1.977
65213W        W30033  41.010  37.593   4.104
65214W        W30034  37.255  29.597   3.704
65215W        W30035  25.471  16.809   2.057
65216W        W30036   9.359  34.996  13.890
65217W        W30037  31.170  18.269   2.237
65218W        W30038   8.117   4.721  11.643
65219W        W30039  44.928  23.178  14.635
65220W        W30040  13.256  43.160  13.471
65221W        W30041   9.460  39.862  14.513
65222W        W30042  35.597   8.412   1.241
65223W        W30043  16.689   3.330   1.866
65224W        W30044  27.438  38.682   3.502
65225W        W30045  44.527  23.611   4.103
65226W        W30046  43.117  42.547  12.918
65227W        W30047  32.173  11.741   2.332
65228W        W30048   3.160  42.588  14.292
65229W        W30049  21.103  28.762   1.296
65230W        W30050  19.830  15.295   2.374
65231W        W30051  36.126  42.014   4.272
65232W        W30052   4.505  29.058  12.865
65233W        W30053   9.926   2.980   3.700
65234W        W30054  12.300  38.514  12.177
65235W        W30055  22.765  30.095   0.269
65236W        W30056  10.777  13.637  13.400
65237W        W30057  14.525  33.433   3.224
65238W        W30058  37.149  18.295  10.799
65239W        W30059  36.612  34.438   3.750
65240W        W30060  13.351  17.204  10.719
65241W        W30061   6.864  11.308   0.448
65242W        W30062  11.658  38.322  12.874
65243W        W30063  28.680  41.867   4.226
65244W        W30064   8.934  11.547  14.297
65245W        W30065  20.548  24.466  12.957
65246W        W30066  10.242  24.556   4.118
65247W        W30067  15.862  36.099   5.228
65248W        W30068   9.085  15.681  14.349
65249W        W30069  38.079   8.139   0.495
65250W        W30070  27.454  37.651   4.959
65251W        W30071  23.850   8.677  12.824
65252W        W30072   9.083   7.296   1.714
65253W        W30073   1.167  18.758  13.327
65254W        W30074  23.919   2.315  13.486
65255W        W30075  32.663  25.702   3.621
65256W        W30076   6.194  31.175   4.086
65257W        W30077  11.880  13.212  12.613
65258W        W30078  27.186   0.571   2.856
65259W        W30079  38.526  12.560   1.310
65260W        W30080  43.131  35.375   3.686
65261W        W30081  22.303  25.096  10.713
65262W        W30082  14.566  40.928   3.665
65263W        W30083  36.388  26.732   1.936
65264W        W30084  41.059   5.410  11.618
65265W        W30085  14.111   9.854   0.695
65266W        W30086   8.177  21.316   2.257
65267W        W30087  13.517  17.245   4.192
65268W        W30088   5.231  27.901  14.878
65269W        W30089  35.368  12.237  14.343
65270W        W30090  38.032  18.244   1.850
65271W        W30091  34.460  26.031  12.455
65272W        W30092   3.795  11.313   3.233
65273W        W30093  20.250  36.418   4.875
65274W        W30094  10.111  16.967  12.541
65275W        W30095  22.474  36.995   0.328
65276W        W30096   2.938  13.866   3.727
65277W        W30097   4.492   1.413  12.062
65278W        W30098  26.672  35.116  12.902
65279W        W30099  32.199  37.305  10.641
65280W        W30100  21.729  20.147   0.814
65281W        W30101  34.358  10.085  14.541
65282W        W30102  31.361  44.810   0.278
65283W        W30103  33.835   9.834   9.801
65284W        W30104  26.680  44.400   1.395
65285W        W30105  21.140  41.246   2.275
65286W        W30106  10.886  15.162  14.388
65287W        W30107  37.438  23.805  13.898
65288W        W30108   9.998  10.300   0.438
65289W        W30109  24.120  23.371   1.416
65290W        W30110   0.492   5.820  12.190
65291W        W30111  41.480  36.849   3.960
65292W        W30112  14.053  13.372   5.064
65293W        W30113   0.924  43.005   0.281
65294W        W30114  26.483   9.111   3.555
65295W        W30115  42.679   4.929   0.578
65296W        W30116  28.157  16.836  13.767
65297W        W30117   3.821  35.793   2.677
65298W        W30118  10.086  42.993   3.225
65299W        W30119  14.063  12.613  13.508
65300W        W30120  15.877  37.878  12.420
65301W        W30121   6.337  20.307  11.990
65302W        W30122  17.394  31.385  10.629
65303W        W30123   6.817  35.512  14.868
65304W        W30124  40.934   8.218   9.965
65305W        W30125   7.430  37.482   0.834
65306W        W30126   7.401  34.606  12.891
65307W        W30127  33.108  35.817  11.667
65308W        W30128  15.095  14.656  13.614
65309W        W30129  13.784  35.164  12.238
65310W        W30130  12.719  34.555  11.145
65311W        W30131  27.079  20.086   0.338
65312W        W30132  24.614  12.327   4.629
65313W        W30133  32.929  37.497   2.685
65314W        W30134  37.366  40.008   4.515
65315W        W30135  36.038  26.531  12.170
65316W        W30136  27.594  18.961   4.213
65317W        W30137   6.781  16.246  12.051
65318W        W30138  38.783  34.020  12.603
65319W        W30139  21.246  33.664   2.888
65320W        W30140  21.942  22.311   9.710
65321W        W30141  23.255  44.357  14.343
65322W        W30142  23.501  44.328   4.150
65323W        W30143  35.019  13.539   0.941
65324W        W30144   5.866  26.645  14.926
65325W        W30145   5.296  12.131  11.587
65326W        W30146  12.296  19.255   5.075
65327W        W30147   8.837  19.514  11.554
65328W        W30148  18.613  17.944   4.986
65329W        W30149  16.110  29.507   0.514
65330W        W30150  11.968  43.478   3.327
65331W        W30151  25.981   0.685  13.007
65332W        W30152   3.870   3.285  10.895
65333W        W30153  16.084   6.319  14.726
65334W        W30154   6.810  22.835  10.370
65335W        W30155  10.260  26.959  11.133
65336W        W30156  18.649  43.037   1.325
65337W        W30157  12.890  27.339   1.481
65338W        W30158  40.339  24.310   4.510
65339W        W30159   0.280  43.364   2.456
65340W        W30160  35.708  27.291  13.368
65341W        W30161  26.049  25.371   4.947
65342W        W30162  12.621  38.226  10.953
65343W        W30163  22.638   1.274  12.114
65344W        W30164   6.949  32.237  11.032
65345W        W30165  44.791  34.669   0.986
65346W        W30166  25.862  36.572  12.041
65347W        W30167  27.430   6.963   3.156
65348W        W30168  28.493  13.840  14.972
65349W        W30169  13.091  19.632  11.635
65350W        W30170  41.678  30.425   0.926
65351W        W30171  20.962  33.854   0.591
65352W        W30172   4.876   5.431  11.556
65353W        W30173  32.477   3.417  10.737
65354W        W30174   3.676  25.835   9.800
65355W        W30175   6.279  23.393   9.886
65356W        W30176  36.600  31.024  14.367
65357W        W30177  11.389  27.756  13.292
65358W        W30178  11.940  11.617   3.087
65359W        W30179  16.167  38.583   4.163
65360W        W30180  33.925   3.475  13.844
65361W        W30181  23.684  29.733   0.373
65362W        W30182  17.496   6.002  10.677
65363W        W30183  32.993  15.520   2.414
65364W        W30184  16.282  27.480   3.176
65365W        W30185  36.992  31.698   0.851
65366W        W30186  33.403  39.383   3.718
65367W        W30187  10.402  33.945  14.609
65368W        W30188  28.220  32.585  14.356
65369W        W30189  17.133  19.279   1.997
65370W        W30190  12.406  24.058  12.475
65371W        W30191  36.877   6.137  11.635
65372W        W30192  31.848  42.644   1.752
65373W        W30193  34.057  28.408   1.237
65374W        W30194  13.130  12.187  13.439
65375W        W30195  33.011  35.341  10.725
65376W        W30196  37.410  42.345  14.421
65377W        W30197  23.970  24.512  12.049
65378W        W30198  32.042  43.469   2.152
65379W        W30199  15.531  43.030  13.903
65380W        W30200  10.789   3.905   1.898
65381W        W30201   1.500   1.183   1.645
65382W        W30202   5.360  39.811   1.518
65383W        W30203  38.919  43.587  10.787
65384W        W30204  17.939  11.350  14.478
65385W        W30205  12.650  14.397   0.304
65386W        W30206  17.038   1.332   4.066
65387W        W30207  44.469   9.928   3.284
65388W        W30208  43.054   9.704  13.381
65389W        W30209  44.811  38.663  13.248
65390W        W30210   3.994  18.219   2.293
65391W        W30211   9.596  20.487   1.773
65392W        W30212  13.727  29.885   1.191
65393W        W30213  38.397  17.751   4.281
65394W        W30214  12.242  27.175   4.515
65395W        W30215  30.064  24.024   4.359
65396W        W30216   2.081  15.669   1.993
65397W        W30217  12.220  41.276  14.175
65398W        W30218  25.606  34.588  13.137
65399W        W30219  28.979  13.285  11.236
65400W        W30220  43.471  44.990  11.369
65401W        W30221  26.115  33.952  11.122
65402W        W30222  27.435  34.069   2.725
65403W        W30223  19.416  42.170   0.091
65404W        W30224  28.664  30.113   1.684
65405W        W30225  19.189  42.324   1.413
65406W        W30226  13.225  21.819  13.063
65407W        W30227  43.895   9.313   3.438
65408W        W30228  43.281  25.491   3.211
65409W        W30229  41.439   4.425   0.748
65410W        W30230  35.480  35.958  13.823
65411W        W30231  34.425   3.957  12.578
65412W        W30232  19.072  15.107  14.485
65413W        W30233  32.529  27.726   4.700
65414W        W30234   9.682   5.627   2.206
65415W        W30235   6.334   1.803   4.020
65416W        W30236  40.442   1.785   0.783
65417W        W30237   3.792  36.624   0.865
65418W        W30238  33.474   6.470  10.486
65419W        W30239  43.952  26.901  13.836
65420W        W30240  33.382  42.700   1.484
65421W        W30241  37.353  12.814  14.203
65422W        W30242   7.412  30.904   3.641
65423W        W30243  11.800   6.144   1.778
65424W        W30244  41.119  31.417  11.143
65425W        W30245  37.355   8.884  12.592
65426W        W30246  29.571  30.203   1.701
65427W        W30247  16.082  20.001  12.118
65428W        W30248  17.203  37.564  12.399
65429W        W30249  15.274  14.231  11.523
65430W        W30250  31.367  15.145   3.679
65431W        W30251   1.854  32.016  12.635
65432W        W30252  17.088   5.572   1.768
65433W        W30253  34.060  37.226   4.952
65434W        W30254  24.372   4.750  12.007
65435W        W30255  30.453  39.987   1.038
65436W        W30256  24.215  27.451  14.357
65437W        W30257  25.336  29.456   3.191
65438W        W30258  24.594   1.746   1.460
65439W        W30259  26.614  39.934   0.832
65440W        W30260   2.957  34.180   1.228
65441W        W30261   7.681  32.911   4.635
65442W        W30262   6.393  10.884   2.724
65443W        W30263   9.219  12.233   3.758
65444W        W30264  42.409  23.248   3.407
65445W        W30265   3.867  43.875   0.251
65446W        W30266  18.104  40.414   3.638
65447W        W30267  33.257  18.206   4.500
65448W        W30268  14.206  17.852  10.736
65449W        W30269  39.326  10.685  10.344
65450W        W30270  35.689  26.646  13.067
65451W        W30271  36.845  35.268  12.854
65452W        W30272  30.093  34.655   1.148
65453W        W30273  14.093  18.063  13.984
65454W        W30274   0.552   8.117  13.976
65455W        W30275  11.429   8.882  11.104
65456W        W30276  36.431  32.533  14.878
65457W        W30277   9.179  34.445  13.310
65458W        W30278  37.987  38.747  12.438
65459W        W30279  13.216  39.093   0.871
65460W        W30280   4.760  41.978  10.961
65461W        W30281   2.963  35.436   2.701
65462W        W30282  21.756  18.125   0.788
65463W        W30283  16.221  44.705  10.630
65464W        W30284  26.757  18.064   3.736
65465W        W30285  44.260  12.403  11.232
65466W        W30286  18.182  28.493   2.736
65467W        W30287  23.956  44.944  14.007
65468W        W30288  43.796   8.300   2.174
65469W        W30289  18.815  26.514  12.566
65470W        W30290   4.109  37.431  11.104
65471W        W30291  17.029   1.398   2.750
65472W        W30292  41.866  26.675   4.223
65473W        W30293  33.570  41.083  11.728
65474W        W30294  22.652  11.146  10.868
65475W        W30295  28.987  42.383   4.585
65476W        W30296   0.686   8.149  10.814
65477W        W30297   4.545   1.919   4.639
65478W        W30298  21.046   0.267   0.378
65479W        W30299  41.475   4.558   2.072
65480W        W30300  17.140  21.545   2.815
65481W        W30301  24.060  31.695  13.598
65482W        W30302   1.852  15.647  14.740
65483W        W30303  43.271   3.448  13.944
65484W        W30304  17.304  20.656   2.762
65485W        W30305  34.263   2.464   3.305
65486W        W30306  12.710   1.322   0.007
65487W        W30307   6.989  42.949  11.147
65488W        W30308  32.104   3.234   4.574
65489W        W30309  12.284   0.800  14.290
65490W        W30310  41.756  39.887  11.214
65491W        W30311   3.271  21.229   0.455
65492W        W30312  42.734   8.164  14.347
65493W        W30313  25.861  38.021  11.223
65494W        W30314  30.571   4.652  12.485
65495W        W30315  24.642   7.793  10.534
65496W        W30316   8.435  25.067   0.308
65497W        W30317  24.508   6.668   2.330
65498W        W30318  16.196  26.960  14.016
65499W        W30319   7.386  12.286   3.264
65500W        W30320  18.880  25.982  11.141
65501W        W30321  38.970  44.498   0.538
65502W        W30322  22.592   3.281   2.806
65503W        W30323   4.101  33.420  12.109
65504W        W30324  32.647   9.346  13.875
65505W        W30325  37.299  29.036  13.843
65506W        W30326  33.494  24.213  13.707
65507W        W30327  40.448  31.852  10.687
65508W        W30328  31.417  15.094  10.512
65509W        W30329  19.782  25.612   1.945
65510W        W30330  38.980   1.692   2.186
65511W        W30331  25.938   5.498   2.748
65512W        W30332  10.567  25.806   3.892
65513W        W30333   6.955  34.868   2.442
65514W        W30334  18.806  25.982  13.006
65515W        W30335  39.814  31.722   4.621
65516W        W30336   4.929   7.633   2.831
65517W        W30337  28.692  44.856  14.273
65518W        W30338   4.757  39.670   3.186
65519W        W30339  25.533  26.108  12.456
65520W        W30340  22.987  44.266   4.172
65521W        W30341  44.972  43.963  11.579
65522W        W30342  16.489   1.759  11.437
65523W        W30343  10.879  27.964  13.386
65524W        W30344  39.697  14.841   0.736
65525W        W30345  22.483  25.002   1.208
65526W        W30346  19.973   7.459   4.514
65527W        W30347   1.846  24.675   4.667
65528W        W30348   6.853   6.079  13.865
65529W        W30349  30.360  34.319  14.839
65530W        W30350  10.294  17.567   1.444
65531W        W30351  14.373  33.178  14.599
65532W        W30352   0.711  36.420   3.294
65533W        W30353  19.918  14.521  13.848
65534W        W30354  44.425   2.260  11.622
65535W        W30355   7.164   8.113  13.352
65536W        W30356  32.215  33.939   3.603
65537W        W30357  33.002  22.653  13.484
65538W        W30358   0.578  19.242   1.665
65539W        W30359  32.123  29.020   1.695
65540W        W30360   1.590  31.446   0.429
65541W        W30361   8.661  33.003  13.957
65542W        W30362   5.743   1.429   3.271
65543W        W30363   8.448  16.094  11.557
65544W        W30364  30.425  37.410  12.827
65545W        W30365  35.063  43.901  10.386
65546W        W30366  27.273  42.338   2.145
65547W        W30367  25.717  43.322   4.362
65548W        W30368  43.004  16.183   0.871
65549W        W30369  18.184  19.316   2.685
65550W        W30370   6.230   3.710  12.509
65551W        W30371   6.961  30.599  11.575
65552W        W30372  23.658   9.829   4.546
65553W        W30373  39.684  40.985  13.929
65554W        W30374  33.447  12.623  14.038
65555W        W30375  33.239   0.296   2.325
65556W        W30376  16.030  35.805  10.678
65557W        W30377  43.936   3.847   1.339
65558W        W30378  21.655  21.211   0.126
65559W        W30379   5.140  30.113  11.097
65560W        W30380  12.242   7.705   2.102
65561W        W30381  25.388   9.872  11.043
65562W        W30382   9.620  34.581   3.168
65563W        W30383  24.284  34.827   2.199
65564W        W30384  31.942  33.981   0.191
65565W        W30385  39.793  19.281  13.032
65566W        W30386  29.639  24.443  10.751
65567W        W30387  25.638   7.388   1.389
65568W        W30388  12.290  24.167   4.805
65569W        W30389   4.730  12.902   2.294
65570W        W30390  26.688  39.212   4.925
65571W        W30391  14.756  26.267  11.900
65572W        W30392  14.352   0.772  12.110
65573W        W30393   9.228  16.977  12.409
65574W        W30394  44.331  31.923  12.343
65575W        W30395   4.759  18.159   1.829
65576W        W30396  29.643  13.256   5.103
65577W        W30397  35.601   5.272  11.178
65578W        W30398  13.707  34.620   0.750
65579W        W30399   8.827  17.176  14.522
65580W        W30400  44.544  24.862  14.179
65581W        W30401  20.783  38.978   1.034
65582W        W30402  18.920  44.374  14.582
65583W        W30403  14.333  33.430   0.582
65584W        W30404  14.952  19.047   1.588
65585W        W30405  20.638  25.445   2.864
65586W        W30406  36.552  27.425  10.774
65587W        W30407   9.310  29.224   5.213
65588W        W30408   7.180  44.810   0.859
65589W        W30409   4.231  40.318   0.986
65590W        W30410  43.272  19.764  12.913
65591W        W30411  24.613  41.590  10.664
65592W        W30412  28.864  27.735  10.786
65593W        W30413  24.740  36.843  13.469
65594W        W30414   7.993  37.917   4.890
65595W        W30415  34.515  36.852   4.240
65596W        W30416  33.195  30.907   4.617
65597W        W30417  40.294  42.542  14.433
65598W        W30418  11.442  41.399   2.623
65599W        W30419  20.099  44.371   1.393
65600W        W30420   0.799   8.814  13.084
65601W        W30421   0.755   7.415  11.455
65602W        W30422  17.874  35.004   4.943
65603W        W30423  22.917  42.740   2.312
65604W        W30424  35.068  39.130  12.642
65605W        W30425   1.605   0.854   4.762
65606W        W30426  14.833   7.707  14.845
65607W        W30427  39.526  39.714  12.532
65608W        W30428  22.751  12.200  14.232
65609W        W30429  18.270   5.311   3.261
65610W        W30430  34.655   9.119   4.139
65611W        W30431  40.090   9.811   1.229
65612W        W30432   0.923  37.377  10.692
65613W        W30433  17.047  44.915   2.126
65614W        W30434  23.508  44.594   0.347
65615W        W30435  10.394  43.501   3.729
65616W        W30436  21.104  21.182   5.006
65617W        W30437   7.665  28.943   1.618
65618W        W30438   1.915  22.078  14.997
65619W        W30439   7.127   6.901   1.187
65620W        W30440  19.282  42.314  13.370
65621W        W30441  26.152  15.695  10.894
65622W        W30442  20.064  30.967   3.851
65623W        W30443  43.838  23.723   2.244
65624W        W30444  15.492   1.177  11.979
65625W        W30445  20.769  41.082   4.747
65626W        W30446  21.345  39.879   3.757
65627W        W30447  30.193  32.116   3.278
65628W        W30448  40.149  32.933   2.360
65629W        W30449  24.224  38.857   0.934
65630W        W30450  23.410  31.840  11.520
65631W        W30451   1.344  14.867   3.442
65632W        W30452   3.152   4.426   1.307
65633W        W30453  22.746  32.596  13.178
65634W        W30454   8.854  23.479  14.240
65635W        W30455  38.402   8.627   0.397
65636W        W30456  40.086  42.785   2.935
65637W        W30457  29.240  29.464  13.658
65638W        W30458  34.935  20.567   2.338
65639W        W30459   0.454   5.612   3.308
65640W        W30460  12.323  35.629  13.970
65641W        W30461  43.749  25.872   2.984
65642W        W30462  33.686   1.197  12.557
65643W        W30463  43.433  14.240  11.589
65644W        W30464  13.011  28.946   0.211
65645W        W30465  23.639   6.134  12.643
65646W        W30466   0.646  10.554  14.299
65647W        W30467   8.413  22.549  12.606
65648W        W30468   1.417  38.310  10.675
65649W        W30469  20.397  23.973   0.904
65650W        W30470  32.841   1.806  11.725
65651W        W30471  28.117  10.837   2.196
65652W        W30472   0.749  23.287   0.786
65653W        W30473  36.489  27.007   9.988
65654W        W30474  36.303  13.458   0.697
65655W        W30475  20.054  15.704  13.067
65656W        W30476  19.776  16.740   1.710
65657W        W30477  26.229   4.990   0.419
65658W        W30478  18.632  33.483  12.940
65659W        W30479   3.139  23.221  12.147
65660W        W30480  44.120   8.426   4.111
65661W        W30481  27.639  37.524  10.634
65662W        W30482  28.469  15.368   0.784
65663W        W30483   6.802   1.242   4.410
65664W        W30484   2.872   8.455  13.374
65665W        W30485  12.277   3.980   4.254
65666W        W30486   2.005  41.935   4.624
65667W        W30487  28.016  38.334   4.220
65668W        W30488  35.595   3.031  12.470
65669W        W30489  30.054   0.360  11.415
65670W        W30490   8.819  37.842   1.101
65671W        W30491  29.008  28.520   1.499
65672W        W30492  13.017  37.839   1.862
65673W        W30493  34.377  21.252   2.346
65674W        W30494  15.893  44.525  13.544
65675W        W30495   5.165  12.912   1.299
65676W        W30496  17.350  31.043   1.709
65677W        W30497  26.990  39.406  13.144
65678W        W30498  27.469  10.736   2.789
65679W        W30499  31.227  35.022   1.697
65680W        W30500  38.404  34.169  11.863
65681W        W30501   9.236  14.253  13.183
65682W        W30502  20.926  19.015   2.281
65683W        W30503  24.632  21.139   1.195
65684W        W30504   5.230  38.484   0.414
65685W        W30505  22.256  36.417   3.667
65686W        W30506  17.766  42.525   1.342
65687W        W30507  16.601  36.329   1.961
65688W        W30508  40.831  12.510   1.421
65689W        W30509  27.879  16.950   4.014
65690W        W30510  18.010  15.103  13.084
65691W        W30511   3.555  44.415  13.509
65692W        W30512   5.122  40.438   2.664
65693W        W30513  13.845  36.048   0.901
65694W        W30514  36.291  30.171  14.222
65695W        W30515  29.523  37.126   0.259
65696W        W30516  27.657  22.278   1.782
65697W        W30517  28.563  36.104   9.917
65698W        W30518  21.792  16.857   4.307
65699W        W30519   3.951  34.905   3.190
65700W        W30520  40.020  10.982   3.274
65701W        W30521  12.716   7.413  14.360
65702W        W30522  11.836  22.123  13.385
65703W        W30523   6.664  27.581   4.044
65704W        W30524  25.378  21.588   4.641
65705W        W30525   2.426  41.927  12.769
65706W        W30526  14.062   6.661  12.467
65707W        W30527  18.356  21.654   3.324
65708W        W30528  43.247  43.048  13.503
65709W        W30529  29.334   7.766   3.275
65710W        W30530  30.551   4.887  11.511
65711W        W30531  38.987  11.252  11.678
65712W        W30532  37.086  25.493   1.378
65713W        W30533  36.058  33.616  14.748
65714W        W30534  26.466   3.147   5.136
65715W        W30535  37.888   1.106   4.203
65716W        W30536  33.108   4.180  13.956
65717W        W30537   5.505  20.320  12.952
65718W        W30538  10.200   4.675   1.692
65719W        W30539   8.733   2.933   4.083
65720W        W30540   0.173  15.066   1.421
65721W        W30541  41.071  30.368  12.155
65722W        W30542  36.882  38.594  12.908
65723W        W30543  28.130  22.506   3.066
65724W        W30544  32.395   5.802  14.024
65725W        W30545  24.206   8.152  11.987
65726W        W30546  42.296  30.469   3.210
65727W        W30547  38.630  41.903  12.504
65728W        W30548  41.540  44.297   3.440
65729W        W30549  39.817  33.195  12.484
65730W        W30550  18.284  25.107  12.960
65731W        W30551   8.552  43.494   2.200
65732W        W30552  36.097  23.929   4.629
65733W        W30553  16.038  19.128   0.836
65734W        W30554   1.830  16.778  12.010
65735W        W30555  29.217  15.118  11.553
65736W        W30556   3.102  10.242  12.625
65737W        W30557  40.399   6.298   1.228
65738W        W30558  39.522   0.816  11.738
65739W        W30559  22.776  36.194   1.948
65740W        W30560   9.876  17.427   4.615
65741W        W30561  19.645  37.722  11.095
65742W        W30562  22.224   3.525   4.093
65743W        W30563  27.456   9.077   0.927
65744W        W30564   3.804  31.133   1.399
65745W        W30565  23.159  43.296   1.296
65746W        W30566  11.216   8.338  12.909
65747W        W30567  15.350  29.196   0.473
65748W        W30568  28.295   6.894   3.008
65749W        W30569  13.392  37.889  14.988
65750W        W30570  18.044  35.421  14.076
65751W        W30571  35.463  23.032  14.485
65752W        W30572  13.827  37.456   1.282
65753W        W30573  36.798  35.980   4.192
65754W        W30574  33.076  35.464  14.844
65755W        W30575   1.278  16.758  14.618
65756W        W30576  10.180  26.290   5.467
65757W        W30577  30.934  22.103   0.828
65758W        W30578  21.509   6.140  14.990
65759W        W30579  25.693  14.710  13.128
65760W        W30580  40.750   1.617   3.714
65761W        W30581  18.656  43.441   4.038
65762W        W30582   2.403  19.642   9.796
65763W        W30583  34.416   5.906   2.390
65764W        W30584  21.714   9.852   1.720
65765W        W30585  29.690  23.723  12.019
65766W        W30586  41.297   6.291   1.265
65767W        W30587  19.810   6.326  12.384
65768W        W30588   8.968  29.270   4.488
65769W        W30589  23.538  40.671  12.012
65770W        W30590  28.182   3.613  14.339
65771W        W30591  36.324  39.760   4.240
65772W        W30592  26.073  30.923   0.030
65773W        W30593  22.122  36.133   3.257
65774W        W30594  16.883   1.879   4.198
65775W        W30595   9.032  10.688  11.601
65776W        W30596  38.049   7.684   3.573
65777W        W30597  44.864  37.845  13.943
65778W        W30598  14.493   9.425   2.656
65779W        W30599   6.421   6.127   9.892
65780W        W30600  13.176  15.475   0.846
65781W        W30601  35.925  13.562  14.969
65782W        W30602   4.435  17.541   0.597
65783W        W30603  28.734  27.997   0.412
65784W        W30604  36.325  38.567  14.266
65785W        W30605  39.522  34.482  12.061
65786W        W30606  20.802  35.883  14.420
65787W        W30607  36.571   3.183   4.593
65788W        W30608   6.983   0.297   4.429
65789W        W30609  10.695  30.409   1.296
65790W        W30610  31.972  39.914  12.576
65791W        W30611  32.952  44.015   0.931
65792W        W30612   7.871   2.026   1.331
65793W        W30613  42.928  31.168   3.601
65794W        W30614   7.351  13.902  11.206
65795W        W30615  31.395  32.311   1.463
65796W        W30616   2.761  32.377   1.763
65797W        W30617  12.846  39.003  14.787
65798W        W30618   6.606  35.389  13.333
65799W        W30619  38.391  30.166  13.457
65800W        W30620  43.040  21.823   0.469
65801W        W30621   4.632  22.567  12.476
65802W        W30622  27.289  42.443  14.254
65803W        W30623  41.815   4.733  14.825
65804W        W30624  41.233  11.351  12.842
65805W        W30625  43.964  14.290  12.026
65806W        W30626  36.653  32.996  10.669
65807W        W30627  20.696  39.652   0.212
65808W        W30628  24.544  18.129   2.258
65809W        W30629   1.924   5.389  13.523
65810W        W30630  39.681  26.437  14.520
65811W        W30631  37.874   6.640   0.772
65812W        W30632  19.197  15.697  11.259
65813W        W30633  12.208  13.078   4.688
65814W        W30634  33.275   2.241   3.310
65815W        W30635   6.382  35.467   0.664
65816W        W30636  42.974  40.032  10.408
65817W        W30637  31.562  29.761  13.350
65818W        W30638   8.730   7.888   1.312
65819W        W30639   6.339  44.866  12.708
65820W        W30640  37.897  17.657  12.198
65821W        W30641   9.704   0.831   0.716
65822W        W30642  38.717  24.083  13.497
65823W        W30643  11.791  13.072   1.643
65824W        W30644  31.010  12.857   2.390
65825W        W30645  26.232   1.833   1.019
65826W        W30646  18.134  37.459  13.287
65827W        W30647  14.282   4.958  10.857
65828W        W30648  37.926  30.012  13.266
65829W        W30649   7.913  40.538   3.064
65830W        W30650  20.771  25.413  14.008
65831W        W30651  18.522  28.484   2.318
65832W        W30652  34.254  36.161  12.091
65833W        W30653  36.484  22.592   3.619
65834W        W30654  40.073  11.213  12.598
65835W        W30655  22.524   8.082  10.775
65836W        W30656   3.720  43.115  12.094
65837W        W30657  27.436  16.233   0.543
65838W        W30658   7.660  28.431  14.154
65839W        W30659  25.332  15.732   1.367
65840W        W30660  23.562  18.883   3.298
65841W        W30661  40.414  22.383   4.594
65842W        W30662  14.180  13.710  12.429
65843W        W30663   1.053   2.262   0.709
65844W        W30664  21.956  43.531   1.741
65845W        W30665  33.225  28.902   1.328
65846W        W30666  14.673  20.612  14.683
65847W        W30667  12.118  24.688  13.992
65848W        W30668  40.361  20.659  11.433
65849W        W30669  17.378  36.383   3.236
65850W        W30670  24.900  42.879   2.446
65851W        W30671  36.369  16.650  10.788
65852W        W30672  17.941  13.709   1.851
65853W        W30673  41.335  44.530   2.633
65854W        W30674   9.371  40.812   2.607
65855W        W30675  31.478  43.919   0.097
65856W        W30676  10.792  38.667  13.880
65857W        W30677  30.223  20.333   1.306
65858W        W30678  32.164  42.977   1.455
65859W        W30679  34.900  22.699   1.698
65860W        W30680  22.409   5.424   3.259
65861W        W30681  11.606  12.844   1.214
65862W        W30682  25.467  19.830   3.196
65863W        W30683  31.641  34.512   4.156
65864W        W30684   9.780  28.708   1.905
65865W        W30685  36.362  41.920   1.377
65866W        W30686  41.042   7.346  13.869
65867W        W30687  28.801  16.065  11.522
65868W        W30688  44.424   4.243   9.978
65869W        W30689  14.284  34.490  12.187
65870W        W30690   2.040  16.374   0.894
65871W        W30691  12.850  40.586  12.972
65872W        W30692   6.710  36.893   0.927
65873W        W30693  41.368  10.645   5.565
65874W        W30694  41.905  15.344   0.464
65875W        W30695  35.395  20.451   2.529
65876W        W30696  29.386  31.981  13.492
65877W        W30697  20.697  34.767  11.837
65878W        W30698  38.747  14.047  13.771
65879W        W30699  23.040  28.704   2.288
65880W        W30700   3.844  36.153  10.298
65881W        W30701   4.185  38.980   2.338
65882W        W30702  34.816  19.104  14.082
65883W        W30703  26.483  16.666  11.133
65884W        W30704   5.600   0.858  14.987
65885W        W30705   3.750  34.344   1.404
65886W        W30706  26.266   2.786  14.868
65887W        W30707   2.664  14.089  14.088
65888W        W30708  21.324  19.820   4.159
65889W        W30709  37.539  30.640   0.262
65890W        W30710  22.144  14.866  12.813
65891W        W30711   3.922  40.725  13.079
65892W        W30712  13.261  30.475  10.248
65893W        W30713  16.433  11.685   3.599
65894W        W30714  11.154  30.429  14.329
65895W        W30715  13.340  25.219  12.069
65896W        W30716  35.164  16.182   3.117
65897W        W30717   0.718  22.284   1.834
65898W        W30718  15.213   8.450   0.939
65899W        W30719  19.657  37.830  11.976
65900W        W30720  32.644   4.505   1.651
65901W        W30721  30.453  22.662  12.786
65902W        W30722  23.121  37.894  11.932
65903W        W30723  33.638   7.720   3.756
65904W        W30724  42.636  31.991   1.683
65905W        W30725  40.991  21.849  13.922
65906W        W30726   7.239   5.770   0.488
65907W        W30727  13.478  44.268   9.878
65908W        W30728  19.828   3.663   3.329
65909W        W30729  39.027   0.141   1.509
65910W        W30730  28.511   8.089   2.598
65911W        W30731  38.804   6.334  10.543
65912W        W30732  17.028  29.219   1.315
65913W        W30733  41.192  37.253  11.573
65914W        W30734   4.368  32.809   0.949
65915W        W30735  41.423  11.668   5.272
65916W        W30736  20.054   6.703   2.248
65917W        W30737  11.357  19.589   2.610
65918W        W30738   9.332  12.495   3.254
65919W        W30739   0.290  35.569   0.990
65920W        W30740  37.040  42.808   1.794
65921W        W30741   1.016  31.351   2.724
65922W        W30742  12.299  31.126   3.089
65923W        W30743  16.698  23.952  13.259
65924W        W30744   6.464   4.452  14.941
65925W        W30745  42.332  41.873   0.008
65926W        W30746   2.595  30.917   1.824
65927W        W30747  15.971  43.702   4.572
65928W        W30748  30.071  24.352   2.918
65929W        W30749  10.623  38.020   3.701
65930W        W30750  20.125  25.662  13.651
65931W        W30751  43.859  40.986   3.043
65932W        W30752  21.232   7.248   1.648
65933W        W30753  19.936  25.975   0.595
65934W        W30754  11.755  12.376  13.833
65935W        W30755  28.933  17.976   0.400
65936W        W30756  40.468   3.615   4.889
65937W        W30757  27.976   7.390  13.157
65938W        W30758  37.750  21.989  13.239
65939W        W30759  42.204  26.901  14.461
65940W        W30760  12.912  18.155  13.594
65941W        W30761  44.186  32.103   4.535
65942W        W30762  29.160  25.909  12.984
65943W        W30763  24.036  26.014  12.952
65944W        W30764  27.750  23.509   0.546
65945W        W30765   7.525  15.371  14.864
65946W        W30766   6.416  14.060   0.209
65947W        W30767  35.845  20.584   0.753
65948W        W30768   9.727  16.793   2.203
65949W        W30769  32.497  28.669   3.773
65950W        W30770   4.450   4.725   5.197
65951W        W30771  40.942  16.138  14.312
65952W        W30772  35.458  30.985   3.995
65953W        W30773  42.813   4.311   1.488
65954W        W30774  16.336  24.187  13.545
65955W        W30775  31.086  33.508  11.985
65956W        W30776  30.557  26.274  13.046
65957W        W30777  16.761  38.285   3.578
65958W        W30778  29.204  13.556   3.174
65959W        W30779  12.310  39.342   0.633
65960W        W30780   9.964  18.294  11.521
65961W        W30781  31.887  44.257   1.771
65962W        W30782  33.869  24.524   0.904
65963W        W30783  19.629  21.199   2.709
65964W        W30784  20.318   0.419  11.652
65965W        W30785  36.452  26.001   0.740
65966W        W30786   6.570  25.514   1.768
65967W        W30787  27.192  30.984  11.637
65968W        W30788  19.363  24.767  13.323
65969W        W30789  43.860  34.105  11.262
65970W        W30790  40.519  14.137   4.664
65971W        W30791  30.882  41.865   3.987
65972W        W30792   6.717  27.390   3.082
65973W        W30793  34.443  36.272   3.141
65974W        W30794  19.843  19.632  13.014
65975W        W30795   0.310  33.802  12.078
65976W        W30796  30.946  26.947   3.323
65977W        W30797  36.841   8.316  13.874
65978W        W30798  17.242  32.648   3.232
65979W        W30799   1.955   4.746  12.069
65980W        W30800  24.711  38.391  12.484
65981W        W30801  19.122  44.792  12.020
65982W        W30802  14.209  32.996  12.176
65983W        W30803  27.617  31.890   0.811
65984W        W30804  13.633  26.255   2.950
65985W        W30805  42.560  13.110  14.310
65986W        W30806   8.129  40.873  14.094
65987W        W30807  31.886  38.651   1.763
65988W        W30808   1.726  32.538  10.705
65989W        W30809  30.002   6.707  12.255
65990W        W30810   0.424  39.925   1.402
65991W        W30811   3.024  30.644   1.951
65992W        W30812  10.629  22.699   0.314
65993W        W30813  38.395  12.713   3.224
65994W        W30814  39.858  14.350   0.847
65995W        W30815   6.431   0.687  13.732
65996W        W30816  22.961  33.194   0.377
65997W        W30817  37.851  33.628   4.654
65998W        W30818  40.614  34.515  14.994
65999W        W30819   3.436  23.084  13.449
66000W        W30820  23.496  41.874   1.943
66001W        W30821  37.148  39.511   4.435
66002W        W30822  41.576  25.635   4.693
66003W        W30823  38.605  33.494   3.576
66004W        W30824   9.063  18.280   2.320
66005W        W30825   1.263  20.618  13.907
66006W        W30826  42.343  40.947  10.841
66007W        W30827   0.483  39.035   3.143
66008W        W30828   5.023   5.330   2.784
66009W        W30829  27.780  23.143   4.520
66010W        W30830  39.123  21.712   1.944
66011W        W30831   8.036   6.664   4.213
66012W        W30832  26.758  16.181   1.287
66013W        W30833  31.668  36.357   3.305
66014W        W30834  11.605  25.721   4.564
66015W        W30835  32.392  22.204   2.317
66016W        W30836  40.998  23.757  13.527
66017W        W30837  14.101  30.075   3.064
66018W        W30838  30.646  38.348   2.469
66019W        W30839  17.282  29.699   1.993
66020W        W30840   0.800   3.224  11.105
66021W        W30841   4.119   0.394  12.642
66022W        W30842  37.565  31.796  10.248
66023W        W30843   2.530  12.559   4.112
66024W        W30844  11.538   1.388   0.686
66025W        W30845  16.376  25.516   4.377
66026W        W30846  33.341  33.130  10.257
66027W        W30847  20.769   7.087   1.846
66028W        W30848  13.734   9.555   0.275
66029W        W30849  29.445  25.876   0.301
66030W        W30850  33.141  26.726  11.157
66031W        W30851  15.878  44.398  14.365
66032W        W30852  14.580  28.063   0.246
66033W        W30853  33.441  23.088   2.405
66034W        W30854  30.178  36.525   0.005
66035W        W30855  42.533  16.700   3.731
66036W        W30856  36.495  31.568  11.711
66037W        W30857  39.391   7.391  13.331
66038W        W30858  27.007  12.549  10.668
66039W        W30859  27.964  16.303   0.500
66040W        W30860  13.825  32.670   2.219
66041W        W30861   4.807  11.795   4.607
66042W        W30862   3.697  32.531   4.671
66043W        W30863  36.360  20.184  12.389
66044W        W30864   1.867  18.774  10.734
66045W        W30865  43.296  18.303   0.409
66046W        W30866  18.082  33.569   4.205
66047W        W30867  30.610   0.016   2.894
66048W        W30868  22.002  10.357   2.229
66049W        W30869  42.929  29.251   0.905
66050W        W30870  34.874  23.700  12.636
66051W        W30871   7.986  18.087  11.580
66052W        W30872  41.076  27.405  14.980
66053W        W30873   2.467  20.589   1.636
66054W        W30874   0.482  23.546   2.774
66055W        W30875  23.977   8.207   4.107
66056W        W30876   0.884   8.795   1.828
66057W        W30877  38.329  21.620  12.075
66058W        W30878  37.333  25.663   2.877
66059W        W30879   0.765  36.911   1.717
66060W        W30880  22.964   3.340   1.763
66061W        W30881   0.363  18.785   4.666
66062W        W30882  23.993  44.418   4.054
66063W        W30883  39.861  44.851   1.353
66064W        W30884   3.615  37.408  11.119
66065W        W30885  20.120  41.076   2.333
66066W        W30886  20.134  20.166  10.417
66067W        W30887  41.089   4.798  12.125
66068W        W30888   1.831  28.156  13.826
66069W        W30889  38.403  14.258   2.395
66070W        W30890  30.997  28.476   4.250
66071W        W30891  44.456  28.049   4.517
66072W        W30892   1.870  13.611  13.869
66073W        W30893  41.971  30.483   4.525
66074W        W30894  24.676  38.446  11.595
66075W        W30895  42.912   3.855  12.157
66076W        W30896  11.500  42.431  13.394
66077W        W30897  22.562   7.824  12.126
66078W        W30898  23.924  41.387   3.769
66079W        W30899  43.509  31.150  12.044
66080W        W30900   6.298  27.469  11.077
66081W        W30901   9.392  38.832  10.741
66082W        W30902  26.050  40.785  11.604
66083W        W30903  28.511  32.947  12.610
66084W        W30904  34.589  22.761  12.610
66085W        W30905   0.250  12.668   2.818
66086W        W30906  40.835  20.083  13.092
66087W        W30907  38.082  14.698   1.149
66088W        W30908  19.242  41.352  14.264
66089W        W30909  35.977  29.971   4.149
66090W        W30910  36.931   8.969   3.341
66091W        W30911   0.861  26.639   3.694
66092W        W30912  13.934  39.951  11.865
66093W        W30913  29.124  38.411   1.643
66094W        W30914   3.184   5.793  13.997
66095W        W30915  26.794   3.676   0.668
66096W        W30916  29.899  40.720  12.094
66097W        W30917  36.060   1.476   1.742
66098W        W30918   5.382   3.327   0.845
66099W        W30919  14.108  32.959  13.122
66100W        W30920   7.862  42.940   1.367
66101W        W30921  15.290  41.342   3.256
66102W        W30922  42.166  37.085  11.833
66103W        W30923  12.184  22.263  11.476
66104W        W30924  17.196  26.634   4.533
66105W        W30925  43.805   0.243  12.670
66106W        W30926  26.970  14.171   2.768
66107W        W30927  24.978   2.243   4.064
66108W        W30928  15.114  14.382   0.739
66109W        W30929   1.308  42.934  10.808
66110W        W30930   6.403  31.403  12.955
66111W        W30931  42.040  30.645   0.254
66112W        W30932  31.948  22.808  13.823
66113W        W30933   6.612  16.133  13.810
66114W        W30934  11.894   2.491   4.269
66115W        W30935  13.280  42.260  11.622
66116W        W30936  22.735  26.424  11.012
66117W        W30937  39.262  39.535   0.811
66118W        W30938  28.059  23.063   4.097
66119W        W30939  16.192  40.354  11.416
66120W        W30940  26.163  44.902   2.233
66121W        W30941  40.020  19.266   3.613
66122W        W30942  40.444   0.735  12.696
66123W        W30943   3.361   8.263  10.777
66124W        W30944   4.870  27.578   2.096
66125W        W30945  20.251  17.654  10.717
66126W        W30946  42.042  26.364   2.902
66127W        W30947  27.467  26.563  12.962
66128W        W30948   8.171  20.772   0.316
66129W        W30949  27.561  25.069   2.715
66130W        W30950  30.509  29.494   1.740
66131W        W30951  16.211  11.257   3.349
66132W        W30952  27.370   3.432  11.990
66133W        W30953  17.846   0.929   2.668
66134W        W30954  14.696  44.995   4.600
66135W        W30955  37.507  24.203  12.915
66136W        W30956  34.985  21.309   3.617
66137W        W30957  28.969  25.756  14.981
66138W        W30958  42.965  43.249  12.531
66139W        W30959  42.784   9.824   3.863
66140W        W30960  24.716   3.403  13.460
66141W        W30961  35.018   7.218  14.253
66142W        W30962  33.482  20.274   3.335
66143W        W30963  42.978  41.574   0.800
66144W        W30964  44.973  42.402   4.202
66145W        W30965   0.514  36.496  11.148
66146W        W30966  44.955  38.560   4.889
66147W        W30967   2.868   5.065  12.114
66148W        W30968  24.134  37.937  13.683
66149W        W30969  37.094   2.883  12.896
66150W        W30970  14.069  25.165  12.372
66151W        W30971  30.231  19.789   4.569
66152W        W30972   0.850  12.139  12.394
66153W        W30973   2.667  20.584  11.166
66154W        W30974  20.052  32.028   4.959
66155W        W30975   6.841  17.221  10.642
66156W        W30976  38.452  33.869  13.956
66157W        W30977  41.343  25.181   4.564
66158W        W30978  26.429  44.795   1.792
66159W        W30979  19.794  38.042   4.595
66160W        W30980  27.977  17.549   3.824
66161W        W30981  26.581   3.446  13.110
66162W        W30982  28.540  38.020   4.280
66163W        W30983  32.105   4.991   4.160
66164W        W30984  41.951  40.975  13.538
66165W        W30985   1.987  19.070   2.029
66166W        W30986  35.937  20.323  11.616
66167W        W30987   2.302  36.090   5.029
66168W        W30988  22.713  44.726   3.087
66169W        W30989   6.789  29.465   3.130
66170W        W30990  44.721  41.476  10.776
66171W        W30991  16.368  24.497  12.482
66172W        W30992  16.137  39.842  13.021
66173W        W30993  11.513  22.809  13.129
66174W        W30994   5.697  34.599   2.329
66175W        W30995  28.021   4.901  11.226
66176W        W30996  25.288   9.925   0.851
66177W        W30997  19.150  17.978  12.476
66178W        W30998  12.475  43.351  14.920
66179W        W30999   0.880  39.912  12.431
66180W        W31000   1.025  13.003  12.958
66181W        W31001  44.738   1.787   2.800
66182W        W31002  44.031  16.382  14.053
66183W        W31003  34.951  35.277   1.714
66184W        W31004   8.937  11.619  13.322
66185W        W31005  17.323  15.099  13.909
66186W        W31006  29.597  39.631  14.473
66187W        W31007  40.313  21.163  12.368
66188W        W31008  12.238  18.993   0.865
66189W        W31009  24.590  16.066   2.956
66190W        W31010  14.786  20.079  10.295
66191W        W31011  42.361  22.072   3.595
66192W        W31012  31.539   7.880   4.094
66193W        W31013  37.623  22.792  14.881
66194W        W31014  29.453  15.262   3.408
66195W        W31015  14.761   1.461   1.738
66196W        W31016  35.575  33.467  11.599
66197W        W31017  40.307  39.471   3.682
66198W        W31018  29.273  40.751  11.074
66199W        W31019  12.670  12.649  13.845
66200W        W31020  44.507   7.706   1.703
66201W        W31021   3.125  26.688   4.092
66202W        W31022  24.926  15.047   1.456
66203W        W31023  12.709   3.803   0.930
66204W        W31024  41.501  32.424   3.043
66205W        W31025   0.717  23.007  14.787
66206W        W31026  20.212  32.370   2.301
66207W        W31027  42.040  17.508  11.166
66208W        W31028  35.133   0.924  12.465
66209W        W31029  35.376  27.159   1.394
66210W        W31030   9.378  15.530  13.889
66211W        W31031  37.222  33.698   0.217
66212W        W31032  25.183  20.083  13.995
66213W        W31033  27.029  21.351  13.506
66214W        W31034  24.610  25.849   2.617
66215W        W31035   2.288  35.878  11.182
66216W        W31036  20.103  30.120   3.377
66217W        W31037  32.109  41.455   4.208
66218W        W31038  37.590   9.155   4.945
66219W        W31039   5.954  20.581   3.277
66220W        W31040  19.998  36.725   1.876
66221W        W31041  30.088   2.470  14.919
66222W        W31042   6.311  37.637   1.081
66223W        W31043  41.724   8.793   4.665
66224W        W31044  36.536  42.777  12.199
66225W        W31045  42.320  41.889   2.801
66226W        W31046  20.476   3.922  11.054
66227W        W31047  36.935  21.248  12.026
66228W        W31048  11.315  19.068   4.958
66229W        W31049  17.507  20.149  14.273
66230W        W31050  25.725  12.766   1.303
66231W        W31051  39.489  14.838  14.501
66232W        W31052  37.891   3.040   0.364
66233W        W31053  32.938  16.628   1.604
66234W        W31054  23.418  14.861  13.495
66235W        W31055   2.373   7.270  13.487
66236W        W31056  35.118   7.778   4.217
66237W        W31057  13.436  11.546   5.380
66238W        W31058   8.034  40.009   0.737
66239W        W31059  36.820  22.815  11.953
66240W        W31060  10.098  44.274   3.394
66241W        W31061  43.458  30.607   0.688
66242W        W31062   1.521   1.576  14.352
66243W        W31063   2.373   1.630  11.309
66244W        W31064  37.061   9.189   4.984
66245W        W31065  41.395  12.522  14.336
66246W        W31066  37.430  28.418  11.062
66247W        W31067  13.214  40.557   4.633
66248W        W31068  43.738  36.983  10.479
66249W        W31069  13.522  16.547  12.506
66250W        W31070  25.211  21.581  13.555
66251W        W31071  40.237   7.835   0.286
66252W        W31072  37.294  22.678   2.659
66253W        W31073  13.745  29.696  13.998
66254W        W31074   7.121  35.629   3.218
66255W        W31075  37.186  16.268  13.641
66256W        W31076  15.710  31.657  12.644
66257W        W31077  27.928  40.872  13.607
66258W        W31078  10.079  26.055   1.982
66259W        W31079  13.094  42.470   1.259
66260W        W31080  11.593  22.919   4.721
66261W        W31081  24.736  15.653   2.155
66262W        W31082  35.154  29.413   0.829
66263W        W31083  20.345  20.665   3.785
66264W        W31084  17.380  17.766  13.841
66265W        W31085   2.754  24.239   4.951
66266W        W31086  38.084  21.707   0.831
66267W        W31087   0.907  18.053   4.644
66268W        W31088  12.572  22.209   4.249
66269W        W31089  39.388  24.019  11.141
66270W        W31090  44.734  20.098   3.724
66271W        W31091  31.380  22.185  13.959
66272W        W31092  13.857  42.744   4.925
66273W        W31093  44.723  28.088  11.506
66274W        W31094   2.671  39.851   2.679
66275W        W31095  16.603  33.057  13.907
66276W        W31096  12.931   0.319  10.796
66277W        W31097  11.733  42.039  13.118
66278W        W31098  39.693   3.650   2.364
66279W        W31099   7.573  15.195   1.681
66280W        W31100  30.758  20.157  11.979
66281W        W31101  15.260  12.427  12.816
66282W        W31102  35.862  14.897  11.921
66283W        W31103   1.996  25.150   0.794
66284W        W31104   8.342  14.575  13.500
66285W        W31105  22.136  22.231  14.792
66286W        W31106  16.322   5.053  12.892
66287W        W31107  11.561  33.032  13.993
66288W        W31108  17.581   8.340  12.948
66289W        W31109   4.893   7.677   1.669
66290W        W31110  31.380   5.334  11.548
66291W        W31111  44.137  32.605  13.973
66292W        W31112  33.388  13.464  13.961
66293W        W31113  15.132  15.238   9.693
66294W        W31114   3.516  35.809  11.443
66295W        W31115  33.654  20.651   4.070
66296W        W31116  11.226  20.942  13.438
66297W        W31117  28.526  28.484  11.187
66298W        W31118   2.391  42.389   1.759
66299W        W31119   8.748   3.658   2.155
66300W        W31120  29.410  40.865  11.558
66301W        W31121   8.693   5.738   1.007
66302W        W31122  40.643   5.298   3.125
66303W        W31123  24.271  40.042   2.376
66304W        W31124  25.481  26.982   3.863
66305W        W31125  19.008   7.706  11.010
66306W        W31126   5.261  34.400  10.728
66307W        W31127  25.968  31.232   2.261
66308W        W31128  34.937  21.789  13.008
66309W        W31129  39.281  38.950  11.240
66310W        W31130   2.129  26.662  14.666
66311W        W31131  21.018  33.630  10.222
66312W        W31132  33.428   9.511  10.777
66313W        W31133  10.209  34.917   0.812
66314W        W31134  22.108  26.127  12.494
66315W        W31135  18.284  31.338   0.257
66316W        W31136  38.636  30.891   3.336
66317W        W31137  33.721  14.657  11.569
66318W        W31138   0.342  14.086   4.165
66319W        W31139   3.181  25.519   3.066
66320W        W31140  10.679  32.395   9.808
66321W        W31141  28.103  31.904   0.653
66322W        W31142  39.050  38.079   1.140
66323W        W31143  13.296  17.107  12.539
66324W        W31144  25.620  40.370  12.601
66325W        W31145  15.367  36.495   3.614
66326W        W31146  29.602  20.014  11.952
66327W        W31147   2.457  29.686  10.700
66328W        W31148  39.446   8.695   2.168
66329W        W31149  40.406   9.993  12.406
66330W        W31150  44.247  30.565  11.570
66331W        W31151  34.561   0.888   4.892
66332W        W31152  10.378  20.624   2.757
66333W        W31153   8.209   8.123  10.981
66334W        W31154  35.991  43.291  14.779
66335W        W31155   9.466  36.497   4.484
66336W        W31156  39.774  16.107   2.187
66337W        W31157   5.329  15.876   3.957
66338W        W31158   8.465  23.792  14.010
66339W        W31159  20.865  36.886   0.962
66340W        W31160  18.964  43.423  10.966
66341W        W31161   2.077  30.290   5.107
66342W        W31162  10.761  38.001  10.647
66343W        W31163  33.867  11.606  10.194
66344W        W31164   6.112  36.975  10.673
66345W        W31165  37.370  10.003  14.320
66346W        W31166  10.321  25.499   5.159
66347W        W31167  14.123  34.488  12.682
66348W        W31168  32.675  42.789   4.908
66349W        W31169  26.520  14.363  14.374
66350W        W31170  15.067  10.396  13.860
66351W        W31171  21.217  34.675  11.056
66352W        W31172   2.881  26.106   1.447
66353W        W31173  20.729   6.209  10.506
66354W        W31174  37.396  31.070  13.995
66355W        W31175   8.705   5.846  14.013
66356W        W31176  42.230  22.986   0.488
66357W        W31177  26.655  44.777   4.375
66358W        W31178  12.675   8.879  11.934
66359W        W31179   1.509  38.072   0.448
66360W        W31180  28.109  19.016  13.583
66361W        W31181   5.459  10.636  14.992
66362W        W31182  27.736  42.136  14.197
66363W        W31183  18.454  32.223   5.120
66364W        W31184  27.313  16.483   4.282
66365W        W31185  20.087  33.976  13.228
66366W        W31186  29.481  27.840   0.951
66367W        W31187   0.480  17.625  14.376
66368W        W31188   4.659   0.607  10.092
66369W        W31189  29.623  38.500   4.560
66370W        W31190  11.918  40.150   0.757
66371W        W31191   2.382  34.336   3.775
66372W        W31192  33.380  11.355  14.518
66373W        W31193  15.166  14.362   3.615
66374W        W31194  42.188  27.366   0.241
66375W        W31195  10.148  39.445   2.635
66376W        W31196  31.199  24.190  14.355
66377W        W31197  25.106  22.812  11.109
66378W        W31198  18.478  10.815  12.509
66379W        W31199  10.639  28.983   0.908
66380W        W31200  35.881  21.742   4.634
66381W        W31201   8.404   0.854  14.978
66382W        W31202  41.246  10.199   0.490
66383W        W31203  24.916  42.796  10.863
66384W        W31204  26.252  26.569   1.066
66385W        W31205  23.108   7.304   4.577
66386W        W31206   4.773   7.881   2.410
66387W        W31207   7.740   3.940  12.144
66388W        W31208  19.852  29.162   4.197
66389W        W31209   3.827  10.918  11.576
66390W        W31210  15.301  20.647   4.064
66391W        W31211  28.620  15.484  12.551
66392W        W31212   6.715  30.403  11.160
66393W        W31213   8.133  37.178  13.540
66394W        W31214  17.688  18.048   1.487
66395W        W31215  34.483  14.759   1.360
66396W        W31216  28.972  21.466   2.682
66397W        W31217  18.188   7.232   2.555
66398W        W31218  33.194  39.347   0.831
66399W        W31219  35.436  42.442   0.844
66400W        W31220  27.923  16.829  13.286
66401W        W31221  10.256  36.689   2.717
66402W        W31222  17.649  21.039   1.689
66403W        W31223  10.322  36.116   4.837
66404W        W31224  17.834  31.548   1.433
66405W        W31225  31.688  21.116   2.804
66406W        W31226  40.493  17.545  13.496
66407W        W31227  21.207   5.889   5.498
66408W        W31228  36.734   0.516  12.155
66409W        W31229  17.761  28.069   3.639
66410W        W31230  11.407  31.643   4.685
66411W        W31231   4.334  28.097   3.683
66412W        W31232  33.463  10.009  10.654
66413W        W31233  10.414  38.322  13.822
66414W        W31234  43.998  32.440  14.981
66415W        W31235  34.811  38.921   2.762
66416W        W31236   8.271  16.956   2.075
66417W        W31237  35.716  33.509   1.238
66418W        W31238  17.209  42.417   4.427
66419W        W31239  15.620   1.717   0.874
66420W        W31240  38.496  32.061  11.373
66421W        W31241  10.236  12.418   0.450
66422W        W31242   9.728  28.424  10.380
66423W        W31243  39.023  13.024  13.899
66424W        W31244  10.309  14.415   1.878
66425W        W31245   6.668  38.233  11.905
66426W        W31246   4.409  39.343  13.857
66427W        W31247  28.054  10.334   2.105
66428W        W31248  17.224   9.453  10.676
66429W        W31249   7.291  35.151  10.789
66430W        W31250  35.025  25.910   1.837
66431W        W31251  31.860   9.815  13.059
66432W        W31252  26.846  32.373  12.575
66433W        W31253  10.424   6.694  12.091
66434W        W31254  28.745  18.100   3.833
66435W        W31255   6.190   6.857  10.669
66436W        W31256  25.495  10.904  14.437
66437W        W31257   5.600   7.236  13.471
66438W        W31258  42.793  16.339  10.936
66439W        W31259  23.735  36.653   0.157
66440W        W31260  40.928  29.346  13.068
66441W        W31261   9.663  24.100   3.717
66442W        W31262  30.123  44.706   4.137
66443W        W31263  16.875  44.962  12.460
66444W        W31264  37.823  23.377   2.712
66445W        W31265  30.426  34.876   0.321
66446W        W31266   2.850   9.121  14.749
66447W        W31267   9.895  11.457   1.350
66448W        W31268  18.709  27.124  10.724
66449W        W31269  21.623  40.044  13.880
66450W        W31270   5.608  17.624  13.529
66451W        W31271  40.925   7.631  14.332
66452W        W31272   9.926  40.031  11.218
66453W        W31273  41.831  23.605  14.932
66454W        W31274   6.759  39.771   2.417
66455W        W31275   4.838  12.510   1.330
66456W        W31276   9.722  26.651   1.725
66457W        W31277  39.095   0.678   4.265
66458W        W31278  26.709  15.006   1.353
66459W        W31279  12.464   0.510  13.305
66460W        W31280  15.265  30.577   2.353
66461W        W31281  44.656  13.197  10.337
66462W        W31282  13.466  27.058   0.213
66463W        W31283  31.450   3.058  14.441
66464W        W31284   7.284  43.380  13.963
66465W        W31285   6.889  31.992  14.423
66466W        W31286  36.881  25.728   4.981
66467W        W31287  41.468  25.782   3.248
66468W        W31288  44.306  30.682   0.353
66469W        W31289  34.073  27.298   0.875
66470W        W31290  20.771   5.286   4.572
66471W        W31291   4.923  17.822  14.377
66472W        W31292  28.690  24.556  14.704
66473W        W31293  41.470  26.508  13.525
66474W        W31294   7.451  21.296   3.669
66475W        W31295  32.717  22.043   4.296
66476W        W31296  11.310   4.039   1.747
66477W        W31297  39.431  10.109   0.272
66478W        W31298  28.080  23.231  13.821
66479W        W31299  28.161  37.411  13.374
66480W        W31300  16.763  22.045   0.367
66481W        W31301  17.357  21.930  13.432
66482W        W31302   2.801   9.386   1.164
66483W        W31303  38.465   5.761   2.279
66484W        W31304  11.301   7.480  14.517
66485W        W31305   2.343   0.396   1.189
66486W        W31306  32.725   5.396   4.028
66487W        W31307   5.441  40.725   1.841
66488W        W31308   7.196  15.784  10.561
66489W        W31309  39.563  25.973   4.803
66490W        W31310  22.775  42.190   0.942
66491W        W31311  23.632  24.720   2.663
66492W        W31312  39.349   2.002  14.288
66493W        W31313   5.955  21.245   4.803
66494W        W31314  42.735  42.408   1.410
66495W        W31315  20.668  25.409   0.457
66496W        W31316  40.095  40.027  14.036
66497W        W31317   3.915  41.268   2.727
66498W        W31318  12.812   9.293   1.426
66499W        W31319  31.472  30.897  12.537
66500W        W31320  25.990  29.430   1.002
66501W        W31321  34.975  18.926  12.061
66502W        W31322   7.944  13.942   1.590
66503W        W31323  15.583  40.660  14.012
66504W        W31324  13.130  22.657   3.815
66505W        W31325  27.484  13.540  12.591
66506W        W31326  32.199  40.001  11.830
66507W        W31327   6.133  37.536  14.454
66508W        W31328   3.803  42.062   2.237
66509W        W31329  28.431  34.946  13.801
66510W        W31330   0.213  41.448  13.177
66511W        W31331   3.745  29.171   2.388
66512W        W31332  11.954  43.881   2.666
66513W        W31333  29.418  33.900  13.394
66514W        W31334  31.133   1.168  11.653
66515W        W31335  25.536  30.453   1.246
66516W        W31336  42.316  22.983  13.370
66517W        W31337  23.077  29.147   2.574
66518W        W31338  11.365  40.579   4.782
66519W        W31339  25.620  40.398   2.770
66520W        W31340  39.793  15.760   0.428
66521W        W31341   9.091  13.598  11.509
66522W        W31342  24.539  42.389   1.300
66523W        W31343  14.728  15.668  10.385
66524W        W31344  20.038  29.587  11.621
66525W        W31345  24.094  36.739   1.883
66526W        W31346  26.703  11.545  10.261
66527W        W31347   8.574   6.201   2.628
66528W        W31348   5.157  18.086   4.099
66529W        W31349   8.621  36.103  10.651
66530W        W31350  11.296  25.556   3.621
66531W        W31351   9.119   4.987   0.832
66532W        W31352  28.508  36.239  13.008
66533W        W31353   8.622  30.639   0.767
66534W        W31354   5.703   4.777   2.655
66535W        W31355  29.865   4.546  11.307
66536W        W31356  33.582  27.267  13.454
66537W        W31357  35.146  42.386  14.924
66538W        W31358  42.787  11.910  13.192
66539W        W31359  40.429  11.940  12.585
66540W        W31360  42.457  29.149   0.708
66541W        W31361  43.247  13.741   4.512
66542W        W31362   0.887   5.225   1.222
66543W        W31363  13.113  10.579  11.517
66544W        W31364  35.823  19.213   0.808
66545W        W31365  17.701  35.263   5.737
66546W        W31366  39.697  14.197  14.011
66547W        W31367   3.446   1.379  12.082
66548W        W31368  43.426  23.737  12.181
66549W        W31369  28.575  41.321  12.486
66550W        W31370  26.743   5.267  12.450
66551W        W31371  24.270  13.384   2.685
66552W        W31372  19.962  19.326   3.160
66553W        W31373  30.616  43.286   0.824
66554W        W31374   2.935  30.615   0.419
66555W        W31375  42.069  37.114   2.266
66556W        W31376  16.233  10.071  10.269
66557W        W31377   6.401  42.862   2.895
66558W        W31378  30.473   1.742  11.488
66559W        W31379  11.343  26.224  14.823
66560W        W31380  21.370   5.798   4.607
66561W        W31381   7.738  42.714  14.937
66562W        W31382  25.498  24.045   3.287
66563W        W31383   5.692   7.530   0.425
66564W        W31384   7.995   2.906  13.706
66565W        W31385  12.675  28.678  11.536
66566W        W31386  21.449  25.001   3.134
66567W        W31387   3.624  41.883   4.796
66568W        W31388  28.425   5.746   3.268
66569W        W31389  21.629  11.341   2.867
66570W        W31390  18.119  25.497  13.234
66571W        W31391  37.178  12.668  12.403
66572W        W31392  16.729  31.544  11.919
66573W        W31393  31.368  31.843  14.365
66574W        W31394   2.453   4.829  11.895
66575W        W31395  26.099  14.081  13.632
66576W        W31396  18.808   1.784  14.255
66577W        W31397  21.315   3.331   2.190
66578W        W31398  39.260  34.241  13.194
66579W        W31399  36.434  27.372   1.874
66580W        W31400   9.427  43.468   4.598
66581W        W31401   3.241   7.765  10.795
66582W        W31402  36.311  42.848   2.367
66583W        W31403   0.779  30.117  11.987
66584W        W31404  28.153  23.139   1.901
66585W        W31405  21.359  20.678  13.875
66586W        W31406  13.941  27.970   3.882
66587W        W31407  22.391   7.122  11.651
66588W        W31408   2.844  22.093   0.182
66589W        W31409   8.272  14.224   2.839
66590W        W31410  31.055   9.187   4.441
66591W        W31411  36.982   1.684  12.528
66592W        W31412   1.383  34.845   1.194
66593W        W31413  38.442  43.655  12.744
66594W        W31414  25.457  38.976   2.854
66595W        W31415  28.312  14.280   3.799
66596W        W31416  42.269  15.782  13.569
66597W        W31417  19.587  42.813   0.892
66598W        W31418   4.387   5.074  10.293
66599W        W31419  13.785  40.387   1.097
66600W        W31420  10.346  11.468  11.563
66601W        W31421  42.407  42.755   1.925
66602W        W31422  23.475  12.225   4.162
66603W        W31423   4.362  39.138   0.064
66604W        W31424   0.962  42.773   3.298
66605W        W31425  15.956  44.873   1.347
66606W        W31426  37.720   8.299   0.164
66607W        W31427  24.605  22.153   2.662
66608W        W31428  14.716  22.071  11.975
66609W        W31429  36.095  13.647  11.568
66610W        W31430  39.962  25.452   2.113
66611W        W31431  23.074  16.521  14.352
66612W        W31432  30.951  24.792   2.541
66613W        W31433  35.498  14.036  14.702
66614W        W31434  25.712  44.791   1.333
66615W        W31435  30.125  17.526   0.830
66616W        W31436  14.165  17.445  14.054
66617W        W31437  16.668  18.148   5.040
66618W        W31438  28.620  37.623  13.427
66619W        W31439  18.646  22.436  12.505
66620W        W31440   3.211   4.666  13.018
66621W        W31441   8.916  39.405   3.309
66622W        W31442  30.940  19.091  14.044
66623W        W31443  15.727  14.758  12.436
66624W        W31444  14.027  16.715   4.982
66625W        W31445   2.792   4.562  12.179
66626W        W31446  28.553  10.651   3.247
66627W        W31447  19.046   2.717  14.818
66628W        W31448  18.026   6.429   4.608
66629W        W31449  31.391  10.976   3.229
66630W        W31450  10.141  39.244  13.503
66631W        W31451   4.940   6.851  11.087
66632W        W31452   3.008  43.946   4.300
66633W        W31453  29.880  21.144  12.494
66634W        W31454  15.583  13.696   4.710
66635W        W31455  15.247   7.936   2.919
66636W        W31456  43.034  40.507  11.107
66637W        W31457  25.076   2.759  12.431
66638W        W31458  41.743  39.299  13.582
66639W        W31459  22.129  19.779  10.776
66640W        W31460  38.322   0.943  14.838
66641W        W31461  12.797   3.003  11.231
66642W        W31462  40.501  43.795  12.491
66643W        W31463  16.427   4.213   0.893
66644W        W31464  31.815  18.784  13.031
66645W        W31465   8.774  26.913  12.502
66646W        W31466  36.857  23.015   2.751
66647W        W31467   6.438  18.990  14.370
66648W        W31468  32.824  21.150  11.171
66649W        W31469  30.484  40.488  13.047
66650W        W31470  16.105  44.237  10.829
66651W        W31471  17.809  29.313  12.999
66652W        W31472  25.561  30.883   2.368
66653W        W31473  41.882  43.562  10.691
66654W        W31474   7.233  32.902   1.877
66655W        W31475  14.733  25.533  10.533
66656W        W31476   9.386   5.150  12.731
66657W        W31477  27.004  23.580   0.826
66658W        W31478  38.858  15.562   1.335
66659W        W31479  35.844   6.468  11.580
66660W        W31480  20.986  23.030  10.664
66661W        W31481  20.082  14.957  12.303
66662W        W31482  37.393  18.210   4.163
66663W        W31483  10.924   0.975  12.920
66664W        W31484  40.532  34.908   4.733
66665W        W31485  40.868  29.558   4.480
66666W        W31486  42.071  34.891   1.761
66667W        W31487  37.182  32.918  10.654
66668W        W31488   5.681  20.168   3.882
66669W        W31489   7.664  30.874  14.939
66670W        W31490   5.824  27.083  13.975
66671W        W31491  19.726  30.202  14.667
66672W        W31492  26.895  22.084   1.469
66673W        W31493  26.110  17.051  10.575
66674W        W31494  27.623  15.963   2.650
66675W        W31495  14.788  39.101   4.560
66676W        W31496   1.172  38.448  13.521
66677W        W31497  34.002   3.704   2.822
66678W        W31498  10.810  22.653  10.520
66679W        W31499  19.886  38.835   2.752
66680W        W31500  37.313  22.883  14.095
66681W        W31501  24.129   2.486  11.510
66682W        W31502  36.316  15.878   4.639
66683W        W31503  15.366  13.208   3.206
66684W        W31504  19.675  28.674  10.619
66685W        W31505  34.133  24.672  12.417
66686W        W31506  35.410  36.551   4.624
66687W        W31507   4.511  27.111  12.043
66688W        W31508  26.609  15.152  12.442
66689W        W31509  10.945   0.731  12.069
66690W        W31510  11.811  36.657  14.273
66691W        W31511  30.434   4.320  13.091
66692W        W31512   3.586  27.681   2.501
66693W        W31513  16.504   7.378   2.710
66694W        W31514  35.122  25.924  11.099
66695W        W31515  20.614  44.253  14.834
66696W        W31516  31.676   3.669  11.948
66697W        W31517  21.855  19.669   9.694
66698W        W31518   0.430  20.174   2.623
66699W        W31519  27.451  29.148  13.367
66700W        W31520  39.785   9.948  11.673
66701W        W31521  38.432  31.220  11.047
66702W        W31522  37.265  30.099  12.030
66703W        W31523  12.528   9.659   2.739
66704W        W31524  28.044   4.873  12.178
66705W        W31525   3.281  39.451   1.953
66706W        W31526  15.859  28.246  14.434
66707W        W31527  35.572  32.860   4.565
66708W        W31528  14.739  37.926  11.478
66709W        W31529  23.161  25.539   0.780
66710W        W31530  10.512  28.589   4.238
66711W        W31531  32.875  25.927  12.501
66712W        W31532  36.020  11.266  11.856
66713W        W31533  10.325  21.865  10.805
66714W        W31534  14.743  11.423   4.601
66715W        W31535  38.547  40.545   3.207
66716W        W31536  30.605  12.348   1.236
66717W        W31537  37.637   3.671   3.354
66718W        W31538  34.050  33.631  13.770
66719W        W31539  22.264   8.434  14.476
66720W        W31540  32.571  35.057  10.719
66721W        W31541  39.094   6.864   3.392
66722W        W31542   4.958  42.712  14.876
66723W        W31543  22.958  41.174  10.680
66724W        W31544   8.445   3.215  14.530
66725W        W31545   8.468   5.976  12.452
66726W        W31546   1.690  31.142   2.471
66727W        W31547   6.928  35.364   0.808
66728W        W31548  21.064   5.423   0.285
66729W        W31549  13.636  23.769   4.033
66730W        W31550  43.550  36.400  13.408
66731W        W31551  11.260   2.334   1.352
66732W        W31552   6.416  43.580   4.566
66733W        W31553   7.496   0.816  12.368
66734W        W31554  27.862   0.921   1.329
66735W        W31555   0.430  29.701   4.613
66736W        W31556  11.470  43.978   2.749
66737W        W31557  39.766  18.202  14.476
66738W        W31558   1.896   6.344  13.331
66739W        W31559  14.227  39.410  14.118
66740W        W31560   6.901  29.217   3.964
66741W        W31561  21.649  34.287   4.625
66742W        W31562  20.516   4.700  10.737
66743W        W31563  30.709  24.945  14.803
66744W        W31564  44.072  28.589   1.866
66745W        W31565  34.977  18.793  10.677
66746W        W31566  43.043   1.089   2.415
66747W        W31567  28.694   3.230  11.719
66748W        W31568  43.511  13.349  11.066
66749W        W31569  12.443  23.697   4.609
66750W        W31570  38.791  25.908   1.789
66751W        W31571  35.979  35.350   0.815
66752W        W31572  36.485  27.656  12.580
66753W        W31573   7.206  11.941   4.573
66754W        W31574   9.660  24.069  14.622
66755W        W31575  17.750  11.219  10.857
66756W        W31576  34.436   6.513  13.476
66757W        W31577  12.402  25.948   3.272
66758W        W31578   5.946   2.840   0.321
66759W        W31579   3.582   5.164  13.423
66760W        W31580  12.242  28.536   0.375
66761W        W31581  29.684   3.006  14.798
66762W        W31582  30.063   7.402   4.553
66763W        W31583   3.642   8.635  11.557
66764W        W31584  36.597  23.059  12.620
66765W        W31585  33.295  27.170  13.865
66766W        W31586  30.996  20.995  10.160
66767W        W31587  20.037  42.919   1.149
66768W        W31588  18.004   1.040   4.593
66769W        W31589   4.528  24.149   0.437
66770W        W31590   3.770  29.887  12.165
66771W        W31591   2.510  19.788   1.859
66772W        W31592  30.344  22.131  14.988
66773W        W31593  16.234  29.918  14.035
66774W        W31594  28.943  21.209  14.821
66775W        W31595  35.005  26.249   0.911
66776W        W31596  24.226  34.187  13.019
66777W        W31597  39.069  39.924   2.791
66778W        W31598  24.869   6.494  12.040
66779W        W31599  43.900  44.442   4.359
66780W        W31600   3.897   8.468  11.946
66781W        W31601  42.111   2.681   3.122
66782W        W31602  25.706   8.698  11.242
66783W        W31603  43.334  27.165   2.701
66784W        W31604  26.507   9.068  12.588
66785W        W31605   2.910   2.012   4.313
66786W        W31606  31.025  15.624   1.787
66787W        W31607  40.991  36.523  14.393
66788W        W31608   3.818  18.992   0.181
66789W        W31609  17.076   6.495  10.055
66790W        W31610  36.485  22.123  10.544
66791W        W31611   5.553  40.542  13.761
66792W        W31612  23.228  25.031   3.919
66793W        W31613  26.973  40.941   1.455
66794W        W31614   9.327  24.589   4.159
66795W        W31615  38.611  32.845  14.075
66796W        W31616  24.353   6.303  12.845
66797W        W31617  27.875   0.466   2.434
66798W        W31618  39.861  10.996  11.657
66799W        W31619  37.532  19.664   0.190
66800W        W31620  20.597  15.982   0.503
66801W        W31621  35.945   8.117   3.198
66802W        W31622   7.109  10.021  12.653
66803W        W31623  25.809  35.473   2.122
66804W        W31624  22.736  20.305   2.716
66805W        W31625  10.944   1.641  13.463
66806W        W31626   9.654  37.607  14.536
66807W        W31627  10.215   6.967   1.018
66808W        W31628  12.763  14.641   0.753
66809W        W31629  14.511  44.016  11.562
66810W        W31630   6.366  11.351  13.322
66811W        W31631  12.331  34.757   4.730
66812W        W31632  40.568   0.885   0.320
66813W        W31633  10.248  35.128  13.936
66814W        W31634   5.780  42.545  12.927
66815W        W31635  16.214   8.684  13.026
66816W        W31636  41.053  15.627   4.676
66817W        W31637  40.959  23.950   1.549
66818W        W31638  29.041  33.154   3.245
66819W        W31639  33.487  41.823   9.943
66820W        W31640  26.487  31.368  10.789
66821W        W31641  10.302  19.544   0.769
66822W        W31642  20.175  17.094   0.361
66823W        W31643  20.098  15.087  13.835
66824W        W31644  34.333  37.171  11.962
66825W        W31645  11.278   7.718  10.766
66826W        W31646  42.968  32.181   1.358
66827W        W31647  30.678   0.910  11.122
66828W        W31648   6.361  34.460   4.493
66829W        W31649   1.266  33.063   4.095
66830W        W31650  26.251  42.942   3.829
66831W        W31651   2.943   5.181   0.841
66832W        W31652  26.385  42.782   0.442
66833W        W31653  36.604  17.343  12.534
66834W        W31654  30.018  14.165  14.713
66835W        W31655  23.255  11.856   1.515
66836W        W31656  14.787  37.616   0.732
66837W        W31657  36.994  28.132  11.190
66838W        W31658  20.141  23.699   9.755
66839W        W31659  30.623  22.624   4.599
66840W        W31660  12.705   0.985  11.541
66841W        W31661  25.528  31.930  12.785
66842W        W31662  14.582  18.231  11.530
66843W        W31663   9.475   2.349   2.234
66844W        W31664  20.475  16.829   3.274
66845W        W31665  38.969  28.478  12.098
66846W        W31666  14.302   5.530  14.135
66847W        W31667   8.216  14.130   4.874
66848W        W31668   5.774   3.686  14.587
66849W        W31669  31.649  35.721  13.643
66850W        W31670  19.116  17.507   4.416
66851W        W31671  24.207  42.547  14.815
66852W        W31672   5.017  14.285   2.541
66853W        W31673   6.948   1.399   1.835
66854W        W31674   7.358  29.452  14.368
66855W        W31675   6.223  15.954   4.812
66856W        W31676   9.236  22.246  13.476
66857W        W31677  27.315  25.044  11.082
66858W        W31678   9.544  12.635   4.613
66859W        W31679  34.612  18.344   0.859
66860W        W31680  16.288  32.563  14.503
66861W        W31681  22.791  22.603   4.064
66862W        W31682  28.307  32.628   0.851
66863W        W31683   7.261  39.985   2.504
66864W        W31684   4.258  17.744   4.219
66865W        W31685   1.051  18.743  13.898
66866W        W31686  19.014  41.176  12.579
66867W        W31687  40.369  17.150   0.967
66868W        W31688  39.552  12.718  11.112
66869W        W31689  28.403  10.790   4.251
66870W        W31690  19.014  17.173   1.734
66871W        W31691   1.335   2.509   1.538
66872W        W31692  22.202  34.906  13.521
66873W        W31693   7.409  10.151   9.839
66874W        W31694  20.202  43.894   1.192
66875W        W31695  38.328  22.542  13.563
66876W        W31696  13.617  12.755   2.669
66877W        W31697  23.624  27.761  13.484
66878W        W31698   9.682   2.979  12.930
66879W        W31699  28.036  32.068   4.495
66880W        W31700  18.964   8.019  13.991
66881W        W31701   3.767   1.948  14.711
66882W        W31702  44.233  41.383  10.629
66883W        W31703  19.233  29.233  12.794
66884W        W31704   8.858   2.048  14.817
66885W        W31705   0.953  26.094  13.157
66886W        W31706   4.134  28.003   4.177
66887W        W31707  38.097  18.158   0.371
66888W        W31708  21.700  26.692   1.854
66889W        W31709   2.580  16.103   4.422
66890W        W31710  10.002   1.291   2.790
66891W        W31711  30.756  26.789  14.410
66892W        W31712  37.369  37.849  11.614
66893W        W31713   7.271  27.577  11.228
66894W        W31714   9.619  42.394  13.283
66895W        W31715  37.319  31.170   1.374
66896W        W31716  43.729   6.563   1.649
66897W        W31717  38.022  31.452  12.929
66898W        W31718  29.080  26.665  10.201
66899W        W31719  38.615  44.389   1.367
66900W        W31720  43.239  21.794  13.937
66901W        W31721  40.392  21.810   0.691
66902W        W31722  10.204  30.925  10.157
66903W        W31723  30.387  25.551   0.749
66904W        W31724  40.803  13.289  14.278
66905W        W31725   3.808  18.668   3.631
66906W        W31726   2.112   5.521   2.279
66907W        W31727   8.847   5.253  11.980
66908W        W31728  17.028  23.836   1.636
66909W        W31729  44.279  17.454  14.720
66910W        W31730  25.942  13.275  10.717
66911W        W31731   2.955  23.067  11.682
66912W        W31732  43.518  29.383   3.359
66913W        W31733   3.540  39.951  14.385
66914W        W31734  13.199  42.851   0.937
66915W        W31735   7.725  23.109   0.000
66916W        W31736  10.578  11.050  11.762
66917W        W31737  20.333  28.750   1.701
66918W        W31738  42.188  42.395  13.182
66919W        W31739  40.896  37.753  12.127
66920W        W31740  19.093  27.947   4.428
66921W        W31741   1.446   9.225  11.095
66922W        W31742  30.911   5.159   4.613
66923W        W31743  23.531  32.503  14.466
66924W        W31744  28.659   1.274   2.202
66925W        W31745  14.608  37.614  14.739
66926W        W31746   5.910  28.148   4.397
66927W        W31747   4.151  36.885  11.889
66928W        W31748  18.059  33.634  13.583
66929W        W31749  17.888  22.065   3.637
66930W        W31750  37.434  22.761  13.120
66931W        W31751  25.554   4.941  12.976
66932W        W31752  39.527  31.595   1.456
66933W        W31753  39.423  41.064   2.348
66934W        W31754  11.916  25.982   0.769
66935W        W31755  29.442  44.516  10.295
66936W        W31756   4.397  42.293   3.777
66937W        W31757   9.286   8.638  13.278
66938W        W31758  18.611  22.630   2.963
66939W        W31759  17.832  12.355  12.125
66940W        W31760  32.995  10.180  14.998
66941W        W31761  34.322  38.786   3.902
66942W        W31762  11.931   8.847  13.516
66943W        W31763  36.003  39.281  11.182
66944W        W31764  42.376  40.550   4.379
66945W        W31765  32.947  30.938   0.358
66946W        W31766  33.375  30.426  12.845
66947W        W31767  31.634  40.064  11.228
66948W        W31768  14.189  25.215  14.224
66949W        W31769  22.581  44.996  13.060
66950W        W31770  14.597   7.498  14.411
66951W        W31771   3.488  17.740   0.232
66952W        W31772  31.700   8.246   2.825
66953W        W31773   5.356   3.669   4.803
66954W        W31774  37.597  35.986  14.245
66955W        W31775  14.038  24.510  11.194
66956W        W31776  12.276  18.889   4.150
66957W        W31777  10.794   0.886  11.586
66958W        W31778  17.574  18.212   3.690
66959W        W31779  15.595   5.264  13.552
66960W        W31780  27.148   5.781  13.323
66961W        W31781  21.424  13.040  13.207
66962W        W31782  20.598  31.552   4.232
66963W        W31783  38.567   2.725   3.859
66964W        W31784  32.685  11.179   2.511
66965W        W31785  39.556  11.097  12.575
66966W        W31786  33.378   0.498   3.492
66967W        W31787  13.688  37.080  14.368
66968W        W31788  33.435  39.774   4.569
66969W        W31789   4.695  29.382   3.650
66970W        W31790   5.234  23.929   2.347
66971W        W31791   2.713  14.230   5.034
66972W        W31792   1.223  41.731   4.113
66973W        W31793  40.808  37.221  13.250
66974W        W31794  12.854  17.276   2.595
66975W        W31795  37.479  12.754  14.697
66976W        W31796  34.328  17.236   2.905
66977W        W31797   0.710  39.158  13.447
66978W        W31798  16.167  12.356  12.512
66979W        W31799   2.194   3.333   5.158
66980W        W31800   0.094  26.670   4.915
66981W        W31801  17.435  36.712  12.126
66982W        W31802  10.781  10.241  12.790
66983W        W31803  21.741  17.276   4.013
66984W        W31804  14.552  36.259  14.867
66985W        W31805  29.697  24.267   2.161
66986W        W31806  32.043  26.722  14.778
66987W        W31807  32.166   4.772  12.617
66988W        W31808  13.146  39.556  11.939
66989W        W31809  36.914  38.145  11.581
66990W        W31810  23.697  11.276   0.234
66991W        W31811  28.891  27.095  14.480
66992W        W31812  18.538  21.962  13.844
66993W        W31813   2.856  39.596   3.374
66994W        W31814  40.270   8.819   3.202
66995W        W31815  19.753   1.132  14.462
66996W        W31816  16.134  44.682  12.809
66997W        W31817  26.445  40.022   1.738
66998W        W31818  17.032   0.776   4.715
66999W        W31819  10.137  44.482   0.012
67000W        W31820   1.680   1.225  12.439
67001W        W31821  16.726   8.423  14.942
67002W        W31822   6.249   9.248   1.704
67003W        W31823   3.988   7.971   1.739
67004W        W31824  21.517  32.068   4.543
67005W        W31825   3.410  34.021  10.933
67006W        W31826  11.836  13.718  13.438
67007W        W31827   3.295  39.969   1.774
67008W        W31828  30.303  43.505  14.986
67009W        W31829  18.084   0.934   1.699
67010W        W31830  24.634  14.974  12.528
67011W        W31831  16.432  37.630  10.354
67012W        W31832  14.129  43.184   0.816
67013W        W31833  25.009  21.920   2.360
67014W        W31834  20.959  34.457  14.727
67015W        W31835  39.979  42.377  13.098
67016W        W31836   2.712  19.960  13.919
67017W        W31837  12.286  42.297  13.003
67018W        W31838   8.222  38.679   0.190
67019W        W31839   4.712   3.402  13.915
67020W        W31840  24.095  22.485   3.451
67021W        W31841  39.011  21.997   4.146
67022W        W31842  21.087   8.139  13.562
67023W        W31843   6.364  33.952   4.775
67024W        W31844  40.113  32.805   0.778
67025W        W31845  39.943   5.092  14.802
67026W        W31846  40.829  14.895   4.213
67027W        W31847  39.278   1.478   1.797
67028W        W31848  15.283   5.340   4.637
67029W        W31849  23.656  19.446  13.428
67030W        W31850  14.606   8.021  14.465
67031W        W31851  32.708  39.074  12.399
67032W        W31852   8.980  35.478  11.444
67033W        W31853   5.883  26.953  10.698
67034W        W31854  18.520   8.206   0.848
67035W        W31855  16.240  43.272  14.709
67036W        W31856  42.728   5.840  11.396
67037W        W31857  43.894  42.589  11.603
67038W        W31858  39.850  12.143  14.896
67039W        W31859  20.239  18.062   3.688
67040W        W31860   5.328  10.207  14.253
67041W        W31861  23.026  31.620   2.355
67042W        W31862  14.719  17.843   4.558
67043W        W31863  25.786  28.729   2.263
67044W        W31864  31.909  18.708   4.269
67045W        W31865  38.862  19.321  12.927
67046W        W31866   5.601   2.119  12.906
67047W        W31867  33.128  27.096  10.765
67048W        W31868   4.766  28.772   4.995
67049W        W31869  36.289  22.656  11.949
67050W        W31870  38.978  17.374   2.538
67051W        W31871  28.441  18.335   1.322
67052W        W31872  21.150   4.337  11.229
67053W        W31873  19.133   1.841   0.240
67054W        W31874  19.093   4.561   2.444
67055W        W31875  39.860  23.490   0.212
67056W        W31876  13.647  20.702   0.487
67057W        W31877  39.953   8.354   3.394
67058W        W31878  40.025  32.585  11.205
67059W        W31879  36.035  37.207  13.830
67060W        W31880  29.572  24.059   5.360
67061W        W31881  25.035  43.395   5.034
67062W        W31882  17.501  17.063   1.290
67063W        W31883   4.816  24.997   2.221
67064W        W31884  14.205   3.619   1.276
67065W        W31885  33.483  35.528  10.862
67066W        W31886   9.534  19.566   4.876
67067W        W31887  24.035  42.115  11.840
67068W        W31888  26.721   2.199   0.418
67069W        W31889  20.146  42.286   4.154
67070W        W31890   5.157   5.456   0.828
67071W        W31891  21.309  34.578  10.548
67072W        W31892   1.861  18.608   3.630
67073W        W31893  44.207  17.482   4.897
67074W        W31894   4.117  30.500  11.977
67075W        W31895  17.801   9.785  12.143
67076W        W31896   8.523   9.281  14.099
67077W        W31897  40.081  14.280   0.369
67078W        W31898  12.143   2.217   1.793
67079W        W31899  42.976   9.335   3.163
67080W        W31900  37.101  33.372   4.134
67081W        W31901  24.760  21.615  12.588
67082W        W31902  34.634  11.886  13.899
67083W        W31903  33.596  34.224   4.762
67084W        W31904  15.324  13.075   1.359
67085W        W31905   7.846  13.640  12.011
67086W        W31906  18.532  33.626  14.430
67087W        W31907   8.623  11.344   3.744
67088W        W31908  19.495  20.602   4.192
67089W        W31909  29.372  28.429  12.038
67090W        W31910   6.085  16.121   3.294
67091W        W31911  15.051  15.939   2.249
67092W        W31912  16.253  11.848  10.128
67093W        W31913  20.220  24.197   1.317
67094W        W31914  16.824  42.535   1.209
67095W        W31915  34.483  25.658   0.369
67096W        W31916  10.823  30.972  13.920
67097W        W31917  17.505  39.015  14.792
67098W        W31918  18.069   1.713  13.624
67099W        W31919  33.164  33.830  11.584
67100W        W31920   1.184   8.687  14.328
67101W        W31921  34.722   0.825   2.334
67102W        W31922   9.898  16.110   2.666
67103W        W31923  20.221  15.503   3.694
67104W        W31924  15.589  38.026  11.781
67105W        W31925   3.614  23.016  14.800
67106W        W31926   9.273  39.262  12.037
67107W        W31927  39.610   6.114  14.393
67108W        W31928  37.943  34.291   0.795
67109W        W31929  39.386  20.078  12.859
67110W        W31930  28.903  37.607   1.274
67111W        W31931   0.292  29.360  13.476
67112W        W31932  28.277   1.966  14.779
67113W        W31933   0.818  32.884   1.691
67114W        W31934  32.393  33.501  10.933
67115W        W31935  43.052  35.482  12.560
67116W        W31936  21.845  44.910  12.519
67117W        W31937  23.757   2.644  11.826
67118W        W31938  34.475  38.520  10.684
67119W        W31939  31.307  10.149  12.094
67120W        W31940  41.869  20.796   0.916
67121W        W31941  44.639  33.408  11.404
67122W        W31942  27.994   8.919  10.492
67123W        W31943  38.924  12.841  13.369
67124W        W31944   7.639  20.098  14.864
67125W        W31945  23.252  20.316   2.642
67126W        W31946  22.619  18.231  13.399
67127W        W31947   4.858  14.282  12.477
67128W        W31948  43.498  13.211   2.306
67129W        W31949  31.402  24.482   2.763
67130W        W31950  32.536   1.841  14.764
67131W        W31951  12.361   8.418   2.313
67132W        W31952  38.464  33.869  14.895
67133W        W31953  15.288  36.589  13.431
67134W        W31954  18.618  12.425   0.862
67135W        W31955  10.265  22.624  12.015
67136W        W31956  29.345   5.300  12.490
67137W        W31957  43.919  43.464   3.413
67138W        W31958  25.705   3.261  14.359
67139W        W31959  36.437   8.166  12.954
67140W        W31960  14.886  30.271  14.420
67141W        W31961  33.085  15.128  14.899
67142W        W31962  23.286  32.944   1.754
67143W        W31963  25.073   7.456   1.834
67144W        W31964  11.303  12.382   1.750
67145W        W31965  18.755  26.588  13.378
67146W        W31966  32.166  29.431  10.259
67147W        W31967  15.400  11.933   0.041
67148W        W31968   7.520  19.786  10.928
67149W        W31969  37.924  42.389  14.021
67150W        W31970  23.837  44.226   5.039
67151W        W31971   1.324  26.485   2.882
67152W        W31972  11.492  15.408   4.788
67153W        W31973   0.259  16.170  11.711
67154W        W31974  33.907  17.611  14.423
67155W        W31975  11.194  20.009   0.795
67156W        W31976  10.137  26.160   1.466
67157W        W31977   3.301  33.338  10.170
67158W        W31978  12.686   3.357   5.134
67159W        W31979  44.394  26.248   2.789
67160W        W31980  40.986  42.842   1.201
67161W        W31981  18.686  37.463   2.743
67162W        W31982  29.042   9.616   2.352
67163W        W31983  42.999  13.817  11.203
67164W        W31984   5.377  29.033  10.633
67165W        W31985  21.577  25.156  13.576
67166W        W31986  16.183  29.804  12.166
67167W        W31987  26.465   7.169   2.415
67168W        W31988  28.933  11.035   0.447
67169W        W31989  15.864  38.092   1.722
67170W        W31990   8.729  12.434   2.910
67171W        W31991  26.281  39.896  14.306
67172W        W31992  26.458  16.511   3.360
67173W        W31993  22.147  42.967  14.057
67174W        W31994  21.112  35.996  12.084
67175W        W31995   2.480  31.384   0.744
67176W        W31996  35.337  29.406   1.328
67177W        W31997  16.783   9.794   2.825
67178W        W31998  18.689  36.053   3.286
67179W        W31999  38.330  40.659   1.193
67180W        W32000  13.855  15.272  14.528
67181W        W32001  15.240  19.628  14.456
67182W        W32002  12.622  41.748  12.566
67183W        W32003  24.662  13.716   3.382
67184W        W32004  21.490  28.550  13.947
67185W        W32005  20.103  34.908  14.367
67186W        W32006  36.869  18.806   0.419
67187W        W32007  38.772  18.096  13.438
67188W        W32008  36.181  35.635   3.557
67189W        W32009  43.462  41.496  14.586
67190W        W32010  37.989  22.744   1.384
67191W        W32011  16.573  14.642   2.835
67192W        W32012  44.364   4.312  10.527
67193W        W32013  43.816  24.101   4.669
67194W        W32014   7.900  33.629   3.883
67195W        W32015  16.327  29.713   0.959
67196W        W32016  33.506   0.241  10.393
67197W        W32017  40.321  20.052  10.648
67198W        W32018   8.086  37.304   2.208
67199W        W32019  24.097   4.723  14.847
67200W        W32020  26.582  40.000   2.831
67201W        W32021  19.828  29.787  13.206
67202W        W32022  30.091  13.932  12.134
67203W        W32023  14.752  10.793  14.106
67204W        W32024  36.660   7.448  11.678
67205W        W32025  31.262  13.013  12.550
67206W        W32026  36.792   8.407   4.628
67207W        W32027  30.188  41.780  10.990
67208W        W32028  19.329  23.916   2.703
67209W        W32029  24.978  12.790  12.164
67210W        W32030   0.533  30.611  12.569
67211W        W32031  12.869  19.980  12.755
67212W        W32032   8.937  18.798   2.224
67213W        W32033  33.385   1.628   2.340
67214W        W32034   1.674  10.819   4.853
67215W        W32035  37.553   7.910  11.963
67216W        W32036   7.262  10.389   0.247
67217W        W32037  29.603   1.393   2.354
67218W        W32038  22.037   4.687   1.343
67219W        W32039   6.079  36.492  12.090
67220W        W32040  10.245   9.266  14.202
67221W        W32041  13.044  41.961  12.791
67222W        W32042  41.051  41.242  14.853
67223W        W32043  40.041   5.560   4.298
67224W        W32044   6.121  21.720  14.255
67225W        W32045  16.648  40.285   4.632
67226W        W32046  11.471  44.251   3.362
67227W        W32047  39.817   9.634   0.805
67228W        W32048  30.612   5.293   2.615
67229W        W32049  29.857   1.455   3.711
67230W        W32050  30.727   5.283   4.031
67231W        W32051  35.483  24.320   2.429
67232W        W32052  40.994  19.475   2.515
67233W        W32053  35.714  24.043   3.685
67234W        W32054  18.252  31.656  14.849
67235W        W32055  23.218  24.115   2.155
67236W        W32056  13.687  17.125  13.262
67237W        W32057  27.337  33.772  11.563
67238W        W32058  20.209   1.399  11.631
67239W        W32059  31.524  32.986   2.803
67240W        W32060   0.022   6.885   1.268
67241W        W32061  13.364  31.310   5.531
67242W        W32062  18.357  42.798  12.372
67243W        W32063  24.053   7.154  10.664
67244W        W32064  16.607  10.238  11.032
67245W        W32065  16.193  16.318  12.982
67246W        W32066  14.678  18.068   2.735
67247W        W32067  23.397   0.720   3.769
67248W        W32068   3.185  27.204   0.329
67249W        W32069  22.060  21.757  12.121
67250W        W32070  44.303   6.109   3.666
67251W        W32071  21.062  42.498   0.332
67252W        W32072  37.948   5.865  14.726
67253W        W32073  16.286  13.152  10.704
67254W        W32074   8.899  18.282  12.514
67255W        W32075  44.744  35.796   3.211
67256W        W32076  21.134  39.824  13.033
67257W        W32077   4.754  39.294   3.547
67258W        W32078  13.071  42.774  13.172
67259W        W32079   1.684  12.743   1.817
67260W        W32080  32.854  37.437   3.211
67261W        W32081  24.854  32.980   4.316
67262W        W32082   9.719   4.483   4.263
67263W        W32083  21.734  34.497   2.158
67264W        W32084  16.590   6.201   3.727
67265W        W32085  20.602  29.182   0.193
67266W        W32086  11.770  41.410   0.011
67267W        W32087   2.564   4.721  10.419
67268W        W32088  27.219  11.245  12.513
67269W        W32089  11.293  30.006   0.163
67270W        W32090  23.693  12.183  13.146
67271W        W32091  41.820  31.132   1.303
67272W        W32092   8.894   8.152   1.731
67273W        W32093  40.729  19.273  14.935
67274W        W32094   3.771   1.752   5.260
67275W        W32095  27.625  31.477  14.980
67276W        W32096  10.699   6.005  14.652
67277W        W32097  33.135  40.806  14.834
67278W        W32098  18.778  34.417   2.939
67279W        W32099  22.572  23.066  13.120
67280W        W32100  42.338  12.564  11.229
67281W        W32101  35.331  37.074  11.990
67282W        W32102  28.740  30.017   4.089
67283W        W32103  22.176  12.380   3.305
67284W        W32104  11.681  43.592   1.281
67285W        W32105   9.111   1.969   0.700
67286W        W32106  21.598  14.073   4.967
67287W        W32107  13.236  37.653  11.169
67288W        W32108  35.056   2.146   0.303
67289W        W32109   6.183  41.770   2.783
67290W        W32110  38.698  41.186   3.884
67291W        W32111  30.671  25.051   0.744
67292W        W32112  20.279  23.538  14.246
67293W        W32113  38.303  42.321  11.982
67294W        W32114  25.212  23.979   4.083
67295W        W32115  26.156  14.857   2.649
67296W        W32116   3.860  30.616   0.147
67297W        W32117  24.701  31.119  14.437
67298W        W32118   6.148   3.618  11.720
67299W        W32119  44.222   0.966  13.534
67300W        W32120  15.395  13.450  14.956
67301W        W32121   0.923  44.527  12.013
67302W        W32122  22.600  15.747   3.744
67303W        W32123  42.611  15.182  11.532
67304W        W32124  15.838  33.620  10.989
67305W        W32125  28.481   2.889  10.548
67306W        W32126   4.463   5.784  11.606
67307W        W32127  33.361  20.515  13.449
67308W        W32128   4.709  39.899  10.510
67309W        W32129  15.893  42.948  12.858
67310W        W32130  14.399  41.815  14.241
67311W        W32131   7.139  24.721  12.521
67312W        W32132  23.923   0.883   1.582
67313W        W32133  17.703  23.642   1.444
67314W        W32134  21.873   5.786   9.750
67315W        W32135  16.211  38.119   2.102
67316W        W32136  19.671  39.894   0.662
67317W        W32137  34.904  21.482  13.411
67318W        W32138   2.798   4.420   3.671
67319W        W32139  11.325  38.984   0.155
67320W        W32140  12.770   8.125   1.279
67321W        W32141  37.358   6.490  11.583
67322W        W32142  25.224  19.075  12.122
67323W        W32143  37.249  19.466  13.444
67324W        W32144  32.586  28.239  14.920
67325W        W32145  21.984  42.672   1.433
67326W        W32146   4.979  22.131  13.838
67327W        W32147  42.815  34.560  14.274
67328W        W32148  36.809  11.789  14.448
67329W        W32149  10.053  34.906  14.414
67330W        W32150   3.668  31.502  10.884
67331W        W32151  36.423  21.168   3.963
67332W        W32152   4.708  44.504   4.088
67333W        W32153  34.080  10.381  10.569
67334W        W32154   5.862  17.088   3.336
67335W        W32155   5.431  17.324   0.894
67336W        W32156  20.760   0.785  11.103
67337W        W32157  38.992   0.679  14.322
67338W        W32158  25.101  22.499  11.913
67339W        W32159   2.766  10.724   1.005
67340W        W32160  31.576   4.214   2.709
67341W        W32161  32.480   7.765  14.451
67342W        W32162  27.898  29.528   4.112
67343W        W32163  26.173  33.863   1.267
67344W        W32164  18.730  17.219  11.645
67345W        W32165  25.674  22.777  11.195
67346W        W32166  20.223  22.533   4.127
67347W        W32167  15.048  13.195  11.613
67348W        W32168  12.850   4.789  13.292
67349W        W32169   0.937  31.656   2.318
67350W        W32170  24.143  18.669  10.619
67351W        W32171  42.766   9.190   0.764
67352W        W32172  20.011  11.959   1.235
67353W        W32173   9.310  12.631  14.816
67354W        W32174  14.022  36.017   4.595
67355W        W32175   6.877  18.643  10.894
67356W        W32176  23.514   8.894  11.954
67357W        W32177  43.796  17.469   4.557
67358W        W32178   0.950   6.180  11.813
67359W        W32179  44.276  38.537  11.998
67360W        W32180  21.706  25.056  11.879
67361W        W32181  24.262  24.387   3.161
67362W        W32182  16.166  38.545   2.411
67363W        W32183   4.049  16.143  11.031
67364W        W32184  19.122  34.578  13.848
67365W        W32185  34.161  32.561   3.337
67366W        W32186   1.304  32.687  12.037
67367W        W32187  44.137  37.962   0.707
67368W        W32188  24.724  32.441   0.517
67369W        W32189  25.363  39.416  10.425
67370W        W32190  22.962  23.477  11.172
67371W        W32191   7.364  41.365   2.143
67372W        W32192  42.027  39.807   3.146
67373W        W32193  21.195  23.194   3.192
67374W        W32194  17.565  40.167  13.304
67375W        W32195  42.500  42.856   1.441
67376W        W32196  41.969  11.407   4.583
67377W        W32197  16.761  38.739  11.108
67378W        W32198  37.937  22.674   4.742
67379W        W32199   4.491  11.934   4.199
67380W        W32200  26.416  36.532   2.953
67381W        W32201   6.104  26.311  13.525
67382W        W32202   5.054   2.465  11.015
67383W        W32203  22.971  14.067   3.118
67384W        W32204  10.351  20.990   1.912
67385W        W32205  37.843  41.058  13.462
67386W        W32206   7.913  19.915  10.312
67387W        W32207  34.985  18.040   0.017
67388W        W32208  21.800   6.158  13.349
67389W        W32209  22.731  14.852   0.424
67390W        W32210  22.059  44.341  13.729
67391W        W32211   4.853  12.370  11.700
67392W        W32212  30.217  25.118   3.609
67393W        W32213  19.232  29.450   3.697
67394W        W32214  39.555  25.727  14.886
67395W        W32215   3.940  38.747  11.052
67396W        W32216  32.894  19.235   0.501
67397W        W32217   5.472  40.061  13.944
67398W        W32218  17.163  31.144  13.023
67399W        W32219   7.560  25.068   1.902
67400W        W32220  23.285  28.587  13.203
67401W        W32221  31.849  13.538   1.816
67402W        W32222  15.756  30.126   3.624
67403W        W32223  12.072  18.785   5.163
67404W        W32224  41.961  21.567   0.444
67405W        W32225  23.359  22.259   2.110
67406W        W32226  16.411  10.454  12.995
67407W        W32227  12.285  16.163  12.414
67408W        W32228  42.155  26.341  12.885
67409W        W32229  11.588   7.778   4.983
67410W        W32230  11.808  37.233  12.816
67411W        W32231  25.931  39.123  13.073
67412W        W32232   3.869  35.695   2.095
67413W        W32233   8.095  40.229  12.133
67414W        W32234  36.866  38.849  14.821
67415W        W32235  38.864  42.285  10.278
67416W        W32236  28.971   1.300  14.805
67417W        W32237  14.544  36.839   4.949
67418W        W32238  19.799   3.403   0.266
67419W        W32239  20.015  21.483   4.253
67420W        W32240  42.370  32.576   4.654
67421W        W32241  27.106   0.458  13.820
67422W        W32242  36.516  40.323  11.735
67423W        W32243   4.704   7.681  13.825
67424W        W32244  32.307  20.823  11.921
67425W        W32245  34.457  26.855  13.466
67426W        W32246  30.070  16.625  14.318
67427W        W32247  42.428  27.366  14.497
67428W        W32248  15.813  41.914   2.770
67429W        W32249   1.456  16.920   4.217
67430W        W32250  11.678   9.729  12.611
67431W        W32251  15.563   8.900  13.886
67432W        W32252  24.563   8.873   2.642
67433W        W32253  36.056  27.834  11.415
67434W        W32254  15.720  15.392   2.758
67435W        W32255  43.543  34.540   3.206
67436W        W32256  23.229   9.046   4.017
67437W        W32257  44.635  32.939   4.976
67438W        W32258  30.839  44.755  12.421
67439W        W32259  10.387  42.425   0.868
67440W        W32260  41.123  21.245   0.216
67441W        W32261  32.165  15.589   3.704
67442W        W32262  43.268  26.756   1.745
67443W        W32263  11.367  36.357  11.022
67444W        W32264   1.994  26.787  13.276
67445W        W32265  27.268  16.063   1.189
67446W        W32266   2.902   9.059   2.616
67447W        W32267   5.708  23.596   0.181
67448W        W32268   6.491  43.448  11.941
67449W        W32269  29.386  12.734   0.464
67450W        W32270   1.954  19.635   2.895
67451W        W32271  14.160  30.273   0.854
67452W        W32272  40.295   8.261   1.156
67453W        W32273  11.662   2.931   0.622
67454W        W32274  11.783   4.480  11.644
67455W        W32275  34.452  12.095   4.093
67456W        W32276  11.854  17.029  12.997
67457W        W32277  36.436  35.668   2.582
67458W        W32278  37.036  41.664  12.399
67459W        W32279  43.632  26.956  10.726
67460W        W32280   5.812  42.005  10.629
67461W        W32281  35.942  23.778  10.585
67462W        W32282  37.295  10.732  13.814
67463W        W32283  36.527  33.634  11.632
67464W        W32284  13.244   7.404  14.280
67465W        W32285  44.553   0.522  13.943
67466W        W32286  18.262  14.252   2.258
67467W        W32287  31.622  41.479   4.340
67468W        W32288  36.467  22.209   0.481
67469W        W32289  33.526   7.184  11.543
67470W        W32290  31.158  44.343   3.563
67471W        W32291  16.046  10.268   3.640
67472W        W32292  27.921   5.905  13.990
67473W        W32293  14.534  29.160   2.632
67474W        W32294  37.129  25.690  14.874
67475W        W32295   1.812  38.256   1.591
67476W        W32296   6.427  41.519   0.220
67477W        W32297  31.260  25.472   1.297
67478W        W32298  37.974  17.759   1.100
67479W        W32299  35.640  17.207  13.475
67480W        W32300  43.845  17.247  10.612
67481W        W32301  39.715  19.726   4.917
67482W        W32302   9.121  41.554  13.869
67483W        W32303  41.346  32.467   4.398
67484W        W32304   9.186  24.230   0.832
67485W        W32305   2.861   9.650  14.719
67486W        W32306  42.532  15.355  12.807
67487W        W32307  44.949  12.274  10.723
67488W        W32308  34.933  39.875  12.050
67489W        W32309  31.177  23.502  13.922
67490W        W32310   0.912  13.128   2.267
67491W        W32311   9.785  34.765   0.537
67492W        W32312  19.644  24.611   0.951
67493W        W32313  34.900  28.525   4.475
67494W        W32314   0.733  26.608  13.891
67495W        W32315  28.089  23.159  12.447
67496W        W32316  25.562  20.764   0.800
67497W        W32317  35.633  16.352   3.325
67498W        W32318  44.200   0.928   1.871
67499W        W32319  28.973  41.863   2.231
67500W        W32320  39.320  16.986  14.797
67501W        W32321   5.397  24.544  14.844
67502W        W32322   2.740   2.712   0.895
67503W        W32323  24.669  40.463   4.704
67504W        W32324  10.540  44.296   3.096
67505W        W32325  39.368   4.714   3.803
67506W        W32326  32.001  36.826  14.535
67507W        W32327  17.937  22.998   4.660
67508W        W32328  40.797  11.991  11.962
67509W        W32329   6.434   3.241  12.565
67510W        W32330  26.135  18.661  10.652
67511W        W32331  41.177  33.254   0.229
67512W        W32332  33.978  35.115  11.492
67513W        W32333  43.143  20.707  13.023
67514W        W32334   0.467  34.598  14.574
67515W        W32335   1.106   0.376   0.491
67516W        W32336  17.377  37.450  12.881
67517W        W32337   5.845  25.620   2.840
67518W        W32338  18.300   8.597   3.271
67519W        W32339  19.851   7.600  12.175
67520W        W32340  22.476  23.125  12.605
67521W        W32341  16.809  12.387  14.793
67522W        W32342  27.639  14.729   0.738
67523W        W32343  34.058  15.228   0.310
67524W        W32344   6.799  31.773   1.806
67525W        W32345  36.557  17.348  13.469
67526W        W32346  21.071  29.742  14.886
67527W        W32347  36.589  42.077   4.467
67528W        W32348  37.860  31.432   3.236
67529W        W32349  11.136   8.976   3.766
67530W        W32350   5.162  22.504   4.583
67531W        W32351  32.701  21.755  10.971
67532W        W32352   0.317   6.532   4.070
67533W        W32353  21.014  18.605   1.781
67534W        W32354  14.836  11.749   3.808
67535W        W32355  19.981  40.300  13.109
67536W        W32356   8.424  13.735   4.557
67537W        W32357   8.937  23.741  11.978
67538W        W32358  44.760  39.330  12.118
67539W        W32359  21.072   6.670  13.286
67540W        W32360   4.683   7.300  13.455
67541W        W32361  44.044  28.144   3.734
67542W        W32362  34.574   5.325  14.845
67543W        W32363  13.992  33.897   0.079
67544W        W32364  25.726  36.699   4.204
67545W        W32365  40.782  19.676  14.337
67546W        W32366   8.845  35.528  13.560
67547W        W32367  21.844   3.870   4.327
67548W        W32368  20.567   7.338   0.423
67549W        W32369  33.172  38.600  10.632
67550W        W32370  20.224   2.035  12.566
67551W        W32371  34.822   5.761   0.032
67552W        W32372  34.522  21.675  14.118
67553W        W32373  36.726  21.911  12.853
67554W        W32374  38.800  26.461   1.848
67555W        W32375  43.650  23.504  12.599
67556W        W32376   7.603  16.267  14.848
67557W        W32377  10.726  23.922  11.341
67558W        W32378  23.586  26.248  14.200
67559W        W32379   1.239   4.214   2.732
67560W        W32380   5.536  24.526  12.272
67561W        W32381  18.183   0.293   2.947
67562W        W32382  17.588  20.257  12.449
67563W        W32383  14.323  36.638  13.749
67564W        W32384  12.932  40.927   0.897
67565W        W32385  34.976  34.450   0.499
67566W        W32386  33.405   3.654   1.265
67567W        W32387   7.757  26.782   4.371
67568W        W32388  22.157  12.814   4.269
67569W        W32389  43.912   9.755  12.431
67570W        W32390  40.852  14.837   1.761
67571W        W32391  20.096  41.107  14.777
67572W        W32392  34.278   5.702   4.995
67573W        W32393  14.887  12.138   2.845
67574W        W32394  38.365   6.652   3.572
67575W        W32395  36.839  25.619  10.541
67576W        W32396   3.392  26.955  12.877
67577W        W32397  42.173  33.729   4.225
67578W        W32398  39.080  28.658   1.407
67579W        W32399   4.044  34.528   3.546
67580W        W32400  28.017  41.950   2.741
67581W        W32401  11.862  32.537  11.916
67582W        W32402  28.348   3.152  12.128
67583W        W32403  33.970   4.852   4.624
67584W        W32404  17.599  27.043   2.257
67585W        W32405   7.708  28.345  10.506
67586W        W32406  23.860  33.884  10.298
67587W        W32407  24.390  17.472  14.393
67588W        W32408  27.404  23.958  14.873
67589W        W32409  30.027  43.686  11.012
67590W        W32410  39.669   5.542  12.448
67591W        W32411  29.617  19.651   0.708
67592W        W32412  28.693  26.439  11.499
67593W        W32413   7.000  20.228  11.088
67594W        W32414  22.861   0.960   2.824
67595W        W32415  36.648  36.467   4.125
67596W        W32416  32.395  19.439  10.515
67597W        W32417  21.962  32.003  13.994
67598W        W32418  24.218  14.733   4.224
67599W        W32419  27.748  39.390  14.935
67600W        W32420   7.729  32.232  13.607
67601W        W32421  39.421   5.682  12.022
67602W        W32422  17.393  30.533   2.284
67603W        W32423  14.072  12.561   0.369
67604W        W32424   3.134  24.027  12.887
67605W        W32425  11.864  21.262  12.664
67606W        W32426  31.012  33.631  14.872
67607W        W32427  30.158  20.825   2.587
67608W        W32428  19.693  22.660   1.925
67609W        W32429  15.310   4.391   4.625
67610W        W32430  15.052  15.609   0.062
67611W        W32431  28.160  26.744   0.736
67612W        W32432  23.966  23.818   1.218
67613W        W32433   4.818  34.456  13.226
67614W        W32434  25.226  29.019   1.373
67615W        W32435  27.589  21.706   2.461
67616W        W32436  31.080  21.171  14.960
67617W        W32437  25.214  37.857  11.876
67618W        W32438  32.729  22.978  11.592
67619W        W32439   5.831   8.932   4.088
67620W        W32440  39.782  43.554  13.982
67621W        W32441  29.067  18.099  11.541
67622W        W32442  25.140  43.521  13.444
67623W        W32443  16.705   1.984   0.857
67624W        W32444   4.057   4.878  10.705
67625W        W32445  25.924  17.861   4.573
67626W        W32446  24.072  10.556   4.141
67627W        W32447  25.460  39.045   4.641
67628W        W32448  10.037   9.145   4.658
67629W        W32449  36.168  36.148   2.511
67630W        W32450  40.737  21.236   3.778
67631W        W32451  10.194  40.296   1.910
67632W        W32452  25.167   8.726  11.665
67633W        W32453  44.236  11.094  13.501
67634W        W32454  17.851   6.371  14.297
67635W        W32455   0.026  30.983   3.606
67636W        W32456  23.187  24.575   0.310
67637W        W32457  41.204   6.890   4.470
67638W        W32458   8.647  23.806   0.887
67639W        W32459  35.108  13.299  12.898
67640W        W32460  29.169  26.892   0.843
67641W        W32461  41.426   7.367  13.534
67642W        W32462   2.274  20.618   3.798
67643W        W32463  25.161  31.059   2.104
67644W        W32464  43.391  43.595  14.283
67645W        W32465   0.874   8.321  13.170
67646W        W32466  20.585  24.941  14.488
67647W        W32467  40.568  23.624  13.282
67648W        W32468  42.739  14.690   0.351
67649W        W32469   0.490  21.818   2.740
67650W        W32470  10.897  14.794   0.560
67651W        W32471  37.391   8.950  14.274
67652W        W32472  19.299  44.668   4.597
67653W        W32473  35.022  19.615  14.907
67654W        W32474  24.254  15.620  13.408
67655W        W32475  34.586   7.306   2.147
67656W        W32476  41.753  19.375   4.645
67657W        W32477  43.282  11.333  12.207
67658W        W32478  37.555  35.965  12.889
67659W        W32479  40.282  37.102  11.546
67660W        W32480  43.932  26.671   2.353
67661W        W32481  13.967  26.540   2.005
67662W        W32482   0.698   9.764  13.319
67663W        W32483  19.892  13.134   2.565
67664W        W32484  36.612  10.684   2.808
67665W        W32485   8.808  12.650  11.585
67666W        W32486  25.798   7.891  11.645
67667W        W32487  17.791  37.102  11.651
67668W        W32488  23.636  30.151  11.171
67669W        W32489  21.762  44.311   0.663
67670W        W32490  33.251   2.185  14.456
67671W        W32491   7.311  19.430   3.943
67672W        W32492  12.466  29.111   4.252
67673W        W32493   7.395  35.225  12.343
67674W        W32494   4.867  21.576   0.773
67675W        W32495  33.417  37.749   2.164
67676W        W32496  12.682  40.171   0.414
67677W        W32497  21.082  23.001  11.603
67678W        W32498  18.596  22.470  14.018
67679W        W32499   6.259  42.811  13.012
67680W        W32500  25.662   5.335  13.309
67681W        W32501  12.649   8.862   0.673
67682W        W32502   0.510  22.542  14.394
67683W        W32503   6.652   0.825  14.268
67684W        W32504   0.515  27.842  12.817
67685W        W32505  36.385  33.392  12.646
67686W        W32506   7.999   6.668   1.281
67687W        W32507  31.159   1.646   3.026
67688W        W32508   7.922   7.294  13.980
67689W        W32509  12.912  33.168   0.327
67690W        W32510   0.847  20.291  13.951
67691W        W32511  27.534  20.396   3.026
67692W        W32512  28.279  36.914   1.407
67693W        W32513  15.704  30.439  10.344
67694W        W32514  16.023  24.339   4.805
67695W        W32515   9.534  25.098  10.554
67696W        W32516  36.423  16.195   3.746
67697W        W32517  31.542  26.170  13.028
67698W        W32518  33.975  24.012   0.876
67699W        W32519  34.340  32.476  13.129
67700W        W32520  42.548  13.610  14.408
67701W        W32521  12.621  26.130   2.129
67702W        W32522  33.957  42.334  11.185
67703W        W32523  30.885  38.315  13.389
67704W        W32524   8.772  35.266  11.032
67705W        W32525  37.811   5.799  13.247
67706W        W32526  23.065  35.651   4.722
67707W        W32527   5.607  19.742   4.173
67708W        W32528  10.743  36.819   4.186
67709W        W32529  22.255  24.512  13.019
67710W        W32530   2.666  20.808   4.073
67711W        W32531  14.484  27.601  14.271
67712W        W32532  30.951  26.032  12.829
67713W        W32533   9.227   0.403   4.622
67714W        W32534  12.402  18.210  13.456
67715W        W32535  21.758  41.290   3.640
67716W        W32536   8.480  43.895  12.381
67717W        W32537  21.645  44.302  11.126
67718W        W32538   3.724  21.062  11.464
67719W        W32539  32.029   0.227  12.176
67720W        W32540   0.290  35.883  14.853
67721W        W32541   1.757  19.620  14.794
67722W        W32542   1.652   1.943   0.037
67723W        W32543   2.964  29.708   2.832
67724W        W32544  10.277  28.686  11.585
67725W        W32545   1.885  20.106  14.925
67726W        W32546  30.493   6.469   2.260
67727W        W32547   0.518   3.695   3.979
67728W        W32548  34.101  42.921   4.582
67729W        W32549  27.950  29.350  12.101
67730W        W32550  39.986  23.642   2.623
67731W        W32551  12.145  15.621  14.296
67732W        W32552  15.725   9.286  10.724
67733W        W32553   6.088  41.518   3.661
67734W        W32554   5.339  29.628  12.422
67735W        W32555  21.108  38.252   1.620
67736W        W32556  25.110   1.759   4.133
67737W        W32557  43.621  22.297  13.346
67738W        W32558  25.009  29.088   2.427
67739W        W32559  16.438   0.843  10.408
67740W        W32560  23.507  29.348   2.326
67741W        W32561   2.679  21.332  14.019
67742W        W32562   1.465  19.521  12.992
67743W        W32563  23.789  37.558   3.873
67744W        W32564  23.277  26.633  14.083
67745W        W32565  13.608   5.532   1.332
67746W        W32566   5.770  31.143  13.782
67747W        W32567  10.562  44.669  11.549
67748W        W32568   7.987  40.463  11.696
67749W        W32569   1.046  37.506   2.794
67750W        W32570   3.831  24.822  13.921
67751W        W32571   7.208  14.636  12.375
67752W        W32572  37.839  20.589  12.864
67753W        W32573  11.939  29.823  12.536
67754W        W32574  20.691  20.510  11.430
67755W        W32575  28.523   7.662   3.715
67756W        W32576  16.683  44.096  12.403
67757W        W32577  28.265   8.415   2.907
67758W        W32578  20.110  43.231  12.226
67759W        W32579  27.946  33.752  14.771
67760W        W32580   1.394   5.911   2.334
67761W        W32581  41.529  44.836  14.874
67762W        W32582  15.662  34.918   1.350
67763W        W32583  15.997  10.690  13.297
67764W        W32584  14.103  25.681   1.893
67765W        W32585  22.344  17.345   1.909
67766W        W32586  34.933  30.483  14.518
67767W        W32587  17.341  11.223  10.539
67768W        W32588  37.503  21.856   3.096
67769W        W32589  20.737  19.632   2.402
67770W        W32590  21.204   6.493  12.018
67771W        W32591  17.537  25.016   3.176
67772W        W32592  13.144  38.759  13.050
67773W        W32593   4.390   2.898   2.779
67774W        W32594  10.926  19.142   4.619
67775W        W32595  27.584   3.045   1.762
67776W        W32596   6.898  12.779  10.771
67777W        W32597  30.501  44.959   3.897
67778W        W32598  41.653  10.538   0.499
67779W        W32599  38.524  32.057  13.337
67780W        W32600  23.730   5.898  13.490
67781W        W32601  27.066  13.329  12.345
67782W        W32602  41.748  39.004  11.192
67783W        W32603   9.342  18.234   1.407
67784W        W32604  26.064  40.845  12.582
67785W        W32605  10.990  35.584   3.279
67786W        W32606  39.083  26.475   5.068
67787W        W32607  23.222  28.217   3.689
67788W        W32608  10.559  30.351   5.363
67789W        W32609  40.012  37.795   4.577
67790W        W32610  10.748  23.018   4.681
67791W        W32611   6.251   3.673   2.804
67792W        W32612  17.235  10.685  14.009
67793W        W32613   9.709  30.927   0.698
67794W        W32614  30.782  14.078  11.231
67795W        W32615  19.103  13.035   4.452
67796W        W32616  24.268  28.469  10.280
67797W        W32617  14.828   9.624   1.833
67798W        W32618  24.193  13.685  12.084
67799W        W32619  25.396   5.996   4.352
67800W        W32620  21.177  41.250   0.938
67801W        W32621  19.760   6.002   1.961
67802W        W32622  44.980  23.457   1.918
67803W        W32623   2.269  14.668   4.519
67804W        W32624  16.655   8.018  14.631
67805W        W32625  26.540   1.117  13.550
67806W        W32626   2.729   5.149  13.730
67807W        W32627   0.456   5.276  14.517
67808W        W32628   9.389  23.617   3.099
67809W        W32629  38.738  38.432  13.547
67810W        W32630  29.056  37.710  13.736
67811W        W32631   5.312  41.245  11.211
67812W        W32632  37.403  14.745  12.316
67813W        W32633   2.567  30.166  14.767
67814W        W32634   5.913  12.892   3.868
67815W        W32635  44.691  27.550   3.753
67816W        W32636  40.649  28.603   0.011
67817W        W32637  13.785  38.382  13.182
67818W        W32638   4.632   0.960  14.836
67819W        W32639  22.712  39.813   3.225
67820W        W32640  11.180  32.988   0.879
67821W        W32641  27.831  28.760   9.824
67822W        W32642  10.917  17.210   1.835
67823W        W32643  33.018  10.308  11.488
67824W        W32644  27.335   0.379   0.307
67825W        W32645  41.487  37.360   0.571
67826W        W32646  38.372  42.240  12.838
67827W        W32647  16.014   4.971   0.008
67828W        W32648  25.662  18.040  12.390
67829W        W32649  23.839  27.074   2.478
67830W        W32650  10.708   2.182  14.255
67831W        W32651  22.513  44.937  13.948
67832W        W32652  13.620  31.794   0.031
67833W        W32653  28.566  10.266  11.121
67834W        W32654   7.676  38.039   1.968
67835W        W32655  27.089  17.501   4.180
67836W        W32656  40.104  20.604  12.398
67837W        W32657   8.657   4.924   1.448
67838W        W32658  15.215  38.317   1.303
67839W        W32659  42.950  16.689  13.330
67840W        W32660   1.240  23.078   0.740
67841W        W32661  29.691  17.495  11.462
67842W        W32662  32.588  36.392   1.299
67843W        W32663  30.413  18.972  14.282
67844W        W32664  11.845  20.161   4.797
67845W        W32665  34.278  27.523   4.179
67846W        W32666  21.812  25.158   3.498
67847W        W32667  32.617  11.325  13.073
67848W        W32668  22.755  37.345  10.529
67849W        W32669  44.310  10.636  12.773
67850W        W32670   7.218   3.291   3.304
67851W        W32671  34.078  18.696   5.477
67852W        W32672  22.202   1.967   0.321
67853W        W32673  16.674  27.514   2.834
67854W        W32674   8.997  21.149  11.853
67855W        W32675   5.350  33.606   0.259
67856W        W32676  17.088  40.214   4.033
67857W        W32677  40.226  19.716   4.960
67858W        W32678  10.234  30.882  12.100
67859W        W32679  20.320   6.284  11.043
67860W        W32680   8.911  21.147  11.015
67861W        W32681  15.833  37.375  12.432
67862W        W32682  10.258  22.269  11.111
67863W        W32683   3.721  31.545  11.420
67864W        W32684  21.503   0.726   3.633
67865W        W32685  28.328  42.555   2.247
67866W        W32686   1.846  11.698   1.137
67867W        W32687   4.854  43.652  11.598
67868W        W32688   3.578  34.389   0.026
67869W        W32689  37.395  36.484  12.964
67870W        W32690  43.721  41.339  10.569
67871W        W32691  15.092  36.092  10.789
67872W        W32692  32.110  34.374   4.350
67873W        W32693   3.254  21.632   0.804
67874W        W32694  11.725  23.157  13.451
67875W        W32695  25.009   0.236  12.564
67876W        W32696  11.861  22.470  14.084
67877W        W32697  23.662  17.189   3.818
67878W        W32698   9.938  20.573   4.129
67879W        W32699  44.411  29.399   2.406
67880W        W32700  33.596  19.291   3.275
67881W        W32701   4.516  11.867  11.070
67882W        W32702   5.609   5.926  13.713
67883W        W32703  25.067  36.655   3.600
67884W        W32704  41.839  44.426  10.991
67885W        W32705   0.131  31.872  14.760
67886W        W32706  20.270   5.444   2.801
67887W        W32707  40.491  22.522  12.090
67888W        W32708   3.988  34.754  14.954
67889W        W32709  35.949  22.169   0.509
67890W        W32710  10.160   0.981  12.505
67891W        W32711  32.919  10.863  12.809
67892W        W32712  34.403  37.456   2.259
67893W        W32713  11.402  20.070  14.552
67894W        W32714  15.650  16.192  13.337
67895W        W32715   2.499  11.328  14.549
67896W        W32716  26.236  15.945  12.820
67897W        W32717  18.513  10.788  10.622
67898W        W32718  37.101  14.089   3.799
67899W        W32719   3.449  18.098  12.171
67900W        W32720   0.274  17.723   3.237
67901W        W32721  37.378   9.626  13.070
67902W        W32722  22.622  32.318  11.550
67903W        W32723   4.265  43.825   2.272
67904W        W32724  44.273   9.092   4.592
67905W        W32725  30.786  31.367  14.812
67906W        W32726  19.194   5.927  12.921
67907W        W32727  20.158   5.780  11.106
67908W        W32728  42.858  25.802   3.164
67909W        W32729  19.265  14.696   1.738
67910W        W32730  27.023  41.574   0.391
67911W        W32731  17.826  20.535  13.390
67912W        W32732  17.588   9.983  13.332
67913W        W32733   5.398   6.604   1.407
67914W        W32734  25.526  16.294  10.673
67915W        W32735  16.776  28.919   0.339
67916W        W32736  40.845   5.313  14.840
67917W        W32737  12.518  12.010  14.855
67918W        W32738  21.684   8.752  14.994
67919W        W32739  37.081  24.017   4.540
67920W        W32740   7.568  42.315   2.937
67921W        W32741  44.047  32.381  13.116
67922W        W32742  31.570  28.483  10.348
67923W        W32743   6.895  30.053   4.573
67924W        W32744  41.422   5.228  13.362
67925W        W32745  24.020  28.129  11.122
67926W        W32746   8.588   1.859   0.546
67927W        W32747  18.158  20.007   4.105
67928W        W32748  26.807  20.270  11.526
67929W        W32749  26.222   8.880  13.877
67930W        W32750  15.030  20.651   0.561
67931W        W32751  38.830  31.673  13.489
67932W        W32752   6.628  23.000  13.329
67933W        W32753  16.299   5.431   3.781
67934W        W32754   3.382   3.266  13.346
67935W        W32755  42.938  24.740  13.427
67936W        W32756  22.686  36.713  13.617
67937W        W32757  38.555   2.364  13.720
67938W        W32758   8.651  44.989  12.468
67939W        W32759  38.500  24.663   3.846
67940W        W32760   5.544  24.408   0.329
67941W        W32761  32.093  19.777  14.341
67942W        W32762  31.007  42.656  12.520
67943W        W32763  16.695   4.755   1.727
67944W        W32764   7.894   4.044   1.197
67945W        W32765  33.173  32.653  14.341
67946W        W32766  26.191  13.311   1.890
67947W        W32767  42.697   7.830   1.281
67948W        W32768  43.990  11.889   1.251
67949W        W32769   6.556  28.540   4.096
67950W        W32770  28.690   3.782   0.729
67951W        W32771  24.943  41.969   0.273
67952W        W32772  29.856  44.850   1.547
67953W        W32773   5.722  22.919  10.338
67954W        W32774  27.490  44.986   4.653
67955W        W32775  35.647  12.239   0.758
67956W        W32776  30.833   1.418  12.004
67957W        W32777  18.105  33.867   3.776
67958W        W32778  44.258  11.691   4.099
67959W        W32779  35.789  17.515  11.121
67960W        W32780  21.057  37.662   3.228
67961W        W32781   0.380  29.582   0.957
67962W        W32782   9.667  40.753  11.713
67963W        W32783  15.099  34.654  10.333
67964W        W32784  42.499  15.588   3.185
67965W        W32785  38.919  30.864   1.791
67966W        W32786  39.931  41.778   0.383
67967W        W32787  34.116  26.659   0.287
67968W        W32788  25.468  11.331   3.615
67969W        W32789  29.885  15.910  12.555
67970W        W32790  19.833   6.220  10.602
67971W        W32791  29.430   5.653  10.753
67972W        W32792   3.486  23.557  14.321
67973W        W32793  27.835  42.742   3.760
67974W        W32794   5.800   6.132  10.794
67975W        W32795  41.231  33.189   3.186
67976W        W32796  14.559  38.061   2.869
67977W        W32797   1.221  40.894  12.940
67978W        W32798  37.644  20.775   1.712
67979W        W32799  28.732  18.073   0.867
67980W        W32800   6.856  41.526   0.982
67981W        W32801  42.447   0.310  10.304
67982W        W32802   4.706  12.608   2.742
67983W        W32803  39.889  18.422  11.352
67984W        W32804   4.651   8.446  11.213
67985W        W32805  36.767  39.070  11.158
67986W        W32806  34.874   8.250  12.042
67987W        W32807  29.555   1.960  14.877
67988W        W32808  36.599  11.514   2.109
67989W        W32809   0.766  34.467  14.972
67990W        W32810  42.238   8.771   2.209
67991W        W32811   5.824   5.270   1.492
67992W        W32812  23.054  16.659   2.314
67993W        W32813  17.539   7.663   3.649
67994W        W32814  15.738  25.338  10.487
67995W        W32815   1.524  35.993   0.307
67996W        W32816  19.282  28.569   4.114
67997W        W32817  29.983  24.258   0.973
67998W        W32818  23.335  19.242   4.901
67999W        W32819  37.128   9.146  10.171
68000W        W32820  42.989  33.210   3.573
68001W        W32821   8.064  43.982   4.686
68002W        W32822  36.248  35.888  10.732
68003W        W32823  21.172  24.962   2.201
68004W        W32824  31.562  29.045   4.655
68005W        W32825  26.588  13.894  13.585
68006W        W32826  19.920  26.278   2.398
68007W        W32827  30.422   3.315   4.539
68008W        W32828  26.358   3.648   4.547
68009W        W32829  40.582  24.539  12.599
68010W        W32830   2.202  18.051   1.638
68011W        W32831  14.830   7.200   1.823
68012W        W32832  35.757  21.484   0.949
68013W        W32833  24.859  21.200  13.400
68014W        W32834  35.482  10.922   1.569
68015W        W32835  42.351  32.039  11.519
68016W        W32836  16.777  25.017  11.224
68017W        W32837  44.317   4.764   3.740
68018W        W32838  34.354  17.187  11.952
68019W        W32839  33.034  39.636   1.229
68020W        W32840  44.457  21.807  12.052
68021W        W32841  20.139  41.767   4.908
68022W        W32842   4.854  17.263  14.331
68023W        W32843  29.616   9.081   1.222
68024W        W32844  26.216  43.665   0.511
68025W        W32845  33.256  15.729  13.099
68026W        W32846  14.786  39.435   2.307
68027W        W32847  32.601  32.108  13.982
68028W        W32848  22.482  42.084   3.756
68029W        W32849  12.750  11.179  14.728
68030W        W32850  26.308  26.018   4.882
68031W        W32851  16.334  27.770  11.564
68032W        W32852  28.975   1.647   1.319
68033W        W32853  42.719  31.406   3.150
68034W        W32854  44.290  30.635   3.233
68035W        W32855  11.597  12.911   2.601
68036W        W32856  11.255  42.602   0.358
68037W        W32857   9.596  35.630   3.229
68038W        W32858   3.267  31.944   0.388
68039W        W32859   3.476   7.279  10.837
68040W        W32860  40.912  10.061   4.364
68041W        W32861   2.936  10.699  12.488
68042W        W32862   2.523  26.415  11.579
68043W        W32863  31.487  37.893   4.659
68044W        W32864  26.973   1.716   0.447
68045W        W32865  21.104  25.694   1.145
68046W        W32866  25.987  36.117  14.383
68047W        W32867   4.644   8.695   2.798
68048W        W32868  11.182  18.214   0.256
68049W        W32869  23.193  24.429   1.738
68050W        W32870   0.160  44.853   3.694
68051W        W32871  39.552   2.375  13.849
68052W        W32872  24.501  40.306  10.626
68053W        W32873   4.866  20.191  14.020
68054W        W32874  16.199   5.473   2.779
68055W        W32875   6.680   2.034  13.382
68056W        W32876  26.615  26.767   4.075
68057W        W32877   2.355  14.837  12.568
68058W        W32878  43.975  26.662   0.965
68059W        W32879  31.666  18.082   2.160
68060W        W32880   6.165  34.989  10.765
68061W        W32881  42.439  15.721   3.692
68062W        W32882  16.115  18.917   0.352
68063W        W32883  38.810  41.999  12.988
68064W        W32884  28.041  12.318  10.667
68065W        W32885  42.288   6.145  11.588
68066W        W32886  17.636  35.034  13.014
68067W        W32887   0.810  18.818  11.937
68068W        W32888  42.782  31.755  11.517
68069W        W32889  26.601  43.446  13.979
68070W        W32890   4.156  25.586  10.253
68071W        W32891  20.040  21.287   0.461
68072W        W32892  24.697  16.664   4.417
68073W        W32893  33.855  13.580   1.622
68074W        W32894  27.067  17.285  14.559
68075W        W32895   2.880  15.120  11.450
68076W        W32896  19.322  25.938  12.990
68077W        W32897   3.007   3.985   0.366
68078W        W32898   0.402  42.941  10.605
68079W        W32899  26.276  26.596   1.992
68080W        W32900  11.454  21.754   3.070
68081W        W32901  27.908  13.322  12.852
68082W        W32902   7.090  11.870   3.128
68083W        W32903  12.649  21.754   2.751
68084W        W32904  24.996  19.873   1.521
68085W        W32905  44.452  19.679   3.630
68086W        W32906  28.172   1.699  14.341
68087W        W32907  29.243   5.208   3.133
68088W        W32908  24.289   3.542   3.791
68089W        W32909  31.924  23.270   9.750
68090W        W32910   3.665  36.072   4.156
68091W        W32911   7.254  39.425  11.601
68092W        W32912  34.756  40.144  11.568
68093W        W32913  16.783   6.285   1.293
68094W        W32914  34.121   5.843  11.924
68095W        W32915  19.015  21.706   2.281
68096W        W32916  35.247  13.041   0.010
68097W        W32917  33.162  41.628  13.974
68098W        W32918  28.085  43.725  13.547
68099W        W32919   9.280  17.007  14.348
68100W        W32920  24.644  40.315   3.249
68101W        W32921   3.746   6.928   1.788
68102W        W32922  17.713  34.529   4.167
68103W        W32923  41.759  28.517  14.693
68104W        W32924  15.929  43.846  11.107
68105W        W32925  16.758  27.440   0.403
68106W        W32926  44.299  16.673  11.144
68107W        W32927  20.299  26.993   2.877
68108W        W32928  15.435  17.298  10.745
68109W        W32929  36.725  14.359   5.121
68110W        W32930  23.513   7.356  13.371
68111W        W32931  12.299  23.726   0.348
68112W        W32932  43.225  29.625  12.109
68113W        W32933  21.063  31.363  11.447
68114W        W32934  43.286   6.716  14.415
68115W        W32935  22.605  26.999   1.156
68116W        W32936  10.623  37.366   3.161
68117W        W32937   7.090  38.581   0.876
68118W        W32938   3.142  31.976   0.878
68119W        W32939  35.440  15.678   5.037
68120W        W32940   3.780  41.334  11.994
68121W        W32941  17.278  27.769  14.527
68122W        W32942  36.106  15.185   4.522
68123W        W32943  14.949  38.292  12.357
68124W        W32944  18.552   6.115   4.080
68125W        W32945  41.003  33.864  12.129
68126W        W32946   5.654   1.016  12.026
68127W        W32947  40.949  40.950   4.208
68128W        W32948  23.654  40.473   0.680
68129W        W32949   6.628  29.542  12.397
68130W        W32950  35.912  33.204  13.890
68131W        W32951  37.502  35.925   2.249
68132W        W32952  15.776  33.830   4.519
68133W        W32953  28.802   5.403  13.554
68134W        W32954   9.439  28.617   0.998
68135W        W32955  41.856   3.318  14.007
68136W        W32956   1.221  24.114   4.310
68137W        W32957  28.481  25.035   1.341
68138W        W32958  28.433  38.385   2.873
68139W        W32959  23.957   1.076  14.433
68140W        W32960  26.420  27.579  12.404
68141W        W32961  18.231  31.934   1.379
68142W        W32962  25.605  31.368  12.327
68143W        W32963  32.849   8.791  12.054
68144W        W32964  25.486  21.951   2.646
68145W        W32965  39.047  33.699   4.412
68146W        W32966  35.807  32.896   0.545
68147W        W32967  30.470   2.727  12.992
68148W        W32968  29.078  21.734  12.661
68149W        W32969  40.628   6.822   3.183
68150W        W32970  10.817  13.879   1.348
68151W        W32971  18.272  24.529   4.056
68152W        W32972  19.388   4.501  14.309
68153W        W32973  21.474  27.610   0.485
68154W        W32974  17.634  32.139   0.339
68155W        W32975  15.261  28.556  13.624
68156W        W32976  31.883   4.755   4.548
68157W        W32977  14.564  35.865  12.556
68158W        W32978  22.732   6.054  14.770
68159W        W32979  12.363  42.361   1.766
68160W        W32980   7.939  10.705  14.460
68161W        W32981  12.140  37.042  11.064
68162W        W32982  21.458  14.425   4.042
68163W        W32983  26.143  31.984  11.538
68164W        W32984  41.022   7.883  10.753
68165W        W32985   7.504  11.054   2.838
68166W        W32986  17.837  41.722   3.100
68167W        W32987   9.398   4.196  10.812
68168W        W32988   2.928  16.885   2.844
68169W        W32989   9.341  40.844   1.787
68170W        W32990  12.746  42.365   4.646
68171W        W32991  41.219   8.749   4.557
68172W        W32992  40.817   9.104  11.000
68173W        W32993  20.695  28.498   2.867
68174W        W32994  13.584  20.670  13.167
68175W        W32995  37.919   5.322   0.467
68176W        W32996  27.849  32.861   3.921
68177W        W32997  15.508  33.434  11.966
68178W        W32998   0.166  20.803  10.566
68179W        W32999   1.084  11.438  11.063
68180W        W33000  15.796  33.372   3.747
68181W        W33001  38.848  33.294  12.008
68182W        W33002  18.740  19.099  11.031
68183W        W33003  25.462  25.036  14.715
68184W        W33004   0.892  32.204  10.695
68185W        W33005   6.868  11.661   2.230
68186W        W33006  27.961  38.855  12.296
68187W        W33007   5.965   4.737  11.112
68188W        W33008  37.461  13.924   2.133
68189W        W33009   4.932  12.179  11.220
68190W        W33010   0.780   8.787  10.770
68191W        W33011  36.311  37.660  12.843
68192W        W33012  14.063  35.885  13.493
68193W        W33013  42.975  21.139   4.563
68194W        W33014  37.876  24.932  14.499
68195W        W33015   4.234   7.341  14.751
68196W        W33016  27.993  28.499   1.744
68197W        W33017   1.351  36.855   2.235
68198W        W33018  33.659  18.308   0.420
68199W        W33019  21.225  36.780   3.750
68200W        W33020  33.704   8.101  12.584
68201W        W33021   2.438  22.339  10.707
68202W        W33022  27.995  27.989   1.502
68203W        W33023  22.458  35.021   4.081
68204W        W33024  21.064   7.430   2.116
68205W        W33025  18.531   8.106  13.719
68206W        W33026  18.257  26.772  13.455
68207W        W33027  10.085  35.469   1.699
68208W        W33028  34.863  16.726   0.679
68209W        W33029   8.330  38.962  10.809
68210W        W33030  36.982  42.564  14.222
68211W        W33031  43.956   3.714   3.180
68212W        W33032  26.629  17.665  14.808
68213W        W33033  35.182  22.953  11.574
68214W        W33034   1.966  42.021  12.558
68215W        W33035   1.692  30.695  11.554
68216W        W33036  43.312  12.904  11.372
68217W        W33037  30.386  29.026   1.887
68218W        W33038  37.526  30.643   1.802
68219W        W33039  20.260  27.419  12.939
68220W        W33040  18.353  29.672  14.505
68221W        W33041  16.515   6.422  13.066
68222W        W33042  40.704   6.865  12.995
68223W        W33043   5.521   9.427  13.561
68224W        W33044   1.661  25.346  12.028
68225W        W33045  10.987  30.349  12.551
68226W        W33046  13.385  38.950   3.379
68227W        W33047  22.014  37.443   3.141
68228W        W33048  14.123  30.688   1.316
68229W        W33049   3.199   7.294  12.990
68230W        W33050  23.961  25.990   2.138
68231W        W33051  36.024   8.808   3.335
68232W        W33052  19.555  29.728   2.327
68233W        W33053  33.147   9.694  10.363
68234W        W33054  43.273  17.914  11.248
68235W        W33055  42.877  26.997  12.848
68236W        W33056   9.161  36.362  11.944
68237W        W33057  21.391  36.004  10.125
68238W        W33058   7.244  13.233   3.612
68239W        W33059  36.384   4.470  11.803
68240W        W33060  42.851   6.105   3.174
68241W        W33061  43.621  31.227   1.819
68242W        W33062  21.392   8.306   0.005
68243W        W33063   3.227   3.189  12.861
68244W        W33064  15.099  21.662   4.755
68245W        W33065  16.663  14.312  13.946
68246W        W33066  33.358  38.606  12.812
68247W        W33067  32.414  28.684   0.792
68248W        W33068  40.279   2.239  12.507
68249W        W33069  34.939  40.743   2.783
68250W        W33070   2.777   3.389   3.901
68251W        W33071  14.129  35.609  13.058
68252W        W33072   5.858  37.810  14.015
68253W        W33073  40.784  31.939   1.945
68254W        W33074  22.972  39.528   2.393
68255W        W33075  30.533  40.453  10.764
68256W        W33076   2.861   9.367  14.286
68257W        W33077   3.985  25.765  12.867
68258W        W33078  10.642   8.147   3.724
68259W        W33079   1.530  44.880   0.952
68260W        W33080  44.043   3.723  10.944
68261W        W33081  28.282  19.438   2.130
68262W        W33082  38.452   2.846  13.880
68263W        W33083  16.704  31.685   4.680
68264W        W33084  38.845  12.245  12.477
68265W        W33085  15.085  35.593   3.801
68266W        W33086  40.638  10.545  11.564
68267W        W33087  33.943   1.836   4.174
68268W        W33088  23.126  40.312  10.789
68269W        W33089  21.896  20.125   4.965
68270W        W33090  20.097  30.640   1.150
68271W        W33091  34.442   0.269  13.318
68272W        W33092  17.167   5.277   4.324
68273W        W33093  31.062  35.470  12.959
68274W        W33094   9.917  43.359   0.758
68275W        W33095  40.754  32.150   2.420
68276W        W33096  12.295  18.331  12.968
68277W        W33097   3.936  38.367   2.209
68278W        W33098   6.341  21.309   4.096
68279W        W33099  32.489  44.430   3.670
68280W        W33100   3.274   3.717  12.917
68281W        W33101   9.820  28.194   1.815
68282W        W33102  12.157  11.727  12.856
68283W        W33103  34.558  12.191  12.940
68284W        W33104  15.581  16.624  11.253
68285W        W33105  28.171  34.151  12.412
68286W        W33106  21.503  28.107   4.569
68287W        W33107  29.581  27.913  14.000
68288W        W33108   2.387  12.195   3.293
68289W        W33109  31.031  23.318  12.954
68290W        W33110   5.375  40.306   3.106
68291W        W33111  18.319  19.287   1.367
68292W        W33112  10.063   4.589   5.005
68293W        W33113  24.412  17.630  10.634
68294W        W33114   5.626  22.468  11.601
68295W        W33115  16.507  38.339   1.764
68296W        W33116   8.891  39.099   5.078
68297W        W33117  24.024  23.719   0.723
68298W        W33118  27.401  25.576   1.918
68299W        W33119  31.115  44.932   2.752
68300W        W33120   6.445  35.891  14.934
68301W        W33121   7.922   7.853  11.907
68302W        W33122  36.319  39.507  14.311
68303W        W33123  41.077  30.403  10.714
68304W        W33124  33.308   9.274   4.069
68305W        W33125  16.739  39.988   0.254
68306W        W33126  26.384  32.422  11.725
68307W        W33127  33.381  19.975  13.360
68308W        W33128   1.001  43.285   1.505
68309W        W33129  17.764  37.582  10.748
68310W        W33130  24.149  18.761   1.957
68311W        W33131  35.133   8.708   1.192
68312W        W33132  11.270  14.276  12.986
68313W        W33133  26.575  15.592  13.070
68314W        W33134  29.212  44.281   1.145
68315W        W33135  43.755  39.361   3.414
68316W        W33136  39.750  26.862  12.714
68317W        W33137  42.434  12.117  14.936
68318W        W33138   3.334   7.614   5.051
68319W        W33139   1.455  10.317  13.391
68320W        W33140   6.960  14.602  14.779
68321W        W33141  38.472  17.121  12.938
68322W        W33142  21.992  37.269   2.201
68323W        W33143  17.419  28.521  13.975
68324W        W33144  41.463  15.396   3.882
68325W        W33145  26.590   7.138   1.892
68326W        W33146  38.356  31.090   4.206
68327W        W33147   3.920  31.130  11.165
68328W        W33148   2.304  17.048   4.976
68329W        W33149  18.665  19.686   4.050
68330W        W33150  36.382  26.533  13.496
68331W        W33151   2.337  22.483   4.631
68332W        W33152  14.359  16.621   1.979
68333W        W33153  38.962  12.625  11.514
68334W        W33154  12.569   5.623  10.478
68335W        W33155  17.572  39.272   1.364
68336W        W33156   8.076  42.479   1.414
68337W        W33157   3.369  30.186  14.460
68338W        W33158  24.467   5.772  12.158
68339W        W33159  16.184  35.598  14.394
68340W        W33160  30.514   8.656   1.530
68341W        W33161  10.618  39.842  12.442
68342W        W33162  30.852   3.540   0.214
68343W        W33163  31.367  21.051   2.384
68344W        W33164   8.964  11.803   4.639
68345W        W33165  43.228  44.173  11.088
68346W        W33166  39.033  20.434   4.196
68347W        W33167  15.256  32.446  11.157
68348W        W33168  41.262   2.180  14.152
68349W        W33169   8.310  30.038  11.209
68350W        W33170   9.102  13.260   0.126
68351W        W33171  15.830  32.785  14.359
68352W        W33172  40.318  40.336   2.726
68353W        W33173  40.730  36.325  12.964
68354W        W33174   3.175  33.831  12.840
68355W        W33175  23.747  15.851   2.346
68356W        W33176  15.741  44.332  11.194
68357W        W33177  10.291   2.879  13.058
68358W        W33178   4.678  40.511   1.226
68359W        W33179  26.647   7.936  13.297
68360W        W33180  13.833  26.650   0.322
68361W        W33181  28.750  34.065   3.546
68362W        W33182  29.881   7.353   4.078
68363W        W33183  11.792  29.078   1.805
68364W        W33184  12.601  36.801  10.877
68365W        W33185  37.932   6.797   3.851
68366W        W33186  25.038   1.882   1.742
68367W        W33187  10.198  35.487  11.860
68368W        W33188  30.499  42.512  13.422
68369W        W33189  10.714  33.954   2.089
68370W        W33190   1.489  44.009   4.092
68371W        W33191  24.823  43.278  11.253
68372W        W33192   0.618  40.589   4.167
68373W        W33193   6.346  36.615   2.467
68374W        W33194  44.094   5.181   4.969
68375W        W33195  12.188  18.220  14.377
68376W        W33196  29.203   1.303   1.958
68377W        W33197  44.247   9.280   1.404
68378W        W33198  11.065  18.771  14.326
68379W        W33199  43.882   7.798  11.485
68380W        W33200   1.471  21.186  10.061
68381W        W33201  30.187  19.287  11.566
68382W        W33202  28.503  12.165   2.131
68383W        W33203   5.398  31.166  12.042
68384W        W33204  24.030  12.665   4.731
68385W        W33205   8.310  26.674  12.347
68386W        W33206  37.969  29.615  12.304
68387W        W33207  37.294  40.810   4.189
68388W        W33208   6.067  32.615   4.117
68389W        W33209  17.697  19.781  14.603
68390W        W33210  25.554  27.378  12.054
68391W        W33211  36.712  30.937   0.254
68392W        W33212  41.681  25.660  10.839
68393W        W33213   9.657  38.144   1.137
68394W        W33214   5.394  25.951   1.271
68395W        W33215  37.955   9.617  12.165
68396W        W33216  34.618  15.138  13.073
68397W        W33217  16.041  26.001  14.769
68398W        W33218  18.588  10.151  11.977
68399W        W33219   1.251  43.776  14.307
68400W        W33220  38.459  26.074  11.924
68401W        W33221  11.884  34.737   2.903
68402W        W33222  41.769  30.917  13.568
68403W        W33223   9.639  32.920   1.883
68404W        W33224   4.454  42.819  12.545
68405W        W33225  25.633  11.205  13.431
68406W        W33226   0.410  13.604  12.423
68407W        W33227  20.096  44.504  14.029
68408W        W33228  11.474  29.860  14.689
68409W        W33229  16.769  34.350   1.776
68410W        W33230   0.481  11.145   1.796
68411W        W33231  41.810  35.873   1.175
68412W        W33232  13.370   5.933  11.527
68413W        W33233   8.853  19.576  12.601
68414W        W33234  12.304  11.873  11.076
68415W        W33235  11.710   6.885  11.656
68416W        W33236  11.730  10.170  12.351
68417W        W33237  31.556  32.620   3.812
68418W        W33238   6.747   1.484  10.405
68419W        W33239  18.418   5.745   3.511
68420W        W33240  18.462  11.858  12.493
68421W        W33241  10.733  30.260  10.385
68422W        W33242  35.528  33.013  11.353
68423W        W33243  30.299   5.246  10.672
68424W        W33244  10.979  38.861  13.414
68425W        W33245   6.615   6.365   3.607
68426W        W33246   1.759   8.960  10.474
68427W        W33247   4.350  33.634  14.489
68428W        W33248  17.088   5.197   2.756
68429W        W33249  18.190  16.392  13.455
68430W        W33250  10.417  20.998  14.616
68431W        W33251  39.441  38.417  11.157
68432W        W33252  22.583  20.093   3.258
68433W        W33253  32.489  12.857  12.909
68434W        W33254   9.191  37.431   4.547
68435W        W33255  33.538   9.640  12.625
68436W        W33256   0.534  12.906   3.189
68437W        W33257  30.038  30.305  12.922
68438W        W33258  23.675  24.502  11.637
68439W        W33259  11.658   4.971   1.955
68440W        W33260   1.462  24.239   3.835
68441W        W33261  26.180  13.071   4.702
68442W        W33262  11.567  39.303   2.699
68443W        W33263   9.286  20.151   2.144
68444W        W33264  42.964  43.531   0.986
68445W        W33265  15.615  41.592   0.907
68446W        W33266  43.363  31.094   3.338
68447W        W33267   2.173  30.137  13.432
68448W        W33268  11.202  33.437   3.701
68449W        W33269   8.714   4.650   4.218
68450W        W33270  38.167  12.941   0.486
68451W        W33271  28.627  34.992  11.523
68452W        W33272  17.184  22.572  14.589
68453W        W33273  18.710  12.792   4.749
68454W        W33274  17.829  43.984  12.125
68455W        W33275  21.305  13.929  11.605
68456W        W33276   3.722   9.392  13.708
68457W        W33277   0.354   4.729   4.593
68458W        W33278   2.005  28.195   3.267
68459W        W33279  44.888   7.798   2.925
68460W        W33280  17.315  15.093   0.783
68461W        W33281  15.118  25.487  14.013
68462W        W33282  14.216   9.104   3.449
68463W        W33283  38.645  33.147   2.251
68464W        W33284  42.821  22.756   2.677
68465W        W33285  33.432  29.873  14.261
68466W        W33286  33.104  40.813   1.996
68467W        W33287  14.688  44.240   1.188
68468W        W33288   9.604  23.219  13.599
68469W        W33289  32.302  31.685  14.155
68470W        W33290  41.491  21.549   3.336
68471W        W33291   9.206  12.735  12.646
68472W        W33292  21.525  37.673  11.237
68473W        W33293  40.613  21.041   0.269
68474W        W33294   3.185  36.996   2.429
68475W        W33295  41.179   5.920  13.063
68476W        W33296   9.269   3.148   0.534
68477W        W33297  36.114   8.547   0.230
68478W        W33298  23.017   9.187   0.731
68479W        W33299  32.807  31.826  11.862
68480W        W33300   8.348  38.385   3.669
68481W        W33301  33.832  11.944  12.327
68482W        W33302  17.654   5.892  12.942
68483W        W33303  30.647  27.332   1.207
68484W        W33304  34.174   6.642   2.754
68485W        W33305  33.437   1.936  10.631
68486W        W33306   2.720  13.269  11.209
68487W        W33307   8.436  14.128  12.506
68488W        W33308  19.714  18.790  11.162
68489W        W33309  10.849  30.448  13.907
68490W        W33310   5.311  18.003  13.719
68491W        W33311  12.240   8.599   0.909
68492W        W33312  13.382  42.682  13.592
68493W        W33313  15.304  18.044  10.239
68494W        W33314  25.488  44.258  13.336
68495W        W33315   2.233  34.519   4.885
68496W        W33316  22.273  13.882  12.501
68497W        W33317  11.634  43.445  14.471
68498W        W33318  39.354  39.940  12.088
68499W        W33319   0.366  34.302  11.998
68500W        W33320  10.523  11.637   3.660
68501W        W33321  10.653  21.784  13.522
68502W        W33322  16.139  10.897   1.715
68503W        W33323  24.013  34.735  12.808
68504W        W33324  30.118   1.832   1.899
68505W        W33325  33.519  40.336   1.199
68506W        W33326   0.907  33.976  13.763
68507W        W33327  24.054  38.045   1.414
68508W        W33328  37.911  39.129  13.387
68509W        W33329  21.512  22.746   3.416
68510W        W33330  17.262   2.692   3.280
68511W        W33331  26.535  31.037  12.099
68512W        W33332  44.698  16.885  12.470
68513W        W33333  11.116  30.566  10.135
68514W        W33334   1.828  40.317  10.944
68515W        W33335  44.582  25.259  13.867
68516W        W33336   3.558   9.849  13.073
68517W        W33337   9.718  28.164   3.195
68518W        W33338  29.112   2.909  11.632
68519W        W33339   4.908  39.872   0.408
68520W        W33340  39.422  21.508  13.407
68521W        W33341   1.803  30.991  12.533
68522W        W33342   4.049  15.571  11.380
68523W        W33343  40.029  17.659  13.268
68524W        W33344  29.742  15.109  14.092
68525W        W33345  14.012  10.276   4.220
68526W        W33346  32.171   0.243  13.802
68527W        W33347  34.480   2.000  10.673
68528W        W33348  42.216   4.706   1.893
68529W        W33349   7.500  22.720  13.876
68530W        W33350  36.922  41.827   4.781
68531W        W33351   3.267   0.537  12.857
68532W        W33352   6.281   9.200  12.664
68533W        W33353  10.835  35.543   2.745
68534W        W33354   6.364  44.394   0.857
68535W        W33355   5.619  44.945   0.789
68536W        W33356  14.305   7.281  12.170
68537W        W33357  13.431  21.055   2.702
68538W        W33358   9.641  20.659  14.462
68539W        W33359  39.507   3.139   5.033
68540W        W33360  29.134  43.774  11.340
68541W        W33361  11.742   4.973  12.518
68542W        W33362  21.137  43.918   1.693
68543W        W33363  16.334  17.886   2.426
68544W        W33364  28.926  42.386  13.402
68545W        W33365   1.187  13.706   4.189
68546W        W33366   0.959  19.546   1.409
68547W        W33367  36.808  19.978  11.588
68548W        W33368  29.629  32.412  12.416
68549W        W33369  18.501  35.107  11.678
68550W        W33370  36.915   0.402  11.182
68551W        W33371  42.754  12.243  11.194
68552W        W33372  33.701  37.318  14.448
68553W        W33373  15.778   3.117   4.333
68554W        W33374  43.007  27.553   0.248
68555W        W33375  42.269  27.002   3.490
68556W        W33376  40.388   6.212  14.136
68557W        W33377   7.975  40.986   2.822
68558W        W33378  28.109  29.635   0.505
68559W        W33379  40.321  33.008  12.105
68560W        W33380  24.582  10.403  12.040
68561W        W33381  29.762  11.896   1.847
68562W        W33382  31.535  42.772   0.762
68563W        W33383  36.997   2.681  12.431
68564W        W33384   5.931  14.434  10.765
68565W        W33385  39.058  42.334  14.964
68566W        W33386  10.344  43.861  12.014
68567W        W33387   2.742   0.946  14.957
68568W        W33388   3.390  42.819  11.219
68569W        W33389  33.077  38.097  11.517
68570W        W33390  10.179  21.927  14.428
68571W        W33391  42.867  37.597  11.095
68572W        W33392  15.167  34.193  13.531
68573W        W33393  32.569  19.653  12.653
68574W        W33394  37.411  11.166   2.690
68575W        W33395   6.175  36.889  14.834
68576W        W33396  35.846  32.980   1.096
68577W        W33397  20.576  39.766  13.895
68578W        W33398   5.319   0.361   4.597
68579W        W33399  23.649  13.039   4.797
68580W        W33400  29.519  24.891   0.366
68581W        W33401  41.026   0.336  13.900
68582W        W33402  37.096  36.365   4.397
68583W        W33403  41.539   1.985  10.979
68584W        W33404  37.954   9.167  11.895
68585W        W33405  43.774  15.272   2.540
68586W        W33406  27.386  22.165  13.001
68587W        W33407  35.552  20.038   2.216
68588W        W33408  36.005   8.143   4.034
68589W        W33409  23.751  12.291  14.376
68590W        W33410  30.989  27.652  11.149
68591W        W33411  26.650  21.694   3.619
68592W        W33412  36.632   8.308  11.609
68593W        W33413  15.666   2.215   3.559
68594W        W33414  38.947  38.979   1.303
68595W        W33415  30.697   7.838   5.132
68596W        W33416  19.065  15.497   4.501
68597W        W33417  36.292  36.094   4.174
68598W        W33418  40.970   5.171  13.774
68599W        W33419  32.133  22.207   1.844
68600W        W33420  27.129   0.968  12.308
68601W        W33421  31.097  28.094   4.567
68602W        W33422  29.937   8.617  13.568
68603W        W33423   2.435  28.633  12.043
68604W        W33424  15.992  18.160  11.473
68605W        W33425  28.717  27.386  11.131
68606W        W33426  38.547  10.847  13.365
68607W        W33427  29.468  24.128  11.123
68608W        W33428   4.028  12.840  13.836
68609W        W33429  10.941   0.851  13.925
68610W        W33430  38.347   2.407   4.841
68611W        W33431   8.877  21.442  11.447
68612W        W33432  12.349  26.394   4.804
68613W        W33433  30.721  40.494  13.518
68614W        W33434  35.464  30.919  10.731
68615W        W33435   5.883  39.933   1.409
68616W        W33436   3.766  15.459   5.180
68617W        W33437  13.355  25.635  14.268
68618W        W33438   9.842  37.172  11.082
68619W        W33439  32.484  42.537  11.593
68620W        W33440  36.658   8.259   1.698
68621W        W33441  36.548  16.385   4.562
68622W        W33442  37.951  43.008  14.350
68623W        W33443  35.162  31.503  11.813
68624W        W33444  30.364  30.771   2.461
68625W        W33445  29.417  24.416  11.533
68626W        W33446  15.454  15.506  14.577
68627W        W33447  30.502  20.523  14.974
68628W        W33448  25.052   4.948  10.535
68629W        W33449  31.705  28.412   2.609
68630W        W33450  12.117  17.435   5.074
68631W        W33451  40.201   6.821  12.929
68632W        W33452   4.933  42.640  12.625
68633W        W33453  35.060  28.120   1.241
68634W        W33454  39.278  18.217   3.220
68635W        W33455  25.208  25.712   0.874
68636W        W33456  38.914  23.391  14.217
68637W        W33457   0.478  11.124   0.857
68638W        W33458  33.097  14.846   0.322
68639W        W33459   1.304   7.172  12.257
68640W        W33460   7.119  14.832   0.218
68641W        W33461  27.441  13.561   0.013
68642W        W33462  44.889  31.880   2.228
68643W        W33463  28.514  36.403  11.742
68644W        W33464  11.191  42.065   1.283
68645W        W33465   0.728  18.515  13.557
68646W        W33466  19.094  17.205   0.358
68647W        W33467  26.241  29.177  14.792
68648W        W33468   0.557  21.504   2.173
68649W        W33469  15.303  32.220   3.220
68650W        W33470  18.520  28.594  11.972
68651W        W33471  44.189  10.169  12.561
68652W        W33472  16.843   6.036   1.767
68653W        W33473  17.188  43.959  12.427
68654W        W33474  31.979  33.551  11.285
68655W        W33475  33.281  13.538   0.925
68656W        W33476  30.058   1.986  14.749
68657W        W33477  24.521  38.445   1.098
68658W        W33478  36.064  25.820  10.657
68659W        W33479  21.770  18.081  13.747
68660W        W33480  13.592  44.435   0.982
68661W        W33481   5.726  19.962  11.372
68662W        W33482   8.813  26.780  11.150
68663W        W33483  36.964   0.933  14.932
68664W        W33484  12.801   2.979  14.479
68665W        W33485   4.943  27.163   3.285
68666W        W33486  36.507  21.060  10.398
68667W        W33487  31.992   0.235  10.372
68668W        W33488  25.151   1.171   0.928
68669W        W33489  44.210   3.919   0.299
68670W        W33490  10.756  11.251  10.807
68671W        W33491  32.530  30.648   3.403
68672W        W33492   5.387  13.094  12.780
68673W        W33493  36.941  44.373  12.949
68674W        W33494  10.382  10.405  12.461
68675W        W33495  15.283   6.436  12.095
68676W        W33496  10.936   4.132  12.914
68677W        W33497   1.704  44.070  11.013
68678W        W33498   4.187  26.658  11.999
68679W        W33499  24.577  41.915   2.505
68680W        W33500  12.733  18.604  13.344
68681W        W33501  28.655  42.719  13.041
68682W        W33502  29.112  20.045  12.564
68683W        W33503   8.866  22.314  12.633
68684W        W33504  13.661  30.037  14.687
68685W        W33505  36.518  36.840  12.509
68686W        W33506   3.867  35.735  10.668
68687W        W33507  17.322  20.126  12.896
68688W        W33508  33.913   3.242   1.999
68689W        W33509  22.674  15.875  11.372
68690W        W33510  33.838  32.974  11.104
68691W        W33511  30.645  40.947  10.945
68692W        W33512   9.116  31.533  14.027
68693W        W33513  25.315   5.813  13.253
68694W        W33514  43.850  40.862  12.653
68695W        W33515  31.080  15.654   0.791
68696W        W33516  29.032  33.321  13.961
68697W        W33517  15.124  22.831  10.987
68698W        W33518  27.975   5.305  13.101
68699W        W33519  31.162   1.680  12.560
68700W        W33520   0.024   6.610  12.660
68701W        W33521  25.725  17.599   0.959
68702W        W33522  37.200  22.852   3.137
68703W        W33523   4.670  10.893  11.373
68704W        W33524  20.283   6.475  10.554
68705W        W33525  20.413  22.224  12.553
68706W        W33526  10.209  16.669  12.137
68707W        W33527  17.623   7.998  10.659
68708W        W33528   3.224  29.772   1.527
68709W        W33529  40.060  41.439   4.116
68710W        W33530  18.758  34.865   2.627
68711W        W33531  37.605  41.524   0.404
68712W        W33532  17.790  17.815  11.620
68713W        W33533  26.773  23.505  12.052
68714W        W33534  29.431  12.238   4.147
68715W        W33535  14.385   6.902  13.879
68716W        W33536  42.342  20.763  11.554
68717W        W33537  41.395   6.542  13.871
68718W        W33538  25.659  12.465   0.327
68719W        W33539   8.278  13.973  14.778
68720W        W33540  12.593   5.857  14.602
68721W        W33541  30.949  20.955  11.127
68722W        W33542  33.325   6.976  13.956
68723W        W33543  18.562  24.762   4.422
68724W        W33544  12.364  16.547   2.068
68725W        W33545   9.780  39.366   3.629
68726W        W33546  44.190  42.460   3.139
68727W        W33547  43.503  35.452  14.535
68728W        W33548  43.831  36.638  12.980
68729W        W33549   8.804  10.163  12.667
68730W        W33550  12.241  37.539  13.462
68731W        W33551  12.593   9.132   0.251
68732W        W33552  33.466  42.438   3.933
68733W        W33553  11.684   5.255  12.015
68734W        W33554  31.917  10.950   4.193
68735W        W33555  13.853  36.809  10.716
68736W        W33556   0.250  43.816  14.302
68737W        W33557  31.915  30.645  11.505
68738W        W33558   8.678   4.171   2.095
68739W        W33559  20.308  28.144   1.441
68740W        W33560  17.397   1.261   4.502
68741W        W33561  22.067  30.932  11.136
68742W        W33562  41.085  29.089   0.723
68743W        W33563  34.177  21.243  11.497
68744W        W33564   9.509  40.212  14.903
68745W        W33565  25.129   5.688  11.964
68746W        W33566   1.251  13.304  13.758
68747W        W33567  21.255  11.126  14.369
68748W        W33568   4.712  25.750  13.903
68749W        W33569  10.968  36.533  10.756
68750W        W33570   3.401  42.987   0.836
68751W        W33571  35.908  37.448   4.506
68752W        W33572   6.986  21.824  11.617
68753W        W33573  26.019   5.701  11.007
68754W        W33574  16.389  19.485   2.818
68755W        W33575  27.552   3.734   1.234
68756W        W33576   9.958   6.708  10.669
68757W        W33577  19.007  22.174  13.956
68758W        W33578  16.066  33.119  14.021
68759W        W33579  33.841  21.097   4.199
68760W        W33580  33.319  22.794  10.613
68761W        W33581  10.729   0.786   0.973
68762W        W33582  19.122  28.771  12.587
68763W        W33583  36.769  36.784   4.514
68764W        W33584  30.065  38.401  14.931
68765W        W33585  15.118  10.110  14.279
68766W        W33586  38.007  36.449   2.734
68767W        W33587  38.508  22.217   2.444
68768W        W33588  27.209  40.488   3.780
68769W        W33589  36.082  10.810   2.624
68770W        W33590  34.559  32.530   0.984
68771W        W33591   0.388  20.085   1.709
68772W        W33592  40.069  13.787   2.844
68773W        W33593   9.359  32.439  10.784
68774W        W33594   5.889  44.243  14.412
68775W        W33595  43.184   5.934  13.921
68776W        W33596  28.495  38.428  14.968
68777W        W33597   4.232  19.557  12.951
68778W        W33598  44.800  44.880   1.679
68779W        W33599  41.516  38.827   0.343
68780W        W33600  25.035   7.173  13.298
68781W        W33601  15.175  22.914  11.501
68782W        W33602  19.007  40.336  11.441
68783W        W33603   0.479  34.199   3.915
68784W        W33604  34.138  35.877  13.536
68785W        W33605  28.995  17.080  14.278
68786W        W33606  30.690  15.984   1.940
68787W        W33607  25.413  38.383   2.048
68788W        W33608   4.043  36.629  14.034
68789W        W33609  11.588  17.686  10.513
68790W        W33610   5.476  17.764   3.845
68791W        W33611  10.392   1.886   5.096
68792W        W33612  18.907  17.100   4.110
68793W        W33613   3.749  30.629   3.201
68794W        W33614  29.438  18.673  10.935
68795W        W33615   8.212  31.890  10.891
68796W        W33616  21.712  14.504   2.668
68797W        W33617  28.097  13.547   0.859
68798W        W33618   6.216  24.445   1.105
68799W        W33619  16.077   6.392   0.259
68800W        W33620  35.568  41.805   1.655
68801W        W33621  19.509  21.744   2.135
68802W        W33622  44.254  39.481   3.681
68803W        W33623  17.554  38.986  12.578
68804W        W33624   7.319  20.058   4.712
68805W        W33625  32.866  40.801  14.357
68806W        W33626  43.774  44.318   2.809
68807W        W33627  19.622   0.344  12.811
68808W        W33628  11.238  15.199   3.522
68809W        W33629   4.184  30.168  11.572
68810W        W33630  22.467  37.530   2.240
68811W        W33631  33.786  40.341  11.173
68812W        W33632  16.081  20.975   4.053
68813W        W33633  44.694  39.145   4.192
68814W        W33634  24.333   2.029  14.550
68815W        W33635  14.762  25.221  14.841
68816W        W33636  32.551  42.649  11.078
68817W        W33637   6.936  33.633   4.488
68818W        W33638  29.898  10.061  13.773
68819W        W33639  28.800  36.178   4.021
68820W        W33640  18.106  43.518  11.184
68821W        W33641   9.102  16.823   0.472
68822W        W33642  39.039  28.058   4.617
68823W        W33643   9.022  34.520   4.038
68824W        W33644  32.785  24.667   3.628
68825W        W33645  12.120  10.286  12.658
68826W        W33646  19.631  23.122  13.825
68827W        W33647  39.775  36.887  11.952
68828W        W33648  12.352   0.754   2.673
68829W        W33649   6.221  43.429   0.420
68830W        W33650  13.650  33.585  11.610
68831W        W33651  34.163   8.854   2.998
68832W        W33652  31.126  14.365   3.213
68833W        W33653   2.822  15.069  14.808
68834W        W33654  28.621   8.624  14.268
68835W        W33655  36.492  13.836   1.341
68836W        W33656  39.324   6.390  10.483
68837W        W33657   6.952  21.825   9.844
68838W        W33658  25.171  22.483   5.059
68839W        W33659  14.455  18.731   3.668
68840W        W33660  43.405  41.843  10.764
68841W        W33661  22.985  10.393   4.110
68842W        W33662  40.620  21.489  12.031
68843W        W33663  16.151  28.496   2.345
68844W        W33664  39.290   7.848  14.875
68845W        W33665  19.990   5.311   1.326
68846W        W33666  39.096  17.088  13.823
68847W        W33667  11.111   7.321  11.061
68848W        W33668   9.564  32.339   2.199
68849W        W33669  34.443   9.037  11.497
68850W        W33670  11.202   9.940  12.864
68851W        W33671  41.953  26.015   1.032
68852W        W33672  31.660  11.893   4.150
68853W        W33673   0.328  43.598  12.215
68854W        W33674  40.064  16.094  13.416
68855W        W33675  37.572  10.357  12.557
68856W        W33676  28.660  39.053   4.179
68857W        W33677  17.352  10.985   1.410
68858W        W33678  35.033  32.944  11.506
68859W        W33679  28.352   0.303   2.346
68860W        W33680  26.624  18.250  13.913
68861W        W33681  33.799   8.836  10.067
68862W        W33682  30.385  13.921  12.538
68863W        W33683  28.300   4.828  11.665
68864W        W33684   0.906  39.476   4.885
68865W        W33685  42.141  11.236  11.680
68866W        W33686  40.514  17.227  11.161
68867W        W33687  20.536  24.732   1.321
68868W        W33688  15.608  29.597   4.182
68869W        W33689  21.283  41.492  14.531
68870W        W33690  18.987  40.980   4.960
68871W        W33691  25.223   0.336   3.674
68872W        W33692   3.375  39.933  13.068
68873W        W33693  38.255  19.191   1.301
68874W        W33694   2.642  30.464  12.941
68875W        W33695  14.082  18.740   0.836
68876W        W33696  11.267  26.050   2.783
68877W        W33697   9.245  10.763   3.849
68878W        W33698  34.837  42.968   1.245
68879W        W33699   0.934  15.070  13.749
68880W        W33700   5.769  34.605   3.244
68881W        W33701  43.535  38.798   0.678
68882W        W33702  33.036   8.326  12.029
68883W        W33703   2.501  43.172  11.508
68884W        W33704  25.069   6.659  13.543
68885W        W33705  11.937  26.425   4.063
68886W        W33706  35.967   7.974  13.075
68887W        W33707  12.756   3.012  13.978
68888W        W33708   2.399  11.338   9.995
68889W        W33709  17.220  41.500  10.695
68890W        W33710   2.541  28.213   0.755
68891W        W33711  13.505  41.666  13.407
68892W        W33712  20.025  34.179  11.959
68893W        W33713   0.019  23.113   2.892
68894W        W33714   8.225  32.347   2.715
68895W        W33715  38.298   4.336   3.364
68896W        W33716  15.151   1.402  12.879
68897W        W33717  19.968  15.915   2.421
68898W        W33718  34.349  29.566  10.752
68899W        W33719   0.891  28.627  13.854
68900W        W33720  41.841  41.521   4.624
68901W        W33721   5.284  44.907  13.792
68902W        W33722   1.083  32.948   4.807
68903W        W33723   7.003  11.042  11.644
68904W        W33724  18.177  20.447   0.933
68905W        W33725  36.073   5.369   3.533
68906W        W33726   0.202   3.942   3.569
68907W        W33727  41.562  18.212  10.716
68908W        W33728  31.476  15.387   1.915
68909W        W33729   3.871  20.189   2.822
68910W        W33730  20.030  27.890   1.890
68911W        W33731  29.945  42.397  12.084
68912W        W33732  17.790  21.331  13.009
68913W        W33733  35.907  20.554  10.733
68914W        W33734  11.730  19.533   1.308
68915W        W33735   7.767  30.822   3.282
68916W        W33736  10.308  39.089   5.044
68917W        W33737   4.649  24.245  14.420
68918W        W33738  35.549  26.139   2.809
68919W        W33739   8.433  39.817   4.110
68920W        W33740  34.278  28.073  11.594
68921W        W33741   5.705  11.391  10.547
68922W        W33742  29.018  23.039   3.276
68923W        W33743  11.326  15.295   2.131
68924W        W33744  28.985  13.093   4.331
68925W        W33745  14.765  39.657   0.371
68926W        W33746   3.802  31.960  13.350
68927W        W33747  17.178  21.250   1.721
68928W        W33748   3.275  39.050  10.682
68929W        W33749  10.371  34.976   2.942
68930W        W33750   9.123  24.272   1.747
68931W        W33751  18.609  36.231   0.685
68932W        W33752  10.658  41.097   2.809
68933W        W33753  12.544  25.327   0.441
68934W        W33754  21.179  18.060  12.808
68935W        W33755  20.778  25.113  10.794
68936W        W33756  44.415  17.759   1.324
68937W        W33757  17.821  42.053   1.774
68938W        W33758   6.466  40.135   4.665
68939W        W33759  38.545  27.813   2.667
68940W        W33760  30.148   2.459  13.867
68941W        W33761  21.000  36.414  14.355
68942W        W33762   7.331  15.662   5.318
68943W        W33763  44.760  27.636   4.628
68944W        W33764  35.003  21.934  11.590
68945W        W33765   8.730  39.478   1.960
68946W        W33766  21.549  39.007  12.957
68947W        W33767  21.513  32.705  14.295
68948W        W33768  32.541  38.562  14.537
68949W        W33769  21.807   3.931   1.709
68950W        W33770  17.020  39.830  13.424
68951W        W33771   5.526  28.109  13.065
68952W        W33772  21.687  19.176   2.875
68953W        W33773   9.867  33.439   2.784
68954W        W33774   2.232  35.620   3.171
68955W        W33775  17.659   4.216   1.530
68956W        W33776  14.206  14.306   3.578
68957W        W33777  19.145  44.865   0.307
68958W        W33778   0.416  28.189   4.531
68959W        W33779  17.049  15.792  10.987
68960W        W33780  10.366  44.464  12.510
68961W        W33781   2.458  25.392   2.700
68962W        W33782  22.199  19.104  10.196
68963W        W33783  20.621   7.093   5.388
68964W        W33784   1.717  13.222  13.544
68965W        W33785  28.332  16.143  13.130
68966W        W33786  38.302   7.780   4.032
68967W        W33787  40.866  22.905   4.226
68968W        W33788  25.915  21.931  10.720
68969W        W33789   5.287  44.032   1.447
68970W        W33790  35.538  22.711   4.517
68971W        W33791  42.401   1.213   2.799
68972W        W33792  12.866  10.171  13.944
68973W        W33793  40.935   7.849   0.756
68974W        W33794  22.707   7.875   1.135
68975W        W33795   4.819  31.395   3.643
68976W        W33796  37.263   5.169   4.499
68977W        W33797  39.053  38.391  11.519
68978W        W33798  44.802  28.993   0.814
68979W        W33799  27.422  42.955   0.330
68980W        W33800  12.058  10.863  14.032
68981W        W33801   7.215  10.864  13.367
68982W        W33802  17.263   3.487  11.059
68983W        W33803  44.683  15.637   0.927
68984W        W33804   5.035   9.611   4.052
68985W        W33805  31.423  28.675   1.756
68986W        W33806  10.119  20.582  13.212
68987W        W33807  31.209   7.378  12.906
68988W        W33808  32.149  21.042  11.475
68989W        W33809   6.796  19.791   2.818
68990W        W33810  42.345  18.881  13.158
68991W        W33811   2.333  14.083  12.899
68992W        W33812  42.755  32.178  13.154
68993W        W33813  23.621   0.218  11.982
68994W        W33814  11.603  28.459   3.537
68995W        W33815  30.302  13.157  13.082
68996W        W33816  23.949   5.638  12.047
68997W        W33817  26.198  23.637  11.391
68998W        W33818  27.585  37.740   2.411
68999W        W33819  39.188  34.777   1.696
69000W        W33820  30.607   3.272  11.179
69001W        W33821   9.827  41.261  11.635
69002W        W33822  20.565  21.388   0.471
69003W        W33823  28.925  22.626   3.571
69004W        W33824  36.527   2.214   2.722
69005W        W33825  39.844  36.594   1.241
69006W        W33826  24.898  18.170   1.385
69007W        W33827  18.225  29.502  10.616
69008W        W33828  29.613  10.084  14.195
69009W        W33829  17.620  38.205  13.517
69010W        W33830   6.694  22.422   4.949
69011W        W33831  22.862   4.863   3.625
69012W        W33832  30.401  36.570   1.783
69013W        W33833  18.494  19.642   2.297
69014W        W33834  24.925  34.173   0.804
69015W        W33835  13.697  10.856  11.571
69016W        W33836   5.449  29.637   1.789
69017W        W33837  24.943   7.907   0.961
69018W        W33838  15.315   6.243   0.325
69019W        W33839   1.352  28.247   4.547
69020W        W33840  34.032  30.462  13.973
69021W        W33841  11.782  36.317   2.343
69022W        W33842   7.208  35.364   3.671
69023W        W33843  39.995   1.279  12.066
69024W        W33844   1.900   4.170  14.103
69025W        W33845  31.634  14.703  11.870
69026W        W33846   7.129   6.219  11.108
69027W        W33847  37.805  29.745  11.015
69028W        W33848   6.299  22.697  14.789
69029W        W33849  32.771  30.941  11.347
69030W        W33850  38.077  10.514  14.806
69031W        W33851  23.036   6.257  11.078
69032W        W33852   5.932   8.160  10.722
69033W        W33853  42.540  41.307  14.132
69034W        W33854   7.824   4.141   4.820
69035W        W33855  43.772   7.440   4.167
69036W        W33856  27.584  42.373  11.379
69037W        W33857  31.746  31.661  11.397
69038W        W33858  29.850  44.437   3.809
69039W        W33859  15.626  31.943   3.717
69040W        W33860  36.354  24.167   0.672
69041W        W33861  26.525  43.865  10.900
69042W        W33862   5.321  43.425   3.270
69043W        W33863  40.858   1.126   3.814
69044W        W33864   2.180  42.339   4.360
69045W        W33865  33.274  40.587   4.118
69046W        W33866  31.587   4.478   3.156
69047W        W33867  15.572  14.458  13.527
69048W        W33868  39.816  25.430  14.359
69049W        W33869   2.366   6.088  12.488
69050W        W33870  16.680  42.302   4.495
69051W        W33871   9.935  30.440  14.806
69052W        W33872   6.166  31.999   2.249
69053W        W33873  14.138  10.379   2.804
69054W        W33874  41.203  17.328   2.386
69055W        W33875  12.981  43.346  14.828
69056W        W33876  18.182   3.998   3.710
69057W        W33877  18.762   2.726  14.086
69058W        W33878  30.011  44.203  10.965
69059W        W33879  38.032  10.406   2.643
69060W        W33880  42.387  40.255   3.288
69061W        W33881  28.007  29.230  10.422
69062W        W33882  30.792  18.312  10.714
69063W        W33883  39.914  14.687   4.134
69064W        W33884  19.258   9.409   2.602
69065W        W33885   7.224   4.951  13.497
69066W        W33886  40.077  21.984   0.327
69067W        W33887   8.660   5.292   0.743
69068W        W33888  40.463  27.243  10.912
69069W        W33889  42.509   3.032  11.190
69070W        W33890   6.952  31.887   4.356
69071W        W33891  40.336  13.638  12.141
69072W        W33892  42.292  43.080   0.628
69073W        W33893  38.584  15.754   5.134
69074W        W33894  17.347  27.165   3.636
69075W        W33895  21.307  36.159   0.346
69076W        W33896  39.424  32.448   2.121
69077W        W33897   7.951  14.098  10.798
69078W        W33898  40.624   4.060   2.420
69079W        W33899  12.576  24.857   4.108
69080W        W33900   1.377  27.390  13.850
69081W        W33901  11.843  26.234  14.826
69082W        W33902   8.516  40.498  11.699
69083W        W33903   2.441  31.704   2.217
69084W        W33904   7.077  24.717   0.256
69085W        W33905   7.185   8.907   4.644
69086W        W33906   4.944  12.596   4.150
69087W        W33907  11.662  16.014   0.632
69088W        W33908  35.388  28.050   3.368
69089W        W33909  41.942  18.180   0.744
69090W        W33910   0.061  44.351  14.151
69091W        W33911  21.449  26.687   1.004
69092W        W33912  16.549  17.366   4.220
69093W        W33913  20.712  10.263   0.270
69094W        W33914   3.247  40.486   3.555
69095W        W33915  38.623  27.199   4.713
69096W        W33916  34.666  27.932   2.782
69097W        W33917  38.756  33.054   3.340
69098W        W33918  33.935  17.274   4.554
69099W        W33919  33.283   8.105  14.379
69100W        W33920  13.677  23.791  10.764
69101W        W33921  22.684   2.724   1.709
69102W        W33922  11.312   7.388   3.934
69103W        W33923   1.386  27.765  11.432
69104W        W33924  36.348  13.801   0.230
69105W        W33925  31.470  34.646   3.049
69106W        W33926   5.412  10.320   3.156
69107W        W33927  38.650  32.537   3.253
69108W        W33928  17.948  32.097   3.298
69109W        W33929  10.798  38.875   3.299
69110W        W33930  18.900  24.209   5.089
69111W        W33931  25.124  16.769  11.790
69112W        W33932  23.157  29.860   1.233
69113W        W33933  29.632   6.345   3.180
69114W        W33934  39.796  30.566   0.589
69115W        W33935  28.606  11.610  11.521
69116W        W33936   8.925  31.922  10.155
69117W        W33937   2.447  15.295   2.360
69118W        W33938  32.049  24.157  13.489
69119W        W33939   3.546  25.313   4.951
69120W        W33940  13.958  14.562   4.709
69121W        W33941   9.295  26.209  13.744
69122W        W33942  39.981  36.189   3.727
69123W        W33943  23.474   5.370  10.719
69124W        W33944  44.986  41.529  12.705
69125W        W33945  33.616   8.047   1.604
69126W        W33946   3.879   7.713   1.291
69127W        W33947  37.679   3.740  12.891
69128W        W33948  27.669  30.484   2.783
69129W        W33949  30.499  11.381  14.745
69130W        W33950  44.452  29.259   5.075
69131W        W33951  14.373   1.288   3.445
69132W        W33952  35.078  23.014  14.825
69133W        W33953  16.751  36.152  12.880
69134W        W33954   7.060  35.476  13.077
69135W        W33955  31.929   3.264   2.308
69136W        W33956  41.359  25.077  10.849
69137W        W33957  42.783  17.095   0.204
69138W        W33958  28.279   9.387   3.298
69139W        W33959  21.468   8.200   0.901
69140W        W33960  41.965  12.792  12.481
69141W        W33961  16.525  39.365   0.944
69142W        W33962  15.329  10.946   0.370
69143W        W33963  36.231  17.554  12.225
69144W        W33964   4.342  44.205   2.626
69145W        W33965  25.725   3.361   1.437
69146W        W33966   2.746   2.257   2.640
69147W        W33967   6.139  40.253   3.835
69148W        W33968   3.226  35.182  14.803
69149W        W33969   6.763  34.062  11.622
69150W        W33970  22.609   9.884   1.667
69151W        W33971  10.897  33.385   2.792
69152W        W33972   5.402  26.674  14.641
69153W        W33973  12.540  22.644   2.644
69154W        W33974  37.078  42.030  14.054
69155W        W33975  30.881  19.281   4.508
69156W        W33976  41.253  44.742   1.303
69157W        W33977  32.202  44.333   2.184
69158W        W33978   7.170  27.540  12.646
69159W        W33979  25.520  33.186   2.573
69160W        W33980  28.916  34.652   4.193
69161W        W33981  23.030  42.753  11.890
69162W        W33982   2.044   1.036  12.122
69163W        W33983  33.126  26.153   1.624
69164W        W33984   6.617  18.958  14.969
69165W        W33985  43.960  29.543  11.142
69166W        W33986  44.859  42.996  12.971
69167W        W33987  14.325  18.628  11.750
69168W        W33988  14.018   7.817  11.094
69169W        W33989  22.182  13.010  14.071
69170W        W33990  10.287  44.043   1.451
69171W        W33991  37.697   9.808   3.614
69172W        W33992  19.996   7.360  13.688
69173W        W33993  25.720  28.381   3.814
69174W        W33994  14.846   8.728  13.327
69175W        W33995  12.301  15.480   0.893
69176W        W33996   1.902  32.926  12.686
69177W        W33997  44.277  44.741  14.126
69178W        W33998  41.330  29.521  11.220
69179W        W33999  43.203  11.187  13.342
69180W        W34000  29.689   0.366  11.763
69181W        W34001  13.344  10.616  13.741
69182W        W34002   2.807  22.017  12.383
69183W        W34003  20.177  22.259  13.008
69184W        W34004   5.704  27.157  14.877
69185W        W34005  30.055   0.798  13.845
69186W        W34006  32.546   1.401   4.550
69187W        W34007   9.867   5.433  12.508
69188W        W34008  35.489  28.891  14.313
69189W        W34009  25.238  32.834  14.428
69190W        W34010  36.995   6.221  13.945
69191W        W34011  30.384  36.949   4.148
69192W        W34012  40.480   9.363   2.854
69193W        W34013  27.349  14.269   4.112
69194W        W34014  12.665  24.791  11.211
69195W        W34015  13.894   1.607   4.246
69196W        W34016  17.318  27.487  12.431
69197W        W34017   3.485  11.698  13.274
69198W        W34018   2.397  21.640   1.627
69199W        W34019   6.053   3.518  10.685
69200W        W34020  17.052  40.472  11.032
69201W        W34021   2.164   3.635   1.862
69202W        W34022  36.390   4.781  14.399
69203W        W34023  16.497  20.304   0.410
69204W        W34024  32.862   2.223  14.818
69205W        W34025  35.311  43.880   3.574
69206W        W34026  10.203  42.576  14.459
69207W        W34027   6.666  34.432   2.615
69208W        W34028  13.833   1.250   0.922
69209W        W34029  17.492   5.350  13.744
69210W        W34030  25.588  40.371   1.689
69211W        W34031  16.820  40.796   1.347
69212W        W34032   0.570  21.387   1.244
69213W        W34033   7.718   7.006   4.584
69214W        W34034  21.055  28.132   3.748
69215W        W34035   9.003  21.288  14.233
69216W        W34036  26.755  16.408  12.035
69217W        W34037   3.448  38.827   1.435
69218W        W34038   9.447  33.084   4.035
69219W        W34039  21.913  18.116  11.914
69220W        W34040  40.520  33.415  12.368
69221W        W34041  22.655   7.729  12.614
69222W        W34042  35.996  17.592   3.245
69223W        W34043  39.045  32.747   1.873
69224W        W34044   7.259  37.972   3.080
69225W        W34045  30.937   1.689  14.929
69226W        W34046  30.968  36.828  13.460
69227W        W34047  11.612  43.539  12.866
69228W        W34048  29.354   5.703   2.963
69229W        W34049  20.377  16.299  14.830
69230W        W34050   5.367  28.218   0.281
69231W        W34051   4.335  12.795  14.985
69232W        W34052  13.734  18.127  14.345
69233W        W34053  22.522  25.928   4.575
69234W        W34054  27.995  16.019   1.951
69235W        W34055  39.475   9.104  12.465
69236W        W34056  40.798  35.324   2.965
69237W        W34057  33.417   2.866  14.454
69238W        W34058  14.114  31.864  12.623
69239W        W34059  44.841  32.175   1.223
69240W        W34060  13.786  10.259   4.668
69241W        W34061  32.839   1.470  13.045
69242W        W34062  10.986  31.981  11.534
69243W        W34063  33.058  28.183  14.707
69244W        W34064  40.519  24.953  11.354
69245W        W34065  28.954   1.461  12.042
69246W        W34066   5.265   7.412   1.973
69247W        W34067   0.944  12.166  10.398
69248W        W34068  43.464  24.211  13.068
69249W        W34069  27.160  21.653   0.172
69250W        W34070  15.009   7.842   3.376
69251W        W34071  33.280  29.478   0.323
69252W        W34072  44.424  13.747  13.043
69253W        W34073  28.635  27.509   0.328
69254W        W34074  12.899  40.035  12.030
69255W        W34075  38.437   7.982   1.664
69256W        W34076   3.539  24.484   1.974
69257W        W34077  38.372   3.337  13.984
69258W        W34078  42.115  18.242  12.508
69259W        W34079  40.880  20.834  10.793
69260W        W34080  37.805  31.432  11.598
69261W        W34081  40.726  28.395   3.860
69262W        W34082  22.026   1.801   2.192
69263W        W34083  12.888  41.961   0.299
69264W        W34084   8.600  12.418   1.921
69265W        W34085  26.683  23.235  14.888
69266W        W34086   3.285   4.437   1.823
69267W        W34087  22.982   6.142   2.301
69268W        W34088  37.445   3.949   2.568
69269W        W34089  20.642  29.928  11.037
69270W        W34090  12.169  19.079  13.898
69271W        W34091  18.529  43.804   1.351
69272W        W34092  31.794  39.772  10.451
69273W        W34093  35.846   2.810  11.548
69274W        W34094  30.370  42.927  10.578
69275W        W34095  38.595  38.286  11.875
69276W        W34096  30.515  31.149   2.807
69277W        W34097   9.385   4.932  14.496
69278W        W34098  39.853  20.817  13.835
69279W        W34099  34.846  22.336   3.617
69280W        W34100  10.889  32.996  11.628
69281W        W34101  17.339  41.990  12.441
69282W        W34102   9.856  22.950   1.875
69283W        W34103  34.481  41.099  12.165
69284W        W34104  40.917  35.353   1.367
69285W        W34105  35.854  35.912   0.119
69286W        W34106  12.440   7.590   1.126
69287W        W34107  31.262  26.214  13.854
69288W        W34108   9.085  36.858  14.449
69289W        W34109  31.682   5.430   2.980
69290W        W34110  25.645  11.196   0.694
69291W        W34111   3.916  19.063   2.850
69292W        W34112   8.845  29.556  12.229
69293W        W34113  37.034   7.919  11.900
69294W        W34114  16.652   5.217   3.472
69295W        W34115   9.246  10.058   9.811
69296W        W34116  29.483   8.748  14.762
69297W        W34117  16.162   3.470  12.030
69298W        W34118  10.907  17.674  12.122
69299W        W34119  41.834  37.666  12.831
69300W        W34120  29.280  33.043   0.769
69301W        W34121  43.567  42.406  14.510
69302W        W34122   1.874  42.223  13.470
69303W        W34123  44.771  28.671   2.172
69304W        W34124  27.258  30.037  12.550
69305W        W34125  43.470   2.436   2.244
69306W        W34126  44.714   4.202  12.088
69307W        W34127  16.795  11.168  10.952
69308W        W34128  28.894  23.667   1.773
69309W        W34129  33.591  39.537  13.841
69310W        W34130   8.884  10.466   1.393
69311W        W34131  12.760  44.401  14.701
69312W        W34132  10.670   9.765   4.104
69313W        W34133   9.688  29.843   5.532
69314W        W34134  42.322  12.974  12.176
69315W        W34135  33.444  19.300   0.427
69316W        W34136  32.944  30.685   2.775
69317W        W34137  15.466  38.088  14.886
69318W        W34138  36.905  14.447  13.878
69319W        W34139   3.127   2.258   5.096
69320W        W34140   8.570  40.007   0.923
69321W        W34141  35.394  36.455  13.963
69322W        W34142  25.097  34.930   4.163
69323W        W34143  21.041   6.709   4.606
69324W        W34144  27.072  19.259   4.303
69325W        W34145  15.599  29.039   1.402
69326W        W34146  27.428  11.315  14.100
69327W        W34147  35.523  33.671  10.632
69328W        W34148   8.379   3.317  12.838
69329W        W34149  12.261  34.924   1.307
69330W        W34150  24.509  41.958   1.985
69331W        W34151   7.958  39.081   2.905
69332W        W34152  35.926  44.227   0.030
69333W        W34153  23.780  38.992   2.384
69334W        W34154   9.888   7.207   1.435
69335W        W34155  17.384  18.793   1.232
69336W        W34156  23.620  11.510   1.170
69337W        W34157  14.616  26.884   4.354
69338W        W34158  36.535  16.883   4.380
69339W        W34159   0.280  38.649  12.247
69340W        W34160  18.010  29.284   3.084
69341W        W34161   0.372  18.011   1.535
69342W        W34162  44.945  33.104   2.795
69343W        W34163  32.441   4.534   3.645
69344W        W34164  31.918  37.664  14.193
69345W        W34165  38.996  37.343  12.085
69346W        W34166  11.731  34.285  12.854
69347W        W34167   7.498  44.529  13.918
69348W        W34168   9.308   5.713   2.650
69349W        W34169   5.851  27.736   3.523
69350W        W34170   4.479  44.959  10.454
69351W        W34171  18.294   6.014  13.049
69352W        W34172  38.274   7.189   3.649
69353W        W34173   7.618  41.704  11.359
69354W        W34174  33.346  40.494   2.761
69355W        W34175  17.826   9.292  11.447
69356W        W34176  31.010  20.277   2.931
69357W        W34177  44.800   2.710   4.090
69358W        W34178  31.003  20.092   0.788
69359W        W34179  36.910  18.027   4.118
69360W        W34180  24.124  35.043   5.072
69361W        W34181  29.960  44.395  10.481
69362W        W34182  15.475  11.844   4.576
69363W        W34183   9.840  32.632   0.312
69364W        W34184  33.298  41.388   2.699
69365W        W34185   7.943   4.264  11.188
69366W        W34186  14.159   6.855  11.419
69367W        W34187   3.816  26.980   0.700
69368W        W34188  15.169   8.724  14.931
69369W        W34189   3.003  39.122   0.503
69370W        W34190  25.452  29.747  14.212
69371W        W34191  28.850  20.971  13.503
69372W        W34192  35.137  13.178   1.315
69373W        W34193  34.198  17.621  14.936
69374W        W34194  26.563  27.876  13.226
69375W        W34195  26.600  35.917   2.601
69376W        W34196  14.821  19.658  11.017
69377W        W34197  25.228  20.740   3.192
69378W        W34198  36.958  32.427   4.905
69379W        W34199  42.362  33.979   2.196
69380W        W34200  17.881  12.225  14.403
69381W        W34201  19.182  23.818  12.190
69382W        W34202  11.070  14.658   1.889
69383W        W34203   1.021  12.340   1.660
69384W        W34204  24.082  11.586   2.732
69385W        W34205  23.007  37.875   3.862
69386W        W34206  27.155  18.537   0.284
69387W        W34207  40.000  18.038   3.606
69388W        W34208  16.755  25.899   1.138
69389W        W34209   0.249  14.116   1.251
69390W        W34210   6.619  17.424   2.694
69391W        W34211  38.332  36.270  12.695
69392W        W34212  15.357  42.451  12.587
69393W        W34213   3.450  12.546   4.110
69394W        W34214  44.796  19.501  11.179
69395W        W34215  19.403  35.581   0.065
69396W        W34216  34.967   7.552   3.775
69397W        W34217  39.010   8.715   1.820
69398W        W34218   6.085   7.200   3.246
69399W        W34219  23.635  28.609  11.511
69400W        W34220  32.139   3.426  11.594
69401W        W34221  24.100  20.893  10.705
69402W        W34222  38.669  17.805  14.652
69403W        W34223  39.568   5.613  14.443
69404W        W34224  26.589  36.971   1.916
69405W        W34225  26.596  38.545  14.577
69406W        W34226   1.050   1.305   1.858
69407W        W34227  31.518  26.259  11.259
69408W        W34228  18.653  14.132  14.462
69409W        W34229  18.659   3.974   0.036
69410W        W34230  15.762  11.339   2.212
69411W        W34231   7.942  17.702   4.510
69412W        W34232  27.705  17.001  14.868
69413W        W34233   2.325  32.412  10.572
69414W        W34234  37.755  12.476   1.653
69415W        W34235  22.703  23.531   0.814
69416W        W34236  41.315  25.768  13.983
69417W        W34237  41.385  22.748  14.544
69418W        W34238  26.360   0.117   0.501
69419W        W34239   7.188  12.199   0.742
69420W        W34240  28.364  10.667   2.707
69421W        W34241  23.144   6.212  12.513
69422W        W34242  19.431  17.258   4.090
69423W        W34243  43.047  34.455   4.112
69424W        W34244  39.405  38.549   4.684
69425W        W34245  16.227  29.513   3.131
69426W        W34246  16.532  24.524   2.203
69427W        W34247   2.716  26.696   1.846
69428W        W34248  14.227  37.773   1.348
69429W        W34249  28.045  11.747   5.144
69430W        W34250  15.423  41.251   1.859
69431W        W34251  30.453  38.443   1.926
69432W        W34252   9.584  17.980   0.580
69433W        W34253  36.885   3.392  14.271
69434W        W34254  20.726  40.726   1.773
69435W        W34255  20.036  40.766   2.965
69436W        W34256  33.872  34.881   2.340
69437W        W34257  31.602   4.868  11.578
69438W        W34258  34.524  18.525   0.363
69439W        W34259  18.023  42.536   1.904
69440W        W34260  16.679   5.731   4.633
69441W        W34261  13.673  27.719   1.815
69442W        W34262  41.862  30.189   0.361
69443W        W34263  14.861   5.146   2.697
69444W        W34264  43.726  15.661   0.669
69445W        W34265  12.668  33.156  13.917
69446W        W34266   9.367  25.954   3.221
69447W        W34267  42.436  28.627  12.020
69448W        W34268  27.902  26.991  14.549
69449W        W34269  21.808  29.406  13.906
69450W        W34270  12.147  42.752   3.536
69451W        W34271  11.599  13.827   3.719
69452W        W34272  30.993   0.245  12.315
69453W        W34273  31.790  20.654   3.269
69454W        W34274  13.369  24.233   4.783
69455W        W34275  30.570  20.012   2.747
69456W        W34276  34.647  20.084  11.496
69457W        W34277  10.276  24.171  11.304
69458W        W34278   1.976   4.529   2.299
69459W        W34279  16.164  39.991   2.554
69460W        W34280  33.366  12.770  14.990
69461W        W34281  24.996  30.294   0.958
69462W        W34282  17.083  14.239  13.606
69463W        W34283  24.617  15.508   4.536
69464W        W34284  17.974  25.560   2.588
69465W        W34285   4.242  30.058   2.284
69466W        W34286  37.117  43.439   3.731
69467W        W34287  36.411  34.141   0.740
69468W        W34288  29.106  19.357  11.560
69469W        W34289  12.444   1.971   0.172
69470W        W34290  22.195  33.046  14.068
69471W        W34291  26.968  39.337   0.442
69472W        W34292  13.998  32.669   1.095
69473W        W34293  29.192  44.876  10.642
69474W        W34294  23.134  27.956   4.118
69475W        W34295  42.796   1.738   0.920
69476W        W34296   2.888   5.729  10.705
69477W        W34297  34.544  34.077  13.430
69478W        W34298   1.778  35.991   1.838
69479W        W34299  12.247   7.177   4.803
69480W        W34300  38.369  37.491   2.721
69481W        W34301  37.970  25.238   4.168
69482W        W34302  30.968  42.149   1.821
69483W        W34303   7.809  41.610  12.431
69484W        W34304   9.880  11.255  10.799
69485W        W34305  33.522  27.534  14.833
69486W        W34306  27.041  37.958   5.026
69487W        W34307  26.984  28.663  13.083
69488W        W34308  39.204  23.133  10.707
69489W        W34309  11.266  20.112  13.862
69490W        W34310   1.115  26.397  14.972
69491W        W34311  27.820  14.564   1.691
69492W        W34312  17.159  18.732   1.695
69493W        W34313  34.725  42.971   3.668
69494W        W34314  18.512   4.751  14.340
69495W        W34315   3.470  37.905   2.846
69496W        W34316  43.900   9.646  11.113
69497W        W34317  27.492  16.789   1.960
69498W        W34318  12.717  17.742  12.097
69499W        W34319  10.286  26.097  13.990
69500W        W34320  14.608   2.715   1.591
69501W        W34321  36.545  24.752   4.668
69502W        W34322  33.587  35.013  14.407
69503W        W34323  25.897  25.622   3.708
69504W        W34324  41.515  33.232  11.537
69505W        W34325  37.024  33.424  10.683
69506W        W34326  28.913  17.558   2.879
69507W        W34327  18.630   6.047   1.654
69508W        W34328  33.655  35.025   1.785
69509W        W34329  16.735  41.590  11.527
69510W        W34330  36.551  30.130  10.784
69511W        W34331  36.525  11.223   2.942
69512W        W34332  16.577  16.644   1.749
69513W        W34333   9.832   8.333   0.350
69514W        W34334  40.897  10.658  14.214
69515W        W34335  10.737  28.489  11.527
69516W        W34336  24.530   9.613  11.556
69517W        W34337  24.031  19.154  13.145
69518W        W34338   4.118  17.131   4.756
69519W        W34339  40.388  43.420   3.756
69520W        W34340  29.306   2.384  13.887
69521W        W34341  18.182  13.155   4.104
69522W        W34342  10.400  18.069  14.758
69523W        W34343  28.626  34.830  14.254
69524W        W34344  40.331   4.827   4.574
69525W        W34345  37.412   4.949  14.375
69526W        W34346  16.554  32.146   1.389
69527W        W34347  41.571  38.909  12.906
69528W        W34348   6.297  33.436   5.058
69529W        W34349  14.063  16.547   3.604
69530W        W34350  13.811  10.228  12.953
69531W        W34351   2.332  36.925  11.280
69532W        W34352  19.469  12.292   0.478
69533W        W34353  44.913  37.595   3.338
69534W        W34354  28.031  44.959  14.778
69535W        W34355  25.188  42.919   4.893
69536W        W34356   2.767  12.614   0.969
69537W        W34357  22.963  22.305  13.625
69538W        W34358  19.285  26.713  12.618
69539W        W34359  10.940  18.968   0.939
69540W        W34360  13.814  12.307   4.857
69541W        W34361  21.701  36.114   3.735
69542W        W34362  10.093  26.220  13.366
69543W        W34363  43.407   8.270   1.411
69544W        W34364  18.931  25.025   4.716
69545W        W34365  39.947  18.910  11.212
69546W        W34366  32.963  30.698   0.821
69547W        W34367  28.009  25.001  14.359
69548W        W34368  25.978  40.282  10.713
69549W        W34369   0.991  18.262  12.592
69550W        W34370   3.721  40.537   3.728
69551W        W34371   2.312  15.873  14.823
69552W        W34372  24.216  25.003   1.673
69553W        W34373  40.751  23.171  11.606
69554W        W34374  39.480   2.960   2.122
69555W        W34375  35.861  28.582   1.810
69556W        W34376  20.635  42.217  14.089
69557W        W34377  24.829  30.196   4.415
69558W        W34378   1.023  37.911   0.322
69559W        W34379  23.549  15.191  12.652
69560W        W34380  25.302  34.553  14.853
69561W        W34381   3.661  30.989  13.433
69562W        W34382  18.501  41.849  13.298
69563W        W34383  36.166  42.868   4.534
69564W        W34384  43.458  42.489  11.922
69565W        W34385  42.398  31.553  10.752
69566W        W34386  13.989   3.461   2.253
69567W        W34387  28.002  38.525  11.895
69568W        W34388  38.000  10.166   4.354
69569W        W34389  16.870  31.723   0.522
69570W        W34390  42.237  35.112  14.974
69571W        W34391   7.142   1.105   3.838
69572W        W34392  28.876  43.368  12.539
69573W        W34393   8.844  13.707  10.763
69574W        W34394   2.977   2.402   0.318
69575W        W34395   8.293   0.404  10.334
69576W        W34396   1.208  23.799   3.876
69577W        W34397  12.738  26.949  11.954
69578W        W34398  42.579  32.661  12.868
69579W        W34399  14.758  43.294  12.515
69580W        W34400  42.195  12.988   1.873
69581W        W34401  27.046  38.586   3.806
69582W        W34402  26.084   3.484   0.287
69583W        W34403  26.413  19.811  12.857
69584W        W34404  39.977  23.002   3.756
69585W        W34405  32.056  18.376   2.352
69586W        W34406  33.662  16.650  12.280
69587W        W34407  23.616  20.467  12.445
69588W        W34408  17.623  22.071   2.236
69589W        W34409  10.736  42.231  11.593
69590W        W34410  39.267  13.759   0.355
69591W        W34411  25.465  28.272   3.383
69592W        W34412  31.981   4.284  13.803
69593W        W34413  28.196   9.676  12.428
69594W        W34414   6.909  44.472  12.037
69595W        W34415  25.775  32.375   2.481
69596W        W34416  34.953  10.551  14.928
69597W        W34417  44.349  30.166   4.179
69598W        W34418  33.611  15.938  14.175
69599W        W34419  44.108   5.925   2.679
69600W        W34420  42.054  28.085  14.850
69601W        W34421  10.613  14.347   0.275
69602W        W34422  20.776   4.934  11.140
69603W        W34423  40.849  24.807  14.021
69604W        W34424  40.355  43.173  10.827
69605W        W34425  28.121  31.889  13.882
69606W        W34426  36.689   8.498   2.243
69607W        W34427  15.124  33.418   2.565
69608W        W34428   1.373  10.696  14.756
69609W        W34429  42.134   8.800  10.995
69610W        W34430  32.454  44.172   4.146
69611W        W34431  36.224  21.140  11.353
69612W        W34432  11.671  17.406   0.254
69613W        W34433  39.892  40.702   1.279
69614W        W34434  18.114  22.258  14.012
69615W        W34435  33.230  44.855   4.115
69616W        W34436  29.167   1.177  13.337
69617W        W34437  18.333   6.558  10.327
69618W        W34438  19.020  28.069   3.930
69619W        W34439  16.854  42.268  11.097
69620W        W34440  40.705  33.993   2.718
69621W        W34441  33.327   7.570   1.941
69622W        W34442   0.845  27.975  10.706
69623W        W34443   9.860  16.833  14.976
69624W        W34444   6.393  41.392   1.745
69625W        W34445  33.174  19.511   4.153
69626W        W34446  39.799  43.969  12.496
69627W        W34447  11.765   0.731  14.446
69628W        W34448  38.786  22.178  12.588
69629W        W34449  25.635   9.316  13.059
69630W        W34450   9.551  44.430  12.213
69631W        W34451  16.755  16.307   2.838
69632W        W34452  32.306  28.497   5.778
69633W        W34453  35.946  35.782   4.819
69634W        W34454  16.890  10.172  10.022
69635W        W34455  17.354   1.428  11.924
69636W        W34456  37.072  36.936   2.358
69637W        W34457  30.928  35.063   0.308
69638W        W34458   6.273  34.404  14.883
69639W        W34459  14.969  39.495  10.159
69640W        W34460   6.702  21.591   4.346
69641W        W34461   0.640  22.499  14.915
69642W        W34462  24.019  14.347  14.985
69643W        W34463  22.145  27.682  12.546
69644W        W34464  14.789   1.381   4.471
69645W        W34465  25.146  18.276  11.100
69646W        W34466  40.371   9.293   1.470
69647W        W34467  14.336  27.068  11.618
69648W        W34468  40.557  21.058  11.148
69649W        W34469  34.816  42.629  11.725
69650W        W34470  30.360  22.982  10.714
69651W        W34471  26.597  32.823  10.396
69652W        W34472  17.570  28.418   9.881
69653W        W34473  12.774  24.090  13.479
69654W        W34474  16.177  33.073   2.967
69655W        W34475  33.873  33.912   3.201
69656W        W34476  17.245  35.030  14.874
69657W        W34477  33.136  42.027   1.147
69658W        W34478   6.904  13.841  14.060
69659W        W34479  15.250  20.503   1.408
69660W        W34480  31.890  15.697   1.855
69661W        W34481  36.517   2.362  11.923
69662W        W34482  26.179  16.564  10.390
69663W        W34483  37.157  30.560  13.936
69664W        W34484  38.262  25.111   3.766
69665W        W34485  20.232  33.106   0.833
69666W        W34486  27.518  28.392  11.085
69667W        W34487  17.054   8.363   0.777
69668W        W34488  19.278  31.750   3.492
69669W        W34489  38.898  21.295  12.575
69670W        W34490  32.522  38.579  13.232
69671W        W34491  35.513  39.734  12.937
69672W        W34492  16.271  18.742   2.162
69673W        W34493  27.913  37.510   2.866
69674W        W34494   6.718  28.045  10.561
69675W        W34495  32.118  35.546   1.507
69676W        W34496  24.422  42.603   4.631
69677W        W34497  13.328   0.690   4.962
69678W        W34498  35.577  35.088  12.474
69679W        W34499  24.693  13.715  13.503
69680W        W34500  10.645   5.227  12.981
69681W        W34501  35.413   7.471  14.043
69682W        W34502   8.744   3.929   2.579
69683W        W34503  22.189  20.137  13.953
69684W        W34504  30.870  13.784  12.606
69685W        W34505  35.495  32.966  12.834
69686W        W34506  23.384  15.320  12.191
69687W        W34507  36.153  26.614  13.961
69688W        W34508  14.782  26.084  10.679
69689W        W34509  38.562  36.105   2.337
69690W        W34510  35.877  36.954  13.409
69691W        W34511  30.433   5.554   1.263
69692W        W34512  35.504  26.778   1.795
69693W        W34513  29.505  21.564  11.997
69694W        W34514  41.654   4.378   3.812
69695W        W34515  10.309  42.999   3.691
69696W        W34516  29.630  21.576   2.255
69697W        W34517  20.494  11.678   0.324
69698W        W34518  13.385  42.118  14.800
69699W        W34519  27.471  37.740  12.881
69700W        W34520   1.966  35.831  13.649
69701W        W34521   8.711  19.575   4.973
69702W        W34522   9.794  41.066   2.849
69703W        W34523  18.282  12.834  14.956
69704W        W34524  25.976  35.764   3.333
69705W        W34525  14.641  23.506  14.317
69706W        W34526   4.167  15.278   3.495
69707W        W34527  10.512  26.482  12.898
69708W        W34528  11.910  35.342   0.364
69709W        W34529  23.898  12.596   0.428
69710W        W34530  34.298  30.150  11.210
69711W        W34531   3.841  12.042   1.772
69712W        W34532  17.237  22.742  12.531
69713W        W34533   2.403  35.496   4.031
69714W        W34534  32.440  33.989   1.092
69715W        W34535  23.468  19.553  12.625
69716W        W34536  35.677  33.643   0.092
69717W        W34537  24.601  23.594  12.661
69718W        W34538  21.120   8.459  12.466
69719W        W34539  18.358  16.318  12.167
69720W        W34540  24.764  30.386   3.931
69721W        W34541  42.541  35.626   2.289
69722W        W34542  22.469   6.535  13.911
69723W        W34543   5.419  35.407  11.830
69724W        W34544  39.676  11.859   4.177
69725W        W34545  40.767  29.613  11.208
69726W        W34546  17.097  28.894  14.914
69727W        W34547   7.428  14.147  11.649
69728W        W34548  20.522  24.954   1.839
69729W        W34549  30.545  24.726  13.030
69730W        W34550  13.233   9.604  13.566
69731W        W34551   7.585  18.431   4.134
69732W        W34552  44.796  18.776   4.210
69733W        W34553  28.329   1.779  13.275
69734W        W34554  22.140   8.395  13.919
69735W        W34555  26.009  14.629  13.547
69736W        W34556   8.258  31.211   4.370
69737W        W34557  28.073   3.266   4.527
69738W        W34558  18.990   3.994   2.398
69739W        W34559   7.449  17.735  13.947
69740W        W34560  13.623  30.170  13.052
69741W        W34561  43.677  17.673  14.333
69742W        W34562  40.048  21.034  11.103
69743W        W34563  44.212  22.732  14.882
69744W        W34564   8.875  10.348  13.758
69745W        W34565  44.549   2.637  11.229
69746W        W34566  10.609   1.368  11.210
69747W        W34567   4.412  42.082  13.046
69748W        W34568  32.955  33.930   3.294
69749W        W34569  37.993  25.751   4.120
69750W        W34570  41.797   5.239   4.022
69751W        W34571  14.716  26.251   2.982
69752W        W34572   9.158  17.613   3.715
69753W        W34573  25.549  26.848  12.039
69754W        W34574  40.944  14.390  13.493
69755W        W34575   3.926  41.075  13.996
69756W        W34576  16.798   4.923  13.553
69757W        W34577   6.688  31.470   4.105
69758W        W34578  15.251  14.650  12.585
69759W        W34579  16.221  33.029   3.472
69760W        W34580   9.829  16.636  14.094
69761W        W34581  32.623  19.033   0.088
69762W        W34582  23.314  34.434  11.234
69763W        W34583   6.454  41.650   4.501
69764W        W34584  13.412   5.330   3.687
69765W        W34585  40.453   5.990  12.808
69766W        W34586  40.320  25.005  12.339
69767W        W34587  27.316  33.710   5.393
69768W        W34588  43.512  17.706   1.182
69769W        W34589  32.134  14.705   3.800
69770W        W34590   4.400  25.658  10.939
69771W        W34591  38.155  21.572  13.871
69772W        W34592  23.970  32.912   4.188
69773W        W34593  29.064  20.993   3.582
69774W        W34594  39.334  13.291   2.562
69775W        W34595  18.689   1.742   4.269
69776W        W34596  18.524  27.611   1.744
69777W        W34597   4.995   3.863  13.868
69778W        W34598  29.957  15.560  13.486
69779W        W34599  38.628  38.555  13.046
69780W        W34600   2.442  27.129   1.782
69781W        W34601  18.802  28.200  13.587
69782W        W34602   5.673  41.938   4.148
69783W        W34603  39.274  38.502  14.832
69784W        W34604  15.743   2.858  13.500
69785W        W34605  21.221   9.879  13.610
69786W        W34606  22.262  17.314   0.388
69787W        W34607  44.306  26.014  14.767
69788W        W34608  37.657  28.011  12.593
69789W        W34609  28.688   9.656  12.615
69790W        W34610  32.827   7.212  11.207
69791W        W34611  21.331   0.771   4.602
69792W        W34612  19.759  36.955   1.005
69793W        W34613  14.355  19.737  10.805
69794W        W34614  21.354  24.172   3.720
69795W        W34615  30.500   8.911   3.638
69796W        W34616  43.497   1.226   0.593
69797W        W34617   2.283  39.275   1.119
69798W        W34618  40.893  23.635   4.901
69799W        W34619  16.029   9.632   0.553
69800W        W34620  42.267  42.904  12.032
69801W        W34621  44.188  11.329  10.093
69802W        W34622   4.063  16.320   0.597
69803W        W34623  36.319  29.194   3.706
69804W        W34624  16.622  40.740  11.130
69805W        W34625  27.708  40.374   3.747
69806W        W34626   2.622   8.220  14.384
69807W        W34627   8.451   4.684   3.116
69808W        W34628   2.900  34.018  10.921
69809W        W34629  27.162  23.673  13.912
69810W        W34630  29.687  12.655  12.459
69811W        W34631  32.860  21.047  13.107
69812W        W34632   5.470  35.943   4.638
69813W        W34633  16.127   7.130  14.651
69814W        W34634   0.069  33.202  14.512
69815W        W34635   3.495  25.572  12.887
69816W        W34636   3.260  13.705  12.030
69817W        W34637  22.251  17.089   4.212
69818W        W34638  19.688  33.560  14.408
69819W        W34639  40.998  26.448  14.721
69820W        W34640   1.279  10.245  11.830
69821W        W34641   0.715   5.852  10.553
69822W        W34642  18.295   4.340  10.839
69823W        W34643   0.667  16.754   4.588
69824W        W34644  31.487  20.531  13.174
69825W        W34645  19.190  39.559   4.168
69826W        W34646  41.921  12.974   0.669
69827W        W34647  25.649  39.589  13.839
69828W        W34648   8.458  11.036   1.960
69829W        W34649   9.407  27.190   2.572
69830W        W34650  30.398  10.123  10.534
69831W        W34651  44.066   2.880  14.535
69832W        W34652  22.237   3.175   4.921
69833W        W34653  16.903   4.792  14.053
69834W        W34654  35.975   1.755  11.528
69835W        W34655  31.462  36.309  12.962
69836W        W34656   5.327  12.350   1.263
69837W        W34657  10.024   1.367   1.879
69838W        W34658   9.370  10.178  13.762
69839W        W34659   2.948   8.738   3.351
69840W        W34660  38.789  36.667  10.940
69841W        W34661   7.332  28.061   4.181
69842W        W34662  42.009   8.733  13.497
69843W        W34663  41.200  19.754   3.993
69844W        W34664  26.219  11.956  11.048
69845W        W34665   0.802  20.868  14.811
69846W        W34666   9.038  15.605  13.524
69847W        W34667   2.970  10.746  10.931
69848W        W34668  13.817  39.602  14.749
69849W        W34669  21.954  29.595   0.299
69850W        W34670  37.050   4.731   4.713
69851W        W34671   3.725  23.685   0.579
69852W        W34672  10.376  15.747  13.916
69853W        W34673  32.037  43.258   4.181
69854W        W34674   0.319  14.631   0.372
69855W        W34675   5.716  11.275  12.185
69856W        W34676  29.513   5.753  11.631
69857W        W34677   8.813   7.936  13.578
69858W        W34678  21.750  11.198   2.385
69859W        W34679   6.920   8.481  14.948
69860W        W34680  24.174  43.887  11.483
69861W        W34681  38.748  42.497  13.067
69862W        W34682   0.031  32.724   4.713
69863W        W34683   1.310  35.238  12.454
69864W        W34684  22.113  25.322  11.124
69865W        W34685  43.470  24.665   2.872
69866W        W34686  36.593  26.609  10.311
69867W        W34687   7.684  23.680  12.519
69868W        W34688  22.276  41.083   2.890
69869W        W34689  18.090  26.784   2.264
69870W        W34690  23.485  37.027   0.408
69871W        W34691  27.959  34.039   2.850
69872W        W34692  29.916  38.106  11.028
69873W        W34693  10.853  10.652  12.481
69874W        W34694  20.270  14.716  10.970
69875W        W34695   9.441  39.592   0.917
69876W        W34696  22.664   2.899  13.052
69877W        W34697   8.423  34.519   1.765
69878W        W34698  30.063  29.119   4.712
69879W        W34699  38.106  43.358   0.379
69880W        W34700  12.824  11.108   2.760
69881W        W34701  43.981  29.649  14.999
69882W        W34702  30.439  23.157  12.062
69883W        W34703   3.084  28.574  14.047
69884W        W34704   2.377   6.392  10.648
69885W        W34705  43.227   6.240   2.443
69886W        W34706  37.283  22.260   3.672
69887W        W34707  40.651  37.407   2.120
69888W        W34708  13.646   4.188   0.346
69889W        W34709  36.425  37.864  12.395
69890W        W34710  31.421  21.523   2.618
69891W        W34711  21.351  12.659  10.616
69892W        W34712  20.852   8.751  11.123
69893W        W34713  13.623  21.579  12.844
69894W        W34714  37.033  15.216   0.442
69895W        W34715   9.311  27.691   0.859
69896W        W34716  42.356  21.100  11.973
69897W        W34717  37.270  13.599   0.655
69898W        W34718   6.234  17.836   0.952
69899W        W34719  30.939  20.531  13.759
69900W        W34720  11.598  35.594   4.562
69901W        W34721  10.629  29.809   5.316
69902W        W34722  20.155  44.436  11.309
69903W        W34723   4.769  27.635   4.092
69904W        W34724  18.611  37.158  11.037
69905W        W34725  11.149  18.352   3.444
69906W        W34726   4.258  10.678  11.645
69907W        W34727  35.843  24.461   0.727
69908W        W34728  12.378  43.548  12.423
69909W        W34729  24.061  34.344   1.304
69910W        W34730  18.606  32.577  14.449
69911W        W34731  18.100  31.510  13.885
69912W        W34732  42.860  18.906  12.045
69913W        W34733   6.320  28.742   1.394
69914W        W34734  27.365   0.079  12.341
69915W        W34735   9.206  19.766   1.384
69916W        W34736  31.124  40.199   2.650
69917W        W34737  22.728   6.187   2.768
69918W        W34738  10.276  24.448  10.594
69919W        W34739  16.780  30.164  14.436
69920W        W34740  18.340  27.385   3.424
69921W        W34741   5.020  19.624  12.527
69922W        W34742  25.936  37.374   1.321
69923W        W34743  13.884  42.338  14.572
69924W        W34744   8.265  28.447   0.376
69925W        W34745  37.410   0.494  12.544
69926W        W34746  12.133  10.628  11.349
69927W        W34747  37.877   0.726  14.028
69928W        W34748  36.285  24.190   2.741
69929W        W34749  31.463  24.948   3.083
69930W        W34750  19.489  33.999  11.151
69931W        W34751  38.355  41.166   1.011
69932W        W34752  40.515  40.341   1.751
69933W        W34753  16.702  30.809  10.239
69934W        W34754  10.600  36.071  14.450
69935W        W34755  39.404  24.624   3.337
69936W        W34756  43.240   0.972   0.207
69937W        W34757  13.013   1.450   0.391
69938W        W34758   0.780  20.692  10.507
69939W        W34759  17.137  36.534  12.898
69940W        W34760  38.943   7.263  14.343
69941W        W34761  34.089  29.445  12.895
69942W        W34762  25.272  25.534   5.077
69943W        W34763   3.491  18.591  14.301
69944W        W34764  25.351  10.129  14.156
69945W        W34765  40.077  35.942  12.849
69946W        W34766  42.583  42.892   2.807
69947W        W34767  13.049   7.718   4.878
69948W        W34768   5.897   1.629   2.784
69949W        W34769   6.939  14.506   2.379
69950W        W34770  24.146  13.879  10.703
69951W        W34771  26.202   9.142   4.005
69952W        W34772   9.633  31.644   3.305
69953W        W34773  13.116  34.812   2.233
69954W        W34774  25.481  10.757   4.044
69955W        W34775  29.188   3.767   0.236
69956W        W34776  43.451  41.899  13.651
69957W        W34777  14.177  13.282  10.643
69958W        W34778  27.182  35.225  14.361
69959W        W34779  25.124  37.353  11.624
69960W        W34780   2.266  41.649  14.334
69961W        W34781  26.173  27.515   3.545
69962W        W34782  25.266  43.399  11.478
69963W        W34783  25.525   0.157   2.182
69964W        W34784  15.528  35.592   4.073
69965W        W34785  14.562  38.299   3.353
69966W        W34786  43.797  12.905   1.319
69967W        W34787   3.384  43.192   2.773
69968W        W34788  31.598  31.867   3.150
69969W        W34789  28.915  15.689   1.363
69970W        W34790  11.702   2.933   4.083
69971W        W34791  28.620  28.653   2.014
69972W        W34792  35.907  38.666   1.314
69973W        W34793  19.149  23.479   4.488
69974W        W34794  16.012   4.459   3.609
69975W        W34795   5.717  28.598   3.674
69976W        W34796   0.594  44.968   1.941
69977W        W34797  15.699  39.785   3.183
69978W        W34798   1.867  19.101  11.138
69979W        W34799   1.651  18.957   2.799
69980W        W34800   8.399   7.703   0.294
69981W        W34801   9.351   9.096  11.948
69982W        W34802  33.083  28.257   4.205
69983W        W34803  11.809  14.761   3.158
69984W        W34804  32.583   6.811   1.154
69985W        W34805  41.056   2.599  13.933
69986W        W34806  29.026  39.393  12.649
69987W        W34807  36.627   1.874  10.772
69988W        W34808  41.040  12.797  10.865
69989W        W34809   2.807  25.759   2.822
69990W        W34810  42.564  24.723   3.321
69991W        W34811   3.800  42.019   3.157
69992W        W34812  24.455  44.091  10.668
69993W        W34813   7.511  35.015  14.187
69994W        W34814  36.876   5.397  13.083
69995W        W34815  19.990  27.968   0.056
69996W        W34816  37.534  18.712   3.217
69997W        W34817  42.655  33.519   4.353
69998W        W34818   4.968  10.158  12.608
69999W        W34819  23.084  37.946  14.242
70000W        W34820  25.691  31.609   4.538
70001W        W34821  10.336   6.890   3.622
70002W        W34822  15.267  27.246   2.681
70003W        W34823   0.618  16.100  11.385
70004W        W34824  29.411  18.136   0.573
70005W        W34825  28.726  28.169  12.460
70006W        W34826  21.618   4.851   1.611
70007W        W34827  21.261  17.589  12.569
70008W        W34828  13.305  38.438  12.400
70009W        W34829   5.899  28.701   3.168
70010W        W34830  19.580  26.050   1.002
70011W        W34831  33.758   5.444   2.231
70012W        W34832  10.653  26.718  11.410
70013W        W34833   8.010  18.049   2.928
70014W        W34834  12.019  36.125   3.903
70015W        W34835  26.986  18.590   2.837
70016W        W34836  34.358  13.166  14.107
70017W        W34837  38.041   4.471   1.400
70018W        W34838  20.254  13.703   1.762
70019W        W34839  38.884  18.940  10.508
70020W        W34840  37.468  33.358  14.828
70021W        W34841  25.907   3.000  10.511
70022W        W34842   6.395   5.573  12.394
70023W        W34843   7.198  19.051   2.247
70024W        W34844  30.961  11.707  13.372
70025W        W34845  40.426   0.050   1.704
70026W        W34846  19.070  24.687   4.261
70027W        W34847  26.146   8.750  11.658
70028W        W34848  15.633  20.215   0.581
70029W        W34849  31.622  32.846   2.319
70030W        W34850   5.164  17.834   1.795
70031W        W34851  15.688  38.328  10.784
70032W        W34852  20.826  14.097  14.011
70033W        W34853   6.563   9.839  10.760
70034W        W34854  43.873  17.184   1.618
70035W        W34855  41.440  10.033   1.367
70036W        W34856   1.757   3.184   4.647
70037W        W34857  21.069  30.253   4.931
70038W        W34858  21.571  10.137   0.342
70039W        W34859   5.031  33.192  12.628
70040W        W34860  33.621   1.952  14.731
70041W        W34861  38.275   1.668   3.326
70042W        W34862   2.303  29.254   4.566
70043W        W34863  43.697  13.383   1.604
70044W        W34864  33.549  27.012  12.999
70045W        W34865  10.244  32.385  10.697
70046W        W34866  34.324  25.772   0.881
70047W        W34867   6.187  23.689  14.971
70048W        W34868   7.022  35.178   4.937
70049W        W34869   3.742  43.918   3.736
70050W        W34870  13.640   0.302   0.817
70051W        W34871  28.908  40.532   0.342
70052W        W34872  36.427  24.060   1.601
70053W        W34873   3.246  16.335  14.786
70054W        W34874  22.003  23.423   2.377
70055W        W34875  16.155  30.796  11.931
70056W        W34876  30.188  17.385  12.603
70057W        W34877  37.536  42.572   0.519
70058W        W34878   6.714   7.198  14.396
70059W        W34879  42.774   6.292   0.767
70060W        W34880   3.420  21.119   2.885
70061W        W34881  22.283  42.019  12.532
70062W        W34882   8.763  13.166  14.444
70063W        W34883   8.951  30.588  13.974
70064W        W34884  31.934   7.929  14.421
70065W        W34885  14.094   8.449  14.574
70066W        W34886  36.867  35.322   4.812
70067W        W34887  41.362  39.404   3.664
70068W        W34888  24.078  39.555   3.270
70069W        W34889  10.437  13.477  14.812
70070W        W34890   7.347   0.293   2.514
70071W        W34891  19.718  17.698   4.197
70072W        W34892  35.704  39.618   1.451
70073W        W34893   2.147  28.015   3.968
70074W        W34894  20.031  27.657  13.842
70075W        W34895  26.198  19.036  13.286
70076W        W34896   1.933  17.750   4.498
70077W        W34897  32.465  36.748   4.223
70078W        W34898  18.039  27.572  14.913
70079W        W34899   4.729  32.111  13.855
70080W        W34900  33.568  20.769  11.543
70081W        W34901  21.073  40.067  10.252
70082W        W34902  32.657  25.191  13.776
70083W        W34903  12.270  44.890  13.288
70084W        W34904  15.578  36.985   0.484
70085W        W34905   5.926  23.326   3.628
70086W        W34906  11.343   3.520   4.131
70087W        W34907  29.886  16.187   4.930
70088W        W34908   1.302   7.997  12.531
70089W        W34909   4.258  11.790  14.455
70090W        W34910   8.336  27.596   3.209
70091W        W34911  30.669  30.091  14.988
70092W        W34912   9.869  37.331  13.138
70093W        W34913  16.869  38.980  13.968
70094W        W34914  19.185  38.388  12.962
70095W        W34915  15.652  40.242  10.096
70096W        W34916  35.873  42.094  12.860
70097W        W34917  42.988   8.717  13.469
70098W        W34918  13.098   6.956  12.521
70099W        W34919  40.796   3.980   1.420
70100W        W34920  13.494   8.332  11.568
70101W        W34921   0.224   9.269  13.018
70102W        W34922  15.785  29.084  11.910
70103W        W34923  29.583  43.388  10.740
70104W        W34924  36.373  38.516  13.727
70105W        W34925  18.512  22.138  11.990
70106W        W34926  15.575   0.795   3.411
70107W        W34927  15.147  41.043  11.984
70108W        W34928  22.764  27.933  12.707
70109W        W34929  27.516  30.048  12.061
70110W        W34930  44.449  28.100  13.783
70111W        W34931  16.567  44.348   4.761
70112W        W34932  23.045  14.121  11.329
70113W        W34933  34.858   3.239   2.216
70114W        W34934  12.605  44.281   2.116
70115W        W34935  28.057   0.812  12.578
70116W        W34936  15.094  28.935   0.881
70117W        W34937  11.051  33.034  13.912
70118W        W34938  32.361  11.866   0.666
70119W        W34939  29.466  44.489   4.587
70120W        W34940  14.233  13.639   0.243
70121W        W34941   4.974   3.773   3.206
70122W        W34942  14.388  24.902   0.746
70123W        W34943   0.729   3.448  11.578
70124W        W34944  32.090  37.726   4.099
70125W        W34945   3.181  41.930  12.609
70126W        W34946  37.128  21.253  11.170
70127W        W34947  17.620  37.529  14.385
70128W        W34948  31.183  24.444   1.406
70129W        W34949  26.574  36.161   1.319
70130W        W34950   7.171  25.132  12.865
70131W        W34951   3.839  35.202  10.720
70132W        W34952  41.327   3.181  10.785
70133W        W34953  19.123   7.702  12.393
70134W        W34954  37.540  39.657  13.902
70135W        W34955  21.981  22.504  13.863
70136W        W34956  30.919  10.948   3.501
70137W        W34957   9.871   5.769  14.774
70138W        W34958  40.315   1.352   4.476
70139W        W34959   9.277  37.317  14.315
70140W        W34960  17.656  11.282  11.363
70141W        W34961  19.553  12.214   1.396
70142W        W34962  43.400   8.624  12.097
70143W        W34963  15.180  34.103  10.445
70144W        W34964  36.901  44.312   3.327
70145W        W34965  20.307   7.840   3.118
70146W        W34966  29.560   3.475   4.696
70147W        W34967  18.941  15.606   4.020
70148W        W34968  38.604  39.389  10.673
70149W        W34969  25.888  38.688   3.725
70150W        W34970  17.316  35.367   3.237
70151W        W34971  20.265  40.773  11.752
70152W        W34972  22.833  30.671  10.213
70153W        W34973  35.927  32.748  14.863
70154W        W34974   7.817  17.621  14.735
70155W        W34975  34.810  15.122   2.051
70156W        W34976  42.300  17.929  11.059
70157W        W34977  31.151   2.880  12.535
70158W        W34978  25.618   9.721  13.923
70159W        W34979  16.129  25.181  13.496
70160W        W34980  42.930  40.098   2.661
70161W        W34981  25.165  12.341  13.955
70162W        W34982  33.941  12.821  14.125
70163W        W34983  30.731  27.134   2.234
70164W        W34984   0.395  19.207   2.279
70165W        W34985  34.321  23.571   0.790
70166W        W34986  17.238  38.317   1.473
70167W        W34987   5.454  22.921  12.509
70168W        W34988   2.013  41.447   3.528
70169W        W34989  14.418  15.653   3.297
70170W        W34990  39.993  42.801  10.800
70171W        W34991  16.732  21.502  11.496
70172W        W34992  14.428  28.900   1.742
70173W        W34993  23.077  17.578   1.408
70174W        W34994   0.275  22.013   1.747
70175W        W34995   8.858  43.779  12.006
70176W        W34996  24.782  10.595   2.158
70177W        W34997  12.748  21.297   1.849
70178W        W34998  43.815  10.362  10.401
70179W        W34999  24.668  37.516  12.858
70180W        W35000  32.520  34.539  10.638
70181W        W35001  35.497  16.728   2.570
70182W        W35002  21.999   1.259  12.754
70183W        W35003  13.462  20.489  13.901
70184W        W35004   6.739   5.918  14.688
70185W        W35005  21.272   8.377  14.019
70186W        W35006  31.853  39.500   2.182
70187W        W35007  22.283  13.623   1.286
70188W        W35008  19.615  23.084   1.326
70189W        W35009  44.271  44.169   2.757
70190W        W35010  24.162  33.096  12.930
70191W        W35011   8.707  27.785  12.195
70192W        W35012  16.603  10.196   0.310
70193W        W35013  39.715   2.353  14.378
70194W        W35014   9.348  31.199   0.400
70195W        W35015  16.587   8.897   0.697
70196W        W35016  41.788   7.723   4.391
70197W        W35017  24.323  33.515   3.733
70198W        W35018  17.580  22.536   2.866
70199W        W35019  11.785  27.054  10.971
70200W        W35020   8.699  15.733   0.401
70201W        W35021  27.978   4.033   1.226
70202W        W35022  35.579  30.388  11.405
70203W        W35023   3.822  42.481   3.413
70204W        W35024  16.649  40.459   1.724
70205W        W35025  11.120  10.634   0.182
70206W        W35026  17.001  12.186  11.610
70207W        W35027   0.024  11.603  11.980
70208W        W35028   6.902  15.200   2.378
70209W        W35029  27.204  44.177   4.845
70210W        W35030  16.113  30.544   2.800
70211W        W35031  42.983  12.685   0.211
70212W        W35032   3.701   5.306   2.196
70213W        W35033   1.950  16.362  14.377
70214W        W35034  12.390  20.123  11.172
70215W        W35035  26.209  37.880   3.097
70216W        W35036  29.138  31.149   1.374
70217W        W35037  36.934  44.737  11.621
70218W        W35038  36.664  42.820   0.438
70219W        W35039   5.458  22.080   4.601
70220W        W35040  38.575  13.180   3.160
70221W        W35041  22.493  10.387   2.335
70222W        W35042  12.779  18.553  12.827
70223W        W35043  23.470   3.989  13.453
70224W        W35044  14.431  21.598   3.242
70225W        W35045  39.351  14.420   0.848
70226W        W35046   7.336   9.695   0.795
70227W        W35047   7.340  31.446  13.299
70228W        W35048   6.118  31.374   3.454
70229W        W35049  26.944   7.266   1.199
70230W        W35050  13.628  43.756   0.464
70231W        W35051  25.492  23.101   1.299
70232W        W35052  30.989   8.071   4.232
70233W        W35053  10.392  24.892  12.090
70234W        W35054  35.510  22.936  13.988
70235W        W35055  29.783  27.086   0.747
70236W        W35056   5.821   9.678   4.651
70237W        W35057  24.229  41.267   2.179
70238W        W35058  31.168  28.073  13.918
70239W        W35059   0.747   5.695  11.044
70240W        W35060   8.837  16.174  14.367
70241W        W35061  32.130  23.093  14.240
70242W        W35062  28.217  43.938   3.364
70243W        W35063  13.857  24.013  12.506
70244W        W35064   0.308  30.529  13.451
70245W        W35065  23.898  28.847   1.671
70246W        W35066  13.828  14.350   1.315
70247W        W35067  25.384   4.971   2.446
70248W        W35068  20.306  36.002  13.681
70249W        W35069  26.438  23.042   4.119
70250W        W35070  10.726  11.573  14.421
70251W        W35071   9.171   9.629   3.280
70252W        W35072  11.679  40.032   3.224
70253W        W35073  36.850  32.047   2.614
70254W        W35074  11.892   4.709   3.689
70255W        W35075  33.953  37.335   1.319
70256W        W35076  24.756  39.504  12.942
70257W        W35077  15.157  26.670   1.409
70258W        W35078  10.639  24.683  13.350
70259W        W35079   8.660  27.136   0.272
70260W        W35080  19.011  12.758   0.937
70261W        W35081   5.474   1.457  11.510
70262W        W35082   7.643   8.285   2.373
70263W        W35083   9.004  40.336   1.193
70264W        W35084  27.039  14.828   3.391
70265W        W35085  13.454   5.993   1.442
70266W        W35086   7.179   8.415   3.235
70267W        W35087   1.199  24.793  14.931
70268W        W35088  24.771  29.124  13.852
70269W        W35089  21.519  32.212  14.133
70270W        W35090  15.144  25.730  10.779
70271W        W35091  39.036  33.162   3.753
70272W        W35092  25.532  16.295   3.829
70273W        W35093  27.920  18.227   1.281
70274W        W35094   0.387   5.930   1.198
70275W        W35095  17.257  14.600  14.490
70276W        W35096  32.054  34.004  14.321
70277W        W35097  42.911   9.821   3.363
70278W        W35098  19.953  21.705  14.228
70279W        W35099  14.854  12.719  10.601
70280W        W35100  34.007   9.759  14.801
70281W        W35101  13.387  40.257  11.356
70282W        W35102  35.127   1.437   1.793
70283W        W35103  26.467  16.804  13.068
70284W        W35104   0.037  14.737  11.875
70285W        W35105   3.349  17.195   2.756
70286W        W35106  21.723  39.311   0.835
70287W        W35107  17.491  39.953   4.989
70288W        W35108  35.016   5.760  10.684
70289W        W35109  26.554  11.334   4.142
70290W        W35110   9.886  21.212  12.985
70291W        W35111  41.906  25.183  12.534
70292W        W35112  27.053  33.219  13.197
70293W        W35113  27.198  44.914  14.541
70294W        W35114   5.806  24.158  10.689
70295W        W35115   4.794  31.684   4.072
70296W        W35116  39.070  36.012   0.897
70297W        W35117   8.626  16.041   4.126
70298W        W35118  16.765  23.400   0.300
70299W        W35119  25.828  36.587  14.200
70300W        W35120   0.395  20.650   3.967
70301W        W35121   5.853   8.281   0.949
70302W        W35122  14.550  32.408  12.392
70303W        W35123  37.707  24.127  14.776
70304W        W35124   3.795  12.052   2.686
70305W        W35125   8.943   1.517  14.810
70306W        W35126  28.220  14.746   2.255
70307W        W35127  28.935   6.414  14.084
70308W        W35128   8.742  32.237  13.459
70309W        W35129  42.060  31.191  11.095
70310W        W35130  22.471  32.031  13.880
70311W        W35131   6.363  32.440  13.804
70312W        W35132  43.598  22.034  11.641
70313W        W35133  23.314  27.182   2.370
70314W        W35134   3.381  15.838  14.562
70315W        W35135  31.164  43.834   3.642
70316W        W35136  29.162   4.631   1.910
70317W        W35137  23.758  37.461   0.339
70318W        W35138  12.966  37.122   0.424
70319W        W35139  40.602  34.029   3.237
70320W        W35140  31.576  42.946  11.008
70321W        W35141  21.182   1.888  11.604
70322W        W35142   4.715  17.211   3.092
70323W        W35143  22.559   3.511   3.695
70324W        W35144  42.389  13.458   2.839
70325W        W35145  28.509   1.350  11.167
70326W        W35146   8.916   8.768  11.991
70327W        W35147  16.259  10.562  13.927
70328W        W35148  22.075  12.620   4.765
70329W        W35149  18.009  31.001  13.960
70330W        W35150  42.871  16.096   4.360
70331W        W35151   7.471  25.696   3.200
70332W        W35152  26.604  19.930  14.577
70333W        W35153  31.090  27.232   3.830
70334W        W35154  10.140   3.329  11.311
70335W        W35155  13.297  24.741   0.334
70336W        W35156  23.937  40.352   2.159
70337W        W35157  17.691  11.432  12.887
70338W        W35158   8.844  29.007   5.036
70339W        W35159  30.527   7.342   1.806
70340W        W35160  40.048  42.573  13.964
70341W        W35161  44.873  25.867   4.145
70342W        W35162  37.367   7.930   2.207
70343W        W35163  19.276   2.916  12.408
70344W        W35164  35.378   4.205  13.902
70345W        W35165  16.073  16.761  10.874
70346W        W35166  20.494  15.631  12.787
70347W        W35167   6.916  37.590  13.008
70348W        W35168   6.433  33.584  13.087
70349W        W35169  12.547  12.950  13.401
70350W        W35170  34.161  31.315   2.637
70351W        W35171  10.628  32.711  13.326
70352W        W35172  13.056  21.649   3.685
70353W        W35173  17.336  12.257   4.877
70354W        W35174  25.407  29.392   1.690
70355W        W35175  35.851  21.074  10.979
70356W        W35176  16.624   3.514  14.407
70357W        W35177  28.989  41.355  14.332
70358W        W35178  23.633  32.336   3.758
70359W        W35179  36.964  19.803  10.700
70360W        W35180  18.759  19.956   3.375
70361W        W35181  11.772  18.687   4.287
70362W        W35182  43.015  31.884  12.362
70363W        W35183  42.253  32.211  14.481
70364W        W35184   6.427  31.459  14.895
70365W        W35185  19.481  10.287  13.459
70366W        W35186  41.747  20.789   2.817
70367W        W35187  16.145  28.987   2.248
70368W        W35188  24.487  29.661  10.688
70369W        W35189  18.839  16.170  12.144
70370W        W35190  28.425   1.755  13.788
70371W        W35191  31.567  23.817   1.041
70372W        W35192   3.975  18.727  11.057
70373W        W35193  15.114  10.216   0.272
70374W        W35194  21.973   2.009   0.893
70375W        W35195  16.229  15.759   4.392
70376W        W35196  36.826  17.369  11.206
70377W        W35197  32.437  13.239  14.382
70378W        W35198   1.977   1.456   0.823
70379W        W35199  19.468  35.554  14.561
70380W        W35200  39.330  32.689  10.769
70381W        W35201  20.593  28.861   2.127
70382W        W35202  14.194   2.347   0.470
70383W        W35203   9.148  19.395   5.198
70384W        W35204  28.215  26.059   3.727
70385W        W35205  29.177  32.760  14.799
70386W        W35206  37.002  28.400  10.748
70387W        W35207  16.747  32.539  14.778
70388W        W35208  21.162  23.654  13.979
70389W        W35209  27.010   3.838  14.401
70390W        W35210  25.563  23.602   4.168
70391W        W35211   4.921  27.837  12.548
70392W        W35212  34.109  10.604  11.026
70393W        W35213   4.872   9.490   1.808
70394W        W35214  43.741  22.247   3.798
70395W        W35215  26.200  28.604   0.932
70396W        W35216  39.472  24.110   3.579
70397W        W35217   6.862  29.279   1.726
70398W        W35218  31.415  12.928   3.134
70399W        W35219   1.609  13.824   0.073
70400W        W35220  28.159   9.362   4.631
70401W        W35221  37.376  27.159   1.856
70402W        W35222  15.185  35.769   1.436
70403W        W35223  36.113  10.036   0.478
70404W        W35224  16.057  13.959  12.103
70405W        W35225  35.647   5.922   2.760
70406W        W35226  32.654  25.879   4.669
70407W        W35227   3.477  11.496  14.196
70408W        W35228  14.769  31.505   1.231
70409W        W35229  22.136  25.430   3.779
70410W        W35230  20.192  39.783  14.491
70411W        W35231   4.368  27.607  13.979
70412W        W35232  37.429  30.654   1.280
70413W        W35233  18.847   5.134  12.108
70414W        W35234   2.284  42.410  12.593
70415W        W35235   1.187  12.265   2.671
70416W        W35236  36.830   0.831  13.073
70417W        W35237  25.294  35.523   2.074
70418W        W35238   1.373  40.086  10.925
70419W        W35239  12.784  20.803  10.704
70420W        W35240  34.589  22.677   2.137
70421W        W35241  32.932  22.959   4.559
70422W        W35242   6.265  18.092  11.192
70423W        W35243  42.083  41.418  14.350
70424W        W35244  25.783  21.696  14.497
70425W        W35245  44.959  40.031  13.837
70426W        W35246  13.788  34.221   4.486
70427W        W35247  24.561   4.802  10.411
70428W        W35248  33.968  35.625   2.723
70429W        W35249  20.467  26.748   0.707
70430W        W35250   3.323  38.097  13.349
70431W        W35251   6.696  26.458  14.521
70432W        W35252  32.633  20.361   3.268
70433W        W35253  34.685  14.745   0.898
70434W        W35254  23.598  36.337   3.303
70435W        W35255  32.580  18.189   0.376
70436W        W35256  42.410  41.473   1.211
70437W        W35257  13.035  33.975   0.433
70438W        W35258  24.064  39.301   4.309
70439W        W35259  29.881  29.482  13.100
70440W        W35260   9.763  12.931   4.978
70441W        W35261  18.508   9.133  12.080
70442W        W35262  20.752  44.572   2.177
70443W        W35263   3.050  31.123   0.553
70444W        W35264   8.700   6.231  10.879
70445W        W35265  38.678  35.667   4.335
70446W        W35266  12.530  13.064  11.528
70447W        W35267   8.526  38.690  13.967
70448W        W35268  10.306  19.871  12.902
70449W        W35269  10.353  25.762   2.646
70450W        W35270  38.148   8.230  11.472
70451W        W35271  22.678  39.432   4.535
70452W        W35272   4.962  22.006   4.455
70453W        W35273  13.806  16.350  14.638
70454W        W35274  11.400  11.999  13.836
70455W        W35275  39.080  14.563   1.326
70456W        W35276  42.255   8.229  11.613
70457W        W35277  34.653  37.979  14.038
70458W        W35278   4.416  18.171   1.419
70459W        W35279   9.872   8.628   2.148
70460W        W35280  20.078  34.474   2.785
70461W        W35281  22.199  14.605   3.323
70462W        W35282  31.048  33.703  10.553
70463W        W35283   2.330  18.263  13.106
70464W        W35284   7.245  44.477  12.451
70465W        W35285  20.135  10.470   4.920
70466W        W35286  19.757  41.823  10.604
70467W        W35287  25.069  36.715  12.543
70468W        W35288  15.245  19.139   4.673
70469W        W35289   8.103  23.268  13.407
70470W        W35290  44.337  10.683   2.641
70471W        W35291  40.083  41.609  12.472
70472W        W35292  35.660  23.836  10.155
70473W        W35293  18.196  43.901  14.589
70474W        W35294  11.728  41.828   2.726
70475W        W35295  10.594  25.219  12.475
70476W        W35296   8.882  44.863  13.868
70477W        W35297  22.728  15.702  14.565
70478W        W35298  12.151   2.925  14.976
70479W        W35299  38.577  41.030   2.976
70480W        W35300  30.093  21.629  12.431
70481W        W35301  31.543  25.983  11.722
70482W        W35302  25.554  15.820  12.087
70483W        W35303  22.548  10.985   4.103
70484W        W35304   3.416   8.571   3.232
70485W        W35305   3.644  28.598   4.748
70486W        W35306  25.461   4.192  14.942
70487W        W35307  31.257   9.048   0.223
70488W        W35308  27.326  32.894   3.124
70489W        W35309   7.142  21.963  12.613
70490W        W35310  24.959  24.401  13.818
70491W        W35311  38.856  28.476  14.556
70492W        W35312  15.026  14.142   0.274
70493W        W35313   2.232  37.993  12.839
70494W        W35314  37.157  24.931   0.243
70495W        W35315  31.069   9.704  10.555
70496W        W35316  28.399  15.825   1.507
70497W        W35317  27.949  15.194  14.879
70498W        W35318   2.331   9.354   0.448
70499W        W35319  11.692  42.263  11.590
70500W        W35320  20.009  34.290   2.301
70501W        W35321  14.604   4.802  14.812
70502W        W35322  17.646   9.894   2.441
70503W        W35323  26.181   3.757  12.877
70504W        W35324  21.240  16.566   1.745
70505W        W35325  16.206  22.979   4.210
70506W        W35326  43.401  22.976   1.893
70507W        W35327  14.490  34.609   2.392
70508W        W35328  17.647  42.970  14.841
70509W        W35329  22.064  35.656  12.459
70510W        W35330   3.397  36.307  11.478
70511W        W35331   1.946  14.563   0.805
70512W        W35332  38.324  16.887  10.666
70513W        W35333  29.972   9.804  12.941
70514W        W35334   7.906   0.947  12.078
70515W        W35335  44.937  42.915   4.222
70516W        W35336  28.104  31.580   1.759
70517W        W35337  37.337  41.565  14.038
70518W        W35338  20.278  25.728  11.375
70519W        W35339  23.109  21.087  12.932
70520W        W35340  11.217   9.799  12.369
70521W        W35341   1.676  26.529  11.924
70522W        W35342   3.906   8.364   3.285
70523W        W35343  16.987  29.512   2.833
70524W        W35344  28.069  33.583   3.276
70525W        W35345  27.051  34.310   4.473
70526W        W35346  44.109  35.321   3.615
70527W        W35347  19.542  12.761   2.890
70528W        W35348   2.650  24.080   1.950
70529W        W35349   6.864  41.419   1.962
70530W        W35350  44.959  25.120   1.666
70531W        W35351   4.761   1.739   3.333
70532W        W35352  14.424   6.638   3.347
70533W        W35353  10.867  21.330  13.439
70534W        W35354  39.490  11.904   4.662
70535W        W35355  41.702  43.326   1.498
70536W        W35356  34.683  42.530   0.975
70537W        W35357   5.806   4.650   0.350
70538W        W35358  26.649  34.425   0.345
70539W        W35359  16.241  35.263   3.681
70540W        W35360   3.896   4.455  11.601
70541W        W35361   1.733  40.124  13.602
70542W        W35362  11.826  38.797  12.918
70543W        W35363  44.925  20.762   0.320
70544W        W35364  30.482  24.202  13.095
70545W        W35365  26.584  31.682   3.848
70546W        W35366   4.759  10.186   2.830
70547W        W35367  20.985  16.546  11.592
70548W        W35368  26.681  12.796   4.549
70549W        W35369  28.270  30.102  12.436
70550W        W35370  18.466  11.102  14.469
70551W        W35371  25.753  38.539  12.994
70552W        W35372  36.458  40.242   0.783
70553W        W35373  31.972   3.450   0.473
70554W        W35374   7.909  39.591   0.371
70555W        W35375  42.045  36.240  10.660
70556W        W35376   4.962  21.598  14.716
70557W        W35377  40.275  26.184   2.706
70558W        W35378  15.164  32.744  10.339
70559W        W35379  30.140   9.750  13.419
70560W        W35380   1.665  11.630  11.963
70561W        W35381  32.569  24.500  13.010
70562W        W35382  29.922  40.273   4.220
70563W        W35383  22.645  13.750   2.213
70564W        W35384   2.413  31.939  10.372
70565W        W35385  37.077  26.638  11.028
70566W        W35386   4.707   8.303   3.872
70567W        W35387  17.387  16.844   2.148
70568W        W35388  24.790  22.887  13.011
70569W        W35389  21.096  31.131  13.878
70570W        W35390  13.740  26.395  14.812
70571W        W35391   9.268  22.785  14.540
70572W        W35392  37.402  25.192  12.056
70573W        W35393  31.442  39.348  14.340
70574W        W35394  34.117  30.405   1.248
70575W        W35395  12.104  22.642  12.498
70576W        W35396  26.520   0.492  14.892
70577W        W35397   8.367  44.590  14.337
70578W        W35398   6.914  35.621   1.753
70579W        W35399  28.964   3.840  10.765
70580W        W35400  10.883  22.240   3.025
70581W        W35401   8.199  15.159   0.928
70582W        W35402  12.872   9.359  11.895
70583W        W35403  30.614  15.942   4.614
70584W        W35404  20.774  40.129  11.424
70585W        W35405   9.777   2.040  13.961
70586W        W35406  30.354  17.131  10.512
70587W        W35407  33.566  30.887   3.868
70588W        W35408  18.221  13.148  10.709
70589W        W35409  24.597   7.839  14.068
70590W        W35410  27.658   1.287   2.603
70591W        W35411  15.641  21.827   2.597
70592W        W35412  14.005  11.060   3.209
70593W        W35413  29.230  37.416  11.169
70594W        W35414  30.557   7.703  12.266
70595W        W35415   4.886  16.051  10.879
70596W        W35416  31.795  39.222  13.435
70597W        W35417   9.844  22.747   4.584
70598W        W35418   3.827  10.279  10.518
70599W        W35419  12.282  22.214  10.551
70600W        W35420   8.025  15.224  11.998
70601W        W35421  33.694  31.476   2.787
70602W        W35422  34.381  10.645  12.897
70603W        W35423  27.120  38.860   1.218
70604W        W35424  40.804  36.383   2.304
70605W        W35425   6.833  26.060  14.237
70606W        W35426  38.608  39.853   3.798
70607W        W35427  11.792  30.065   2.777
70608W        W35428  40.047  19.216   3.056
70609W        W35429  21.184  40.489   1.791
70610W        W35430  44.181  10.770   1.674
70611W        W35431  27.227  37.605   1.766
70612W        W35432   3.904   3.885  13.896
70613W        W35433   5.132  17.298   0.477
70614W        W35434  36.046  14.807   1.296
70615W        W35435  38.263  43.070   0.773
70616W        W35436   3.795   9.390   2.343
70617W        W35437  40.660  27.586   3.199
70618W        W35438  13.807  36.182  11.388
70619W        W35439   3.120  39.150   3.167
70620W        W35440  25.653   7.247   0.871
70621W        W35441  28.691  11.792  12.416
70622W        W35442  40.095  24.758   1.133
70623W        W35443   3.804   8.081   4.219
70624W        W35444   8.834  12.058  14.339
70625W        W35445  31.900   3.874  13.452
70626W        W35446   2.881   0.768  13.105
70627W        W35447   4.837  35.104  13.850
70628W        W35448  13.107  20.542   3.116
70629W        W35449  30.201  37.403  12.360
70630W        W35450  37.562  29.337  12.498
70631W        W35451  11.878   7.948   3.029
70632W        W35452  13.607  14.369  14.532
70633W        W35453  12.211  36.342  12.064
70634W        W35454  33.180  18.821  13.337
70635W        W35455  20.695  38.275   2.340
70636W        W35456   0.184   9.703  13.305
70637W        W35457  28.607  18.509  11.041
70638W        W35458  25.226  43.129   2.739
70639W        W35459  26.949  31.072   4.247
70640W        W35460   1.218  37.967  11.964
70641W        W35461  31.901   1.074  13.701
70642W        W35462  28.030  19.754   1.756
70643W        W35463  21.486  39.278  13.414
70644W        W35464  22.276  11.897  12.900
70645W        W35465  40.427  37.842   1.932
70646W        W35466  10.257   0.366  10.758
70647W        W35467   6.499  38.279  14.835
70648W        W35468  36.529  31.163  12.101
70649W        W35469  14.593  24.065   0.528
70650W        W35470   6.821  23.027   1.907
70651W        W35471  35.408  20.968   4.830
70652W        W35472   6.072  24.260  11.571
70653W        W35473  18.793  11.090   0.417
70654W        W35474  38.353  31.533  10.616
70655W        W35475  37.838   3.101   2.671
70656W        W35476  37.625  34.291  10.867
70657W        W35477  29.604  26.297   3.212
70658W        W35478  26.044  16.343   2.547
70659W        W35479   3.729  21.902   1.535
70660W        W35480  40.367  20.151   2.728
70661W        W35481  28.917  27.524   4.565
70662W        W35482  24.096  10.800  11.471
70663W        W35483   7.806  42.054   1.493
70664W        W35484  41.230  13.642   1.562
70665W        W35485   8.669  20.036  14.525
70666W        W35486  18.149  41.510  12.577
70667W        W35487  20.301  38.367   2.681
70668W        W35488   0.015   3.278  14.997
70669W        W35489   4.447   6.666  11.111
70670W        W35490   2.860  31.238   4.146
70671W        W35491  42.366  17.828  13.019
70672W        W35492   0.760  29.340   2.691
70673W        W35493  36.947  30.733   3.425
70674W        W35494  19.869   5.313  12.026
70675W        W35495  38.096  41.394   0.337
70676W        W35496   7.854  14.195  14.447
70677W        W35497   7.420  30.949  14.115
70678W        W35498   3.256  41.936   4.331
70679W        W35499  31.535  10.603  11.065
70680W        W35500   9.357  34.798  12.955
70681W        W35501  22.329   2.484   1.376
70682W        W35502  19.542  35.273   4.875
70683W        W35503  16.544  28.171  14.969
70684W        W35504  16.159  42.911   0.831
70685W        W35505  16.554  13.155   4.429
70686W        W35506  28.565   7.989   1.192
70687W        W35507   6.864  32.802   2.234
70688W        W35508  14.696  12.626   0.976
70689W        W35509  19.500  44.001  12.531
70690W        W35510  21.087  39.236  10.685
70691W        W35511  31.660  32.506   1.885
70692W        W35512  34.827  10.641  13.902
70693W        W35513  25.585  24.636  11.050
70694W        W35514  40.048  11.169   5.016
70695W        W35515   5.945  22.157  13.017
70696W        W35516  15.713   7.196  12.282
70697W        W35517  19.881  22.090   2.770
70698W        W35518   2.929   2.256  13.418
70699W        W35519  36.887  27.397  14.426
70700W        W35520   4.148  17.145  13.762
70701W        W35521  39.327  34.100   4.212
70702W        W35522  19.338  14.848   4.976
70703W        W35523  17.315  39.516  11.900
70704W        W35524  38.410  42.790  14.412
70705W        W35525  40.374  21.728  11.651
70706W        W35526  39.578  11.729   0.929
70707W        W35527  37.458   4.276  10.697
70708W        W35528  11.199   5.823   3.215
70709W        W35529  38.842  19.432   4.040
70710W        W35530  10.045  30.631  10.554
70711W        W35531   7.288  15.535   2.397
70712W        W35532   8.784  37.425  14.276
70713W        W35533   9.370  22.753  13.557
70714W        W35534   9.815  32.944  12.690
70715W        W35535  27.573   2.532   1.795
70716W        W35536  26.424  27.702   1.736
70717W        W35537  36.804  11.782   4.120
70718W        W35538   0.287   6.317   3.112
70719W        W35539  23.570  32.344  13.132
70720W        W35540  33.056  13.754  10.429
70721W        W35541  11.553  10.089   3.954
70722W        W35542  10.487   5.573  10.205
70723W        W35543  30.628  17.712  13.787
70724W        W35544  15.021  30.021   0.419
70725W        W35545  28.005  20.257  12.111
70726W        W35546  17.620  39.247   2.284
70727W        W35547  31.072  32.646  11.523
70728W        W35548   7.357   2.489   0.374
70729W        W35549   2.175  35.341  12.890
70730W        W35550  26.714  20.745   3.240
70731W        W35551  38.473  11.127   2.331
70732W        W35552  12.427  33.967  12.378
70733W        W35553  39.844   9.724   4.685
70734W        W35554  41.386  38.120  11.080
70735W        W35555  10.581  34.926   1.178
70736W        W35556  11.582  27.392   0.182
70737W        W35557  14.831  31.929  12.396
70738W        W35558   8.478  19.430   1.722
70739W        W35559  16.004  41.906   0.846
70740W        W35560  40.400   1.692  11.385
70741W        W35561  32.608   7.881  11.957
70742W        W35562  14.206  21.273   0.015
70743W        W35563   2.254  27.715  14.912
70744W        W35564  28.946  29.058   2.764
70745W        W35565  23.690  10.791  13.261
70746W        W35566  15.393  37.998  12.277
70747W        W35567  11.718  11.334  10.546
70748W        W35568  28.186   6.927  12.912
70749W        W35569  34.973  19.287   1.805
70750W        W35570  33.658  37.617  12.993
70751W        W35571  15.731  28.563  11.228
70752W        W35572  13.944  18.675  13.894
70753W        W35573  41.950  25.370   1.931
70754W        W35574   3.507  16.824   2.221
70755W        W35575  27.109  21.486  13.992
70756W        W35576  21.148   9.566   0.930
70757W        W35577  15.848  36.027  14.409
70758W        W35578  30.943  44.266  13.014
70759W        W35579  33.834  42.812   1.312
70760W        W35580  14.283   4.646  11.257
70761W        W35581  14.388  19.274  13.311
70762W        W35582  31.309  14.563   4.511
70763W        W35583  28.541   8.025   3.136
70764W        W35584   7.898  39.050  13.066
70765W        W35585   0.177   8.181  14.348
70766W        W35586  27.840  27.565  13.904
70767W        W35587  39.049  15.340   4.598
70768W        W35588  30.444  41.372  11.228
70769W        W35589  16.129   1.613  14.384
70770W        W35590   5.415  43.359   0.891
70771W        W35591  39.905  32.445  13.704
70772W        W35592   3.922  10.598   4.264
70773W        W35593   8.910   2.412  12.015
70774W        W35594  39.479   4.578  13.411
70775W        W35595  35.668  37.923   4.444
70776W        W35596  34.003  37.582   4.190
70777W        W35597  40.390  29.732  12.057
70778W        W35598   2.868   6.609   3.756
70779W        W35599  19.685  15.119  10.737
70780W        W35600  22.326  15.414  11.186
70781W        W35601  37.546  12.738  10.678
70782W        W35602  32.762   7.085   0.739
70783W        W35603  20.751  36.548   3.663
70784W        W35604   0.545  40.574   2.383
70785W        W35605  24.695   7.088   1.923
70786W        W35606  42.205  17.640   3.169
70787W        W35607  12.345   0.483   1.305
70788W        W35608   4.546  24.241   3.528
70789W        W35609  44.523  19.160   0.082
70790W        W35610   7.330  44.743   4.708
70791W        W35611  36.815  43.826   1.328
70792W        W35612  15.890  12.135  14.928
70793W        W35613  37.640  29.047   4.168
70794W        W35614   1.511  42.805   3.296
70795W        W35615  38.026  25.632  14.908
70796W        W35616  41.397  14.207  11.737
70797W        W35617  42.436  40.887  14.465
70798W        W35618   6.353  32.758   2.851
70799W        W35619  32.252  29.464   0.424
70800W        W35620  42.134  11.539  14.390
70801W        W35621  31.122  39.978   2.193
70802W        W35622  11.823   6.222   4.428
70803W        W35623  14.904  22.507  11.712
70804W        W35624   4.467  31.604   1.848
70805W        W35625  33.176  36.920  13.100
70806W        W35626  44.574  29.668   4.744
70807W        W35627  25.657   2.346   3.929
70808W        W35628  21.155  10.561  12.845
70809W        W35629  19.887  15.359  12.092
70810W        W35630  32.094  43.342  10.361
70811W        W35631  24.117  32.055  13.943
70812W        W35632  36.107   1.299  13.101
70813W        W35633  21.113  23.318   0.806
70814W        W35634  33.841  43.712   2.730
70815W        W35635  24.690  12.129  13.971
70816W        W35636  33.071  42.374  12.010
70817W        W35637   3.827  23.229   0.812
70818W        W35638  10.439  25.913  11.108
70819W        W35639   3.203  10.724  14.391
70820W        W35640  26.633  38.541   4.095
70821W        W35641  25.221  18.226  13.534
70822W        W35642  16.202   9.284   3.983
70823W        W35643  18.679  32.972  13.052
70824W        W35644  39.383  11.941  14.011
70825W        W35645  25.719   3.701  11.602
70826W        W35646  30.953  28.104  11.431
70827W        W35647  27.297  19.809  12.318
70828W        W35648  13.109  12.786  14.990
70829W        W35649  24.544   2.895   4.553
70830W        W35650  11.823  28.021   3.777
70831W        W35651   5.698   5.182  10.525
70832W        W35652   8.699  31.104  14.852
70833W        W35653  44.079  13.046  11.965
70834W        W35654  27.520  39.802  10.919
70835W        W35655   9.815  26.233   0.780
70836W        W35656  25.083  40.358   4.969
70837W        W35657   0.749  33.890   1.772
70838W        W35658  15.662   5.620   1.686
70839W        W35659  10.810  22.903   1.164
70840W        W35660  15.338  27.424  10.648
70841W        W35661  44.779   6.438  11.184
70842W        W35662  12.368  30.609   2.184
70843W        W35663  12.062  26.688  14.871
70844W        W35664  23.697  29.612  12.115
70845W        W35665  20.006  29.524  11.113
70846W        W35666  39.382  38.692  14.010
70847W        W35667  27.778  40.819  13.121
70848W        W35668   5.879  16.965  12.395
70849W        W35669  31.608  36.455   2.423
70850W        W35670  37.464   2.238  14.532
70851W        W35671  26.276  38.989  11.269
70852W        W35672  25.638  42.255  11.627
70853W        W35673  38.553  38.004  10.169
70854W        W35674  17.557  16.232  12.524
70855W        W35675   1.345  18.829  10.726
70856W        W35676  18.509  40.763  10.563
70857W        W35677   9.695  42.293  12.432
70858W        W35678  11.186  24.694   0.501
70859W        W35679  40.969   2.935  11.666
70860W        W35680  11.606  42.749   1.693
70861W        W35681  40.350   0.959  10.717
70862W        W35682  24.954  24.202   3.682
70863W        W35683   0.581  24.308  12.926
70864W        W35684  41.947  31.681   1.237
70865W        W35685  20.139   4.908  12.850
70866W        W35686  37.441  40.151  14.025
70867W        W35687   4.002   5.531  13.481
70868W        W35688  40.106  44.504  12.930
70869W        W35689   7.743  22.029  14.394
70870W        W35690  23.167  36.014   3.111
70871W        W35691  32.603  23.740  14.460
70872W        W35692  24.343   9.086  11.556
70873W        W35693  26.978  30.121   4.081
70874W        W35694  21.077  17.082   1.852
70875W        W35695  27.078  33.911   0.685
70876W        W35696  43.198  12.112   0.618
70877W        W35697  23.596  14.809  14.341
70878W        W35698  12.874  19.826  10.731
70879W        W35699  18.657  38.379  13.912
70880W        W35700  32.621  43.030  11.579
70881W        W35701  17.088  13.589   3.265
70882W        W35702  12.355  19.539   2.685
70883W        W35703  24.067   2.483  14.431
70884W        W35704   1.788  32.484  12.925
70885W        W35705  20.790   6.647   3.310
70886W        W35706  43.304  35.069   4.227
70887W        W35707  14.475  14.861  12.981
70888W        W35708   2.959   5.707   0.131
70889W        W35709  25.984  12.222   1.780
70890W        W35710  35.400  20.009   1.720
70891W        W35711  10.720  23.300   1.477
70892W        W35712  31.695  31.974   0.691
70893W        W35713   2.805  40.511  12.637
70894W        W35714  19.391  19.296   1.391
70895W        W35715  14.142   7.375   3.655
70896W        W35716  21.739  25.154   4.011
70897W        W35717  23.277  21.242  13.553
70898W        W35718  14.216  14.234   3.041
70899W        W35719  41.400  35.905   1.964
70900W        W35720   8.774  36.585  14.792
70901W        W35721   4.665  30.985  14.334
70902W        W35722  21.747  23.470  10.593
70903W        W35723  38.439   7.401  12.176
70904W        W35724   5.522  25.732  12.330
70905W        W35725  26.614  43.201   4.176
70906W        W35726  25.681  21.693  10.320
70907W        W35727  37.152  43.753  14.110
70908W        W35728  39.340  30.352   0.491
70909W        W35729  23.185  44.757   4.157
70910W        W35730   5.216  25.035  12.301
70911W        W35731  37.681  35.836  10.193
70912W        W35732  14.378  18.269   1.738
70913W        W35733  37.761  10.137   3.006
70914W        W35734  11.381  20.455  13.429
70915W        W35735  24.619  12.149   1.373
70916W        W35736  24.008   1.183   3.305
70917W        W35737  41.106  40.753  12.466
70918W        W35738  37.272  32.004  11.186
70919W        W35739   5.455  15.823   1.733
70920W        W35740  36.329   5.882   0.924
70921W        W35741  18.519  39.349   0.679
70922W        W35742  38.530  41.060   1.464
70923W        W35743   4.344  31.950   4.278
70924W        W35744  14.185   2.260   3.691
70925W        W35745  32.656   3.240  14.902
70926W        W35746  41.080  44.396   2.201
70927W        W35747  22.796  11.166   1.680
70928W        W35748  33.268  33.099   0.480
70929W        W35749  13.790  26.431   3.395
70930W        W35750  26.588   7.906  11.142
70931W        W35751  18.969  29.241   3.289
70932W        W35752  14.817  22.138  13.036
70933W        W35753   8.100  39.796  12.454
70934W        W35754  25.688   6.184   0.251
70935W        W35755  34.385  21.197   0.872
70936W        W35756   4.548  10.377  13.365
70937W        W35757  12.039  10.824   0.656
70938W        W35758  17.837   8.273   2.529
70939W        W35759   7.834  17.134  14.551
70940W        W35760   4.095  34.114  13.005
70941W        W35761  20.675   4.314  14.556
70942W        W35762  36.140  17.224   4.516
70943W        W35763  41.520   6.856  11.559
70944W        W35764  34.982  31.227  12.697
70945W        W35765  27.747  20.375   3.857
70946W        W35766   1.172  44.476   4.131
70947W        W35767  25.043  35.886   0.252
70948W        W35768  13.710  23.144  11.911
70949W        W35769  37.258   5.818   1.468
70950W        W35770  29.492  40.019   4.438
70951W        W35771  19.317   6.386   2.834
70952W        W35772   1.761  39.564   4.631
70953W        W35773   2.788   1.940  11.051
70954W        W35774   1.341  32.894  14.360
70955W        W35775  19.671   8.286   2.786
70956W        W35776  42.732  31.954  14.020
70957W        W35777  34.865  44.004   1.733
70958W        W35778  24.999  24.060  10.709
70959W        W35779   5.242  39.099  13.855
70960W        W35780  16.593  12.740   4.721
70961W        W35781  28.086  44.492   3.345
70962W        W35782  43.345   2.667  13.891
70963W        W35783  34.683  29.835  11.029
70964W        W35784  40.266  38.373  13.961
70965W        W35785  30.129  28.622  11.005
70966W        W35786  40.876  37.814   2.742
70967W        W35787  15.662  27.468  12.907
70968W        W35788   6.098  17.242   1.832
70969W        W35789   1.782  15.911   0.997
70970W        W35790  25.109   7.979   1.773
70971W        W35791  16.923  14.270   2.639
70972W        W35792  41.299  43.364  11.487
70973W        W35793  41.009  37.768   2.238
70974W        W35794   6.313   7.786  13.468
70975W        W35795  16.058  10.786  14.844
70976W        W35796   2.443  17.824   3.785
70977W        W35797  20.268  36.312   1.313
70978W        W35798  34.830  14.635  11.945
70979W        W35799  28.434  14.201   2.293
70980W        W35800  17.571  29.430  10.689
70981W        W35801  19.613  33.859   0.260
70982W        W35802  27.977  29.094  10.920
70983W        W35803   0.803   5.243  14.906
70984W        W35804  15.844   0.399  13.837
70985W        W35805  19.757  31.448   2.774
70986W        W35806  33.994   3.980  13.796
70987W        W35807  29.036  29.990   4.518
70988W        W35808  22.095   2.923   1.456
70989W        W35809  30.518  30.047  11.978
70990W        W35810  27.410  19.737  14.508
70991W        W35811  34.419   0.145  13.805
70992W        W35812   2.066  29.958   0.657
70993W        W35813  40.872  29.883  13.048
70994W        W35814   7.121  44.419   0.137
70995W        W35815  29.206   8.058  12.982
70996W        W35816  31.236  41.794  11.185
70997W        W35817   0.499  23.182   0.301
70998W        W35818  42.960  37.084  10.995
70999W        W35819  35.449  40.795  14.054
71000W        W35820  42.746   7.141  11.219
71001W        W35821  33.370   9.864   2.893
71002W        W35822  30.893   8.872  13.390
71003W        W35823  13.643  17.262   1.963
71004W        W35824  30.020  14.637  14.373
71005W        W35825  38.031  36.269  11.157
71006W        W35826  33.328  41.996  12.485
71007W        W35827  20.206   2.701  12.026
71008W        W35828  21.475   2.738  11.591
71009W        W35829   6.706  10.796  12.044
71010W        W35830  14.021  16.259   0.480
71011W        W35831  37.027  41.502  14.763
71012W        W35832  33.378   7.803  12.918
71013W        W35833  27.975  22.148  14.791
71014W        W35834  34.544  10.383  11.148
71015W        W35835  10.802  23.972  13.884
71016W        W35836  10.173  11.182   2.374
71017W        W35837   8.776  32.672  11.972
71018W        W35838  32.517  30.873  13.589
71019W        W35839  24.667   8.576   0.495
71020W        W35840  36.001  17.591  14.304
71021W        W35841  10.166  13.416  11.973
71022W        W35842   5.866  29.947  11.676
71023W        W35843  28.163  37.055   2.613
71024W        W35844  26.671   3.109  13.500
71025W        W35845  10.229  33.973   0.971
71026W        W35846  12.817  34.890  14.724
71027W        W35847  26.703   6.805  14.501
71028W        W35848  28.451   8.674  11.868
71029W        W35849  27.946  26.401   4.239
71030W        W35850  26.650  32.887  11.725
71031W        W35851  14.725  25.013   5.053
71032W        W35852  34.851  36.443  10.920
71033W        W35853  36.823  29.415  10.738
71034W        W35854  13.639  36.340   3.110
71035W        W35855  26.176  22.034   4.496
71036W        W35856  43.275   0.770   0.733
71037W        W35857  12.784  25.979   1.664
71038W        W35858  18.210  39.964   4.351
71039W        W35859  15.682  18.626  10.815
71040W        W35860  38.864  20.995  10.670
71041W        W35861  44.361  25.746   4.095
71042W        W35862  19.142  17.653   0.808
71043W        W35863  43.068  39.953  13.309
71044W        W35864  21.126  37.410   2.660
71045W        W35865  23.501   1.228  11.941
71046W        W35866  35.090  36.993  11.525
71047W        W35867  39.318  19.051  12.929
71048W        W35868  32.672  39.009   0.283
71049W        W35869   4.103   2.200   3.887
71050W        W35870  35.135  39.320   2.387
71051W        W35871   4.448   1.297  10.643
71052W        W35872  30.560  38.304  14.797
71053W        W35873  17.216   3.519  12.466
71054W        W35874  18.089  36.435  13.017
71055W        W35875  24.618  17.181   1.158
71056W        W35876   2.545  27.630   0.915
71057W        W35877  37.196  30.944  13.542
71058W        W35878   4.447  21.601   0.449
71059W        W35879  42.978   5.156   2.916
71060W        W35880  35.372   4.403   2.741
71061W        W35881   6.103  12.780   2.379
71062W        W35882  21.166  16.703   2.796
71063W        W35883   9.489   8.605  13.736
71064W        W35884  17.367   1.795   0.302
71065W        W35885  43.520   0.872   2.335
71066W        W35886  21.199  20.822   4.232
71067W        W35887  23.731   7.885  13.498
71068W        W35888   3.292  27.602   4.346
71069W        W35889   5.826  20.129   2.339
71070W        W35890  18.483  15.837   4.152
71071W        W35891  23.097  30.123  12.480
71072W        W35892  43.530  40.402  11.056
71073W        W35893  33.511   1.683  12.467
71074W        W35894  28.111   4.317  11.568
71075W        W35895   0.434  20.612  12.901
71076W        W35896  40.272  42.514   3.901
71077W        W35897  40.663  28.085  14.422
71078W        W35898  41.575   5.032   2.341
71079W        W35899   1.261  14.626   4.425
71080W        W35900  23.195  33.503  13.108
71081W        W35901   3.481   7.391  12.148
71082W        W35902   4.280  35.167  14.537
71083W        W35903  24.110  26.185  14.023
71084W        W35904  38.755  36.621  12.726
71085W        W35905  25.569  29.221  13.450
71086W        W35906  30.150  35.013   0.742
71087W        W35907  41.922   5.918  12.465
71088W        W35908  21.982  11.381   3.252
71089W        W35909   0.443  39.138  12.065
71090W        W35910  18.869  30.903  11.182
71091W        W35911   1.995  26.493  11.460
71092W        W35912  22.440   0.457  10.651
71093W        W35913  35.818   6.918   2.610
71094W        W35914  29.414  39.649   4.006
71095W        W35915  34.966   7.859   3.320
71096W        W35916  15.118   6.873   4.550
71097W        W35917   1.281  12.335   2.117
71098W        W35918  29.385  26.831  13.583
71099W        W35919  37.892  27.748  14.903
71100W        W35920  39.480  19.519  13.878
71101W        W35921   9.825  22.281  10.741
71102W        W35922  10.348  11.865  13.417
71103W        W35923   7.121  13.565  11.598
71104W        W35924  34.553   1.556  13.734
71105W        W35925  33.289  42.298   3.430
71106W        W35926   6.352  37.582   1.997
71107W        W35927  20.518  40.303  10.997
71108W        W35928  33.101  17.021   0.757
71109W        W35929  28.480  31.281   4.609
71110W        W35930  43.296  11.952   3.897
71111W        W35931  22.813  16.214   2.325
71112W        W35932  24.204  24.859  10.383
71113W        W35933  20.093  24.052   3.203
71114W        W35934  38.059  10.311  13.917
71115W        W35935  14.439  40.127   3.943
71116W        W35936  28.116  18.772   3.828
71117W        W35937  18.129   2.805  12.374
71118W        W35938  24.610  31.339  11.251
71119W        W35939  17.548  25.297   2.707
71120W        W35940  18.143  23.766   1.714
71121W        W35941  23.661  14.283  14.339
71122W        W35942  40.394  29.995  11.614
71123W        W35943   5.496   3.546   2.381
71124W        W35944   4.885  21.245  12.019
71125W        W35945  44.829   1.421   1.398
71126W        W35946   1.714  36.183  12.865
71127W        W35947   0.453  21.559  14.424
71128W        W35948  42.575  16.438   0.677
71129W        W35949   7.343   7.322   4.315
71130W        W35950  43.717  20.515   4.438
71131W        W35951  36.330  22.288   2.747
71132W        W35952  13.091   8.897   0.400
71133W        W35953   7.269  22.298  14.105
71134W        W35954  34.149  12.733  12.492
71135W        W35955  37.497  23.195  12.843
71136W        W35956   7.353   2.332  13.920
71137W        W35957   0.557  15.009  12.763
71138W        W35958  17.536  42.952  14.331
71139W        W35959  17.856  29.997  13.810
71140W        W35960  36.155  19.468   0.396
71141W        W35961   2.019   0.072  12.884
71142W        W35962  25.672  15.740  13.479
71143W        W35963  25.832  11.962   0.405
71144W        W35964  14.146   0.720   2.880
71145W        W35965  32.968  23.132   9.781
71146W        W35966  43.781  24.632  14.897
71147W        W35967  42.510   2.846  10.708
71148W        W35968   5.948   6.442   1.373
71149W        W35969   4.896  43.613  12.307
71150W        W35970  12.729  35.084  14.230
71151W        W35971  23.740  43.723  14.543
71152W        W35972   7.482  20.662  10.593
71153W        W35973  12.303  16.669  11.551
71154W        W35974  19.816   6.248  11.104
71155W        W35975  32.544  42.998   2.376
71156W        W35976  10.059  28.762   1.146
71157W        W35977   3.183  33.948   0.789
71158W        W35978  20.975   2.823   1.411
71159W        W35979  27.910  28.996  11.475
71160W        W35980  39.535  25.305  11.523
71161W        W35981  37.583  32.507   2.280
71162W        W35982  28.967   4.200  12.236
71163W        W35983   8.421  27.526  13.181
71164W        W35984   0.284  23.105   4.321
71165W        W35985  22.685  17.328   4.055
71166W        W35986   3.512   6.436   1.805
71167W        W35987  28.131  38.906   3.544
71168W        W35988  24.026  21.538   3.546
71169W        W35989  10.429  37.460  14.744
71170W        W35990  24.893   9.209  13.346
71171W        W35991  28.725  38.901   2.300
71172W        W35992   2.401  33.055  12.836
71173W        W35993  12.789  25.638   2.309
71174W        W35994  39.840  28.725  10.783
71175W        W35995  19.129  36.156   0.855
71176W        W35996   2.771  44.807   3.859
71177W        W35997  28.433  41.441   0.372
71178W        W35998  12.149   2.462  10.697
71179W        W35999  39.475   3.352  11.126
71180W        W36000  42.900  22.373   0.447
71181W        W36001  23.624  14.596   1.717
71182W        W36002  22.886  32.193  11.011
71183W        W36003  30.055  16.291  11.111
71184W        W36004  12.401  24.588   4.516
71185W        W36005  28.935  11.399  13.027
71186W        W36006   9.304  31.509   2.838
71187W        W36007  35.016  32.974  13.053
71188W        W36008  15.488  26.653  12.465
71189W        W36009  31.921  25.521   2.028
71190W        W36010  14.780  43.351   3.206
71191W        W36011   1.894  15.465  11.239
71192W        W36012  41.110  38.521   3.214
71193W        W36013  43.520  18.629   0.059
71194W        W36014  43.417  31.596   4.758
71195W        W36015  17.667  37.079  10.662
71196W        W36016   8.667  15.658   3.296
71197W        W36017   7.287  40.672   4.577
71198W        W36018  23.258  42.754  14.504
71199W        W36019  39.361  17.862  14.407
71200W        W36020  16.587  33.875   1.851
71201W        W36021  28.185   3.159   0.828
71202W        W36022  36.500  22.766  13.969
71203W        W36023  30.890   5.292   1.264
71204W        W36024   9.581   3.536   2.357
71205W        W36025  24.074  29.607   3.084
71206W        W36026  24.482   8.803   3.799
71207W        W36027  26.169  11.878  12.383
71208W        W36028   3.745  15.094   1.999
71209W        W36029  16.050  33.027  10.399
71210W        W36030   4.911  37.870   4.630
71211W        W36031   8.165   2.227   3.209
71212W        W36032  35.406  14.401  11.992
71213W        W36033  28.980  18.251  14.965
71214W        W36034  36.495  40.131   1.951
71215W        W36035   0.695   3.701  12.023
71216W        W36036  27.445  40.300   2.496
71217W        W36037  22.650  17.697   1.658
71218W        W36038   9.789  29.105   3.994
71219W        W36039  21.824   7.386   2.759
71220W        W36040  11.423  17.080   1.685
71221W        W36041  36.695  35.144  13.596
71222W        W36042   2.967  42.991  11.513
71223W        W36043  38.362   9.363   2.176
71224W        W36044  12.895  36.056  14.076
71225W        W36045  13.793  41.977   1.427
71226W        W36046  41.397  40.478  12.134
71227W        W36047  27.717  43.017  14.908
71228W        W36048  19.561  15.793   3.209
71229W        W36049  44.593   0.482   0.450
71230W        W36050  41.102  37.290   2.370
71231W        W36051  17.329  35.900   0.819
71232W        W36052   0.942  19.564  14.377
71233W        W36053  19.188   2.532   4.044
71234W        W36054  11.102  34.074  12.040
71235W        W36055  30.736  18.969   3.177
71236W        W36056  26.898   6.892   3.137
71237W        W36057  39.926  21.651   4.790
71238W        W36058  39.408  16.943   3.657
71239W        W36059  13.856   8.315  11.087
71240W        W36060   6.379  35.924  10.037
71241W        W36061  42.037  44.529  10.538
71242W        W36062   7.555  28.648  11.394
71243W        W36063  42.231  22.682   5.137
71244W        W36064  26.626  29.533  14.888
71245W        W36065   0.585  32.942  11.344
71246W        W36066  35.509   1.983   2.910
71247W        W36067  26.488  18.167   1.665
71248W        W36068  30.609  29.168   3.194
71249W        W36069   8.263  33.696   2.233
71250W        W36070  34.390  12.489   5.634
71251W        W36071   9.402  34.597   0.232
71252W        W36072  22.137  38.261  11.735
71253W        W36073  18.257  24.275  13.898
71254W        W36074  29.445  42.160   4.378
71255W        W36075   8.266  28.297  14.858
71256W        W36076  38.877  13.455   2.294
71257W        W36077   8.804  21.207   2.624
71258W        W36078  40.479  23.505   2.704
71259W        W36079  43.764  30.032  11.008
71260W        W36080  19.432  40.374   0.652
71261W        W36081  32.972  41.437   4.362
71262W        W36082   3.457  16.449   3.181
71263W        W36083  34.047  19.360  13.439
71264W        W36084  29.258  32.086   1.785
71265W        W36085  20.478  40.252   1.767
71266W        W36086  25.069  28.243   1.125
71267W        W36087  13.149   2.920   4.133
71268W        W36088   0.292  12.471   0.465
71269W        W36089  20.542  18.287   2.812
71270W        W36090  11.610  23.994  13.028
71271W        W36091  25.204  33.615  14.946
71272W        W36092  42.341  43.637  12.628
71273W        W36093  26.737   0.775  12.020
71274W        W36094  22.852  43.547   3.554
71275W        W36095  19.545   4.338   4.175
71276W        W36096  41.546  43.708  13.376
71277W        W36097  42.025  15.081  14.615
71278W        W36098  42.547  41.716  13.214
71279W        W36099  16.705  23.430  14.371
71280W        W36100   4.778   4.352  10.681
71281W        W36101  31.211  19.790  14.864
71282W        W36102   8.136  32.207   0.247
71283W        W36103  32.911   4.423   2.350
71284W        W36104   2.058  10.912  11.327
71285W        W36105  19.286   4.837   4.838
71286W        W36106  13.667  17.562   2.753
71287W        W36107   2.919  29.488   2.384
71288W        W36108  13.812  41.116  14.410
71289W        W36109   4.773  29.717  11.206
71290W        W36110  20.660   0.038   4.573
71291W        W36111   4.492  16.623  10.589
71292W        W36112  29.000   9.121  12.591
71293W        W36113   7.612  20.452  14.383
71294W        W36114  44.122  31.758   2.309
71295W        W36115  41.306   8.142  12.398
71296W        W36116  15.666   3.309   2.907
71297W        W36117  28.077  11.640  11.580
71298W        W36118  42.332  20.229  11.542
71299W        W36119  34.621  26.573   0.441
71300W        W36120  29.720   8.718   4.603
71301W        W36121  26.070  30.447   0.250
71302W        W36122   5.919   6.234   4.827
71303W        W36123  37.905   8.353  12.968
71304W        W36124  40.066  27.611  13.967
71305W        W36125   2.871   7.712   1.458
71306W        W36126  38.344  31.414   3.022
71307W        W36127  10.004  29.067   0.154
71308W        W36128  28.927   4.598  13.151
71309W        W36129  35.883  38.450   3.151
71310W        W36130  20.185  37.964   1.213
71311W        W36131  30.681  31.313  12.525
71312W        W36132  28.934  10.880   4.506
71313W        W36133  18.252  21.595   0.849
71314W        W36134   8.832   0.561   3.392
71315W        W36135  23.544  41.908  11.892
71316W        W36136   9.789  13.835   0.274
71317W        W36137  42.467  37.888   3.619
71318W        W36138  20.667  27.434   1.234
71319W        W36139  16.549  16.581  14.022
71320W        W36140  13.354  10.691   0.373
71321W        W36141   4.366  36.607   0.158
71322W        W36142  19.624   4.901  11.081
71323W        W36143   6.304  16.167  10.764
71324W        W36144  37.555  24.604   0.355
71325W        W36145  39.295  43.867  11.031
71326W        W36146   7.960  40.496  10.794
71327W        W36147   0.951  22.813  14.353
71328W        W36148  44.047  39.084  11.487
71329W        W36149  22.166  17.471   2.732
71330W        W36150  23.862  36.628   5.491
71331W        W36151  12.008  39.373   4.449
71332W        W36152  18.104   1.539   4.735
71333W        W36153  44.291   9.618   4.654
71334W        W36154  16.632  41.518   1.229
71335W        W36155  39.887  42.225   4.729
71336W        W36156   9.141   1.982   2.779
71337W        W36157  38.891  34.005  11.660
71338W        W36158  13.125  26.185  12.028
71339W        W36159  31.909  36.505   2.877
71340W        W36160  36.672   5.009  13.771
71341W        W36161   6.773   5.413   2.185
71342W        W36162  21.641  42.406   3.886
71343W        W36163   2.891  27.737  11.514
71344W        W36164  29.028   8.675   3.336
71345W        W36165  17.389  20.452  11.660
71346W        W36166  20.978  37.355  14.392
71347W        W36167  24.519  35.829   3.800
71348W        W36168  32.699  33.587  10.488
71349W        W36169  31.605  30.967   2.663
71350W        W36170   4.125  10.603   3.140
71351W        W36171  43.301   3.228   4.770
71352W        W36172  17.299  32.355   2.347
71353W        W36173   6.346  37.361  12.164
71354W        W36174  12.618   3.169  13.497
71355W        W36175  33.874  39.807  12.489
71356W        W36176  29.606  20.692   1.004
71357W        W36177  35.382   9.349   3.723
71358W        W36178  33.838   3.484   4.229
71359W        W36179  33.544  41.526  14.305
71360W        W36180   1.440  27.015   4.085
71361W        W36181   5.491  11.003  10.812
71362W        W36182  37.415   2.813  11.509
71363W        W36183   6.764  37.598   3.714
71364W        W36184  11.239   2.260  14.768
71365W        W36185  22.622  19.409  10.194
71366W        W36186  25.628   8.406  11.734
71367W        W36187   1.535  15.288   3.684
71368W        W36188  25.681  42.998  13.947
71369W        W36189   7.407  15.752   2.848
71370W        W36190  35.447  18.575   1.452
71371W        W36191  42.820  29.382  13.025
71372W        W36192   1.501   5.519  11.246
71373W        W36193  25.605  44.944  12.914
71374W        W36194  12.616  31.270   4.201
71375W        W36195  39.879   7.211  12.816
71376W        W36196  19.886  35.929   4.259
71377W        W36197  25.134  14.168   1.922
71378W        W36198   9.731  14.410   3.115
71379W        W36199   6.102  23.664   2.768
71380W        W36200  15.351  27.960   0.732
71381W        W36201  27.729  39.998  11.793
71382W        W36202  18.109   5.369   4.743
71383W        W36203   3.446   1.353  10.506
71384W        W36204  24.269  39.036  14.410
71385W        W36205   9.207  35.954  14.266
71386W        W36206  44.729  24.113  12.027
71387W        W36207   2.390  32.010  10.886
71388W        W36208   9.871   4.948  10.696
71389W        W36209  25.175  33.836   2.340
71390W        W36210  17.722  44.048  13.856
71391W        W36211  25.795  38.113   0.281
71392W        W36212  33.575  19.793   3.221
71393W        W36213  30.601  20.534   2.704
71394W        W36214  14.776  18.355   4.595
71395W        W36215  14.171   0.520  12.569
71396W        W36216  24.898  36.934  12.104
71397W        W36217   7.915  20.468   3.113
71398W        W36218  14.820  37.882   1.927
71399W        W36219  20.892  23.055   0.330
71400W        W36220  25.482  42.034  14.741
71401W        W36221  33.701  44.796  13.493
71402W        W36222  33.010  13.637   2.244
71403W        W36223  24.935  15.721   4.888
71404W        W36224  17.236   2.513  12.219
71405W        W36225   1.241   1.746   4.740
71406W        W36226  17.489   8.850   4.160
71407W        W36227   6.583  41.865   1.936
71408W        W36228  19.569  37.030  14.557
71409W        W36229  43.379  34.133  14.735
71410W        W36230   5.811  23.307  12.427
71411W        W36231  43.326  35.310   0.469
71412W        W36232   3.737  37.798   3.280
71413W        W36233  27.071  28.524   2.637
71414W        W36234  22.247  21.171  10.501
71415W        W36235   3.778   2.130   2.563
71416W        W36236   6.967  23.989  13.480
71417W        W36237  22.611   7.107   4.216
71418W        W36238  25.422   7.329   2.343
71419W        W36239  14.253  33.597   1.062
71420W        W36240  23.214  28.046  12.448
71421W        W36241  40.680  43.937   2.338
71422W        W36242  27.139  35.057   4.533
71423W        W36243  27.544  38.916  14.901
71424W        W36244  43.621  25.126   4.542
71425W        W36245  24.229  24.432  11.216
71426W        W36246  28.231  12.314  11.155
71427W        W36247  29.007  25.690   1.358
71428W        W36248   3.892  14.585  12.693
71429W        W36249  31.955  19.774  10.548
71430W        W36250  28.894  24.175  12.030
71431W        W36251  20.816  43.655  12.170
71432W        W36252  27.903   0.288   1.017
71433W        W36253  38.782  32.386   4.965
71434W        W36254   6.538  21.244  10.283
71435W        W36255  30.212  24.040  12.405
71436W        W36256  30.618  14.759  11.579
71437W        W36257  21.231  34.803   0.990
71438W        W36258  22.234  43.943   1.877
71439W        W36259  43.551   8.888  12.497
71440W        W36260   1.788  18.127   0.782
71441W        W36261   2.525   4.850   4.244
71442W        W36262  21.181  24.995  13.857
71443W        W36263  38.625  36.377  12.263
71444W        W36264  33.055  20.982  12.416
71445W        W36265  11.813  12.380  12.941
71446W        W36266  32.629  20.089   2.798
71447W        W36267  16.683  13.082   1.881
71448W        W36268   2.336  29.279  14.917
71449W        W36269   8.391  44.520   0.304
71450W        W36270  26.379  38.492  12.077
71451W        W36271   7.345  38.386   2.196
71452W        W36272  11.772   6.271  12.967
71453W        W36273   9.361   2.843   1.286
71454W        W36274   4.882   6.463  11.735
71455W        W36275  39.033  32.245  12.160
71456W        W36276  21.109  21.361  12.901
71457W        W36277  26.733  17.137   4.365
71458W        W36278  11.995   1.467   2.183
71459W        W36279  19.305   9.645   9.785
71460W        W36280   5.117  30.485   1.827
71461W        W36281  16.527  44.784   0.816
71462W        W36282  32.205  30.913   3.099
71463W        W36283   3.008  19.270  12.505
71464W        W36284   6.723  12.293   0.930
71465W        W36285  40.424  36.375   3.295
71466W        W36286  14.912  15.566  11.801
71467W        W36287  20.236  16.015   4.465
71468W        W36288  28.358  41.799  10.780
71469W        W36289  41.278   7.673  11.171
71470W        W36290   9.696  44.538   3.182
71471W        W36291  24.594  17.639  14.825
71472W        W36292  41.040   2.717   2.221
71473W        W36293  17.061  14.381  11.195
71474W        W36294  12.248  19.771  12.626
71475W        W36295  34.511  26.086   4.182
71476W        W36296   4.886  26.025   1.266
71477W        W36297  19.681  39.534  11.551
71478W        W36298  42.448  24.481   2.865
71479W        W36299  25.408  16.500   3.298
71480W        W36300  37.791   9.249   2.198
71481W        W36301  27.661  42.300   4.027
71482W        W36302  36.863  34.742  11.157
71483W        W36303  32.869  30.620   2.003
71484W        W36304   9.773  16.980  12.089
71485W        W36305  21.600   8.417   0.451
71486W        W36306  27.136  16.303   4.747
71487W        W36307  30.850  32.917  11.090
71488W        W36308   0.560   6.202  13.984
71489W        W36309  10.630  24.660   1.431
71490W        W36310   8.363  27.580  11.225
71491W        W36311  19.006  29.274  11.022
71492W        W36312  32.866  17.259  14.985
71493W        W36313   2.080   5.624  14.893
71494W        W36314  13.370  24.283   1.526
71495W        W36315  35.873  34.341  13.450
71496W        W36316  10.581  27.585   2.806
71497W        W36317  32.384  19.181   0.723
71498W        W36318   3.818  31.934   3.827
71499W        W36319  24.388  21.169  12.600
71500W        W36320  26.181  21.818   0.945
71501W        W36321  18.168  12.169   3.603
71502W        W36322  29.993   1.813   0.241
71503W        W36323  26.119  15.379   2.738
71504W        W36324  29.174  19.032   4.904
71505W        W36325   7.921  37.336   3.641
71506W        W36326   5.853   1.316  14.944
71507W        W36327   8.264   9.849   1.113
71508W        W36328   1.116  18.478  11.073
71509W        W36329  41.963  29.581  10.706
71510W        W36330  44.537  32.136   4.922
71511W        W36331  11.141  28.572   3.713
71512W        W36332  35.137   2.661  12.929
71513W        W36333  40.378  14.271   0.812
71514W        W36334  15.927  28.582  14.035
71515W        W36335  10.237   2.150  13.749
71516W        W36336  36.573  36.714   3.649
71517W        W36337   8.418  30.376   3.819
71518W        W36338   8.747   0.916   3.020
71519W        W36339  37.351  41.911   5.021
71520W        W36340  15.059   6.722  11.135
71521W        W36341   0.263   6.212  11.207
71522W        W36342  41.560  39.688  13.306
71523W        W36343  11.722   0.376  12.767
71524W        W36344  23.109   7.137   4.092
71525W        W36345  23.536  15.385   3.743
71526W        W36346  44.706  27.800  14.882
71527W        W36347  27.061  20.989   1.664
71528W        W36348  14.609  34.160   0.967
71529W        W36349  32.445  25.660  14.053
71530W        W36350  17.263   9.208   1.241
71531W        W36351   7.298  23.486  11.602
71532W        W36352   5.171  36.955   3.292
71533W        W36353  33.192   3.838  13.553
71534W        W36354   5.733  36.424   1.154
71535W        W36355   3.520  32.927  14.218
71536W        W36356  40.606  42.220   1.897
71537W        W36357  22.051   8.402  11.760
71538W        W36358  10.149  21.401  10.934
71539W        W36359  24.429   5.660   0.939
71540W        W36360   0.918   4.261   1.372
71541W        W36361  41.206  14.792  14.331
71542W        W36362  12.355  27.989   1.663
71543W        W36363  38.620   4.456  10.758
71544W        W36364  20.206  15.242   2.779
71545W        W36365   1.668  32.817   2.789
71546W        W36366  28.552   5.931  10.773
71547W        W36367  41.290  22.691  11.488
71548W        W36368   5.698  20.169  14.536
71549W        W36369   6.970  12.194  11.876
71550W        W36370   9.179   8.471  12.429
71551W        W36371  17.762  22.835  13.354
71552W        W36372   8.723  42.382   2.283
71553W        W36373  36.233  36.810   1.381
71554W        W36374  14.089   4.865   4.358
71555W        W36375  26.910   1.240  11.899
71556W        W36376   5.634  29.120   1.692
71557W        W36377  13.784  26.906  14.842
71558W        W36378  24.130  16.769  13.839
71559W        W36379  40.159  34.400  14.096
71560W        W36380  44.182  10.628  14.820
71561W        W36381  36.628  25.108   0.242
71562W        W36382  16.811  30.002   2.757
71563W        W36383  41.923  33.531  11.386
71564W        W36384   2.500  12.989  12.043
71565W        W36385  12.608  42.545  14.482
71566W        W36386  25.684  25.474  14.271
71567W        W36387  30.666  22.947  11.627
71568W        W36388   4.635  43.657  14.637
71569W        W36389  12.188   2.695  11.165
71570W        W36390  11.626  28.372   2.132
71571W        W36391   5.411  43.249   2.801
71572W        W36392  33.797  10.782  14.819
71573W        W36393  29.871  12.406  14.585
71574W        W36394  12.384  31.286   4.681
71575W        W36395   3.260  35.951   3.837
71576W        W36396  28.708   6.266   2.505
71577W        W36397  13.255  33.405  11.215
71578W        W36398   2.922  35.424  14.362
71579W        W36399   8.501  17.391   3.230
71580W        W36400  39.306  39.871   4.163
71581W        W36401  12.730  42.855  14.918
71582W        W36402   1.163  19.967  13.262
71583W        W36403  16.496   7.248  13.898
71584W        W36404  42.061  27.350  12.982
71585W        W36405  15.201  40.963   4.495
71586W        W36406  42.732  26.942  14.522
71587W        W36407   9.703   2.034  11.599
71588W        W36408  43.206  12.087  13.927
71589W        W36409   9.726  34.934   1.024
71590W        W36410   7.914  13.662  10.552
71591W        W36411  37.384  43.702  10.734
71592W        W36412   9.157  30.679  11.532
71593W        W36413  35.563  38.448   2.201
71594W        W36414  30.192  39.903   2.328
71595W        W36415  27.445  27.472  13.212
71596W        W36416  12.349  42.412   2.652
71597W        W36417  16.102  32.585  13.992
71598W        W36418  14.482  30.585  12.108
71599W        W36419   9.449   6.934   1.564
71600W        W36420   1.063  14.068  13.438
71601W        W36421   3.225  11.684   3.844
71602W        W36422  11.367  31.918  14.773
71603W        W36423  19.172  33.486   1.217
71604W        W36424   9.264  41.212  11.135
71605W        W36425  32.453  16.731  14.376
71606W        W36426   8.346  25.731  13.828
71607W        W36427  27.238  37.041  11.646
71608W        W36428  10.163   2.467   4.672
71609W        W36429  15.863  23.545   1.233
71610W        W36430  44.437   9.319  14.582
71611W        W36431  14.765  14.833   2.145
71612W        W36432   0.058  17.275  12.765
71613W        W36433  22.364  23.510  12.924
71614W        W36434  37.970  17.640   4.592
71615W        W36435  19.288  34.006   1.192
71616W        W36436  11.840  34.573   2.393
71617W        W36437   6.777  34.530   3.121
71618W        W36438  36.607   5.823   4.837
71619W        W36439   1.242  43.218   3.202
71620W        W36440  32.889  27.701   3.794
71621W        W36441  19.564  16.333   3.158
71622W        W36442   6.220  25.141  13.992
71623W        W36443   5.265   3.409  11.109
71624W        W36444  17.223   2.936  12.528
71625W        W36445  15.878  17.682   0.088
71626W        W36446  21.657  33.390  10.745
71627W        W36447   1.628  28.519  12.483
71628W        W36448  36.092  22.147  13.856
71629W        W36449  19.657   3.987   3.694
71630W        W36450  19.847  37.487   5.309
71631W        W36451  34.664  12.964   2.724
71632W        W36452  32.462   0.675  12.033
71633W        W36453  19.746  28.424   3.885
71634W        W36454   0.073  33.089  11.515
71635W        W36455  33.091  41.173  11.539
71636W        W36456   2.691   0.065  12.370
71637W        W36457  44.102  24.186   5.095
71638W        W36458  40.377  29.033   3.720
71639W        W36459  30.964   7.855   2.449
71640W        W36460  37.526  30.436  12.436
71641W        W36461  11.741  42.766  11.613
71642W        W36462  10.840   7.734  14.136
71643W        W36463  36.082  11.599  13.663
71644W        W36464  36.111   7.065  10.698
71645W        W36465  38.349  39.789  10.485
71646W        W36466   5.182   8.927  13.000
71647W        W36467  24.623  26.060   3.351
71648W        W36468  12.777  31.971   2.936
71649W        W36469  44.150  28.136  12.985
71650W        W36470  34.180  42.125  13.531
71651W        W36471  41.071  16.138  13.728
71652W        W36472  41.759  11.750  14.066
71653W        W36473   3.799   9.665   1.460
71654W        W36474  38.584  25.722   4.740
71655W        W36475  27.476  11.633  12.250
71656W        W36476  35.805  38.986  12.067
71657W        W36477  39.100  34.977   2.162
71658W        W36478  32.168   0.730  14.027
71659W        W36479  23.507  37.325   4.205
71660W        W36480  14.220  17.332  10.697
71661W        W36481  17.286   2.192   4.265
71662W        W36482  24.097  29.118  13.578
71663W        W36483  10.284   3.178   0.985
71664W        W36484   9.836  15.870   0.262
71665W        W36485   6.131  21.080   3.300
71666W        W36486  41.818  35.866  12.047
71667W        W36487  16.139  19.009   3.695
71668W        W36488   0.002  15.598  10.297
71669W        W36489   1.106  29.440  11.639
71670W        W36490   4.623  15.609   2.787
71671W        W36491   4.413  16.166   3.444
71672W        W36492  25.501  34.578   0.659
71673W        W36493  21.663  40.980   4.520
71674W        W36494  39.314  43.570   1.335
71675W        W36495  27.050  34.450   0.739
71676W        W36496  42.740  24.558  14.671
71677W        W36497   4.459  43.008   4.126
71678W        W36498  11.691  12.886  12.046
71679W        W36499   4.044  30.044  13.935
71680W        W36500   8.315   1.070  13.231
71681W        W36501  27.710  33.667   4.513
71682W        W36502  24.198  25.148  13.878
71683W        W36503  25.146   3.682  12.977
71684W        W36504  22.506  28.008  13.682
71685W        W36505  21.208   0.892  13.798
71686W        W36506  37.400  44.614   4.552
71687W        W36507  36.831  27.018   3.192
71688W        W36508  26.108   0.811   1.022
71689W        W36509   1.195  25.674   1.346
71690W        W36510   2.481  39.821  12.664
71691W        W36511   7.524  32.315  12.071
71692W        W36512   1.601  43.934   1.529
71693W        W36513   8.823  38.248  13.968
71694W        W36514   9.581  20.326   2.902
71695W        W36515  11.381  20.780  10.661
71696W        W36516  19.585  40.531  14.355
71697W        W36517  30.212  31.098  12.369
71698W        W36518  24.887  37.859  14.817
71699W        W36519  38.613  43.976   0.809
71700W        W36520  12.337  28.207  10.708
71701W        W36521  29.624   8.355   0.051
71702W        W36522  32.145   5.800   3.092
71703W        W36523  23.280  25.877  14.416
71704W        W36524  12.223   1.749  11.733
71705W        W36525  23.207   2.403  12.604
71706W        W36526  14.148   2.125  11.221
71707W        W36527   4.454  19.815   3.754
71708W        W36528  10.807  17.850  14.992
71709W        W36529  41.491  31.133   1.755
71710W        W36530  20.308  23.971  13.829
71711W        W36531  11.522   1.521  11.203
71712W        W36532  18.853  23.013  13.348
71713W        W36533  21.230  44.772   0.378
71714W        W36534   4.254   3.809  14.872
71715W        W36535  39.807  16.792  12.885
71716W        W36536   2.824  31.493  14.254
71717W        W36537  18.323   8.397  14.504
71718W        W36538  37.339  33.603   4.553
71719W        W36539   4.259   6.237  11.900
71720W        W36540   7.895  23.454  12.945
71721W        W36541  39.004  12.364  13.105
71722W        W36542   6.840  36.741  13.397
71723W        W36543  18.109  22.232  10.613
71724W        W36544  23.590   2.965  12.798
71725W        W36545  39.575  36.283   1.646
71726W        W36546  13.992   5.861   1.457
71727W        W36547  19.801  43.745   1.493
71728W        W36548   6.015  13.410  13.799
71729W        W36549   6.439   1.856  12.920
71730W        W36550   4.063  23.350  10.991
71731W        W36551  42.389  43.877   0.378
71732W        W36552  29.905  22.175   4.863
71733W        W36553  41.489   1.301  13.904
71734W        W36554  28.253   3.722   4.267
71735W        W36555  37.388  38.737  12.897
71736W        W36556   2.902  26.832   2.754
71737W        W36557  36.363  37.340  12.436
71738W        W36558  24.631   6.455  13.245
71739W        W36559  24.820   1.378  13.891
71740W        W36560  26.699  18.458  11.569
71741W        W36561  28.080  30.372  14.798
71742W        W36562  28.603   0.667  14.757
71743W        W36563  38.837  44.232   3.933
71744W        W36564  14.191  29.104   2.182
71745W        W36565  35.123  41.854   2.499
71746W        W36566  18.774  12.620  11.971
71747W        W36567  29.578  28.224  14.908
71748W        W36568  40.494   6.700  11.654
71749W        W36569  18.510  29.612   4.808
71750W        W36570  30.128   8.175  13.755
71751W        W36571   3.522   1.895  13.138
71752W        W36572  32.652  37.989   0.215
71753W        W36573  43.619  32.191  11.118
71754W        W36574  40.012  30.062  11.973
71755W        W36575  11.240  38.375   3.670
71756W        W36576  35.084   6.734  11.226
71757W        W36577  18.764   4.435   0.829
71758W        W36578   6.777  15.304  13.372
71759W        W36579  34.576  27.677   3.256
71760W        W36580  29.585  30.037  12.889
71761W        W36581  28.074  34.074  11.073
71762W        W36582  21.731  34.495   1.116
71763W        W36583  26.075  31.874  14.560
71764W        W36584  40.969  23.765   0.072
71765W        W36585  38.916  23.883  14.354
71766W        W36586   1.077  29.845   3.552
71767W        W36587  24.316  18.673  11.116
71768W        W36588   5.421  39.570  12.867
71769W        W36589  13.781  24.446   1.250
71770W        W36590  24.637  29.033   4.600
71771W        W36591  18.654  27.730  13.394
71772W        W36592   3.930  15.831   1.717
71773W        W36593  32.899   0.465  12.575
71774W        W36594  22.511  21.275   0.973
71775W        W36595   4.390  28.030  14.303
71776W        W36596  19.651  26.519  14.007
71777W        W36597  19.315   0.975  12.483
71778W        W36598   7.945  25.187   2.210
71779W        W36599  43.021  33.184  11.767
71780W        W36600  26.600   4.802  12.269
71781W        W36601  22.558  41.798  11.959
71782W        W36602  34.192  30.513  10.843
71783W        W36603  44.519   0.236   1.352
71784W        W36604   2.862  33.610   3.894
71785W        W36605  24.614  30.344  14.818
71786W        W36606  44.787  13.287   4.236
71787W        W36607  30.610  22.503   3.651
71788W        W36608  33.564  39.371   3.237
71789W        W36609  12.964  31.438  14.348
71790W        W36610  29.745  23.205  14.207
71791W        W36611  30.053  30.814  12.832
71792W        W36612   1.416  35.841   4.994
71793W        W36613  19.067  37.500  14.430
71794W        W36614  11.230   6.709  11.603
71795W        W36615  32.925  28.484   1.194
71796W        W36616  28.979  16.156  12.009
71797W        W36617   5.942  11.462  14.566
71798W        W36618  43.521  25.977  12.546
71799W        W36619   2.367  13.566  13.003
71800W        W36620  43.199  43.948  14.662
71801W        W36621   4.354  33.869  14.961
71802W        W36622  31.583  35.630  12.215
71803W        W36623   3.243  20.746  14.883
71804W        W36624   3.798  29.875  14.358
71805W        W36625  17.629  15.052   3.053
71806W        W36626  15.942  30.399   4.666
71807W        W36627  42.820  34.366   4.603
71808W        W36628  37.588   9.157  13.844
71809W        W36629  30.912  39.797  12.409
71810W        W36630  41.829  39.198   3.485
71811W        W36631  33.639  28.605  13.345
71812W        W36632  40.448  33.056  13.646
71813W        W36633  33.508  15.412  14.906
71814W        W36634  31.112  39.906  14.319
71815W        W36635  39.817  28.924  11.266
71816W        W36636   5.283  31.759   4.166
71817W        W36637   2.943  43.457   2.802
71818W        W36638  20.568  19.336   4.109
71819W        W36639  37.736  33.164   3.394
71820W        W36640  37.960  38.800   0.655
71821W        W36641  42.988  33.387  13.765
71822W        W36642  41.440  39.383   1.573
71823W        W36643  20.981   6.160  13.857
71824W        W36644  16.669  31.664   3.248
71825W        W36645  42.486  33.418  13.894
71826W        W36646  11.310   8.897  14.080
71827W        W36647  10.459  27.451   4.449
71828W        W36648  12.029  30.508  13.443
71829W        W36649   4.280  42.309  14.439
71830W        W36650  28.955   6.182  14.546
71831W        W36651  41.906  24.727  12.742
71832W        W36652  38.567  20.552  11.601
71833W        W36653  40.523  17.644   3.817
71834W        W36654  17.288   7.741  13.891
71835W        W36655  26.914  31.638  10.626
71836W        W36656  32.120  42.224   2.757
71837W        W36657  25.643  34.596   2.592
71838W        W36658   2.751   3.810  14.924
71839W        W36659  26.671  16.482   0.389
71840W        W36660  23.204  36.052   4.038
71841W        W36661  37.103  14.406   4.777
71842W        W36662  23.090   0.841   0.476
71843W        W36663  36.422  35.580   4.812
71844W        W36664   8.169  32.865   2.724
71845W        W36665  15.459   8.752   4.141
71846W        W36666  20.184  34.100  14.293
71847W        W36667   2.714  39.153   4.615
71848W        W36668  37.893  41.422   4.038
71849W        W36669   4.724  16.112   2.193
71850W        W36670  23.730  27.658   0.305
71851W        W36671  37.445  13.207   0.963
71852W        W36672  22.139  38.272  13.863
71853W        W36673  41.442  23.382  11.111
71854W        W36674  34.371   4.886  11.685
71855W        W36675  10.891  32.774   1.252
71856W        W36676  12.238  42.011   4.870
71857W        W36677  20.471  34.392  13.022
71858W        W36678  22.686   4.217   1.052
71859W        W36679  39.820  30.762  12.571
71860W        W36680   2.147   4.345  11.587
71861W        W36681  16.706  41.513   2.442
71862W        W36682   5.760  18.109  13.499
71863W        W36683  15.537  39.136   3.674
71864W        W36684  34.086  19.583   1.931
71865W        W36685  36.548  36.432   1.212
71866W        W36686  19.408   0.167  11.255
71867W        W36687  32.361  33.920  11.290
71868W        W36688  29.304  34.725  11.276
71869W        W36689   3.723  16.885   1.720
71870W        W36690   4.650  18.974   2.418
71871W        W36691  43.480  20.599  12.357
71872W        W36692  14.608   1.899   4.794
71873W        W36693   5.667   9.648   3.679
71874W        W36694  22.110  19.973   4.521
71875W        W36695  25.645  29.199   0.649
71876W        W36696  33.457  20.638  10.483
71877W        W36697  18.152  33.057   4.279
71878W        W36698  10.321   3.622   1.832
71879W        W36699  26.356  30.466  12.642
71880W        W36700   3.030  13.699   4.381
71881W        W36701  37.875   7.905   2.158
71882W        W36702  23.307  18.775  12.723
71883W        W36703  34.573   8.546   3.244
71884W        W36704  10.687  11.767  14.921
71885W        W36705   7.504  22.586   1.779
71886W        W36706  44.987  26.894   3.089
71887W        W36707  13.213   7.683  13.451
71888W        W36708   7.822   5.396  13.874
71889W        W36709  25.548   5.379  13.827
71890W        W36710  31.564  41.293   1.027
71891W        W36711  29.058  21.111   4.537
71892W        W36712  13.757   2.775   1.677
71893W        W36713   6.335  23.076   4.546
71894W        W36714  30.152   9.334   3.281
71895W        W36715  12.788  31.543  10.352
71896W        W36716   8.959  25.728  12.979
71897W        W36717   4.679  23.402   0.632
71898W        W36718  25.844  34.351   9.819
71899W        W36719  22.102  40.358   4.333
71900W        W36720   2.933  40.374  11.103
71901W        W36721  17.878  31.044   1.678
71902W        W36722   8.165  28.448   2.757
71903W        W36723  31.510  10.759   2.756
71904W        W36724   0.346  11.226  14.827
71905W        W36725  44.412  26.191   1.749
71906W        W36726  29.642  20.289   2.799
71907W        W36727   3.529  21.166   0.012
71908W        W36728  10.650  28.015  11.994
71909W        W36729  23.849  11.174  14.424
71910W        W36730  40.738   0.383  13.461
71911W        W36731  25.296   7.988  12.463
71912W        W36732  31.059  44.701   3.203
71913W        W36733   4.428  23.728   0.918
71914W        W36734  20.550  35.436  11.121
71915W        W36735  20.209  16.265   2.756
71916W        W36736  26.099  29.613   0.001
71917W        W36737  25.096   7.162   2.715
71918W        W36738  18.552  28.028  12.409
71919W        W36739  15.570   8.205   2.295
71920W        W36740  29.660  40.787   9.793
71921W        W36741  25.212  37.932   2.249
71922W        W36742  41.333   3.817   1.361
71923W        W36743  38.971  12.725  14.919
71924W        W36744  32.194  12.896   4.088
71925W        W36745  43.771  17.555   0.695
71926W        W36746   7.606  37.069  12.431
71927W        W36747  32.918  37.424  12.195
71928W        W36748  36.881  27.144  13.066
71929W        W36749  11.073  17.621   0.985
71930W        W36750  31.244  36.665   4.179
71931W        W36751  36.628   2.260   3.612
71932W        W36752   0.245  31.870   1.151
71933W        W36753  17.000  28.708   1.167
71934W        W36754  41.019  26.605  11.227
71935W        W36755  10.071   6.845   3.172
71936W        W36756  23.943  44.314  12.921
71937W        W36757  12.584   2.738  10.836
71938W        W36758  24.557   4.021  14.873
71939W        W36759  41.850  38.316  14.953
71940W        W36760  31.163  16.254   1.107
71941W        W36761  28.422  27.696   0.785
71942W        W36762  25.173  15.390   3.701
71943W        W36763  31.072   2.331   4.995
71944W        W36764  19.714   0.357   0.937
71945W        W36765   9.901   6.338  12.425
71946W        W36766  15.671   1.300   3.249
71947W        W36767  37.873  16.342  10.473
71948W        W36768  24.873  36.310   2.761
71949W        W36769  41.399   6.341  10.733
71950W        W36770   0.990  29.656  13.003
71951W        W36771  12.528  20.692   5.368
71952W        W36772   1.860  39.288   1.832
71953W        W36773  15.221  15.296   2.917
71954W        W36774  33.727  22.241  12.831
71955W        W36775   7.895   4.055   3.020
71956W        W36776   8.229   7.281   3.462
71957W        W36777  23.080  26.694  12.550
71958W        W36778  40.532  20.970  11.939
71959W        W36779  36.417  16.181   1.224
71960W        W36780  15.292  43.378  10.756
71961W        W36781  24.058  12.654  11.993
71962W        W36782  44.710  30.535   2.424
71963W        W36783  24.917   8.827   3.489
71964W        W36784  18.185  30.206   2.633
71965W        W36785  36.394  13.604  14.753
71966W        W36786   0.315  25.981  12.539
71967W        W36787  28.046   3.230   2.338
71968W        W36788   4.967  43.759   2.318
71969W        W36789  25.202  37.337  13.947
71970W        W36790  17.199   7.127  14.907
71971W        W36791  26.136  37.096   1.719
71972W        W36792   0.359  24.243   3.930
71973W        W36793  15.068  34.370  11.737
71974W        W36794  20.490   4.067  11.936
71975W        W36795   8.821  12.333   0.456
71976W        W36796  22.117  18.372   4.543
71977W        W36797  27.480  21.165  13.320
71978W        W36798  21.179  35.604   4.487
71979W        W36799  20.180  30.888  12.853
71980W        W36800  17.115  25.654  12.472
71981W        W36801  36.966  17.241  12.972
71982W        W36802  23.286   1.671   2.879
71983W        W36803  15.819   5.297   0.932
71984W        W36804  12.102   2.364  12.875
71985W        W36805  24.934  31.044   4.444
71986W        W36806  15.689  37.461   4.529
71987W        W36807  27.567  30.009   2.951
71988W        W36808   0.808   4.834   3.696
71989W        W36809  27.362  44.361  13.328
71990W        W36810  28.664  28.652   3.519
71991W        W36811  29.952   4.423   0.744
71992W        W36812  23.524   5.078   0.556
71993W        W36813  13.707  24.972   4.452
71994W        W36814  34.309  10.212  10.119
71995W        W36815   2.290  31.753   1.329
71996W        W36816   1.681  12.425   2.593
71997W        W36817  16.845   8.599  12.148
71998W        W36818  39.929   0.280  14.263
71999W        W36819  12.101  35.911   2.232
72000W        W36820  20.253   3.026   2.647
72001W        W36821  42.281  17.811   4.467
72002W        W36822  34.702  38.386  11.130
72003W        W36823  32.616  35.001   0.816
72004W        W36824  15.220  24.997   1.390
72005W        W36825   8.710  22.473   3.251
72006W        W36826  39.790  43.286  12.927
72007W        W36827  38.048  41.416  14.806
72008W        W36828  23.717  33.180   3.279
72009W        W36829  24.170  22.474  14.283
72010W        W36830  21.422   7.405   3.516
72011W        W36831  15.192  41.518   2.288
72012W        W36832  10.295  29.019   4.068
72013W        W36833  23.730   2.449  12.666
72014W        W36834  39.548  12.116   3.371
72015W        W36835  44.382  39.869   1.743
72016W        W36836  24.967   7.394   4.053
72017W        W36837  28.246   5.753   1.901
72018W        W36838  11.596  22.649  12.624
72019W        W36839   8.954  16.782  13.757
72020W        W36840   9.108  44.997   2.182
72021W        W36841  39.788  32.438  14.849
72022W        W36842  15.770  44.267   3.210
72023W        W36843  14.278  20.276  14.798
72024W        W36844  22.937  39.340  12.998
72025W        W36845  44.064  33.984   3.791
72026W        W36846  32.481  42.490  14.460
72027W        W36847  29.555  22.502   0.309
72028W        W36848  24.127  13.855   1.762
72029W        W36849  41.971  15.647   2.257
72030W        W36850   8.658   6.759  14.150
72031W        W36851  42.485  17.714   1.285
72032W        W36852  32.431  20.551  12.375
72033W        W36853  19.048  13.087  11.926
72034W        W36854  44.222   4.402  12.071
72035W        W36855  26.398   6.307  11.981
72036W        W36856  41.504  43.419  14.589
72037W        W36857  34.607  12.328  11.966
72038W        W36858  42.101   6.377  11.116
72039W        W36859  44.806  31.018   1.225
72040W        W36860  23.548  37.475  12.505
72041W        W36861  42.469  10.934   3.172
72042W        W36862  29.065  43.284  14.579
72043W        W36863  26.597   4.284   2.836
72044W        W36864  29.234  27.438   1.266
72045W        W36865  15.722  25.040   1.253
72046W        W36866   6.950  12.619   0.442
72047W        W36867  41.342  13.701  13.417
72048W        W36868  17.834  27.035   0.675
72049W        W36869  38.827  26.851  11.664
72050W        W36870  12.864  10.142   0.508
72051W        W36871   1.165  32.415   0.346
72052W        W36872  11.869   8.250   2.194
72053W        W36873   8.233  11.916  14.830
72054W        W36874  17.262  20.736  14.595
72055W        W36875  33.385  29.468   3.779
72056W        W36876   7.994  26.137  10.067
72057W        W36877  34.153  18.253   0.608
72058W        W36878  15.785  33.703   0.910
72059W        W36879  35.527  26.727  12.582
72060W        W36880   4.331  14.490   0.221
72061W        W36881  40.099  11.454   3.121
72062W        W36882  34.157  32.988  13.165
72063W        W36883  32.211  18.056  13.419
72064W        W36884  41.403  26.286   1.808
72065W        W36885  31.851   9.310  12.192
72066W        W36886   3.935  22.125   3.176
72067W        W36887  14.085  30.445   1.803
72068W        W36888  29.396   2.185  12.558
72069W        W36889  21.622  25.675  13.458
72070W        W36890  12.885   9.029  11.493
72071W        W36891  41.609  31.800   3.690
72072W        W36892  10.179  21.734  13.335
72073W        W36893  28.073  42.491  13.985
72074W        W36894  18.495  41.061   0.436
72075W        W36895  21.455  36.597   0.950
72076W        W36896  27.209  39.872  13.093
72077W        W36897  39.157  28.590   2.687
72078W        W36898   4.494   5.555  13.359
72079W        W36899  44.011   0.064  12.043
72080W        W36900   0.236  34.441  11.126
72081W        W36901  24.634  21.798   0.765
72082W        W36902  24.635  17.295   1.656
72083W        W36903  21.000  27.551   1.908
72084W        W36904  20.043  14.148   4.992
72085W        W36905  35.983  31.340   1.777
72086W        W36906  28.469   3.905  13.455
72087W        W36907   4.639  41.978   4.436
72088W        W36908   2.904  35.466  12.521
72089W        W36909  38.816  23.523  14.894
72090W        W36910  33.650  39.133  14.159
72091W        W36911  10.958  21.322   2.334
72092W        W36912  34.158  36.184  13.106
72093W        W36913  35.384  41.913  14.940
72094W        W36914  27.073   5.845   3.762
72095W        W36915  44.880  26.002   0.406
72096W        W36916  13.114  17.177   2.159
72097W        W36917  37.601  25.629   1.255
72098W        W36918  28.144   8.737  14.402
72099W        W36919   3.380  37.368  12.135
72100W        W36920  34.803  32.258   2.198
72101W        W36921  15.709  11.200   3.224
72102W        W36922   5.430   5.596  12.374
72103W        W36923  44.241  27.239   2.812
72104W        W36924  40.860  12.532   0.906
72105W        W36925  20.311  23.028  14.984
72106W        W36926   1.703  26.185  13.870
72107W        W36927  27.530   1.225  14.389
72108W        W36928  32.287  11.308   4.062
72109W        W36929  14.798  44.757  13.567
72110W        W36930  16.200  31.403  11.926
72111W        W36931  10.784  25.542   2.973
72112W        W36932  40.709  14.347   1.674
72113W        W36933  33.650  26.661   1.947
72114W        W36934   2.294   4.152   1.851
72115W        W36935  40.924  16.310  10.871
72116W        W36936  28.698   5.724   0.645
72117W        W36937  15.657  34.904  12.152
72118W        W36938  23.277  26.652   4.481
72119W        W36939   8.471   6.218   0.970
72120W        W36940  28.968  30.060  10.678
72121W        W36941  35.577   1.957   2.397
72122W        W36942  22.149  32.873  12.764
72123W        W36943  23.556  42.593  12.574
72124W        W36944  13.733  43.461  10.674
72125W        W36945  34.470  44.506  14.922
72126W        W36946  16.258  28.515  12.382
72127W        W36947  10.603  37.996  14.509
72128W        W36948  36.070  10.291  12.337
72129W        W36949  17.511  17.341   4.112
72130W        W36950  18.047  26.170  12.671
72131W        W36951   6.666  40.681   2.155
72132W        W36952  37.431   6.377  10.695
72133W        W36953  16.345  18.108  11.110
72134W        W36954   4.742  31.777   0.222
72135W        W36955  44.441  13.838  10.583
72136W        W36956  11.566  24.169  12.066
72137W        W36957   8.835  40.366   5.097
72138W        W36958  43.287  43.201   0.320
72139W        W36959  25.458  36.981  14.267
72140W        W36960  24.594  16.153   1.945
72141W        W36961  18.644  42.764  10.725
72142W        W36962   9.282  31.979   4.617
72143W        W36963  29.049  25.099  10.978
72144W        W36964  22.319  19.293   3.674
72145W        W36965  11.173  17.004   2.240
72146W        W36966  43.988  32.203   1.013
72147W        W36967   2.221  13.976  11.162
72148W        W36968   9.243  26.921  12.817
72149W        W36969  42.075  43.266  14.575
72150W        W36970  27.119   0.917  11.043
72151W        W36971   1.801   7.388   0.850
72152W        W36972   9.537  18.231  13.863
72153W        W36973  30.754  37.809   9.817
72154W        W36974   9.687  10.928   3.642
72155W        W36975  19.497   3.864  11.179
72156W        W36976  28.485  24.704   2.339
72157W        W36977  39.919  36.974  14.351
72158W        W36978   7.359  36.039  11.263
72159W        W36979  15.041  32.569   4.191
72160W        W36980  35.331  11.084   2.622
72161W        W36981  31.227  12.787   4.338
72162W        W36982  43.475  26.182   1.438
72163W        W36983  41.817   8.447  10.714
72164W        W36984  13.758  30.475   3.167
72165W        W36985  12.971  11.392  13.718
72166W        W36986   1.572  44.107  12.763
72167W        W36987  40.868  30.946  10.837
72168W        W36988   5.256  39.881  14.968
72169W        W36989  19.125   7.702   1.352
72170W        W36990  26.874  24.311   3.343
72171W        W36991  14.861  31.480  11.561
72172W        W36992  19.851  14.939  11.255
72173W        W36993  34.277  43.242   3.659
72174W        W36994   8.320  10.083  10.901
72175W        W36995  26.311  20.337   2.656
72176W        W36996  36.670   3.242   2.654
72177W        W36997   6.310  34.620  14.408
72178W        W36998  36.353  36.348  12.539
72179W        W36999  33.327  35.534  14.384
72180W        W37000   0.594  20.196   4.113
72181W        W37001  23.525  19.122   9.846
72182W        W37002  37.086  21.773   2.267
72183W        W37003  17.102  36.251  13.324
72184W        W37004  28.561  42.887  14.040
72185W        W37005  12.198  21.316  13.051
72186W        W37006  36.895   7.423  11.208
72187W        W37007  43.754   9.307   0.083
72188W        W37008  42.672  34.037  11.315
72189W        W37009   0.191  26.482  12.942
72190W        W37010  23.128  40.706  10.457
72191W        W37011   2.147   4.570  13.358
72192W        W37012  11.397  43.303   2.312
72193W        W37013  20.148   4.459  10.480
72194W        W37014  16.677   5.715   3.615
72195W        W37015  40.100  27.033  12.148
72196W        W37016  20.716  22.175   1.317
72197W        W37017  40.310  25.608   3.916
72198W        W37018   1.440  39.891  13.955
72199W        W37019  17.166  36.454  13.958
72200W        W37020  43.028   0.124   4.286
72201W        W37021  19.043  25.260  14.033
72202W        W37022  19.775  34.689   0.330
72203W        W37023  16.720  38.619   3.193
72204W        W37024  25.981   2.378   1.156
72205W        W37025  23.839  38.865  13.851
72206W        W37026   3.840  29.744  11.082
72207W        W37027  13.389   9.111  13.535
72208W        W37028   6.404  20.504  12.520
72209W        W37029   0.562  18.059  12.380
72210W        W37030  17.029  27.630  12.948
72211W        W37031  17.655  21.576   4.725
72212W        W37032  42.310  10.041  14.442
72213W        W37033   6.593  42.285   4.006
72214W        W37034  22.683  38.843   0.334
72215W        W37035  41.636   3.409  12.117
72216W        W37036  43.183  33.965  11.810
72217W        W37037  31.498   3.266   0.306
72218W        W37038  36.601  13.149   4.159
72219W        W37039  40.588  37.942  13.968
72220W        W37040  33.037  15.252   4.558
72221W        W37041  13.439  36.821   3.038
72222W        W37042  17.881  26.819   2.739
72223W        W37043  20.461   5.739  13.307
72224W        W37044  25.655  19.453   0.224
72225W        W37045  25.442  36.410   3.850
72226W        W37046  31.951  17.672  11.140
72227W        W37047  41.762  23.985   3.180
72228W        W37048  43.987  17.899  13.298
72229W        W37049  12.073  44.254   0.848
72230W        W37050  38.530  43.465  13.552
72231W        W37051   0.184  39.602  12.050
72232W        W37052  13.107  41.743   4.051
72233W        W37053  38.606  27.686   0.827
72234W        W37054  20.386  28.295  12.158
72235W        W37055  36.719  23.262   1.815
72236W        W37056  17.650  42.471  10.594
72237W        W37057  37.846  41.836   4.834
72238W        W37058  31.105   8.123  11.902
72239W        W37059  34.643  29.870   0.305
72240W        W37060   3.356   0.516   2.198
72241W        W37061   1.240  36.356  10.722
72242W        W37062  13.111  33.353  14.160
72243W        W37063   5.378  39.278  12.445
72244W        W37064  37.939  32.921   2.993
72245W        W37065   4.916   8.812  10.330
72246W        W37066  20.424  31.097  13.269
72247W        W37067  14.233  41.380   4.686
72248W        W37068  23.106   1.238  11.499
72249W        W37069  14.611   4.733   0.681
72250W        W37070  16.871  29.050   3.735
72251W        W37071  29.619  24.069  14.293
72252W        W37072  37.442  13.868  12.861
72253W        W37073   0.928  39.716   1.834
72254W        W37074   4.836  33.400  14.530
72255W        W37075   4.200  17.218   3.124
72256W        W37076  10.453  20.062   1.841
72257W        W37077  26.129  13.066   3.372
72258W        W37078   6.040   2.799  13.948
72259W        W37079  29.423  44.338   5.071
72260W        W37080  17.263  35.446  13.085
72261W        W37081  32.942   2.375   1.473
72262W        W37082  21.058  32.294   0.322
72263W        W37083   6.578   2.038   4.765
72264W        W37084  31.593   8.182  14.996
72265W        W37085   3.250  30.345   3.251
72266W        W37086  29.882  39.736   2.753
72267W        W37087  37.849  18.802   0.809
72268W        W37088  31.529  32.797   0.452
72269W        W37089  27.199   6.820   1.349
72270W        W37090  17.324  36.887  11.660
72271W        W37091  28.712  36.537  11.244
72272W        W37092   8.702  35.342   2.716
72273W        W37093  39.076   5.911  12.954
72274W        W37094  15.806   9.412  11.554
72275W        W37095  31.946  37.615  11.524
72276W        W37096  20.480   0.494  12.535
72277W        W37097  20.695   4.117   2.817
72278W        W37098   9.769   4.774   1.954
72279W        W37099  11.251  37.499  14.439
72280W        W37100  26.688  42.371  13.076
72281W        W37101  35.925  34.611  14.316
72282W        W37102  28.399  23.745  13.259
72283W        W37103  12.811   8.611   3.834
72284W        W37104   4.229  42.081  13.967
72285W        W37105   9.299  32.943   3.139
72286W        W37106   2.396  14.012   3.692
72287W        W37107  31.940  35.840   4.183
72288W        W37108  41.534  15.661  14.768
72289W        W37109   1.805  41.471   0.219
72290W        W37110  17.696  15.569   4.567
72291W        W37111  18.779  28.279   0.734
72292W        W37112   2.450  19.702   0.432
72293W        W37113  34.380  33.924  14.851
72294W        W37114  44.608  42.459   4.546
72295W        W37115  17.075  30.637  13.947
72296W        W37116   9.857  19.785   2.675
72297W        W37117  30.079  15.844  11.612
72298W        W37118  34.483  10.178   3.378
72299W        W37119  39.337  37.416   4.567
72300W        W37120  32.193  13.632  11.855
72301W        W37121  15.773  29.130  10.193
72302W        W37122  37.683   5.724   1.175
72303W        W37123  15.213  29.390  12.072
72304W        W37124   6.349  41.535   2.260
72305W        W37125  27.680  18.998   3.677
72306W        W37126  27.680  31.205   1.716
72307W        W37127  36.960  11.511  10.673
72308W        W37128   2.340  12.932  11.216
72309W        W37129  13.818  39.067  12.076
72310W        W37130  23.166  32.677  14.086
72311W        W37131  40.793  44.743  10.451
72312W        W37132  43.085   7.863  11.551
72313W        W37133  34.994  25.309  13.522
72314W        W37134  17.686   1.299   4.935
72315W        W37135  21.760  42.028  12.448
72316W        W37136  24.427  42.516   3.768
72317W        W37137  27.114  16.339  12.379
72318W        W37138  29.819  14.145   3.740
72319W        W37139  24.921  38.221   4.910
72320W        W37140  34.311  11.759   1.087
72321W        W37141  18.296  41.990   0.280
72322W        W37142  40.696  23.201   3.654
72323W        W37143  12.408  13.127   0.564
72324W        W37144  42.081  22.369  14.563
72325W        W37145  31.208  33.940   0.873
72326W        W37146  15.030   0.370  14.350
72327W        W37147  31.678  21.592  14.512
72328W        W37148  12.038   6.897   3.740
72329W        W37149  41.480  30.001   1.164
72330W        W37150  33.998  13.769   3.199
72331W        W37151  13.125  44.258   0.907
72332W        W37152  25.497  38.970  12.792
72333W        W37153  36.834  24.626   0.898
72334W        W37154  16.087   0.847  11.633
72335W        W37155  28.279  18.009   3.669
72336W        W37156  37.278   6.835  13.773
72337W        W37157  31.111  13.737   2.306
72338W        W37158  32.786  23.564  14.935
72339W        W37159  32.102  29.778   1.393
72340W        W37160  26.067  42.788   4.821
72341W        W37161  16.283  25.460   2.374
72342W        W37162   6.764  15.593  11.976
72343W        W37163  34.078  20.334  10.385
72344W        W37164  26.903  21.051   0.396
72345W        W37165  20.872   6.519  12.432
72346W        W37166  32.458  36.469   3.741
72347W        W37167  42.546  27.240  13.133
72348W        W37168  29.656  37.497   0.641
72349W        W37169   8.078  14.756   2.919
72350W        W37170  37.781   7.693   4.011
72351W        W37171  14.039   1.279  11.870
72352W        W37172   7.159  38.968  14.381
72353W        W37173  38.695  13.406  11.942
72354W        W37174  43.191   6.313   4.667
72355W        W37175  27.033  40.582  11.917
72356W        W37176  29.172   5.497   2.191
72357W        W37177   8.948  36.025   4.586
72358W        W37178   2.516   2.030  13.046
72359W        W37179   7.204  43.831  12.960
72360W        W37180  21.105  40.091  13.488
72361W        W37181   4.475   6.847  13.003
72362W        W37182  22.196  29.600   1.686
72363W        W37183  24.269   6.009  13.980
72364W        W37184  38.934  15.284  12.846
72365W        W37185   7.840   2.671   4.840
72366W        W37186  11.213   8.379   3.957
72367W        W37187  15.692  39.410  13.517
72368W        W37188   3.903  25.557  10.705
72369W        W37189   5.927   9.226  11.633
72370W        W37190  13.353  26.588   1.259
72371W        W37191  12.918  26.062   3.246
72372W        W37192  24.241  37.011  11.487
72373W        W37193  36.495  31.535  14.974
72374W        W37194   8.372  20.509  11.634
72375W        W37195  37.454  35.969  14.865
72376W        W37196  33.926  21.501   1.717
72377W        W37197  19.903  19.639   1.801
72378W        W37198  41.455  23.147  14.018
72379W        W37199  23.072  36.549   4.190
72380W        W37200   7.202  38.807   0.406
72381W        W37201  27.419  16.268   3.635
72382W        W37202  37.047  18.281  14.480
72383W        W37203  33.966  16.031  14.539
72384W        W37204  15.458   4.731   0.311
72385W        W37205  10.677  23.586   0.518
72386W        W37206  33.937  12.089   1.221
72387W        W37207   5.162  39.035  14.375
72388W        W37208   0.438  44.997  11.354
72389W        W37209  35.253   1.018  14.248
72390W        W37210  13.897  35.550   4.850
72391W        W37211  11.308  15.198   1.214
72392W        W37212  22.591   5.922   4.510
72393W        W37213  44.320  41.474   3.651
72394W        W37214  19.629   6.790  12.536
72395W        W37215  30.252  26.706  14.347
72396W        W37216  15.210  44.324  10.495
72397W        W37217  38.326  17.015   1.720
72398W        W37218  11.141  37.868   3.709
72399W        W37219   3.159  43.356   1.432
72400W        W37220  14.719  44.462   1.803
72401W        W37221  18.484   5.743   9.642
72402W        W37222  30.025   0.202   4.221
72403W        W37223   0.701  40.387   3.689
72404W        W37224   4.452  25.929  13.060
72405W        W37225   9.487  26.681   2.530
72406W        W37226  40.264  43.511  13.135
72407W        W37227  35.615  11.406  13.966
72408W        W37228  22.766  11.566  11.928
72409W        W37229  18.490  26.434  12.955
72410W        W37230  18.934  14.529  10.768
72411W        W37231  42.499  30.068   3.951
72412W        W37232  34.878  36.280   3.414
72413W        W37233  25.195  36.595   2.454
72414W        W37234  26.678  13.661   4.123
72415W        W37235  24.750  20.686   2.212
72416W        W37236  31.085   2.729  11.671
72417W        W37237  17.791  38.103   0.935
72418W        W37238  27.157   3.371   1.243
72419W        W37239  23.472  41.418   1.669
72420W        W37240  37.622  36.478   1.707
72421W        W37241  43.465   7.179   2.638
72422W        W37242  35.605  23.043   1.251
72423W        W37243  18.587  10.979  11.682
72424W        W37244   7.855  44.353   3.359
72425W        W37245  44.731  41.360   3.967
72426W        W37246   5.376  12.750  13.966
72427W        W37247  31.407  28.997  12.063
72428W        W37248  43.764  22.984   0.388
72429W        W37249  26.074   1.316   0.880
72430W        W37250   0.325  24.272  13.390
72431W        W37251  34.784  33.609   2.657
72432W        W37252  29.450  31.143   1.837
72433W        W37253   8.718  20.913  11.459
72434W        W37254   4.328   3.542  10.956
72435W        W37255  43.541  23.952   1.865
72436W        W37256  36.183  25.411   0.271
72437W        W37257   6.438   7.382  11.681
72438W        W37258  41.525   1.978   4.072
72439W        W37259  24.480  42.942  10.505
72440W        W37260   2.313   3.266  11.058
72441W        W37261  14.575  38.943  14.639
72442W        W37262  35.982  34.992   1.226
72443W        W37263  28.005  30.840   1.512
72444W        W37264  42.907   4.394  13.301
72445W        W37265  30.769  11.859   2.094
72446W        W37266  29.445  42.590   4.740
72447W        W37267  19.383  28.082  12.923
72448W        W37268   9.765  29.685   3.250
72449W        W37269  29.120  42.882  13.374
72450W        W37270   1.470   6.935   1.366
72451W        W37271   0.736   4.387   2.775
72452W        W37272  39.622  21.221   2.211
72453W        W37273  16.484   6.076  12.660
72454W        W37274  24.611   4.407  14.534
72455W        W37275  33.616  31.164  11.169
72456W        W37276  16.782  34.612   4.092
72457W        W37277  21.701  43.144  13.815
72458W        W37278  10.650  14.679  11.116
72459W        W37279  24.717   0.734   3.217
72460W        W37280   0.243  12.576  10.420
72461W        W37281  27.760   0.771  14.397
72462W        W37282   6.646  13.649   0.517
72463W        W37283  35.998  43.908  14.409
72464W        W37284  16.672  25.338   2.760
72465W        W37285   1.504  23.492   4.779
72466W        W37286  25.286  24.505   4.153
72467W        W37287   8.387  19.083  12.099
72468W        W37288  12.728   4.505  12.463
72469W        W37289  13.697   0.447  13.910
72470W        W37290   5.271  35.740  14.371
72471W        W37291  30.966  19.276   9.828
72472W        W37292  13.375  19.359  13.309
72473W        W37293  30.158  43.283   3.258
72474W        W37294  37.442  10.854   0.888
72475W        W37295  25.653   0.919   4.202
72476W        W37296  26.986  34.550  12.887
72477W        W37297  26.651  15.647  13.586
72478W        W37298  15.363   4.208  11.211
72479W        W37299   6.818  42.746   4.123
72480W        W37300  25.821  18.556  12.501
72481W        W37301  37.878   0.391   0.972
72482W        W37302  40.000  35.829   2.454
72483W        W37303  26.772   4.519  11.691
72484W        W37304   6.131  40.989   4.253
72485W        W37305  39.852  23.814  12.584
72486W        W37306   1.318  11.436   3.268
72487W        W37307  31.090  25.229  13.878
72488W        W37308  23.167  15.066   2.193
72489W        W37309  30.048  33.190   0.756
72490W        W37310  42.050   0.632   0.074
72491W        W37311  26.739  17.781   3.051
72492W        W37312  43.811  31.986  10.672
72493W        W37313  30.221  36.996   1.493
72494W        W37314  22.576  39.531   1.762
72495W        W37315  13.694   4.323   2.106
72496W        W37316  41.317  21.008  11.639
72497W        W37317  16.789  12.725   2.709
72498W        W37318  30.079   3.435   2.694
72499W        W37319   2.506  16.159  10.477
72500W        W37320   8.258  25.696   5.311
72501W        W37321  13.262  16.319  12.908
72502W        W37322  18.640  27.027   0.159
72503W        W37323  36.960  31.698  12.853
72504W        W37324  39.609  16.804   1.421
72505W        W37325  15.257  13.097   2.223
72506W        W37326  16.736  26.316  11.579
72507W        W37327  14.628   5.876  10.549
72508W        W37328  12.268  20.271   1.376
72509W        W37329  13.191  22.277  12.813
72510W        W37330  37.561   8.409  12.504
72511W        W37331   1.440  16.079   2.715
72512W        W37332  35.135  36.449   0.307
72513W        W37333  44.036  36.594   4.159
72514W        W37334   7.679  15.412   4.992
72515W        W37335  14.458  21.327   2.788
72516W        W37336  10.201   2.609  10.620
72517W        W37337  19.023   8.667  13.655
72518W        W37338  25.515  28.982  12.003
72519W        W37339  41.567  40.565  12.625
72520W        W37340   9.119  23.146  12.118
72521W        W37341  11.613  16.909   0.375
72522W        W37342   2.904   6.288  11.438
72523W        W37343  44.201   1.295  13.126
72524W        W37344  14.574  21.067   4.127
72525W        W37345   6.793  30.172   3.720
72526W        W37346  31.485  36.843  14.743
72527W        W37347  28.915  23.704  13.335
72528W        W37348  16.568  30.899  11.563
72529W        W37349  33.694  37.512   1.745
72530W        W37350  32.514  20.619   2.222
72531W        W37351  33.304  40.840   4.569
72532W        W37352  18.202  22.807  14.009
72533W        W37353  15.391   0.756  14.352
72534W        W37354  42.784  10.244  14.288
72535W        W37355  37.336   5.858   2.392
72536W        W37356  20.322  34.872   3.760
72537W        W37357  32.200  10.186  11.109
72538W        W37358   7.342  13.104   2.291
72539W        W37359  41.515  41.065  12.465
72540W        W37360   5.388  43.053   4.645
72541W        W37361  34.391  16.358  14.574
72542W        W37362   4.228   6.389  14.315
72543W        W37363  41.358  38.057   2.808
72544W        W37364  21.436  27.957   9.975
72545W        W37365  30.138  36.743   4.551
72546W        W37366  16.691  43.549   1.273
72547W        W37367   5.841   0.750  12.447
72548W        W37368  22.315  21.588   4.604
72549W        W37369  13.904  28.199   3.423
72550W        W37370  34.825  42.155   1.761
72551W        W37371  16.177  25.736   3.727
72552W        W37372  41.640  31.600  11.071
72553W        W37373  43.019  30.966  13.691
72554W        W37374  17.214  23.890  11.109
72555W        W37375  44.985  12.843  13.514
72556W        W37376  42.185  38.303   1.330
72557W        W37377  24.795  38.192   4.414
72558W        W37378  12.416   9.283  11.691
72559W        W37379   8.758  28.144  13.462
72560W        W37380  37.560   4.965   2.738
72561W        W37381  30.515  41.456  14.966
72562W        W37382  28.104  21.590   2.713
72563W        W37383  13.447  23.127  13.295
72564W        W37384  41.371   1.709  10.583
72565W        W37385  35.961  10.731   1.636
72566W        W37386  36.897  15.508  14.696
72567W        W37387  37.351  43.233   4.145
72568W        W37388  11.194  23.448  14.409
72569W        W37389   3.522   1.144   3.534
72570W        W37390  11.344  23.507  14.906
72571W        W37391   8.054  40.507   0.525
72572W        W37392  19.123  13.729   5.005
72573W        W37393  14.089  27.369   0.758
72574W        W37394  18.479  17.127   4.388
72575W        W37395  39.743  42.702   0.658
72576W        W37396  28.655  38.849  13.849
72577W        W37397  15.791  10.127  10.690
72578W        W37398  20.342  10.133   1.932
72579W        W37399   8.304  17.741  13.954
72580W        W37400   6.821  21.173  12.975
72581W        W37401  39.798   6.061   2.652
72582W        W37402  38.473  31.174   1.327
72583W        W37403  22.738  17.192  11.727
72584W        W37404  14.756  39.337   4.102
72585W        W37405   6.212  26.454  11.112
72586W        W37406  21.150   5.675   3.697
72587W        W37407  28.908  39.299   4.598
72588W        W37408  43.461  22.057   0.263
72589W        W37409  26.208  10.556  11.797
72590W        W37410   3.991   5.741   2.230
72591W        W37411  41.458  44.643  12.073
72592W        W37412  36.607  12.745   3.704
72593W        W37413  22.777  11.291   3.747
72594W        W37414  29.407  16.035   4.017
72595W        W37415  25.657  13.339   1.785
72596W        W37416  42.544   4.510   3.167
72597W        W37417  11.776  14.438  12.973
72598W        W37418  15.771   5.463   2.187
72599W        W37419  18.578  31.691   0.496
72600W        W37420  19.849  34.052   1.435
72601W        W37421  41.593   5.046   0.847
72602W        W37422  36.807   6.974   2.742
72603W        W37423   6.623  42.773   1.572
72604W        W37424  34.280  11.920  10.172
72605W        W37425   9.787  36.519  14.727
72606W        W37426  31.150  39.563  14.713
72607W        W37427  35.626   2.295   2.004
72608W        W37428  37.532  24.968  11.592
72609W        W37429   1.649  28.766   4.121
72610W        W37430  39.518  32.182  12.338
72611W        W37431  26.743  14.828  11.138
72612W        W37432  38.460  42.776  12.726
72613W        W37433   1.392   6.171   4.107
72614W        W37434   6.730  24.901  13.536
72615W        W37435  38.526  41.843  11.101
72616W        W37436   2.511   8.551   0.757
72617W        W37437  23.557  11.289  10.948
72618W        W37438  29.968  39.964  11.890
72619W        W37439  17.759  23.178  11.311
72620W        W37440  43.913  14.195   1.845
72621W        W37441   4.403  18.706  14.726
72622W        W37442  42.453  43.933  13.861
72623W        W37443   1.273   3.479   2.425
72624W        W37444  19.891  25.048   4.387
72625W        W37445   9.261   2.291  10.822
72626W        W37446  31.610  10.071  11.183
72627W        W37447  44.050  38.958   0.723
72628W        W37448  11.211  28.008   0.399
72629W        W37449  11.618   7.487  10.432
72630W        W37450  20.607  39.457  14.732
72631W        W37451  11.812  37.572   3.733
72632W        W37452  23.730  41.491  10.779
72633W        W37453  10.723  13.270   4.599
72634W        W37454   6.616  15.153  12.916
72635W        W37455  28.668  16.088   4.909
72636W        W37456   8.087  36.424  14.007
72637W        W37457   2.259  37.546   1.240
72638W        W37458   5.303  39.103  10.520
72639W        W37459  25.132  43.669   1.286
72640W        W37460   1.169   3.672   0.762
72641W        W37461  40.791  26.568   3.314
72642W        W37462  27.452  38.395  13.488
72643W        W37463  14.643  20.799   2.063
72644W        W37464  15.225  14.828  10.178
72645W        W37465  39.288  21.655  10.929
72646W        W37466  20.469   8.802  14.092
72647W        W37467   9.277   4.167   0.381
72648W        W37468  18.626  12.838   4.231
72649W        W37469  25.452   3.937  11.212
72650W        W37470  23.554  19.541   0.783
72651W        W37471  41.485  36.249  13.672
72652W        W37472  29.591  13.777  10.807
72653W        W37473  33.920  17.073  14.307
72654W        W37474  21.246  26.648  11.992
72655W        W37475   2.563  29.149   4.118
72656W        W37476  42.825  23.290   3.707
72657W        W37477  29.382  28.702   2.308
72658W        W37478  10.451  39.026   3.675
72659W        W37479  34.190  18.612   4.218
72660W        W37480  33.060  21.069   0.610
72661W        W37481   2.356  10.801   3.421
72662W        W37482  28.503  37.040  13.424
72663W        W37483  33.371  44.363  11.270
72664W        W37484  41.328  10.092  11.537
72665W        W37485   3.288  29.151  14.344
72666W        W37486  15.636  36.469   0.440
72667W        W37487   2.128  38.827   0.938
72668W        W37488  23.228  43.475  10.729
72669W        W37489   3.874  29.437   2.840
72670W        W37490  29.783  12.866  10.731
72671W        W37491   3.676  32.019   0.834
72672W        W37492  30.280  21.781  10.273
72673W        W37493  38.829  39.280  13.908
72674W        W37494  26.514  30.768  13.815
72675W        W37495  39.154   0.506   3.757
72676W        W37496   8.185  44.263   3.802
72677W        W37497  38.265  37.891  10.608
72678W        W37498  43.960   8.474   0.244
72679W        W37499  25.547  34.376   5.557
72680W        W37500  11.122  32.536  11.439
72681W        W37501  33.473  42.478  12.355
72682W        W37502  25.280  44.985   4.078
72683W        W37503  25.439  10.796  11.768
72684W        W37504  15.744  21.350   3.144
72685W        W37505  10.791  39.004  10.602
72686W        W37506  24.137  35.798  11.250
72687W        W37507  18.912  21.571  14.516
72688W        W37508  24.613  36.875   1.706
72689W        W37509  38.477  36.026  11.921
72690W        W37510  23.248  10.380  13.545
72691W        W37511  44.809  16.372  10.600
72692W        W37512  34.040  30.132  12.105
72693W        W37513  41.166  16.267   3.091
72694W        W37514  42.010  42.237  11.696
72695W        W37515   6.233  17.061   0.571
72696W        W37516  37.796   4.442   0.382
72697W        W37517  18.445  10.618  14.273
72698W        W37518  18.115  29.185  14.587
72699W        W37519  44.306   9.120   3.682
72700W        W37520  33.443   3.919   1.707
72701W        W37521  23.222  36.816  13.475
72702W        W37522   5.660   0.577  11.185
72703W        W37523  33.636  32.339  11.968
72704W        W37524  39.447  16.317  12.610
72705W        W37525  19.133  11.459   0.429
72706W        W37526  40.436  18.147   2.903
72707W        W37527  32.198  25.482   0.786
72708W        W37528  31.896  23.123   3.421
72709W        W37529  10.694  35.604  11.971
72710W        W37530   8.043  37.368   3.121
72711W        W37531  20.628  30.389   2.265
72712W        W37532  24.665  13.230   4.649
72713W        W37533  15.150   7.155  13.659
72714W        W37534  14.796  20.587  14.192
72715W        W37535  29.787   8.547   2.098
72716W        W37536   1.739   1.230  14.032
72717W        W37537  25.657  10.473   4.425
72718W        W37538  15.583  12.442  13.581
72719W        W37539  40.105  32.134   4.500
72720W        W37540   8.632  19.050  11.625
72721W        W37541   8.812  11.624   2.256
72722W        W37542  14.128  44.812  14.824
72723W        W37543  38.595  23.181   2.731
72724W        W37544   5.390  17.741   4.891
72725W        W37545   6.981  26.000   0.467
72726W        W37546  31.162  12.823   3.844
72727W        W37547   1.724   8.668   0.509
72728W        W37548  16.818  12.811  13.489
72729W        W37549  17.019   6.433  13.253
72730W        W37550  13.793  41.850  12.167
72731W        W37551  24.715  40.847   2.041
72732W        W37552  32.209  30.953   4.134
72733W        W37553  41.117  37.436  14.523
72734W        W37554  33.511  39.407   1.268
72735W        W37555  32.565  37.673  10.696
72736W        W37556  27.724  39.048   4.301
72737W        W37557   5.053   9.514  14.906
72738W        W37558  31.120  27.173   0.985
72739W        W37559  33.786  43.864  14.766
72740W        W37560   9.510   6.525   1.856
72741W        W37561  16.364  23.189  11.505
72742W        W37562  19.159  12.792  12.307
72743W        W37563  17.840  34.410  13.768
72744W        W37564  39.390  31.081   1.703
72745W        W37565   7.678  16.135   1.843
72746W        W37566  17.656   2.214  14.404
72747W        W37567   8.668  39.063   1.011
72748W        W37568  17.796  44.842   4.065
72749W        W37569  20.354  32.340  12.132
72750W        W37570  28.407   5.635   4.288
72751W        W37571   3.700  11.123   0.206
72752W        W37572  23.439   7.507   2.173
72753W        W37573  35.633  34.604   1.086
72754W        W37574  12.965  31.934   0.556
72755W        W37575  25.972  18.199  11.400
72756W        W37576  25.801   3.703   0.976
72757W        W37577  35.104  37.780   1.865
72758W        W37578  11.407   7.715  12.111
72759W        W37579  17.753  33.782  12.501
72760W        W37580  37.822  15.675   4.584
72761W        W37581  28.037  35.343  12.941
72762W        W37582  24.032  12.352   1.807
72763W        W37583  12.641  39.498   2.724
72764W        W37584  26.185  32.333   1.455
72765W        W37585  30.016  31.644   3.391
72766W        W37586  35.575  21.023  13.401
72767W        W37587   6.466  32.031   0.647
72768W        W37588  35.809   2.015  12.893
72769W        W37589   1.660  31.329   4.260
72770W        W37590  37.297  39.384   3.352
72771W        W37591  28.120  23.609  12.001
72772W        W37592  10.757  31.883   1.460
72773W        W37593   2.704  11.714  10.594
72774W        W37594  23.986  14.920  14.995
72775W        W37595  39.795  21.832   3.015
72776W        W37596  19.591   3.836   0.533
72777W        W37597  37.998  42.475   1.369
72778W        W37598  35.454   1.274   3.461
72779W        W37599  39.336   3.448   3.248
72780W        W37600  21.986  30.320  10.665
72781W        W37601  10.701  22.732   2.196
72782W        W37602  22.472  44.302   0.092
72783W        W37603  14.920  14.773  12.206
72784W        W37604  33.471   8.500  14.994
72785W        W37605  39.180  33.542  14.339
72786W        W37606  43.270  30.005   1.944
72787W        W37607  16.306  38.438  11.980
72788W        W37608  28.671  27.627   2.575
72789W        W37609  13.733  15.592   3.609
72790W        W37610  23.546  44.041   3.723
72791W        W37611   3.913  44.706   3.144
72792W        W37612  23.159   8.863  11.570
72793W        W37613  36.279  36.550   2.201
72794W        W37614  38.745  11.988   2.189
72795W        W37615   5.218  10.247   0.279
72796W        W37616  41.465  44.477  10.650
72797W        W37617  43.940  31.875   0.564
72798W        W37618  20.520   7.874   3.595
72799W        W37619  13.361   0.064   2.807
72800W        W37620   8.502  20.242   2.735
72801W        W37621  39.813  43.477  11.586
72802W        W37622  24.527  15.372  12.897
72803W        W37623  20.741  22.132  14.418
72804W        W37624  18.521  11.881  14.983
72805W        W37625  26.473  34.431  12.860
72806W        W37626  30.978  26.456  11.165
72807W        W37627  35.102  29.462  14.016
72808W        W37628  30.744  35.554  14.075
72809W        W37629   9.353  11.323   2.771
72810W        W37630  38.789  44.038  13.009
72811W        W37631  41.249  42.435  14.639
72812W        W37632  41.921  31.431   1.705
72813W        W37633  40.012  24.084   2.896
72814W        W37634   9.445   5.881  10.578
72815W        W37635  19.263  34.833  12.483
72816W        W37636   0.240  28.998  11.944
72817W        W37637  16.701  33.602   1.399
72818W        W37638  10.696  21.942  12.598
72819W        W37639  12.240  10.406  14.836
72820W        W37640  29.542  29.594  11.218
72821W        W37641   9.363   4.906   3.157
72822W        W37642   6.662   4.880  14.756
72823W        W37643   6.707  10.395   3.836
72824W        W37644  27.987  14.073   0.883
72825W        W37645  21.106  28.192  13.873
72826W        W37646  35.020  18.341  13.968
72827W        W37647  17.408  29.229   1.823
72828W        W37648   5.008  35.432  11.471
72829W        W37649  41.498  27.861   5.405
72830W        W37650   2.290  10.594   1.680
72831W        W37651  21.185  15.257   4.347
72832W        W37652  29.919  13.140   2.783
72833W        W37653   3.433   4.904   0.392
72834W        W37654  15.736  28.208   3.076
72835W        W37655  42.279  31.698   3.243
72836W        W37656  13.522  11.619   0.893
72837W        W37657  26.458  39.575  11.030
72838W        W37658  13.822  14.700  13.740
72839W        W37659  42.775  23.724   2.359
72840W        W37660  23.459  37.449   5.101
72841W        W37661  20.255  12.670   1.767
72842W        W37662  25.687  36.920   1.907
72843W        W37663  26.722  44.848   2.257
72844W        W37664  25.382  35.024  13.309
72845W        W37665  42.383   6.554  12.932
72846W        W37666  38.309  29.096  11.144
72847W        W37667  19.267  15.421   4.966
72848W        W37668   0.629  26.370  11.617
72849W        W37669  39.377  13.791  12.074
72850W        W37670  15.864  30.160   2.585
72851W        W37671  39.791  15.097  14.874
72852W        W37672   6.217  39.945   4.252
72853W        W37673  17.212   6.223  11.077
72854W        W37674  41.026  13.630   2.603
72855W        W37675   0.995  20.047   5.062
72856W        W37676  25.505  13.339   4.692
72857W        W37677  40.101  32.711  11.735
72858W        W37678   8.859   9.263  12.087
72859W        W37679  41.828   1.912   0.683
72860W        W37680  19.230  22.119   4.090
72861W        W37681   6.666  10.555  11.549
72862W        W37682  41.724  44.999   0.890
72863W        W37683   2.117  44.267  14.702
72864W        W37684  43.571  39.788   3.178
72865W        W37685  26.670  33.905   1.371
72866W        W37686  31.914  19.277  14.457
72867W        W37687   8.629  37.392  11.122
72868W        W37688   1.466  19.443   3.563
72869W        W37689  27.631  21.526  14.029
72870W        W37690  26.999  17.249   0.938
72871W        W37691   7.401  17.518  11.096
72872W        W37692  28.109  33.347  11.483
72873W        W37693  14.629  38.836   4.124
72874W        W37694  35.825   6.279   1.420
72875W        W37695   8.503  31.158  13.409
72876W        W37696  25.557  24.851  11.514
72877W        W37697  32.064  27.493  14.077
72878W        W37698   9.889  36.099  13.829
72879W        W37699  43.283  23.686  13.939
72880W        W37700   1.132  24.689  11.011
72881W        W37701  41.347  34.617   1.778
72882W        W37702  31.903  37.873   2.695
72883W        W37703  44.978  15.743  14.274
72884W        W37704  35.371  17.488  10.703
72885W        W37705  28.156  18.183  14.093
72886W        W37706  42.384  22.606   2.298
72887W        W37707  24.987   6.125  14.467
72888W        W37708   9.858  26.662  13.537
72889W        W37709   8.273  22.465   0.741
72890W        W37710  42.876  20.249   2.204
72891W        W37711  37.483  42.070   2.767
72892W        W37712  35.426  43.240  11.495
72893W        W37713  12.704  20.539   4.356
72894W        W37714  35.603  31.552   1.238
72895W        W37715   9.893  28.454  12.234
72896W        W37716  25.962  28.494  13.645
72897W        W37717  29.691   4.216  13.695
72898W        W37718  41.544  44.138  11.897
72899W        W37719  21.344  39.460  11.605
72900W        W37720  33.011  24.041  11.430
72901W        W37721  19.636  31.392  11.652
72902W        W37722  34.597   4.199   2.241
72903W        W37723  27.571  29.640  12.423
72904W        W37724  43.214  16.077   3.524
72905W        W37725  33.912   6.315  11.871
72906W        W37726  42.947  41.119   1.820
72907W        W37727  28.827   7.315   0.023
72908W        W37728  35.922  24.764  11.416
72909W        W37729   2.366  22.808  12.477
72910W        W37730  15.185  23.985  12.953
72911W        W37731  33.422   5.860   2.165
72912W        W37732  43.568  18.116  11.614
72913W        W37733  16.064  13.163   4.037
72914W        W37734  44.852  40.710   3.319
72915W        W37735  15.258  44.444  12.975
72916W        W37736  25.189  21.956   0.923
72917W        W37737  11.085  11.219   1.846
72918W        W37738   5.715  39.839  14.721
72919W        W37739  10.196  43.391  14.044
72920W        W37740  33.916  23.003   3.203
72921W        W37741  43.351  10.106   4.905
72922W        W37742  13.242   2.206   3.637
72923W        W37743  37.595   9.056   9.969
72924W        W37744  18.383   1.440  11.777
72925W        W37745  19.696   4.699   4.527
72926W        W37746   8.840   1.905  11.958
72927W        W37747  17.557   8.482   2.958
72928W        W37748  16.237  18.325   4.118
72929W        W37749  43.877  32.112   4.104
72930W        W37750  31.786   4.753  13.946
72931W        W37751  25.554   2.578  11.556
72932W        W37752   5.918  29.047  13.479
72933W        W37753   9.605  37.041   4.520
72934W        W37754  31.444   4.007  14.187
72935W        W37755  30.853  41.566  13.492
72936W        W37756  13.317   6.812  12.977
72937W        W37757  41.435   4.711  10.545
72938W        W37758  18.072  41.345  14.560
72939W        W37759  25.038  40.053   3.040
72940W        W37760  16.087  23.625   0.749
72941W        W37761  43.864  31.529  14.780
72942W        W37762  29.032  25.164   2.757
72943W        W37763  32.126  20.784  12.737
72944W        W37764  31.196  19.279  14.903
72945W        W37765  33.354  25.186  12.817
72946W        W37766   2.587  14.958   3.711
72947W        W37767  40.439   6.776   2.690
72948W        W37768  31.302  31.167  14.776
72949W        W37769  10.332  17.061  14.839
72950W        W37770  23.974  44.959   3.604
72951W        W37771   7.715  34.005  11.458
72952W        W37772  21.739  14.604  10.519
72953W        W37773   3.373   9.798  12.571
72954W        W37774  40.050  12.643   3.270
72955W        W37775  33.319  12.659   2.257
72956W        W37776  11.906   5.140  13.535
72957W        W37777  14.610  44.211  14.066
72958W        W37778  14.599  18.088   1.308
72959W        W37779  22.175  13.009  12.781
72960W        W37780  42.327  39.390   1.723
72961W        W37781   1.564  43.539  11.558
72962W        W37782   6.359  44.611   4.707
72963W        W37783   5.987  20.348  11.051
72964W        W37784  22.291   0.270  13.626
72965W        W37785  26.171  36.332   0.422
72966W        W37786  40.447  11.604  14.478
72967W        W37787  34.836  15.267   4.213
72968W        W37788   9.617  17.893   1.093
72969W        W37789  42.218  42.545   0.508
72970W        W37790  21.941  33.909   3.937
72971W        W37791  19.404   9.313  12.558
72972W        W37792   1.423  23.959  12.660
72973W        W37793  34.870  34.233   1.854
72974W        W37794   4.767  29.941  10.748
72975W        W37795   1.779  40.904   2.498
72976W        W37796  15.751   6.201   4.880
72977W        W37797   8.673  28.617  14.938
72978W        W37798  26.227   1.984  14.561
72979W        W37799   0.139   3.034   2.772
72980W        W37800   5.742  43.273   1.290
72981W        W37801  17.944   0.805  14.922
72982W        W37802  28.688  11.776   1.837
72983W        W37803  24.377  32.121  13.493
72984W        W37804  44.434   1.995  10.354
72985W        W37805   4.191  20.187   2.409
72986W        W37806  34.158  35.529   4.588
72987W        W37807  33.992  41.350  12.974
72988W        W37808  17.147   2.388   2.868
72989W        W37809   8.716  38.953   1.853
72990W        W37810  20.507   1.925   4.154
72991W        W37811  42.867  35.443  13.820
72992W        W37812   0.976  13.640   2.293
72993W        W37813   5.865  10.119   2.442
72994W        W37814  28.739  11.243   1.976
72995W        W37815  26.670  23.798  11.524
72996W        W37816  13.114   3.013   2.363
72997W        W37817  21.102   4.753   2.378
72998W        W37818  29.522  23.062   0.214
72999W        W37819  14.679   0.658  13.859
73000W        W37820  26.070  30.325   1.218
73001W        W37821  15.020   6.460  11.634
73002W        W37822  12.540  35.574   3.080
73003W        W37823  28.514   7.370  13.023
73004W        W37824  34.359  16.269  12.077
73005W        W37825  40.449   6.261   0.720
73006W        W37826  15.384  34.688  13.019
73007W        W37827   6.639  17.609  11.898
73008W        W37828   5.920  16.992   2.288
73009W        W37829  17.620  42.976   2.762
73010W        W37830  43.826   1.749   0.817
73011W        W37831  42.113  14.522   1.028
73012W        W37832  11.919   4.677  14.315
73013W        W37833  12.615  12.622  11.191
73014W        W37834  15.658  23.771   2.717
73015W        W37835  10.814   9.769   0.693
73016W        W37836  19.790  24.253   3.565
73017W        W37837   9.499  20.625   0.370
73018W        W37838  31.961  44.562   2.986
73019W        W37839  36.333  21.577   1.964
73020W        W37840  38.268  15.718   4.165
73021W        W37841  25.934  34.080  13.706
73022W        W37842  21.870  12.693   9.430
73023W        W37843  20.764  12.346   0.016
73024W        W37844  16.355  41.958   1.224
73025W        W37845  39.138  18.699  14.901
73026W        W37846  20.211  27.225   0.855
73027W        W37847  22.138   0.611   4.563
73028W        W37848  30.470  28.926  12.324
73029W        W37849  17.671   2.347   1.536
73030W        W37850  26.179  31.537  12.981
73031W        W37851  21.256  25.155  11.077
73032W        W37852  16.055  31.473   1.842
73033W        W37853   1.203  32.887  13.443
73034W        W37854  33.667   2.450   0.793
73035W        W37855  38.374  17.513  14.251
73036W        W37856  22.360   2.876   1.005
73037W        W37857  14.162  26.177   4.613
73038W        W37858  20.459  33.617  11.008
73039W        W37859  44.974  35.539   2.291
73040W        W37860  22.850  31.056   2.453
73041W        W37861  22.092  35.111   3.263
73042W        W37862   1.452  15.621  14.396
73043W        W37863   1.834   2.158   2.252
73044W        W37864   1.194  24.874  14.051
73045W        W37865  16.760  17.112  11.215
73046W        W37866   8.732  18.088  14.513
73047W        W37867  22.595  25.202   0.310
73048W        W37868   6.493  14.226   3.850
73049W        W37869  31.474   5.088   1.801
73050W        W37870  31.110   1.857  12.059
73051W        W37871  22.200  21.335   4.152
73052W        W37872  28.953  22.663  11.690
73053W        W37873   0.915  21.541   2.585
73054W        W37874   8.571  23.048   4.486
73055W        W37875  39.192  15.603  14.934
73056W        W37876   4.147  20.732   3.707
73057W        W37877  37.380  27.504   4.123
73058W        W37878  29.193  11.139  11.150
73059W        W37879  21.117  22.531   3.830
73060W        W37880  38.401  30.051   0.867
73061W        W37881   3.273  18.946   0.921
73062W        W37882  18.118  32.036   2.364
73063W        W37883  21.123   4.334   2.666
73064W        W37884   0.322  33.969  12.560
73065W        W37885  38.040  41.346   2.550
73066W        W37886  43.779   3.308  10.732
73067W        W37887  19.714  36.343   1.328
73068W        W37888  33.973   8.907  11.292
73069W        W37889  28.292  40.433  12.426
73070W        W37890  17.600  11.712  10.965
73071W        W37891  10.590  20.372   1.410
73072W        W37892  29.537   1.206   2.852
73073W        W37893  31.079  39.644  11.555
73074W        W37894   5.793  13.117   3.149
73075W        W37895  13.668  35.500   3.637
73076W        W37896  37.050  30.257  12.486
73077W        W37897   9.207  30.206   2.155
73078W        W37898  17.347  23.404  11.151
73079W        W37899   6.401  24.029   2.364
73080W        W37900  26.182  22.477   2.074
73081W        W37901   9.272  43.291  14.306
73082W        W37902  16.566   3.220  10.811
73083W        W37903  42.392   5.882  13.742
73084W        W37904  37.589   6.739  14.200
73085W        W37905  13.822  18.275  14.837
73086W        W37906  23.730   1.303  13.892
73087W        W37907  14.984  34.609   2.138
73088W        W37908   9.871  23.433   1.611
73089W        W37909   3.043  16.201  10.481
73090W        W37910  10.767  15.290   2.615
73091W        W37911  27.534  37.953   0.843
73092W        W37912   7.777  28.622  10.033
73093W        W37913   7.385   8.084  10.562
73094W        W37914  14.055  13.911   5.049
73095W        W37915  32.013  16.152  13.425
73096W        W37916  12.307  19.253   3.310
73097W        W37917  15.484   1.032  10.593
73098W        W37918   7.480  23.604  13.925
73099W        W37919   2.401  15.368  11.291
73100W        W37920  23.265  44.469   4.586
73101W        W37921  24.415   8.312   5.015
73102W        W37922  14.252  26.033  10.756
73103W        W37923  28.675  40.071   0.411
73104W        W37924  21.429  18.046   2.382
73105W        W37925  13.517  25.194  10.864
73106W        W37926  40.251   1.825  12.200
73107W        W37927  13.155  11.143   2.356
73108W        W37928  39.500  40.286   3.226
73109W        W37929   1.854  33.050   0.376
73110W        W37930   8.789  34.665   4.762
73111W        W37931   2.693   9.922   2.765
73112W        W37932  23.709  35.122  14.544
73113W        W37933  35.322  32.855  14.352
73114W        W37934  12.687  43.837   3.881
73115W        W37935   5.931   7.900  14.365
73116W        W37936  33.012  13.217   3.707
73117W        W37937  22.931   8.006   2.426
73118W        W37938   1.063   5.255  11.110
73119W        W37939   9.623  41.520   0.316
73120W        W37940  10.437  22.940   4.279
73121W        W37941  29.194  23.412  12.902
73122W        W37942  19.548  30.852   0.387
73123W        W37943  29.379   4.996   3.770
73124W        W37944  39.552  22.642  12.913
73125W        W37945  39.383  39.093   3.776
73126W        W37946  14.488  20.778  11.496
73127W        W37947  22.101  35.375   0.706
73128W        W37948  26.093  33.372   5.175
73129W        W37949   5.269  28.962   0.753
73130W        W37950  11.848   7.576  13.324
73131W        W37951  11.571  38.311   0.196
73132W        W37952  28.993  39.606   2.710
73133W        W37953  39.291  17.274  10.677
73134W        W37954   1.524  16.788  11.599
73135W        W37955  21.125  21.466  14.250
73136W        W37956  15.085  41.369  10.524
73137W        W37957  41.764  25.611  14.789
73138W        W37958  37.721  16.790  11.996
73139W        W37959  40.987  32.508   0.140
73140W        W37960   0.436  44.445  13.641
73141W        W37961  44.129   3.304  13.672
73142W        W37962  28.953  42.068   2.747
73143W        W37963  12.295   6.598   1.925
73144W        W37964  11.189   5.996  14.305
73145W        W37965  30.073   7.713  12.074
73146W        W37966   8.174  33.042   4.578
73147W        W37967   9.274  28.965   4.767
73148W        W37968  21.750  43.374   2.186
73149W        W37969  39.319  25.814  13.520
73150W        W37970  41.681  29.683  12.421
73151W        W37971  32.261  42.938   3.798
73152W        W37972  31.322  23.760   0.589
73153W        W37973   4.535  14.172   2.359
73154W        W37974  41.565  34.335  12.802
73155W        W37975  30.238  12.331  13.200
73156W        W37976  23.572  17.893   2.035
73157W        W37977   7.209  30.118   2.221
73158W        W37978  29.996   6.499  14.922
73159W        W37979  33.378   8.072   2.058
73160W        W37980  14.217  44.420   5.227
73161W        W37981  40.959  29.918  10.824
73162W        W37982  11.971  42.082   2.282
73163W        W37983  21.786   3.783   4.817
73164W        W37984   1.559  34.035   2.714
73165W        W37985  10.264  22.691  10.107
73166W        W37986   0.378   3.450   0.309
73167W        W37987  26.450  31.504   1.344
73168W        W37988  14.226  16.535  11.103
73169W        W37989   4.984  14.187   0.788
73170W        W37990  35.116  36.852  10.624
73171W        W37991   0.001  23.638   1.434
73172W        W37992   1.922  10.403   3.761
73173W        W37993  26.733  11.648   2.263
73174W        W37994  26.428  34.942  13.946
73175W        W37995  27.048   4.488   0.575
73176W        W37996  12.517   5.298  11.233
73177W        W37997   6.687  32.461  14.480
73178W        W37998  39.367  36.878   4.711
73179W        W37999   2.744  33.140   0.356
73180W        W38000  33.060   1.470   4.461
73181W        W38001  23.233  23.614   1.907
73182W        W38002   5.208   0.197  11.186
73183W        W38003  39.350  15.157   5.011
73184W        W38004   1.156   0.567   3.371
73185W        W38005  27.659  27.035  11.246
73186W        W38006  38.362  30.758   3.760
73187W        W38007  21.515  15.009  10.738
73188W        W38008  40.073  37.523  13.583
73189W        W38009  18.534  31.437   2.799
73190W        W38010  27.656   4.215  11.845
73191W        W38011  31.385  21.637   0.458
73192W        W38012  23.739   7.050  10.252
73193W        W38013   1.409  15.864  14.979
73194W        W38014  22.669  38.488   2.255
73195W        W38015  34.008  11.900  10.620
73196W        W38016  42.480  25.366  12.927
73197W        W38017  11.299  39.849   0.039
73198W        W38018  26.670   5.722   0.436
73199W        W38019  11.851  31.636   1.856
73200W        W38020  11.392  18.183   0.911
73201W        W38021  18.000  36.597  11.631
73202W        W38022  17.092  10.151  13.279
73203W        W38023  37.720  18.453   3.864
73204W        W38024  29.997   7.724  13.528
73205W        W38025  32.186  13.846   0.379
73206W        W38026  12.850  13.588   3.287
73207W        W38027  42.558   8.367  11.143
73208W        W38028  24.565  43.209  12.853
73209W        W38029  14.275  24.322  12.331
73210W        W38030  40.553  41.920   3.589
73211W        W38031  27.068   4.078   0.934
73212W        W38032  19.044  37.004  12.174
73213W        W38033  35.659   0.640  11.237
73214W        W38034  19.743   0.504  10.996
73215W        W38035  21.769  35.364  10.690
73216W        W38036  15.449  37.370  14.452
73217W        W38037  29.006   8.168   3.321
73218W        W38038  39.392   1.262  13.039
73219W        W38039  44.354   7.748   4.698
73220W        W38040  13.261  17.871  12.968
73221W        W38041  30.432  17.857   9.831
73222W        W38042  22.102  33.640  10.667
73223W        W38043  32.988   6.243  13.034
73224W        W38044  22.620  14.885  11.675
73225W        W38045   7.338  24.555   1.636
73226W        W38046  33.161   2.833  10.743
73227W        W38047  37.585  20.728  12.432
73228W        W38048  24.774  25.564  12.621
73229W        W38049   8.947  13.708   1.798
73230W        W38050  28.678  35.181  14.637
73231W        W38051   4.213  42.118   2.841
73232W        W38052  31.949   1.298   2.357
73233W        W38053  35.292  32.097  11.469
73234W        W38054  22.692  22.184   3.688
73235W        W38055  32.917  15.572  13.467
73236W        W38056   4.572  29.785   4.931
73237W        W38057  43.085  24.565   3.623
73238W        W38058  10.800  34.840   2.187
73239W        W38059  32.063  42.541  13.298
73240W        W38060  42.464  36.381  10.368
73241W        W38061   5.735  17.022  11.905
73242W        W38062   3.168  19.419   2.443
73243W        W38063  29.430   3.266  12.106
73244W        W38064  15.318  33.945   2.646
73245W        W38065  19.034  30.461  14.288
73246W        W38066  19.357  32.509  12.317
73247W        W38067  38.643  41.492   2.155
73248W        W38068  34.062  44.901  14.862
73249W        W38069  29.035  25.705  12.480
73250W        W38070  38.891  40.632  14.028
73251W        W38071   8.975  12.129   2.254
73252W        W38072  32.626   4.970   0.716
73253W        W38073  13.789  36.504   4.538
73254W        W38074  22.435  12.801   2.221
73255W        W38075  43.792  22.924  13.953
73256W        W38076  19.872  31.289   5.096
73257W        W38077  17.991  20.539  14.865
73258W        W38078   4.758  18.632  13.840
73259W        W38079   9.708  35.442   0.868
73260W        W38080  40.404  29.958   2.933
73261W        W38081   1.538   7.838  13.000
73262W        W38082  20.554  21.472   2.290
73263W        W38083  29.532  28.193  13.009
73264W        W38084  39.477   1.011   4.085
73265W        W38085  15.125  37.366   1.088
73266W        W38086  10.132  40.122   3.375
73267W        W38087   6.270   5.133   3.372
73268W        W38088  21.592  39.256  12.510
73269W        W38089  21.159  24.117   1.253
73270W        W38090  32.355   7.805   3.150
73271W        W38091  44.208  13.690   0.772
73272W        W38092  37.339  14.854   4.929
73273W        W38093   9.584  26.047  11.910
73274W        W38094   2.863   8.592   2.846
73275W        W38095  17.605  11.757  10.447
73276W        W38096  43.864  23.916   2.822
73277W        W38097  26.495  30.048   2.071
73278W        W38098  26.023  26.533  11.144
73279W        W38099  28.336   3.788   2.918
73280W        W38100  26.860  44.710  11.622
73281W        W38101  28.573  18.140   4.496
73282W        W38102  34.437  34.694   2.932
73283W        W38103   3.296  43.332  14.871
73284W        W38104  33.599   4.610   4.346
73285W        W38105  42.440  41.050  12.441
73286W        W38106   4.380  24.618  14.724
73287W        W38107  38.930  29.253  11.533
73288W        W38108  44.474  32.419   3.577
73289W        W38109  43.827  14.406  13.081
73290W        W38110  10.022  38.229  12.562
73291W        W38111  25.678   9.361   1.079
73292W        W38112   6.681   4.656  12.370
73293W        W38113   6.121  12.803  12.918
73294W        W38114  32.096  34.805  10.772
73295W        W38115  38.671  22.987  10.598
73296W        W38116  13.835   8.895  14.726
73297W        W38117  41.871  12.736  13.008
73298W        W38118  44.961   8.253  10.949
73299W        W38119  20.881  36.784  11.123
73300W        W38120   2.166  34.057  13.907
73301W        W38121  30.675  35.518  11.486
73302W        W38122  19.420  28.980  14.574
73303W        W38123  37.709  13.873   0.572
73304W        W38124  24.560  40.845   1.042
73305W        W38125  17.332  31.064  11.073
73306W        W38126  36.546  27.176  12.375
73307W        W38127  36.037  26.223  10.990
73308W        W38128  15.717   0.516  12.992
73309W        W38129  44.480  35.128   4.884
73310W        W38130   0.227  42.757  12.631
73311W        W38131  36.902  34.915   3.652
73312W        W38132  11.337  23.530   2.602
73313W        W38133  32.456   6.236  12.390
73314W        W38134   8.247   7.128   1.170
73315W        W38135  38.234  32.488  14.197
73316W        W38136   6.908  27.201   1.874
73317W        W38137  26.423  16.728  14.971
73318W        W38138   2.794  31.181  11.701
73319W        W38139  33.360  13.708   1.432
73320W        W38140  20.509  17.344   3.173
73321W        W38141  19.431  20.256  14.563
73322W        W38142  31.363  31.858   0.298
73323W        W38143  21.408   6.133   2.420
73324W        W38144   2.190  33.125  13.984
73325W        W38145  43.742  34.528  10.723
73326W        W38146  11.011   7.791  13.099
73327W        W38147  11.704  44.784   3.307
73328W        W38148  38.335  18.823  13.748
73329W        W38149  23.159  38.303   2.855
73330W        W38150  19.646   6.703  12.003
73331W        W38151  44.852   7.983   1.408
73332W        W38152  29.523  38.618   3.421
73333W        W38153  29.919  22.158   2.267
73334W        W38154   5.104  18.758  12.521
73335W        W38155  19.118   7.115   2.421
73336W        W38156   4.281  10.475  14.818
73337W        W38157   9.414   0.814  13.881
73338W        W38158  43.917  44.872  13.776
73339W        W38159  38.555   1.261  14.510
73340W        W38160  44.448   1.926  13.280
73341W        W38161  22.658   1.294   1.725
73342W        W38162  12.696  18.803   0.641
73343W        W38163  17.108   9.231   9.732
73344W        W38164  36.195  42.360   4.683
73345W        W38165  22.068   4.262   3.250
73346W        W38166   3.501  24.162   0.676
73347W        W38167  23.951  23.108   1.847
73348W        W38168  23.790   3.144  13.828
73349W        W38169   4.737  30.136  12.630
73350W        W38170  44.571  36.781   1.268
73351W        W38171  12.408  14.907  11.958
73352W        W38172  26.508  33.166  11.347
73353W        W38173  26.563  43.447  11.681
73354W        W38174  40.748  31.661  14.938
73355W        W38175  27.084  16.304   1.668
73356W        W38176  15.677  24.615   3.143
73357W        W38177  41.381  27.946   0.478
73358W        W38178  33.371  11.404   0.274
73359W        W38179  34.912  32.558   4.643
73360W        W38180  31.094   5.071  11.190
73361W        W38181  11.383  40.325  11.382
73362W        W38182  14.226  42.743  13.140
73363W        W38183  35.087  11.090  12.533
73364W        W38184   2.156  24.539  11.220
73365W        W38185   3.210  40.968  10.725
73366W        W38186  27.480  27.929  14.016
73367W        W38187  30.398  31.918   0.487
73368W        W38188   4.208  32.973   1.938
73369W        W38189  33.154  43.240  14.786
73370W        W38190  15.861  17.625  13.125
73371W        W38191  24.630  22.258   1.612
73372W        W38192  41.859  15.865   0.491
73373W        W38193  36.894   2.551   0.944
73374W        W38194  16.579  30.937  12.573
73375W        W38195  39.274  26.154  14.398
73376W        W38196  14.350   7.106  14.900
73377W        W38197   1.990  21.891   2.393
73378W        W38198  21.191  21.227  11.890
73379W        W38199  30.893   9.377  13.381
73380W        W38200  31.637  17.133   4.103
73381W        W38201  42.923  33.508  14.280
73382W        W38202  29.903  12.262  12.797
73383W        W38203  23.764  26.933  13.166
73384W        W38204  40.398   5.583  11.998
73385W        W38205  21.667  35.059   2.820
73386W        W38206   9.907  29.614   4.113
73387W        W38207  30.134  30.556   5.043
73388W        W38208  18.556  40.120  11.539
73389W        W38209   5.293  17.844   0.901
73390W        W38210  34.057  11.645  11.924
73391W        W38211  40.317  36.216  13.250
73392W        W38212   5.485  35.927   1.064
73393W        W38213   6.371   7.882  10.757
73394W        W38214  35.866  20.598   1.265
73395W        W38215   6.968  17.744  11.519
73396W        W38216  28.631  24.494   1.606
73397W        W38217   7.343   3.032   4.241
73398W        W38218  24.794   7.815  11.578
73399W        W38219   8.740  28.677   3.139
73400W        W38220  11.570   6.496  11.272
73401W        W38221  21.352   6.008  14.486
73402W        W38222  16.130  34.532   0.372
73403W        W38223   2.112  43.989   1.419
73404W        W38224  39.534  43.655   0.815
73405W        W38225   9.189  17.672  14.465
73406W        W38226   4.602  16.744  14.510
73407W        W38227  24.071  38.128  10.306
73408W        W38228  40.432  42.429  12.882
73409W        W38229  35.499  38.906  14.291
73410W        W38230  16.305   4.428  12.994
73411W        W38231  28.086  11.338  14.951
73412W        W38232  41.506  33.632   3.308
73413W        W38233   1.458  23.297   0.313
73414W        W38234  38.625   6.477  12.052
73415W        W38235  35.128  31.836  14.948
73416W        W38236  36.147  43.312   0.273
73417W        W38237  27.779  35.519  12.537
73418W        W38238  24.604  26.909   3.860
73419W        W38239   9.171  35.567   0.269
73420W        W38240   8.893  13.241   4.547
73421W        W38241  17.598  22.220  14.761
73422W        W38242  16.320  26.428   1.919
73423W        W38243  10.281  38.744   4.084
73424W        W38244  30.676  23.067  12.527
73425W        W38245   8.863   0.321  12.798
73426W        W38246  30.546   2.888   3.031
73427W        W38247  10.678  38.022   0.443
73428W        W38248  42.905  23.139   1.193
73429W        W38249  29.374  19.625   2.209
73430W        W38250   8.265  18.213  14.240
73431W        W38251   8.364  10.811   3.846
73432W        W38252  26.951   5.850   0.856
73433W        W38253  32.872  17.518  13.536
73434W        W38254  24.432   3.235   2.698
73435W        W38255  26.102  13.630  13.352
73436W        W38256  16.887  30.284   0.473
73437W        W38257  38.390   0.357  13.398
73438W        W38258  30.445  42.249  11.165
73439W        W38259  30.516  34.486  11.560
73440W        W38260  41.749   6.221  14.049
73441W        W38261  35.021  15.829  14.280
73442W        W38262  18.081  30.385  13.394
73443W        W38263  40.556  31.100   3.762
73444W        W38264  37.765  36.446   2.265
73445W        W38265  44.797  28.965  13.078
73446W        W38266  19.219  17.104   2.785
73447W        W38267  19.781  44.853   4.758
73448W        W38268   7.007  18.549   2.307
73449W        W38269  40.297   4.782  14.517
73450W        W38270  15.579   3.656   1.415
73451W        W38271  19.538  12.374   3.248
73452W        W38272  29.714  21.312  13.341
73453W        W38273  20.684  43.045  13.531
73454W        W38274  19.163   6.325   1.058
73455W        W38275   0.732  18.118   3.728
73456W        W38276  31.464   1.912  11.683
73457W        W38277  12.867  12.787   2.146
73458W        W38278  12.345  42.119   0.467
73459W        W38279  32.016  32.633   4.532
73460W        W38280  37.005   1.229  12.287
73461W        W38281  30.905   8.378   1.338
73462W        W38282  43.841  42.399   2.371
73463W        W38283  26.692  29.091   3.215
73464W        W38284  15.325   5.400   3.634
73465W        W38285   9.635  23.391  12.402
73466W        W38286  43.289   2.801   3.907
73467W        W38287  30.522  11.590   0.769
73468W        W38288   1.305   5.970   1.303
73469W        W38289  17.725   7.577  13.677
73470W        W38290   0.995   1.380   0.976
73471W        W38291   7.158  24.485   0.741
73472W        W38292  42.162   8.685   0.859
73473W        W38293  32.424  19.815  11.282
73474W        W38294   4.594  31.365  12.585
73475W        W38295  44.825  20.218   0.870
73476W        W38296   1.508   0.644   1.479
73477W        W38297   1.901  44.718   2.221
73478W        W38298  17.334  30.944   2.600
73479W        W38299  38.869  38.137  14.511
73480W        W38300  31.389   0.277   0.520
73481W        W38301  30.605  22.705   1.165
73482W        W38302  31.940  39.033  13.906
73483W        W38303  13.478  42.855   0.480
73484W        W38304  23.970   0.492  11.537
73485W        W38305  35.687  21.320   0.412
73486W        W38306   0.766  14.208  13.902
73487W        W38307  18.529  42.458  13.892
73488W        W38308  41.333  43.510   0.696
73489W        W38309   2.302   1.703   1.976
73490W        W38310   6.390  31.522   1.464
73491W        W38311  33.363  41.776  11.240
73492W        W38312  18.711  40.113  14.418
73493W        W38313  29.350  41.170   1.801
73494W        W38314   6.687  12.823  13.477
73495W        W38315  23.921  13.958  12.998
73496W        W38316   4.283  44.908  10.927
73497W        W38317  43.084  11.205   3.216
73498W        W38318  16.672  41.241   2.884
73499W        W38319  37.940   3.980   1.488
73500W        W38320  29.107  21.686  14.823
73501W        W38321  16.777  12.402  13.827
73502W        W38322  23.939  31.691   2.404
73503W        W38323  44.911  20.685  12.850
73504W        W38324  18.282  40.338  10.717
73505W        W38325  18.047  17.634  11.151
73506W        W38326  15.050  15.923  11.133
73507W        W38327  15.307  15.855   0.474
73508W        W38328  14.643   8.454   2.310
73509W        W38329  14.209  25.789  11.222
73510W        W38330  32.942   2.923   4.115
73511W        W38331  15.404  44.841  11.373
73512W        W38332   3.358  14.388  13.506
73513W        W38333  19.806   6.630   4.193
73514W        W38334  28.611   9.444   4.366
73515W        W38335  20.746  10.788   3.728
73516W        W38336  40.908   2.346   0.807
73517W        W38337  44.355  42.815  14.505
73518W        W38338   3.941  20.090  12.050
73519W        W38339  16.600  10.960   5.453
73520W        W38340  37.950  26.252   2.812
73521W        W38341   7.602  14.360   1.651
73522W        W38342  44.218  15.767  11.268
73523W        W38343  29.025  17.921  13.501
73524W        W38344   5.194  42.529   1.386
73525W        W38345  26.974  23.667  10.727
73526W        W38346  28.046  20.926   4.428
73527W        W38347   5.509  19.364   0.975
73528W        W38348  17.367  16.034   3.682
73529W        W38349  23.578   8.578  11.556
73530W        W38350   2.434  37.025  12.177
73531W        W38351  37.162  27.976   4.089
73532W        W38352   5.348   2.865   4.561
73533W        W38353  17.592   4.768   0.907
73534W        W38354  33.390  40.438   2.238
73535W        W38355   1.918  24.150  12.572
73536W        W38356  26.864  30.640   0.971
73537W        W38357   1.707  41.941   4.187
73538W        W38358  24.889  12.786  13.864
73539W        W38359  24.721  35.550   3.395
73540W        W38360  31.073  39.418  11.018
73541W        W38361  40.372  12.457  10.709
73542W        W38362  33.397  28.065  11.194
73543W        W38363  39.822  13.242  10.947
73544W        W38364  38.628  16.626   1.882
73545W        W38365  28.573  36.143   1.789
73546W        W38366   6.162  21.699  11.094
73547W        W38367   3.320  43.060  10.762
73548W        W38368  25.667  11.240   4.093
73549W        W38369   5.837  17.565   4.625
73550W        W38370  15.808  38.786   3.197
73551W        W38371  10.423  41.787   4.595
73552W        W38372  32.528  38.694  14.026
73553W        W38373  36.007   0.858  11.524
73554W        W38374  38.609   2.225   3.739
73555W        W38375  24.721  39.674  11.185
73556W        W38376   9.009  29.431  10.161
73557W        W38377  16.591  25.088   2.071
73558W        W38378  33.676  31.209   4.851
73559W        W38379  27.134  18.743   4.348
73560W        W38380  41.988  31.820   2.831
73561W        W38381  10.370  35.134   3.696
73562W        W38382  18.516  22.657  12.046
73563W        W38383  32.948  29.885   0.392
73564W        W38384  24.598  18.822   0.238
73565W        W38385  22.254  16.369   1.869
73566W        W38386  28.594  34.452   0.127
73567W        W38387  12.547  12.469   4.140
73568W        W38388  43.686   7.387  11.249
73569W        W38389  32.045  29.764  14.010
73570W        W38390  35.604   7.473  11.473
73571W        W38391  41.291  26.777   1.072
73572W        W38392  17.764  32.600   3.226
73573W        W38393  32.480  41.380   4.563
73574W        W38394  39.907   7.082   2.658
73575W        W38395  42.631   8.874  11.080
73576W        W38396   8.873  43.810   2.839
73577W        W38397  15.533  14.206   0.395
73578W        W38398  42.485  44.398  10.794
73579W        W38399  25.525   0.732   1.344
73580W        W38400   9.660  29.575   5.103
73581W        W38401   4.644  21.013   4.999
73582W        W38402   1.464  31.091  12.993
73583W        W38403  22.803  29.619  10.196
73584W        W38404  32.505  33.094   1.978
73585W        W38405  31.691  39.022   0.832
73586W        W38406  19.135  17.357   3.691
73587W        W38407  24.280  22.549   1.874
73588W        W38408   9.171  22.255   3.143
73589W        W38409  30.978  15.462  13.473
73590W        W38410   6.962   1.827  11.668
73591W        W38411   9.766   9.477   4.951
73592W        W38412  23.057  38.979  11.623
73593W        W38413  34.894  14.423   1.299
73594W        W38414   9.732  31.364   2.477
73595W        W38415  33.678  26.694  12.504
73596W        W38416  34.353   4.327  10.392
73597W        W38417  17.278  27.584   4.592
73598W        W38418   3.588  38.375   2.667
73599W        W38419   5.970  18.635   2.251
73600W        W38420  12.265  39.826  13.975
73601W        W38421  28.625  34.347  14.457
73602W        W38422  27.983  14.257  14.452
73603W        W38423   0.252  19.047   4.234
73604W        W38424   4.248  44.875   3.828
73605W        W38425  28.101  20.846   1.893
73606W        W38426  32.315  42.679  13.942
73607W        W38427  14.860  34.270   4.731
73608W        W38428  26.479  12.224   4.178
73609W        W38429  39.884  38.835  10.699
73610W        W38430  13.379  25.118  13.576
73611W        W38431  12.841  29.273   3.936
73612W        W38432  37.013  25.194  12.867
73613W        W38433  19.093  17.378  10.710
73614W        W38434  33.510  36.332  11.139
73615W        W38435   3.435  44.471   2.223
73616W        W38436  10.843  35.020   2.672
73617W        W38437  19.101  33.331   4.448
73618W        W38438  10.128   6.135   0.478
73619W        W38439  13.595  37.692  12.059
73620W        W38440  29.521  23.013   4.685
73621W        W38441  18.157  35.188   4.054
73622W        W38442  22.059  12.747   1.406
73623W        W38443  27.424  29.877   3.946
73624W        W38444   3.186   1.924   3.879
73625W        W38445   8.242  16.075  12.520
73626W        W38446  12.818  24.287   3.088
73627W        W38447  30.409  42.362   2.470
73628W        W38448  24.930   4.791  14.340
73629W        W38449  15.345  40.949  11.506
73630W        W38450  17.328   3.811  14.831
73631W        W38451  17.681   7.121   3.219
73632W        W38452   2.791  31.101  14.591
73633W        W38453  33.929  36.132   2.598
73634W        W38454  10.824  34.647   4.546
73635W        W38455   2.763  27.683  12.518
73636W        W38456  14.335  25.260  11.195
73637W        W38457  16.709  16.133  13.804
73638W        W38458  25.613   6.332   5.088
73639W        W38459  27.618  40.460  13.546
73640W        W38460  34.342   2.373   4.285
73641W        W38461  37.011   3.174   3.648
73642W        W38462  21.745   9.878  13.023
73643W        W38463  16.268  42.276   3.254
73644W        W38464  10.209  41.773  13.316
73645W        W38465  14.847  36.146  11.641
73646W        W38466   6.079  39.838   5.014
73647W        W38467   2.729  44.475  13.858
73648W        W38468  22.130  33.718  14.921
73649W        W38469   0.599  27.439  10.812
73650W        W38470  38.938   9.601   0.019
73651W        W38471  23.068  40.057   4.193
73652W        W38472  30.179  24.987  14.836
73653W        W38473   4.823  23.500   3.670
73654W        W38474  36.466   3.691   4.104
73655W        W38475  40.078  40.825   0.796
73656W        W38476  36.222  26.289  10.503
73657W        W38477  24.545  40.879  11.838
73658W        W38478   3.697  18.527   0.999
73659W        W38479  26.702  39.580  14.168
73660W        W38480  25.581  40.136   3.226
73661W        W38481  35.052  15.878   1.715
73662W        W38482  30.961  19.688  12.138
73663W        W38483  35.412  12.237   1.758
73664W        W38484  24.792  41.764  12.133
73665W        W38485  15.767   2.425   2.578
73666W        W38486   2.885  30.145  11.654
73667W        W38487  40.848  26.338  10.655
73668W        W38488  31.294  16.789  13.392
73669W        W38489  15.614  23.518  12.169
73670W        W38490  11.763  26.614   4.933
73671W        W38491  13.390  12.547   3.612
73672W        W38492  42.996  39.398   4.686
73673W        W38493  26.431   6.715   0.905
73674W        W38494   3.228  28.644  12.589
73675W        W38495   6.073  16.224  13.858
73676W        W38496  41.830   9.406  12.104
73677W        W38497  30.612  11.949  12.079
73678W        W38498  36.398  42.366  14.488
73679W        W38499  29.046   0.934   0.404
73680W        W38500  44.666  25.057   4.645
73681W        W38501  44.989  42.192  11.401
73682W        W38502  25.752  19.930   3.609
73683W        W38503  10.102  36.034  14.306
73684W        W38504  12.679   7.166  10.449
73685W        W38505  23.003   5.921  12.095
73686W        W38506  33.141  33.492  14.122
73687W        W38507  18.648  31.536  12.594
73688W        W38508   6.326   4.953  13.278
73689W        W38509  23.303  21.585   1.731
73690W        W38510  39.028  27.232   1.296
73691W        W38511  20.702  34.296  11.651
73692W        W38512  30.906  44.696   5.174
73693W        W38513  18.524  43.426   1.723
73694W        W38514  40.260  19.459  12.816
73695W        W38515  11.064   3.339   4.573
73696W        W38516  22.255  15.306  13.067
73697W        W38517  30.201  24.529  12.229
73698W        W38518  10.815  32.610  12.838
73699W        W38519  13.321  12.849   0.865
73700W        W38520  14.667  28.293  14.784
73701W        W38521  34.329   2.466   1.538
73702W        W38522  35.609  40.393  13.397
73703W        W38523  24.256  14.941  13.821
73704W        W38524  11.297  26.086   4.343
73705W        W38525  24.537   5.525  14.817
73706W        W38526  19.623  41.316  12.398
73707W        W38527  15.634  25.051   2.191
73708W        W38528  42.956  22.562  12.999
73709W        W38529  18.595  18.186   0.919
73710W        W38530  25.591   5.016   4.526
73711W        W38531  39.913   1.043  13.015
73712W        W38532   6.868  20.625   4.066
73713W        W38533   6.198   6.968  11.517
73714W        W38534   0.867  28.687  10.916
73715W        W38535  23.119  28.897   0.342
73716W        W38536  18.851  24.538   3.231
73717W        W38537  15.847  21.688  14.485
73718W        W38538   2.763  32.418   3.583
73719W        W38539  22.278   3.203  13.501
73720W        W38540  25.927  24.874   0.407
73721W        W38541  29.926  15.968  10.342
73722W        W38542  27.217  26.219   5.023
73723W        W38543  27.717  19.531  14.859
73724W        W38544  26.460  33.798  14.857
73725W        W38545   3.484   6.843  13.002
73726W        W38546  18.252  35.945   0.361
73727W        W38547  32.504  15.406  14.155
73728W        W38548  22.337   8.959   2.862
73729W        W38549  18.571  30.636  11.499
73730W        W38550  14.715   3.888   4.528
73731W        W38551  22.042   9.720  13.442
73732W        W38552  24.321  34.580   5.014
73733W        W38553  19.061  20.217   4.212
73734W        W38554  30.991   3.769  13.310
73735W        W38555   3.380  39.723   2.422
73736W        W38556  33.319  11.612   0.728
73737W        W38557   5.436  34.107   1.201
73738W        W38558  13.549  35.637  14.449
73739W        W38559  20.753  36.389  12.922
73740W        W38560  23.985   8.658   4.400
73741W        W38561  26.003   8.358   0.450
73742W        W38562  14.848  38.526   2.987
73743W        W38563   5.387   2.305  10.512
73744W        W38564  16.248  37.074  12.464
73745W        W38565  29.976  29.620   2.410
73746W        W38566  18.746  25.181   1.349
73747W        W38567  10.710   0.878   2.295
73748W        W38568  15.279  39.415   0.464
73749W        W38569  34.043   4.679  12.783
73750W        W38570  27.345  35.843  14.570
73751W        W38571  31.532  30.208  12.335
73752W        W38572   4.808   7.819  11.357
73753W        W38573  21.537   6.764   4.611
73754W        W38574   4.655  31.504  14.404
73755W        W38575  32.941  24.271   3.990
73756W        W38576   1.257  33.659   0.845
73757W        W38577  10.284  37.744   1.761
73758W        W38578  30.975  43.334  11.670
73759W        W38579  13.366  43.819   3.196
73760W        W38580  15.749  43.744   3.071
73761W        W38581  33.462  37.942   3.785
73762W        W38582  22.537  11.956   1.804
73763W        W38583  23.391  12.234   2.817
73764W        W38584  43.756   1.949   4.585
73765W        W38585  35.823   2.668   4.178
73766W        W38586  19.555   0.161  14.402
73767W        W38587  15.169  15.226   2.001
73768W        W38588  24.957  10.736   4.782
73769W        W38589  13.060  32.357   2.730
73770W        W38590  27.493  18.704   1.893
73771W        W38591  40.871  19.250  13.511
73772W        W38592  19.789  40.795   0.743
73773W        W38593  42.222  30.356  14.843
73774W        W38594  14.285  32.535  11.946
73775W        W38595   5.260  20.487   0.307
73776W        W38596  36.363  27.299   3.800
73777W        W38597  16.154  24.997  11.646
73778W        W38598   8.560  42.747   4.608
73779W        W38599  23.216  29.662  14.530
73780W        W38600  36.392  36.115  13.542
73781W        W38601  22.232  14.153   3.533
73782W        W38602  30.341  22.527  11.583
73783W        W38603   3.669  40.347   1.748
73784W        W38604  34.270   7.554   3.074
73785W        W38605  12.181  40.887  13.326
73786W        W38606  12.499  13.603  10.645
73787W        W38607  38.636  24.619  13.711
73788W        W38608  29.923  41.535   0.418
73789W        W38609  30.890  33.956  14.485
73790W        W38610   7.174  29.962  14.533
73791W        W38611  23.242  10.483   3.676
73792W        W38612  37.391  33.433   3.662
73793W        W38613  20.159  30.167   0.876
73794W        W38614  36.946  27.467   1.936
73795W        W38615  12.095   1.971   2.265
73796W        W38616  29.998  23.650  14.214
73797W        W38617  18.458   2.768   2.111
73798W        W38618  14.117  16.941  14.044
73799W        W38619  26.873  30.385   2.318
73800W        W38620  33.598  26.691  11.693
73801W        W38621   0.948  36.411   2.839
73802W        W38622  30.040  10.920   4.511
73803W        W38623   7.916  26.029   0.275
73804W        W38624  37.721   9.524  10.795
73805W        W38625  31.863  24.749   2.784
73806W        W38626  18.856  33.699  14.835
73807W        W38627   1.415  17.186   0.383
73808W        W38628  39.568   8.122  14.556
73809W        W38629   2.694   8.942   0.360
73810W        W38630  30.643  24.233  14.461
73811W        W38631   9.365   8.395   2.844
73812W        W38632   1.675   1.507   1.252
73813W        W38633  42.094  26.476   1.244
73814W        W38634  37.365  23.170  11.108
73815W        W38635   1.163  36.890  14.349
73816W        W38636   0.907  23.239   3.620
73817W        W38637  16.651  39.289   1.428
73818W        W38638   1.091  29.081  13.684
73819W        W38639  43.014  27.245   3.452
73820W        W38640  30.743  19.954  14.373
73821W        W38641   8.797  18.556  11.570
73822W        W38642  40.848  13.328   3.110
73823W        W38643  24.275  31.577   3.492
73824W        W38644  34.038  21.237  10.665
73825W        W38645  43.141   3.391   1.294
73826W        W38646  42.844   6.369  14.817
73827W        W38647   6.815   0.034  14.934
73828W        W38648   9.124  31.520   4.809
73829W        W38649  33.486  20.319   4.877
73830W        W38650  29.879   3.785  13.432
73831W        W38651  39.361  24.814  11.487
73832W        W38652  36.008   1.989  12.414
73833W        W38653  43.819  41.339  12.447
73834W        W38654  13.230  43.614   3.652
73835W        W38655  18.765   2.381  13.334
73836W        W38656   6.791  25.646   2.830
73837W        W38657   4.252  26.980  11.616
73838W        W38658  10.142  19.142   2.713
73839W        W38659  41.002  17.983   0.210
73840W        W38660  34.789  13.468   2.703
73841W        W38661  43.517   2.756  13.388
73842W        W38662   6.669   5.595  11.175
73843W        W38663  43.578  18.027   0.765
73844W        W38664  14.176   1.049   0.205
73845W        W38665  19.189  20.826   0.462
73846W        W38666  15.857  13.168   3.422
73847W        W38667  31.175  34.885   0.728
73848W        W38668  26.971  15.980   2.876
73849W        W38669  26.662  31.079   1.145
73850W        W38670  17.966  13.471  14.367
73851W        W38671  42.330  19.282  13.521
73852W        W38672  18.552  25.171  13.471
73853W        W38673   1.448  35.391   3.677
73854W        W38674   7.695  19.610   0.209
73855W        W38675  32.529  23.509  11.827
73856W        W38676  44.415  25.921  12.057
73857W        W38677  23.038  44.785   1.391
73858W        W38678  11.829  13.769  11.339
73859W        W38679  10.472  22.118  13.072
73860W        W38680  20.167  43.987  11.100
73861W        W38681  38.895  27.622  13.554
73862W        W38682   0.465  20.656   0.317
73863W        W38683  12.166   2.138   3.146
73864W        W38684  41.038  38.504  11.204
73865W        W38685   4.222  16.266  13.057
73866W        W38686  20.450   7.183  12.999
73867W        W38687  35.347  14.135   1.691
73868W        W38688  17.710  24.042   2.344
73869W        W38689  22.188  15.370   3.630
73870W        W38690  34.992  16.472  12.957
73871W        W38691  42.221  16.632   4.577
73872W        W38692  19.078   6.582   2.401
73873W        W38693  23.674  18.276  14.037
73874W        W38694   3.982  32.457   3.744
73875W        W38695   3.357  42.517   3.630
73876W        W38696   6.224  23.770  11.564
73877W        W38697  44.809  18.211  13.291
73878W        W38698   8.869  26.458  14.088
73879W        W38699  22.274   5.809   4.134
73880W        W38700  37.285  23.572  12.535
73881W        W38701  14.844  10.291  12.970
73882W        W38702   8.643  17.641   3.675
73883W        W38703  30.298  17.902  13.450
73884W        W38704  39.379  19.747   0.888
73885W        W38705  43.299   6.511   0.701
73886W        W38706  44.467  14.260  10.933
73887W        W38707  27.245  13.152   3.999
73888W        W38708   9.224  38.706   4.164
73889W        W38709   3.244   1.657  14.874
73890W        W38710  19.549  20.118   4.013
73891W        W38711  43.472  29.600   0.229
73892W        W38712   4.615  23.151  13.908
73893W        W38713   2.434  30.007   2.155
73894W        W38714   8.151  19.724   1.454
73895W        W38715  44.027   1.653   0.324
73896W        W38716  14.317  38.460  12.030
73897W        W38717   8.670  29.531  10.580
73898W        W38718   8.579   2.809  12.105
73899W        W38719   2.537  27.987  14.340
73900W        W38720  16.110  16.712   4.132
73901W        W38721   4.304  24.998   0.080
73902W        W38722  28.577  22.739  13.287
73903W        W38723  16.380  11.088  12.071
73904W        W38724   3.367  38.806  11.491
73905W        W38725  17.809  24.564   3.203
73906W        W38726   9.869   5.874   3.068
73907W        W38727   7.673  21.605   0.186
73908W        W38728  36.937  10.651  11.976
73909W        W38729  35.814  23.826  13.510
73910W        W38730  43.566  40.880   3.932
73911W        W38731  15.075   6.156   4.081
73912W        W38732  42.396  21.507  14.308
73913W        W38733   3.225   9.925   2.778
73914W        W38734   3.373  41.024   4.902
73915W        W38735  16.348  41.370   3.305
73916W        W38736  39.841   4.960   3.855
73917W        W38737  10.343  11.694  12.936
73918W        W38738  20.040  12.738   3.768
73919W        W38739  16.673  35.036  12.535
73920W        W38740  41.067  18.556   4.375
73921W        W38741   3.337  19.720  13.029
73922W        W38742   8.575  15.617  14.363
73923W        W38743  23.158  37.541  12.859
73924W        W38744  21.268  44.758  14.512
73925W        W38745  43.254  35.834  12.892
73926W        W38746  22.079   8.546   0.327
73927W        W38747  32.962   0.494  12.055
73928W        W38748  29.986  43.792  14.706
73929W        W38749  40.402  10.542   0.308
73930W        W38750   5.323  22.634  10.217
73931W        W38751  41.608  36.046  10.474
73932W        W38752  39.485  39.934  14.464
73933W        W38753  22.638  29.201  12.648
73934W        W38754  27.957   7.257   1.282
73935W        W38755  27.194  36.816   1.382
73936W        W38756  39.936  34.884  12.094
73937W        W38757  29.471   4.182   0.873
73938W        W38758   1.354  24.411  13.880
73939W        W38759  39.957  39.747  12.803
73940W        W38760   0.577  31.238  10.967
73941W        W38761  14.669  16.287  14.232
73942W        W38762  25.271  36.245   4.892
73943W        W38763  29.156  24.362  14.542
73944W        W38764   2.553   3.757   4.234
73945W        W38765   6.766   2.472  10.642
73946W        W38766  36.819  11.286  13.032
73947W        W38767  21.050   8.802   2.329
73948W        W38768  25.044   7.533  12.495
73949W        W38769  34.973  34.065   2.346
73950W        W38770  44.786  39.865   0.168
73951W        W38771  31.577   4.299   0.695
73952W        W38772  26.210  32.459   3.856
73953W        W38773  44.073  24.213  14.870
73954W        W38774  11.187  22.439  13.497
73955W        W38775  32.936  24.482   3.168
73956W        W38776  13.817  37.788  11.604
73957W        W38777  17.247   7.547   2.835
73958W        W38778  44.266  34.537  10.865
73959W        W38779   6.963  44.965   1.353
73960W        W38780   2.423  15.046   4.855
73961W        W38781  38.384  19.508   0.730
73962W        W38782  20.230  16.061  10.635
73963W        W38783   9.394  26.018  12.835
73964W        W38784   7.136  18.186   1.926
73965W        W38785  39.355  12.726  12.954
73966W        W38786  18.979  25.290   0.258
73967W        W38787  36.484  23.759  13.836
73968W        W38788  37.390  35.602  14.508
73969W        W38789  35.937  18.185  13.436
73970W        W38790  36.646  28.961  11.637
73971W        W38791   1.457  15.498  10.647
73972W        W38792   8.143   3.793  11.084
73973W        W38793  25.602   3.317   0.459
73974W        W38794  10.368   1.717  12.894
73975W        W38795  32.918   5.492   1.373
73976W        W38796   6.909   1.806   3.171
73977W        W38797  35.197  40.289  11.349
73978W        W38798  38.780   2.929  12.921
73979W        W38799  32.053  40.475   3.033
73980W        W38800  32.853  28.057   0.888
73981W        W38801  21.636  20.269  13.603
73982W        W38802  35.044  22.448  11.588
73983W        W38803  12.824  38.063   4.175
73984W        W38804  22.105   3.881  14.894
73985W        W38805   1.855  23.692  10.594
73986W        W38806   8.923   3.023   2.747
73987W        W38807  17.644  31.070   3.750
73988W        W38808  13.176  29.667  14.017
73989W        W38809  28.031  17.107  10.684
73990W        W38810  32.662  18.044   1.792
73991W        W38811   1.856  44.879  10.659
73992W        W38812  40.754  33.633  14.308
73993W        W38813   5.314  16.226  11.591
73994W        W38814   4.497  29.891  14.137
73995W        W38815  17.776  37.301  11.172
73996W        W38816  31.042  38.363   9.889
73997W        W38817  22.055  41.924   0.781
73998W        W38818  30.040  14.622   3.805
73999W        W38819   0.846  11.609   3.144
74000W        W38820  37.077  38.278   3.932
74001W        W38821  42.928  32.437   2.219
74002W        W38822  28.760   1.946  11.258
74003W        W38823  38.786  13.248   4.092
74004W        W38824  38.461  30.582   4.316
74005W        W38825  41.999  39.565   0.404
74006W        W38826  19.253   2.538  14.299
74007W        W38827   7.533  17.255   0.515
74008W        W38828  44.321  10.778   3.135
74009W        W38829  12.049  22.864  14.375
74010W        W38830  23.615  37.799   1.285
74011W        W38831  16.668  20.017  12.506
74012W        W38832  12.270   0.991   2.224
74013W        W38833  22.077   4.978   1.825
74014W        W38834  24.441  42.061   3.420
74015W        W38835  15.348   4.402  13.941
74016W        W38836  36.328  12.107  12.431
74017W        W38837   1.025  42.471  14.565
74018W        W38838  12.661   9.443  11.243
74019W        W38839   3.214  27.596   3.327
74020W        W38840   8.044   6.113   2.444
74021W        W38841  40.313  12.363  14.899
74022W        W38842  29.500  22.901   1.667
74023W        W38843  11.474   4.518   4.236
74024W        W38844  27.935   2.802  10.701
74025W        W38845   9.745   0.136  10.625
74026W        W38846  11.742   4.991   3.304
74027W        W38847  14.205  10.954  12.889
74028W        W38848   3.994  26.840  14.963
74029W        W38849  35.439   3.938  12.582
74030W        W38850  36.825  22.606   2.412
74031W        W38851  20.622   1.497   1.463
74032W        W38852  12.579  41.892   0.907
74033W        W38853  20.501   8.940   0.950
74034W        W38854  31.430   9.208  14.714
74035W        W38855  26.411   2.136   3.238
74036W        W38856  23.675  44.338   0.819
74037W        W38857   8.389   5.290  13.180
74038W        W38858  22.325  16.311  11.849
74039W        W38859  21.632  28.045  13.766
74040W        W38860  28.481  17.267  11.041
74041W        W38861  24.733  19.776  12.113
74042W        W38862  24.618   5.696  10.833
74043W        W38863  36.445   0.790  10.720
74044W        W38864   3.762  40.020   2.168
74045W        W38865  39.884  38.597   4.089
74046W        W38866  24.065  24.386  14.299
74047W        W38867  10.829   6.798  14.581
74048W        W38868  14.051  23.675   1.731
74049W        W38869  44.012  18.606   0.365
74050W        W38870  39.947  35.161  14.434
74051W        W38871   4.028  24.203   3.414
74052W        W38872  42.274  41.970  12.043
74053W        W38873  17.635  19.310   4.280
74054W        W38874  33.166  21.637   1.277
74055W        W38875  31.350  15.261   1.028
74056W        W38876   8.981  20.043  11.255
74057W        W38877  25.241   6.498  12.624
74058W        W38878   4.084  37.622  12.861
74059W        W38879  43.743   0.629   1.901
74060W        W38880  40.311  28.076  13.954
74061W        W38881  24.979  11.184  10.592
74062W        W38882  26.996  12.192   2.823
74063W        W38883  16.761  38.415   1.294
74064W        W38884  33.609   1.195   4.612
74065W        W38885  10.793  41.949  12.978
74066W        W38886  41.837  14.219   4.640
74067W        W38887  14.333  39.649   3.747
74068W        W38888  24.666  25.046   1.945
74069W        W38889  32.509   6.020   0.814
74070W        W38890  37.070  15.304   4.884
74071W        W38891   3.212  18.794  12.444
74072W        W38892  15.537  34.399   1.258
74073W        W38893   7.005   7.178   3.432
74074W        W38894  44.702  33.813   2.307
74075W        W38895  27.326  35.137   1.638
74076W        W38896  10.779   9.653  14.611
74077W        W38897  17.675  20.529   0.894
74078W        W38898  32.938  24.632  13.805
74079W        W38899  39.971   0.790  14.395
74080W        W38900   6.685  29.159  14.872
74081W        W38901  34.387  27.316  14.385
74082W        W38902  35.450  33.020  12.324
74083W        W38903   7.726  15.608   1.063
74084W        W38904   6.120   5.497  10.502
74085W        W38905  37.369   0.395   3.205
74086W        W38906  38.314  23.319  14.866
74087W        W38907  38.466   5.345   3.132
74088W        W38908   5.339   4.798  14.499
74089W        W38909  24.412  24.037  13.523
74090W        W38910  38.405  27.276   3.806
74091W        W38911   8.471  36.491   4.741
74092W        W38912  10.309  11.537  10.731
74093W        W38913  29.852  13.745  13.968
74094W        W38914  37.621  33.865   2.291
74095W        W38915  22.016  35.085   1.567
74096W        W38916  32.666  24.220   0.885
74097W        W38917  40.570  23.829   4.518
74098W        W38918  42.572  41.630  13.722
74099W        W38919  21.273  30.632  12.106
74100W        W38920  15.624   3.961   2.291
74101W        W38921   4.446  35.811   2.901
74102W        W38922  41.956  31.473   2.252
74103W        W38923  30.570   8.274   0.070
74104W        W38924  29.474  14.894   2.664
74105W        W38925  36.308  26.445   1.002
74106W        W38926  21.290  20.068   1.834
74107W        W38927  43.813  22.377  10.055
74108W        W38928  35.054  41.387   4.311
74109W        W38929   5.158  35.522   4.725
74110W        W38930  10.428  44.788   3.641
74111W        W38931  35.315  15.201  14.792
74112W        W38932  16.829  30.981  11.088
74113W        W38933   2.937  20.371   1.597
74114W        W38934  18.034  30.643  10.996
74115W        W38935  39.940   1.775  13.550
74116W        W38936   3.523  37.791  14.453
74117W        W38937  42.555  34.222  12.872
74118W        W38938  39.532   1.945  10.873
74119W        W38939  37.393  28.043  13.025
74120W        W38940  37.266  40.904  11.122
74121W        W38941  23.254  42.391   3.196
74122W        W38942  21.938   6.748  13.033
74123W        W38943  29.649  25.020  14.842
74124W        W38944  14.817  27.410  13.917
74125W        W38945   5.867  10.848   3.347
74126W        W38946  21.668   7.211  12.162
74127W        W38947  30.648  32.374   2.167
74128W        W38948   2.005  37.299  11.992
74129W        W38949  18.206  37.253   2.804
74130W        W38950  26.423  33.643  10.172
74131W        W38951   1.904   8.315  14.924
74132W        W38952  44.821  14.180   2.503
74133W        W38953  21.658  22.589   1.256
74134W        W38954   7.244   5.710   0.993
74135W        W38955  41.756  25.099   2.508
74136W        W38956   1.105  13.708   0.074
74137W        W38957  17.105  18.767  13.110
74138W        W38958  33.378  43.786   0.748
74139W        W38959  25.393  36.834  12.081
74140W        W38960  22.858  14.752   4.021
74141W        W38961  22.398  32.110  11.130
74142W        W38962   4.723  40.516   4.240
74143W        W38963  38.719   1.696  10.661
74144W        W38964  27.844  19.103  14.038
74145W        W38965  26.913  25.853   0.507
74146W        W38966  36.721  41.077   0.318
74147W        W38967   6.313  12.320   1.683
74148W        W38968   2.298  15.754   5.259
74149W        W38969  29.714   2.406   1.259
74150W        W38970   2.681  15.229   0.267
74151W        W38971   4.928   1.441   2.927
74152W        W38972  42.696  22.811   0.247
74153W        W38973  15.257  12.301   0.859
74154W        W38974  10.607  39.352   4.698
74155W        W38975   2.751  27.999  13.818
74156W        W38976  31.865  43.949   2.188
74157W        W38977  29.155  42.908   1.268
74158W        W38978  23.536   5.170  13.999
74159W        W38979  44.857   9.819  14.126
74160W        W38980  18.818   6.940   1.625
74161W        W38981  26.048   1.768  14.993
74162W        W38982  40.343  37.363  11.091
74163W        W38983  32.056  13.486   4.513
74164W        W38984  43.779  14.635  14.422
74165W        W38985  23.110  35.853  13.778
74166W        W38986  24.999  35.017  13.670
74167W        W38987   0.218  27.935  11.578
74168W        W38988  24.482  17.823  11.097
74169W        W38989  42.734  30.194  11.949
74170W        W38990  36.174  30.187  13.079
74171W        W38991  23.256   5.453  14.361
74172W        W38992  16.290   7.905   2.812
74173W        W38993  29.586  17.063  13.609
74174W        W38994  39.124  32.817   4.151
74175W        W38995  22.608  13.569  13.355
74176W        W38996  21.045  15.755   0.262
74177W        W38997   0.428   3.476   3.507
74178W        W38998  13.028  10.762  12.767
74179W        W38999  38.321  13.065  12.011
74180W        W39000  38.828  12.696  10.552
74181W        W39001  17.074  16.420  14.049
74182W        W39002  21.674  20.674   4.426
74183W        W39003  19.272  29.066  13.269
74184W        W39004  40.916  21.151   0.697
74185W        W39005  40.281  23.991  11.157
74186W        W39006  22.715  32.137   1.775
74187W        W39007  31.409   1.197  11.205
74188W        W39008  40.708   5.632   2.283
74189W        W39009  10.135  37.006  13.456
74190W        W39010   7.801  40.117   0.255
74191W        W39011  18.487  25.626  14.371
74192W        W39012  43.520  33.925   2.875
74193W        W39013  35.107  20.283   3.615
74194W        W39014  27.928  27.584  12.388
74195W        W39015  11.239  31.716  13.999
74196W        W39016   9.612  20.720   4.625
74197W        W39017   5.489  18.300   3.193
74198W        W39018  18.781  19.038  11.959
74199W        W39019   5.922  42.596   0.286
74200W        W39020   4.238   3.827   0.799
74201W        W39021  22.789  38.822  14.392
74202W        W39022  11.157  20.642  11.116
74203W        W39023  25.225  20.664  13.816
74204W        W39024   4.656  21.724  14.330
74205W        W39025  39.608  15.669   2.877
74206W        W39026  41.973  41.852  13.740
74207W        W39027  26.543  35.835   2.111
74208W        W39028  19.144  27.403  10.692
74209W        W39029  44.525  18.662   1.272
74210W        W39030  43.007   5.245   3.414
74211W        W39031  22.446  18.490   2.686
74212W        W39032  24.655  17.129  13.283
74213W        W39033  31.982   2.010   2.892
74214W        W39034  16.735  25.461   3.605
74215W        W39035  43.560  24.250  12.109
74216W        W39036  35.860   5.962  11.594
74217W        W39037  12.757   9.248   2.512
74218W        W39038   3.778  44.473   1.806
74219W        W39039  39.191  28.723  12.548
74220W        W39040  43.717   3.349  13.344
74221W        W39041  30.493   6.182  14.916
74222W        W39042  30.495  27.700   3.858
74223W        W39043  22.606  15.856   1.373
74224W        W39044   8.080  11.710   3.414
74225W        W39045   3.903  25.501   2.293
74226W        W39046  21.209  28.730  14.777
74227W        W39047  26.655   2.404  10.475
74228W        W39048   8.113  42.566  13.988
74229W        W39049  30.902  37.815   0.720
74230W        W39050  25.353  26.592  12.457
74231W        W39051  19.010  25.550  14.449
74232W        W39052  36.117  18.194  12.478
74233W        W39053   8.039   1.243  14.993
74234W        W39054   2.127  29.034  13.153
74235W        W39055  43.830  29.682   2.624
74236W        W39056  24.475   5.040  14.991
74237W        W39057  18.952  17.483   1.300
74238W        W39058  19.468  28.474  13.349
74239W        W39059  26.191  44.996   1.378
74240W        W39060   2.249  20.818   1.229
74241W        W39061   9.797  42.890  11.892
74242W        W39062  37.926  12.287   2.627
74243W        W39063  19.918  25.543  12.837
74244W        W39064  44.910  19.043  10.381
74245W        W39065  16.629  12.149  12.572
74246W        W39066  39.562  20.625  14.948
74247W        W39067  25.354   2.782   3.313
74248W        W39068  14.333  25.685   4.587
74249W        W39069  12.984  39.775   4.326
74250W        W39070  15.546  25.193  13.898
74251W        W39071  31.406  14.843   3.253
74252W        W39072  44.457  37.232  11.663
74253W        W39073   0.620  43.827   1.406
74254W        W39074   7.348  28.435   2.925
74255W        W39075   3.246  36.575   3.252
74256W        W39076   4.689  26.250  12.460
74257W        W39077  33.098  31.988  10.375
74258W        W39078  36.516  33.444  14.567
74259W        W39079  17.709  29.450   3.453
74260W        W39080  12.339  14.892  14.916
74261W        W39081  32.110  27.775  13.624
74262W        W39082  27.570  10.119  14.786
74263W        W39083  19.558  43.075   3.913
74264W        W39084  40.687  25.363  10.889
74265W        W39085  37.091   8.177  14.497
74266W        W39086   9.542  27.102  10.526
74267W        W39087  18.723  37.905  12.119
74268W        W39088  42.191  42.888   4.541
74269W        W39089  37.743   9.619   3.129
74270W        W39090   8.360  21.936   0.734
74271W        W39091  25.543  22.264  11.891
74272W        W39092  36.917  39.552  13.390
74273W        W39093  25.197  31.532   1.893
74274W        W39094  34.619  25.778   3.481
74275W        W39095   3.451  12.358   1.260
74276W        W39096   5.446  42.134  12.946
74277W        W39097   6.127  25.443   2.018
74278W        W39098  42.041  20.493   3.161
74279W        W39099  35.956   1.850  14.857
74280W        W39100   3.983  11.712  13.406
74281W        W39101  37.476  32.318  10.393
74282W        W39102  24.399  43.267   0.898
74283W        W39103  12.657  14.502   4.466
74284W        W39104  10.908  14.722   5.347
74285W        W39105  34.890  38.395  12.107
74286W        W39106   5.439  28.478   0.860
74287W        W39107   9.756  31.765   2.828
74288W        W39108  24.023   6.846   0.169
74289W        W39109   3.990  18.525   0.020
74290W        W39110  43.968  38.368  14.866
74291W        W39111   6.590   6.692   2.353
74292W        W39112  11.581  44.420   0.827
74293W        W39113  10.448  36.126   3.563
74294W        W39114  20.069  36.609   3.118
74295W        W39115  21.531  41.808  11.473
74296W        W39116   7.550  39.298  14.417
74297W        W39117   7.822   1.662   4.722
74298W        W39118  23.079   9.660   1.798
74299W        W39119  37.451  26.264   4.618
74300W        W39120   0.556   9.446   0.762
74301W        W39121   8.963  42.266  11.761
74302W        W39122  11.417  39.422  13.860
74303W        W39123   3.694  34.027   0.707
74304W        W39124   8.163  22.317   2.117
74305W        W39125  40.436   3.193  10.901
74306W        W39126  30.451  31.529  12.954
74307W        W39127  19.040  37.479  10.232
74308W        W39128   2.963   2.706   2.743
74309W        W39129  11.948   7.691   0.942
74310W        W39130   3.006  32.207   0.009
74311W        W39131   4.929  26.734   2.892
74312W        W39132   9.785  30.339  13.049
74313W        W39133   2.028  43.851   0.038
74314W        W39134  12.607   6.311   3.203
74315W        W39135   6.772  17.236   4.742
74316W        W39136  35.552  38.545   0.007
74317W        W39137  40.372  22.850   2.171
74318W        W39138  39.016  30.666   2.780
74319W        W39139  38.313  41.586   4.794
74320W        W39140   5.817   6.136  12.913
74321W        W39141  14.210  33.994  11.980
74322W        W39142  14.186  12.140   1.607
74323W        W39143   3.951  32.556   0.019
74324W        W39144  13.138  34.627   2.754
74325W        W39145  32.458  42.176  11.239
74326W        W39146  33.459  38.269  14.689
74327W        W39147   4.735  12.368   3.229
74328W        W39148   2.301  19.958   3.189
74329W        W39149  20.792   0.154  11.749
74330W        W39150  30.699  15.324   0.396
74331W        W39151  19.505  16.312  11.078
74332W        W39152  12.681   5.231  13.996
74333W        W39153  15.137  39.495   3.720
74334W        W39154  39.968  21.524   0.587
74335W        W39155  41.934  39.433  10.458
74336W        W39156  35.560  35.071   0.874
74337W        W39157   7.307   5.409   1.398
74338W        W39158  42.979  37.143  13.282
74339W        W39159  37.419  39.410  13.449
74340W        W39160  14.459  36.680  10.096
74341W        W39161  22.191  18.647   0.360
74342W        W39162  33.069  14.129  13.061
74343W        W39163   3.763   9.373   4.456
74344W        W39164  27.678  12.669   3.343
74345W        W39165  13.413  31.357  14.050
74346W        W39166  36.780  20.010   0.087
74347W        W39167  43.313  37.833   3.066
74348W        W39168  12.141  26.250   9.740
74349W        W39169  18.848  44.148  12.960
74350W        W39170  31.415  16.894   1.877
74351W        W39171   7.192  33.354   4.135
74352W        W39172   0.521  33.469  12.979
74353W        W39173  21.265  21.273  12.405
74354W        W39174  18.646  20.351  13.760
74355W        W39175  20.513  23.639  12.836
74356W        W39176  30.554  36.443  11.461
74357W        W39177   9.714  44.485   0.347
74358W        W39178  30.728  41.138   1.785
74359W        W39179  30.315  22.703  13.301
74360W        W39180  24.432  16.537   3.994
74361W        W39181  19.358   8.364   0.548
74362W        W39182  18.513  37.555   3.229
74363W        W39183  39.016   6.260  10.065
74364W        W39184  42.358  30.025   2.958
74365W        W39185  20.299   9.179   0.436
74366W        W39186  17.630  18.284  10.725
74367W        W39187  28.198  17.768  14.360
74368W        W39188  33.467  30.530   4.345
74369W        W39189  16.408  31.298  12.905
74370W        W39190  32.320  26.184   0.338
74371W        W39191  18.015  44.395  14.578
74372W        W39192  40.025  31.475   0.418
74373W        W39193  34.822  28.102  14.422
74374W        W39194  20.573   2.486   1.736
74375W        W39195  10.382  44.866  13.761
74376W        W39196   7.644  19.137  11.552
74377W        W39197  21.457  14.060  10.922
74378W        W39198  16.675   7.305  11.388
74379W        W39199  14.803  20.977  10.771
74380W        W39200  34.775  24.860   2.024
74381W        W39201  20.663  32.291   1.706
74382W        W39202   8.844  22.959  14.345
74383W        W39203  16.888  12.880  11.971
74384W        W39204   8.190  35.421   0.132
74385W        W39205   2.930   1.538   4.056
74386W        W39206  12.228  20.187  14.081
74387W        W39207  25.077   9.147  12.044
74388W        W39208  22.735  18.700   0.371
74389W        W39209  41.991  12.697   2.332
74390W        W39210  44.267  13.919   3.657
74391W        W39211  36.396  41.989  12.842
74392W        W39212  12.234  30.788  13.837
74393W        W39213  30.288  43.583   3.647
74394W        W39214   7.030  39.043   3.792
74395W        W39215   1.296   0.917   2.551
74396W        W39216  40.568  43.461  14.383
74397W        W39217  41.880  18.993   3.297
74398W        W39218  37.475  33.953   3.657
74399W        W39219  30.674   7.315  13.879
74400W        W39220  43.219  25.171  13.409
74401W        W39221  18.816  38.995  11.986
74402W        W39222  23.384  43.447   0.827
74403W        W39223  18.154  31.445  12.391
74404W        W39224  16.965  11.920   2.360
74405W        W39225  23.461  12.705   2.284
74406W        W39226  37.765  12.685  13.917
74407W        W39227  26.911   7.379   2.241
74408W        W39228  43.321   3.552  11.558
74409W        W39229  27.951  41.273   3.775
74410W        W39230  27.493  18.714  12.995
74411W        W39231   6.313  36.484  11.640
74412W        W39232   5.975  26.431  11.573
74413W        W39233  10.486  10.070   2.898
74414W        W39234   3.628  39.071   3.263
74415W        W39235  32.652  19.370   4.076
74416W        W39236  35.894  35.473   1.846
74417W        W39237  17.044  12.926  11.031
74418W        W39238  21.959  18.637  12.972
74419W        W39239  34.569   4.214  12.133
74420W        W39240  38.247  22.301  11.266
74421W        W39241  11.366  43.351   0.922
74422W        W39242  12.510  19.742   4.882
74423W        W39243   5.619  44.019  12.048
74424W        W39244  41.990  20.110  11.095
74425W        W39245  17.608  28.523   3.438
74426W        W39246  29.776  20.911  10.043
74427W        W39247   1.773  34.393  14.865
74428W        W39248  35.579  42.309  14.018
74429W        W39249  24.715  23.501   0.980
74430W        W39250  38.294  31.440   1.755
74431W        W39251  13.329  38.286   4.178
74432W        W39252  18.046  33.659  12.088
74433W        W39253   9.668  20.415   3.715
74434W        W39254   2.826   9.421   0.659
74435W        W39255  44.998  38.926  11.930
74436W        W39256  28.467  38.798   0.970
74437W        W39257  15.294  42.114  13.533
74438W        W39258  27.476  34.023  14.905
74439W        W39259  24.060   9.602  12.272
74440W        W39260   0.015  28.136   3.322
74441W        W39261  18.925  20.692  10.494
74442W        W39262  11.629  15.990  11.291
74443W        W39263  33.832  41.003   2.534
74444W        W39264   8.748  13.580   4.182
74445W        W39265  39.432  41.942   0.253
74446W        W39266  23.296  40.055  14.300
74447W        W39267  23.551   2.343   2.111
74448W        W39268  33.043   9.113  11.680
74449W        W39269  41.691  35.777  13.544
74450W        W39270  29.058  19.826  11.346
74451W        W39271  10.896  20.108  14.579
74452W        W39272   0.972   2.964  14.320
74453W        W39273  11.728  13.333   3.539
74454W        W39274  31.481   0.418  10.622
74455W        W39275  15.096  17.687   1.864
74456W        W39276  43.020  44.393   3.317
74457W        W39277  42.395  13.272  14.838
74458W        W39278  23.526  21.204  11.706
74459W        W39279  31.097  17.835  10.692
74460W        W39280  13.253  11.068   3.671
74461W        W39281   0.096  21.373   3.343
74462W        W39282  40.843  36.754  12.156
74463W        W39283   3.464  29.676  13.475
74464W        W39284  24.725   0.402   1.931
74465W        W39285  42.537  44.007  11.969
74466W        W39286  39.295   6.258  14.011
74467W        W39287  16.588  14.601   1.505
74468W        W39288  33.444  30.978   1.179
74469W        W39289  23.040   2.744   4.299
74470W        W39290  22.196  28.851  14.288
74471W        W39291  29.189  36.811  11.681
74472W        W39292  35.522  11.513   4.502
74473W        W39293   7.339  38.988   4.268
74474W        W39294   1.396  10.207   2.645
74475W        W39295  43.005  37.945  10.718
74476W        W39296  44.490  30.449  12.407
74477W        W39297  20.611  36.132   5.089
74478W        W39298  18.513  34.496   3.400
74479W        W39299  15.589  19.079   0.312
74480W        W39300  40.527   6.185   3.648
74481W        W39301  18.944   5.188   2.763
74482W        W39302  30.949   7.091  11.394
74483W        W39303  13.437   9.570   3.686
74484W        W39304  38.762   8.222  13.908
74485W        W39305  30.974  22.488  13.858
74486W        W39306  27.118  40.247   9.930
74487W        W39307   1.255  18.288   0.405
74488W        W39308   9.583   2.824  12.409
74489W        W39309  30.461  23.180  13.985
74490W        W39310  25.073  14.890   0.708
74491W        W39311  29.061  15.290  12.288
74492W        W39312  18.089  33.876   2.362
74493W        W39313  37.550  37.655  10.176
74494W        W39314   3.137  37.481  11.207
74495W        W39315  35.557  16.715   1.741
74496W        W39316   6.365  22.914   0.267
74497W        W39317   9.744   0.292   4.589
74498W        W39318   9.318   5.184   2.724
74499W        W39319   2.163  26.618   2.092
74500W        W39320   4.878  40.400   0.373
74501W        W39321   2.343   8.589  14.982
74502W        W39322  32.895  29.608  10.631
74503W        W39323  34.467   3.493   2.783
74504W        W39324  27.683  35.996   1.216
74505W        W39325   0.776  18.996  11.449
74506W        W39326  29.548  41.350  11.667
74507W        W39327  23.654   7.925  14.535
74508W        W39328   0.774   8.232   0.437
74509W        W39329  36.152  36.326  14.339
74510W        W39330  36.667  16.146  13.875
74511W        W39331   3.671  29.494   0.869
74512W        W39332  28.883  44.446   3.766
74513W        W39333  24.752  23.308  10.450
74514W        W39334   1.533  17.808   0.440
74515W        W39335  23.752  31.868   1.682
74516W        W39336  36.390  21.252   4.862
74517W        W39337  18.357   9.163  11.276
74518W        W39338  25.868  12.930  11.122
74519W        W39339   7.447  28.461   0.537
74520W        W39340  31.064  19.205   3.616
74521W        W39341  23.737  30.942   3.665
74522W        W39342  31.963  42.473   0.714
74523W        W39343  43.867  14.024   0.967
74524W        W39344  12.626   4.040  11.558
74525W        W39345  23.596   4.907  10.434
74526W        W39346  17.617  27.673  12.030
74527W        W39347  44.756  11.222   2.427
74528W        W39348  31.091  29.971   1.415
74529W        W39349  12.739  12.266   2.959
74530W        W39350  11.841  10.223   2.724
74531W        W39351  11.782  36.204   1.155
74532W        W39352  42.094   1.963  11.615
74533W        W39353   3.177  30.101  13.527
74534W        W39354  21.666  42.088   3.231
74535W        W39355  30.304  24.016   4.832
74536W        W39356  39.642  43.051  14.791
74537W        W39357  25.255   4.169  13.135
74538W        W39358  25.588  34.085  11.160
74539W        W39359  29.358  30.139  13.364
74540W        W39360  24.661  34.082   0.318
74541W        W39361   2.764  44.967  13.567
74542W        W39362  40.671  27.684  14.790
74543W        W39363  18.226  13.272   1.861
74544W        W39364  30.344  25.602   3.940
74545W        W39365  21.471  27.734   1.861
74546W        W39366   0.957  16.314   0.727
74547W        W39367  43.007  17.678   1.379
74548W        W39368  42.950  44.575   4.221
74549W        W39369   1.452  27.785   0.225
74550W        W39370  24.472   3.509  14.484
74551W        W39371   9.933  26.013   2.489
74552W        W39372  39.599  15.713   0.898
74553W        W39373  41.308  13.320  12.035
74554W        W39374  32.872  29.940   2.303
74555W        W39375  32.806  36.624   1.905
74556W        W39376  19.191  24.266   1.440
74557W        W39377  13.502  24.953   3.165
74558W        W39378   1.253   0.247   4.308
74559W        W39379  25.146  32.102  12.459
74560W        W39380   8.898   4.535  12.428
74561W        W39381  19.991   3.294  11.942
74562W        W39382  21.947  35.422  11.180
74563W        W39383   7.215   3.865  14.855
74564W        W39384  18.174  18.594  13.949
74565W        W39385  18.116  39.363   2.135
74566W        W39386   9.864   5.868   4.778
74567W        W39387  12.192  22.565  10.985
74568W        W39388  17.076   1.279  12.951
74569W        W39389  36.763  30.227  12.083
74570W        W39390   0.697  20.734  11.010
74571W        W39391   4.925  37.941   0.468
74572W        W39392  31.783  13.056   2.764
74573W        W39393  33.199  15.156   3.183
74574W        W39394  32.396  14.263   3.715
74575W        W39395  28.957  18.869  11.661
74576W        W39396  23.679  37.788   4.688
74577W        W39397   4.888   7.226  12.994
74578W        W39398  41.798  30.972   3.613
74579W        W39399  15.236  11.948   3.301
74580W        W39400  10.423   3.815   0.773
74581W        W39401  12.296  13.827   0.933
74582W        W39402   7.497   1.434   1.752
74583W        W39403   0.461   7.631  11.117
74584W        W39404  16.066  26.589  11.077
74585W        W39405  15.078  40.855   3.602
74586W        W39406  15.650   3.692  12.028
74587W        W39407   4.840   8.091   1.329
74588W        W39408  25.618  16.602  12.751
74589W        W39409  22.004  23.192   1.470
74590W        W39410  44.989   7.399  13.934
74591W        W39411  44.544   5.914  12.950
74592W        W39412  33.075  15.628   3.389
74593W        W39413  37.014  42.261   3.690
74594W        W39414  30.755  11.684   2.581
74595W        W39415  20.209  16.017   3.671
74596W        W39416  17.241  35.704   9.903
74597W        W39417  38.665  34.429  11.489
74598W        W39418   4.949  32.907   3.638
74599W        W39419  44.993  17.751  14.103
74600W        W39420  33.040  13.074  12.141
74601W        W39421   5.551  21.607   2.644
74602W        W39422  14.520  32.605   4.061
74603W        W39423  43.748  34.020   3.346
74604W        W39424  17.988   4.229  13.549
74605W        W39425  26.113   2.369  11.614
74606W        W39426  10.492  37.938  11.094
74607W        W39427  18.067  11.214   3.868
74608W        W39428   0.397  10.761  10.637
74609W        W39429   8.658  36.393   2.776
74610W        W39430  33.027  13.641   2.759
74611W        W39431  29.931  38.423   5.047
74612W        W39432  41.500  15.796  12.775
74613W        W39433  14.196   3.865   4.418
74614W        W39434   2.527  30.407   1.840
74615W        W39435  39.498   6.659  11.662
74616W        W39436   5.255  32.271  11.614
74617W        W39437  12.125  40.102  13.502
74618W        W39438   8.896  27.138   2.681
74619W        W39439  18.179  38.276  14.238
74620W        W39440  41.011   7.089  13.393
74621W        W39441  21.266  18.319   4.602
74622W        W39442  16.583  27.138   4.893
74623W        W39443  12.017  19.765   0.512
74624W        W39444  26.512  41.365  14.446
74625W        W39445  19.292  27.663   3.735
74626W        W39446  26.210  27.318  10.740
74627W        W39447  31.710   0.936  14.207
74628W        W39448  10.720  37.987   2.386
74629W        W39449  11.339  36.327   2.622
74630W        W39450   8.695  28.628  13.114
74631W        W39451  38.497  35.834  14.342
74632W        W39452  22.647  26.638   0.453
74633W        W39453  26.061  39.522  12.116
74634W        W39454  11.092  24.166  11.092
74635W        W39455  14.260   0.392  10.701
74636W        W39456  33.535  39.405  12.386
74637W        W39457   1.428  14.187   0.478
74638W        W39458   3.329  12.244  10.817
74639W        W39459  37.677   9.206  11.474
74640W        W39460  11.410   7.063   3.288
74641W        W39461  14.305  29.410   0.680
74642W        W39462  16.296  33.943   4.371
74643W        W39463  14.732   8.703   1.847
74644W        W39464  20.132  38.155   3.233
74645W        W39465  26.044   9.626   2.191
74646W        W39466   5.719  18.144   0.247
74647W        W39467   7.974   7.881  11.378
74648W        W39468  27.877  44.535  10.276
74649W        W39469   7.910  12.408  13.973
74650W        W39470  43.472  39.245  13.033
74651W        W39471   7.220  42.347   4.598
74652W        W39472  41.747   4.231   4.709
74653W        W39473  21.465   6.976  13.123
74654W        W39474  39.181  32.578  12.532
74655W        W39475  20.009  42.606   0.654
74656W        W39476  39.444   1.209   2.773
74657W        W39477  38.115   9.913   3.338
74658W        W39478   3.779  12.706  14.777
74659W        W39479  33.575  39.864  11.131
74660W        W39480  28.034  14.677   4.573
74661W        W39481  26.885  33.443   4.696
74662W        W39482  10.759  18.831  14.759
74663W        W39483  35.080   8.371   3.333
74664W        W39484  36.937   3.698   2.458
74665W        W39485   8.762  33.185  13.476
74666W        W39486  35.188  20.184  14.346
74667W        W39487  32.615  39.348   3.349
74668W        W39488  33.406  23.267   4.533
74669W        W39489   8.147  10.708  11.406
74670W        W39490  15.262  17.304  13.887
74671W        W39491  11.144  33.073  12.111
74672W        W39492  31.852  37.638  14.919
74673W        W39493  30.443   9.618  14.406
74674W        W39494  40.337  30.926  10.969
74675W        W39495  13.503   9.309   4.206
74676W        W39496  21.113   8.346   1.406
74677W        W39497  33.226  14.774   4.614
74678W        W39498  36.685  39.752  10.647
74679W        W39499  19.720  15.966   0.309
74680W        W39500   8.181  35.062   0.538
74681W        W39501  44.877  33.522   4.230
74682W        W39502  14.842   7.305  12.212
74683W        W39503  43.763  12.686   0.758
74684W        W39504  16.405  31.035   9.829
74685W        W39505  14.542   7.966   3.161
74686W        W39506  44.356  37.060  14.961
74687W        W39507  14.422   9.793  10.754
74688W        W39508  40.831  34.824   1.168
74689W        W39509  14.089   9.758   2.636
74690W        W39510   6.875  31.597  13.486
74691W        W39511  18.876  42.548  14.319
74692W        W39512   6.267  31.035  13.796
74693W        W39513   6.993   0.509   3.708
74694W        W39514  31.016  31.876  13.057
74695W        W39515  18.211   0.697  13.537
74696W        W39516   0.414   2.125  11.577
74697W        W39517   3.861  25.018   3.765
74698W        W39518  32.955  22.366   0.693
74699W        W39519   9.086  16.332   1.299
74700W        W39520  25.047  31.554   2.867
74701W        W39521   4.884  39.586   2.220
74702W        W39522   8.627  40.827  13.409
74703W        W39523  14.728  27.263  14.917
74704W        W39524  14.695  43.007   1.800
74705W        W39525  38.517  36.432   4.734
74706W        W39526  10.209   2.977   0.193
74707W        W39527  16.356  25.661  12.979
74708W        W39528  41.369  43.082  14.047
74709W        W39529  35.472  12.854  11.174
74710W        W39530  37.855  10.965  10.713
74711W        W39531  14.418  44.418  13.653
74712W        W39532   6.230   0.310  14.031
74713W        W39533  41.052   1.516  14.960
74714W        W39534  25.714  33.442   3.862
74715W        W39535  28.935  14.312   2.677
74716W        W39536  41.327   8.609   1.949
74717W        W39537  18.861   2.914   4.010
74718W        W39538  41.391  31.233  10.746
74719W        W39539  31.337  11.168   3.736
74720W        W39540  17.778  35.567   3.218
74721W        W39541  34.426   2.892  13.436
74722W        W39542   2.937  28.359   3.765
74723W        W39543   6.694   0.478   0.432
74724W        W39544  27.891  28.230  10.723
74725W        W39545  10.707  30.908  14.831
74726W        W39546  25.066  22.902  10.429
74727W        W39547  28.963  16.414   1.817
74728W        W39548   5.535  29.186   5.250
74729W        W39549   2.155   2.415  11.655
74730W        W39550  18.240  20.381  12.907
74731W        W39551  30.453  27.942   0.429
74732W        W39552   9.681  18.379   0.914
74733W        W39553  13.676  27.201  10.478
74734W        W39554  36.997  33.512   2.735
74735W        W39555   9.696  27.444  14.092
74736W        W39556  35.515  41.981   2.834
74737W        W39557  34.343  33.021   3.205
74738W        W39558   0.940  25.010   0.333
74739W        W39559  13.098  42.684  11.434
74740W        W39560  10.357  23.131  11.053
74741W        W39561  18.083  39.577  11.336
74742W        W39562  39.760  15.705   4.237
74743W        W39563  23.037  33.743  10.313
74744W        W39564  41.648  29.201  14.407
74745W        W39565   2.639   5.829  11.168
74746W        W39566  44.304  29.044  12.866
74747W        W39567  32.851   0.734  13.521
74748W        W39568  41.484   7.396   4.986
74749W        W39569   6.461  11.844  14.789
74750W        W39570   5.858  26.052   1.741
74751W        W39571   5.380  25.491   3.375
74752W        W39572  30.656  39.989  13.037
74753W        W39573  38.955   1.988  11.970
74754W        W39574  17.373  38.606  12.891
74755W        W39575  27.943   2.775   1.118
74756W        W39576  14.320   7.654  10.712
74757W        W39577  40.757  33.468   3.893
74758W        W39578  28.137  10.456   0.076
74759W        W39579  35.789  21.355  13.949
74760W        W39580  30.054  11.918  14.541
74761W        W39581  26.696  37.507   1.821
74762W        W39582  38.404   2.412   0.180
74763W        W39583  24.408  22.239  11.559
74764W        W39584   1.317   2.248  14.760
74765W        W39585  11.525  13.786   9.898
74766W        W39586  44.238   5.093   4.139
74767W        W39587   0.244  43.256   2.980
74768W        W39588   2.433  36.984  12.690
74769W        W39589  41.850  30.561  11.101
74770W        W39590  40.559  16.879   1.667
74771W        W39591  13.548  27.881  14.871
74772W        W39592  42.544   5.730  14.235
74773W        W39593  15.797  11.456   4.538
74774W        W39594  24.167  34.790   9.993
74775W        W39595  24.092  12.116  12.419
74776W        W39596  16.797  14.710   0.379
74777W        W39597   0.407  18.258   4.652
74778W        W39598   7.237  22.114   1.750
74779W        W39599  25.693  24.736   1.329
74780W        W39600  28.279  16.241   2.757
74781W        W39601  32.855   8.896  12.960
74782W        W39602   0.193  22.624   2.706
74783W        W39603  44.411  41.478  11.661
74784W        W39604   6.465  31.807   3.211
74785W        W39605   0.574  16.267   1.072
74786W        W39606  37.969  38.514   4.355
74787W        W39607   8.636  13.261  13.610
74788W        W39608  37.281   8.064  13.958
74789W        W39609  33.478  38.328   4.280
74790W        W39610  20.214  29.654   3.564
74791W        W39611  15.602  17.861   4.501
74792W        W39612  41.328  26.135   1.297
74793W        W39613  12.026  28.532   3.805
74794W        W39614  19.624  39.286  14.861
74795W        W39615  28.577  10.995  14.763
74796W        W39616  39.152  40.770  13.066
74797W        W39617  22.258  35.695  12.931
74798W        W39618  39.946   1.258  10.560
74799W        W39619  10.824  34.328   0.310
74800W        W39620   1.148  20.188   3.851
74801W        W39621  13.789  35.330  11.231
74802W        W39622  17.018  20.144  13.368
74803W        W39623  10.133  35.895   0.862
74804W        W39624  20.643  12.648   4.593
74805W        W39625  14.907  19.891  13.680
74806W        W39626  42.755  40.590   3.571
74807W        W39627  13.603  19.608  11.925
74808W        W39628  17.256   0.074   2.576
74809W        W39629   3.917  13.175   4.124
74810W        W39630  43.919  40.928   3.549
74811W        W39631   3.008   3.659   4.760
74812W        W39632  27.360  10.923   1.905
74813W        W39633  18.254  27.926   3.607
74814W        W39634  31.507  19.182   0.311
74815W        W39635  41.971   4.703  12.473
74816W        W39636  27.136  33.150   2.233
74817W        W39637  10.880  23.686   4.192
74818W        W39638  44.639  28.066  12.831
74819W        W39639  24.139  18.714  12.448
74820W        W39640  31.182   6.020  11.130
74821W        W39641  30.070  13.184  14.937
74822W        W39642  36.111   0.150   1.227
74823W        W39643   7.871  14.430  11.709
74824W        W39644  27.464  11.339  10.531
74825W        W39645   2.312  36.943   4.578
74826W        W39646  43.895   9.840   0.180
74827W        W39647  44.313   2.075   3.625
74828W        W39648  38.442  29.271  13.755
74829W        W39649  19.552   4.978   3.114
74830W        W39650  22.057  37.896   1.355
74831W        W39651  42.091  14.077  10.371
74832W        W39652  34.108   8.209   0.814
74833W        W39653   5.720  21.063   1.923
74834W        W39654  11.932  11.041   1.751
74835W        W39655  39.477   5.918   1.830
74836W        W39656   2.435  34.493  11.560
74837W        W39657  32.023   0.372   3.650
74838W        W39658  24.977  39.329  14.804
74839W        W39659   2.227  44.692  11.439
74840W        W39660  35.328   9.206  11.096
74841W        W39661  38.875  40.997   3.415
74842W        W39662  22.122  33.354   2.458
74843W        W39663  42.833  36.997  14.063
74844W        W39664  22.958  33.907   0.880
74845W        W39665  42.395   5.711   2.715
74846W        W39666  10.514  33.921   2.544
74847W        W39667  21.648  34.424  11.195
74848W        W39668   3.317  40.413  11.453
74849W        W39669  12.321  44.696   1.795
74850W        W39670  29.812  28.045  12.577
74851W        W39671  28.952  14.020   2.248
74852W        W39672   2.982  40.041  14.431
74853W        W39673  32.857  22.004   2.278
74854W        W39674  16.145  33.660  12.283
74855W        W39675  33.853  11.667  11.062
74856W        W39676  20.988  22.110   1.758
74857W        W39677  28.415  11.658  10.722
74858W        W39678   2.710  20.440  12.926
74859W        W39679  34.353  21.251   4.191
74860W        W39680   1.299  27.483  12.334
74861W        W39681   3.831  23.271   0.251
74862W        W39682  24.538  31.131   3.294
74863W        W39683  25.449  42.465   4.878
74864W        W39684  37.324  38.383   1.642
74865W        W39685  19.093   3.276  14.841
74866W        W39686   0.724  16.276  13.129
74867W        W39687   0.827  29.200  10.816
74868W        W39688  29.517  16.711  13.211
74869W        W39689   1.963  31.876  11.130
74870W        W39690  35.108  32.954   4.357
74871W        W39691  24.567  15.680  11.502
74872W        W39692  32.001   5.443   1.304
74873W        W39693  28.519  14.280   0.931
74874W        W39694  13.795  18.787  14.940
74875W        W39695  23.681   6.977   4.780
74876W        W39696  31.629  25.873   2.971
74877W        W39697  27.905   1.535  13.051
74878W        W39698  16.522  19.758   1.282
74879W        W39699  30.964   5.445  13.357
74880W        W39700  33.605  24.569   2.223
74881W        W39701  14.686  40.525   1.283
74882W        W39702  15.154   4.316   3.267
74883W        W39703  11.297  40.856   1.770
74884W        W39704  24.717  22.967  13.825
74885W        W39705  44.839  19.784  14.503
74886W        W39706  39.813  38.115   3.189
74887W        W39707  38.056  19.068   3.114
74888W        W39708  41.098  37.756  11.655
74889W        W39709  28.169   0.307   2.843
74890W        W39710  20.251   9.666  13.370
74891W        W39711  36.152  38.375   3.575
74892W        W39712  30.959  22.917  14.830
74893W        W39713  21.019  27.397  14.396
74894W        W39714  36.115  15.033  11.024
74895W        W39715   2.998  40.507   3.091
74896W        W39716  28.927  36.545  12.051
74897W        W39717  24.715  29.078   1.300
74898W        W39718  29.943  36.030  13.863
74899W        W39719  26.652  35.292   3.668
74900W        W39720  15.965  16.393   2.670
74901W        W39721   8.368  28.995  12.929
74902W        W39722  24.267  37.575  14.053
74903W        W39723  28.544  33.475  14.791
74904W        W39724  25.142  16.702   4.111
74905W        W39725   1.900  26.670  13.802
74906W        W39726   9.131   8.726   1.702
74907W        W39727  38.389  27.441  13.676
74908W        W39728   2.793  20.013   1.226
74909W        W39729   1.268  30.802  14.870
74910W        W39730  12.284  41.342   4.147
74911W        W39731  27.474  36.392   1.496
74912W        W39732  24.590  28.632  11.542
74913W        W39733  42.249  12.143  12.410
74914W        W39734  27.016  38.075   1.741
74915W        W39735  12.711  19.716  14.766
74916W        W39736  16.963   3.313   4.978
74917W        W39737  26.639  25.230   1.509
74918W        W39738  13.925   3.158   4.528
74919W        W39739   3.219  16.110  12.953
74920W        W39740  29.393  31.197  14.990
74921W        W39741  19.528  22.477  11.113
74922W        W39742  31.705  18.253   3.695
74923W        W39743   8.783  44.178  12.920
74924W        W39744  28.673   8.714  12.517
74925W        W39745  39.246  20.811   4.925
74926W        W39746  29.509  35.454  13.450
74927W        W39747   7.774  16.860   2.231
74928W        W39748  26.920   1.735   2.385
74929W        W39749  44.043  41.094  11.521
74930W        W39750   5.183  24.416  14.382
74931W        W39751  43.514  43.324   0.918
74932W        W39752  38.201  39.999  13.366
74933W        W39753  34.970   2.894  14.326
74934W        W39754  18.692   4.481  14.847
74935W        W39755  14.784  25.126  10.853
74936W        W39756  33.010   4.703   0.952
74937W        W39757  27.153   6.512   2.658
74938W        W39758  27.221  32.073  10.422
74939W        W39759  19.858  27.088  11.987
74940W        W39760   7.710  25.382  11.675
74941W        W39761  25.183   7.018  12.634
74942W        W39762   4.329  24.761   9.667
74943W        W39763  17.377  34.438  10.735
74944W        W39764   7.623  34.756  12.444
74945W        W39765   3.858  15.680   0.392
74946W        W39766  25.369  16.287   4.321
74947W        W39767  43.933  27.193   2.399
74948W        W39768  24.042  19.649  14.956
74949W        W39769   7.250   5.455   4.124
74950W        W39770   2.956  31.615   3.408
74951W        W39771  23.104   3.639   4.586
74952W        W39772  15.743   8.654  10.994
74953W        W39773  15.289   4.443  12.116
74954W        W39774  34.183  17.250  13.455
74955W        W39775  43.893  32.488   1.434
74956W        W39776  15.592  22.807   2.751
74957W        W39777   8.245  14.576   4.099
74958W        W39778  10.875  22.855  14.827
74959W        W39779  14.440  25.408   0.675
74960W        W39780  42.028  22.983  12.063
74961W        W39781  10.641  29.479  13.701
74962W        W39782  41.555  26.290   3.133
74963W        W39783   3.503  17.252  14.554
74964W        W39784  31.891  16.217   0.405
74965W        W39785  20.810  34.756  13.797
74966W        W39786  40.186  33.805  12.518
74967W        W39787  39.796   6.888   4.505
74968W        W39788  41.860   3.058  14.801
74969W        W39789  44.860  26.095  12.295
74970W        W39790  16.107   2.859   0.854
74971W        W39791   8.733  21.969   3.109
74972W        W39792  17.807  37.401   0.411
74973W        W39793  21.727   0.848  10.145
74974W        W39794  42.581  41.081   3.608
74975W        W39795  34.404  39.836  14.836
74976W        W39796  14.173   8.286   1.693
74977W        W39797  19.067  30.669  11.649
74978W        W39798   7.640  36.012  10.830
74979W        W39799  36.036  19.998  12.011
74980W        W39800  13.723  14.865   1.431
74981W        W39801  29.447  12.191  12.509
74982W        W39802  24.661   1.905  10.699
74983W        W39803  27.632  43.074   1.805
74984W        W39804  17.161  19.538  10.422
74985W        W39805  43.600  38.286  11.034
74986W        W39806  25.320  15.050   3.289
74987W        W39807  20.169  26.185  13.510
74988W        W39808   1.219   9.791  13.332
74989W        W39809  44.879  32.962   4.268
74990W        W39810  13.432  37.431  11.577
74991W        W39811  34.943  23.554   9.840
74992W        W39812   4.202  30.446  11.148
74993W        W39813  36.575  21.119   0.755
74994W        W39814  23.871  25.555   1.845
74995W        W39815  43.955  21.158  12.891
74996W        W39816   4.200  21.618   4.787
74997W        W39817  10.821   9.710  12.029
74998W        W39818   6.776  30.960  13.793
74999W        W39819   8.965  11.642  12.521
75000W        W39820  20.927  12.143   2.754
75001W        W39821  18.896  42.522  11.529
75002W        W39822  29.621   2.359  10.667
75003W        W39823   9.649   7.266  10.749
75004W        W39824   7.628  27.003  13.824
75005W        W39825  34.048  17.659   3.912
75006W        W39826  20.167  17.779   0.926
75007W        W39827   0.803   7.656  13.468
75008W        W39828   0.515  12.750  13.592
75009W        W39829  35.089  23.464   2.216
75010W        W39830  18.696  18.209  11.605
75011W        W39831   5.732  31.675  13.735
75012W        W39832  28.549  29.402   0.671
75013W        W39833  15.215  25.175   3.786
75014W        W39834   3.751   6.898  11.529
75015W        W39835  30.835  15.910  10.711
75016W        W39836  40.506   2.700  12.885
75017W        W39837   6.910   6.836   2.738
75018W        W39838  10.720  11.879   4.854
75019W        W39839  24.107   5.327   3.247
75020W        W39840  42.853   4.849  12.420
75021W        W39841  20.942  41.143   0.379
75022W        W39842  24.543  25.459  13.636
75023W        W39843   5.561   1.304   0.419
75024W        W39844  24.439   6.188  14.709
75025W        W39845  33.977  11.969   3.272
75026W        W39846  32.677   3.407  11.617
75027W        W39847  35.188  33.585  14.965
75028W        W39848  14.227   0.676   2.350
75029W        W39849  33.983  28.213   0.764
75030W        W39850   7.817  16.596  12.987
75031W        W39851  10.732  43.011   2.353
75032W        W39852  21.494  38.443  12.380
75033W        W39853  42.845  23.532  12.968
75034W        W39854  21.438   5.753  13.443
75035W        W39855  11.629  23.479  11.660
75036W        W39856  32.406  20.335  13.709
75037W        W39857  14.409  16.186  11.635
75038W        W39858  32.697  35.067  12.044
75039W        W39859  32.040  20.566   1.464
75040W        W39860  13.653  31.319   0.224
75041W        W39861   8.858  36.108   2.327
75042W        W39862  24.612  11.498   4.178
75043W        W39863  35.385   3.753   1.353
75044W        W39864   8.469  18.604   3.862
75045W        W39865  25.546  18.223   4.489
75046W        W39866  23.038  24.131   4.847
75047W        W39867   0.889  12.383  11.364
75048W        W39868  34.951  34.444  14.450
75049W        W39869  44.664  37.521   3.786
75050W        W39870  33.881  23.097   2.130
75051W        W39871   2.308   5.454  13.861
75052W        W39872   1.674   6.488   3.763
75053W        W39873  21.211   3.308  13.825
75054W        W39874  15.650  17.662   1.905
75055W        W39875  21.363  24.112  12.907
75056W        W39876  40.633  29.439   1.908
75057W        W39877  23.668   4.324   1.434
75058W        W39878  28.047  20.718  13.985
75059W        W39879  30.610  11.354   1.230
75060W        W39880   3.571  27.272  12.521
75061W        W39881  39.057  15.757  13.441
75062W        W39882  38.397  25.492   4.319
75063W        W39883  10.645   1.498   0.243
75064W        W39884  36.160  44.905   0.411
75065W        W39885  19.698   3.207  12.530
75066W        W39886  24.578  33.154   1.836
75067W        W39887  10.532  44.907   1.226
75068W        W39888  34.421  43.099   4.119
75069W        W39889   3.936  36.636  12.943
75070W        W39890  22.548  37.281   4.989
75071W        W39891  20.747  23.759  13.372
75072W        W39892  17.267  28.445  12.398
75073W        W39893  34.361  16.840  14.395
75074W        W39894  41.858  38.485   2.708
75075W        W39895  43.885   8.829   3.836
75076W        W39896  36.919  41.157  10.756
75077W        W39897  37.346  32.585  13.911
75078W        W39898  11.986  25.488   1.945
75079W        W39899  18.809  29.142   3.849
75080W        W39900  14.343  39.416  13.109
75081W        W39901   2.682  27.261  13.501
75082W        W39902  33.855  17.333   2.735
75083W        W39903  18.794  43.933   1.788
75084W        W39904   3.974   1.349   4.318
75085W        W39905  17.081   9.964   5.028
75086W        W39906  26.191  34.130   3.287
75087W        W39907  22.598  42.499  14.179
75088W        W39908  22.418  41.044  14.146
75089W        W39909  32.909  31.542   2.274
75090W        W39910  21.211  36.272   3.614
75091W        W39911  40.530  33.397   1.885
75092W        W39912   7.640  36.075   3.803
75093W        W39913  23.681  18.723   2.186
75094W        W39914  41.744   1.354  14.402
75095W        W39915  31.315  35.271  11.974
75096W        W39916  27.630   9.591  12.491
75097W        W39917  18.056  20.597  11.200
75098W        W39918   9.454  22.079  13.034
75099W        W39919  32.131  13.379   3.183
75100W        W39920  20.073   2.894  11.574
75101W        W39921  14.677  15.379  13.013
75102W        W39922  42.013   5.250  11.345
75103W        W39923  41.490  21.829  11.762
75104W        W39924   4.912  21.676   0.229
75105W        W39925  17.126  42.432   3.368
75106W        W39926  22.848  22.308   2.220
75107W        W39927  24.312  34.887   4.599
75108W        W39928  15.720  11.859  13.768
75109W        W39929   1.391  25.000   3.160
75110W        W39930  15.436  16.359   1.356
75111W        W39931  25.959   4.269  12.619
75112W        W39932  14.880   2.282   1.659
75113W        W39933   3.795  15.920  14.245
75114W        W39934  38.664  18.196   3.792
75115W        W39935  23.893  41.275   2.596
75116W        W39936  43.057  13.822  12.190
75117W        W39937  21.913  12.832  13.660
75118W        W39938   0.852  13.296  12.436
75119W        W39939   1.316  18.554   3.505
75120W        W39940  12.201  32.179   2.187
75121W        W39941   5.125  16.345  12.057
75122W        W39942  20.008  10.023  14.280
75123W        W39943   4.352  41.436  11.608
75124W        W39944  41.290  10.243   1.859
75125W        W39945  36.465  43.721  14.526
75126W        W39946  37.854  26.414  14.425
75127W        W39947  11.873  35.577  13.490
75128W        W39948   0.710  22.002   4.242
75129W        W39949  37.948  42.488  14.519
75130W        W39950   6.712  29.973  12.128
75131W        W39951  26.903  24.147  10.990
75132W        W39952  27.140  31.069   0.838
75133W        W39953  12.192  27.516   2.729
75134W        W39954  10.289  10.325  14.590
75135W        W39955  12.645  21.860   4.630
75136W        W39956   6.690  31.141  13.317
75137W        W39957   3.221  12.026  11.269
75138W        W39958  31.525  43.459  14.519
75139W        W39959  14.995  21.988   4.320
75140W        W39960  20.589  10.409   2.810
75141W        W39961   5.894   2.262  12.512
75142W        W39962   2.304  36.152  13.367
75143W        W39963  44.476  38.575  14.859
75144W        W39964  43.512  24.810   3.785
75145W        W39965  13.728  44.430  11.656
75146W        W39966  13.085   6.548  14.280
75147W        W39967   9.270   1.565  12.805
75148W        W39968  33.046  40.816   0.393
75149W        W39969  42.342  26.025   4.296
75150W        W39970  14.846  30.411  10.364
75151W        W39971   9.419  20.210  11.443
75152W        W39972  34.824  27.421  12.769
75153W        W39973   9.429  44.925   0.290
75154W        W39974   5.482  36.362  13.110
75155W        W39975   1.178  20.676  10.858
75156W        W39976  16.192  21.264  14.967
75157W        W39977  12.819  38.326  12.956
75158W        W39978  19.038  28.487   1.415
75159W        W39979  17.185  25.859  12.012
75160W        W39980   5.233  33.144  14.358
75161W        W39981   3.835  35.489  12.173
75162W        W39982  13.955  36.662  10.225
75163W        W39983  14.888  20.631   1.087
75164W        W39984  20.678   7.901  10.989
75165W        W39985  17.987   0.459   2.478
75166W        W39986  30.061  30.875   2.853
75167W        W39987  44.571  32.912  12.284
75168W        W39988  36.408  43.217   9.920
75169W        W39989  43.394   8.339   5.066
75170W        W39990  18.579  40.881   4.600
75171W        W39991   9.223  26.697  12.336
75172W        W39992  22.758  43.354   3.084
75173W        W39993  36.828  26.087  11.301
75174W        W39994  30.859  16.910  12.502
75175W        W39995  15.326  34.476   4.506
75176W        W39996  19.926  18.266  12.896
75177W        W39997  17.326  30.650   3.667
75178W        W39998  32.159   5.922  13.560
75179W        W39999  12.248  12.227   0.487
75180W        W40000   8.855  10.878  13.806
75181W        W40001  39.020  24.956  10.470
75182W        W40002  40.043   9.661  10.281
75183W        W40003   3.837  30.197   1.299
75184W        W40004  25.069  40.232   4.459
75185W        W40005  10.586  37.106  12.162
75186W        W40006  29.079  31.308  14.035
75187W        W40007  21.006  10.137   2.693
75188W        W40008  13.571  17.967   0.491
75189W        W40009  20.759   8.913   0.518
75190W        W40010  38.232  30.967  13.392
75191W        W40011  35.965  13.869  12.829
75192W        W40012  42.293  23.750   0.083
75193W        W40013  38.580   1.191   0.373
75194W        W40014  28.958  25.472  11.327
75195W        W40015  41.321  12.049  14.172
75196W        W40016  21.548  24.501   2.962
75197W        W40017   3.504  42.846   3.161
75198W        W40018  26.945  16.872  14.907
75199W        W40019  14.197   4.427   2.084
75200W        W40020  40.700   4.479   3.721
75201W        W40021  29.903  43.974  13.849
75202W        W40022  26.952  37.414  11.424
75203W        W40023  36.666  19.172   1.383
75204W        W40024  30.139  10.478  13.961
75205W        W40025  34.481  16.631   0.300
75206W        W40026   3.681  21.817   1.013
75207W        W40027  40.784  13.163  14.808
75208W        W40028  33.039  19.988   3.283
75209W        W40029  40.249   4.308   4.529
75210W        W40030  12.109  24.643   0.510
75211W        W40031  40.814  34.595   3.374
75212W        W40032  17.646  35.667  10.253
75213W        W40033  22.770  35.003   2.729
75214W        W40034   6.472  29.485   3.924
75215W        W40035  40.047  37.875  13.986
75216W        W40036  12.072  41.706  13.880
75217W        W40037  37.052  19.057   4.070
75218W        W40038  19.927  17.226   0.820
75219W        W40039  41.273  32.936  14.267
75220W        W40040  40.745  35.303  11.900
75221W        W40041  15.147  31.362  11.111
75222W        W40042  16.961  30.684   3.205
75223W        W40043  20.150  23.510  11.382
75224W        W40044   7.426  37.445   2.871
75225W        W40045  10.098  25.215   1.833
75226W        W40046  33.118  36.647   4.069
75227W        W40047  43.853   7.838   2.911
75228W        W40048  22.186  34.577   2.402
75229W        W40049  37.101  29.955  13.319
75230W        W40050  21.737   5.484   4.848
75231W        W40051  21.942  13.227   3.742
75232W        W40052   6.700  28.806  13.955
75233W        W40053  19.077  24.636   3.724
75234W        W40054   1.313  30.177  13.445
75235W        W40055  35.579  35.457   1.250
75236W        W40056   1.342   3.322   4.968
75237W        W40057  37.411   1.980   2.374
75238W        W40058  29.017  35.388  13.660
75239W        W40059  33.911  16.320   1.316
75240W        W40060  16.271   7.662   3.300
75241W        W40061  36.290  29.001  14.005
75242W        W40062  32.669  28.580  12.114
75243W        W40063  11.759  21.579   0.018
75244W        W40064  22.657  41.877  11.462
75245W        W40065  16.263   7.947  11.596
75246W        W40066  16.203  20.691   3.623
75247W        W40067   4.301   4.498  10.439
75248W        W40068  36.303  31.140   2.174
75249W        W40069  24.724   2.385   3.635
75250W        W40070  16.815   5.831   2.242
75251W        W40071  25.590  22.121   1.200
75252W        W40072  30.913  21.557   2.641
75253W        W40073  27.330  40.047   4.176
75254W        W40074  26.524  39.014  14.283
75255W        W40075  24.777   7.727  13.595
75256W        W40076  43.733  16.468   4.649
75257W        W40077  27.625   6.764  10.535
75258W        W40078  17.241  34.090   3.137
75259W        W40079  13.106  33.119  10.745
75260W        W40080  24.162  11.667   5.024
75261W        W40081  15.185  17.028   0.741
75262W        W40082  28.724   3.100  13.839
75263W        W40083  44.645   5.755   2.697
75264W        W40084  40.401  34.304   1.391
75265W        W40085  28.994  40.787   1.202
75266W        W40086  36.825  15.294   0.949
75267W        W40087  13.582  32.018  13.521
75268W        W40088  40.813   4.174  11.939
75269W        W40089  23.091  41.044   0.796
75270W        W40090  11.536  21.086   5.481
75271W        W40091  26.080   1.283   3.265
75272W        W40092  32.930  26.469   0.670
75273W        W40093  31.959  24.697   1.915
75274W        W40094  32.898  10.725  12.144
75275W        W40095   8.803  10.845  12.088
75276W        W40096  28.513  41.326  13.007
75277W        W40097  36.255  36.570   4.445
75278W        W40098   9.508  23.233  11.714
75279W        W40099  43.236   0.617   3.997
75280W        W40100  17.103  16.651   1.734
75281W        W40101   1.392  26.495   1.019
75282W        W40102  35.463  29.228  12.890
75283W        W40103  12.340  37.783   3.213
75284W        W40104  27.247  19.557   3.823
75285W        W40105  15.732  23.146   3.365
75286W        W40106  35.841  13.301   3.681
75287W        W40107  38.343  18.041  13.077
75288W        W40108  19.028  19.265   4.079
75289W        W40109   9.121  33.455  11.493
75290W        W40110  21.105   7.787   4.992
75291W        W40111   2.326   5.144  14.850
75292W        W40112  25.522  16.458   2.425
75293W        W40113  27.693  33.636   3.643
75294W        W40114   0.425  42.337   3.380
75295W        W40115  33.981  41.313   0.438
75296W        W40116   2.139   4.668  14.972
75297W        W40117  28.886  38.345   2.648
75298W        W40118   6.151   1.957   1.734
75299W        W40119  43.348  12.617   2.250
75300W        W40120   1.538  29.318  12.485
75301W        W40121   6.021  23.990  11.129
75302W        W40122   2.366  13.168  10.758
75303W        W40123  10.882  33.918   2.886
75304W        W40124  18.210  38.083   5.368
75305W        W40125  14.870  10.801  11.331
75306W        W40126  14.356   3.548   0.358
75307W        W40127  37.381   1.900  13.102
75308W        W40128  25.247   0.487   1.892
75309W        W40129   8.138  44.812   2.428
75310W        W40130  11.724   5.683  10.762
75311W        W40131   2.674  30.529  13.831
75312W        W40132  41.907   3.900   3.791
75313W        W40133  28.468  11.143   0.237
75314W        W40134  33.318  29.147  13.930
75315W        W40135  30.974  41.886  12.979
75316W        W40136  12.788  34.668   3.370
75317W        W40137  44.815   4.765  11.528
75318W        W40138  40.618   2.970  13.318
75319W        W40139  28.451  41.519  12.014
75320W        W40140  41.011   1.375   0.881
75321W        W40141  30.479  12.212  11.633
75322W        W40142  23.245  17.465   0.445
75323W        W40143  13.630  23.338  14.462
75324W        W40144  35.286  37.608   3.235
75325W        W40145  44.185   3.825  13.871
75326W        W40146  34.635   0.622  14.718
75327W        W40147  12.717  12.064  10.485
75328W        W40148  41.052  13.592  14.708
75329W        W40149   5.299  21.753   4.110
75330W        W40150  41.234  19.895   2.715
75331W        W40151  10.798  19.681   0.812
75332W        W40152  38.787  23.220  11.033
75333W        W40153  25.590  26.166   2.869
75334W        W40154   8.810  38.576  13.007
75335W        W40155  37.307  28.743  14.312
75336W        W40156  37.350  24.961  14.595
75337W        W40157  32.440  21.769  13.475
75338W        W40158  14.347  31.406  14.971
75339W        W40159  25.663  27.951   4.173
75340W        W40160  22.705   3.919  10.699
75341W        W40161  32.722  27.968   0.374
75342W        W40162  43.015  14.264   0.437
75343W        W40163  21.493  33.420   3.282
75344W        W40164   0.990   3.226  13.854
75345W        W40165  37.500  37.192  12.850
75346W        W40166  34.708  29.419   4.161
75347W        W40167  33.967  26.747  10.658
75348W        W40168  29.628  36.517  12.559
75349W        W40169   0.069   9.765   4.107
75350W        W40170  39.806  23.725   2.139
75351W        W40171  42.878  17.260  14.347
75352W        W40172   8.727  21.191  10.523
75353W        W40173  16.688  22.016  11.574
75354W        W40174  17.351  22.231  12.656
75355W        W40175  30.043  34.176  12.431
75356W        W40176  44.756   9.794   1.790
75357W        W40177  38.520  21.125  13.918
75358W        W40178  14.346  32.671   2.263
75359W        W40179  24.479   4.903  13.018
75360W        W40180  10.305  38.880  14.498
75361W        W40181   8.122  37.378  10.195
75362W        W40182  40.904   3.796   2.799
75363W        W40183   7.406  30.568  12.512
75364W        W40184  24.771  24.432   3.085
75365W        W40185  39.605  26.929  11.929
75366W        W40186  22.880  20.209   5.036
75367W        W40187  43.902  28.617  11.010
75368W        W40188  37.224  21.192  12.535
75369W        W40189  30.580   3.261  10.674
75370W        W40190  38.514  33.788  10.960
75371W        W40191   3.071  16.754   1.351
75372W        W40192  13.840  24.531  12.553
75373W        W40193  35.540  44.361  13.949
75374W        W40194   9.677  14.108  14.868
75375W        W40195  19.778   5.798   2.491
75376W        W40196  20.049  38.955  14.161
75377W        W40197  12.305  27.677   4.540
75378W        W40198  42.957  33.213  14.914
75379W        W40199  35.112   9.043  13.145
75380W        W40200  35.163  36.581  11.800
75381W        W40201  31.024  11.327  14.326
75382W        W40202  18.168  28.074  11.402
75383W        W40203  37.371  36.502  14.948
75384W        W40204  37.524  41.432   3.188
75385W        W40205  17.715   6.942  14.997
75386W        W40206  11.835  11.601   0.405
75387W        W40207  38.983  10.989   1.358
75388W        W40208  19.311  30.654  13.835
75389W        W40209  15.562   8.353   5.276
75390W        W40210  28.408  12.737   4.665
75391W        W40211  32.219   7.804   0.839
75392W        W40212  17.236  24.690  13.524
75393W        W40213   0.245   1.994   3.719
75394W        W40214  15.436  20.133  13.769
75395W        W40215  18.486   3.263   4.916
75396W        W40216  26.662  35.613  13.175
75397W        W40217  41.678  38.222   1.471
75398W        W40218  18.262  40.538  14.290
75399W        W40219   1.826  11.084   0.405
75400W        W40220   0.485  28.465   1.618
75401W        W40221  32.765  14.283   3.328
75402W        W40222  22.056  42.957   2.274
75403W        W40223  24.415  31.904  12.084
75404W        W40224   5.757  35.608   3.275
75405W        W40225  41.303   1.146   3.028
75406W        W40226   0.832  25.236   3.632
75407W        W40227  10.228  34.578  10.823
75408W        W40228  31.808  25.065  13.459
75409W        W40229  28.406   9.758   2.912
75410W        W40230  35.538  40.432   0.430
75411W        W40231  25.534  21.304   0.748
75412W        W40232  17.516  34.582   1.260
75413W        W40233  20.718  41.905   4.128
75414W        W40234   9.416  15.724   0.525
75415W        W40235   1.348   0.288  14.583
75416W        W40236  42.066  17.098   1.936
75417W        W40237  24.610   1.079  12.969
75418W        W40238  14.793  17.558  13.830
75419W        W40239  35.119  18.689   3.241
75420W        W40240  10.199  37.199   2.832
75421W        W40241  25.459  18.230  10.210
75422W        W40242   8.000  44.519  14.703
75423W        W40243  14.712   2.465  14.345
75424W        W40244  34.497  26.269   0.841
75425W        W40245  28.207  24.453  12.945
75426W        W40246   1.371  20.531   3.121
75427W        W40247   8.705  18.181  13.492
75428W        W40248  38.307  16.823   3.321
75429W        W40249   0.925  25.195  13.726
75430W        W40250  32.077  25.207   2.673
75431W        W40251  36.349  39.904  13.936
75432W        W40252   0.923   8.444   0.918
75433W        W40253  25.095  25.219   4.649
75434W        W40254   0.016  31.653  11.661
75435W        W40255  15.327  30.878  11.042
75436W        W40256  36.337  24.680  13.983
75437W        W40257  24.715   7.880   2.345
75438W        W40258  12.653   5.689  13.284
75439W        W40259  18.567  19.713  10.254
75440W        W40260  12.564  41.002  12.922
75441W        W40261  23.420   3.489   2.618
75442W        W40262   3.340  36.127   1.468
75443W        W40263  22.041  10.331   0.450
75444W        W40264  33.446  37.395   4.959
75445W        W40265   6.704  14.656  12.124
75446W        W40266  17.762  25.782   0.766
75447W        W40267  38.056   7.719  12.019
75448W        W40268   1.850  39.227  14.514
75449W        W40269  36.002  11.439   4.267
75450W        W40270   8.780  37.230   0.341
75451W        W40271  40.001  32.168  11.489
75452W        W40272  33.012  16.205   2.649
75453W        W40273  34.711  15.195   1.202
75454W        W40274  27.702  16.046  14.642
75455W        W40275  22.104  37.542   4.894
75456W        W40276   4.245  22.634  12.835
75457W        W40277  36.389   5.003   2.126
75458W        W40278   8.239  42.292   4.123
75459W        W40279  18.519  23.942  10.732
75460W        W40280   7.924  29.475  13.846
75461W        W40281  35.888  36.376  14.839
75462W        W40282  23.018  32.972  14.507
75463W        W40283  10.880  30.645   2.648
75464W        W40284  31.623  22.093   0.500
75465W        W40285   0.777  16.779   0.913
75466W        W40286  22.424   3.066   3.982
75467W        W40287  34.536   1.918   2.783
75468W        W40288  44.979   6.879   4.263
75469W        W40289  35.418  44.107  13.491
75470W        W40290  24.729  14.228   2.331
75471W        W40291  29.666   3.761   2.665
75472W        W40292   1.689  43.887   4.592
75473W        W40293  21.201  23.147   2.673
75474W        W40294  18.137  11.137   3.316
75475W        W40295  15.328   2.294   1.896
75476W        W40296  20.027   1.266   1.496
75477W        W40297   2.959   6.336   2.656
75478W        W40298  29.179   4.573   4.210
75479W        W40299   9.927  36.242   4.472
75480W        W40300  38.993  21.988   1.507
75481W        W40301  23.257  21.346   2.239
75482W        W40302  37.433  19.711   4.478
75483W        W40303  12.667  34.590   3.865
75484W        W40304  17.745   6.137  12.472
75485W        W40305  22.093  12.568   3.811
75486W        W40306  14.068   4.205   3.023
75487W        W40307  12.008  44.008   1.295
75488W        W40308  39.064  18.519   3.599
75489W        W40309  15.039  11.806   4.816
75490W        W40310  19.654  36.030   9.845
75491W        W40311  25.510  23.198  10.432
75492W        W40312  36.798  25.059   3.586
75493W        W40313  44.220   7.155   4.179
75494W        W40314  33.539  26.671   1.435
75495W        W40315  36.173  28.909  10.263
75496W        W40316  37.552  34.436  12.415
75497W        W40317  16.110  14.852   2.333
75498W        W40318  44.129  17.994   3.660
75499W        W40319  33.994  43.053   2.255
75500W        W40320   2.248  21.681  13.935
75501W        W40321   9.599  39.837  12.610
75502W        W40322  43.235  17.114  14.911
75503W        W40323  39.770  18.649  10.382
75504W        W40324   4.153   6.212  11.036
75505W        W40325  40.887  22.723  10.400
75506W        W40326  15.762  24.786   0.733
75507W        W40327  13.001  29.130   0.825
75508W        W40328   5.833   6.770   1.749
75509W        W40329   9.739  21.032   4.201
75510W        W40330  23.230  19.191  14.815
75511W        W40331  26.775  10.361   1.157
75512W        W40332  31.311  13.258   4.112
75513W        W40333  38.630  18.223   0.409
75514W        W40334  19.586  26.125   2.030
75515W        W40335  27.923   3.697   2.099
75516W        W40336  10.237  38.455   3.660
75517W        W40337   9.666  37.248   2.294
75518W        W40338  34.413  41.919  13.929
75519W        W40339  41.340  37.322  14.083
75520W        W40340  37.374  19.547   1.588
75521W        W40341   8.161  33.198   0.389
75522W        W40342   8.372  31.529   3.338
75523W        W40343   5.928  19.286   2.721
75524W        W40344  29.295  13.306  12.036
75525W        W40345  15.731  35.670  10.265
75526W        W40346  39.855  25.536   3.675
75527W        W40347  17.304  39.998   2.657
75528W        W40348  37.596   6.157  11.158
75529W        W40349  26.775  36.591   1.077
75530W        W40350   8.029   5.679   3.263
75531W        W40351  26.467  24.007   4.450
75532W        W40352  26.245  16.182  13.846
75533W        W40353  33.170  17.068  13.491
75534W        W40354  14.111  41.435  12.017
75535W        W40355  25.082  11.868  12.606
75536W        W40356   5.917  41.455   1.948
75537W        W40357  41.512  23.693  11.507
75538W        W40358   5.777   1.883  11.192
75539W        W40359  12.272  37.562  14.489
75540W        W40360  10.112  22.076   3.430
75541W        W40361  42.551  30.694  12.087
75542W        W40362  23.362  11.336   4.152
75543W        W40363  29.543  25.982  10.796
75544W        W40364  13.543  40.225   0.197
75545W        W40365   2.028  37.846   2.812
75546W        W40366  10.346  10.471  12.972
75547W        W40367  43.299   9.237   0.336
75548W        W40368  43.223  29.576   4.842
75549W        W40369   0.707  21.458  10.193
75550W        W40370  43.066  21.426  13.471
75551W        W40371  10.221  34.177  10.475
75552W        W40372  10.545  27.919   1.365
75553W        W40373  35.035  13.349   0.392
75554W        W40374  11.182   9.533   2.370
75555W        W40375   9.750  22.465  13.375
75556W        W40376   9.416  41.992   2.582
75557W        W40377  13.852  38.937   1.498
75558W        W40378   9.761  40.785  13.479
75559W        W40379  26.414  32.994   4.530
75560W        W40380  43.853   8.205  11.065
75561W        W40381  33.675  18.980  13.349
75562W        W40382  35.288  40.828  12.035
75563W        W40383  30.820  27.611   4.557
75564W        W40384  36.858  31.669  11.014
75565W        W40385   9.908  23.953   1.467
75566W        W40386   8.748  20.023   1.414
75567W        W40387  36.410  24.746  11.199
75568W        W40388   7.087  16.383  14.725
75569W        W40389  21.901  41.604  11.727
75570W        W40390  37.887  34.818   3.637
75571W        W40391  31.031  34.665   2.051
75572W        W40392   3.333  16.714  13.073
75573W        W40393  15.270  11.605  12.447
75574W        W40394  28.239  15.874   0.980
75575W        W40395  38.455   7.188  13.025
75576W        W40396   4.871  36.416  10.454
75577W        W40397  27.419  34.692  13.969
75578W        W40398  20.532  44.480   4.531
75579W        W40399  19.707  32.778  11.443
75580W        W40400  18.134   2.264  13.705
75581W        W40401  41.990  38.193   1.873
75582W        W40402  38.313  20.237   0.031
75583W        W40403   7.251  37.298   4.973
75584W        W40404   6.913  43.571   2.799
75585W        W40405  44.124  19.001  11.586
75586W        W40406  38.374  30.667   1.273
75587W        W40407  32.016  23.826  13.905
75588W        W40408   6.864  40.430   4.805
75589W        W40409  14.879  10.636   0.508
75590W        W40410  17.659  29.198   4.438
75591W        W40411  41.357  40.737   1.979
75592W        W40412  27.092  25.099   3.929
75593W        W40413  28.199  37.082  12.976
75594W        W40414   3.753  26.224  13.900
75595W        W40415  15.579   1.442   2.234
75596W        W40416  23.675  21.687  10.786
75597W        W40417  31.575   1.503  13.498
75598W        W40418  34.114  12.081   0.728
75599W        W40419  15.600   4.817   0.812
75600W        W40420  30.155  36.652   0.845
75601W        W40421  27.182  36.650   1.896
75602W        W40422  21.828  13.297  13.850
75603W        W40423  39.457  18.260  10.568
75604W        W40424  43.938   0.719   3.294
75605W        W40425  44.772  26.486  13.748
75606W        W40426  27.441  23.568  13.398
75607W        W40427  40.062  17.514  11.110
75608W        W40428  37.631   1.460   1.184
75609W        W40429  25.784  21.546  12.435
75610W        W40430  40.330  38.603  10.636
75611W        W40431  15.867  29.631   3.740
75612W        W40432  39.624   3.123  10.700
75613W        W40433   2.381  32.097  12.411
75614W        W40434  35.458  41.805  13.887
75615W        W40435  11.882  27.738   1.652
75616W        W40436  16.143   6.447   3.731
75617W        W40437  12.778   6.207   4.049
75618W        W40438   0.934  34.885   2.638
75619W        W40439   9.345  17.790  12.007
75620W        W40440  27.620  27.180  12.262
75621W        W40441  22.979  32.631   0.385
75622W        W40442  29.139  37.327   0.582
75623W        W40443   8.125  11.230  12.955
75624W        W40444  19.149  26.500  12.170
75625W        W40445  11.075  43.790   0.919
75626W        W40446  39.267   3.316   1.788
75627W        W40447  28.433   3.813  10.716
75628W        W40448  33.950   1.919   5.157
75629W        W40449  22.211  14.744  10.649
75630W        W40450   5.647  38.946   4.076
75631W        W40451  20.770  12.355   0.853
75632W        W40452  26.051  26.110   1.886
75633W        W40453  40.731  42.840  12.927
75634W        W40454  27.422  40.960  13.504
75635W        W40455  36.019  30.124  11.343
75636W        W40456  31.015  27.318   0.163
75637W        W40457  18.080  35.289  14.579
75638W        W40458  39.261  39.410   1.325
75639W        W40459  32.143  15.244   0.418
75640W        W40460  22.595   5.413   4.373
75641W        W40461  44.005   5.633  11.575
75642W        W40462  32.961  11.082   0.351
75643W        W40463  44.562  27.645   2.878
75644W        W40464  44.766  25.400  11.069
75645W        W40465   5.008  35.896   0.798
75646W        W40466  27.644  40.564   1.509
75647W        W40467  22.034   9.245   2.143
75648W        W40468  36.901  17.289   1.515
75649W        W40469   2.910  11.689   4.241
75650W        W40470   6.173  41.943   3.305
75651W        W40471  38.903  16.782  14.581
75652W        W40472   6.968  36.358  11.177
75653W        W40473  11.428  20.947   2.900
75654W        W40474  43.806  30.858   3.213
75655W        W40475  42.611  31.016  13.353
75656W        W40476   8.430   5.390  13.816
75657W        W40477  32.043  31.673  12.365
75658W        W40478  41.500  38.346  12.009
75659W        W40479  21.298  41.267  10.781
75660W        W40480  35.429  39.570  11.187
75661W        W40481   5.839  15.373  14.591
75662W        W40482   2.309  27.105  12.080
75663W        W40483  39.450  20.506  11.664
75664W        W40484  33.596  24.375  13.219
75665W        W40485  42.428  35.661   4.065
75666W        W40486   7.419  42.285   0.551
75667W        W40487  38.157  34.916  12.030
75668W        W40488  41.818  38.111  14.458
75669W        W40489   7.435   9.474   1.724
75670W        W40490  12.547   5.810   1.248
75671W        W40491  40.333  33.938  13.493
75672W        W40492  33.018  42.805   2.317
75673W        W40493  20.302  22.759  10.723
75674W        W40494  28.973  33.105  14.447
75675W        W40495  43.373   6.886   3.746
75676W        W40496  14.065  24.488   2.369
75677W        W40497   4.689  23.406   2.733
75678W        W40498  42.048  21.173   0.111
75679W        W40499   0.013  32.939   0.770
75680W        W40500  27.909   5.804   4.147
75681W        W40501  22.172  12.257  14.477
75682W        W40502  26.374   2.351   0.774
75683W        W40503  41.872   6.085  10.759
75684W        W40504  36.911  19.239   2.765
75685W        W40505   0.996  22.824   4.785
75686W        W40506  41.742  34.548   3.590
75687W        W40507  20.326  34.586  13.481
75688W        W40508  32.248  17.415   4.191
75689W        W40509   8.823  18.260   1.476
75690W        W40510  16.307  19.543  12.036
75691W        W40511   5.390  41.308   2.605
75692W        W40512  25.474  28.158  10.820
75693W        W40513   9.661  39.904   3.604
75694W        W40514  37.366   7.630   4.313
75695W        W40515   4.384  15.821  11.647
75696W        W40516  29.903   5.790   4.242
75697W        W40517  16.164  31.634  14.287
75698W        W40518  27.530  40.503   2.026
75699W        W40519   6.451   0.522   4.510
75700W        W40520  17.156   0.750   0.376
75701W        W40521   7.636   5.545  14.538
75702W        W40522  44.401  25.653  13.568
75703W        W40523   4.835   6.142   2.037
75704W        W40524  44.430  15.394   9.765
75705W        W40525  14.997  20.140   4.433
75706W        W40526  33.871  22.803  11.135
75707W        W40527  18.804  31.901   3.749
75708W        W40528  27.103  31.903   4.601
75709W        W40529   5.246   9.344  12.643
75710W        W40530  31.062  19.595  13.500
75711W        W40531   6.668   8.594  13.945
75712W        W40532   6.496  11.025  11.624
75713W        W40533  12.999  20.664  14.049
75714W        W40534   7.914  25.014   3.511
75715W        W40535  19.258   5.258  11.127
75716W        W40536   7.575  13.252  14.529
75717W        W40537  12.296   1.803   3.516
75718W        W40538  31.556  25.290  12.172
75719W        W40539  41.563  23.195  12.055
75720W        W40540  26.222   1.421  12.474
75721W        W40541  21.291  27.884   4.141
75722W        W40542   1.441  22.691   2.121
75723W        W40543  17.121  39.511   1.494
75724W        W40544  20.502  18.786  11.704
75725W        W40545  28.537   2.762  11.885
75726W        W40546  41.007  10.698  12.297
75727W        W40547  13.601   8.366   4.301
75728W        W40548   3.827  43.621  12.209
75729W        W40549  21.253  22.349   4.730
75730W        W40550  23.672  21.536  11.275
75731W        W40551  13.142  21.726   1.409
75732W        W40552  42.898  16.080   1.521
75733W        W40553  10.386   9.951  12.214
75734W        W40554   5.496  43.777   1.860
75735W        W40555  41.839   0.937   2.506
75736W        W40556  19.169  32.681  11.685
75737W        W40557  18.609   9.843  14.046
75738W        W40558  24.988   4.769   3.577
75739W        W40559   3.746   3.844  14.934
75740W        W40560  17.162  37.942  11.198
75741W        W40561  17.059  30.998  10.630
75742W        W40562  30.930  31.140   0.989
75743W        W40563  11.348  17.227  12.908
75744W        W40564  33.139   7.873   3.770
75745W        W40565  29.123  37.293   4.366
75746W        W40566  26.413  25.892  11.979
75747W        W40567  39.493  43.173   0.713
75748W        W40568   5.369  23.494   5.404
75749W        W40569  12.729  31.875   3.431
75750W        W40570   3.517  33.046  11.127
75751W        W40571   9.527  19.786  12.088
75752W        W40572  17.991  24.098   0.354
75753W        W40573  20.562  19.154   0.754
75754W        W40574  37.851   5.210   1.956
75755W        W40575   7.841  41.208   3.687
75756W        W40576  28.928   2.311  14.251
75757W        W40577  43.386   2.269  13.576
75758W        W40578  40.577  15.872   0.921
75759W        W40579  26.051  21.259   0.487
75760W        W40580  29.975  26.513  10.992
75761W        W40581  39.216  40.527  10.413
75762W        W40582  43.205   8.714   4.106
75763W        W40583   5.791   0.712  11.645
75764W        W40584  42.442  44.486   4.196
75765W        W40585  44.240  27.424  11.155
75766W        W40586  29.727  35.032  11.182
75767W        W40587  23.437   1.895   4.857
75768W        W40588  37.875  41.730  11.444
75769W        W40589  33.599   0.743  13.878
75770W        W40590  32.072   2.618   4.887
75771W        W40591  40.068  35.766  13.322
75772W        W40592   6.448  24.489  13.319
75773W        W40593  25.564  11.174  11.456
75774W        W40594  26.946  32.926   3.909
75775W        W40595  13.812   1.499   2.880
75776W        W40596  26.185  44.714   3.145
75777W        W40597  21.331   2.984   1.759
75778W        W40598  10.514  32.421   2.656
75779W        W40599  34.917  13.761   3.736
75780W        W40600  19.007  10.417   4.948
75781W        W40601  18.422   8.511   4.205
75782W        W40602  20.263  33.139  13.336
75783W        W40603   0.383  42.534   0.340
75784W        W40604  16.327  14.834  14.437
75785W        W40605  41.471  12.708   3.103
75786W        W40606  35.793  37.877  11.136
75787W        W40607  26.039  21.250  14.525
75788W        W40608  25.274  44.368   3.624
75789W        W40609  31.540  12.848  14.898
75790W        W40610  23.726  26.010   1.143
75791W        W40611  18.700   0.753  13.361
75792W        W40612  20.706  26.497   2.762
75793W        W40613  10.312  44.740   4.244
75794W        W40614  11.396  32.767   1.354
75795W        W40615  11.765  22.186   3.005
75796W        W40616  36.016   2.968   3.795
75797W        W40617  17.165  20.920  11.913
75798W        W40618   6.021  40.772  14.942
75799W        W40619  21.316  17.123   4.249
75800W        W40620  34.690  20.564  10.170
75801W        W40621  14.115   6.866   3.792
75802W        W40622  10.748  33.045   2.065
75803W        W40623  26.950  37.766  14.354
75804W        W40624  17.684  26.049   0.337
75805W        W40625  11.907  35.916  13.927
75806W        W40626  26.952   6.986   2.631
75807W        W40627  14.383  40.506   0.390
75808W        W40628   6.256  27.173   3.132
75809W        W40629   8.285   7.874   1.629
75810W        W40630  23.434   3.009  11.500
75811W        W40631  29.590  32.050  13.003
75812W        W40632  38.976  27.946   2.209
75813W        W40633  21.191  23.516   4.268
75814W        W40634   0.046  28.878   3.811
75815W        W40635   2.953  44.065  12.434
75816W        W40636  20.843  26.749   3.318
75817W        W40637  27.549  10.080   3.375
75818W        W40638  27.588  34.409   3.131
75819W        W40639  14.065  12.039   0.388
75820W        W40640   0.777  43.784  10.566
75821W        W40641   9.717  14.597  10.953
75822W        W40642   1.856  10.256   2.870
75823W        W40643   6.819  42.768   3.199
75824W        W40644  29.073   4.343   1.472
75825W        W40645  10.874  24.550   1.877
75826W        W40646  28.561   5.860  14.659
75827W        W40647  16.358  16.083   2.584
75828W        W40648  15.931  43.449   5.169
75829W        W40649  28.571  29.629  12.570
75830W        W40650  24.090  33.032  13.783
75831W        W40651  30.518  23.125  13.010
75832W        W40652  16.509  15.060   1.194
75833W        W40653  29.481  37.044  12.660
75834W        W40654  41.797   6.150   0.043
75835W        W40655  15.178   6.915   2.902
75836W        W40656   8.206  36.025   2.964
75837W        W40657   9.606  29.038   2.802
75838W        W40658   7.376  14.598  13.472
75839W        W40659  12.757  15.023   4.436
75840W        W40660   7.348  41.501   1.126
75841W        W40661  17.366  13.026  11.828
75842W        W40662  37.391  25.730   1.714
75843W        W40663   8.902   4.951   2.440
75844W        W40664   9.355  27.949   0.404
75845W        W40665  28.125  17.038  12.655
75846W        W40666  14.378   6.684   4.190
75847W        W40667   2.485  44.114  12.620
75848W        W40668  44.518  36.869   0.394
75849W        W40669  30.042  27.511  14.711
75850W        W40670   4.383  26.137   1.407
75851W        W40671   3.441  19.614   1.732
75852W        W40672  34.868  35.626  11.579
75853W        W40673  24.680  14.504  12.992
75854W        W40674  24.699  38.958   4.309
75855W        W40675  37.072  35.627   2.408
75856W        W40676   0.823  32.178  14.312
75857W        W40677  35.503  40.831   0.054
75858W        W40678  30.937  35.885   0.234
75859W        W40679  26.540  24.527  11.136
75860W        W40680  11.721  25.814   3.413
75861W        W40681  22.171  30.128   1.704
75862W        W40682  17.615  11.398  11.864
75863W        W40683  10.029   6.229  14.018
75864W        W40684   3.882   1.982   4.610
75865W        W40685  15.509  35.397   3.176
75866W        W40686  17.755  30.024  12.471
75867W        W40687  25.435   7.144  11.199
75868W        W40688  15.560   7.822  12.023
75869W        W40689  29.021  13.701   1.844
75870W        W40690  21.811  25.149  10.512
75871W        W40691   5.996  33.004   3.132
75872W        W40692   6.764  19.595   4.687
75873W        W40693  32.013   4.445   2.874
75874W        W40694  20.068  11.305   4.568
75875W        W40695  44.750  10.779  14.116
75876W        W40696  11.860  18.332  13.444
75877W        W40697   6.304  15.703   3.591
75878W        W40698  25.988  13.835   2.613
75879W        W40699  27.756  14.778  13.039
75880W        W40700  20.727   3.112  12.910
75881W        W40701  34.144  11.390  13.948
75882W        W40702  33.137  17.848  13.210
75883W        W40703  22.670  25.890   2.203
75884W        W40704  43.380  28.433   0.701
75885W        W40705   9.624  42.528   4.044
75886W        W40706   3.826  19.888  12.946
75887W        W40707  16.001  31.979  13.350
75888W        W40708  26.077  34.016  12.159
75889W        W40709   4.707  29.941  14.602
75890W        W40710   4.934  31.947  14.378
75891W        W40711  14.126  36.027  10.851
75892W        W40712  13.196  37.805   4.780
75893W        W40713  39.062  36.708   2.711
75894W        W40714  35.209   7.942  13.299
75895W        W40715   9.176  19.502   3.641
75896W        W40716  14.542  20.628   0.208
75897W        W40717  25.797  14.930   3.422
75898W        W40718  10.452  40.193  13.429
75899W        W40719  27.871  32.339   0.861
75900W        W40720   7.187  38.780   2.792
75901W        W40721  34.115  14.454   4.977
75902W        W40722  29.257  32.934   2.202
75903W        W40723  28.878  27.072   1.248
75904W        W40724  38.270  15.225   0.891
75905W        W40725  18.087   1.956   1.830
75906W        W40726  26.184  30.899   0.516
75907W        W40727   4.535  36.791   4.039
75908W        W40728  44.760  15.862  10.668
75909W        W40729   0.045  24.038  13.999
75910W        W40730  22.755   4.637  14.755
75911W        W40731   1.196  42.901   2.431
75912W        W40732  32.461  29.901  10.537
75913W        W40733  33.068  23.144   1.252
75914W        W40734  15.831  32.362   0.343
75915W        W40735  24.967  18.311  10.338
75916W        W40736  14.695  17.069   2.597
75917W        W40737  20.573  42.570  13.722
75918W        W40738  28.966  11.542   1.401
75919W        W40739  22.230   0.856  12.520
75920W        W40740  29.489  17.885  11.745
75921W        W40741  30.092  41.459   0.899
75922W        W40742  28.443  34.599   1.145
75923W        W40743  25.704  37.794  11.719
75924W        W40744  41.075  23.495   3.877
75925W        W40745  14.762   2.065  13.325
75926W        W40746  37.475  43.275  12.964
75927W        W40747  22.220   1.556   1.741
75928W        W40748   5.876  19.462  11.632
75929W        W40749  33.998  21.159  13.057
75930W        W40750  18.787  36.524   2.242
75931W        W40751  40.517  34.041  13.970
75932W        W40752   3.224   5.240  10.700
75933W        W40753  12.692  31.131  13.061
75934W        W40754  16.177   7.919  10.681
75935W        W40755  23.216   1.978   1.472
75936W        W40756  25.908  32.853  14.754
75937W        W40757  25.952  24.524  14.029
75938W        W40758  42.644  41.287   2.227
75939W        W40759  37.812  25.517  12.022
75940W        W40760  14.658   8.386  12.938
75941W        W40761  31.028   6.554  10.175
75942W        W40762  18.214  43.323   0.320
75943W        W40763  44.235  38.957  10.066
75944W        W40764  34.451  26.146  11.507
75945W        W40765  11.336  18.534   4.019
75946W        W40766  41.502  12.688  12.652
75947W        W40767  18.322  16.980   3.917
75948W        W40768  37.467  39.477  10.637
75949W        W40769  39.278  13.203   2.068
75950W        W40770   0.487  12.186  10.667
75951W        W40771  18.324   6.330  12.560
75952W        W40772  28.992  12.240   2.689
75953W        W40773   1.431  25.465   4.527
75954W        W40774  12.675   4.807  12.035
75955W        W40775  36.602   5.072   4.893
75956W        W40776  41.178  40.229   5.087
75957W        W40777  41.318  18.759   3.477
75958W        W40778   2.376  39.344  13.786
75959W        W40779  29.220   8.669   4.635
75960W        W40780  27.226  26.671   0.893
75961W        W40781  37.250   4.424  12.365
75962W        W40782  21.524  25.399   2.778
75963W        W40783  44.711  15.150  13.644
75964W        W40784  12.059  19.706   3.121
75965W        W40785   6.985  33.484   0.393
75966W        W40786  38.103  12.711   2.357
75967W        W40787   8.892  37.076  14.872
75968W        W40788  40.343  39.324  12.992
75969W        W40789   3.496  18.308   1.462
75970W        W40790  11.233  18.209  13.013
75971W        W40791   6.729   4.448   1.856
75972W        W40792  30.530  39.060  13.139
75973W        W40793  34.306   1.859  12.860
75974W        W40794   5.078  44.948  14.985
75975W        W40795   9.422  42.308   3.104
75976W        W40796  23.834  31.535  11.515
75977W        W40797  10.313  11.679   4.611
75978W        W40798  20.329   7.800   4.667
75979W        W40799  27.531   4.156  14.877
75980W        W40800  32.787   8.602   3.163
75981W        W40801  10.680  34.451  11.063
75982W        W40802  43.514  31.038  13.022
75983W        W40803  15.627   5.116  10.595
75984W        W40804  14.529   5.441  10.826
75985W        W40805   7.911  29.304   5.113
75986W        W40806  25.818  30.196  12.600
75987W        W40807  13.664  41.809  13.897
75988W        W40808   9.755  15.093  10.829
75989W        W40809  44.846  36.714  12.075
75990W        W40810  34.939  31.865  14.442
75991W        W40811  42.319  36.048  12.147
75992W        W40812   7.824  23.290  11.174
75993W        W40813   9.797  24.728   0.423
75994W        W40814  14.916   6.492   3.162
75995W        W40815  16.153   2.208   3.313
75996W        W40816   6.706   9.640  11.436
75997W        W40817  39.605  36.880  13.937
75998W        W40818  19.551  12.730   1.193
75999W        W40819  32.907   2.163   1.973
76000W        W40820   3.740  19.678   0.925
76001W        W40821   7.682   7.867  14.866
76002W        W40822  31.409  13.239  14.275
76003W        W40823   1.471  13.935  13.138
76004W        W40824  42.304   9.302  11.898
76005W        W40825  15.099  30.259  13.091
76006W        W40826  38.526   7.644   2.741
76007W        W40827  23.922  28.952  12.675
76008W        W40828  26.545   2.540  12.434
76009W        W40829  35.415   8.731   0.743
76010W        W40830  10.162  23.536   0.547
76011W        W40831   0.060   8.610   1.408
76012W        W40832  11.471   0.208   2.055
76013W        W40833  12.698  21.014   2.271
76014W        W40834   5.285  20.133  12.500
76015W        W40835  38.660  26.105   3.683
76016W        W40836   9.350  13.500   3.319
76017W        W40837  11.784  30.375   0.477
76018W        W40838  12.244   2.511  13.343
76019W        W40839   7.678  37.444   4.561
76020W        W40840   0.854  11.886   4.117
76021W        W40841  44.659  15.588  11.111
76022W        W40842  17.808  37.413   1.365
76023W        W40843  10.579  42.125  13.400
76024W        W40844  20.641  17.224  11.444
76025W        W40845  23.947  22.594  12.904
76026W        W40846  39.247  33.916  12.808
76027W        W40847  42.610  42.483  12.910
76028W        W40848  10.597  43.009  11.128
76029W        W40849  26.456  41.769   3.696
76030W        W40850  13.260  43.085   3.649
76031W        W40851  21.492  17.914   0.367
76032W        W40852   9.020  22.426  14.821
76033W        W40853  37.928   5.152  11.616
76034W        W40854  14.401   9.328   3.923
76035W        W40855  18.065  11.544  11.182
76036W        W40856  20.387  38.428  13.434
76037W        W40857  12.812  38.591  11.926
76038W        W40858  35.747  32.395   0.357
76039W        W40859   6.648   1.426   0.455
76040W        W40860  24.772   2.756   0.843
76041W        W40861   6.648  31.989   3.951
76042W        W40862  30.608  44.308   2.371
76043W        W40863  43.331  27.519   3.159
76044W        W40864  25.574   3.407  10.302
76045W        W40865   6.957  28.460   0.347
76046W        W40866  27.465  24.991  12.683
76047W        W40867  36.837  30.755  11.339
76048W        W40868  41.891  10.138   4.072
76049W        W40869   3.973  22.706   1.873
76050W        W40870  11.077  26.195   1.746
76051W        W40871  15.855  38.799  12.051
76052W        W40872   7.724  42.604   5.129
76053W        W40873  13.813  25.831  11.592
76054W        W40874   2.296  41.362  11.569
76055W        W40875  14.258  15.814   0.449
76056W        W40876   6.654   8.917   2.699
76057W        W40877   7.165   5.889   2.794
76058W        W40878  34.333  43.926   2.674
76059W        W40879   1.230  36.365   1.428
76060W        W40880  33.192  44.778  13.385
76061W        W40881   5.299  15.594  12.556
76062W        W40882  15.732  33.480   1.401
76063W        W40883  15.502  37.900   1.416
76064W        W40884  27.734   0.986   3.283
76065W        W40885  28.013  26.534  10.636
76066W        W40886  37.600   7.866  11.116
76067W        W40887   2.877  27.152  10.353
76068W        W40888  22.936  23.719   2.367
76069W        W40889   4.869  28.244  13.552
76070W        W40890  11.002  25.061   1.833
76071W        W40891  35.560  37.721   2.702
76072W        W40892  23.410  18.648   4.226
76073W        W40893  11.104  20.561   0.799
76074W        W40894  38.928   5.398   3.384
76075W        W40895  23.403  19.769  13.086
76076W        W40896  10.177  26.425  12.077
76077W        W40897  13.997  27.129   0.295
76078W        W40898  26.117   3.251  12.959
76079W        W40899  21.546  20.494  11.871
76080W        W40900  14.107  19.641   0.033
76081W        W40901  20.062  14.078   4.110
76082W        W40902  37.455   8.075  12.881
76083W        W40903  37.318   0.875  11.114
76084W        W40904  42.883   6.878  14.785
76085W        W40905  40.080   4.927  12.505
76086W        W40906  17.717  38.489  14.722
76087W        W40907  33.356  25.858   2.336
76088W        W40908  37.028  18.208  11.291
76089W        W40909  14.079   0.886   1.234
76090W        W40910  10.443  14.388  14.273
76091W        W40911  34.144  44.482   4.768
76092W        W40912  40.523  36.841   1.459
76093W        W40913  34.615  21.929   0.517
76094W        W40914  33.992   1.986   0.082
76095W        W40915  16.708  15.191   1.655
76096W        W40916   0.330  30.498  14.545
76097W        W40917   1.985  43.310  10.701
76098W        W40918   8.425  11.189   4.202
76099W        W40919  10.419  17.644  11.153
76100W        W40920  33.108  39.843   3.790
76101W        W40921  22.088  16.753  14.076
76102W        W40922  17.531  44.032   2.784
76103W        W40923  37.903  32.951  11.507
76104W        W40924  37.157  27.883  12.452
76105W        W40925  44.381   1.957  13.800
76106W        W40926   9.272  30.674   4.141
76107W        W40927  22.841  14.124   4.246
76108W        W40928   2.016  21.164   4.625
76109W        W40929   2.891  15.850   4.817
76110W        W40930   1.749  24.260   3.387
76111W        W40931   4.563  15.606   0.954
76112W        W40932  25.684  22.950   4.603
76113W        W40933  40.525  31.017   2.879
76114W        W40934  33.059   4.950  14.544
76115W        W40935  30.113  37.368   4.081
76116W        W40936   7.279  37.871  14.879
76117W        W40937  34.865  41.965  14.813
76118W        W40938  10.322   2.221   1.365
76119W        W40939   6.841  23.301   3.745
76120W        W40940  32.023  13.665  12.875
76121W        W40941  25.208   0.775  14.949
76122W        W40942  34.386  24.565   0.099
76123W        W40943  12.296  28.125   3.965
76124W        W40944   0.479  38.521   4.568
76125W        W40945  30.721   1.800   2.802
76126W        W40946  43.481  19.977  14.675
76127W        W40947  21.741  15.312   2.233
76128W        W40948  17.937   7.158   4.632
76129W        W40949  24.237  33.107  12.066
76130W        W40950  40.369   5.332   4.653
76131W        W40951   8.049  16.512   1.880
76132W        W40952  39.907   9.049   4.131
76133W        W40953  41.372  25.619   1.250
76134W        W40954  19.155  20.271  13.665
76135W        W40955  21.524  10.385   0.830
76136W        W40956  15.143  41.613   4.214
76137W        W40957  30.897   0.285   3.757
76138W        W40958  20.573   7.350  12.473
76139W        W40959  25.946  22.663  14.809
76140W        W40960   8.974  30.662  14.793
76141W        W40961  42.366   8.337   2.890
76142W        W40962  16.453  44.713   3.542
76143W        W40963  27.910  16.322   2.389
76144W        W40964  24.608  17.946  10.283
76145W        W40965  30.990  36.070  10.705
76146W        W40966  42.097   3.520  14.994
76147W        W40967  22.231  34.643  10.593
76148W        W40968  33.372  20.736   3.086
76149W        W40969   8.878  42.262  10.709
76150W        W40970  14.238  42.581  10.724
76151W        W40971  10.738   5.393  10.638
76152W        W40972  31.187  11.210  13.498
76153W        W40973  11.281  36.803  12.875
76154W        W40974  25.011   5.459  10.564
76155W        W40975  17.245  16.397   4.508
76156W        W40976  33.003  19.669   2.059
76157W        W40977  31.449  16.341  12.067
76158W        W40978  17.157  28.377  13.370
76159W        W40979  11.136  17.417  10.660
76160W        W40980  17.095  28.225  11.490
76161W        W40981  11.530  12.694   3.068
76162W        W40982  42.324  26.087   3.766
76163W        W40983   4.825  11.100   2.799
76164W        W40984  42.808  35.890   1.064
76165W        W40985  11.450  24.976   1.487
76166W        W40986  29.987  11.465  13.074
76167W        W40987  34.031   2.662  10.925
76168W        W40988  11.225  24.275  13.954
76169W        W40989  44.879  23.752   0.944
76170W        W40990  26.976  29.476  11.615
76171W        W40991   9.420   1.830  13.541
76172W        W40992  23.124  32.367  11.508
76173W        W40993  30.178   6.780  10.673
76174W        W40994  14.360  11.126  13.931
76175W        W40995   9.781   5.277   1.817
76176W        W40996  39.993  14.397  14.427
76177W        W40997  35.929  32.464  11.650
76178W        W40998  42.499  34.805  11.558
76179W        W40999   3.668  14.208  12.030
76180W        W41000  11.730  18.180  10.747
76181W        W41001  36.490  22.633   4.518
76182W        W41002  44.717  23.193   1.553
76183W        W41003   4.107  14.186  13.943
76184W        W41004  34.099   4.734   0.278
76185W        W41005  17.775  28.848  14.380
76186W        W41006  14.105  40.978  13.926
76187W        W41007   6.161  20.360  14.388
76188W        W41008  11.134  39.842   0.537
76189W        W41009  15.572   2.953   0.187
76190W        W41010   8.784  31.851   4.619
76191W        W41011  43.264  21.623   2.675
76192W        W41012   6.119  44.465  10.799
76193W        W41013  33.545  14.973   3.739
76194W        W41014  33.132  14.804   9.672
76195W        W41015  22.951   8.294  14.793
76196W        W41016  42.233  16.180   0.326
76197W        W41017   6.539  13.143  10.499
76198W        W41018  13.393  16.850   9.761
76199W        W41019   7.632  37.333  13.507
76200W        W41020  13.660  23.750   2.647
76201W        W41021  20.650  42.357  13.263
76202W        W41022  14.596   6.683   2.796
76203W        W41023   4.801  28.382   3.639
76204W        W41024  25.668  39.536   4.658
76205W        W41025  11.108  36.419  14.079
76206W        W41026  40.020  41.377  13.815
76207W        W41027  31.387   0.691   0.189
76208W        W41028  26.220  38.330   3.870
76209W        W41029   8.208  44.494   2.829
76210W        W41030  42.892   4.768  14.579
76211W        W41031   4.398  35.651  14.788
76212W        W41032  34.353  14.655   3.290
76213W        W41033  13.382  24.464   3.046
76214W        W41034   8.317  24.179   0.314
76215W        W41035  32.590  18.219   2.272
76216W        W41036  35.506  10.630   0.050
76217W        W41037  28.631   2.404   3.630
76218W        W41038  13.156  31.063   0.963
76219W        W41039  40.873  16.094  11.353
76220W        W41040  35.891  20.491  12.093
76221W        W41041  38.592   2.623   2.271
76222W        W41042  30.572  37.869  13.885
76223W        W41043  18.864  16.969  14.430
76224W        W41044  17.914  10.802  13.480
76225W        W41045  44.881  20.205  13.042
76226W        W41046  22.656   1.394   3.595
76227W        W41047   9.161   8.089  11.915
76228W        W41048  22.267   8.715  13.076
76229W        W41049   6.131  33.099   1.769
76230W        W41050   1.682  13.187  14.074
76231W        W41051   4.408   3.919   1.287
76232W        W41052  43.857  23.206   2.219
76233W        W41053  42.961  12.287   3.651
76234W        W41054   2.715  36.736  11.841
76235W        W41055  19.128   0.523  11.534
76236W        W41056   6.654   8.066  13.857
76237W        W41057  19.177  37.136  14.008
76238W        W41058  12.287  17.781  12.388
76239W        W41059  33.535  16.368   2.784
76240W        W41060   2.265  19.162   4.002
76241W        W41061   8.848  44.336  13.390
76242W        W41062  14.596   4.413  14.478
76243W        W41063  38.594  21.591  11.631
76244W        W41064  13.730  41.612  12.608
76245W        W41065  31.528   1.671  11.244
76246W        W41066  15.608  36.799   2.337
76247W        W41067  28.935  27.118  13.589
76248W        W41068  39.867  29.599   0.138
76249W        W41069  23.575   4.281  14.467
76250W        W41070   1.926  13.024   3.369
76251W        W41071  34.011  10.235   1.403
76252W        W41072  19.906  43.733  10.741
76253W        W41073  27.502  26.223   3.211
76254W        W41074  12.712  25.018   3.582
76255W        W41075   3.247  28.633  14.524
76256W        W41076   4.421  26.173  12.023
76257W        W41077  31.913  37.240   4.139
76258W        W41078  12.339  19.287  14.344
76259W        W41079  15.753  24.452  10.763
76260W        W41080   7.482  24.160  12.569
76261W        W41081  21.093   5.983   3.299
76262W        W41082  35.875  14.825   2.768
76263W        W41083  23.999  32.491  14.228
76264W        W41084  28.959  14.020   4.101
76265W        W41085   7.597  23.221  13.343
76266W        W41086  32.912  32.828  12.592
76267W        W41087  26.252  42.355   3.132
76268W        W41088   2.190   5.418   1.201
76269W        W41089  22.494  32.001   2.233
76270W        W41090  39.498   0.745  13.028
76271W        W41091   7.972  34.142   1.301
76272W        W41092   3.328   0.268   1.725
76273W        W41093  31.184  22.421  12.095
76274W        W41094   6.954   4.282   0.010
76275W        W41095  40.870   7.837   4.361
76276W        W41096   1.895  36.177  14.310
76277W        W41097   3.329   9.606  14.456
76278W        W41098  38.447  15.710  11.693
76279W        W41099  27.915  27.592  13.354
76280W        W41100  20.081  31.460  12.442
76281W        W41101  12.762  11.236  13.008
76282W        W41102  14.170  43.013  13.590
76283W        W41103   4.041  31.553   0.724
76284W        W41104   1.274  24.808  13.545
76285W        W41105   9.393   5.844  14.592
76286W        W41106  16.570  27.057  12.580
76287W        W41107  43.206  24.753   4.469
76288W        W41108  11.788  20.667  11.118
76289W        W41109  29.001   4.214  11.730
76290W        W41110  40.129  10.172  10.260
76291W        W41111   7.379  14.286   3.770
76292W        W41112  16.549   7.863   2.334
76293W        W41113  32.062  32.712   0.950
76294W        W41114   4.757  38.011  13.307
76295W        W41115   5.457   3.870   3.059
76296W        W41116  17.102  24.928  13.082
76297W        W41117  39.055  44.896   1.995
76298W        W41118   2.865  26.402   0.281
76299W        W41119   5.254  37.106  11.077
76300W        W41120  41.542  18.623   1.984
76301W        W41121  39.702  35.486   2.718
76302W        W41122  42.309   2.801  14.741
76303W        W41123  11.849  23.455  14.123
76304W        W41124  35.991  18.898  13.894
76305W        W41125   5.794  13.149  13.366
76306W        W41126  40.498  10.751  13.821
76307W        W41127  35.527   3.234   0.945
76308W        W41128  40.162  11.646  10.915
76309W        W41129  15.698   1.312  10.962
76310W        W41130  20.593  20.579  10.903
76311W        W41131  16.554  30.325   3.272
76312W        W41132  32.129  22.132   3.235
76313W        W41133  39.919  23.606  11.648
76314W        W41134  23.295  35.982  11.425
76315W        W41135  35.877   0.489  13.368
76316W        W41136  16.077  33.916   3.274
76317W        W41137  26.545   7.288  14.350
76318W        W41138  34.363  41.940   1.670
76319W        W41139  32.983  26.458  13.385
76320W        W41140  12.975  39.948  10.162
76321W        W41141  31.409   2.479   3.374
76322W        W41142   0.078  18.544  11.073
76323W        W41143  22.296   6.040  13.487
76324W        W41144   4.294  19.578   0.317
76325W        W41145  21.796  13.955  14.733
76326W        W41146  36.167  19.917  14.255
76327W        W41147  15.627  29.960  11.452
76328W        W41148  25.018  39.081   1.849
76329W        W41149   0.671  23.268   4.632
76330W        W41150   4.687   1.223  12.536
76331W        W41151   5.786  17.874  14.776
76332W        W41152   6.451  29.558  11.134
76333W        W41153  18.726  16.744  13.934
76334W        W41154  28.016  13.143   1.904
76335W        W41155  41.002  37.055   4.026
76336W        W41156  18.689  13.340   3.087
76337W        W41157   8.755   9.325  13.579
76338W        W41158  32.550  16.828   2.793
76339W        W41159  19.375  36.752   3.470
76340W        W41160  42.375  39.492  10.767
76341W        W41161  11.390   6.866  13.906
76342W        W41162  23.019  33.020   3.775
76343W        W41163   0.474  42.845  13.478
76344W        W41164  14.903   2.895   4.386
76345W        W41165  34.734  34.881  10.764
76346W        W41166  12.266  30.175   1.301
76347W        W41167  37.814  15.570   5.519
76348W        W41168  18.512  36.884  12.137
76349W        W41169  39.286  44.451   2.816
76350W        W41170  18.684   1.293  10.839
76351W        W41171  40.376  28.431   1.716
76352W        W41172  26.902  22.995   1.287
76353W        W41173  17.652  24.149  11.282
76354W        W41174  19.111  16.042  12.573
76355W        W41175  17.289  38.345  14.474
76356W        W41176  25.702  28.187  13.327
76357W        W41177  32.594   2.971   0.817
76358W        W41178   8.337  16.102   1.722
76359W        W41179  11.812  31.472  12.506
76360W        W41180  35.766   7.744   0.813
76361W        W41181   4.434  30.494  13.146
76362W        W41182  30.431  44.404  13.594
76363W        W41183  43.017   0.827   5.235
76364W        W41184  38.583   3.629  11.543
76365W        W41185  22.214  38.887  10.515
76366W        W41186   8.419   6.368   3.943
76367W        W41187  37.385  42.406  13.874
76368W        W41188   1.470  14.404   3.266
76369W        W41189   6.770  30.607   3.224
76370W        W41190  20.142  33.392  12.367
76371W        W41191   2.153  32.617   0.286
76372W        W41192  23.188  42.049  13.990
76373W        W41193  36.503  23.739   2.849
76374W        W41194  14.624  31.247   3.882
76375W        W41195  30.643  39.373   1.472
76376W        W41196  34.260  26.432  12.699
76377W        W41197  44.045  28.011  12.498
76378W        W41198  20.314  10.854   0.483
76379W        W41199   8.509   0.863   1.272
76380W        W41200  33.951  38.028  11.815
76381W        W41201  21.441  31.076   3.309
76382W        W41202  17.722  29.498  12.523
76383W        W41203  28.811  13.421  14.868
76384W        W41204  20.009  28.069   4.346
76385W        W41205   2.579  27.093  12.674
76386W        W41206  23.672  40.277   2.619
76387W        W41207  16.753   2.190  11.499
76388W        W41208   5.255  26.707  12.035
76389W        W41209  25.427   7.883  14.980
76390W        W41210  14.113  11.855   3.612
76391W        W41211  27.968   6.386   3.846
76392W        W41212  31.138  33.645   2.254
76393W        W41213   1.182  28.514   4.136
76394W        W41214  27.015   0.059   2.715
76395W        W41215  38.823  13.949   4.561
76396W        W41216  25.246  30.085  13.880
76397W        W41217   9.936   9.427   3.468
76398W        W41218  19.248  27.415   3.224
76399W        W41219  11.180   1.218  14.932
76400W        W41220  23.751  28.444  10.429
76401W        W41221  40.852  36.074   0.289
76402W        W41222  26.549  12.966  14.325
76403W        W41223  33.993  44.717  11.174
76404W        W41224  29.384  27.907   3.596
76405W        W41225  15.543  12.243   1.423
76406W        W41226  41.404  13.995   2.318
76407W        W41227  24.599  17.151  10.659
76408W        W41228  36.949   8.913   2.424
76409W        W41229  40.477  36.900   2.884
76410W        W41230  11.436  32.549  10.994
76411W        W41231  19.189  23.548   1.791
76412W        W41232  17.850   1.437   4.282
76413W        W41233  29.248  32.799  13.190
76414W        W41234  23.448  26.241   2.376
76415W        W41235  32.924  33.033   2.274
76416W        W41236  36.874  10.749  14.288
76417W        W41237   1.200  20.554   2.639
76418W        W41238  42.571  10.392  13.801
76419W        W41239  11.285  15.030   0.301
76420W        W41240  41.706  22.139  10.573
76421W        W41241   8.663   9.629   3.209
76422W        W41242   7.948  27.087  11.551
76423W        W41243  25.619  10.315  12.189
76424W        W41244  29.676   4.706  11.756
76425W        W41245  31.905  32.493  10.493
76426W        W41246  12.868  39.523  14.696
76427W        W41247  25.667  20.982   3.050
76428W        W41248  10.342   9.427   2.113
76429W        W41249  10.508   4.213   0.391
76430W        W41250   6.617   1.257  13.972
76431W        W41251  12.926  40.770   1.403
76432W        W41252   7.995  23.638  13.890
76433W        W41253   9.943   0.416  14.510
76434W        W41254   7.866  35.782  13.637
76435W        W41255   4.945  14.383  11.547
76436W        W41256  27.445  40.133   3.366
76437W        W41257  23.617  18.650   3.753
76438W        W41258  14.696  35.177  11.741
76439W        W41259  38.810   4.845  11.569
76440W        W41260  38.055  15.191  12.084
76441W        W41261  37.401  20.635   4.945
76442W        W41262  30.776  12.297   3.951
76443W        W41263   3.901  33.769   0.283
76444W        W41264   8.847  27.259   4.829
76445W        W41265  13.180  17.248  14.436
76446W        W41266  13.679  13.686   3.571
76447W        W41267  40.933  43.412   0.340
76448W        W41268  14.653   8.187   1.857
76449W        W41269   7.266   0.410   1.266
76450W        W41270  39.002  33.475   2.415
76451W        W41271  35.534  17.249   4.036
76452W        W41272  10.121  43.368   2.841
76453W        W41273  34.994  25.424   3.260
76454W        W41274  10.708   6.644  11.554
76455W        W41275   4.860  29.713  13.343
76456W        W41276   4.148  31.006   4.596
76457W        W41277  12.129  35.109   3.413
76458W        W41278  13.101  38.579  11.477
76459W        W41279   5.337  15.180  10.715
76460W        W41280  23.956  32.100  12.234
76461W        W41281  42.517  28.954   1.961
76462W        W41282   5.831   5.617   2.108
76463W        W41283  26.671  32.976   2.337
76464W        W41284  18.703  35.076  14.673
76465W        W41285  21.656   7.454   2.006
76466W        W41286   7.794   6.937   2.744
76467W        W41287   7.156   5.666  11.136
76468W        W41288  26.169  44.168   3.235
76469W        W41289  18.208   0.575  14.535
76470W        W41290   4.997  44.591   3.666
76471W        W41291  39.314  15.644  11.606
76472W        W41292  31.554  25.729  11.239
76473W        W41293  38.988  22.737   3.622
76474W        W41294  35.489  25.511  11.892
76475W        W41295  29.588   5.788  12.573
76476W        W41296  35.907  41.475   0.809
76477W        W41297  24.284  39.062   2.307
76478W        W41298  14.078  27.248  14.315
76479W        W41299   4.321  18.140   3.278
76480W        W41300  17.224  17.563   0.192
76481W        W41301  31.340  18.839   0.669
76482W        W41302  31.897  15.285   2.209
76483W        W41303   5.616   0.698   1.727
76484W        W41304  33.654  36.089  12.972
76485W        W41305  24.821  12.751  12.667
76486W        W41306   3.806  15.513  14.617
76487W        W41307  40.559  41.638   4.221
76488W        W41308  10.243  33.728  10.697
76489W        W41309   8.762   2.759  11.613
76490W        W41310  18.238  43.936   0.937
76491W        W41311   4.163  15.888  14.666
76492W        W41312   7.406  13.717  14.851
76493W        W41313   1.357  41.133   0.124
76494W        W41314   7.321   2.329   4.482
76495W        W41315  12.317  39.154  12.093
76496W        W41316   9.763   5.367  13.004
76497W        W41317  22.697  25.116   2.693
76498W        W41318  43.247  27.987  14.392
76499W        W41319  12.612  37.981  14.510
76500W        W41320  27.532   0.047  14.930
76501W        W41321  15.627  43.873  13.749
76502W        W41322  11.797  37.476  14.269
76503W        W41323  23.044  28.716  13.647
76504W        W41324  25.102  33.435   4.192
76505W        W41325  27.397  39.075  13.503
76506W        W41326  43.869  34.902   3.428
76507W        W41327  25.678   1.686  13.334
76508W        W41328  10.823  30.712   4.130
76509W        W41329  32.008  28.174  13.279
76510W        W41330  44.012  37.521   0.936
76511W        W41331  24.149  38.175  10.811
76512W        W41332  20.749  30.656  12.100
76513W        W41333   5.207  23.067   2.697
76514W        W41334   7.928  38.275   1.112
76515W        W41335  37.799  34.291  14.381
76516W        W41336  34.007  40.672  12.486
76517W        W41337   0.299   3.274   2.133
76518W        W41338  17.173  29.350   4.120
76519W        W41339   8.332   8.984  14.860
76520W        W41340  22.564  10.850   2.024
76521W        W41341   3.295  19.450   0.817
76522W        W41342  10.819  20.250  12.532
76523W        W41343   9.690  36.945   0.788
76524W        W41344  29.897  36.965  12.366
76525W        W41345  28.085  31.087   4.343
76526W        W41346  12.614  17.327   5.120
76527W        W41347  11.213  37.423   0.782
76528W        W41348  15.528  37.546  13.473
76529W        W41349  30.468  38.555   0.871
76530W        W41350  10.190   6.682  11.639
76531W        W41351  20.959   7.251  14.442
76532W        W41352  29.731   9.742  11.443
76533W        W41353   9.872  23.580   4.474
76534W        W41354  21.615  44.007   4.918
76535W        W41355  20.454  13.860  14.997
76536W        W41356  25.383  16.162  13.497
76537W        W41357  18.958  34.059   0.192
76538W        W41358  43.076  44.352  14.972
76539W        W41359  12.614   7.190   4.378
76540W        W41360   2.552  28.972  12.890
76541W        W41361  31.117  23.257   2.572
76542W        W41362  41.832  28.773  12.444
76543W        W41363  20.256  41.952   0.305
76544W        W41364  19.989  18.802  11.596
76545W        W41365  21.076   4.830   2.892
76546W        W41366   5.674  13.242  12.337
76547W        W41367  41.582  29.659   3.135
76548W        W41368   9.107  13.621  12.394
76549W        W41369  10.463  19.628   4.945
76550W        W41370  29.521  19.688  11.558
76551W        W41371  43.139  27.638   1.406
76552W        W41372  25.027  24.226   4.509
76553W        W41373  11.557  13.760  10.912
76554W        W41374  33.118  18.507   3.196
76555W        W41375   4.952  31.108  12.910
76556W        W41376   0.458  41.855   0.692
76557W        W41377  15.307  37.037   2.726
76558W        W41378  10.822  40.083   4.228
76559W        W41379   0.711  15.636  11.146
76560W        W41380   2.678  35.475   2.255
76561W        W41381   3.363  13.636  13.681
76562W        W41382   6.813  33.563  11.529
76563W        W41383  40.207  44.784   4.676
76564W        W41384  44.336  32.696  10.776
76565W        W41385   8.776  29.609  14.076
76566W        W41386  31.977  36.054  11.112
76567W        W41387   2.368  43.501   0.247
76568W        W41388  10.273   1.369  12.025
76569W        W41389   4.702  41.787   4.947
76570W        W41390  18.793  40.008  12.639
76571W        W41391  28.771   7.159   2.954
76572W        W41392  33.119  17.663   0.764
76573W        W41393  38.181  33.305  12.609
76574W        W41394  43.933   7.945   4.033
76575W        W41395  22.649  39.513  12.126
76576W        W41396   4.258   8.149  11.031
76577W        W41397  37.373   0.861  13.437
76578W        W41398  37.023   8.886  13.017
76579W        W41399   0.833  11.809  10.774
76580W        W41400  34.458   0.739  10.548
76581W        W41401  25.541  25.690   0.286
76582W        W41402  23.966   4.974  14.260
76583W        W41403   3.862  21.756   2.004
76584W        W41404   5.681  39.157   0.489
76585W        W41405  22.333  10.742   3.679
76586W        W41406  44.961  28.473  13.026
76587W        W41407   5.621   0.188   1.763
76588W        W41408  38.157  32.819   0.769
76589W        W41409  39.444  36.790   1.482
76590W        W41410  34.352  37.834   3.912
76591W        W41411   1.013  23.219  11.502
76592W        W41412  41.273  34.109   1.819
76593W        W41413  27.430  35.715  14.076
76594W        W41414  17.672  37.464  14.906
76595W        W41415  32.054  38.552  12.942
76596W        W41416  36.889  29.077   1.054
76597W        W41417   5.091  25.431  12.624
76598W        W41418  22.266  12.807  12.304
76599W        W41419  12.242  24.876  12.390
76600W        W41420  23.112  44.599  11.409
76601W        W41421   1.512  24.418  10.718
76602W        W41422  44.515  32.407  14.873
76603W        W41423  29.573  26.488  13.974
76604W        W41424   4.313  25.615   3.236
76605W        W41425  27.100  40.526   1.733
76606W        W41426  23.079  44.832  12.977
76607W        W41427  26.158  44.088   4.140
76608W        W41428  36.767  35.578   0.325
76609W        W41429  33.434   7.082   0.687
76610W        W41430  10.645  37.083   0.952
76611W        W41431  14.612   6.450   2.329
76612W        W41432  37.341  44.294   5.005
76613W        W41433   3.813  37.326   4.578
76614W        W41434  31.562   7.342   2.160
76615W        W41435  13.594  30.545  14.501
76616W        W41436  24.534  43.402   4.858
76617W        W41437  36.475  19.247   4.463
76618W        W41438   7.245  39.769  12.537
76619W        W41439  19.057  27.551   1.713
76620W        W41440  40.782  37.719  13.051
76621W        W41441  22.571  12.380  11.590
76622W        W41442  23.004  12.685   3.692
76623W        W41443  31.940  41.279   3.431
76624W        W41444  18.259  17.124   2.384
76625W        W41445  25.495  43.572   2.790
76626W        W41446  44.957  28.258   1.390
76627W        W41447  24.618  44.056   2.450
76628W        W41448  44.684  20.832  11.027
76629W        W41449  41.792  31.899   0.745
76630W        W41450  25.271  17.605  11.550
76631W        W41451   3.144  28.888  10.769
76632W        W41452  31.063   4.758   4.942
76633W        W41453  38.986  35.997  14.518
76634W        W41454  29.400   6.325  13.121
76635W        W41455  11.300  18.898   2.171
76636W        W41456  12.335  25.132  11.442
76637W        W41457  17.318  38.525   3.662
76638W        W41458  19.742  10.310  13.902
76639W        W41459  29.075  26.993   3.086
76640W        W41460  13.955  30.954   2.154
76641W        W41461  40.056  37.381   4.959
76642W        W41462  25.900  21.624   4.626
76643W        W41463  26.122  39.431   2.315
76644W        W41464  15.370  40.491   2.830
76645W        W41465  12.232   6.154   0.978
76646W        W41466  23.192   8.671  13.414
76647W        W41467  34.684  42.608   0.002
76648W        W41468  13.609   7.111  14.509
76649W        W41469  44.401  29.884  12.955
76650W        W41470  13.356   8.345  10.938
76651W        W41471   6.766   8.293   0.905
76652W        W41472  33.580  29.147   4.535
76653W        W41473  25.467  19.923   0.204
76654W        W41474   6.883  15.336   4.507
76655W        W41475  16.191   1.062   4.209
76656W        W41476   5.879  35.385  14.954
76657W        W41477  23.639  13.292   1.142
76658W        W41478  31.407  23.548  10.364
76659W        W41479  12.072  28.895   2.887
76660W        W41480  12.909   8.147   0.368
76661W        W41481  29.288  35.011   4.057
76662W        W41482  17.812  31.204   3.250
76663W        W41483  20.330  35.940  10.289
76664W        W41484  42.298  38.865   9.825
76665W        W41485  22.329   7.350  14.773
76666W        W41486   0.893   9.103   2.396
76667W        W41487  21.193  27.655   4.595
76668W        W41488  11.623  10.213  14.401
76669W        W41489  10.413  14.840   2.653
76670W        W41490  15.731   7.767   3.644
76671W        W41491  44.290   7.222   1.793
76672W        W41492  23.471  31.538  14.860
76673W        W41493  40.960  21.082   4.210
76674W        W41494   0.417  34.544   4.324
76675W        W41495  20.203   3.562  13.573
76676W        W41496   0.840  32.819   0.432
76677W        W41497   7.480  30.561  13.771
76678W        W41498  12.875  16.620  14.990
76679W        W41499  16.765   3.199  11.747
76680W        W41500  27.567  18.141   4.842
76681W        W41501  38.247  28.860  14.024
76682W        W41502  42.956  24.766  10.649
76683W        W41503   6.373  22.123  10.961
76684W        W41504   0.013   7.924  13.030
76685W        W41505   8.781  12.560  14.313
76686W        W41506  27.631  11.822  11.381
76687W        W41507  29.704  44.893  10.558
76688W        W41508  32.452  36.712  14.291
76689W        W41509  44.277  31.602  13.078
76690W        W41510  32.767  33.736   9.929
76691W        W41511  40.039  15.844   3.812
76692W        W41512  37.965  11.175   3.115
76693W        W41513  39.621   8.738  10.948
76694W        W41514  34.009  18.892  12.081
76695W        W41515  23.225  29.869  12.952
76696W        W41516  26.162  26.175   2.843
76697W        W41517  31.027  44.463  11.628
76698W        W41518  20.468  22.001   0.842
76699W        W41519   5.161  29.365  11.392
76700W        W41520  24.649   7.887   3.802
76701W        W41521   3.182  12.800  12.495
76702W        W41522   0.481  34.957   0.318
76703W        W41523  21.592   5.252  14.818
76704W        W41524  12.041  34.801  11.677
76705W        W41525  37.588   2.768  14.805
76706W        W41526  40.872  11.063   5.536
76707W        W41527  28.621  19.248   9.678
76708W        W41528  11.685  17.526  13.580
76709W        W41529   1.114  14.084  14.313
76710W        W41530   0.503  32.017  12.824
76711W        W41531  11.264  10.137   3.537
76712W        W41532  18.853   1.889   2.324
76713W        W41533  11.184  32.042   2.261
76714W        W41534  42.383  27.635   0.992
76715W        W41535  21.112  38.942  13.497
76716W        W41536  41.972  39.051   0.390
76717W        W41537  27.129   5.324   3.808
76718W        W41538  34.327  17.888  14.487
76719W        W41539  39.317  36.403   2.368
76720W        W41540  39.483  15.610   4.707
76721W        W41541  16.556  36.953   2.177
76722W        W41542  17.850   9.853   2.903
76723W        W41543  11.796  23.509  10.768
76724W        W41544  39.039  35.099  12.540
76725W        W41545  39.835   1.579  14.920
76726W        W41546  24.974  38.408   1.354
76727W        W41547   1.736  23.728   1.818
76728W        W41548  32.225  34.348  11.015
76729W        W41549  33.335  36.804   0.119
76730W        W41550   6.814  35.926   4.388
76731W        W41551   0.008  33.272  13.085
76732W        W41552  34.138   7.885  11.160
76733W        W41553  33.904  29.615   2.705
76734W        W41554  22.257   3.999   1.944
76735W        W41555   8.833  43.724  10.705
76736W        W41556  31.924   2.962   3.189
76737W        W41557  10.201   1.145   3.658
76738W        W41558   3.880   7.214  10.430
76739W        W41559  28.459  14.107  10.928
76740W        W41560  11.273  41.948  14.456
76741W        W41561  23.023   3.047   0.251
76742W        W41562  36.647  29.196   4.104
76743W        W41563  15.617  16.661   2.302
76744W        W41564  11.285   5.272  14.218
76745W        W41565  25.389  32.191   2.800
76746W        W41566  21.615  18.976  12.014
76747W        W41567  15.260   5.992   2.689
76748W        W41568  21.050  39.975   3.169
76749W        W41569  12.958  22.515  11.646
76750W        W41570  20.687  14.646  11.589
76751W        W41571  38.224  23.156  10.358
76752W        W41572  34.105  17.448  11.504
76753W        W41573  32.450   5.824   4.071
76754W        W41574  30.375  26.086   2.840
76755W        W41575   6.972  11.125   2.240
76756W        W41576  10.566  23.981  14.831
76757W        W41577  17.674  12.930  13.117
76758W        W41578  32.834  25.115  14.516
76759W        W41579  44.112   7.170  14.544
76760W        W41580  31.167   1.525  10.808
76761W        W41581  11.534  15.043   1.737
76762W        W41582  20.520  27.855  12.969
76763W        W41583   7.670  33.135  13.854
76764W        W41584  10.360   7.615  12.074
76765W        W41585  42.969  32.504  13.966
76766W        W41586   3.960  34.125  13.808
76767W        W41587  31.063  24.019   3.154
76768W        W41588   2.271  28.247   2.821
76769W        W41589  21.107   2.220  11.995
76770W        W41590  41.507  31.902   2.683
76771W        W41591  42.308  14.232  14.821
76772W        W41592  19.178  23.662   4.005
76773W        W41593  25.763  17.980   2.744
76774W        W41594  34.043  33.936  11.713
76775W        W41595  32.903   7.811   4.226
76776W        W41596  14.171   9.615  12.574
76777W        W41597  34.606   4.059  10.754
76778W        W41598  29.168  41.984  12.092
76779W        W41599  18.260  37.520  11.166
76780W        W41600  27.170  44.301  12.340
76781W        W41601   5.285   6.384  10.834
76782W        W41602  33.586   6.421  12.921
76783W        W41603  26.468  23.119   2.318
76784W        W41604  16.035  23.692  13.904
76785W        W41605  24.105  30.100   3.202
76786W        W41606   4.151  41.557  14.033
76787W        W41607  21.974  30.526  11.518
76788W        W41608  12.163   8.662   1.880
76789W        W41609  35.742   4.279  12.809
76790W        W41610  14.145   1.775  14.986
76791W        W41611   8.966  40.443  10.904
76792W        W41612  29.363  30.016   4.905
76793W        W41613  38.052  31.320  13.727
76794W        W41614   8.118  17.303  14.998
76795W        W41615  38.252  21.249   5.002
76796W        W41616  40.765  40.367  12.466
76797W        W41617  24.094   7.783  14.269
76798W        W41618  42.979   0.345   4.759
76799W        W41619   3.691  40.812   0.305
76800W        W41620  36.331  20.722  12.084
76801W        W41621  39.035  20.474   2.093
76802W        W41622  40.070  20.092  13.570
76803W        W41623  29.120  44.471  11.892
76804W        W41624   2.502  42.175   3.270
76805W        W41625  32.374  31.216  11.192
76806W        W41626  24.543   5.829  12.668
76807W        W41627   4.519  44.061  10.996
76808W        W41628   1.387  33.425  11.672
76809W        W41629  25.527  27.887  12.032
76810W        W41630  42.879   1.323  14.476
76811W        W41631  37.332  31.566  12.462
76812W        W41632  35.122   9.509  12.892
76813W        W41633  11.409  36.807  13.900
76814W        W41634  13.141   6.904  13.459
76815W        W41635   0.180  39.314  11.638
76816W        W41636  32.641  25.957   1.732
76817W        W41637  26.657  11.120  12.528
76818W        W41638  29.474  30.611   3.368
76819W        W41639  11.300  12.385  11.184
76820W        W41640  18.233  30.209   3.570
76821W        W41641  15.319  10.345  10.775
76822W        W41642  10.951   8.316  11.647
76823W        W41643  12.876  19.214   1.897
76824W        W41644  14.639  34.401  13.545
76825W        W41645  36.106   3.885   4.741
76826W        W41646   1.503  41.896   3.152
76827W        W41647  13.541  34.181   1.339
76828W        W41648  21.532   2.847   2.263
76829W        W41649  14.287   2.893  10.753
76830W        W41650   0.957  44.042   3.988
76831W        W41651   4.424  25.133   0.550
76832W        W41652  33.084  30.398   0.410
76833W        W41653  43.247   8.769   0.039
76834W        W41654  19.587   9.803  12.332
76835W        W41655   4.358  31.554   3.874
76836W        W41656  13.712  27.731  13.320
76837W        W41657  28.947  34.899  13.812
76838W        W41658  25.736  35.533  13.008
76839W        W41659   3.817  23.798  13.869
76840W        W41660  24.103  10.552   4.952
76841W        W41661  19.174  25.283  11.868
76842W        W41662  28.997   1.988   0.517
76843W        W41663  39.917  10.099  13.962
76844W        W41664  16.121  17.192   3.490
76845W        W41665  18.659  33.133  10.773
76846W        W41666  42.878  35.046   3.387
76847W        W41667  40.269  38.999   3.423
76848W        W41668  33.935   4.365   1.374
76849W        W41669   1.589  36.102  13.885
76850W        W41670   1.511  25.962   1.686
76851W        W41671  35.051  33.476   0.921
76852W        W41672   4.930  30.437  11.549
76853W        W41673  40.170  29.645   1.673
76854W        W41674   4.286  21.099   0.391
76855W        W41675  19.657   0.387  10.500
76856W        W41676  17.186  20.393  10.152
76857W        W41677  20.512  17.569  13.021
76858W        W41678  16.843  13.171   4.926
76859W        W41679  20.618  25.563   0.959
76860W        W41680  41.512  25.511  12.457
76861W        W41681  38.427  42.353  14.724
76862W        W41682  22.512  25.576   4.092
76863W        W41683  22.230  11.433   1.413
76864W        W41684  20.745   0.775   0.372
76865W        W41685   3.971  43.452   3.657
76866W        W41686  28.506  17.538   2.461
76867W        W41687   9.863  42.264  14.233
76868W        W41688   9.829  14.075  11.169
76869W        W41689   5.025  27.360   3.749
76870W        W41690   3.887  20.349   1.707
76871W        W41691  29.123  13.585  11.634
76872W        W41692  31.909   7.674  12.393
76873W        W41693  25.888   5.439   4.779
76874W        W41694  24.569  34.030   1.265
76875W        W41695   2.400  34.954  14.408
76876W        W41696  22.956  44.295   3.325
76877W        W41697   1.710  34.666  10.904
76878W        W41698   9.392  24.941   1.340
76879W        W41699  19.577   1.845   3.698
76880W        W41700   3.277  37.389   0.693
76881W        W41701   6.754  19.203  13.069
76882W        W41702  12.705  42.764  12.719
76883W        W41703  29.689  18.078   5.035
76884W        W41704   4.270   2.060  13.997
76885W        W41705  14.067  40.552   4.065
76886W        W41706  34.407  18.509   1.773
76887W        W41707  12.208  15.756   2.675
76888W        W41708  40.594  30.348   4.042
76889W        W41709  35.989  20.073   4.609
76890W        W41710  33.821  14.553  13.432
76891W        W41711  21.278  15.285   2.420
76892W        W41712  36.541  28.949  14.938
76893W        W41713  40.299  39.432   2.754
76894W        W41714   7.565   5.712   1.769
76895W        W41715  38.784  15.516   3.308
76896W        W41716  30.819   4.329  11.604
76897W        W41717  31.700   2.954  12.415
76898W        W41718  20.203   8.174   0.425
76899W        W41719  30.648  38.983   3.174
76900W        W41720  40.985  35.625   4.700
76901W        W41721  36.307  21.301   3.488
76902W        W41722  24.940  43.829  12.563
76903W        W41723  26.988  39.337   1.355
76904W        W41724  34.941  15.873  12.847
76905W        W41725  30.553  17.064   0.380
76906W        W41726  20.751   9.591   4.114
76907W        W41727  14.267  11.143   3.722
76908W        W41728  26.737  16.988  13.455
76909W        W41729  16.906  35.979   2.173
76910W        W41730  35.162  23.665   5.390
76911W        W41731  37.128  44.455   2.612
76912W        W41732  18.704  40.971   2.713
76913W        W41733  30.191   1.093  10.736
76914W        W41734  18.078  38.460  13.357
76915W        W41735  32.111   7.658   5.111
76916W        W41736  21.822  17.177  11.580
76917W        W41737   1.376  32.228   3.560
76918W        W41738  30.071  27.453   2.951
76919W        W41739   7.683  34.859   1.906
76920W        W41740  29.634   8.407  12.482
76921W        W41741   2.330  35.458   4.549
76922W        W41742  27.923  23.057   2.366
76923W        W41743  36.614  30.123  13.412
76924W        W41744   0.395   1.392   4.313
76925W        W41745  20.168  18.587   0.146
76926W        W41746  21.077  32.020   3.152
76927W        W41747  22.173  29.757  13.348
76928W        W41748  39.368  10.896  11.600
76929W        W41749  22.211  27.664  10.942
76930W        W41750   7.637   7.978   2.788
76931W        W41751  10.910  35.608  11.113
76932W        W41752  12.121  22.301   2.073
76933W        W41753  10.351  10.586  10.201
76934W        W41754  29.227  33.370   3.696
76935W        W41755  28.124  13.617  13.377
76936W        W41756  11.164   4.190   2.246
76937W        W41757   9.440  12.657  13.950
76938W        W41758  44.869  26.028  13.955
76939W        W41759  43.038   4.549   0.313
76940W        W41760  13.852  12.791   3.620
76941W        W41761  40.363  34.137   4.259
76942W        W41762  11.175  29.925  14.263
76943W        W41763  30.966  31.384  12.077
76944W        W41764   0.346  11.744   3.248
76945W        W41765  30.284   6.925   1.476
76946W        W41766  36.887  20.957   4.119
76947W        W41767  14.711  31.022  14.972
76948W        W41768  29.152  21.998  14.362
76949W        W41769  41.959   8.261   4.626
76950W        W41770  44.329   7.899   0.705
76951W        W41771  32.698  15.119  10.951
76952W        W41772   5.494  41.373   1.216
76953W        W41773  32.706   9.669   3.322
76954W        W41774   2.925  39.837   2.120
76955W        W41775  14.203  12.875   5.030
76956W        W41776   5.267  27.608  11.898
76957W        W41777  33.952   4.886   1.373
76958W        W41778   5.298  35.960  12.478
76959W        W41779  33.064   4.705  14.018
76960W        W41780   4.420   9.834  12.487
76961W        W41781  10.795  26.218   3.635
76962W        W41782  32.136   8.195  14.882
76963W        W41783   3.687  21.034   4.154
76964W        W41784  35.282   5.729  11.165
76965W        W41785  23.177  40.330   1.684
76966W        W41786  16.215   4.195   4.013
76967W        W41787  44.706  41.367  14.368
76968W        W41788  11.451  11.378  11.332
76969W        W41789  11.340  24.865   0.978
76970W        W41790  22.580  36.434  10.961
76971W        W41791  33.466   1.144  14.205
76972W        W41792  10.902  13.529   3.202
76973W        W41793  23.786  15.099   4.110
76974W        W41794  29.920  44.338  13.496
76975W        W41795  43.773  44.498   0.505
76976W        W41796  38.214   3.448   0.224
76977W        W41797  29.607  19.031  13.323
76978W        W41798   1.266   1.954   3.854
76979W        W41799  12.099  38.040  14.538
76980W        W41800  44.178  25.807   2.691
76981W        W41801  12.945  42.971   1.406
76982W        W41802  23.622  31.858  13.876
76983W        W41803  26.938  40.901   2.585
76984W        W41804  36.270  21.160  13.881
76985W        W41805  32.902  22.563  10.343
76986W        W41806  16.858  30.529  12.477
76987W        W41807  32.404  18.488   1.875
76988W        W41808  24.744  36.856   3.947
76989W        W41809  11.218  12.865   0.827
76990W        W41810  35.593  32.621   3.239
76991W        W41811   9.190   7.865   0.782
76992W        W41812  25.482  40.314  10.546
76993W        W41813  12.661  14.285   1.618
76994W        W41814  33.510   9.119   4.959
76995W        W41815   1.479  14.192  12.287
76996W        W41816  32.436  29.944   0.341
76997W        W41817  14.750  13.827   2.214
76998W        W41818  30.901  16.999   4.592
76999W        W41819  12.686   8.278   2.724
77000W        W41820  18.302  31.147  11.995
77001W        W41821  27.112   9.243   0.535
77002W        W41822  24.196   1.706   4.605
77003W        W41823  16.294  16.465  10.456
77004W        W41824  11.645  14.192  10.259
77005W        W41825   2.325   0.032   3.258
77006W        W41826   0.137  41.551   3.230
77007W        W41827   7.883   8.020   1.924
77008W        W41828  11.917   6.291   0.185
77009W        W41829  43.224   0.392  10.721
77010W        W41830  37.462  27.186  11.903
77011W        W41831   3.884  41.676   0.899
77012W        W41832   7.400  18.497   1.407
77013W        W41833   1.683  23.776   3.678
77014W        W41834   0.975  25.250   4.531
77015W        W41835   7.715  12.633   4.168
77016W        W41836   4.435  18.066   4.569
77017W        W41837  18.054  41.813  14.307
77018W        W41838  38.226  43.812   4.688
77019W        W41839  20.087   2.525  11.084
77020W        W41840  43.262  42.738   2.297
77021W        W41841  18.278  18.505   3.256
77022W        W41842  34.871   3.100   4.035
77023W        W41843   6.327  40.780  13.801
77024W        W41844  41.963  25.161  14.974
77025W        W41845  28.972  34.318   5.046
77026W        W41846  36.722  23.506  13.430
77027W        W41847   1.645  10.731   2.778
77028W        W41848  41.870  13.622  11.580
77029W        W41849  42.034  28.205   4.209
77030W        W41850  15.871  34.440  14.896
77031W        W41851   8.002  21.524   1.671
77032W        W41852  27.108  38.709  13.271
77033W        W41853   2.207  24.153   2.248
77034W        W41854  36.798   4.677  12.493
77035W        W41855  37.343   0.220  14.298
77036W        W41856  36.964   8.375   0.493
77037W        W41857  17.219  35.841  11.899
77038W        W41858   5.210  17.384  12.673
77039W        W41859   5.684  26.430   0.524
77040W        W41860  40.843  20.009  11.158
77041W        W41861  28.194  37.909   3.121
77042W        W41862  28.678   2.169   0.077
77043W        W41863  34.937  20.760  10.583
77044W        W41864  22.465  14.312  10.769
77045W        W41865  21.797  38.520   0.419
77046W        W41866  36.857  26.947  10.658
77047W        W41867  12.763   0.901   2.927
77048W        W41868  22.759  27.002  14.366
77049W        W41869   3.090  32.549  13.337
77050W        W41870  18.828  24.474   0.474
77051W        W41871   0.697  32.442   1.909
77052W        W41872  15.680  26.211  13.846
77053W        W41873  29.156  31.882   4.673
77054W        W41874  26.940  24.237   4.525
77055W        W41875  35.670  17.497   4.494
77056W        W41876   2.553  34.543  14.046
77057W        W41877  35.850  18.375   3.680
77058W        W41878  25.303   0.847  14.431
77059W        W41879  37.097  38.668  11.489
77060W        W41880  40.215  22.135  13.358
77061W        W41881  16.633  35.611   2.414
77062W        W41882  26.532  42.091  14.757
77063W        W41883  15.781  33.190   0.978
77064W        W41884  37.336   6.243   3.243
77065W        W41885  17.286  13.147   0.670
77066W        W41886  19.490   5.155   4.417
77067W        W41887  27.126   5.958   0.334
77068W        W41888  33.052  31.963  10.890
77069W        W41889  41.431  17.061  13.533
77070W        W41890  30.066  38.285   0.598
77071W        W41891  39.607   9.473  11.522
77072W        W41892  34.658   9.274  12.588
77073W        W41893  22.503  30.224   3.812
77074W        W41894   7.449  21.856   0.925
77075W        W41895  28.054  11.728   3.378
77076W        W41896  22.941  42.473   4.556
77077W        W41897   1.855   3.745   1.254
77078W        W41898  10.972  29.972  14.744
77079W        W41899  41.119  44.023  11.595
77080W        W41900  40.756  41.362   4.825
77081W        W41901   6.551  34.389   4.983
77082W        W41902  35.413  31.346  10.456
77083W        W41903  30.377   1.379   4.159
77084W        W41904  36.320  30.595  14.519
77085W        W41905  23.851  41.285   4.426
77086W        W41906  13.247  18.766  12.131
77087W        W41907  14.244  38.844   2.342
77088W        W41908  40.440   1.442  11.853
77089W        W41909   6.358  28.480  13.110
77090W        W41910   5.033  35.610   2.200
77091W        W41911  30.561  20.762   4.434
77092W        W41912  17.327  31.047   3.107
77093W        W41913  39.460  11.716  11.936
77094W        W41914  16.596  44.111  13.882
77095W        W41915  15.830  16.888   3.748
77096W        W41916   8.124   8.943  12.389
77097W        W41917  34.064  26.645   9.694
77098W        W41918  20.050  37.400   1.106
77099W        W41919   1.749  22.903  11.202
77100W        W41920  36.338  38.954   1.398
77101W        W41921  24.344  18.026  13.431
77102W        W41922  24.289   6.664  10.661
77103W        W41923  28.986  41.135  11.617
77104W        W41924  15.622  13.730   2.172
77105W        W41925  44.746  35.882  14.828
77106W        W41926  24.132  26.094  13.496
77107W        W41927  11.182  43.591   0.469
77108W        W41928  35.482  12.802   1.934
77109W        W41929  29.238   9.166  13.079
77110W        W41930  42.077  17.359  12.269
77111W        W41931   7.492  22.049  11.725
77112W        W41932  32.519  35.960   1.012
77113W        W41933  11.319  31.394   3.793
77114W        W41934  41.464  33.580  14.936
77115W        W41935  14.555  31.894   3.726
77116W        W41936   3.455  39.502  11.826
77117W        W41937  27.628  43.263   2.412
77118W        W41938   1.289  17.977   0.882
77119W        W41939  38.991  43.230  13.478
77120W        W41940  15.297  38.879   0.429
77121W        W41941   9.250  17.603   0.891
77122W        W41942  25.666   4.975   0.920
77123W        W41943  35.940   6.402   4.908
77124W        W41944  27.304   2.825  14.803
77125W        W41945  37.942  19.015   4.367
77126W        W41946  18.401  11.758   3.975
77127W        W41947  40.532  16.578  11.701
77128W        W41948   0.238  22.887  14.946
77129W        W41949  33.916   8.731  14.856
77130W        W41950  11.322  12.880   1.680
77131W        W41951  21.126  44.869  13.649
77132W        W41952   9.327  21.248   2.716
77133W        W41953  23.194  15.711   4.361
77134W        W41954   8.328  36.198  13.392
77135W        W41955  21.086  23.061  14.392
77136W        W41956   1.915  11.745   2.528
77137W        W41957   0.062  28.430  11.688
77138W        W41958  36.078   8.573  14.371
77139W        W41959  15.492   7.959   4.052
77140W        W41960  30.484  39.445  12.364
77141W        W41961  42.618  10.402   1.783
77142W        W41962  20.194  20.877  10.275
77143W        W41963  34.345   3.458  12.564
77144W        W41964  17.778   9.798   0.791
77145W        W41965  19.260   4.351   3.747
77146W        W41966  31.631   9.245   2.764
77147W        W41967  33.576   9.060   1.857
77148W        W41968  30.601  15.601   2.878
77149W        W41969  34.653  20.305   4.180
77150W        W41970  31.433  23.059   4.245
77151W        W41971  32.206  37.797   0.480
77152W        W41972   7.775   3.810   0.750
77153W        W41973  17.090  11.687  14.509
77154W        W41974  15.576  27.025   1.760
77155W        W41975  31.127  44.625   4.364
77156W        W41976  18.702  12.363  14.985
77157W        W41977   9.880  22.728  13.829
77158W        W41978   6.344   7.842   3.894
77159W        W41979   3.405  18.745   2.696
77160W        W41980  27.567   0.989  12.626
77161W        W41981  34.608  28.197  12.042
77162W        W41982  22.155  10.121   1.807
77163W        W41983  18.230   3.047   1.733
77164W        W41984  23.629  19.714   3.601
77165W        W41985  25.546   5.308   2.052
77166W        W41986  16.828  11.001   4.986
77167W        W41987  14.650  34.689  14.345
77168W        W41988  35.155  25.495   4.151
77169W        W41989  32.493  12.839  12.046
77170W        W41990  28.170  38.323   1.225
77171W        W41991   9.346  17.537   4.578
77172W        W41992  30.571  30.746  10.922
77173W        W41993   6.222  38.558   3.686
77174W        W41994   4.232  20.154   4.060
77175W        W41995  41.906  16.175   2.333
77176W        W41996  44.564  41.041   4.595
77177W        W41997  20.106  23.602   1.973
77178W        W41998   2.733  15.394   1.177
77179W        W41999  27.014  20.334  13.452
77180W        W42000  12.796  21.283  10.935
77181W        W42001   6.278  17.615  13.941
77182W        W42002   1.343  11.839  10.856
77183W        W42003  23.278  24.165  11.529
77184W        W42004  16.745   8.134  12.397
77185W        W42005  19.263   4.963  11.564
77186W        W42006  42.780  21.097  12.413
77187W        W42007  41.988  29.258   4.040
77188W        W42008  24.339  11.814   0.452
77189W        W42009   9.925  12.510   1.863
77190W        W42010  39.320  43.583  11.653
77191W        W42011  30.714  13.907   5.044
77192W        W42012  23.120  34.782   0.545
77193W        W42013   7.441  21.166  12.082
77194W        W42014  11.274  10.339  12.529
77195W        W42015   3.831  40.837  11.151
77196W        W42016   3.160  43.568   0.603
77197W        W42017  18.122  11.261  11.655
77198W        W42018   0.350  44.556  12.646
77199W        W42019  23.030  36.949  12.462
77200W        W42020  14.982  30.010  12.630
77201W        W42021  23.089  29.589  13.369
77202W        W42022  14.417  18.216  11.023
77203W        W42023  31.562  30.120   1.276
77204W        W42024  25.902  13.553  14.397
77205W        W42025   9.128  23.274   3.356
77206W        W42026  42.767  22.297   1.366
77207W        W42027  30.939  31.906  12.170
77208W        W42028  44.308  39.612  14.989
77209W        W42029   8.202  40.448  14.373
77210W        W42030  13.167  10.011  14.597
77211W        W42031  34.987   0.275   1.480
77212W        W42032  20.359  35.394   4.728
77213W        W42033   2.181  36.689   0.018
77214W        W42034   7.336  40.767   1.023
77215W        W42035  12.879  20.964   3.643
77216W        W42036   5.451  10.172   2.163
77217W        W42037  35.133  22.224   1.764
77218W        W42038  24.937  42.925   3.129
77219W        W42039  17.184   0.270  11.193
77220W        W42040   3.227   9.229  12.006
77221W        W42041  15.664  14.590   2.387
77222W        W42042  33.442  32.237  14.911
77223W        W42043  15.867   6.383   1.874
77224W        W42044  25.966   6.076  12.513
77225W        W42045  38.873  27.463   3.969
77226W        W42046  34.550  40.035   0.334
77227W        W42047  15.599  30.850  11.511
77228W        W42048  37.518  35.163  13.469
77229W        W42049  36.918  40.920   2.344
77230W        W42050  37.497  29.454  13.434
77231W        W42051  31.401  15.121  12.610
77232W        W42052   8.708  32.179   2.586
77233W        W42053  32.598  18.275  11.455
77234W        W42054  31.205   4.019  11.105
77235W        W42055  28.149   9.313   2.808
77236W        W42056   8.916  13.193   3.573
77237W        W42057  33.212  13.084   4.161
77238W        W42058  14.069   6.672  10.912
77239W        W42059  28.989  40.380   3.363
77240W        W42060  11.184  32.411  14.799
77241W        W42061   4.091  24.628  13.475
77242W        W42062   2.242   8.924  10.673
77243W        W42063   7.388  10.326  11.115
77244W        W42064   6.824  33.465   2.252
77245W        W42065  20.288  41.438   1.987
77246W        W42066  38.898   2.439   4.723
77247W        W42067   8.863   2.623   1.310
77248W        W42068  15.388  24.189  14.405
77249W        W42069  29.245  16.294  10.780
77250W        W42070  40.939  21.753  10.540
77251W        W42071  43.986  19.162  14.357
77252W        W42072  16.072  24.689   1.422
77253W        W42073  33.002  13.213   9.735
77254W        W42074   3.834  43.760   4.598
77255W        W42075  12.038  27.978  14.029
77256W        W42076  12.529   8.401  14.276
77257W        W42077  33.456   3.025   2.126
77258W        W42078   7.693  36.255   0.332
77259W        W42079  15.562  13.771   2.699
77260W        W42080   6.116  20.837  13.472
77261W        W42081  39.635  36.838  13.031
77262W        W42082  25.548  26.433  14.047
77263W        W42083  25.587  41.012   2.450
77264W        W42084  18.498  38.154  12.523
77265W        W42085  30.121  34.401   0.291
77266W        W42086   4.809  39.521   0.028
77267W        W42087  21.293  19.505   3.254
77268W        W42088  29.100   3.631  14.330
77269W        W42089  39.077   4.808  11.084
77270W        W42090  12.641  16.545  10.242
77271W        W42091  35.641   0.183  11.496
77272W        W42092  23.064  16.110  13.780
77273W        W42093  40.419   1.928   2.319
77274W        W42094  11.396  33.133   3.069
77275W        W42095  44.307  13.576  13.514
77276W        W42096  29.665   2.445   3.759
77277W        W42097  41.911  11.160  12.299
77278W        W42098   4.796   2.842   4.639
77279W        W42099  33.320  39.877  13.426
77280W        W42100  31.966   8.451   4.171
77281W        W42101  15.682   0.958   2.044
77282W        W42102  20.229   6.413  13.637
77283W        W42103   5.467   3.262  14.537
77284W        W42104  36.637  44.277  13.378
77285W        W42105  17.732   3.280   3.959
77286W        W42106  36.403   9.620   3.077
77287W        W42107  28.504  34.913   3.332
77288W        W42108  30.889  10.260   0.596
77289W        W42109  24.136   2.343  13.007
77290W        W42110   4.329   6.586   0.918
77291W        W42111  32.620   9.330  11.491
77292W        W42112  14.206  44.776  13.342
77293W        W42113   2.782  34.389   1.681
77294W        W42114   5.495   2.880   4.059
77295W        W42115  28.411  29.139  12.542
77296W        W42116  40.775  10.729   9.829
77297W        W42117  40.605   9.793   3.191
77298W        W42118  25.667  35.838  13.519
77299W        W42119  41.179   2.312  10.851
77300W        W42120  26.517  37.613  11.180
77301W        W42121  23.633  21.225   3.365
77302W        W42122  27.786  17.169   2.558
77303W        W42123  26.127  13.452  11.160
77304W        W42124   1.588  15.616   1.808
77305W        W42125  14.161  26.081  13.097
77306W        W42126   7.752  16.291  11.501
77307W        W42127  17.422  11.763   5.054
77308W        W42128  27.665  26.003  11.198
77309W        W42129  19.199   3.494   3.247
77310W        W42130  32.575  29.552   1.236
77311W        W42131  39.945   5.834  11.134
77312W        W42132   8.950   6.854   1.471
77313W        W42133  20.019   5.941  13.489
77314W        W42134  11.722   7.129   4.153
77315W        W42135  30.131   4.883   2.201
77316W        W42136   2.377  43.660   3.873
77317W        W42137   6.356  19.659  11.509
77318W        W42138  39.593  26.486   4.918
77319W        W42139  41.817  17.022  11.993
77320W        W42140   3.539  16.725  14.582
77321W        W42141   9.243   3.547   1.908
77322W        W42142  17.784  27.034  12.934
77323W        W42143  26.482  15.301  14.808
77324W        W42144  23.951  37.860  13.179
77325W        W42145  13.882  39.523   1.711
77326W        W42146  22.557  24.454   5.002
77327W        W42147  33.865  16.620   3.152
77328W        W42148  26.715  22.611   3.203
77329W        W42149   6.967  32.309   2.398
77330W        W42150   0.234  36.738  12.437
77331W        W42151  10.589  35.858   3.978
77332W        W42152  32.874  18.675   2.263
77333W        W42153  14.336   8.203  11.973
77334W        W42154  42.067  13.247  14.441
77335W        W42155  36.735  15.612  13.819
77336W        W42156  27.476   7.293   0.309
77337W        W42157  26.896  13.133   3.637
77338W        W42158  11.820  35.136   4.372
77339W        W42159  40.979   2.592  13.429
77340W        W42160  33.115  35.560   4.577
77341W        W42161  33.937  32.027  14.696
77342W        W42162  12.363  33.729   0.873
77343W        W42163  12.310  27.435  11.546
77344W        W42164   4.990  17.132  13.401
77345W        W42165  29.360  32.036   4.207
77346W        W42166  18.252  25.222   1.236
77347W        W42167  10.910  39.808   2.348
77348W        W42168  26.476  27.937  14.928
77349W        W42169  39.063  21.140  13.863
77350W        W42170  16.223  44.998  13.778
77351W        W42171   8.270  23.434  14.323
77352W        W42172   3.756  34.685  11.582
77353W        W42173  12.703  15.204   3.931
77354W        W42174  10.748   1.801   3.308
77355W        W42175  13.807  39.474  11.093
77356W        W42176  31.578   6.262   4.118
77357W        W42177   3.954  30.202   1.834
77358W        W42178  15.013   7.802   3.913
77359W        W42179  21.524  36.318  14.011
77360W        W42180  17.692   8.073  13.942
77361W        W42181   2.459  44.517   3.487
77362W        W42182  33.639  31.022   4.370
77363W        W42183  23.554  21.776   2.161
77364W        W42184  36.375  39.354   3.299
77365W        W42185  42.243  14.816  11.477
77366W        W42186  21.046  21.509   3.630
77367W        W42187  39.065  17.805  11.891
77368W        W42188  10.695  10.413  14.940
77369W        W42189  30.069   6.872   0.915
77370W        W42190  40.248  42.608   0.556
77371W        W42191  11.153  28.018  11.108
77372W        W42192  43.062  22.615  14.898
77373W        W42193   8.615  31.487  13.978
77374W        W42194   3.097  13.368   5.042
77375W        W42195   5.718  29.555   4.906
77376W        W42196  11.896   2.977  12.174
77377W        W42197  43.980  14.885  12.935
77378W        W42198  33.795  36.297  13.443
77379W        W42199  31.982  19.601  13.857
77380W        W42200  42.278  35.634   3.449
77381W        W42201  18.124  16.086   2.701
77382W        W42202  25.928  12.215   2.730
77383W        W42203  34.829  19.412   0.351
77384W        W42204   9.339   5.381  11.867
77385W        W42205  22.769  26.268   3.657
77386W        W42206  44.949  39.373  10.690
77387W        W42207  26.331  26.101  14.750
77388W        W42208   3.757  13.294  13.862
77389W        W42209  23.705  24.532   1.750
77390W        W42210  11.722  27.676  14.768
77391W        W42211  30.444  43.668   4.122
77392W        W42212   2.944   4.263   0.821
77393W        W42213  39.472   6.624   2.171
77394W        W42214   3.395  33.888   0.295
77395W        W42215   0.388  19.388  13.557
77396W        W42216  25.627   3.435  13.061
77397W        W42217  19.456   7.393  14.331
77398W        W42218   6.659   7.761  13.039
77399W        W42219  16.710  21.564  12.425
77400W        W42220   3.994   5.763  12.539
77401W        W42221  33.268  19.439  10.433
77402W        W42222  18.525  38.885   1.396
77403W        W42223  11.124   2.637  10.739
77404W        W42224  32.582  13.334   1.869
77405W        W42225  32.754  17.346   0.988
77406W        W42226  27.150  20.302  14.792
77407W        W42227   1.939  29.955  12.707
77408W        W42228  31.999  34.069   1.332
77409W        W42229  43.972   4.876   1.171
77410W        W42230  35.206  10.256   0.271
77411W        W42231  37.515  22.578  10.167
77412W        W42232  11.834  37.957   3.109
77413W        W42233  41.007  43.924  13.491
77414W        W42234   2.533  23.493   1.930
77415W        W42235  32.899  19.700   3.714
77416W        W42236  28.178  22.119  10.804
77417W        W42237  41.004  10.157   0.980
77418W        W42238  13.145  31.716   4.976
77419W        W42239  12.798  14.640  13.942
77420W        W42240  40.257   7.736  12.942
77421W        W42241  32.838  35.000  13.825
77422W        W42242  19.013  43.983  11.645
77423W        W42243   5.247  34.943   0.970
77424W        W42244   7.861  39.077   0.088
77425W        W42245   5.280  29.544   3.102
77426W        W42246   2.226  27.748   3.012
77427W        W42247  29.545  12.784   2.699
77428W        W42248  19.307  13.329  14.538
77429W        W42249  37.115  20.574  14.282
77430W        W42250  18.075  37.100   0.026
77431W        W42251  34.702  37.600  14.537
77432W        W42252  20.271  37.936  13.729
77433W        W42253  16.636  42.414  14.747
77434W        W42254   4.821  26.303   1.769
77435W        W42255  34.413   8.639  14.913
77436W        W42256  21.146  11.879   4.509
77437W        W42257  25.646   9.712  13.397
77438W        W42258  24.470  11.180  13.862
77439W        W42259  29.384  13.050  12.882
77440W        W42260  39.356  10.359  14.816
77441W        W42261  34.896   1.751  11.437
77442W        W42262   8.294  41.040  13.070
77443W        W42263  39.536  36.362  13.863
77444W        W42264  16.530  32.904  11.084
77445W        W42265  22.770   8.379  13.044
77446W        W42266   2.028  17.200  14.746
77447W        W42267  10.450  40.398  14.770
77448W        W42268   5.737  44.424   3.436
77449W        W42269  37.882  34.345   3.899
77450W        W42270  30.491  24.541  13.497
77451W        W42271   3.457  37.039   1.468
77452W        W42272  25.498   9.774   1.307
77453W        W42273  33.193  39.026  12.547
77454W        W42274  21.291  12.353  10.214
77455W        W42275  38.783  27.033  12.378
77456W        W42276   9.774   4.036  12.431
77457W        W42277  27.018   8.426  12.103
77458W        W42278  14.860   0.434   3.442
77459W        W42279  18.598  30.516   3.785
77460W        W42280   9.973  34.323   0.681
77461W        W42281   6.922   5.761   3.269
77462W        W42282  18.209  26.757   1.232
77463W        W42283  16.664  32.605  10.453
77464W        W42284  36.609  12.585   0.929
77465W        W42285   3.735  12.327   2.223
77466W        W42286  35.947   4.490  11.507
77467W        W42287  27.823  19.035  10.016
77468W        W42288  42.463  37.282  11.171
77469W        W42289   0.878  29.696   0.984
77470W        W42290   5.839  23.424  11.593
77471W        W42291   3.758   0.522   1.846
77472W        W42292  38.645   7.403   2.319
77473W        W42293  21.471   3.461  11.141
77474W        W42294  22.200  27.535  11.440
77475W        W42295  42.495   4.716   1.469
77476W        W42296   0.693  16.559  11.628
77477W        W42297  24.648   5.191   3.348
77478W        W42298   2.443  42.925  10.604
77479W        W42299  21.095   1.275   5.203
77480W        W42300   4.337   5.820   3.210
77481W        W42301   7.775   1.224  13.065
77482W        W42302   6.653  42.213  12.447
77483W        W42303  29.871  39.913  14.880
77484W        W42304  12.967  40.417  11.600
77485W        W42305  12.775  36.562  14.064
77486W        W42306   2.974  42.400   0.469
77487W        W42307  42.428   4.489  12.321
77488W        W42308  17.647  29.060   2.260
77489W        W42309  41.336  23.198  11.601
77490W        W42310   6.250   4.349   1.728
77491W        W42311  10.240  25.874  12.123
77492W        W42312  41.013  19.272   4.054
77493W        W42313  34.659  24.735   0.502
77494W        W42314  30.821   5.769  11.724
77495W        W42315  35.253  25.237  10.487
77496W        W42316  38.361  22.694   1.028
77497W        W42317  37.959  19.772   5.193
77498W        W42318  41.005  30.940   1.736
77499W        W42319  35.829  21.607   1.848
77500W        W42320  22.076  16.708   0.105
77501W        W42321   7.493  39.822  11.824
77502W        W42322  28.968  10.647   4.988
77503W        W42323   3.721   7.671  10.610
77504W        W42324  40.927  23.559  12.906
77505W        W42325  24.305  21.446   1.717
77506W        W42326   3.144  44.411  11.269
77507W        W42327  15.041  17.085  14.413
77508W        W42328   6.959  35.008   4.442
77509W        W42329  43.181  29.893   1.437
77510W        W42330  20.835   0.445   1.724
77511W        W42331   4.168   1.028   3.464
77512W        W42332   3.256   3.189   4.631
77513W        W42333  17.616  34.851  13.538
77514W        W42334  12.308  19.253  12.500
77515W        W42335   4.997  31.598   0.640
77516W        W42336   0.728  32.046   0.961
77517W        W42337  42.087   2.850   2.196
77518W        W42338  17.299   2.365   1.906
77519W        W42339   6.323  41.115   9.868
77520W        W42340  22.995  36.993  11.931
77521W        W42341  37.580  17.076  11.506
77522W        W42342   0.017  11.105  12.139
77523W        W42343  23.644  13.649  13.328
77524W        W42344  11.759  15.275  12.499
77525W        W42345  35.390  13.544  14.844
77526W        W42346  29.957  16.545  13.433
77527W        W42347  11.350   8.075   2.135
77528W        W42348  34.062  18.691  14.071
77529W        W42349  41.888   8.781   0.010
77530W        W42350  31.065  28.654   3.774
77531W        W42351  33.642  28.524  11.184
77532W        W42352  38.519  28.530  11.820
77533W        W42353  37.594  21.082  13.496
77534W        W42354  26.102  14.007  12.014
77535W        W42355   4.982   6.273   1.479
77536W        W42356  30.385  29.252  13.993
77537W        W42357  32.091   4.453   0.288
77538W        W42358   6.596  23.093  13.846
77539W        W42359  19.740   5.076   4.927
77540W        W42360  17.662  23.391  14.485
77541W        W42361  24.633  22.162  11.068
77542W        W42362  18.878  21.774  11.155
77543W        W42363   2.805  39.352  11.062
77544W        W42364  40.107   6.804   3.061
77545W        W42365  33.868   7.149   4.575
77546W        W42366  27.130  36.882  11.181
77547W        W42367  19.207  43.887   3.027
77548W        W42368  20.049  22.228   4.538
77549W        W42369  34.961  23.160  14.323
77550W        W42370  10.725  41.367   4.534
77551W        W42371   0.394   2.975  13.121
77552W        W42372  12.237   3.896  10.958
77553W        W42373  38.736  31.968   2.377
77554W        W42374  21.546  43.049  11.429
77555W        W42375   8.203   5.177   3.206
77556W        W42376  18.611   7.266  14.072
77557W        W42377  23.594   8.118  12.302
77558W        W42378  15.597  19.286   1.085
77559W        W42379  30.146  31.340  11.153
77560W        W42380  28.098  41.330   2.089
77561W        W42381  17.339   3.508   4.231
77562W        W42382   2.315  30.940  13.930
77563W        W42383  29.151   0.418   4.313
77564W        W42384   0.050  37.044   3.288
77565W        W42385  40.001  24.585   1.629
77566W        W42386  31.978  15.432  12.973
77567W        W42387  25.182  38.141  12.421
77568W        W42388  29.462  20.537  11.902
77569W        W42389   0.412  10.281  14.702
77570W        W42390   6.383  38.901   0.872
77571W        W42391   1.935  19.040  13.623
77572W        W42392  42.701   7.345   3.132
77573W        W42393  16.689  25.698   3.159
77574W        W42394  14.623   4.829   9.969
77575W        W42395   6.248   1.857  10.985
77576W        W42396   7.994  34.082  11.043
77577W        W42397  33.196  19.505   3.035
77578W        W42398  29.449  40.350   4.030
77579W        W42399  10.699  22.280  13.521
77580W        W42400  21.883  21.143   3.757
77581W        W42401   9.374  14.833   0.151
77582W        W42402  30.014  23.282  10.469
77583W        W42403  39.191  42.517  12.119
77584W        W42404  34.129  29.448  11.958
77585W        W42405  21.471  37.504   1.309
77586W        W42406   3.144  34.626  14.850
77587W        W42407  37.099  19.459   0.878
77588W        W42408  44.519   8.703   1.324
77589W        W42409  15.165   4.153   4.201
77590W        W42410  22.730  19.112   0.737
77591W        W42411  22.073  31.375   0.254
77592W        W42412  17.760  42.000   1.273
77593W        W42413   4.479  35.955  11.686
77594W        W42414  37.681  15.005   1.845
77595W        W42415  17.567  35.499   3.709
77596W        W42416   2.374  21.552  14.425
77597W        W42417  11.079  34.655   3.320
77598W        W42418  15.586  28.006   2.122
77599W        W42419  28.652   4.399  14.358
77600W        W42420  12.189   6.716  11.590
77601W        W42421  12.280  29.890   1.721
77602W        W42422  25.159  40.130  12.507
77603W        W42423  38.382   0.763   2.442
77604W        W42424  43.446  44.785   1.933
77605W        W42425  27.080  21.342   0.789
77606W        W42426  43.021  17.652   2.767
77607W        W42427  28.246  38.521  10.131
77608W        W42428   7.827  19.630   4.407
77609W        W42429  27.632   4.415   4.049
77610W        W42430   3.476   5.908   4.727
77611W        W42431  40.783  21.337  11.567
77612W        W42432  28.440   5.181  14.812
77613W        W42433  23.045  24.043   4.329
77614W        W42434  13.559  41.112  13.509
77615W        W42435  44.563  37.380   4.988
77616W        W42436  38.029  13.455   4.350
77617W        W42437   3.866  24.808   3.275
77618W        W42438  24.051  15.986   0.205
77619W        W42439  30.733  19.587  14.841
77620W        W42440  21.322  14.688  12.360
77621W        W42441  18.551   8.251  14.961
77622W        W42442   5.174  22.185  10.421
77623W        W42443  14.076  25.042   0.252
77624W        W42444  24.647  44.459  14.273
77625W        W42445  36.475  22.031  14.519
77626W        W42446  31.995   2.225   4.571
77627W        W42447  23.255  28.835   1.245
77628W        W42448  25.087  10.289  10.470
77629W        W42449  22.068  40.362  12.977
77630W        W42450  19.739  42.146   3.677
77631W        W42451   3.837  35.915  14.727
77632W        W42452   9.686  25.484  14.104
77633W        W42453  42.509  10.698   4.730
77634W        W42454  24.519  12.388   4.131
77635W        W42455   7.181  41.804  14.047
77636W        W42456  31.396  22.585  12.541
77637W        W42457  42.979  37.005  14.558
77638W        W42458   0.993   7.292   4.385
77639W        W42459  17.181   0.283   1.784
77640W        W42460  40.413  24.023  12.012
77641W        W42461  38.286  19.271  12.914
77642W        W42462  12.114  25.213  14.780
77643W        W42463   7.809  41.357   0.883
77644W        W42464  11.936   2.878   4.858
77645W        W42465  43.634  44.850   3.750
77646W        W42466  18.663  27.544   0.240
77647W        W42467  26.482   4.744  14.283
77648W        W42468  36.487  25.133  10.245
77649W        W42469  40.682  44.442  11.205
77650W        W42470   7.229   3.008  11.213
77651W        W42471  16.550   3.723   4.571
77652W        W42472  15.796  41.975  13.523
77653W        W42473   2.781  42.445   1.429
77654W        W42474  36.293  28.509  11.530
77655W        W42475  33.248  34.610  11.176
77656W        W42476  13.625  39.757   0.958
77657W        W42477  11.525  26.591  12.557
77658W        W42478   6.706  40.867  14.835
77659W        W42479  37.088  43.837   4.211
77660W        W42480  16.544  18.560   0.362
77661W        W42481   2.252  29.591   4.172
77662W        W42482  20.702  35.584   2.855
77663W        W42483  21.321  34.332  13.394
77664W        W42484  31.948  44.489  10.510
77665W        W42485  20.529  12.677   3.603
77666W        W42486   1.765  29.484  13.859
77667W        W42487  39.800  28.701   0.330
77668W        W42488   6.313  42.116   4.680
77669W        W42489  27.901  22.609   2.631
77670W        W42490  25.062   0.474   1.417
77671W        W42491   8.599  13.614  12.429
77672W        W42492  29.487  16.477   1.111
77673W        W42493  20.671  21.187  13.258
77674W        W42494  23.965  27.197  11.259
77675W        W42495  35.411  30.586  14.698
77676W        W42496  11.362  36.861   1.705
77677W        W42497  32.339  22.043   1.323
77678W        W42498  16.655  12.586  11.638
77679W        W42499  30.607  13.654  14.401
77680W        W42500   1.980  21.585  11.634
77681W        W42501  12.845   6.447  11.717
77682W        W42502  35.774  38.192   0.453
77683W        W42503  38.097  42.845  13.866
77684W        W42504   5.204  24.728  13.440
77685W        W42505   1.339   7.420   4.039
77686W        W42506  35.423  39.579   3.256
77687W        W42507  37.655   1.455   0.293
77688W        W42508   5.344  27.131  14.444
77689W        W42509  44.211  28.921   3.155
77690W        W42510  13.982  22.494   5.046
77691W        W42511  36.905  22.577  14.213
77692W        W42512   4.754  14.661   4.921
77693W        W42513  19.417  26.492  14.468
77694W        W42514  23.664  12.147   4.699
77695W        W42515  32.286  16.617  13.477
77696W        W42516  21.695  40.087  12.171
77697W        W42517  29.690  33.653  14.670
77698W        W42518  27.730   9.583   0.192
77699W        W42519  40.674   0.735  13.996
77700W        W42520  36.578  36.962   2.234
77701W        W42521  33.489   8.613   0.947
77702W        W42522  23.364  27.838   1.251
77703W        W42523  38.334  37.153   3.682
77704W        W42524  15.802  21.555   0.910
77705W        W42525  11.776  14.358   4.538
77706W        W42526  20.693  38.313  11.429
77707W        W42527  10.095  28.373  13.097
77708W        W42528   7.442  43.230  11.159
77709W        W42529   0.080   7.320   4.535
77710W        W42530  21.510   3.753  13.709
77711W        W42531  18.068  37.029   3.251
77712W        W42532  10.312  19.221   3.196
77713W        W42533  24.053  33.227   1.302
77714W        W42534  14.179  19.267   0.856
77715W        W42535  12.312  37.544  11.084
77716W        W42536  39.425  18.791   1.646
77717W        W42537  27.679  25.650   1.489
77718W        W42538  32.199   2.915  14.918
77719W        W42539  12.267  12.640   3.698
77720W        W42540   8.883  27.803  11.144
77721W        W42541  24.246  39.555  13.676
77722W        W42542   3.812   0.432   4.770
77723W        W42543   6.381  31.050   2.776
77724W        W42544  24.415  24.099  12.904
77725W        W42545   0.384  10.594   0.967
77726W        W42546  34.777  29.047   0.770
77727W        W42547  10.587  42.866   1.883
77728W        W42548   7.221   9.319  14.471
77729W        W42549  19.251  25.096   2.558
77730W        W42550  36.673  30.111   1.781
77731W        W42551  14.526   1.942  11.586
77732W        W42552  12.922  28.450  11.087
77733W        W42553  16.668  34.522   5.241
77734W        W42554   3.634  22.479   3.685
77735W        W42555   9.288  29.512   4.776
77736W        W42556   8.875  14.842   2.181
77737W        W42557  34.342  19.015  11.224
77738W        W42558  11.915  33.287  12.955
77739W        W42559  35.440  23.746   9.687
77740W        W42560  22.006  22.240   1.832
77741W        W42561  24.860   2.682   3.215
77742W        W42562  29.095  28.443  14.738
77743W        W42563  26.030  17.859   1.450
77744W        W42564  33.856  10.729  12.870
77745W        W42565  12.175  10.701  10.848
77746W        W42566   3.036  38.513  12.103
77747W        W42567   6.447  15.618   4.498
77748W        W42568  30.681  33.920   2.213
77749W        W42569  36.659  23.467  14.269
77750W        W42570   7.053  38.451  13.730
77751W        W42571  27.887  17.554   1.712
77752W        W42572  42.339  28.410   3.794
77753W        W42573  25.004  40.726  13.977
77754W        W42574  33.305   4.024   3.791
77755W        W42575  17.059  27.130  10.702
77756W        W42576   5.901  17.290  13.794
77757W        W42577  29.609  37.457  12.363
77758W        W42578  40.124  21.571  13.174
77759W        W42579  17.474  30.962  13.990
77760W        W42580  21.554   2.240  11.575
77761W        W42581  16.526  19.021   0.667
77762W        W42582  37.680  37.237   1.198
77763W        W42583  14.579   2.696  13.897
77764W        W42584  20.989  32.092   4.573
77765W        W42585  42.765  19.773   2.766
77766W        W42586  28.580  11.979  10.319
77767W        W42587   7.689  43.737  12.898
77768W        W42588   5.298  25.730   2.226
77769W        W42589  18.508  34.214   0.504
77770W        W42590  38.321   9.003   1.360
77771W        W42591  17.575   6.215   3.521
77772W        W42592  21.637  12.577   0.169
77773W        W42593  32.049  20.053  12.619
77774W        W42594  27.435  16.000   4.080
77775W        W42595  27.202  37.152   2.692
77776W        W42596  42.954   1.285  12.545
77777W        W42597  44.012  17.641  10.928
77778W        W42598  42.621  15.767  12.008
77779W        W42599  25.055  18.774  14.989
77780W        W42600  38.143  35.642   4.377
77781W        W42601  15.288   2.582   3.293
77782W        W42602  42.766  43.039  12.084
77783W        W42603  41.516  17.557   2.758
77784W        W42604  17.189  30.708   0.531
77785W        W42605  38.368  17.213   0.929
77786W        W42606  15.150  34.203  12.632
77787W        W42607  28.008  14.546  11.700
77788W        W42608  39.046  15.050  14.036
77789W        W42609  20.911  30.991  11.757
77790W        W42610  39.947   1.103   3.817
77791W        W42611  13.820  17.647   4.106
77792W        W42612   2.218  31.509   1.788
77793W        W42613  23.434  11.777  11.115
77794W        W42614  17.537  24.225   0.822
77795W        W42615   8.626  11.434  12.922
77796W        W42616  20.648   2.484   1.220
77797W        W42617  42.990  25.272  10.670
77798W        W42618   6.754  27.703   4.535
77799W        W42619   2.483  10.914  10.913
77800W        W42620  15.841  11.434   3.695
77801W        W42621  44.793   8.324  14.673
77802W        W42622  17.562  27.946  12.467
77803W        W42623   7.479   9.195  14.931
77804W        W42624  42.900  14.531   1.239
77805W        W42625  34.388   1.069   1.543
77806W        W42626  22.684  38.536   1.733
77807W        W42627  12.483  11.447   3.135
77808W        W42628  30.083   2.850   4.495
77809W        W42629  23.535   1.415   2.210
77810W        W42630  32.647   5.710  11.250
77811W        W42631  27.616  44.582  12.276
77812W        W42632  24.647  30.409  12.015
77813W        W42633  18.299  16.563   3.607
77814W        W42634  13.743  18.538   1.367
77815W        W42635  42.737   4.226  10.653
77816W        W42636   3.880   9.877   0.348
77817W        W42637  16.616  21.477   2.778
77818W        W42638  29.053  29.613   0.461
77819W        W42639  19.442  44.356  14.491
77820W        W42640  30.033  22.260  13.450
77821W        W42641  24.954  35.540  14.829
77822W        W42642  28.646   0.911  12.093
77823W        W42643  28.084   1.462  14.836
77824W        W42644  25.627  27.088   2.861
77825W        W42645  28.480  30.573  12.542
77826W        W42646   6.177  15.308   1.802
77827W        W42647  36.197  32.387  11.206
77828W        W42648  28.541  20.904   3.259
77829W        W42649  35.348  44.929   4.665
77830W        W42650  14.646  20.840   4.648
77831W        W42651  17.812  12.654   0.107
77832W        W42652  16.315   2.760   4.097
77833W        W42653  37.334  20.726  12.872
77834W        W42654  23.543  31.377  11.902
77835W        W42655  44.770  29.193   1.329
77836W        W42656  15.028  14.031   2.711
77837W        W42657  34.514  41.529  10.536
77838W        W42658  15.090  26.507   2.724
77839W        W42659  44.205  15.209  10.547
77840W        W42660  44.319   2.379  13.531
77841W        W42661  38.407  35.307  11.179
77842W        W42662  28.007  22.656  12.457
77843W        W42663   0.700  24.437  11.131
77844W        W42664  39.037  14.692  10.674
77845W        W42665  37.881   2.214   0.830
77846W        W42666   8.639   3.553  14.913
77847W        W42667  22.561  18.064  12.398
77848W        W42668  44.404   0.794   1.318
77849W        W42669  34.042  44.229  12.903
77850W        W42670  40.343  13.263  14.518
77851W        W42671  21.932  26.087  11.427
77852W        W42672  43.176  37.272  13.740
77853W        W42673  18.721  40.488  11.875
77854W        W42674  31.058  39.150  11.617
77855W        W42675   4.812  27.122   0.199
77856W        W42676  26.026  21.439   5.487
77857W        W42677  26.221  10.245  14.391
77858W        W42678  16.481  10.710  13.479
77859W        W42679  35.809  26.529   0.918
77860W        W42680   7.141  29.687   4.250
77861W        W42681  10.479  18.373  11.508
77862W        W42682  28.793  38.377  11.148
77863W        W42683  15.106  41.721   0.823
77864W        W42684  30.690   9.539  13.919
77865W        W42685  11.344  30.358  14.796
77866W        W42686  28.115  24.030  10.621
77867W        W42687  43.246  37.849   2.559
77868W        W42688  44.095  10.768   1.169
77869W        W42689  11.584  31.352  12.949
77870W        W42690   0.667  11.851  14.370
77871W        W42691   5.647  38.010  11.871
77872W        W42692   5.044  26.865   1.435
77873W        W42693   4.742  23.915   2.700
77874W        W42694  12.488  10.455   0.688
77875W        W42695  36.015   5.595  10.682
77876W        W42696   5.753   0.106  13.900
77877W        W42697   0.373  11.745  12.978
77878W        W42698  34.480  22.187   0.934
77879W        W42699  12.651  43.379   4.116
77880W        W42700  40.922  24.610  12.988
77881W        W42701  42.052  28.971  12.025
77882W        W42702  39.367  20.869  12.656
77883W        W42703  37.337   4.297   4.625
77884W        W42704  29.160  12.746  12.514
77885W        W42705  17.700  26.449  11.615
77886W        W42706  42.034  38.065  13.997
77887W        W42707   1.021  44.945   2.731
77888W        W42708  14.578  35.397   3.140
77889W        W42709  29.451  20.466   3.250
77890W        W42710  23.535  21.751   3.130
77891W        W42711  18.615  38.474  12.117
77892W        W42712  43.671  21.746  12.120
77893W        W42713  15.181  27.039   0.082
77894W        W42714  41.476  42.834  11.553
77895W        W42715   8.690  28.217  11.392
77896W        W42716  43.855  35.211   1.112
77897W        W42717   7.834   6.162   4.166
77898W        W42718   8.909   5.568  11.053
77899W        W42719  29.889  39.156   3.891
77900W        W42720  18.556  32.604  10.572
77901W        W42721  23.746  18.497   1.715
77902W        W42722   4.960  18.703   0.378
77903W        W42723  13.109  39.984  14.482
77904W        W42724   4.191   6.271   3.451
77905W        W42725  25.911   2.127   0.718
77906W        W42726   4.163  44.839   0.904
77907W        W42727  31.877  16.827  13.134
77908W        W42728  16.817   3.951  12.483
77909W        W42729  33.775   3.382   5.140
77910W        W42730  21.559  30.822  12.509
77911W        W42731  28.701  19.307   1.303
77912W        W42732  33.918  31.906  11.855
77913W        W42733  13.522  17.695  14.540
77914W        W42734  20.871  15.279   0.071
77915W        W42735  33.557   4.912   4.919
77916W        W42736  22.768  18.168   0.920
77917W        W42737  38.920  35.453   2.205
77918W        W42738  24.763  37.083  11.221
77919W        W42739  34.525  33.080  11.540
77920W        W42740  37.485  19.596  14.254
77921W        W42741  40.237  36.046   4.570
77922W        W42742  24.027  10.305  10.245
77923W        W42743   7.344   1.833   4.618
77924W        W42744  36.320  37.912   2.255
77925W        W42745   2.974  26.953  14.909
77926W        W42746  14.880  14.744   4.633
77927W        W42747  37.947  29.354   2.394
77928W        W42748  39.985  26.800   0.380
77929W        W42749  20.778  35.770   4.763
77930W        W42750   2.243   6.451   1.324
77931W        W42751   3.728  31.972  14.420
77932W        W42752  20.289  24.208   2.739
77933W        W42753  20.486   4.114   0.527
77934W        W42754  29.034  32.364   4.463
77935W        W42755  13.267  27.437  11.665
77936W        W42756  12.582  41.894  13.069
77937W        W42757   1.954  38.914  11.244
77938W        W42758   9.868  36.577  13.320
77939W        W42759   8.679  31.473  10.090
77940W        W42760   3.298  38.297  11.469
77941W        W42761  36.043   5.439   2.052
77942W        W42762  42.856  31.391  12.450
77943W        W42763  43.818  36.411   1.292
77944W        W42764  41.240  20.290  10.926
77945W        W42765  13.844  21.576  12.354
77946W        W42766  22.072   6.274   3.182
77947W        W42767  12.968   2.513  11.113
77948W        W42768  14.833  41.776   4.966
77949W        W42769  18.540  19.310  10.616
77950W        W42770  40.261  22.293   0.736
77951W        W42771   4.942   4.363   2.816
77952W        W42772  25.639  37.114   3.235
77953W        W42773  15.707   8.836   5.139
77954W        W42774  44.284   2.675   1.925
77955W        W42775  21.811  38.203   5.431
77956W        W42776  23.111  14.729  11.887
77957W        W42777  35.030  40.480   1.190
77958W        W42778  22.464  30.366  14.439
77959W        W42779  30.801  22.467   4.127
77960W        W42780   9.001  36.156  10.282
77961W        W42781  42.608  37.983   1.423
77962W        W42782  12.332  37.575   3.712
77963W        W42783  44.976  24.785  13.500
77964W        W42784   9.571  12.142   1.745
77965W        W42785  13.821   9.907  14.887
77966W        W42786  24.768   9.898   0.848
77967W        W42787  12.664   5.753  10.996
77968W        W42788  19.782   7.717  11.172
77969W        W42789  27.857   2.854  14.765
77970W        W42790  38.004  23.498   0.836
77971W        W42791  37.971  40.696   4.622
77972W        W42792  22.727   4.346  11.470
77973W        W42793  17.841  24.313   3.674
77974W        W42794  26.931  25.449  13.615
77975W        W42795   0.780  39.865   3.708
77976W        W42796  23.533  34.972   3.291
77977W        W42797   9.357  34.583  12.300
77978W        W42798  19.149  11.277  13.503
77979W        W42799   5.530  34.133   4.948
77980W        W42800  38.800  22.445   0.854
77981W        W42801   7.952  24.346  10.350
77982W        W42802  33.396  13.179   4.649
77983W        W42803  24.288  31.195  14.776
77984W        W42804   0.736  43.289   3.195
77985W        W42805  29.573   2.483  14.839
77986W        W42806  21.195  37.975   4.633
77987W        W42807  34.379  13.177   2.305
77988W        W42808  35.406  29.688   0.420
77989W        W42809  20.107  24.752  14.020
77990W        W42810  33.888   7.771   2.803
77991W        W42811  30.336  30.535  13.331
77992W        W42812   1.854  10.894  14.797
77993W        W42813  42.797  18.537   4.291
77994W        W42814  26.374  21.991   2.171
77995W        W42815  40.073   8.076   2.981
77996W        W42816  28.725  18.355  13.478
77997W        W42817   9.923  25.481  14.580
77998W        W42818  32.629  29.482   2.203
77999W        W42819  32.122  44.491  12.395
78000W        W42820  21.344  24.356  11.557
78001W        W42821  26.271   7.349  13.035
78002W        W42822  35.949  33.250   3.820
78003W        W42823   3.782   8.480  13.562
78004W        W42824   1.819   8.911  10.978
78005W        W42825  39.805  32.422   4.911
78006W        W42826  38.661  14.505   9.737
78007W        W42827  41.766  22.016   3.315
78008W        W42828   2.835   1.424  11.064
78009W        W42829  12.559  31.249   2.221
78010W        W42830  38.333  29.974   0.331
78011W        W42831  32.340   1.552  12.991
78012W        W42832  30.924  15.712   4.963
78013W        W42833  26.146   9.832  13.507
78014W        W42834  17.548  34.911   0.859
78015W        W42835  27.777  10.356  12.759
78016W        W42836  23.241  12.727   2.741
78017W        W42837  12.342  23.686  13.921
78018W        W42838  21.878   2.520  12.871
78019W        W42839  33.483  31.317  12.427
78020W        W42840  17.631   8.809  11.544
78021W        W42841  26.159  17.682   0.041
78022W        W42842  42.986  37.704   5.016
78023W        W42843  39.441  39.042  13.189
78024W        W42844  20.047  31.418   2.145
78025W        W42845  21.679  32.893  10.602
78026W        W42846   2.825  17.037  13.758
78027W        W42847  26.757  24.629  13.106
78028W        W42848  10.418  29.515   4.112
78029W        W42849  42.401   1.526   0.171
78030W        W42850   7.306   0.371   3.290
78031W        W42851  41.425  16.619  13.266
78032W        W42852  21.368  28.203  12.944
78033W        W42853   2.969  42.942   3.038
78034W        W42854  15.236  10.944  11.668
78035W        W42855   9.824  33.812   1.944
78036W        W42856  35.433  41.683   3.233
78037W        W42857  34.924   3.757   2.738
78038W        W42858  32.615   3.921  12.836
78039W        W42859  26.106   3.353  11.644
78040W        W42860  21.874  30.458   1.352
78041W        W42861   1.554  37.320   0.732
78042W        W42862  39.465  41.975   2.662
78043W        W42863  28.618   1.948   3.354
78044W        W42864  35.920   6.954  13.315
78045W        W42865  13.283  12.212   2.343
78046W        W42866  24.670   6.833  14.532
78047W        W42867  27.986  14.754  12.576
78048W        W42868  40.331  13.419  10.818
78049W        W42869   1.687   8.646  13.088
78050W        W42870  39.010  37.953   3.559
78051W        W42871  25.528  39.335   5.128
78052W        W42872  26.042  41.950   3.384
78053W        W42873  31.672   9.193   5.000
78054W        W42874  30.134  29.316  14.437
78055W        W42875  34.447  44.857   3.101
78056W        W42876   5.741  43.314  12.483
78057W        W42877   8.611  19.562   1.211
78058W        W42878   1.242   6.956  14.911
78059W        W42879  42.484   4.780  14.239
78060W        W42880  36.835  38.792   2.232
78061W        W42881  19.208  10.447   2.680
78062W        W42882  36.755  42.967  11.475
78063W        W42883   9.281   7.116  13.392
78064W        W42884  11.761  37.597   1.235
78065W        W42885   9.241  35.073   1.193
78066W        W42886  31.485  23.111   2.244
78067W        W42887  43.751  41.497   4.940
78068W        W42888  26.915  14.143  13.240
78069W        W42889  44.888  11.286  11.596
78070W        W42890  17.347  25.614  11.588
78071W        W42891   4.978  16.699   2.335
78072W        W42892  10.060  31.513   1.674
78073W        W42893  35.001   3.719  13.274
78074W        W42894  37.966  27.088   0.312
78075W        W42895   4.349  29.957   0.444
78076W        W42896  34.462  41.018   0.510
78077W        W42897  43.999  26.811  10.376
78078W        W42898  32.644  43.276   4.565
78079W        W42899  26.784  40.956   3.120
78080W        W42900  20.930  16.580   3.268
78081W        W42901  27.461  29.525   2.329
78082W        W42902  42.910   7.757   2.290
78083W        W42903  42.975  10.762   2.864
78084W        W42904  42.199  36.721   0.922
78085W        W42905  10.570  38.813  12.572
78086W        W42906   9.011  21.262  13.301
78087W        W42907  43.091  43.077   5.110
78088W        W42908  16.238  38.997  11.109
78089W        W42909   0.769  13.639  12.012
78090W        W42910  42.262   8.912   1.699
78091W        W42911  38.735  44.488  13.844
78092W        W42912  19.281   7.593  11.903
78093W        W42913   9.394  11.606  13.894
78094W        W42914  20.565  23.033  11.559
78095W        W42915  21.511  29.673  11.729
78096W        W42916  30.052  38.910   2.456
78097W        W42917  14.753  38.547   1.333
78098W        W42918   8.180  20.074   3.304
78099W        W42919   5.173   6.319   0.979
78100W        W42920  21.085  25.581   3.706
78101W        W42921  38.463  26.147   1.240
78102W        W42922   5.373  17.051  10.173
78103W        W42923   4.476   5.886   4.660
78104W        W42924   2.444  22.016  11.993
78105W        W42925  16.568  36.011  12.400
78106W        W42926  43.460  27.505  14.526
78107W        W42927   4.507  10.109   2.382
78108W        W42928   4.755  19.020  10.833
78109W        W42929  11.241  32.705   3.335
78110W        W42930  12.233  36.640  12.999
78111W        W42931  28.560   9.216  11.099
78112W        W42932  30.641  15.159  13.735
78113W        W42933  43.822  42.305  13.751
78114W        W42934  36.878   6.716  14.879
78115W        W42935  14.932   9.916  10.836
78116W        W42936  24.997   8.300   2.232
78117W        W42937  14.414   5.959  14.377
78118W        W42938  17.759  27.030   1.239
78119W        W42939  43.278  29.102  12.087
78120W        W42940  15.255  22.996   3.223
78121W        W42941  30.006  34.811   2.175
78122W        W42942   9.970  36.420  10.658
78123W        W42943  27.111  15.830  12.355
78124W        W42944  29.006   4.891   2.765
78125W        W42945   6.956  29.053   4.819
78126W        W42946  19.874  10.400  10.441
78127W        W42947  24.931  17.719  12.008
78128W        W42948  43.461  14.177  12.150
78129W        W42949  19.669  15.883  11.334
78130W        W42950  38.446  12.865   4.952
78131W        W42951  30.774  25.476   1.447
78132W        W42952  36.169  22.931  12.376
78133W        W42953  23.758  10.458   5.348
78134W        W42954  43.842  35.347   4.087
78135W        W42955  30.020   9.525   0.656
78136W        W42956   1.235  28.928  11.634
78137W        W42957   4.239   3.367   2.951
78138W        W42958  12.366  22.084  11.032
78139W        W42959  28.760   3.459  12.177
78140W        W42960   8.702  31.693  13.445
78141W        W42961  22.138  43.514  12.353
78142W        W42962  20.729   3.023  13.847
78143W        W42963  44.118  29.375   1.327
78144W        W42964  12.271  25.933   1.810
78145W        W42965  35.063  13.173   1.838
78146W        W42966  12.085   8.937   3.753
78147W        W42967   9.155  21.166  14.713
78148W        W42968  27.422  32.711   4.614
78149W        W42969  37.039   7.364   9.700
78150W        W42970  36.530  31.598   2.012
78151W        W42971  15.321  27.470   4.547
78152W        W42972  12.162  34.973   2.441
78153W        W42973   9.852   0.710  14.982
78154W        W42974  19.248  20.979  12.204
78155W        W42975  18.781  32.001  10.563
78156W        W42976   5.067  27.682   1.362
78157W        W42977  18.054  42.830  11.409
78158W        W42978   1.558  15.774   0.522
78159W        W42979  20.325  34.553   1.894
78160W        W42980   1.404  33.216  12.114
78161W        W42981  19.624  11.311  13.298
78162W        W42982  39.833  10.148   1.732
78163W        W42983  14.713  17.899  13.348
78164W        W42984   3.936  18.407  14.037
78165W        W42985  26.268  26.678  12.929
78166W        W42986  24.408  32.637  12.898
78167W        W42987  28.922  43.396  11.663
78168W        W42988  38.286  32.907  11.869
78169W        W42989  29.535  27.503   4.117
78170W        W42990   0.382  28.260  11.201
78171W        W42991  19.448  19.378   3.206
78172W        W42992   1.976  43.240   3.890
78173W        W42993  29.591  10.605   3.384
78174W        W42994  13.719  13.344  13.983
78175W        W42995  35.379  16.216  14.335
78176W        W42996   9.647  35.759   1.737
78177W        W42997  38.572  27.711  10.900
78178W        W42998  28.077  37.563   2.370
78179W        W42999  18.061   8.346   4.582
78180W        W43000   5.203  36.436  12.661
78181W        W43001  28.669  16.304   0.125
78182W        W43002  18.140   4.388  13.069
78183W        W43003  38.192  39.853   1.843
78184W        W43004  37.636   8.295  11.537
78185W        W43005  27.261  31.633  11.003
78186W        W43006  18.114   2.423  14.513
78187W        W43007  17.758  28.197   0.855
78188W        W43008  44.464  32.989  11.654
78189W        W43009   6.126   0.394   4.128
78190W        W43010  23.700  18.751   1.240
78191W        W43011  37.409  30.495   3.499
78192W        W43012  40.417  41.751   4.971
78193W        W43013  15.200  44.039  13.998
78194W        W43014  21.106  23.802  12.071
78195W        W43015  28.477  40.533  11.519
78196W        W43016  41.543  21.753  14.364
78197W        W43017  25.164  12.946   2.614
78198W        W43018   7.896   1.793   4.228
78199W        W43019  31.011  34.910   3.570
78200W        W43020  16.807  32.233   0.538
78201W        W43021  10.682  18.757  13.416
78202W        W43022  29.002  13.320   1.168
78203W        W43023  21.545  30.933   0.560
78204W        W43024  14.379  32.931   3.263
78205W        W43025  30.135   0.728  14.357
78206W        W43026  28.141  32.851   3.502
78207W        W43027  14.677  13.148   0.893
78208W        W43028   1.433  42.484  14.937
78209W        W43029  23.476  20.615   0.058
78210W        W43030  18.538  29.518  11.634
78211W        W43031   3.007   6.229   0.250
78212W        W43032  38.971  18.214   2.795
78213W        W43033  14.138  20.184  10.644
78214W        W43034  32.690  43.036  13.854
78215W        W43035  22.133  18.384   3.661
78216W        W43036  20.722   9.616  13.954
78217W        W43037   6.195  29.597  14.435
78218W        W43038  42.569  31.089   4.741
78219W        W43039  35.326  25.482   2.465
78220W        W43040  39.836  14.395   3.693
78221W        W43041   3.998  39.332   4.067
78222W        W43042  38.024  24.634  13.884
78223W        W43043  32.335   4.908  12.112
78224W        W43044  11.976  18.657  10.695
78225W        W43045   0.057  21.623   3.803
78226W        W43046  13.785   5.306  10.707
78227W        W43047   4.309  29.917  11.074
78228W        W43048  40.421  31.981  12.334
78229W        W43049   3.241  44.417   0.316
78230W        W43050  29.400  41.956   3.750
78231W        W43051  27.773   4.384   3.042
78232W        W43052   4.169  11.719   1.503
78233W        W43053  13.564  38.065  11.184
78234W        W43054  37.332  38.940   2.275
78235W        W43055   7.612  41.406  11.981
78236W        W43056  15.151  41.318   3.786
78237W        W43057   2.646   8.181   2.615
78238W        W43058  17.359  33.676   2.850
78239W        W43059  38.389  24.989   1.545
78240W        W43060  22.578  40.241   4.146
78241W        W43061  36.064  15.141   0.470
78242W        W43062  15.807  29.023   0.646
78243W        W43063  41.220   1.057   1.709
78244W        W43064  15.746  12.098   4.942
78245W        W43065  20.691   8.389   0.311
78246W        W43066  22.885  39.897  13.521
78247W        W43067  27.154  13.389   3.237
78248W        W43068  33.077   9.773   3.751
78249W        W43069  38.399  40.339   4.535
78250W        W43070  42.346  23.213   4.439
78251W        W43071  38.515   2.697   1.725
78252W        W43072  25.285  10.218   4.153
78253W        W43073  22.037  11.170   1.940
78254W        W43074  31.247  29.716   2.811
78255W        W43075  15.759  27.792  13.880
78256W        W43076  29.055  42.907   3.833
78257W        W43077  21.586  20.105  12.810
78258W        W43078  39.894  22.626  11.643
78259W        W43079   1.888  23.011  12.532
78260W        W43080   3.249  14.692   2.276
78261W        W43081  14.631  30.201   2.202
78262W        W43082  25.597   8.913  10.345
78263W        W43083  43.907  14.414   3.077
78264W        W43084   2.253  41.242   0.359
78265W        W43085  42.139  40.786  11.355
78266W        W43086  28.476   4.273   0.820
78267W        W43087  36.002  19.393  12.876
78268W        W43088  33.118  24.100  10.928
78269W        W43089   9.175   3.374  13.761
78270W        W43090  25.248  33.354  14.436
78271W        W43091  31.964  19.796   3.281
78272W        W43092  21.434   7.769  12.908
78273W        W43093  12.273   2.459   2.239
78274W        W43094  12.326  44.446  10.408
78275W        W43095   9.931  24.536  11.413
78276W        W43096   1.899  19.158   1.533
78277W        W43097  35.887  15.342   2.727
78278W        W43098  19.274  38.091   1.883
78279W        W43099  10.892  24.885   4.663
78280W        W43100   8.881  37.580   0.685
78281W        W43101  12.858  44.731   0.932
78282W        W43102  30.869  28.107   0.700
78283W        W43103  19.172  18.543   4.789
78284W        W43104  37.148   6.794  12.843
78285W        W43105  10.735   0.228   2.678
78286W        W43106   9.199   4.461  11.972
78287W        W43107  36.470  35.489  10.982
78288W        W43108  42.473  10.653   4.129
78289W        W43109  43.239  38.970   2.704
78290W        W43110  23.635   2.983   4.804
78291W        W43111  34.966  43.127   3.202
78292W        W43112  16.626  18.872  10.739
78293W        W43113  23.640  38.569  11.500
78294W        W43114   4.131  17.636   1.466
78295W        W43115  35.713  17.673   1.871
78296W        W43116   1.447   0.302   0.101
78297W        W43117  24.653  21.739  12.068
78298W        W43118  36.538   1.370   4.176
78299W        W43119  33.943  37.752  11.353
78300W        W43120  39.043  12.386   1.293
78301W        W43121  35.320  31.427   0.325
78302W        W43122   1.303  20.796  12.540
78303W        W43123  15.268  31.482   2.223
78304W        W43124  19.582  44.272  13.891
78305W        W43125  35.524  11.212   4.093
78306W        W43126   8.343  16.461   2.310
78307W        W43127  41.773  43.982   3.083
78308W        W43128  29.974  20.650  14.285
78309W        W43129  22.984  34.267  13.456
78310W        W43130  14.883  33.719  10.216
78311W        W43131  14.741  42.045  12.018
78312W        W43132  23.865   3.793  13.067
78313W        W43133  17.783   4.244  10.804
78314W        W43134   8.097  34.427  14.693
78315W        W43135  44.685   8.242   2.777
78316W        W43136  24.083  15.913  10.767
78317W        W43137  32.402  26.584   3.526
78318W        W43138   7.389  39.010   0.889
78319W        W43139  25.088   7.666   3.632
78320W        W43140  14.437  16.257   1.432
78321W        W43141  18.054   6.662   1.398
78322W        W43142   6.858  37.011  12.943
78323W        W43143  11.226  12.373  13.544
78324W        W43144  35.430  29.349   3.115
78325W        W43145  41.917  33.428  14.757
78326W        W43146  20.673  25.971   2.826
78327W        W43147  13.360   4.932   1.654
78328W        W43148  44.215  30.127   0.034
78329W        W43149  23.188  33.061   1.248
78330W        W43150  20.590   1.057   2.242
78331W        W43151  39.621  37.398   0.310
78332W        W43152  28.051  37.013  12.049
78333W        W43153  19.087   0.975  10.796
78334W        W43154  16.012  10.653  12.027
78335W        W43155   3.478   8.712   4.965
78336W        W43156  38.525  43.531   1.630
78337W        W43157  12.269  40.285  11.096
78338W        W43158   7.263  27.054   1.000
78339W        W43159  13.245  29.987  11.718
78340W        W43160  18.218   0.709   1.243
78341W        W43161  33.407  44.416   2.850
78342W        W43162  16.952  32.087   3.136
78343W        W43163  13.785  15.631  12.988
78344W        W43164  41.728  24.283   3.621
78345W        W43165  35.565  11.516   2.745
78346W        W43166   7.249  41.976  11.584
78347W        W43167  30.106  14.431   3.346
78348W        W43168  32.052   6.270   0.869
78349W        W43169  24.765  20.177  14.858
78350W        W43170  14.353  19.131  11.614
78351W        W43171   5.644  32.191  13.878
78352W        W43172   8.479   7.913  14.356
78353W        W43173   5.423  30.024  12.884
78354W        W43174  13.634  39.100   1.933
78355W        W43175  30.456  25.104   1.289
78356W        W43176  27.653  20.548  11.736
78357W        W43177   6.999   5.461  14.769
78358W        W43178   2.013  18.562   2.738
78359W        W43179  13.776   8.804  11.532
78360W        W43180   2.868  38.165   4.794
78361W        W43181  18.158  10.407   0.338
78362W        W43182  14.569  36.567  14.450
78363W        W43183   6.957  22.553   1.755
78364W        W43184  35.405  19.455   4.541
78365W        W43185  33.627   0.197  13.936
78366W        W43186  16.736   9.877  11.648
78367W        W43187  14.171  21.975   0.478
78368W        W43188  19.361  14.065  11.779
78369W        W43189   3.260  12.882   3.785
78370W        W43190  26.584   1.709   1.987
78371W        W43191   9.901  17.904   3.409
78372W        W43192  17.284  29.997   5.027
78373W        W43193  29.431  44.006   4.285
78374W        W43194  44.918  26.738  11.132
78375W        W43195  42.506  30.939   3.383
78376W        W43196  14.418  23.014  14.345
78377W        W43197  25.633   8.329   4.590
78378W        W43198   5.647  21.697  11.921
78379W        W43199   3.831  12.333   3.134
78380W        W43200  40.834  33.828   1.780
78381W        W43201  31.040  12.046  14.892
78382W        W43202  21.678  38.417   3.978
78383W        W43203  14.462  15.766  14.667
78384W        W43204  29.114   2.654  13.413
78385W        W43205  43.139  28.376  14.796
78386W        W43206  16.520   4.929  14.969
78387W        W43207  32.695  30.999   4.379
78388W        W43208  13.064  43.968  11.657
78389W        W43209  37.942  44.902   3.548
78390W        W43210  19.315  13.648  14.086
78391W        W43211  14.875  27.153   0.485
78392W        W43212  26.409  42.538  12.661
78393W        W43213  17.849  38.784   9.863
78394W        W43214  24.458  21.192  14.368
78395W        W43215  25.138  41.033  10.604
78396W        W43216  15.538   9.943  14.696
78397W        W43217  18.647  22.055   2.232
78398W        W43218   9.627  30.145  10.991
78399W        W43219   6.279  13.670   1.476
78400W        W43220  12.609  37.967  12.161
78401W        W43221  19.807  10.279   0.197
78402W        W43222  28.113  21.202  11.356
78403W        W43223  13.210  12.278   0.034
78404W        W43224  19.247  21.537   0.875
78405W        W43225  35.427  16.514   1.285
78406W        W43226  24.050   2.705  11.038
78407W        W43227  26.215  34.871  12.991
78408W        W43228  15.294  18.907  11.499
78409W        W43229  42.058  24.572   1.199
78410W        W43230  21.499   4.443  10.868
78411W        W43231   9.849  42.436   4.518
78412W        W43232   0.302  32.028   2.518
78413W        W43233   3.765  29.280  11.294
78414W        W43234  41.235  39.968   4.597
78415W        W43235  44.883  14.756   1.828
78416W        W43236  20.324  42.536   3.177
78417W        W43237  30.377   8.509   2.221
78418W        W43238  13.197   8.669  14.946
78419W        W43239  37.981  21.571   2.786
78420W        W43240  10.766  23.147   2.499
78421W        W43241  23.056  20.964  11.530
78422W        W43242  25.200  20.190  12.664
78423W        W43243  44.939  24.173   1.294
78424W        W43244  37.765  30.104  14.603
78425W        W43245  38.312  26.473   0.852
78426W        W43246  11.715  16.089  13.504
78427W        W43247  11.753  40.598  13.136
78428W        W43248   9.402  22.936   3.654
78429W        W43249  29.176  17.736  10.731
78430W        W43250  26.516  24.021   0.706
78431W        W43251  44.770   4.858   3.482
78432W        W43252  28.665  31.447  14.873
78433W        W43253  22.281  27.228  13.509
78434W        W43254  20.201   1.181  14.055
78435W        W43255  14.246  27.905   2.635
78436W        W43256  27.935  11.924   1.295
78437W        W43257  27.750   4.112   3.645
78438W        W43258  43.385   7.946  14.939
78439W        W43259   0.551   5.162  11.092
78440W        W43260   5.309  30.908   1.583
78441W        W43261  14.656   7.930   2.299
78442W        W43262  26.044  33.855  14.527
78443W        W43263   1.894   5.106   0.874
78444W        W43264  25.600  39.291  11.445
78445W        W43265  16.544  18.208   2.788
78446W        W43266   0.854  29.992   4.417
78447W        W43267  20.135  42.425  12.524
78448W        W43268  14.080  40.002   0.908
78449W        W43269  34.358  32.428   0.526
78450W        W43270  36.879  43.999   0.446
78451W        W43271  18.182   3.567   4.625
78452W        W43272   6.429  14.335   2.338
78453W        W43273   0.912  31.468  12.053
78454W        W43274   6.905  37.505   1.974
78455W        W43275  36.901   1.536  10.417
78456W        W43276  33.992   3.536   4.716
78457W        W43277  41.993  35.378  12.628
78458W        W43278   7.181  17.309  13.785
78459W        W43279  27.032  12.728  13.581
78460W        W43280  18.213   4.857   0.314
78461W        W43281  28.591  12.602   2.470
78462W        W43282  26.034  15.328  11.548
78463W        W43283  23.229   1.760  12.831
78464W        W43284  38.551  40.797  12.016
78465W        W43285  39.259  36.412  12.886
78466W        W43286  38.011   5.867  12.071
78467W        W43287  20.580  38.064  13.049
78468W        W43288  18.704  11.741  12.946
78469W        W43289  41.987  23.043   3.633
78470W        W43290  22.107  33.498  11.160
78471W        W43291  33.943  29.237  12.403
78472W        W43292  44.840  22.044  14.841
78473W        W43293  14.868  21.277   4.518
78474W        W43294  30.097  21.460   4.249
78475W        W43295  12.765  20.446  13.008
78476W        W43296  34.402   9.830   9.783
78477W        W43297  12.411  10.442  13.997
78478W        W43298  42.232  18.102  14.383
78479W        W43299  17.273  40.945   2.623
78480W        W43300  18.588   6.645  11.173
78481W        W43301  17.564   6.763   4.730
78482W        W43302   9.225  30.705   3.277
78483W        W43303   9.139  15.972  12.634
78484W        W43304   1.663   3.761  12.057
78485W        W43305  29.445  44.554   1.517
78486W        W43306  19.452   6.710   1.519
78487W        W43307  17.179  41.297  10.218
78488W        W43308   9.305  34.958   2.832
78489W        W43309  39.393  26.489   3.326
78490W        W43310   0.552  42.323  14.347
78491W        W43311  12.748  38.378   0.875
78492W        W43312  23.261  11.877  13.435
78493W        W43313  36.518   8.712   0.505
78494W        W43314   1.198  30.826  11.471
78495W        W43315  38.675  24.039  14.802
78496W        W43316   3.349  32.150   1.746
78497W        W43317  17.466  10.479   1.404
78498W        W43318  23.791  15.865   1.242
78499W        W43319   0.847  16.874  14.315
78500W        W43320  35.423   3.413  11.118
78501W        W43321   1.430  24.591   2.005
78502W        W43322  11.661  32.462  13.253
78503W        W43323  23.710  42.236   4.132
78504W        W43324  40.768  39.998   4.856
78505W        W43325  26.961  36.380   1.537
78506W        W43326   0.309  21.110   2.423
78507W        W43327  36.347  42.406   0.472
78508W        W43328  13.905   4.131  12.016
78509W        W43329  20.038   8.922  12.041
78510W        W43330  37.058  15.612  11.876
78511W        W43331  43.186   0.470   0.326
78512W        W43332  30.987  18.216  14.500
78513W        W43333  21.634  16.053   3.785
78514W        W43334   9.648   1.735   4.495
78515W        W43335   6.764  19.156   0.432
78516W        W43336  37.412  30.072   3.907
78517W        W43337  16.196  22.137  11.409
78518W        W43338  32.671  41.200  10.815
78519W        W43339  38.950   0.838  10.938
78520W        W43340  27.957  23.582  13.451
78521W        W43341  33.665   2.645  12.152
78522W        W43342  35.012  14.855  11.498
78523W        W43343  12.183   6.757   0.515
78524W        W43344  33.586  11.099   2.175
78525W        W43345  43.374  12.803  12.836
78526W        W43346   9.648  25.778  11.446
78527W        W43347   7.474  37.892   2.595
78528W        W43348  32.065  28.652   0.381
78529W        W43349   3.402  20.333   5.016
78530W        W43350  10.348  35.129   2.009
78531W        W43351  14.620  16.823  14.272
78532W        W43352  13.308  41.520  12.920
78533W        W43353   6.812  33.706  14.972
78534W        W43354  21.139   5.957  12.075
78535W        W43355   1.717  44.340   1.842
78536W        W43356  25.185  13.604   3.270
78537W        W43357  35.904  30.732  14.819
78538W        W43358   1.666  40.402   4.615
78539W        W43359  13.258  29.477  11.136
78540W        W43360  28.912  24.526  12.445
78541W        W43361  15.388  27.943  14.451
78542W        W43362  42.470   1.265   3.716
78543W        W43363   9.150  35.475  11.914
78544W        W43364  20.088  31.616  11.469
78545W        W43365   0.549   6.163   0.759
78546W        W43366  27.672   7.693   1.380
78547W        W43367  11.313  10.292   1.798
78548W        W43368  43.867  33.029  10.822
78549W        W43369  20.303  13.966   9.674
78550W        W43370  19.714  42.783  13.778
78551W        W43371  33.513   2.689   4.588
78552W        W43372  34.344  32.744  10.622
78553W        W43373  40.593  19.150  11.867
78554W        W43374  37.008   0.838   0.447
78555W        W43375   0.623  19.919  11.041
78556W        W43376   2.780  32.903   3.434
78557W        W43377  11.693   9.820   3.080
78558W        W43378  30.221  24.657   1.211
78559W        W43379  37.326  29.629  10.738
78560W        W43380  20.175   8.492  11.739
78561W        W43381  32.887  12.268   3.805
78562W        W43382   3.595  21.609   0.294
78563W        W43383  44.023  40.654   4.003
78564W        W43384  27.093  20.750   0.017
78565W        W43385  41.625  16.305   1.416
78566W        W43386  38.776  27.636   4.447
78567W        W43387  31.292  30.848  14.361
78568W        W43388   0.448  10.846  11.984
78569W        W43389  34.515  15.632  12.976
78570W        W43390  41.902  41.010   1.233
78571W        W43391  12.235  19.256   1.322
78572W        W43392  43.054  10.670  12.828
78573W        W43393  38.236  30.725  11.076
78574W        W43394  15.620   1.819  13.470
78575W        W43395  36.840  38.341  13.906
78576W        W43396  32.628  17.674  14.802
78577W        W43397   2.878  35.641   0.329
78578W        W43398  12.597   6.757  12.607
78579W        W43399  27.852  40.317  10.486
78580W        W43400   5.466  39.014  12.911
78581W        W43401  40.508  19.080  13.072
78582W        W43402  43.782  32.137   2.201
78583W        W43403  31.479  11.790  14.074
78584W        W43404  24.182  19.726  12.003
78585W        W43405  11.314  13.567  13.894
78586W        W43406  39.313  24.930   1.134
78587W        W43407  18.699   6.871  12.112
78588W        W43408   2.430  35.353   0.254
78589W        W43409  43.482   7.780   3.244
78590W        W43410  26.215  41.333  12.400
78591W        W43411  27.125   6.692  11.224
78592W        W43412  22.833  10.138   5.363
78593W        W43413  13.864  44.303  10.267
78594W        W43414   5.690  17.668  10.715
78595W        W43415   0.934  16.612   0.281
78596W        W43416  29.113  25.983  11.212
78597W        W43417  16.748  17.548   2.344
78598W        W43418   7.683  23.071   2.158
78599W        W43419  23.222   6.298   0.520
78600W        W43420  21.960  25.480  13.817
78601W        W43421   0.786   5.382   1.758
78602W        W43422  19.043  36.004  11.803
78603W        W43423  39.256  23.062  12.629
78604W        W43424  10.151   5.119  13.221
78605W        W43425  15.612  27.178   2.266
78606W        W43426  27.966  21.848   1.694
78607W        W43427  30.708  20.105  11.242
78608W        W43428   4.246  15.995  12.106
78609W        W43429  41.708  40.875  11.925
78610W        W43430   8.454   5.258   4.641
78611W        W43431   0.770   1.225   1.419
78612W        W43432  32.968  12.317   4.641
78613W        W43433  27.463  23.120   0.402
78614W        W43434  16.849  43.968  10.198
78615W        W43435  34.489   6.767  11.449
78616W        W43436  14.181  44.086  14.333
78617W        W43437   5.909  10.092   1.939
78618W        W43438  12.113  17.103   4.659
78619W        W43439  22.716  35.960  10.842
78620W        W43440   9.727   0.894   4.005
78621W        W43441  26.220  12.405   0.433
78622W        W43442  23.735  11.127  11.398
78623W        W43443   5.299  28.104   1.211
78624W        W43444  31.517  13.961  12.132
78625W        W43445   5.168  44.495  11.560
78626W        W43446  24.512  32.647  11.642
78627W        W43447  44.195   4.721  12.856
78628W        W43448  22.742  24.752   0.533
78629W        W43449  17.532  22.895  14.365
78630W        W43450  31.377  15.821  13.400
78631W        W43451  27.043   5.578   3.093
78632W        W43452  25.230  19.440   4.127
78633W        W43453  15.338  38.408  14.493
78634W        W43454   5.357  33.153   4.320
78635W        W43455   7.171  15.290   4.938
78636W        W43456  27.587  14.191  13.851
78637W        W43457   5.210  41.911   1.433
78638W        W43458  35.046   5.409  12.889
78639W        W43459  10.302  42.443  11.391
78640W        W43460   1.394  14.726  12.357
78641W        W43461  12.238  21.739  14.485
78642W        W43462  44.954  41.756   0.466
78643W        W43463   0.376  20.571   3.285
78644W        W43464  10.845  38.946  11.940
78645W        W43465  40.056  32.466   1.168
78646W        W43466  20.658  33.382  10.514
78647W        W43467   2.240   4.345  10.689
78648W        W43468  10.147  41.977   0.898
78649W        W43469  10.272  13.828   2.583
78650W        W43470   2.463  37.073   1.370
78651W        W43471  40.856  34.504   4.753
78652W        W43472  39.246  41.190  14.832
78653W        W43473   9.603  39.793  13.452
78654W        W43474  30.599  18.092   2.696
78655W        W43475  41.438  37.384   0.020
78656W        W43476  41.384  44.387  14.644
78657W        W43477  20.136  30.102  12.271
78658W        W43478  20.942  22.770   4.722
78659W        W43479   3.756  33.646  13.810
78660W        W43480  34.614  44.121  14.497
78661W        W43481  30.412  11.786   4.623
78662W        W43482  28.454  29.451   3.243
78663W        W43483  13.534   3.631  11.110
78664W        W43484  27.738  40.784   4.611
78665W        W43485  42.341  36.493  12.443
78666W        W43486  21.572  38.214   0.009
78667W        W43487   0.719   7.294   2.901
78668W        W43488  43.851  20.414   3.944
78669W        W43489  22.271  23.276  14.739
78670W        W43490  11.883  22.500   4.837
78671W        W43491  29.129  33.401  11.236
78672W        W43492  36.820  24.112   2.687
78673W        W43493  39.296  34.977  14.834
78674W        W43494  35.242   8.927   4.989
78675W        W43495   0.426  22.191  14.022
78676W        W43496  10.832  34.370   3.689
78677W        W43497   3.464  15.204   4.768
78678W        W43498  30.493  28.368  14.248
78679W        W43499  20.793   4.368   2.179
78680W        W43500  19.150  23.205  11.936
78681W        W43501  38.248  32.968   3.396
78682W        W43502  18.714  33.665   1.345
78683W        W43503  21.076  15.347   1.944
78684W        W43504  19.595  13.884   5.083
78685W        W43505  10.100   9.224  13.203
78686W        W43506  26.086  30.068  11.340
78687W        W43507   6.427  43.995  12.068
78688W        W43508  31.201   4.436  13.362
78689W        W43509  20.731  43.276   2.250
78690W        W43510  32.491  30.909   2.672
78691W        W43511  22.764  40.061   3.692
78692W        W43512   4.180  11.942  10.704
78693W        W43513  43.598  22.526   1.097
78694W        W43514  44.812  43.666   3.233
78695W        W43515  14.778   9.280   4.314
78696W        W43516   1.281  28.443   0.962
78697W        W43517  22.894  22.038  14.478
78698W        W43518  22.281  10.961   4.555
78699W        W43519  13.827  30.560  13.750
78700W        W43520  15.155  36.452   4.113
78701W        W43521  31.455  16.122  14.251
78702W        W43522  38.766  37.259  13.932
78703W        W43523  23.176  11.105  10.652
78704W        W43524   0.934  37.630  14.877
78705W        W43525   8.282  23.038  11.165
78706W        W43526  32.480   6.324  11.390
78707W        W43527  40.960  22.004   1.290
78708W        W43528   5.252  14.453   0.405
78709W        W43529  42.860  39.541  14.801
78710W        W43530   1.461  24.015  14.209
78711W        W43531  23.744   9.810   2.140
78712W        W43532  40.740  44.275  13.840
78713W        W43533   1.986   4.430   3.089
78714W        W43534  40.705  27.564   1.852
78715W        W43535  39.919   8.881   1.398
78716W        W43536  30.006  11.334   2.453
78717W        W43537  44.120  19.770   1.818
78718W        W43538  20.143  37.622   1.587
78719W        W43539   4.541  14.004   1.489
78720W        W43540  14.661   9.288  14.533
78721W        W43541   8.227  12.184  13.227
78722W        W43542  10.718  31.195  14.372
78723W        W43543  14.862  25.522   4.214
78724W        W43544  30.264  18.531   2.957
78725W        W43545   4.845  42.748  14.366
78726W        W43546  13.609  43.449   3.942
78727W        W43547  24.176  28.685  12.308
78728W        W43548  27.682  19.865   3.937
78729W        W43549  38.865  42.512  14.475
78730W        W43550  16.003  10.752   3.347
78731W        W43551   1.696  37.961   3.192
78732W        W43552  20.673   5.441   3.568
78733W        W43553  38.468  17.992   1.917
78734W        W43554  27.781  27.543   2.384
78735W        W43555  37.970  24.218   3.939
78736W        W43556  36.820  23.936  10.149
78737W        W43557  17.705  17.107  13.803
78738W        W43558   2.934   1.851   4.807
78739W        W43559  18.135  43.562  13.428
78740W        W43560  25.996  44.613  14.614
78741W        W43561  43.496  27.182  13.884
78742W        W43562   9.333  42.880  12.104
78743W        W43563  13.833   8.872  13.342
78744W        W43564  39.543  44.467  14.262
78745W        W43565  12.302   2.433   2.745
78746W        W43566  42.556  22.795  11.226
78747W        W43567  24.733  25.652   3.093
78748W        W43568  29.545  31.237   2.751
78749W        W43569  33.526   7.331  10.619
78750W        W43570   3.945  24.417   9.739
78751W        W43571   9.808  21.527  14.494
78752W        W43572  27.246  26.092   2.762
78753W        W43573  14.264  14.855   1.613
78754W        W43574  19.572  15.229  14.391
78755W        W43575  35.015  38.430  13.144
78756W        W43576  24.692  37.629   0.250
78757W        W43577  32.620  35.676  11.626
78758W        W43578   6.937  40.454  10.584
78759W        W43579  33.627  15.742  13.450
78760W        W43580  11.231  22.257  11.759
78761W        W43581   7.135  36.967  11.533
78762W        W43582  26.682   0.357  13.070
78763W        W43583   2.276  38.654   2.312
78764W        W43584   5.668  37.387   2.757
78765W        W43585  16.522  20.266   1.199
78766W        W43586  12.649  27.988  14.894
78767W        W43587  28.366  10.424  13.906
78768W        W43588  18.478  40.192  13.546
78769W        W43589  32.471   4.218   1.224
78770W        W43590  12.561  20.004   2.752
78771W        W43591   7.689   6.342  10.615
78772W        W43592   4.383  28.456  11.701
78773W        W43593   9.071   3.881   3.287
78774W        W43594  37.152  29.313   1.437
78775W        W43595  38.746  38.247  14.031
78776W        W43596  32.004  17.325  13.058
78777W        W43597   9.830   5.976   4.264
78778W        W43598  23.114  27.294   1.918
78779W        W43599  38.522  44.514   0.854
78780W        W43600  29.467  23.698   3.851
78781W        W43601  16.691  21.509   4.538
78782W        W43602  33.197  31.389   4.862
78783W        W43603  33.354   8.875  11.290
78784W        W43604  15.970  41.134   2.523
78785W        W43605   8.769  29.134  14.972
78786W        W43606   3.466   9.771  13.987
78787W        W43607  18.477  17.963  12.870
78788W        W43608  26.972  10.642   0.456
78789W        W43609  28.202  38.387   3.340
78790W        W43610  11.297  39.823   4.245
78791W        W43611  11.803   4.443  12.531
78792W        W43612  27.259  27.501   2.398
78793W        W43613  12.216  42.514  12.543
78794W        W43614  20.965   2.463  14.878
78795W        W43615  20.521  13.144   1.244
78796W        W43616  38.422   7.380   3.187
78797W        W43617  27.197  43.892  12.634
78798W        W43618  40.030  41.263  10.513
78799W        W43619  35.955  31.227  14.889
78800W        W43620  29.253   6.763  12.855
78801W        W43621  18.608  25.960  11.568
78802W        W43622  24.459  42.942  13.543
78803W        W43623   6.139  13.297   3.566
78804W        W43624  18.612   6.516   1.366
78805W        W43625  14.831  44.055  11.164
78806W        W43626  43.935  31.180  14.384
78807W        W43627  42.014   8.467   1.420
78808W        W43628  17.018  24.583  11.404
78809W        W43629  17.017  36.977   0.746
78810W        W43630  35.956   1.404  10.794
78811W        W43631  31.572  26.151   3.435
78812W        W43632  26.730  34.108  14.009
78813W        W43633   2.942  13.351   3.564
78814W        W43634  30.687  28.176   3.167
78815W        W43635  17.133   4.264   1.639
78816W        W43636  22.791  37.163   9.987
78817W        W43637  10.597   0.819  11.107
78818W        W43638  22.605  30.582   4.662
78819W        W43639  25.599  38.373  13.511
78820W        W43640  30.002   3.985   4.074
78821W        W43641  31.576  14.724  13.463
78822W        W43642   4.695  33.346   3.533
78823W        W43643   1.966   8.246  13.792
78824W        W43644   9.648   1.837   0.837
78825W        W43645  28.636  15.260  11.433
78826W        W43646  44.346   6.470  11.537
78827W        W43647  13.817  42.435   3.098
78828W        W43648  40.533  18.651  13.381
78829W        W43649   8.392  12.803  10.734
78830W        W43650  35.630  42.971  14.560
78831W        W43651  33.925  38.496  12.068
78832W        W43652   6.353  23.601   4.557
78833W        W43653  27.911   0.086  10.418
78834W        W43654  42.343   6.555   1.864
78835W        W43655   1.725  26.975   3.616
78836W        W43656  36.822  29.487   0.386
78837W        W43657  28.636   0.393  13.030
78838W        W43658  26.453  43.410   3.746
78839W        W43659  38.092  14.417  14.362
78840W        W43660  10.648   7.905   2.443
78841W        W43661  14.969  32.929   1.256
78842W        W43662  10.575  37.521   2.145
78843W        W43663  28.119   7.241   4.251
78844W        W43664   2.701  16.631  10.792
78845W        W43665  42.040  30.661  11.964
78846W        W43666  35.429  24.766  11.651
78847W        W43667  16.060  27.502  12.576
78848W        W43668   1.817  29.183   2.281
78849W        W43669   3.869  13.053   1.670
78850W        W43670   4.969  29.922   4.601
78851W        W43671   0.505  18.709   1.378
78852W        W43672   9.898  21.837  14.888
78853W        W43673  34.365  23.503   1.743
78854W        W43674  37.456   9.731   2.145
78855W        W43675   2.073  40.285  14.462
78856W        W43676   4.360  36.286   3.134
78857W        W43677  19.808  29.848  11.992
78858W        W43678  44.911  14.130  11.165
78859W        W43679  19.960  22.303   1.669
78860W        W43680  10.903  11.859   3.909
78861W        W43681  20.873  21.699  13.859
78862W        W43682  10.912  29.594   2.430
78863W        W43683  37.484  42.021   3.675
78864W        W43684  11.824   9.447  10.580
78865W        W43685  37.588   7.616   2.591
78866W        W43686  29.422  23.124   1.218
78867W        W43687   4.232  39.632  12.983
78868W        W43688  37.532  42.394   4.978
78869W        W43689   5.413  41.915  11.623
78870W        W43690  19.369   5.812   1.146
78871W        W43691  40.528  11.002  12.368
78872W        W43692  41.459   4.280   4.280
78873W        W43693  36.607  24.612   2.814
78874W        W43694  23.442  17.171  10.607
78875W        W43695   3.314  28.129  10.130
78876W        W43696  17.658  14.172   0.924
78877W        W43697  42.587  35.533  13.402
78878W        W43698  37.835   2.209   2.578
78879W        W43699  36.071  26.119   2.740
78880W        W43700  35.157  36.883   2.662
78881W        W43701  43.853  25.101   3.525
78882W        W43702   7.346  35.145   4.133
78883W        W43703  34.992  43.011  13.944
78884W        W43704  38.571  44.907   2.895
78885W        W43705  43.195  36.002  14.899
78886W        W43706  16.076  11.125   2.865
78887W        W43707  38.806  44.488   4.519
78888W        W43708  21.033  29.025   0.453
78889W        W43709  38.425  25.102  14.458
78890W        W43710  33.055  33.931   0.240
78891W        W43711  32.002  39.660  10.953
78892W        W43712  34.665   4.740   3.337
78893W        W43713  29.679  42.504  11.635
78894W        W43714   7.220  21.253  14.284
78895W        W43715   4.842  20.743   1.852
78896W        W43716  25.219  10.635  14.101
78897W        W43717  27.331  44.550  14.215
78898W        W43718  38.774  10.417   3.051
78899W        W43719  38.892  34.885  10.769
78900W        W43720  17.332  11.827   1.997
78901W        W43721  30.887  11.509  12.009
78902W        W43722  32.611  40.486  12.537
78903W        W43723  39.114  12.916  14.408
78904W        W43724   3.372   2.926  10.635
78905W        W43725  20.675  20.054   4.718
78906W        W43726  24.606  17.075  14.736
78907W        W43727  16.311  12.926   3.604
78908W        W43728  11.859  42.348   0.913
78909W        W43729  14.769   9.746   3.928
78910W        W43730  25.670  32.408   1.450
78911W        W43731   4.057  14.060   1.312
78912W        W43732  44.761   1.269   2.833
78913W        W43733  11.804   9.309  12.869
78914W        W43734  25.079   7.876  11.157
78915W        W43735   6.787  25.721  13.012
78916W        W43736  22.025  22.022   2.302
78917W        W43737  42.590   6.490   2.343
78918W        W43738  30.679  15.587  14.027
78919W        W43739  29.600   2.771   2.797
78920W        W43740  10.886  22.355   0.000
78921W        W43741  21.683  10.398  14.364
78922W        W43742  10.719  11.380   4.753
78923W        W43743  40.746   0.904  11.031
78924W        W43744  30.341  21.906   4.997
78925W        W43745  42.361  34.391  14.439
78926W        W43746  30.987  15.906  14.316
78927W        W43747  13.125   8.930  10.284
78928W        W43748  11.682  12.881  13.894
78929W        W43749  17.801   9.931  11.183
78930W        W43750  17.670  26.987  11.610
78931W        W43751  39.464  29.869   0.340
78932W        W43752   4.606  13.636  12.926
78933W        W43753  41.534  36.407  11.889
78934W        W43754   2.308  42.615   1.291
78935W        W43755  32.119  40.797  13.594
78936W        W43756   1.926  33.263  11.448
78937W        W43757  36.471  26.447   0.075
78938W        W43758  30.414  31.202   4.516
78939W        W43759   1.420  20.085   2.832
78940W        W43760  43.272  40.568   1.836
78941W        W43761  12.444   8.872  13.536
78942W        W43762   2.293  24.431   1.736
78943W        W43763  11.310   7.371   4.465
78944W        W43764  29.332   6.640   4.346
78945W        W43765   6.593  36.096  10.905
78946W        W43766   8.545  24.520   4.620
78947W        W43767  40.728   1.711  13.557
78948W        W43768   1.421   7.278   3.067
78949W        W43769  33.521  42.229   2.956
78950W        W43770  22.567   2.233   1.836
78951W        W43771  20.652  10.431   1.264
78952W        W43772  18.564  31.594  14.182
78953W        W43773  30.919  22.939  12.087
78954W        W43774   0.435  26.648   3.314
78955W        W43775   1.254   9.536   4.672
78956W        W43776  11.757  25.409   3.744
78957W        W43777  14.018  15.353   0.430
78958W        W43778  23.583  16.085  13.953
78959W        W43779   1.442   3.914  11.526
78960W        W43780  30.854  42.489   1.421
78961W        W43781  11.782  19.812  12.359
78962W        W43782   1.876  20.292  13.001
78963W        W43783  24.778  38.907   1.405
78964W        W43784  23.015  42.294  14.464
78965W        W43785  44.306  29.385  10.777
78966W        W43786  32.558  27.476   3.380
78967W        W43787   5.587  25.302  12.627
78968W        W43788  31.096  25.708   2.733
78969W        W43789  40.927  32.181   3.298
78970W        W43790  25.540   2.005   3.272
78971W        W43791  37.844   2.253  14.917
78972W        W43792   9.172  28.065  12.132
78973W        W43793  33.994   1.545   4.618
78974W        W43794  31.520  40.590   2.807
78975W        W43795  36.052  32.863   2.465
78976W        W43796  15.268  42.984   4.682
78977W        W43797  35.378  27.672  10.136
78978W        W43798   7.783   4.074   4.278
78979W        W43799  21.055  37.139   3.103
78980W        W43800  43.589  34.982   0.753
78981W        W43801  24.555  33.572   4.191
78982W        W43802  24.943  18.014   1.894
78983W        W43803  27.538  39.794   0.809
78984W        W43804  35.056  24.654  12.501
78985W        W43805  30.236  12.702   4.217
78986W        W43806  42.544  29.665   2.301
78987W        W43807  13.230  28.713   0.632
78988W        W43808  10.677  10.807   3.579
78989W        W43809  36.832  13.615  10.223
78990W        W43810  43.465   7.854  12.768
78991W        W43811  15.822  30.802  14.564
78992W        W43812  33.173  11.059   2.475
78993W        W43813  24.172  34.511  13.831
78994W        W43814  22.962  33.396  11.608
78995W        W43815  15.639  12.264  11.390
78996W        W43816   8.743  41.243   2.110
78997W        W43817   3.384  23.033  12.559
78998W        W43818  34.601  36.295  12.460
78999W        W43819   6.869  11.941   3.665
79000W        W43820  43.443  11.664  10.251
79001W        W43821  16.534  23.629  13.919
79002W        W43822  20.186   3.495  10.879
79003W        W43823  26.940  24.625   3.756
79004W        W43824   7.828  14.285   3.558
79005W        W43825  21.004  18.182   1.470
79006W        W43826  38.262   0.400  13.934
79007W        W43827  13.757  42.824  12.039
79008W        W43828   3.709  38.845  13.436
79009W        W43829  28.677   1.292  13.520
79010W        W43830  12.887   2.928  12.181
79011W        W43831  23.357  18.221  13.630
79012W        W43832  27.235   9.398  12.155
79013W        W43833  18.716  40.488   4.922
79014W        W43834  23.702  40.781   2.763
79015W        W43835  19.149  22.698  10.848
79016W        W43836  19.844   5.780   4.166
79017W        W43837  39.044  26.179   4.099
79018W        W43838  31.464  34.932   4.410
79019W        W43839  44.526  39.218  11.351
79020W        W43840  21.117  24.072  14.308
79021W        W43841  16.958  39.950   1.699
79022W        W43842  41.541  38.298   3.884
79023W        W43843   3.308  15.661   4.585
79024W        W43844  42.370  38.002  13.601
79025W        W43845  33.526   4.188   2.142
79026W        W43846  32.569  15.309  11.750
79027W        W43847   1.430  17.316  12.457
79028W        W43848  43.765  29.172   3.772
79029W        W43849  39.840  26.223  11.462
79030W        W43850  26.077  13.593   3.309
79031W        W43851  43.747  40.372  13.493
79032W        W43852  28.649  20.008  11.025
79033W        W43853  15.049  31.055   0.393
79034W        W43854   9.341   1.387   3.363
79035W        W43855  43.591  22.916  12.539
79036W        W43856  21.943  31.621   3.683
79037W        W43857  20.248  18.024  13.278
79038W        W43858  41.253   0.473  14.359
79039W        W43859  33.845  23.958  13.417
79040W        W43860  13.605  10.261   3.248
79041W        W43861   6.952   0.868   1.297
79042W        W43862  28.475  26.054  11.783
79043W        W43863  33.964  32.189   2.404
79044W        W43864   6.527  15.138  12.067
79045W        W43865  13.729   6.081  11.182
79046W        W43866  15.705  36.515   1.905
79047W        W43867  22.532  18.109   3.560
79048W        W43868  37.272  30.420   2.989
79049W        W43869  20.310   4.195  11.465
79050W        W43870  17.913  36.521   3.231
79051W        W43871   7.888  35.413  14.693
79052W        W43872  29.893  42.811   3.218
79053W        W43873  42.177  42.930  13.805
79054W        W43874   3.896  27.554   0.997
79055W        W43875  26.979   4.827  14.361
79056W        W43876  25.651  34.187   3.202
79057W        W43877  28.037  19.481  12.790
79058W        W43878   4.785  27.703   2.618
79059W        W43879  26.403  13.913  14.070
79060W        W43880  36.836  19.573   1.826
79061W        W43881  12.128  33.156  10.899
79062W        W43882  33.610  14.202   1.330
79063W        W43883  10.035  19.964   0.898
79064W        W43884  14.187   9.919  14.307
79065W        W43885   4.294  16.507  11.917
79066W        W43886  38.071  37.117  14.553
79067W        W43887  23.052  32.969   4.283
79068W        W43888  13.574  19.739  11.432
79069W        W43889  20.624  30.151  12.076
79070W        W43890  25.446  27.144   2.392
79071W        W43891  15.366  22.112   4.811
79072W        W43892   1.528   6.861   3.375
79073W        W43893  24.285  10.585  14.943
79074W        W43894  36.777  27.741   4.867
79075W        W43895  13.163  21.324  12.935
79076W        W43896  24.595  36.389  12.822
79077W        W43897  34.434  11.711  11.548
79078W        W43898  12.683  19.998  14.281
79079W        W43899  26.404  37.018  11.989
79080W        W43900  18.608  27.069  12.526
79081W        W43901   0.644   7.806   2.024
79082W        W43902  43.025  31.022  12.065
79083W        W43903  24.436  27.189  11.496
79084W        W43904  27.707  26.934  10.753
79085W        W43905  39.291  25.061   3.065
79086W        W43906   8.593  37.791   4.904
79087W        W43907  42.570  22.787   1.406
79088W        W43908   3.765  35.484   0.385
79089W        W43909   1.150  21.067   2.434
79090W        W43910  33.607   4.608   0.399
79091W        W43911  40.927  14.812   3.366
79092W        W43912  30.716   0.649   2.197
79093W        W43913  43.843  29.915   0.455
79094W        W43914   2.462  38.161   2.335
79095W        W43915  11.228   2.975  13.366
79096W        W43916  32.541   3.389  13.045
79097W        W43917   7.230   5.870  14.550
79098W        W43918  33.519  20.319   1.435
79099W        W43919   4.054  29.141   4.145
79100W        W43920  36.857   7.770  13.777
79101W        W43921   4.563  17.852   2.921
79102W        W43922  19.139   4.336  13.856
79103W        W43923  39.786   9.896  12.987
79104W        W43924  37.420  20.614   4.023
79105W        W43925  30.685  32.340  12.414
79106W        W43926  15.516  42.399   4.918
79107W        W43927  16.477   1.838   4.526
79108W        W43928   1.706  10.689  12.599
79109W        W43929  30.489   3.375  12.926
79110W        W43930  11.690  24.427  10.331
79111W        W43931  18.751   9.693  13.314
79112W        W43932   4.330  35.454   3.267
79113W        W43933  34.185  19.047   2.203
79114W        W43934  42.370  37.227   0.746
79115W        W43935   6.225  10.255  13.422
79116W        W43936  42.386  34.667   4.504
79117W        W43937  43.090  23.833  10.675
79118W        W43938   6.808  39.814   4.915
79119W        W43939  13.795   4.058   4.158
79120W        W43940  25.648  27.723   0.463
79121W        W43941  15.131  28.631   0.009
79122W        W43942  42.526  28.824  11.161
79123W        W43943  17.253   7.504   0.799
79124W        W43944   5.751  10.058  13.589
79125W        W43945  18.974  12.506   0.468
79126W        W43946  37.930   3.196  14.860
79127W        W43947  26.288  42.507  14.938
79128W        W43948  27.517   8.175   1.276
79129W        W43949  19.359  19.608   1.830
79130W        W43950  38.391   6.666   0.707
79131W        W43951  34.528  34.033   3.727
79132W        W43952  17.531  34.093  13.501
79133W        W43953  10.574  32.565  10.301
79134W        W43954   2.168   8.690  12.934
79135W        W43955  26.244  28.456   3.676
79136W        W43956  33.137   9.178   0.250
79137W        W43957  18.635   3.954  14.488
79138W        W43958   8.731  20.721   2.787
79139W        W43959   9.085  29.007   2.741
79140W        W43960  12.216  19.765   1.359
79141W        W43961   5.817  25.724   2.320
79142W        W43962   5.169  19.709   4.453
79143W        W43963  41.940  30.090   1.366
79144W        W43964   0.954  35.606   0.960
79145W        W43965   9.196  30.310  10.744
79146W        W43966  23.006   2.654   4.857
79147W        W43967  39.346  44.574   4.595
79148W        W43968  10.179  35.423   0.647
79149W        W43969  23.487  28.077  10.697
79150W        W43970  26.158  23.177  14.806
79151W        W43971  14.672  29.823   0.753
79152W        W43972   6.662   1.315   1.320
79153W        W43973  12.460  19.069  13.464
79154W        W43974  27.948  17.330   3.010
79155W        W43975  29.947  23.640   9.818
79156W        W43976  27.763   4.918   4.052
79157W        W43977  11.632   2.313   1.712
79158W        W43978   9.219  33.144  11.914
79159W        W43979   3.187  20.170   2.993
79160W        W43980  36.686  26.041   4.126
79161W        W43981  28.689   8.201  13.907
79162W        W43982   0.810  17.310   2.347
79163W        W43983   7.600  39.468   2.800
79164W        W43984   8.695  31.734  11.037
79165W        W43985  32.119  42.391   4.234
79166W        W43986  24.245  20.568  13.831
79167W        W43987  21.794  24.664   0.273
79168W        W43988  38.101  36.621   1.839
79169W        W43989  23.688  26.316  13.195
79170W        W43990  37.101  44.069  14.947
79171W        W43991  37.467  32.948  11.102
79172W        W43992   1.421  23.534  11.773
79173W        W43993  42.116  22.640  12.462
79174W        W43994   5.928  24.197   2.552
79175W        W43995   0.755  29.876   2.756
79176W        W43996   1.987  15.430   5.010
79177W        W43997  29.370   9.662  14.354
79178W        W43998  31.444  34.659  10.654
79179W        W43999   0.994  34.410  14.057
79180W        W44000  42.436  22.117  14.870
79181W        W44001  11.203   6.254  12.577
79182W        W44002  34.518  12.405   1.846
79183W        W44003  10.004  29.420  11.085
79184W        W44004  44.084  35.077   0.671
79185W        W44005   6.716  14.381   1.047
79186W        W44006  10.278  30.946  14.504
79187W        W44007  22.426   0.322  14.842
79188W        W44008  26.972  23.987  12.041
79189W        W44009  41.359  23.124   4.270
79190W        W44010  19.548  20.577  13.020
79191W        W44011  38.428  23.619   2.127
79192W        W44012   1.810  38.723   2.662
79193W        W44013  31.766   5.264   4.422
79194W        W44014   8.494  42.185  14.525
79195W        W44015   2.496  32.541   3.172
79196W        W44016  35.894  31.129   3.761
79197W        W44017   7.804   3.468   0.355
79198W        W44018  34.352  25.618   1.424
79199W        W44019   3.843  38.627   1.150
79200W        W44020  11.005  37.287   2.781
79201W        W44021  15.788  31.519  13.156
79202W        W44022  19.066  19.946  11.126
79203W        W44023   3.778   8.678  14.850
79204W        W44024  33.992  25.256   1.425
79205W        W44025  43.931   8.964  10.539
79206W        W44026  16.288  23.207  13.652
79207W        W44027  41.286  36.020   3.363
79208W        W44028  17.808  16.812  13.383
79209W        W44029  24.554   9.350  12.953
79210W        W44030  13.155  18.754   4.139
79211W        W44031  40.430  29.118   4.595
79212W        W44032  28.776  36.010  11.945
79213W        W44033  25.627  43.795   1.614
79214W        W44034  16.603  30.770   4.252
79215W        W44035  17.299  27.190   0.397
79216W        W44036  19.773  36.403  12.152
79217W        W44037   1.161  41.457  13.350
79218W        W44038  36.573  38.822  11.601
79219W        W44039  30.908  20.735  14.685
79220W        W44040   6.468  37.055   3.734
79221W        W44041  25.080  34.092  11.065
79222W        W44042  11.537  33.052   3.594
79223W        W44043  16.482  28.208   1.966
79224W        W44044  28.628   7.182  12.529
79225W        W44045   3.352  24.448  13.120
79226W        W44046  31.345  41.273  13.824
79227W        W44047  17.285  33.127  12.885
79228W        W44048   5.277  35.565   3.048
79229W        W44049  34.763   2.209   4.524
79230W        W44050  23.145  34.483  14.272
79231W        W44051  40.423  35.504  13.596
79232W        W44052  36.938   3.507  13.373
79233W        W44053   8.870   4.842   1.927
79234W        W44054  41.971   0.657   2.063
79235W        W44055  12.224  10.203  11.079
79236W        W44056  16.605  19.783   0.349
79237W        W44057  32.144  35.315  10.618
79238W        W44058  25.130  13.115   4.424
79239W        W44059  17.463  34.927  10.939
79240W        W44060  28.177  19.071   4.238
79241W        W44061  25.186   1.483   0.363
79242W        W44062  22.213  37.919   3.945
79243W        W44063  19.271  40.729   3.452
79244W        W44064  44.782  20.644   3.668
79245W        W44065  36.081  38.844  12.498
79246W        W44066  29.791  20.757   2.946
79247W        W44067   0.771  32.568  12.054
79248W        W44068   9.803  13.560  12.895
79249W        W44069  35.903  15.619  13.500
79250W        W44070  16.305  40.514  12.014
79251W        W44071   5.945  26.171   0.163
79252W        W44072  27.718   6.137  12.920
79253W        W44073  38.710  32.082   4.085
79254W        W44074  10.191  34.988   1.534
79255W        W44075  16.800  24.716  10.818
79256W        W44076  21.386  11.677   1.158
79257W        W44077   3.299  40.249   2.231
79258W        W44078  16.908  37.498  13.956
79259W        W44079  10.655   6.001   1.259
79260W        W44080  14.985  24.144   3.831
79261W        W44081  38.088   7.864   2.629
79262W        W44082  43.405  22.589  10.656
79263W        W44083  16.312   2.351  13.400
79264W        W44084  33.801  38.166  11.117
79265W        W44085  10.695   5.562   3.919
79266W        W44086  16.503  26.658  12.873
79267W        W44087  27.212  27.308  12.003
79268W        W44088  36.373  36.276  13.042
79269W        W44089  42.565  36.863  11.595
79270W        W44090  28.470  32.030  11.925
79271W        W44091   3.944  34.610  12.939
79272W        W44092  20.173  44.027  14.713
79273W        W44093   2.779  24.770   4.141
79274W        W44094  43.506   9.688  14.859
79275W        W44095  31.102   2.312   1.296
79276W        W44096  32.167  10.649   0.057
79277W        W44097  10.134  35.898  10.709
79278W        W44098  43.731   5.755   4.162
79279W        W44099  26.711   1.211  11.197
79280W        W44100  41.093  43.901  14.018
79281W        W44101   5.869  28.995   0.071
79282W        W44102  20.131  28.614   1.267
79283W        W44103  27.349  39.247  11.210
79284W        W44104  28.664  25.810  12.833
79285W        W44105  10.066  24.522   4.616
79286W        W44106  29.497  23.914  10.670
79287W        W44107  31.025  43.558  14.377
79288W        W44108  11.806  23.577   1.193
79289W        W44109   5.268  26.203  14.569
79290W        W44110  35.513  35.483  14.879
79291W        W44111  35.622   8.216   3.595
79292W        W44112   3.443  14.796  12.594
79293W        W44113  25.553  40.904   1.756
79294W        W44114  37.938   8.391   0.940
79295W        W44115   8.936  31.126   3.217
79296W        W44116  37.461  18.748   4.215
79297W        W44117  19.535  18.345  14.352
79298W        W44118  43.118  15.055   0.353
79299W        W44119  31.879  30.389  11.065
79300W        W44120  38.855   8.733  13.642
79301W        W44121  26.454  27.113   1.034
79302W        W44122   6.733   6.274   2.047
79303W        W44123  42.993  21.264   1.347
79304W        W44124   8.561  22.708  13.938
79305W        W44125  18.506  11.287   2.741
79306W        W44126  36.868  26.444  11.734
79307W        W44127  35.003   9.310  13.606
79308W        W44128  13.662   2.641   4.419
79309W        W44129  42.713  33.445   4.878
79310W        W44130   0.824  23.746   3.554
79311W        W44131  13.008  36.662  11.462
79312W        W44132  16.080  43.505   1.952
79313W        W44133  11.278  34.913  13.829
79314W        W44134  10.041   2.770   0.685
79315W        W44135  31.132   1.963   4.097
79316W        W44136  27.594   1.046  10.882
79317W        W44137  42.023   0.347  10.870
79318W        W44138   4.910   4.158  13.416
79319W        W44139  20.163  15.312   0.742
79320W        W44140  28.644  20.651   9.727
79321W        W44141  24.031  35.958   4.140
79322W        W44142  28.213  26.245   1.638
79323W        W44143   6.910  43.455  12.788
79324W        W44144  28.062  21.711   0.048
79325W        W44145  30.888  25.542   0.938
79326W        W44146   4.962   9.213  13.510
79327W        W44147  37.583  14.610  14.366
79328W        W44148   4.341  39.105   3.772
79329W        W44149  37.377  11.195  10.643
79330W        W44150  37.643  20.816   3.037
79331W        W44151  38.510  25.466   1.378
79332W        W44152  30.150  44.822  13.446
79333W        W44153   8.591  29.143   2.836
79334W        W44154  34.080   3.357  14.593
79335W        W44155  28.451  22.732   1.771
79336W        W44156   2.173  21.069  12.901
79337W        W44157  37.822  41.890   3.251
79338W        W44158  14.382  21.651   2.369
79339W        W44159  28.217  39.790   3.606
79340W        W44160  25.270  28.703   0.912
79341W        W44161  10.882  27.088   0.759
79342W        W44162  25.868   0.067  14.368
79343W        W44163   3.472   9.137  13.358
79344W        W44164   3.217  18.172  10.798
79345W        W44165  30.473  35.452  14.503
79346W        W44166  27.484  27.280   3.159
79347W        W44167  41.525  36.085   2.912
79348W        W44168   8.465  22.212   0.300
79349W        W44169   9.409  27.541   5.579
79350W        W44170  23.139  43.457   4.445
79351W        W44171  23.535  26.227  14.695
79352W        W44172  31.918  42.535   3.712
79353W        W44173  27.367   1.866  10.680
79354W        W44174  18.498  30.116   2.201
79355W        W44175  43.493  42.135   3.591
79356W        W44176  39.759  23.554  12.141
79357W        W44177  21.150   3.383  12.835
79358W        W44178   1.335  29.405   3.657
79359W        W44179   3.639   3.541  11.684
79360W        W44180  35.558   7.679   2.211
79361W        W44181  27.756   7.444   5.115
79362W        W44182  44.427  10.660  13.269
79363W        W44183  27.231  18.743   2.386
79364W        W44184   8.874  32.291   4.363
79365W        W44185  37.887  25.833   0.357
79366W        W44186  20.718  25.455   3.378
79367W        W44187   5.718   4.274  11.182
79368W        W44188  26.369  28.122   5.012
79369W        W44189  27.885  14.357   0.454
79370W        W44190  19.568  30.407  14.225
79371W        W44191  37.626   4.846   1.073
79372W        W44192  20.070  24.628   4.093
79373W        W44193  40.749  25.855  10.750
79374W        W44194   4.290   1.788   4.208
79375W        W44195  20.224  24.628   3.047
79376W        W44196  17.277   8.206   2.378
79377W        W44197  41.828  43.318   3.669
79378W        W44198  32.945  30.849   1.319
79379W        W44199  31.064  29.388   2.359
79380W        W44200  40.914  39.224   2.196
79381W        W44201  38.925  26.110   0.357
79382W        W44202  30.276   3.552   4.103
79383W        W44203  19.489  33.914   3.799
79384W        W44204  15.322  27.606   2.297
79385W        W44205  10.891  37.070  13.846
79386W        W44206  31.901  42.254   4.684
79387W        W44207  23.144  41.808  13.533
79388W        W44208   4.815  31.798  12.382
79389W        W44209  14.806  29.373  13.394
79390W        W44210  10.443   2.684   2.852
79391W        W44211  30.523  27.268  12.952
79392W        W44212  16.185  43.002  13.280
79393W        W44213   8.362   7.250  14.843
79394W        W44214  44.401  25.062  11.420
79395W        W44215  25.717  20.302  11.940
79396W        W44216  22.715  13.996   2.667
79397W        W44217  33.669   3.688   2.098
79398W        W44218  31.100  22.538   1.141
79399W        W44219  43.407  24.678   0.279
79400W        W44220   1.413   5.707  14.397
79401W        W44221  35.006  34.838   4.480
79402W        W44222   4.128   6.275   4.893
79403W        W44223  32.911  26.399  10.231
79404W        W44224  18.631  26.497   1.435
79405W        W44225  39.568   8.437   0.888
79406W        W44226  29.595   0.488  11.218
79407W        W44227  37.566  31.595   2.353
79408W        W44228   1.258  22.926  11.052
79409W        W44229  32.597  26.661  11.014
79410W        W44230  17.289  23.093  11.567
79411W        W44231  38.567  34.567  10.513
79412W        W44232  19.162  22.841   0.371
79413W        W44233  30.607  15.866  11.407
79414W        W44234   0.795  16.585  13.521
79415W        W44235  13.864  23.504  12.572
79416W        W44236  17.286   3.132   4.639
79417W        W44237  22.903  18.953  13.962
79418W        W44238   8.383  24.816   5.463
79419W        W44239  31.833  39.192   1.743
79420W        W44240  25.731  32.491   3.100
79421W        W44241  36.420  17.761   0.521
79422W        W44242  43.906  30.588  10.656
79423W        W44243   4.203   0.848  10.549
79424W        W44244  14.863  19.669   2.691
79425W        W44245  29.421  16.098   0.191
79426W        W44246  36.918  21.687  13.312
79427W        W44247  23.868  38.035   0.003
79428W        W44248  32.928  19.105  11.389
79429W        W44249  37.573   0.894  10.664
79430W        W44250   6.969  40.498   2.664
79431W        W44251   4.606  11.871   0.803
79432W        W44252   0.031  10.413  14.350
79433W        W44253  25.052  36.098   2.290
79434W        W44254   8.103   8.857   4.596
79435W        W44255   3.034   2.923   4.144
79436W        W44256   7.756  44.575  12.459
79437W        W44257  30.219  21.215   1.406
79438W        W44258  12.346  23.171  14.042
79439W        W44259   1.996  29.470  12.334
79440W        W44260   8.748  22.302  11.197
79441W        W44261  11.119  27.545   4.124
79442W        W44262  29.647  17.260  14.474
79443W        W44263  27.115  27.101  13.106
79444W        W44264  23.552  43.100  12.514
79445W        W44265  16.262  21.219  11.598
79446W        W44266  17.607   1.304   2.407
79447W        W44267  18.258  37.687  10.680
79448W        W44268  17.455  14.640  10.479
79449W        W44269  10.208  31.441   2.717
79450W        W44270  34.273  16.914  10.182
79451W        W44271  17.011  41.417  11.151
79452W        W44272  30.129   0.388  12.961
79453W        W44273   9.290  41.051  14.076
79454W        W44274   4.038  29.384  10.772
79455W        W44275  38.891  26.659   2.850
79456W        W44276  34.286   1.980   1.883
79457W        W44277  22.931   8.208  13.502
79458W        W44278  40.915  21.003   1.343
79459W        W44279   9.940  44.736  12.358
79460W        W44280  21.783  27.168  13.410
79461W        W44281  18.611  35.880  12.068
79462W        W44282  22.625  25.590  11.930
79463W        W44283   9.416  33.184  10.111
79464W        W44284  28.416   1.958  10.714
79465W        W44285  10.670   5.803  12.039
79466W        W44286  18.794  24.701  13.438
79467W        W44287  13.171  23.234  14.283
79468W        W44288   6.171  29.606  10.644
79469W        W44289  39.361  43.323   4.201
79470W        W44290  20.739  22.973   1.877
79471W        W44291  44.009  34.981  10.767
79472W        W44292   8.311  19.777   3.690
79473W        W44293  19.270   5.607   2.693
79474W        W44294   3.678   7.574   4.091
79475W        W44295  10.185  20.312  11.934
79476W        W44296  21.151  36.605   3.197
79477W        W44297  20.385  38.524  14.386
79478W        W44298  35.546  13.317   1.747
79479W        W44299  23.607  16.093  10.599
79480W        W44300  34.060   2.783  11.419
79481W        W44301  35.922  44.733  12.972
79482W        W44302   5.676  33.532   3.808
79483W        W44303   7.192  44.871  11.937
79484W        W44304   4.472  35.428  11.480
79485W        W44305   5.860  44.493   0.986
79486W        W44306  18.110  40.249   0.200
79487W        W44307  10.599   4.921  12.071
79488W        W44308   9.095  42.979   0.040
79489W        W44309  22.760  23.121   1.133
79490W        W44310  13.354  17.691  10.558
79491W        W44311  28.097  12.558  12.426
79492W        W44312  30.999  30.188   2.779
79493W        W44313  18.634  24.158   3.514
79494W        W44314  19.513  43.387   1.758
79495W        W44315  20.709  42.513   4.863
79496W        W44316  13.795  10.757   4.423
79497W        W44317  25.081  38.467  13.538
79498W        W44318   3.957  19.950   3.688
79499W        W44319  39.842   0.734  13.427
79500W        W44320  23.581  22.964  13.372
79501W        W44321   4.196  36.126   2.028
79502W        W44322  27.105  37.536  11.899
79503W        W44323   2.543   6.669   0.949
79504W        W44324  19.715  24.213   0.310
79505W        W44325  20.600  22.538  12.926
79506W        W44326  13.836  22.453   3.149
79507W        W44327   4.053  26.294   3.291
79508W        W44328  28.133   5.438   1.483
79509W        W44329  39.932  28.194  10.731
79510W        W44330  16.708  19.990   3.799
79511W        W44331  12.688  35.905  12.853
79512W        W44332   6.075  39.098  10.650
79513W        W44333   3.874   1.705  14.257
79514W        W44334   2.589  34.636   2.098
79515W        W44335  37.847   2.047   4.144
79516W        W44336  11.264  36.061   4.583
79517W        W44337  24.792  33.296   3.821
79518W        W44338  14.705  24.439  14.382
79519W        W44339  16.164  40.461   4.712
79520W        W44340  41.571  27.100  12.948
79521W        W44341  14.163  20.214   1.259
79522W        W44342  44.898  18.617   2.147
79523W        W44343   0.681  37.895   2.803
79524W        W44344   5.747  41.731  14.611
79525W        W44345  14.362  40.341   2.667
79526W        W44346  36.126  11.613   1.966
79527W        W44347  31.449  35.393   1.289
79528W        W44348  21.900  21.996  14.213
79529W        W44349   3.156   5.459  12.363
79530W        W44350  25.112   6.373   3.170
79531W        W44351   1.736  23.014  10.688
79532W        W44352  23.480  25.810  11.954
79533W        W44353  24.262   4.002  14.429
79534W        W44354  20.003  32.960  14.894
79535W        W44355  13.863   9.041   0.259
79536W        W44356   0.007  12.779   1.428
79537W        W44357  15.286   2.569   1.458
79538W        W44358  41.958  33.100  13.076
79539W        W44359   5.467  16.617   2.139
79540W        W44360  28.560   5.420   0.253
79541W        W44361  29.495  21.763   4.046
79542W        W44362  28.107  42.470   2.709
79543W        W44363  43.881   4.348   1.240
79544W        W44364  13.548  30.917  12.449
79545W        W44365  37.527  42.832  14.562
79546W        W44366  22.948   0.234   2.384
79547W        W44367  41.681   1.915   4.800
79548W        W44368  20.718  20.146   2.657
79549W        W44369  14.706  17.125  10.008
79550W        W44370  40.910  40.513   2.098
79551W        W44371  34.902  35.838   1.673
79552W        W44372  21.991  30.597   2.545
79553W        W44373  14.732  21.209  13.341
79554W        W44374  11.361  39.167   9.891
79555W        W44375   5.484   8.988   3.699
79556W        W44376  20.724  39.816  11.025
79557W        W44377  36.050  36.994   3.671
79558W        W44378  10.847  24.060   0.268
79559W        W44379   1.077  37.365   5.086
79560W        W44380   8.680  21.997  13.988
79561W        W44381  20.772  37.333   4.186
79562W        W44382   6.709   5.236   1.636
79563W        W44383   0.654   1.977  14.291
79564W        W44384  23.859  22.296   2.071
79565W        W44385  21.310  13.210   0.808
79566W        W44386  37.303  23.134   3.591
79567W        W44387   6.022  24.815   2.213
79568W        W44388   6.839  26.392  12.191
79569W        W44389  11.623  26.444  13.896
79570W        W44390  16.158   2.713   2.362
79571W        W44391   1.416  14.159   3.713
79572W        W44392   7.543   2.916  14.005
79573W        W44393  30.045  40.868   4.593
79574W        W44394  11.339   5.684  11.101
79575W        W44395  25.740  27.112   4.276
79576W        W44396  16.678  11.655  12.422
79577W        W44397  32.016  33.004   0.372
79578W        W44398  43.328   5.659   0.347
79579W        W44399  25.493  30.165   0.825
79580W        W44400   6.920  34.066  13.346
79581W        W44401  10.065  17.788   0.846
79582W        W44402  15.716   2.372  14.201
79583W        W44403  27.558  21.157   1.693
79584W        W44404  21.384  28.075   0.263
79585W        W44405  10.566   2.791  12.596
79586W        W44406  30.986  10.752   0.801
79587W        W44407   6.304  21.014  12.889
79588W        W44408  15.239  15.333   1.437
79589W        W44409  34.503  10.310   1.210
79590W        W44410   1.095  42.944  10.303
79591W        W44411  20.782  24.660   2.385
79592W        W44412   6.305  39.128  11.109
79593W        W44413  22.573  35.611  12.545
79594W        W44414  35.803  28.316   2.456
79595W        W44415  17.858   0.839   2.153
79596W        W44416  21.228  34.324  12.523
79597W        W44417  41.607  38.410   3.154
79598W        W44418  16.876   4.642   3.226
79599W        W44419  26.083  32.402  13.029
79600W        W44420   3.432  32.271   2.788
79601W        W44421  25.606  32.104   4.799
79602W        W44422  32.200  34.474   4.944
79603W        W44423  42.650  16.691   9.940
79604W        W44424  22.946  37.017  12.961
79605W        W44425  13.535   7.928  11.243
79606W        W44426  23.979   8.166  10.735
79607W        W44427  12.704  21.013  11.686
79608W        W44428  14.982  21.629  11.079
79609W        W44429   0.438  19.418  14.381
79610W        W44430  29.923   8.642   0.861
79611W        W44431  26.350  30.268  11.730
79612W        W44432  31.689  10.765  14.053
79613W        W44433  23.070  39.525  11.174
79614W        W44434  15.979  19.962   4.954
79615W        W44435  26.202   0.244  12.899
79616W        W44436   4.778  44.287   3.194
79617W        W44437  33.167   0.955   3.338
79618W        W44438  23.310   1.973   3.827
79619W        W44439  19.032  16.597   4.224
79620W        W44440  18.012  25.632  14.169
79621W        W44441  20.638  38.665   3.881
79622W        W44442  27.042   0.390   0.780
79623W        W44443   9.160  35.048  12.527
79624W        W44444  42.466  38.275  14.403
79625W        W44445   7.871  30.123   0.539
79626W        W44446  17.851  21.030  14.672
79627W        W44447  20.270  38.523   2.188
79628W        W44448  23.796   7.646   3.926
79629W        W44449   3.386  34.393  12.164
79630W        W44450  24.801  23.690   2.780
79631W        W44451  38.265  42.031  11.551
79632W        W44452  26.042  36.600  14.994
79633W        W44453  30.471   1.177  13.892
79634W        W44454  35.625  17.744  13.409
79635W        W44455  15.347  28.822  13.186
79636W        W44456  37.540  28.807  10.721
79637W        W44457  13.213  31.169  14.977
79638W        W44458   6.778  27.884   3.231
79639W        W44459  38.373  37.524  14.873
79640W        W44460   9.712   7.154   0.947
79641W        W44461  38.780  20.126  14.843
79642W        W44462  19.811   1.401   3.639
79643W        W44463  41.325  13.165   3.376
79644W        W44464   1.915  22.133   1.305
79645W        W44465  42.937  11.962   1.456
79646W        W44466  33.047   1.671   1.963
79647W        W44467   1.098  25.099   2.747
79648W        W44468  40.096  20.228   3.192
79649W        W44469  20.507   6.223   3.189
79650W        W44470  43.926  11.200  10.550
79651W        W44471  44.915  44.490  14.645
79652W        W44472  18.377  35.207  10.235
79653W        W44473   1.050  17.624   3.714
79654W        W44474  39.151  25.218  10.008
79655W        W44475  15.280   9.652   2.073
79656W        W44476  21.103   9.891   2.259
79657W        W44477   6.175  19.804   1.506
79658W        W44478  28.140  30.872  14.752
79659W        W44479  26.978  15.067  10.635
79660W        W44480  24.919  10.188   3.779
79661W        W44481  38.955  18.670  11.657
79662W        W44482  44.521  15.831   4.614
79663W        W44483  11.822  19.223   4.841
79664W        W44484  17.770  16.685  12.390
79665W        W44485  17.806   2.790   1.303
79666W        W44486  14.206   0.264   2.658
79667W        W44487  33.802  15.258   2.213
79668W        W44488  10.316  18.679   2.527
79669W        W44489  37.884   5.745  10.462
79670W        W44490  32.907   7.632  12.720
79671W        W44491  42.491   5.202   2.744
79672W        W44492   3.069  39.611   2.911
79673W        W44493  25.115  23.284  10.068
79674W        W44494  20.617  34.317   3.295
79675W        W44495  10.245  14.775  12.544
79676W        W44496   0.034  29.643   2.352
79677W        W44497  24.576  14.155  11.401
79678W        W44498  18.581  16.579  12.922
79679W        W44499   7.186  15.309  10.761
79680W        W44500   1.512  40.941   1.099
79681W        W44501  15.007  10.754  12.122
79682W        W44502  22.345  11.951   1.326
79683W        W44503  20.616  16.674  14.517
79684W        W44504  12.124  22.780  13.480
79685W        W44505   8.369  12.869  12.939
79686W        W44506  18.939  14.335  12.465
79687W        W44507  33.870  39.078   2.435
79688W        W44508  40.001  11.868   1.246
79689W        W44509  13.779  44.579   4.276
79690W        W44510  11.938  44.446  12.932
79691W        W44511  11.935   7.728  12.055
79692W        W44512  38.726   2.112   2.374
79693W        W44513  27.121  21.213  12.535
79694W        W44514   2.439  41.308  13.518
79695W        W44515   6.884  39.639  10.612
79696W        W44516   3.817  44.772  14.424
79697W        W44517  25.869  17.510   1.879
79698W        W44518   0.261  12.600  11.555
79699W        W44519  28.663  24.326   4.691
79700W        W44520  32.150  11.553   1.288
79701W        W44521   7.783  19.083   0.300
79702W        W44522  38.392  40.041   3.286
79703W        W44523  41.580  19.812   4.378
79704W        W44524  24.120  40.552   4.114
79705W        W44525  25.684  24.513  12.319
79706W        W44526  13.376  43.977  13.710
79707W        W44527   1.342  28.328   3.691
79708W        W44528  32.539  32.067   0.017
79709W        W44529  33.451  21.687  13.629
79710W        W44530   5.416  34.945   1.449
79711W        W44531  44.860   0.071   0.664
79712W        W44532  16.705  14.637  10.763
79713W        W44533  38.265  27.482  12.057
79714W        W44534   3.856  31.090   0.898
79715W        W44535  10.925  42.945  14.431
79716W        W44536  28.665  25.831   3.153
79717W        W44537  27.950   2.753   0.602
79718W        W44538  12.395  28.319   5.505
79719W        W44539   2.752  26.494  14.771
79720W        W44540  44.282  19.505   9.927
79721W        W44541   6.913  21.705  12.998
79722W        W44542  28.614  28.681  12.443
79723W        W44543   6.826  43.202  11.595
79724W        W44544   8.165  17.283   4.345
79725W        W44545   6.767  43.275  10.758
79726W        W44546   6.907  18.205  14.452
79727W        W44547  17.312  38.958   1.910
79728W        W44548  38.713  37.588  12.453
79729W        W44549  33.917  33.964  14.605
79730W        W44550  30.456  38.553   3.389
79731W        W44551   0.934  26.620   0.779
79732W        W44552  27.404  29.142  12.406
79733W        W44553   5.439  29.486  13.018
79734W        W44554  22.507  42.506  12.452
79735W        W44555   6.973  30.507  13.871
79736W        W44556  34.548   6.974   0.701
79737W        W44557   4.987  27.536  11.155
79738W        W44558  11.683  41.460  11.076
79739W        W44559  20.094   1.509   5.070
79740W        W44560  16.763  13.622  11.373
79741W        W44561  37.753   8.273  13.881
79742W        W44562   9.358  25.698   5.267
79743W        W44563   9.618  13.610  12.404
79744W        W44564  42.491  29.440   0.266
79745W        W44565  35.352  41.856  10.610
79746W        W44566   6.899  14.148   2.780
79747W        W44567  39.998  26.311  14.089
79748W        W44568  18.141  10.554   2.185
79749W        W44569  43.827  20.243   3.341
79750W        W44570  29.487   5.176  14.066
79751W        W44571  27.079  31.486  11.493
79752W        W44572  43.058  40.613   5.057
79753W        W44573   5.608  27.674   1.257
79754W        W44574   7.707   3.737  14.794
79755W        W44575   7.622  11.097  10.755
79756W        W44576  37.418  41.296  10.687
79757W        W44577   7.645   8.711  12.365
79758W        W44578   2.267  34.353   4.384
79759W        W44579  41.411  22.781  13.015
79760W        W44580  29.557   6.703   0.874
79761W        W44581   5.159  23.599   2.734
79762W        W44582  33.951  44.975  10.279
79763W        W44583  31.018  28.567  11.215
79764W        W44584  30.098  25.081  10.257
79765W        W44585   5.879  30.059   3.521
79766W        W44586  27.991  44.831   4.626
79767W        W44587  18.169   7.581   4.241
79768W        W44588  10.790   1.896   2.383
79769W        W44589  36.045  37.423   3.996
79770W        W44590   8.347  28.466  13.519
79771W        W44591  29.866  13.357  11.510
79772W        W44592  28.687  24.237   2.335
79773W        W44593  22.011   7.754  14.829
79774W        W44594  25.903  41.275   2.784
79775W        W44595   3.249  40.573   2.648
79776W        W44596   1.433  31.149  14.077
79777W        W44597  12.853  41.466  11.529
79778W        W44598  38.926   7.469  12.036
79779W        W44599   0.786  26.156  14.169
79780W        W44600   4.285  41.130  11.179
79781W        W44601   7.254  20.150  12.294
79782W        W44602   5.558  14.537  14.800
79783W        W44603   8.392  10.184   2.329
79784W        W44604  32.249  41.531  10.822
79785W        W44605   1.539  37.692   2.736
79786W        W44606   5.362   1.190   4.119
79787W        W44607  23.529  22.505  11.425
79788W        W44608  29.892  37.847  11.476
79789W        W44609  42.003  42.397  11.191
79790W        W44610  38.622   7.805  11.104
79791W        W44611  44.684  23.038   3.307
79792W        W44612  15.636  24.949   0.229
79793W        W44613  32.592  12.832   1.701
79794W        W44614  44.529  26.439   1.281
79795W        W44615  12.375  20.740  14.722
79796W        W44616   0.351  16.251   2.286
79797W        W44617  40.298  26.572   3.489
79798W        W44618  15.709  36.979   5.344
79799W        W44619  32.104  32.923  10.730
79800W        W44620   0.763  27.451   3.557
79801W        W44621  16.801  27.984  14.561
79802W        W44622  18.885  10.149   1.486
79803W        W44623   8.792  31.866  12.908
79804W        W44624  26.007  14.259   0.527
79805W        W44625  16.743  20.505   1.861
79806W        W44626  43.961   6.830   1.266
79807W        W44627   2.749  33.881   3.219
79808W        W44628  41.203  40.256  10.791
79809W        W44629  27.138  21.535   3.671
79810W        W44630  13.113  30.070  12.981
79811W        W44631  21.220  30.690   2.605
79812W        W44632  30.820  39.238   0.944
79813W        W44633   0.348  25.659  10.703
79814W        W44634  32.902  38.882   3.711
79815W        W44635   7.285   6.787  14.078
79816W        W44636  22.948  12.256   0.471
79817W        W44637  44.355  42.982  12.853
79818W        W44638  40.562  21.457   3.332
79819W        W44639  32.540  41.873  12.948
79820W        W44640  32.835  29.853  12.595
79821W        W44641  39.261  42.530   1.410
79822W        W44642   4.329  20.626   1.742
79823W        W44643  40.275  23.774  12.892
79824W        W44644  27.252  39.043   4.076
79825W        W44645  43.516  17.588  10.864
79826W        W44646  24.782  18.215  11.973
79827W        W44647  42.835  24.228   2.206
79828W        W44648  18.866  15.721   0.296
79829W        W44649  34.990  21.643   1.401
79830W        W44650  16.783  30.255  13.252
79831W        W44651  25.729  18.998   3.982
79832W        W44652  44.059  20.095   2.905
79833W        W44653  23.138   9.453  12.382
79834W        W44654  29.115  36.007  14.291
79835W        W44655  21.098  14.817   4.021
79836W        W44656  10.271   2.027   3.351
79837W        W44657  25.117  23.042  14.471
79838W        W44658  42.575  13.975   4.174
79839W        W44659  15.322   7.415  11.451
79840W        W44660  38.098   3.765  14.029
79841W        W44661  13.077   2.833  10.685
79842W        W44662   1.242  19.748   2.163
79843W        W44663  43.279  39.070  12.081
79844W        W44664   0.981  17.587  13.691
79845W        W44665  43.820   2.676  14.112
79846W        W44666  42.802  26.802   3.290
79847W        W44667  40.598  32.384  13.052
79848W        W44668  24.693  27.663   0.304
79849W        W44669  43.102  43.558  11.527
79850W        W44670  25.977  34.344   1.341
79851W        W44671   0.878   6.146  13.460
79852W        W44672  18.015   8.174  14.848
79853W        W44673  15.756   8.391   4.803
79854W        W44674  17.995  32.371  12.449
79855W        W44675   5.139   1.859   4.607
79856W        W44676   6.663  38.853   0.318
79857W        W44677  14.999  34.885  14.757
79858W        W44678   3.822  42.063  11.308
79859W        W44679  31.286  16.557   0.238
79860W        W44680  24.012   5.741   2.497
79861W        W44681   3.770  42.866   0.490
79862W        W44682   9.411   6.748  10.589
79863W        W44683  26.182   6.339   0.137
79864W        W44684   7.792  16.332   2.306
79865W        W44685   8.004  26.310  11.169
79866W        W44686  18.533  43.773  12.670
79867W        W44687  44.959  22.157  13.768
79868W        W44688  12.178  11.615   3.745
79869W        W44689  31.622  20.076   1.679
79870W        W44690  20.994  43.325  12.967
79871W        W44691  17.549  41.583   0.400
79872W        W44692   0.683   2.189  13.010
79873W        W44693   5.770  38.873  12.445
79874W        W44694  43.941  38.963  13.044
79875W        W44695   0.450   3.158  13.830
79876W        W44696  36.225  16.283   4.981
79877W        W44697  28.552  37.835   2.248
79878W        W44698  39.332   2.401   5.016
79879W        W44699  14.898   3.426   4.267
79880W        W44700  22.391  38.130  14.826
79881W        W44701   2.872  37.089  11.489
79882W        W44702  12.108   5.671   3.657
79883W        W44703  18.982  13.509   3.807
79884W        W44704  21.257  41.424  11.271
79885W        W44705  22.994  35.770   5.253
79886W        W44706  35.410  30.433  10.395
79887W        W44707  40.395  26.814   0.037
79888W        W44708  19.655  41.854  14.568
79889W        W44709  30.131  38.599  10.737
79890W        W44710   3.342  23.891  11.110
79891W        W44711  16.372  39.856   0.886
79892W        W44712  41.809  21.392  12.594
79893W        W44713  31.368  13.143  13.336
79894W        W44714  24.940  12.795   2.175
79895W        W44715  23.334  14.868   4.139
79896W        W44716   4.280  29.686  11.668
79897W        W44717  43.801  40.818   1.356
79898W        W44718  44.288  29.697   0.434
79899W        W44719  22.945  17.888   0.286
79900W        W44720  43.969   5.193  10.583
79901W        W44721  35.137  36.021   2.391
79902W        W44722  16.582  11.334   2.918
79903W        W44723  20.226  31.968  12.448
79904W        W44724  13.885  39.136   4.450
79905W        W44725  11.182   1.403   3.765
79906W        W44726  35.069  22.192  14.368
79907W        W44727  27.538  11.277   2.713
79908W        W44728  13.912  23.352  13.371
79909W        W44729  24.423  27.039   1.622
79910W        W44730  20.977  25.906  14.040
79911W        W44731  20.053  41.779   1.212
79912W        W44732  20.479  39.685   3.678
79913W        W44733  17.039  11.869   1.597
79914W        W44734   6.800  44.857   4.090
79915W        W44735  34.910   8.765   0.724
79916W        W44736  21.607  41.129  13.042
79917W        W44737   9.391  32.639  13.324
79918W        W44738  39.380  12.765   2.635
79919W        W44739  18.093  26.733  10.967
79920W        W44740  22.912  40.885  11.393
79921W        W44741  37.125  21.227   0.904
79922W        W44742  23.881  41.890  12.538
79923W        W44743  33.761  36.000  14.481
79924W        W44744  22.036  18.144   3.231
79925W        W44745   9.740   8.437  12.638
79926W        W44746   7.850  34.890  14.573
79927W        W44747   0.835   5.487  12.386
79928W        W44748  31.046  17.190  11.146
79929W        W44749  32.306  15.358   4.147
79930W        W44750  10.447  34.372   5.029
79931W        W44751  42.262  10.786   0.500
79932W        W44752   2.865  11.350  13.586
79933W        W44753  33.380  44.316   4.105
79934W        W44754  12.569  38.884  12.446
79935W        W44755  27.613  42.704  12.206
79936W        W44756  12.308   2.756  14.097
79937W        W44757   7.434  41.967   0.129
79938W        W44758  25.870  26.677   4.998
79939W        W44759  21.771   2.656   2.687
79940W        W44760   2.544  35.515  11.564
79941W        W44761  15.395  23.080  14.206
79942W        W44762  38.417   5.113   2.188
79943W        W44763  25.381   5.306   4.905
79944W        W44764  40.316  12.168  12.133
79945W        W44765  23.682  43.550   4.443
79946W        W44766   2.004   8.667   4.127
79947W        W44767  15.794  25.219  14.814
79948W        W44768  11.332   4.551   1.852
79949W        W44769  21.587  39.075   4.166
79950W        W44770  41.847  16.285   4.763
79951W        W44771  36.893  34.948  14.068
79952W        W44772  17.199  10.154  13.859
79953W        W44773   5.117   4.111   0.405
79954W        W44774  38.037  36.613   4.665
79955W        W44775  19.828  22.520  14.757
79956W        W44776   5.851   2.240   3.569
79957W        W44777  15.886  18.062  14.311
79958W        W44778  31.394   4.595  11.956
79959W        W44779  14.323  25.556   4.084
79960W        W44780  24.660   1.786   0.945
79961W        W44781   2.522  42.253   3.975
79962W        W44782  24.111  35.346  10.167
79963W        W44783  18.324  16.061   3.723
79964W        W44784  11.355  16.627  11.119
79965W        W44785   5.208  12.072  12.467
79966W        W44786  21.754   3.695   1.240
79967W        W44787  17.132  25.579   3.948
79968W        W44788  20.630  22.370  12.116
79969W        W44789   3.247   1.113  10.906
79970W        W44790  27.568  12.872  11.624
79971W        W44791  35.778   2.758  14.884
79972W        W44792  37.806  37.444  12.513
79973W        W44793  43.883  29.396   0.490
79974W        W44794   5.668  20.729  13.239
79975W        W44795  10.878  16.088  14.325
79976W        W44796  42.878   2.224  14.870
79977W        W44797  12.031  18.232  12.517
79978W        W44798  39.575  24.036  12.985
79979W        W44799  28.607  38.270   0.915
79980W        W44800  33.623  30.087   1.615
79981W        W44801  38.091   1.276   1.245
79982W        W44802  39.902   4.007  14.545
79983W        W44803  27.980  21.755   1.073
79984W        W44804  14.547   2.209  12.882
79985W        W44805  37.960   4.380   2.296
79986W        W44806  37.947   4.507  13.073
79987W        W44807  25.938  31.436  13.982
79988W        W44808  24.565  11.118   1.981
79989W        W44809  37.954  39.591  13.578
79990W        W44810  11.255   3.658  14.536
79991W        W44811  38.823  38.888  11.538
79992W        W44812  25.966  33.906   0.037
79993W        W44813  26.684   7.898  12.361
79994W        W44814  36.885  32.947   1.412
79995W        W44815  40.011  40.862  12.583
79996W        W44816   9.643  39.355  10.703
79997W        W44817   8.436   8.797   2.276
79998W        W44818  35.053  15.075  13.326
79999W        W44819  17.316  11.692   3.204
80000W        W44820  27.735   2.857  12.457
80001W        W44821  30.070  13.300  13.874
80002W        W44822  36.769  43.080  13.443
80003W        W44823   5.231  20.170  10.691
80004W        W44824  25.399  43.739   4.454
80005W        W44825  11.318   0.058  12.576
80006W        W44826  10.953  20.226   3.890
80007W        W44827  12.065  40.758  11.226
80008W        W44828   0.731   5.634   0.931
80009W        W44829  36.825  37.855   2.226
80010W        W44830  23.399  31.465   1.630
80011W        W44831  30.722   2.920   1.806
80012W        W44832  14.974  14.882   0.709
80013W        W44833  25.827  36.260  10.252
80014W        W44834  38.392   2.914   0.297
80015W        W44835  22.678   8.190   2.820
80016W        W44836  39.838  30.068  10.562
80017W        W44837   5.684  28.506  14.320
80018W        W44838   6.276   2.966   1.714
80019W        W44839  16.484  33.829  10.189
80020W        W44840   2.477  40.272   4.001
80021W        W44841  42.599  33.035  14.320
80022W        W44842  41.989   7.202  12.056
80023W        W44843  38.411  18.716  10.317
80024W        W44844   3.846   1.622   2.714
80025W        W44845  40.244  19.962   4.475
80026W        W44846  19.543  29.606   4.093
80027W        W44847  27.680  30.670  14.548
80028W        W44848   6.657  13.643   2.840
80029W        W44849  42.366  11.060   3.689
80030W        W44850   3.253  25.287  11.160
80031W        W44851  17.024  15.150   1.222
80032W        W44852   8.449  36.085   1.513
80033W        W44853  22.307   8.183  13.025
80034W        W44854  14.547  35.996   3.739
80035W        W44855   1.704  37.537  12.384
80036W        W44856  10.492  31.400   1.460
80037W        W44857  13.948  17.841   3.558
80038W        W44858   9.171  35.944  11.595
80039W        W44859  12.302  32.129   3.084
80040W        W44860  33.788  37.542   4.638
80041W        W44861  27.140   3.791   3.550
80042W        W44862  39.104  20.030  11.182
80043W        W44863  20.260  39.543  10.898
80044W        W44864  12.151   5.367   1.340
80045W        W44865  11.755  42.494  11.103
80046W        W44866  31.252  36.500  12.446
80047W        W44867  15.161  41.379  13.530
80048W        W44868  22.814  18.416  14.054
80049W        W44869  20.723  41.250   1.723
80050W        W44870  33.605  28.182   4.169
80051W        W44871  28.155  25.226   1.720
80052W        W44872  22.583   0.540   2.829
80053W        W44873  36.079   9.408  12.884
80054W        W44874  29.917  28.488  12.005
80055W        W44875   8.424  42.476  12.460
80056W        W44876   6.058   9.957   5.175
80057W        W44877  42.055   5.264   3.587
80058W        W44878  28.602   6.406   1.263
80059W        W44879  32.117  13.662  10.720
80060W        W44880  43.155  43.414  12.039
80061W        W44881  43.728  39.153   0.301
80062W        W44882  12.269  30.502   0.359
80063W        W44883  44.520  24.556  12.152
80064W        W44884  32.475  22.308   0.515
80065W        W44885  33.054  16.993  14.485
80066W        W44886  39.096  16.055   2.977
80067W        W44887   8.810  25.978  13.900
80068W        W44888  42.060  20.164  12.452
80069W        W44889  29.954  32.180   0.410
80070W        W44890  13.167   1.775  11.577
80071W        W44891  44.282  33.326   0.973
80072W        W44892   9.815  11.653  12.826
80073W        W44893   8.677  20.712  13.133
80074W        W44894   5.403  26.362  12.901
80075W        W44895  16.071  13.874   4.843
80076W        W44896  23.751  33.424   2.816
80077W        W44897  33.942  31.499  12.209
80078W        W44898  14.842  14.756   3.544
80079W        W44899   3.349  13.374  11.639
80080W        W44900   5.443  44.471   0.668
80081W        W44901  29.905  40.940  11.629
80082W        W44902  13.189   8.435  10.450
80083W        W44903  26.636  28.654   1.893
80084W        W44904  25.193  30.672   3.742
80085W        W44905   7.000   7.864   1.839
80086W        W44906  31.513   3.190  11.991
80087W        W44907   7.786  18.963  14.311
80088W        W44908   5.858  27.459  12.505
80089W        W44909   9.879  18.656   4.307
80090W        W44910  41.373  38.941   3.377
80091W        W44911  10.856  35.146   4.658
80092W        W44912  36.603   2.955  12.670
80093W        W44913  39.508  22.789   3.271
80094W        W44914  28.940  27.247  10.689
80095W        W44915  32.998  11.442  14.922
80096W        W44916  29.408  19.485   4.808
80097W        W44917  11.081   2.818   0.519
80098W        W44918  21.551  32.156   0.400
80099W        W44919   1.417  10.648  13.003
80100W        W44920  41.494  21.686   4.409
80101W        W44921  24.662  37.155  11.718
80102W        W44922  15.797  28.693   9.899
80103W        W44923  16.065  35.881   3.605
80104W        W44924  29.579  19.221   5.205
80105W        W44925  18.051  24.592  14.727
80106W        W44926  43.242  42.010  14.465
80107W        W44927  23.313  23.234  12.050
80108W        W44928  36.846  33.387   4.579
80109W        W44929  17.797  44.043  12.962
80110W        W44930  28.189  16.268   1.323
80111W        W44931   4.657  22.445   4.523
80112W        W44932   0.940   0.265   1.408
80113W        W44933  37.332   3.285  13.134
80114W        W44934  12.774  37.735  11.007
80115W        W44935  33.596  24.546   1.711
80116W        W44936  25.226  30.546  13.410
80117W        W44937  32.570  37.116   2.366
80118W        W44938  40.334  38.599  14.824
80119W        W44939   8.281  35.793   3.417
80120W        W44940  19.577  20.293   2.262
80121W        W44941  19.707  10.863  13.057
80122W        W44942  10.039  42.002  14.880
80123W        W44943  39.912   6.544  10.636
80124W        W44944  12.545  41.810  14.855
80125W        W44945  44.448   5.994   2.255
80126W        W44946   2.356   7.518  13.930
80127W        W44947  15.290  35.134  13.400
80128W        W44948   8.546  33.176   2.584
80129W        W44949  10.861   2.674  14.235
80130W        W44950   0.488  40.289  11.604
80131W        W44951  33.518  25.456   0.481
80132W        W44952  24.684   7.356   4.842
80133W        W44953  26.109  39.299  11.641
80134W        W44954  16.567   4.510  14.301
80135W        W44955  39.091  20.543  13.473
80136W        W44956  25.508   7.962   3.678
80137W        W44957  43.912  26.382  13.815
80138W        W44958   7.858  41.364  10.563
80139W        W44959  34.510  35.115   0.231
80140W        W44960  27.114  41.368  11.897
80141W        W44961   7.839  11.164  10.281
80142W        W44962  22.288  36.457   1.240
80143W        W44963   9.385  25.476   1.335
80144W        W44964  27.199  33.862  12.421
80145W        W44965  13.396  19.672  10.691
80146W        W44966  20.716  43.685   9.812
80147W        W44967  34.624  20.542   4.646
80148W        W44968  24.113  14.587   1.247
80149W        W44969  29.042  30.809  12.862
80150W        W44970  10.691  40.543  13.116
80151W        W44971   4.163  27.120  13.892
80152W        W44972  33.478  42.254   4.814
80153W        W44973  17.521  26.673  13.877
80154W        W44974  37.259  32.205   4.094
80155W        W44975  43.502   7.400  13.047
80156W        W44976   3.744   4.414  14.220
80157W        W44977  36.768  19.319   0.461
80158W        W44978  32.462   1.867  11.291
80159W        W44979  18.095  39.002   4.064
80160W        W44980  20.560  40.933  14.540
80161W        W44981  35.487  26.629   3.157
80162W        W44982   4.701  26.636  12.092
80163W        W44983  30.237  33.106  11.931
80164W        W44984  18.064  28.255   2.227
80165W        W44985  29.642  25.298  10.419
80166W        W44986   8.439  13.101   3.325
80167W        W44987  28.064   6.690   4.261
80168W        W44988  16.052  26.629  13.090
80169W        W44989  23.599  38.320   1.250
80170W        W44990  33.314  28.039  10.662
80171W        W44991  14.252  13.179   4.591
80172W        W44992  16.397  14.874  11.798
80173W        W44993  29.338   2.064   1.330
80174W        W44994  22.842   7.566   4.167
80175W        W44995  22.494  27.537  14.471
80176W        W44996   8.151  34.049   0.080
80177W        W44997  22.031  27.650   0.810
80178W        W44998  23.863  30.114   2.736
80179W        W44999   8.896   9.247   0.860
80180W        W45000  36.485   0.009  12.542
80181W        W45001  33.838   4.055   0.933
80182W        W45002  44.824  28.385  13.985
80183W        W45003  17.889  18.962   2.425
80184W        W45004   1.521  44.995  12.873
80185W        W45005  30.201  40.385  13.463
80186W        W45006  25.979  10.270   0.891
80187W        W45007  15.274  28.748  11.076
80188W        W45008   5.256  41.849  12.561
80189W        W45009  15.208  11.662  14.084
80190W        W45010   8.705  24.070   0.002
80191W        W45011  34.979  27.848  11.956
80192W        W45012  33.609  42.485  10.540
80193W        W45013  38.553  37.813   1.906
80194W        W45014  43.522  12.793  10.375
80195W        W45015  35.505  11.243  11.978
80196W        W45016  31.895   4.752   1.896
80197W        W45017  10.127  37.460   2.401
80198W        W45018  37.635   8.730  11.246
80199W        W45019   1.953  44.511  11.975
80200W        W45020  32.385  26.319  11.316
80201W        W45021  23.586  28.809  11.984
80202W        W45022  25.309   1.331   2.862
80203W        W45023  35.023  43.429   3.686
80204W        W45024  11.234  18.844  11.138
80205W        W45025  37.246  40.894   0.400
80206W        W45026  34.275  18.158   4.557
80207W        W45027  31.855   5.668  13.085
80208W        W45028  40.073  10.620   5.025
80209W        W45029   6.382  39.797   3.787
80210W        W45030  44.465  28.484   0.207
80211W        W45031  10.010  29.447  10.331
80212W        W45032  32.459  40.696   3.787
80213W        W45033  28.526   3.386  13.448
80214W        W45034  41.458  35.260  12.625
80215W        W45035   9.349  19.241   3.197
80216W        W45036  34.778  11.329  11.520
80217W        W45037  23.561  14.600   2.646
80218W        W45038  17.149  18.680   4.604
80219W        W45039   1.528  12.938  14.515
80220W        W45040   2.709  14.023   4.149
80221W        W45041  17.742  34.110  10.583
80222W        W45042  23.566  11.595  13.882
80223W        W45043  33.825   6.423   3.234
80224W        W45044  11.948  27.585  13.214
80225W        W45045  14.195   8.636   2.128
80226W        W45046  16.459  29.893   0.487
80227W        W45047  17.631  14.951  14.753
80228W        W45048  43.656  26.903  11.623
80229W        W45049  24.167  38.455  13.835
80230W        W45050  38.507  41.629   0.132
80231W        W45051  22.479   7.521  14.304
80232W        W45052  26.627  42.557  11.167
80233W        W45053  16.234  33.097   4.436
80234W        W45054   4.518  44.800   4.726
80235W        W45055  33.869  33.985  12.690
80236W        W45056  39.092  11.147  10.430
80237W        W45057  25.148  12.670  14.840
80238W        W45058   2.904  10.381   2.836
80239W        W45059  10.589  30.737   0.905
80240W        W45060   7.179  10.439  12.963
80241W        W45061  20.231  32.037   1.874
80242W        W45062  34.113  30.916   4.548
80243W        W45063  29.450  30.554  12.679
80244W        W45064   5.451  17.295  12.226
80245W        W45065  37.479  31.986   4.541
80246W        W45066  21.598  36.346   3.266
80247W        W45067  18.407  32.231  11.951
80248W        W45068  32.933  35.074   0.171
80249W        W45069  37.325   3.199   4.066
80250W        W45070  17.307  14.086  12.672
80251W        W45071  21.986  31.365   2.282
80252W        W45072  21.014  27.766   9.742
80253W        W45073  16.441  42.860   3.853
80254W        W45074  10.384  40.427  10.483
80255W        W45075   2.674  26.612   3.185
80256W        W45076  44.093  32.921   1.261
80257W        W45077   5.964  38.832  12.986
80258W        W45078   0.819  23.482   2.173
80259W        W45079   6.602  35.999  14.457
80260W        W45080  14.583  36.480   1.348
80261W        W45081   7.457  15.221  10.290
80262W        W45082  44.542  36.779  13.590
80263W        W45083   4.440  29.733  13.648
80264W        W45084  41.909  28.045  14.324
80265W        W45085  44.991  11.268  13.878
80266W        W45086  42.785  23.638  14.932
80267W        W45087  21.971  20.074   0.356
80268W        W45088  37.541  12.709   1.191
80269W        W45089  29.377   3.993  13.375
80270W        W45090  37.050  24.444  14.423
80271W        W45091  37.337   9.278   3.199
80272W        W45092  43.376  38.805   2.212
80273W        W45093   3.515  43.959   4.213
80274W        W45094   0.762  23.977   4.097
80275W        W45095  25.695   0.759   4.696
80276W        W45096  38.438  23.738  13.978
80277W        W45097  30.178  26.049   2.344
80278W        W45098   7.252  21.510   2.609
80279W        W45099  13.539   0.309  13.351
80280W        W45100  22.619  33.095   2.540
80281W        W45101  40.284  34.906   3.836
80282W        W45102  27.551   5.201  12.833
80283W        W45103   7.397  31.641   2.282
80284W        W45104  13.898  39.332   3.158
80285W        W45105   6.947  26.409   2.177
80286W        W45106   1.975   2.539  11.189
80287W        W45107   9.125  30.614   0.957
80288W        W45108  34.028  44.257  11.466
80289W        W45109  22.216   7.290   3.088
80290W        W45110   1.304   8.895   2.123
80291W        W45111  22.197   0.391  11.292
80292W        W45112   0.612  10.386   2.668
80293W        W45113   0.276  16.139   3.811
80294W        W45114  21.682   9.225  12.449
80295W        W45115  25.393  40.852   0.465
80296W        W45116   3.453  22.977  11.774
80297W        W45117   1.855  21.314   3.213
80298W        W45118  21.247  20.938   1.389
80299W        W45119   7.687  34.170  11.959
80300W        W45120  24.045  29.386  12.448
80301W        W45121  20.125  38.822   0.039
80302W        W45122  21.993  25.201   1.153
80303W        W45123  20.227  43.977   1.697
80304W        W45124  12.838  22.217  13.501
80305W        W45125   2.810  22.277  14.185
80306W        W45126  18.190  18.473  13.077
80307W        W45127  30.059  42.768   3.984
80308W        W45128  20.191  18.342  11.723
80309W        W45129  28.688  37.829  12.948
80310W        W45130   2.917  20.773   0.738
80311W        W45131  29.523  37.474  11.586
80312W        W45132  41.452  20.500  14.961
80313W        W45133   1.504  33.978  14.607
80314W        W45134  36.458  21.146   2.328
80315W        W45135  39.449  37.046   2.694
80316W        W45136  44.847  12.301   4.545
80317W        W45137  32.880  39.832   0.766
80318W        W45138   7.517   9.663  12.444
80319W        W45139  21.847  26.421   3.727
80320W        W45140  14.768  39.091  13.454
80321W        W45141  15.204  14.666  11.168
80322W        W45142  22.488  19.334  11.101
80323W        W45143  39.323   0.274   4.560
80324W        W45144   3.779  29.752  11.586
80325W        W45145  22.665  23.694  11.563
80326W        W45146  28.254  14.716   0.414
80327W        W45147   0.036  44.293  10.788
80328W        W45148  40.431  16.027   4.773
80329W        W45149  20.928   1.942  14.836
80330W        W45150   1.315  17.547  11.153
80331W        W45151  30.190  25.508  11.857
80332W        W45152   1.480  21.459  11.460
80333W        W45153  41.443  17.210  14.536
80334W        W45154  17.226  11.350   3.565
80335W        W45155   3.278  41.006   4.361
80336W        W45156  15.226  25.243  10.598
80337W        W45157  18.060   5.487   1.991
80338W        W45158   2.744  12.906   3.757
80339W        W45159  11.820  16.748  11.673
80340W        W45160   1.427   2.368   1.060
80341W        W45161   2.666  27.123  14.491
80342W        W45162  24.726  26.809   0.614
80343W        W45163  10.185   8.945   0.889
80344W        W45164  39.075  23.860  11.614
80345W        W45165  26.786  30.456  10.871
80346W        W45166  12.261  35.615  13.066
80347W        W45167  35.822  15.350  14.811
80348W        W45168  23.168  20.288  13.896
80349W        W45169  16.119   1.447   2.853
80350W        W45170  12.135   1.021  12.098
80351W        W45171  13.290  44.335   4.292
80352W        W45172  33.609  10.449   1.172
80353W        W45173  11.388  29.896   1.635
80354W        W45174  15.189   8.353   2.601
80355W        W45175   5.749  14.234  12.789
80356W        W45176  12.182  26.380   5.281
80357W        W45177   6.652  28.985   4.388
80358W        W45178  38.170  13.426  14.700
80359W        W45179  20.770  34.559   1.033
80360W        W45180  27.055  35.425  13.886
80361W        W45181   1.479  38.346  14.445
80362W        W45182  17.002  21.559   0.442
80363W        W45183  23.944   2.984  11.459
80364W        W45184  31.044  10.825   2.510
80365W        W45185   3.888   0.693  14.391
80366W        W45186   7.172  28.183   3.349
80367W        W45187  44.189  23.259   3.847
80368W        W45188  15.527  38.753  11.231
80369W        W45189   2.735  26.021  13.936
80370W        W45190  24.596   0.941  10.974
80371W        W45191  16.632   5.510  14.336
80372W        W45192  44.925  42.456  12.313
80373W        W45193  15.092  25.942   0.742
80374W        W45194  13.786  12.217   4.336
80375W        W45195  15.782   3.848  12.520
80376W        W45196  20.889  19.750   1.928
80377W        W45197  37.862  21.160  11.690
80378W        W45198  35.313  42.818   2.705
80379W        W45199  16.051  30.137   0.798
80380W        W45200  33.156  29.024   3.750
80381W        W45201  18.397  22.066   3.656
80382W        W45202  13.438   8.076   3.811
80383W        W45203  40.064  29.014  14.228
80384W        W45204  25.707  18.758   1.627
80385W        W45205  39.513  40.367   1.659
80386W        W45206  22.126  27.776   1.305
80387W        W45207   6.941  15.859   4.507
80388W        W45208  44.025  29.343   3.353
80389W        W45209  22.175  25.235  13.413
80390W        W45210  29.309  39.460  13.546
80391W        W45211  18.848   0.715   2.738
80392W        W45212  44.648  26.679  11.583
80393W        W45213  33.097  10.321   3.708
80394W        W45214  29.890   0.096  12.527
80395W        W45215  12.460  39.785   3.750
80396W        W45216  23.020  18.160   2.361
80397W        W45217  26.246  16.305  12.053
80398W        W45218  36.970  37.377  12.133
80399W        W45219  25.617  25.649   2.445
80400W        W45220  27.881  41.777  11.962
80401W        W45221  24.472   3.719   0.735
80402W        W45222   7.407  13.719  13.892
80403W        W45223  18.743   2.279  14.902
80404W        W45224   8.663  26.689   2.910
80405W        W45225   1.639  14.565  13.943
80406W        W45226  24.231  32.493   2.220
80407W        W45227  30.350  20.277  14.324
80408W        W45228  32.707   7.205  10.322
80409W        W45229  21.124  44.937   4.110
80410W        W45230  15.893  26.392   4.198
80411W        W45231  19.075  44.568  12.730
80412W        W45232  12.061  26.690   3.615
80413W        W45233  20.544  22.488  11.129
80414W        W45234  13.592  32.983   1.851
80415W        W45235  44.840  12.734  13.010
80416W        W45236   5.140  37.666   1.884
80417W        W45237  14.336  13.839  12.925
80418W        W45238  37.181   6.138   3.739
80419W        W45239  13.616  22.447   0.007
80420W        W45240  32.422   7.612   2.685
80421W        W45241   1.935  32.079   4.675
80422W        W45242  21.727  10.922  14.364
80423W        W45243  35.868   5.939   2.238
80424W        W45244  37.365  39.408  12.482
80425W        W45245  10.210  34.551  12.440
80426W        W45246  27.015  38.862  14.859
80427W        W45247  14.353   4.138  14.840
80428W        W45248  24.006  25.454   0.249
80429W        W45249  18.055  13.297   0.150
80430W        W45250   3.651  13.845  11.652
80431W        W45251  24.192  13.351  11.536
80432W        W45252   9.105   8.972  12.425
80433W        W45253  38.916  10.787   0.480
80434W        W45254   0.880  35.491  12.460
80435W        W45255  39.473  44.912   1.698
80436W        W45256   5.615   4.185   0.464
80437W        W45257  26.574  15.999   3.214
80438W        W45258  23.860   9.954   5.408
80439W        W45259  30.508  36.088   4.297
80440W        W45260  24.751  38.609  10.719
80441W        W45261   8.128   7.818   2.739
80442W        W45262  18.757  16.559   0.274
80443W        W45263  16.538   1.566   1.128
80444W        W45264  12.791   3.847   4.286
80445W        W45265   6.767  38.545  11.509
80446W        W45266  18.337  42.718  13.312
80447W        W45267  31.354   7.260   1.154
80448W        W45268  29.669  16.245  14.748
80449W        W45269  19.800  20.260   1.335
80450W        W45270  13.727  29.455   0.418
80451W        W45271  10.591  29.199   9.760
80452W        W45272  13.211  27.156   3.337
80453W        W45273   1.823  10.138   4.246
80454W        W45274  25.423  11.452   2.634
80455W        W45275  40.333  11.207   4.582
80456W        W45276  39.080  19.129   1.892
80457W        W45277   6.725   1.759   4.361
80458W        W45278  39.326  32.183  10.769
80459W        W45279  33.897  18.545   3.783
80460W        W45280  15.079  11.423  11.646
80461W        W45281  35.975  14.660   0.278
80462W        W45282  23.534  42.824  12.056
80463W        W45283  11.704   0.319   3.571
80464W        W45284  32.453  40.138   4.542
80465W        W45285   0.969  21.108  11.250
80466W        W45286   7.723  29.913  12.991
80467W        W45287  14.772   5.974  13.270
80468W        W45288  12.305   2.478   1.335
80469W        W45289   5.911  13.861  14.044
80470W        W45290  25.408   9.451   2.865
80471W        W45291  13.770  40.609  12.612
80472W        W45292  44.786  33.931   3.191
80473W        W45293   5.827  23.339  13.381
80474W        W45294  11.304  26.097  12.484
80475W        W45295   8.155  19.220   1.306
80476W        W45296  13.646  15.157  13.165
80477W        W45297   5.169  36.824  11.874
80478W        W45298   6.968  12.913   4.588
80479W        W45299  24.718  13.776  12.049
80480W        W45300  35.121  17.627   3.096
80481W        W45301  19.521  30.981   2.793
80482W        W45302   0.834   1.431   4.602
80483W        W45303  14.263  40.820   1.299
80484W        W45304  36.994  29.024   2.277
80485W        W45305  30.938  21.606   0.194
80486W        W45306   3.633  26.627   4.132
80487W        W45307   5.403  32.459   2.361
80488W        W45308  23.678  18.490  10.491
80489W        W45309  17.146  40.087  13.860
80490W        W45310   7.166  17.990   3.230
80491W        W45311   9.820  32.691  10.644
80492W        W45312  44.295  44.923   3.731
80493W        W45313   8.888  33.174   1.043
80494W        W45314  35.609  25.350  12.481
80495W        W45315  11.157  26.651   0.787
80496W        W45316  28.483  29.073   1.680
80497W        W45317  32.002  36.533   4.641
80498W        W45318   9.794  26.942  14.003
80499W        W45319  39.308   9.663   2.140
80500W        W45320   5.429   3.363  12.626
80501W        W45321  24.566  14.640  11.641
80502W        W45322  30.196   7.263   0.298
80503W        W45323   6.306  28.989   4.002
80504W        W45324  42.714   6.364  13.457
80505W        W45325   2.829  40.873  10.344
80506W        W45326  12.237  42.942   2.648
80507W        W45327  39.324  33.608   4.864
80508W        W45328  24.033  39.963  13.359
80509W        W45329  24.379  18.175   3.692
80510W        W45330  32.126  19.137   4.509
80511W        W45331  25.095  16.167  13.924
80512W        W45332  43.570  25.636  14.334
80513W        W45333  19.119  26.753   3.654
80514W        W45334  28.992  36.555   2.802
80515W        W45335  18.454   3.194  12.247
80516W        W45336  34.343  11.395  10.238
80517W        W45337  15.275  21.292  13.828
80518W        W45338  17.763   6.730  13.172
80519W        W45339  41.283  31.130  12.548
80520W        W45340  22.784  14.152  14.495
80521W        W45341  10.352  34.564   0.438
80522W        W45342  17.333  24.402  10.990
80523W        W45343  30.021   7.508  14.855
80524W        W45344   8.772   9.946  11.139
80525W        W45345  26.844  15.692  11.623
80526W        W45346  42.247  22.692   2.784
80527W        W45347  36.557  41.715   4.084
80528W        W45348  27.565   3.240  14.975
80529W        W45349   6.931  23.682  13.074
80530W        W45350  38.317  26.510   4.465
80531W        W45351  14.614  31.911  14.942
80532W        W45352  16.953  11.080   2.596
80533W        W45353  33.001  25.668  14.914
80534W        W45354  21.662   4.445  14.456
80535W        W45355  37.358   9.383   1.451
80536W        W45356   0.286  19.841  10.642
80537W        W45357  15.179   9.634  13.459
80538W        W45358  16.479  38.718   3.694
80539W        W45359  39.286   9.106   3.140
80540W        W45360  44.065  24.087  14.351
80541W        W45361  32.992  36.167  12.050
80542W        W45362  29.962  37.850   0.913
80543W        W45363  31.929   2.873  14.453
80544W        W45364  18.236   6.354   1.794
80545W        W45365  16.762  42.115  11.571
80546W        W45366  37.793  43.337  12.560
80547W        W45367  36.387  16.725   1.783
80548W        W45368  19.658  24.017  12.967
80549W        W45369  38.967   8.408  11.852
80550W        W45370  33.382  38.638  13.905
80551W        W45371  30.657  29.438   4.139
80552W        W45372   5.922  26.431   4.121
80553W        W45373  24.924  23.942  12.890
80554W        W45374  15.309   3.734   2.727
80555W        W45375  34.057   6.369  13.826
80556W        W45376  41.454  40.962   1.524
80557W        W45377  20.748  34.816   4.587
80558W        W45378  43.297  17.268   4.631
80559W        W45379  21.865  26.816  12.465
80560W        W45380  11.349  21.000   2.410
80561W        W45381  14.581  27.104  14.435
80562W        W45382  27.914  14.010  11.727
80563W        W45383  44.757  29.266  12.110
80564W        W45384   5.133  15.108   4.593
80565W        W45385  34.899  41.490  10.178
80566W        W45386  26.025  23.714   1.628
80567W        W45387  21.332  35.725   5.461
80568W        W45388  24.049  38.331   1.859
80569W        W45389  41.431  27.692  11.726
80570W        W45390  12.266   8.649  13.102
80571W        W45391   3.571  16.760   0.474
80572W        W45392  26.952   5.040   2.700
80573W        W45393  36.621  15.837   9.521
80574W        W45394  32.845  29.730   1.812
80575W        W45395  16.660   3.610  12.115
80576W        W45396  27.532  16.043  12.149
80577W        W45397  28.712  10.844  12.905
80578W        W45398  21.586   3.124   0.349
80579W        W45399  19.852  23.919   2.756
80580W        W45400  27.922  32.547   4.684
80581W        W45401   4.435  41.938  14.813
80582W        W45402  23.967  20.158   1.286
80583W        W45403  10.154   6.042  13.202
80584W        W45404  27.726  23.686  12.952
80585W        W45405  20.966   7.697   0.490
80586W        W45406  34.209  17.192   2.394
80587W        W45407  14.196  11.420   2.865
80588W        W45408   3.831  36.809   3.636
80589W        W45409  41.748  41.400   2.327
80590W        W45410  32.941  12.542  13.932
80591W        W45411   7.662   2.730   0.019
80592W        W45412  41.322   4.736  14.487
80593W        W45413  42.334  26.093  12.087
80594W        W45414   9.343  32.442   3.730
80595W        W45415   7.632  13.241   4.949
80596W        W45416  28.554  12.073  14.487
80597W        W45417  42.845  30.965   0.244
80598W        W45418  15.780  19.446   1.924
80599W        W45419   8.168  11.570   0.243
80600W        W45420   3.586  17.644   1.297
80601W        W45421  28.163  41.963   3.261
80602W        W45422  21.672  16.552   2.839
80603W        W45423  14.712  16.794  11.138
80604W        W45424  22.047   0.742   2.328
80605W        W45425  15.212  11.785  10.717
80606W        W45426  42.369   4.190   1.773
80607W        W45427  32.948  34.099   2.781
80608W        W45428  25.009  13.423  14.483
80609W        W45429  11.107  19.749   2.174
80610W        W45430  32.034  17.354   1.452
80611W        W45431  31.520  30.958  11.607
80612W        W45432   6.317  22.632  10.276
80613W        W45433  23.046   4.744  11.709
80614W        W45434  36.976  19.060   1.818
80615W        W45435  25.327  34.895  11.397
80616W        W45436  37.755  29.737   3.593
80617W        W45437   6.520  19.576  12.498
80618W        W45438   0.830  40.872   4.540
80619W        W45439  18.283  28.674  10.512
80620W        W45440  27.100  32.998   4.901
80621W        W45441   4.232  31.045  14.670
80622W        W45442  34.048  11.166   3.822
80623W        W45443   7.660  26.552   0.218
80624W        W45444  26.957  16.132   0.766
80625W        W45445  21.629  15.032  13.425
80626W        W45446  41.398  27.096  11.911
80627W        W45447  41.442  22.104  13.942
80628W        W45448   2.153  19.189  11.557
80629W        W45449  16.805  15.063   0.756
80630W        W45450  37.362  36.330  11.639
80631W        W45451  44.900   8.640   0.052
80632W        W45452  20.523   9.910   2.837
80633W        W45453  18.067  34.908  13.853
80634W        W45454   5.844  43.068  12.910
80635W        W45455  36.452   8.977   1.418
80636W        W45456  34.593   9.074   3.299
80637W        W45457  19.735  30.601  12.952
80638W        W45458  36.611  34.072  12.484
80639W        W45459  24.742  32.917  12.086
80640W        W45460  40.745   9.141   2.392
80641W        W45461  22.111  34.670  12.437
80642W        W45462  30.579  42.964  11.051
80643W        W45463   1.978  35.770  12.618
80644W        W45464  38.579   6.161  12.869
80645W        W45465   5.281  42.461   3.303
80646W        W45466  38.942  39.747  12.984
80647W        W45467  26.121   9.085  10.366
80648W        W45468  17.617   3.102   2.689
80649W        W45469  27.074  34.724   0.272
80650W        W45470  40.427  34.968   2.918
80651W        W45471  42.651  26.021  13.072
80652W        W45472  14.018   9.712  13.051
80653W        W45473  41.920  17.083  14.300
80654W        W45474  35.047  28.049  10.280
80655W        W45475  38.038  20.145  14.036
80656W        W45476   2.429  24.662   2.194
80657W        W45477  17.607  41.570  14.464
80658W        W45478  19.073   0.329  12.037
80659W        W45479  36.248  30.276   2.771
80660W        W45480   7.508  40.871   1.985
80661W        W45481  14.314  25.223   4.818
80662W        W45482  44.299  17.648   3.345
80663W        W45483  28.379   0.040  11.999
80664W        W45484   1.542   6.636   4.256
80665W        W45485  23.982   1.945   1.554
80666W        W45486   4.882  11.326  11.534
80667W        W45487  18.712  44.166   0.013
80668W        W45488  30.062  23.492   4.069
80669W        W45489  44.907  15.968  13.364
80670W        W45490  39.012  44.656  14.762
80671W        W45491   3.274  29.436  10.592
80672W        W45492  32.180  27.371  10.766
80673W        W45493  26.008  41.033   1.333
80674W        W45494  38.991  34.375  10.750
80675W        W45495  34.175  15.587   3.971
80676W        W45496  39.620  14.689   2.698
80677W        W45497  28.440  12.681  12.076
80678W        W45498  34.459  42.969  11.542
80679W        W45499  28.273   4.814   0.774
80680W        W45500  30.941  36.509   1.791
80681W        W45501  11.403  14.282   9.821
80682W        W45502  18.657  22.021  14.361
80683W        W45503   0.369  12.692  14.930
80684W        W45504  36.133   2.875   4.551
80685W        W45505  37.066  27.039   2.678
80686W        W45506  39.362  10.874  14.817
80687W        W45507  13.805  40.874   1.953
80688W        W45508  26.535  10.267  13.404
80689W        W45509   8.196  23.129   2.205
80690W        W45510  16.157  38.336  13.487
80691W        W45511  32.927  15.670  12.064
80692W        W45512  31.023  42.472  13.445
80693W        W45513   4.650  33.348  12.299
80694W        W45514  20.222  24.006   0.416
80695W        W45515  43.129  37.808   1.514
80696W        W45516  42.456  13.250   3.687
80697W        W45517   6.705  26.314   4.939
80698W        W45518  25.516  39.910   1.900
80699W        W45519  43.502   3.447  10.326
80700W        W45520   3.870  32.067  10.091
80701W        W45521   9.127  34.473  13.830
80702W        W45522  17.662  43.808  13.414
80703W        W45523  20.214  20.527  11.235
80704W        W45524   4.880  22.683  14.987
80705W        W45525  13.731  43.321   1.427
80706W        W45526   0.412  22.681   4.028
80707W        W45527  23.226   1.511  13.296
80708W        W45528  29.013   1.828   4.229
80709W        W45529   4.494   5.887  12.509
80710W        W45530   1.195  21.502  14.863
80711W        W45531  44.285  37.416  13.011
80712W        W45532  39.866  29.136   2.897
80713W        W45533  26.476   3.480   2.974
80714W        W45534  25.559  28.733   0.470
80715W        W45535  15.089   1.415   4.056
80716W        W45536   1.002  35.560  13.503
80717W        W45537  33.373  21.197   3.278
80718W        W45538  30.877   5.962  10.726
80719W        W45539  39.355  19.528  12.110
80720W        W45540  13.008  15.070   2.180
80721W        W45541   8.858  44.298  12.133
80722W        W45542  28.099  28.160   4.433
80723W        W45543  44.404  37.285   1.213
80724W        W45544  43.051  39.576  12.966
80725W        W45545  44.347   5.880   1.292
80726W        W45546  35.949  32.903   4.907
80727W        W45547  41.918   1.405  12.115
80728W        W45548  37.033  30.526   0.234
80729W        W45549  31.460  34.517  12.822
80730W        W45550  42.114  37.513  11.548
80731W        W45551  25.036  13.582   4.639
80732W        W45552  29.637   6.347   1.269
80733W        W45553  13.231  20.238   2.278
80734W        W45554  18.083  14.386   1.252
80735W        W45555  21.729  17.743  12.709
80736W        W45556   1.370  32.662  11.370
80737W        W45557  33.893   0.568   3.653
80738W        W45558  32.988  44.890  11.232
80739W        W45559  30.040  35.971   4.049
80740W        W45560  25.746  43.446   1.226
80741W        W45561   9.857  30.038   2.874
80742W        W45562  37.473  26.757   0.270
80743W        W45563  36.922  22.687   1.382
80744W        W45564  40.532   8.162  13.717
80745W        W45565  19.670  43.985   2.841
80746W        W45566   2.459   0.353   3.645
80747W        W45567  15.307  22.382  14.859
80748W        W45568  40.857  39.874  12.531
80749W        W45569  11.445   9.342  12.293
80750W        W45570  37.797   4.359   3.378
80751W        W45571  27.980  43.513   4.243
80752W        W45572  22.694  44.535  12.620
80753W        W45573  24.495   7.735  11.993
80754W        W45574  33.626  36.483  14.260
80755W        W45575   3.338   7.642  13.384
80756W        W45576  36.044  18.607   4.117
80757W        W45577  28.925  26.179   1.230
80758W        W45578  40.317  10.035   0.217
80759W        W45579  22.147   0.843  11.519
80760W        W45580  39.203  42.813   1.867
80761W        W45581  25.653  24.086  13.958
80762W        W45582  37.752  34.465   0.274
80763W        W45583  37.430  14.821   3.222
80764W        W45584  20.339  21.797   4.635
80765W        W45585  32.518   8.271   1.920
80766W        W45586   6.316  12.745   2.855
80767W        W45587   6.971  32.503  11.470
80768W        W45588  30.729   2.687   0.986
80769W        W45589  40.127  17.928   0.421
80770W        W45590  23.215  27.271  14.294
80771W        W45591  29.957   7.209  11.607
80772W        W45592  15.065  27.649  12.227
80773W        W45593  42.502  25.396  11.167
80774W        W45594  31.469  29.535   2.105
80775W        W45595  27.998  19.107   2.392
80776W        W45596  19.437  19.818  13.480
80777W        W45597   9.220  26.935   3.482
80778W        W45598  32.093  14.306   4.135
80779W        W45599  29.477   3.594  12.512
80780W        W45600  37.180  32.522   1.929
80781W        W45601   4.653  26.867   0.957
80782W        W45602   1.939  31.329  14.030
80783W        W45603   1.666  26.662  10.162
80784W        W45604  25.261   2.479  11.998
80785W        W45605  14.850  28.693   4.939
80786W        W45606   0.825  21.098  12.607
80787W        W45607  28.541   1.485   3.118
80788W        W45608   3.430   5.285  14.297
80789W        W45609  28.001  43.291   5.056
80790W        W45610  33.055  14.215  13.940
80791W        W45611  16.537  18.268   0.961
80792W        W45612   2.896  35.366  10.704
80793W        W45613   8.212  43.495  14.874
80794W        W45614  26.701   5.186   2.262
80795W        W45615  18.420  21.107  10.415
80796W        W45616  42.960   2.459   5.132
80797W        W45617   7.819  32.873  12.472
80798W        W45618   9.842  35.746   1.268
80799W        W45619  34.111  44.034  10.591
80800W        W45620  11.197   6.185  11.118
80801W        W45621  20.465  42.431  10.536
80802W        W45622  11.241   3.219   0.809
80803W        W45623  27.531  22.986  11.224
80804W        W45624  41.993  10.753   3.925
80805W        W45625  29.391   4.400  12.927
80806W        W45626  34.933   3.493   0.064
80807W        W45627  40.546  29.461  11.644
80808W        W45628  38.375  19.998   1.782
80809W        W45629  27.656  25.699   0.971
80810W        W45630  21.216  21.958  14.366
80811W        W45631  34.010   4.783   4.114
80812W        W45632  40.175  30.976  11.954
80813W        W45633  15.321   2.626  11.626
80814W        W45634  12.784  17.361   3.097
80815W        W45635  44.961  18.114  12.819
80816W        W45636  26.804  42.557  14.842
80817W        W45637  19.974  21.838   1.926
80818W        W45638  13.927  38.355  14.316
80819W        W45639  18.573  20.103   4.386
80820W        W45640   7.608  41.782   1.895
80821W        W45641   8.852  18.823  12.021
80822W        W45642   0.454  23.932  14.841
80823W        W45643   8.893  10.332  12.167
80824W        W45644   6.394  42.268  12.025
80825W        W45645  29.503  33.192  14.839
80826W        W45646  42.941   5.732   3.523
80827W        W45647  33.938   1.695   1.008
80828W        W45648  37.580   7.228  13.986
80829W        W45649   3.784   9.921   0.892
80830W        W45650  19.965   7.229   2.266
80831W        W45651   2.330  43.031  14.977
80832W        W45652  39.799  18.285   3.164
80833W        W45653  39.114  17.308   0.240
80834W        W45654  43.979  22.607  12.799
80835W        W45655  16.600  43.194   0.912
80836W        W45656   5.716  22.554   4.123
80837W        W45657  25.376  10.703  11.258
80838W        W45658  37.316   9.858   1.662
80839W        W45659  39.280  14.324   1.863
80840W        W45660  18.083  20.072  13.306
80841W        W45661   7.459   5.627   4.583
80842W        W45662  30.061  38.827   2.967
80843W        W45663   9.923   5.344  11.042
80844W        W45664  24.457  38.906  11.343
80845W        W45665   3.724  17.350  10.638
80846W        W45666  15.506  36.493   9.952
80847W        W45667  10.384  39.468  11.414
80848W        W45668  25.532   5.392  12.145
80849W        W45669  37.592  43.089   4.595
80850W        W45670   2.803   6.307   4.251
80851W        W45671  29.853  39.335  11.552
80852W        W45672  26.856  43.543  13.525
80853W        W45673  13.758  11.215   3.644
80854W        W45674  19.737  30.406  12.081
80855W        W45675   0.894  10.480  14.775
80856W        W45676  10.726  26.760   2.342
80857W        W45677  20.157  37.112  12.334
80858W        W45678  43.130  15.203  11.486
80859W        W45679  42.525  30.519   3.683
80860W        W45680  39.840  43.297  10.841
80861W        W45681  39.514  10.148   2.148
80862W        W45682  23.620  38.532  10.973
80863W        W45683   1.950  43.814   3.292
80864W        W45684   2.967  21.311  10.758
80865W        W45685  18.188  29.682  12.413
80866W        W45686  28.013  40.898  12.374
80867W        W45687  14.572  33.137   2.335
80868W        W45688  42.983   7.690  12.712
80869W        W45689  17.096  30.967  12.548
80870W        W45690  41.543  20.200   3.134
80871W        W45691  22.918  22.506  14.090
80872W        W45692  26.214  36.758  12.391
80873W        W45693  33.244  15.757  13.833
80874W        W45694   4.059  16.720   1.353
80875W        W45695  44.388  38.728  10.496
80876W        W45696  21.140  23.655   1.754
80877W        W45697  27.997   5.411   3.393
80878W        W45698  24.493  23.598  11.289
80879W        W45699  11.706   2.013  10.009
80880W        W45700   6.847  36.201   0.465
80881W        W45701  21.431  10.250  13.898
80882W        W45702  30.314   9.215  11.627
80883W        W45703   9.105   0.505  14.953
80884W        W45704  24.747   6.930   3.868
80885W        W45705  12.227  29.387  12.513
80886W        W45706  30.564   4.544   2.207
80887W        W45707  19.767  30.901  11.044
80888W        W45708   5.782  11.866  12.874
80889W        W45709  44.271  29.241   0.150
80890W        W45710  31.424  11.388  13.084
80891W        W45711  36.951   3.366   0.856
80892W        W45712   4.125  17.726  10.685
80893W        W45713   5.909  44.942   1.247
80894W        W45714  12.174  36.459  11.164
80895W        W45715  34.708  14.282   0.649
80896W        W45716  14.965  12.373   3.310
80897W        W45717  25.867  39.364  10.557
80898W        W45718  12.235  36.485   2.651
80899W        W45719  16.132  36.418   0.306
80900W        W45720  22.167  20.155  10.375
80901W        W45721  38.117  32.492   4.099
80902W        W45722   4.279   3.008   1.167
80903W        W45723   4.786  31.909   3.588
80904W        W45724  38.984  40.483  10.895
80905W        W45725   8.397  10.987   2.941
80906W        W45726  33.961  42.190   2.584
80907W        W45727  19.776  25.786   2.434
80908W        W45728  43.904   2.586  14.975
80909W        W45729  29.181  29.168   2.346
80910W        W45730  38.384   8.594  13.837
80911W        W45731  32.328  42.836  14.818
80912W        W45732  22.172  31.483  13.271
80913W        W45733   2.205  44.867  12.431
80914W        W45734  41.003  35.890   2.282
80915W        W45735  41.793  18.014  11.153
80916W        W45736   3.950  13.761  12.082
80917W        W45737  26.500  35.356   2.668
80918W        W45738  42.927  10.729  13.352
80919W        W45739   4.157  11.935  14.941
80920W        W45740  16.818  16.272  14.944
80921W        W45741   2.154  25.997   3.702
80922W        W45742  24.006  27.290   4.522
80923W        W45743   3.877  44.339  13.077
80924W        W45744  23.427   0.703   1.455
80925W        W45745  34.093   7.900   2.277
80926W        W45746   6.388  12.072   4.465
80927W        W45747  24.661  41.514  11.181
80928W        W45748   0.022  11.580  11.108
80929W        W45749  35.971  35.462  10.665
80930W        W45750  29.032  23.741  13.854
80931W        W45751  23.611  10.405  11.048
80932W        W45752   1.888  35.588  14.103
80933W        W45753  19.468   9.318  13.504
80934W        W45754  19.182   5.796   0.215
80935W        W45755  18.769  24.278  13.774
80936W        W45756  40.372  27.893  10.127
80937W        W45757  29.023   3.108   1.374
80938W        W45758  33.057  19.496  12.614
80939W        W45759   0.714  37.490   0.357
80940W        W45760  11.219  39.158   3.104
80941W        W45761  39.984  31.864   3.339
80942W        W45762   4.660  40.964   0.328
80943W        W45763  11.356  40.726   0.242
80944W        W45764  26.617  42.114  11.419
80945W        W45765  30.120  40.693   0.139
80946W        W45766  35.772   3.806  14.920
80947W        W45767  27.924  15.759  11.466
80948W        W45768  25.141  44.997   1.250
80949W        W45769  36.541   7.659  12.995
80950W        W45770   4.345  34.960   4.467
80951W        W45771  43.711  35.158  13.922
80952W        W45772  38.402  22.135  10.805
80953W        W45773  32.043  16.334   1.157
80954W        W45774  12.042  27.485   4.946
80955W        W45775  43.935  10.645  13.499
80956W        W45776  43.017   4.782   1.596
80957W        W45777  28.171  31.863  10.034
80958W        W45778   6.229  28.487   3.698
80959W        W45779  26.830  34.908  11.607
80960W        W45780   1.492  24.552   4.279
80961W        W45781   9.456  39.427   3.235
80962W        W45782  12.290   4.994   4.451
80963W        W45783  16.065  38.976   2.743
80964W        W45784  16.156   0.127  11.992
80965W        W45785   5.382  41.363  14.750
80966W        W45786  19.840  43.140   2.725
80967W        W45787  17.200   9.016   3.768
80968W        W45788  10.662  39.434  14.309
80969W        W45789  29.157  22.338  13.977
80970W        W45790  43.392  39.838  14.724
80971W        W45791  16.241  20.106   4.531
80972W        W45792  22.282  13.155   1.085
80973W        W45793  27.524  22.406  12.557
80974W        W45794  20.483  25.959  12.019
80975W        W45795  41.487  21.785   1.334
80976W        W45796  17.885  17.330   3.734
80977W        W45797  31.065  38.085  13.861
80978W        W45798  36.619  39.084  12.891
80979W        W45799  12.348  44.269  12.548
80980W        W45800  32.333  28.560   1.816
80981W        W45801  13.790  21.884   1.975
80982W        W45802  26.102  23.652  10.882
80983W        W45803  35.417   2.532  11.600
80984W        W45804  30.120  29.672  12.119
80985W        W45805  10.120  42.978   0.048
80986W        W45806  37.035   0.006   0.724
80987W        W45807  22.165   0.927  14.832
80988W        W45808  16.197  43.843  12.218
80989W        W45809  30.483   8.456   0.548
80990W        W45810  28.219   1.049   4.134
80991W        W45811  13.753  35.737  11.629
80992W        W45812   0.713  19.593  14.835
80993W        W45813   4.796  41.709   0.743
80994W        W45814  28.453  18.658   4.442
80995W        W45815  32.809   1.190   4.117
80996W        W45816  40.977  28.188   0.675
80997W        W45817  11.791  33.497   3.164
80998W        W45818  32.122  32.207   0.978
80999W        W45819  29.671  11.688   4.153
81000W        W45820   4.263  36.110  11.241
81001W        W45821   6.756  22.784   4.591
81002W        W45822  43.539  10.237  14.285
81003W        W45823  30.924  21.271  10.599
81004W        W45824   1.181   9.725   2.675
81005W        W45825  11.519  13.683   4.208
81006W        W45826   2.957  29.074  12.440
81007W        W45827  23.233  21.229   3.675
81008W        W45828  40.292  44.393  11.714
81009W        W45829  31.201  10.360  13.859
81010W        W45830  41.308   7.692  12.102
81011W        W45831  16.286  14.805   4.769
81012W        W45832  35.504   3.834   2.419
81013W        W45833  27.497  42.451  10.893
81014W        W45834  35.878  28.946   0.324
81015W        W45835  29.995  13.162   4.198
81016W        W45836  43.906  25.909  14.013
81017W        W45837  21.812   6.385  12.662
81018W        W45838  17.862  38.068   1.881
81019W        W45839  14.363  21.241  10.683
81020W        W45840  28.708  22.713   1.329
81021W        W45841  21.132  32.857   3.937
81022W        W45842  14.526  28.181   2.295
81023W        W45843  23.270  18.476   3.399
81024W        W45844  11.631  20.725   0.349
81025W        W45845  31.489  37.339  11.403
81026W        W45846   2.402  44.981   2.243
81027W        W45847  28.186   3.520   4.973
81028W        W45848  10.622  13.282   0.269
81029W        W45849  21.795   7.651   3.258
81030W        W45850   0.036  12.996  14.332
81031W        W45851  20.621  27.531  12.554
81032W        W45852  19.766  19.757  11.630
81033W        W45853  40.055  15.226   0.659
81034W        W45854   7.671  41.932  12.022
81035W        W45855  30.759  31.304  11.591
81036W        W45856  26.673   7.372  12.407
81037W        W45857  21.048  29.884  12.566
81038W        W45858   9.260  32.624   4.205
81039W        W45859  10.806  23.548   4.699
81040W        W45860   8.880  33.080  14.523
81041W        W45861   2.761  11.591  11.588
81042W        W45862  25.793  11.796   2.440
81043W        W45863  19.547  11.942  14.509
81044W        W45864   9.848  19.494  11.106
81045W        W45865  32.921   5.725  13.962
81046W        W45866  30.494  30.995   3.750
81047W        W45867  30.043  25.731  12.325
81048W        W45868  27.153  16.893   2.865
81049W        W45869  28.560  41.077   4.318
81050W        W45870  43.842  42.847  14.575
81051W        W45871  19.808  16.230   0.769
81052W        W45872  44.059  32.525   3.848
81053W        W45873  15.082  13.261  11.090
81054W        W45874   3.244  24.901  13.396
81055W        W45875  43.961  29.041  14.642
81056W        W45876  17.941   4.896   4.556
81057W        W45877  25.816  37.036  11.187
81058W        W45878  17.365  22.942   2.627
81059W        W45879  27.464  31.476  11.858
81060W        W45880  37.153  13.301   3.209
81061W        W45881  35.879  30.449  12.051
81062W        W45882  42.409  16.154   4.644
81063W        W45883  19.541  40.496   3.814
81064W        W45884  14.702  37.413  11.361
81065W        W45885  16.322  11.813  11.235
81066W        W45886  23.983  16.343   4.175
81067W        W45887  24.184  18.673   1.453
81068W        W45888   3.444  11.924  13.802
81069W        W45889  31.920  33.135   4.478
81070W        W45890  26.017  10.912   0.245
81071W        W45891  15.773  16.585   4.913
81072W        W45892  15.159   7.858   2.416
81073W        W45893  38.430  21.696  13.419
81074W        W45894  28.930  25.318  14.219
81075W        W45895  33.047  31.578  13.485
81076W        W45896  27.841  13.857   4.960
81077W        W45897  20.643  19.292   1.748
81078W        W45898   0.471  28.389  10.713
81079W        W45899   8.991   0.516  11.126
81080W        W45900  30.338  14.243   5.102
81081W        W45901  25.509  37.254  10.823
81082W        W45902  27.467  35.766  11.567
81083W        W45903  34.067  16.152  12.515
81084W        W45904   3.382   1.061   0.681
81085W        W45905  44.996  28.682  10.796
81086W        W45906  44.229  36.794  10.586
81087W        W45907  42.853  22.788   2.145
81088W        W45908  27.011  10.778   1.356
81089W        W45909   7.114  14.539   4.135
81090W        W45910  23.182  13.189  11.651
81091W        W45911  10.618  29.142   2.778
81092W        W45912   4.473  16.792  11.433
81093W        W45913  19.958  34.200   0.553
81094W        W45914  35.218  23.659   4.520
81095W        W45915   8.027  15.402   4.076
81096W        W45916  38.555  36.827   3.305
81097W        W45917  35.911  10.301  13.367
81098W        W45918  35.518  14.687  11.595
81099W        W45919  35.483   8.212  12.965
81100W        W45920   6.044   7.390  13.663
81101W        W45921  34.809  31.005   2.245
81102W        W45922  37.477   5.361  14.705
81103W        W45923  10.193  11.799   2.476
81104W        W45924   5.052   2.514   3.645
81105W        W45925  16.838   4.248  13.007
81106W        W45926  41.104  10.779  11.537
81107W        W45927  28.940   7.903  11.472
81108W        W45928  33.528  18.799   1.142
81109W        W45929  38.612   6.871   3.168
81110W        W45930  40.401  10.576  14.338
81111W        W45931   4.296  15.995   0.271
81112W        W45932  35.946  31.099  10.874
81113W        W45933  11.204  12.882  13.683
81114W        W45934  33.963  32.068  10.949
81115W        W45935  20.063  11.781  12.606
81116W        W45936   2.872   1.922   0.156
81117W        W45937  35.858  12.709  14.074
81118W        W45938  33.411  10.330  14.403
81119W        W45939  28.088   0.880  14.797
81120W        W45940  35.252  34.858  10.732
81121W        W45941  38.325  41.532  13.764
81122W        W45942  22.880   2.322  13.598
81123W        W45943  42.595  31.935   1.111
81124W        W45944   3.305  42.369   4.633
81125W        W45945  42.264  12.059  11.161
81126W        W45946  22.492  36.449  14.024
81127W        W45947  11.766  28.362  10.745
81128W        W45948  23.208  17.713  13.433
81129W        W45949  43.889  21.229   3.704
81130W        W45950  39.987  31.238   4.588
81131W        W45951   1.542  13.667   3.807
81132W        W45952  29.514   2.905   1.174
81133W        W45953  27.661  12.837  12.994
81134W        W45954  23.891  26.079   4.452
81135W        W45955  40.384  11.866  14.034
81136W        W45956  15.734  40.042  12.354
81137W        W45957  43.430  41.892   2.008
81138W        W45958  41.949  41.544  12.920
81139W        W45959  41.942   7.469   0.336
81140W        W45960  24.670  21.668  13.533
81141W        W45961  42.624   1.376   2.359
81142W        W45962  36.117   5.657   2.600
81143W        W45963  21.093  42.546   2.692
81144W        W45964  17.461  43.443   1.846
81145W        W45965  12.032  40.859   4.498
81146W        W45966   3.233  34.301   4.527
81147W        W45967   7.207  12.063  14.284
81148W        W45968  28.780  28.847  12.897
81149W        W45969  41.444   0.045   2.709
81150W        W45970   9.607  25.625   0.392
81151W        W45971   1.664  39.079   4.513
81152W        W45972  17.237  26.956   3.186
81153W        W45973  18.591  33.689   3.670
81154W        W45974  36.638  33.441   9.951
81155W        W45975  29.601   7.648   4.420
81156W        W45976   3.590  39.226  12.623
81157W        W45977  39.058  34.615  11.202
81158W        W45978   6.986   2.882   0.446
81159W        W45979   2.353  18.705   3.712
81160W        W45980  43.413  19.512   1.925
81161W        W45981   2.850  11.322   0.547
81162W        W45982  14.373  23.394  11.272
81163W        W45983   5.738  36.139  12.228
81164W        W45984  38.950  44.945   4.672
81165W        W45985  12.103  34.424   1.272
81166W        W45986  30.422   9.394   4.026
81167W        W45987  17.312   5.916   2.128
81168W        W45988  29.447  37.566   4.666
81169W        W45989  33.074  26.728   2.808
81170W        W45990  17.173  12.921   2.137
81171W        W45991  32.385   7.826  11.507
81172W        W45992  42.741  37.881  12.380
81173W        W45993  35.007  29.524   4.576
81174W        W45994  40.304  25.661  14.439
81175W        W45995  28.895  32.913   4.059
81176W        W45996  43.161  42.959   3.666
81177W        W45997  23.507  38.445  13.115
81178W        W45998  38.912  19.126  13.422
81179W        W45999  28.666   8.695  13.736
81180W        W46000  37.244   2.936   0.977
81181W        W46001   7.910  38.041  11.561
81182W        W46002  15.744  33.356  14.399
81183W        W46003  37.648  14.655   1.425
81184W        W46004  30.389  25.081  11.610
81185W        W46005  24.123  27.125  12.241
81186W        W46006  13.806   9.357   0.735
81187W        W46007  21.918  33.611  11.626
81188W        W46008  41.535  32.967   4.427
81189W        W46009  17.751  38.272   1.416
81190W        W46010  16.194   3.469   2.780
81191W        W46011  34.994  31.643  13.960
81192W        W46012   0.241  14.745  10.858
81193W        W46013   8.681  38.889   3.326
81194W        W46014  38.444  44.857   3.396
81195W        W46015  30.668  12.040  13.094
81196W        W46016   5.124  26.062  13.832
81197W        W46017   2.857  20.166  13.407
81198W        W46018  23.747  17.133  11.022
81199W        W46019  20.453   3.006   4.347
81200W        W46020   6.228  35.562  14.133
81201W        W46021   8.912   2.960  10.799
81202W        W46022  34.268  43.361   0.960
81203W        W46023   6.227   8.137  11.168
81204W        W46024  15.042   4.175  13.580
81205W        W46025  34.590  14.753  14.963
81206W        W46026   5.667  20.243   0.995
81207W        W46027  19.141  16.968  11.851
81208W        W46028   6.805   0.880  10.677
81209W        W46029  32.593   4.916  10.614
81210W        W46030  11.673  33.496   2.268
81211W        W46031   9.776   1.989   3.546
81212W        W46032  11.356   6.822   1.826
81213W        W46033  37.881  44.577  13.554
81214W        W46034  18.087  37.415  14.595
81215W        W46035   1.993  10.242  12.528
81216W        W46036  32.136  40.017  11.316
81217W        W46037  14.345   0.313   3.183
81218W        W46038  30.436   3.591  11.560
81219W        W46039  29.641   3.994   4.744
81220W        W46040  25.583   1.343   0.677
81221W        W46041   6.604  20.109   1.792
81222W        W46042   9.995  10.602   1.276
81223W        W46043  13.717  17.700  14.039
81224W        W46044   1.389  11.573  13.929
81225W        W46045  14.154  30.172   1.368
81226W        W46046   4.948  36.604  10.940
81227W        W46047  43.668  20.131  11.643
81228W        W46048  39.312  21.279   4.170
81229W        W46049  30.945   4.020  10.649
81230W        W46050  28.472  13.734   4.707
81231W        W46051  36.242  11.450  12.548
81232W        W46052   4.650  35.396  14.229
81233W        W46053  40.222  30.417   3.293
81234W        W46054  19.248  39.157  12.249
81235W        W46055   2.251  26.461   2.934
81236W        W46056  22.635   9.383   1.814
81237W        W46057  38.512  35.351   4.736
81238W        W46058  39.953  14.305  11.658
81239W        W46059  29.600  19.125   0.851
81240W        W46060  19.937  15.722   4.123
81241W        W46061   2.782   2.782  13.516
81242W        W46062  41.343  18.333   1.595
81243W        W46063   9.558   6.755   3.228
81244W        W46064   2.485   9.949   2.254
81245W        W46065  39.570  34.560  14.923
81246W        W46066  29.176  19.647   4.296
81247W        W46067  44.443   5.141  12.677
81248W        W46068  22.362  36.430   2.195
81249W        W46069  28.226  18.033   0.903
81250W        W46070  44.955  10.294   0.885
81251W        W46071   5.364   4.948  13.159
81252W        W46072   2.967  32.713   3.933
81253W        W46073   2.858  32.105   1.337
81254W        W46074   2.016   1.680  13.991
81255W        W46075  22.324  14.420  12.551
81256W        W46076  37.398   6.235  14.859
81257W        W46077   2.956  16.529   2.438
81258W        W46078  16.899   3.374  13.629
81259W        W46079  26.951   6.358   3.732
81260W        W46080   1.271   0.071   3.215
81261W        W46081  14.740  29.142  12.058
81262W        W46082  34.000  26.167   0.766
81263W        W46083  34.625  30.776   4.580
81264W        W46084  13.119  10.882  14.959
81265W        W46085  18.541  35.203   5.122
81266W        W46086  36.162  24.792  10.018
81267W        W46087   9.754  23.591  14.377
81268W        W46088  15.195  42.775   1.803
81269W        W46089   2.545  31.158  10.823
81270W        W46090  26.516  27.662  14.492
81271W        W46091   9.901  14.560   0.838
81272W        W46092  12.677   6.903  14.902
81273W        W46093  14.701  21.728   1.398
81274W        W46094   0.580   2.223   0.954
81275W        W46095  32.968   4.280   2.844
81276W        W46096  10.879   6.360  10.727
81277W        W46097  12.771  39.612  13.396
81278W        W46098  24.074  13.566   1.321
81279W        W46099  30.358  39.088  10.814
81280W        W46100  18.162   1.738  10.553
81281W        W46101  37.560   0.963   2.758
81282W        W46102  35.921  13.698  12.068
81283W        W46103  38.903  38.660  11.081
81284W        W46104   7.517  22.056   0.456
81285W        W46105  18.591  22.161  11.324
81286W        W46106  21.980   5.399  13.904
81287W        W46107  10.674  12.633  13.034
81288W        W46108  30.520  41.033  10.450
81289W        W46109   3.714  37.451  12.510
81290W        W46110  35.857  36.237  12.923
81291W        W46111   6.988  28.991   0.316
81292W        W46112  13.540  33.760  14.805
81293W        W46113   5.898  35.102   3.201
81294W        W46114  40.104  13.764  10.462
81295W        W46115   9.370  30.024   4.915
81296W        W46116  28.446  21.719   1.879
81297W        W46117  27.039   3.283  14.777
81298W        W46118   2.301  28.652  13.472
81299W        W46119  26.686  31.917   2.260
81300W        W46120   3.354  35.826   0.496
81301W        W46121   5.589  30.189   3.091
81302W        W46122  35.672  26.577   4.800
81303W        W46123  32.418  40.672   4.611
81304W        W46124  33.164   1.285  12.442
81305W        W46125  44.963  25.547  14.181
81306W        W46126  33.510   1.638   1.322
81307W        W46127   2.981   8.832  12.539
81308W        W46128   7.842  36.414   4.133
81309W        W46129  39.665  21.814   1.330
81310W        W46130  27.903  28.136   3.599
81311W        W46131  24.092  25.599   4.392
81312W        W46132   7.888   1.956   0.496
81313W        W46133  35.560  30.330   3.441
81314W        W46134  13.021  24.718   3.860
81315W        W46135  43.024  26.606  14.270
81316W        W46136  43.527   4.249  12.924
81317W        W46137  43.335   1.715   2.763
81318W        W46138  29.531   6.741   2.880
81319W        W46139  33.173  28.921  13.473
81320W        W46140  16.988   5.892  10.733
81321W        W46141  39.075  26.403  10.965
81322W        W46142   1.960   6.120   0.778
81323W        W46143  38.778  20.136   4.567
81324W        W46144  39.303   4.312   0.216
81325W        W46145  24.133  38.809  12.104
81326W        W46146  27.498  15.300   4.818
81327W        W46147  29.136   0.289  14.817
81328W        W46148  25.449  26.371  13.137
81329W        W46149  12.206   9.186   1.837
81330W        W46150  43.339  39.318   1.333
81331W        W46151  24.108   0.363  13.299
81332W        W46152  41.294  27.202  14.145
81333W        W46153  11.186   7.043  12.863
81334W        W46154   7.117  44.491   3.830
81335W        W46155  31.048  41.831  10.709
81336W        W46156  38.350   1.899  13.551
81337W        W46157   1.692  10.681  14.329
81338W        W46158  39.038  43.543   3.199
81339W        W46159  41.770  42.419  14.533
81340W        W46160  12.709   5.336   1.393
81341W        W46161  43.467  36.539   1.754
81342W        W46162  16.905  19.620  11.209
81343W        W46163   0.957  39.139  12.173
81344W        W46164  20.223  29.052   2.445
81345W        W46165  36.961  35.821   0.719
81346W        W46166  38.935  13.321   1.130
81347W        W46167   7.310   7.624   4.970
81348W        W46168  14.619  35.471   2.623
81349W        W46169  26.597  37.692   5.048
81350W        W46170  29.363  12.757   4.508
81351W        W46171   0.061   7.873  12.161
81352W        W46172  38.895  16.177  10.620
81353W        W46173  32.576   1.713  13.446
81354W        W46174  24.416  15.659  10.475
81355W        W46175   9.169  33.129  14.095
81356W        W46176  34.420  42.261  10.968
81357W        W46177  41.760  17.988   3.253
81358W        W46178  25.238  38.223  12.961
81359W        W46179   1.039   8.216  14.137
81360W        W46180  40.323  22.546  13.963
81361W        W46181  10.378  20.111  10.914
81362W        W46182   3.967   5.220  11.104
81363W        W46183  17.537  28.494  11.613
81364W        W46184  11.206   6.420  10.332
81365W        W46185  43.595  12.386  13.039
81366W        W46186  14.493  39.303  10.250
81367W        W46187  41.412  16.043   4.562
81368W        W46188   6.294   6.935   4.575
81369W        W46189  41.736  22.687   2.710
81370W        W46190  35.791  14.725   1.916
81371W        W46191   6.738   7.714  12.090
81372W        W46192  23.103  11.769   1.035
81373W        W46193  42.474   7.887   3.187
81374W        W46194  35.012  19.028   9.831
81375W        W46195   7.225  43.236   0.852
81376W        W46196  20.744  36.546  14.997
81377W        W46197  33.399   8.710  12.941
81378W        W46198  29.716   2.752  13.860
81379W        W46199  36.499  33.911   3.683
81380W        W46200  31.255   1.481   3.947
81381W        W46201  19.478   6.879   2.911
81382W        W46202  13.120   1.216  12.479
81383W        W46203  37.811  23.057  14.007
81384W        W46204  35.521  27.579   3.264
81385W        W46205  33.012   2.523   4.627
81386W        W46206  37.000  36.865  14.934
81387W        W46207   6.323  44.521   4.182
81388W        W46208  19.703  34.807   2.883
81389W        W46209   2.968   1.774  12.908
81390W        W46210   5.733   3.279  11.690
81391W        W46211   9.649  26.643   3.266
81392W        W46212  33.728  14.811  12.974
81393W        W46213  40.234  33.014   3.236
81394W        W46214  38.751  42.933   0.772
81395W        W46215  34.078  28.917   1.335
81396W        W46216   5.135  38.051  11.830
81397W        W46217  17.812  14.820  13.722
81398W        W46218  28.440  37.800   3.676
81399W        W46219   6.807  44.870  13.027
81400W        W46220  19.986  17.072  14.299
81401W        W46221  11.771  17.172  14.010
81402W        W46222   1.922  40.608  13.550
81403W        W46223  14.429  13.349   1.342
81404W        W46224  32.113  35.590  13.900
81405W        W46225   1.320  38.579   2.920
81406W        W46226  33.634  30.366   3.828
81407W        W46227  17.592  30.886  10.650
81408W        W46228  43.421  10.395  11.931
81409W        W46229   0.222  20.506   1.390
81410W        W46230  38.697   4.860   0.059
81411W        W46231  13.462  25.666   1.195
81412W        W46232  11.151  18.611  11.922
81413W        W46233   2.305   9.082   3.237
81414W        W46234  29.982   0.358   3.243
81415W        W46235  13.741  10.685   2.924
81416W        W46236  30.591  14.121   0.783
81417W        W46237  38.278  10.310   3.070
81418W        W46238  27.215   2.413  13.549
81419W        W46239   5.146   8.185  12.061
81420W        W46240  17.666  19.976   0.775
81421W        W46241  21.214   3.973   3.363
81422W        W46242  29.348   3.132  10.371
81423W        W46243   0.191  35.011   4.184
81424W        W46244   6.350  41.391  13.545
81425W        W46245   4.262   5.926   3.810
81426W        W46246  29.185  34.012   1.195
81427W        W46247  17.907  22.725  11.474
81428W        W46248  42.574  36.973   2.267
81429W        W46249   8.748  31.316   4.547
81430W        W46250  18.899   8.202   4.824
81431W        W46251   9.230  10.803  13.465
81432W        W46252  38.210  10.688  14.255
81433W        W46253  33.902  38.078   4.061
81434W        W46254  37.424  17.271   4.080
81435W        W46255  42.862  17.603  13.919
81436W        W46256   3.718  42.276   1.757
81437W        W46257   4.208   6.730   4.202
81438W        W46258  29.524  15.052   1.541
81439W        W46259  17.597  43.745   4.106
81440W        W46260   7.960   8.408   2.761
81441W        W46261  15.705  35.927  12.038
81442W        W46262  25.477  33.261   2.063
81443W        W46263   1.252  43.928  13.810
81444W        W46264  32.023  13.240   2.204
81445W        W46265  25.607  31.712  14.363
81446W        W46266   0.670  20.055  13.469
81447W        W46267  30.873  14.840   0.378
81448W        W46268  20.762  11.299  13.308
81449W        W46269   5.830  27.468   3.098
81450W        W46270  37.153  16.656   3.642
81451W        W46271   7.951   2.520   1.182
81452W        W46272  42.593   3.377   1.334
81453W        W46273  22.625  39.056   2.761
81454W        W46274  34.367  31.950   2.190
81455W        W46275  31.250  42.347  12.908
81456W        W46276  24.413  42.929   3.236
81457W        W46277  38.031   9.413   0.938
81458W        W46278   0.648  40.330  12.579
81459W        W46279  36.054  23.680   4.103
81460W        W46280  32.663  19.898   4.965
81461W        W46281  21.413  35.132  11.229
81462W        W46282   8.695   0.713   4.840
81463W        W46283  38.718  30.429  11.157
81464W        W46284  29.485  18.246  11.220
81465W        W46285  43.349   5.995   0.764
81466W        W46286  13.474  14.901  11.134
81467W        W46287   0.845  34.371   2.623
81468W        W46288  11.434   5.898  13.847
81469W        W46289  13.830  22.485   4.567
81470W        W46290  40.963  21.201  13.907
81471W        W46291  37.395   6.629   2.037
81472W        W46292  13.128  23.291   1.483
81473W        W46293  27.182   8.659   1.109
81474W        W46294   4.386   0.899  14.383
81475W        W46295  28.060  20.698  14.901
81476W        W46296  30.310   4.213  12.591
81477W        W46297  39.412  43.258  13.772
81478W        W46298  14.727   5.989   3.268
81479W        W46299  25.868  29.483   3.224
81480W        W46300  14.035   1.984  12.445
81481W        W46301  36.690  31.964   1.197
81482W        W46302  16.278  15.886  11.440
81483W        W46303  22.759   4.619   0.715
81484W        W46304  31.378  42.611  14.839
81485W        W46305  35.108  39.846   4.293
81486W        W46306   8.486   2.865  13.993
81487W        W46307  33.446   3.382   1.730
81488W        W46308  10.598  12.721  12.503
81489W        W46309  32.477  42.212  13.828
81490W        W46310  17.796   6.756   4.257
81491W        W46311   2.499  18.266   2.008
81492W        W46312  40.840  17.057   1.251
81493W        W46313  41.258  34.067   2.650
81494W        W46314  15.047  15.689   0.902
81495W        W46315  25.002   3.306  14.748
81496W        W46316  20.983   8.892  11.963
81497W        W46317  29.626  27.711  13.178
81498W        W46318   5.622  30.514   1.385
81499W        W46319  33.460   8.998  14.826
81500W        W46320  16.912  19.523   3.881
81501W        W46321   0.806  21.606  11.729
81502W        W46322  34.699  43.418  12.987
81503W        W46323  29.562  38.842   1.173
81504W        W46324  37.867  24.300   1.271
81505W        W46325  12.757  21.517  11.642
81506W        W46326   8.267  24.538  12.482
81507W        W46327   1.011  17.551   2.833
81508W        W46328   8.886   7.589  10.676
81509W        W46329  12.697  31.488   5.044
81510W        W46330  20.553  43.468  12.585
81511W        W46331  23.834  34.440  11.163
81512W        W46332   0.913  35.913   3.161
81513W        W46333  28.673   7.830  14.888
81514W        W46334  31.132   5.951   0.899
81515W        W46335   5.660  22.558  14.245
81516W        W46336   6.840   4.841   4.201
81517W        W46337  41.928  27.732  12.480
81518W        W46338  10.084  31.905   3.639
81519W        W46339  14.199  28.459   0.214
81520W        W46340  41.025  31.063   3.070
81521W        W46341  40.987  43.265  11.907
81522W        W46342   3.480  23.566   1.955
81523W        W46343  40.373  25.011   0.718
81524W        W46344  33.563   0.614   1.203
81525W        W46345  26.579  25.024   3.701
81526W        W46346   1.479  41.490   4.615
81527W        W46347  25.504  42.713  13.425
81528W        W46348  44.501  43.830   4.521
81529W        W46349  44.326  19.119   0.553
81530W        W46350   1.788  18.638  14.881
81531W        W46351  14.945   9.189   2.764
81532W        W46352  12.880  28.384  11.950
81533W        W46353  38.350  34.019  11.382
81534W        W46354  15.152  13.591   2.940
81535W        W46355  40.380  25.257  10.477
81536W        W46356  42.809   2.434  10.560
81537W        W46357  42.192  14.300  13.921
81538W        W46358  37.690  38.083   4.513
81539W        W46359   0.957  36.843  13.854
81540W        W46360  42.531   1.249   4.588
81541W        W46361  39.288  34.522   3.630
81542W        W46362  10.946  10.177   0.383
81543W        W46363  24.262   3.610   9.994
81544W        W46364  43.165  26.972  11.532
81545W        W46365  17.129  34.426  13.282
81546W        W46366  26.599  42.553  10.658
81547W        W46367  40.453   3.702  10.771
81548W        W46368  40.383  36.026  12.078
81549W        W46369  17.286  24.088   9.854
81550W        W46370  31.356   7.710  14.944
81551W        W46371  34.103   2.011  14.531
81552W        W46372  22.422  14.434  13.062
81553W        W46373  41.360  33.094  14.758
81554W        W46374  34.136  20.617   4.484
81555W        W46375  44.262  36.791   3.252
81556W        W46376  39.999  34.985  13.029
81557W        W46377  20.832   6.363   1.229
81558W        W46378   5.444  34.014  13.337
81559W        W46379  12.617  42.850   1.820
81560W        W46380   4.831  35.035  10.354
81561W        W46381   0.893  26.105   2.687
81562W        W46382  19.203   8.222  12.563
81563W        W46383  38.155  19.198  11.183
81564W        W46384  15.713  36.876   3.525
81565W        W46385  20.169  44.903   4.391
81566W        W46386   2.529  30.016   0.879
81567W        W46387  11.377  31.880   1.758
81568W        W46388  17.089  26.619  13.563
81569W        W46389  29.686   4.777  13.109
81570W        W46390  20.970   7.199   3.627
81571W        W46391  32.189  40.899  11.387
81572W        W46392  36.406   4.687   1.710
81573W        W46393  36.108  16.290   0.794
81574W        W46394  19.125  39.974   1.881
81575W        W46395  19.491  41.063   0.418
81576W        W46396  40.360  41.551  11.912
81577W        W46397   0.289  29.672  10.704
81578W        W46398  25.723  21.620   5.095
81579W        W46399  20.765  33.621   1.191
81580W        W46400  16.092  11.418   1.589
81581W        W46401  34.622  31.632  14.938
81582W        W46402  36.529   9.951  14.564
81583W        W46403  36.021  22.627  14.846
81584W        W46404   3.677   2.062   0.745
81585W        W46405  28.641  14.295  13.001
81586W        W46406  11.863  13.284  11.621
81587W        W46407  10.789  32.371   3.418
81588W        W46408  22.171  19.096   1.451
81589W        W46409  12.731   2.648   4.860
81590W        W46410  23.774  38.954   1.180
81591W        W46411  34.319  37.700  12.094
81592W        W46412  26.237   0.697  12.014
81593W        W46413  37.776  32.766  14.193
81594W        W46414  23.276   9.357  14.436
81595W        W46415  39.712  34.803   0.823
81596W        W46416  35.262   7.214   3.525
81597W        W46417  27.092   8.748  13.482
81598W        W46418  18.538  27.943  13.947
81599W        W46419  12.886  10.949  13.462
81600W        W46420  32.963  20.710  10.296
81601W        W46421  31.179  44.470   1.086
81602W        W46422  31.612  34.958  11.614
81603W        W46423  40.612  42.304  14.844
81604W        W46424  15.072   4.829  12.413
81605W        W46425   5.298  40.585  12.020
81606W        W46426  30.836  35.995   3.323
81607W        W46427  26.590  26.899  14.947
81608W        W46428  20.577  41.889   1.116
81609W        W46429   9.979  33.936  12.973
81610W        W46430  40.382  40.550  12.753
81611W        W46431  30.493  10.712  11.624
81612W        W46432  41.134   4.330   1.215
81613W        W46433  13.822  41.260   3.342
81614W        W46434  34.000  36.905  14.249
81615W        W46435   1.657  33.824   1.840
81616W        W46436  11.759  33.105   4.494
81617W        W46437  19.819  32.229  10.594
81618W        W46438  39.979  12.635   0.817
81619W        W46439  36.995  27.661  14.875
81620W        W46440  36.269  34.073  13.740
81621W        W46441  22.757   9.745  12.885
81622W        W46442  12.868  39.906   0.811
81623W        W46443  16.402  20.164  11.549
81624W        W46444  26.956  13.802  11.136
81625W        W46445   4.833   7.780  11.879
81626W        W46446  43.055  36.592  12.590
81627W        W46447  21.133  14.728  12.834
81628W        W46448  18.210  27.269   0.352
81629W        W46449  32.365  29.225  11.127
81630W        W46450  15.934  28.720   2.779
81631W        W46451  12.612   3.463   1.706
81632W        W46452   4.250  39.411  14.368
81633W        W46453  34.472  15.081  14.059
81634W        W46454  33.368  29.678   1.856
81635W        W46455   8.292  21.609  12.621
81636W        W46456  32.096   2.383   4.073
81637W        W46457   3.263  38.548   4.840
81638W        W46458   8.479  30.617  14.863
81639W        W46459  23.779  31.466   4.315
81640W        W46460  27.895   0.697  11.101
81641W        W46461  32.858  37.985  13.464
81642W        W46462  23.997  17.847  14.081
81643W        W46463  35.108  15.377  10.146
81644W        W46464  30.197  41.834  13.485
81645W        W46465  15.285  21.535   4.258
81646W        W46466  30.471  15.095   3.993
81647W        W46467  42.905  20.154  14.809
81648W        W46468  30.075  11.388  14.446
81649W        W46469  10.586  26.415  10.527
81650W        W46470   4.288  24.603  11.590
81651W        W46471  25.635  39.514  12.933
81652W        W46472  32.720  36.912   3.797
81653W        W46473  21.196   0.823  12.835
81654W        W46474  17.802   3.052  14.880
81655W        W46475  12.457   7.194   0.375
81656W        W46476  25.003   4.726  13.822
81657W        W46477  19.226   0.684   3.722
81658W        W46478  24.118  13.331   1.780
81659W        W46479   8.307  28.823  10.840
81660W        W46480  13.048  35.278  12.514
81661W        W46481  12.266  20.270  10.223
81662W        W46482  18.414  43.909  10.457
81663W        W46483   1.250  35.484   2.005
81664W        W46484  23.929  41.996  10.985
81665W        W46485  29.263  42.029   0.598
81666W        W46486  30.980  11.118  13.022
81667W        W46487  32.071  21.117   0.858
81668W        W46488  44.942  38.817   0.040
81669W        W46489   0.211  36.052   3.002
81670W        W46490  24.606  14.143   3.672
81671W        W46491   5.207  16.190   2.389
81672W        W46492  19.281  32.635   3.108
81673W        W46493  44.175  29.996   1.263
81674W        W46494  17.637  25.714  14.953
81675W        W46495  43.025  38.996  13.410
81676W        W46496  28.992  15.832  14.895
81677W        W46497  31.582   8.658  11.472
81678W        W46498  39.877  37.648  14.928
81679W        W46499  15.877  28.185   0.741
81680W        W46500  44.383  13.331  10.786
81681W        W46501   8.126  38.619  14.311
81682W        W46502  34.944   7.945  10.898
81683W        W46503   8.021  20.035   2.820
81684W        W46504   9.298  17.705  13.525
81685W        W46505  39.870   2.087  14.819
81686W        W46506  21.485  28.659   3.272
81687W        W46507  23.971  44.991   2.749
81688W        W46508  39.488  44.925  11.606
81689W        W46509  33.428   5.736   0.377
81690W        W46510  19.081  40.212   5.401
81691W        W46511   5.041  28.119  11.116
81692W        W46512  20.691  32.845  14.866
81693W        W46513  10.199  39.250   1.208
81694W        W46514  10.170  23.650   3.530
81695W        W46515  12.099  11.334   4.498
81696W        W46516  34.511   1.884  13.333
81697W        W46517   3.131  31.150   1.865
81698W        W46518   5.195  39.954  10.660
81699W        W46519  37.637  33.852  14.934
81700W        W46520  12.921  24.036   1.645
81701W        W46521  35.440   6.569   3.186
81702W        W46522  24.220  29.228   1.208
81703W        W46523  38.353  39.079   2.187
81704W        W46524  38.254  39.868   4.719
81705W        W46525  32.768  31.619  13.936
81706W        W46526   3.759  22.264  12.419
81707W        W46527  33.017  13.448   0.483
81708W        W46528   4.052   7.754  12.981
81709W        W46529  29.973  18.525   2.128
81710W        W46530  10.934   9.255   3.338
81711W        W46531   2.173  33.596  10.659
81712W        W46532  28.353  27.537  13.809
81713W        W46533  15.635  38.946   1.996
81714W        W46534   5.358  38.130  14.021
81715W        W46535  27.704  17.807   2.176
81716W        W46536  10.958  41.586   4.098
81717W        W46537   7.847  32.031   1.965
81718W        W46538  17.325  25.163  14.810
81719W        W46539   5.709  28.013  13.541
81720W        W46540  22.136  20.047   1.983
81721W        W46541  25.168   9.383   4.246
81722W        W46542  16.210  44.279  12.502
81723W        W46543  12.725  31.888  13.517
81724W        W46544   2.684  18.275  10.703
81725W        W46545   5.947  31.970   3.160
81726W        W46546  15.392   5.106  14.428
81727W        W46547  34.152  37.264   1.813
81728W        W46548  27.228  19.801   1.294
81729W        W46549   4.208   5.374   4.715
81730W        W46550   3.014  14.726  11.821
81731W        W46551   8.751  44.247   0.035
81732W        W46552  30.944  44.019   0.908
81733W        W46553   2.576  23.339   3.426
81734W        W46554  40.869  36.248   3.559
81735W        W46555   0.422  23.133  13.785
81736W        W46556  31.578  31.369  14.381
81737W        W46557  21.869  11.371  10.857
81738W        W46558  29.110   4.337  10.697
81739W        W46559  15.700  32.496  11.999
81740W        W46560   8.014  29.921   3.227
81741W        W46561  21.023  17.656   0.375
81742W        W46562  25.721  28.959  13.884
81743W        W46563  12.666  15.796  14.598
81744W        W46564  14.246  16.584  14.987
81745W        W46565   5.715  26.232   4.557
81746W        W46566  16.606  31.733   4.146
81747W        W46567  44.227   0.843  10.380
81748W        W46568  33.456  16.035   1.328
81749W        W46569  27.275  16.177  11.183
81750W        W46570   0.134  44.722   4.201
81751W        W46571  22.742  23.495  10.709
81752W        W46572  29.233  32.441  14.398
81753W        W46573  33.540  25.231  13.736
81754W        W46574   1.276  28.289   2.023
81755W        W46575  41.774   5.178  10.277
81756W        W46576  13.264  24.031   4.326
81757W        W46577  21.445  39.379  10.323
81758W        W46578  10.847  11.583  12.453
81759W        W46579  13.621  20.133  10.606
81760W        W46580  10.281  15.859   0.538
81761W        W46581  11.273  22.949  13.578
81762W        W46582  17.145  43.674   0.389
81763W        W46583  41.955   4.751  10.511
81764W        W46584  42.442  27.221   4.468
81765W        W46585  15.697  32.297  14.351
81766W        W46586  23.648  37.490   2.727
81767W        W46587  40.242  13.373   2.429
81768W        W46588  26.689  31.824  13.760
81769W        W46589   6.023   4.825  12.003
81770W        W46590   0.042   2.321   0.382
81771W        W46591   5.852   6.739   4.713
81772W        W46592  15.311  18.804  14.920
81773W        W46593  17.666   1.245   3.450
81774W        W46594  40.900   8.697  10.178
81775W        W46595  39.533  32.164  13.948
81776W        W46596  29.113  28.622  12.459
81777W        W46597  15.400  15.122   5.459
81778W        W46598  19.671  15.759  12.310
81779W        W46599  35.377  28.660   4.207
81780W        W46600  24.194  21.854   2.749
81781W        W46601   2.486   5.251  11.174
81782W        W46602  38.126  12.235   3.123
81783W        W46603   0.014  31.359   3.259
81784W        W46604  35.117  21.848   0.341
81785W        W46605  36.485  15.654  11.594
81786W        W46606  14.639  43.773   0.310
81787W        W46607   7.144  12.013  11.045
81788W        W46608  29.912  44.400   4.897
81789W        W46609   1.381   8.417   2.253
81790W        W46610  11.246  15.271  14.010
81791W        W46611   2.493  38.497   3.621
81792W        W46612  37.293  34.488  11.195
81793W        W46613  20.037   8.170  12.122
81794W        W46614  36.708   8.157  12.483
81795W        W46615  35.580   5.716  13.846
81796W        W46616   8.406  41.080   4.767
81797W        W46617  36.098   2.492  13.656
81798W        W46618  40.854  32.971  14.935
81799W        W46619  16.990   2.587   2.422
81800W        W46620  21.796  10.649   3.632
81801W        W46621   6.979  22.704  13.853
81802W        W46622  10.189  30.920   1.417
81803W        W46623  36.540   1.288  14.464
81804W        W46624  40.061  11.926   3.351
81805W        W46625   6.964  11.757  12.109
81806W        W46626  20.823  25.669  12.317
81807W        W46627  35.020  28.906   3.009
81808W        W46628  38.819  17.761  14.173
81809W        W46629  24.608  16.802   0.320
81810W        W46630   9.453  37.048   0.319
81811W        W46631   3.818  25.045   0.314
81812W        W46632  43.717  40.286  11.906
81813W        W46633  43.472   1.974   3.198
81814W        W46634  35.990  10.652  14.797
81815W        W46635  37.862   0.577   0.493
81816W        W46636  17.609  19.244  13.815
81817W        W46637   6.376  27.094   4.589
81818W        W46638  26.483  14.214   3.890
81819W        W46639  12.761   8.696  10.587
81820W        W46640  44.446  12.429  10.740
81821W        W46641   0.007  13.856  11.582
81822W        W46642  44.616   4.630  11.077
81823W        W46643   1.422  23.945  11.477
81824W        W46644  10.384  11.947   3.286
81825W        W46645  18.238  19.909  11.988
81826W        W46646  38.374  21.478   3.569
81827W        W46647   7.236  10.696   2.567
81828W        W46648   7.183  30.497   4.568
81829W        W46649  36.105  29.694  14.029
81830W        W46650  22.885  40.919  14.693
81831W        W46651  18.704   2.422   4.184
81832W        W46652  42.057  22.247   2.599
81833W        W46653  33.166  42.728  10.218
81834W        W46654  30.529   6.930   3.183
81835W        W46655  17.878  28.926  11.598
81836W        W46656   7.342   0.457  13.589
81837W        W46657  41.546  28.181  11.665
81838W        W46658  37.284  33.615  13.041
81839W        W46659   1.531  23.847  13.714
81840W        W46660  20.297  22.242  10.706
81841W        W46661  42.969  40.619   2.683
81842W        W46662  10.172  10.916   3.281
81843W        W46663  28.624   4.194   3.116
81844W        W46664  41.961  24.473   1.771
81845W        W46665  21.314   1.747  12.903
81846W        W46666   4.782   9.146  12.018
81847W        W46667  24.701  12.574  11.550
81848W        W46668  21.106  10.712   0.083
81849W        W46669   3.680  13.197   1.202
81850W        W46670  15.056   5.271  13.491
81851W        W46671  15.429  19.754   3.678
81852W        W46672  22.086  41.781  12.140
81853W        W46673  42.951  23.249   0.238
81854W        W46674  34.637  37.531  11.724
81855W        W46675  39.804  38.414   1.227
81856W        W46676  20.416  22.677   2.348
81857W        W46677  16.272  40.350  13.861
81858W        W46678  20.227   0.146   2.759
81859W        W46679  43.853   8.167   1.683
81860W        W46680  26.691   4.754   0.218
81861W        W46681  31.562   6.715  10.786
81862W        W46682  29.622  25.116   3.827
81863W        W46683   5.940   7.405  11.511
81864W        W46684   2.201  13.712  10.723
81865W        W46685   7.842  18.503  10.532
81866W        W46686  30.229  27.454  11.802
81867W        W46687  33.972  23.278  12.801
81868W        W46688  32.262  39.558   1.823
81869W        W46689  14.614  38.057   0.459
81870W        W46690  36.055  15.523  11.309
81871W        W46691  11.082  38.917  11.012
81872W        W46692  20.609  10.442   4.703
81873W        W46693  26.565  41.138   1.720
81874W        W46694   8.037  17.979   5.442
81875W        W46695   1.772   4.245   1.323
81876W        W46696  34.829   5.616   2.195
81877W        W46697  10.770  16.845   2.750
81878W        W46698   4.354   4.882  11.169
81879W        W46699  28.418  35.830   2.792
81880W        W46700  41.041   7.887  13.864
81881W        W46701  18.924   4.321   0.309
81882W        W46702  39.823   3.922  11.628
81883W        W46703  30.682  42.454  11.688
81884W        W46704  26.124  41.338  10.426
81885W        W46705  23.043  14.571   4.476
81886W        W46706   0.453  33.081   3.650
81887W        W46707   6.651  16.113  14.704
81888W        W46708  18.003  42.090  10.775
81889W        W46709  25.870  32.947   5.402
81890W        W46710  39.571  44.018  11.736
81891W        W46711  44.532  44.435  11.493
81892W        W46712  21.554  17.672  13.970
81893W        W46713  27.419  24.250  12.088
81894W        W46714   9.277  20.671   0.857
81895W        W46715  21.452  44.172   2.865
81896W        W46716  37.880   6.702  12.368
81897W        W46717  39.780  39.419   2.800
81898W        W46718  27.258   3.391  14.315
81899W        W46719  13.791  27.431  12.393
81900W        W46720  17.750   2.240   2.530
81901W        W46721  35.019   4.706   0.162
81902W        W46722  30.041  27.529   4.029
81903W        W46723  36.507  31.695  12.200
81904W        W46724   9.210  33.979   3.615
81905W        W46725  39.124  31.090   3.077
81906W        W46726  19.988  20.142  13.868
81907W        W46727  38.408   4.161   0.067
81908W        W46728  31.349  42.716   4.336
81909W        W46729   8.839   3.256   3.688
81910W        W46730  23.443  41.453  13.740
81911W        W46731  24.073   7.244   2.804
81912W        W46732  35.561   1.283   0.425
81913W        W46733  43.033  28.932   1.296
81914W        W46734  36.770  17.061   4.796
81915W        W46735   5.713  41.926  14.122
81916W        W46736   7.807  25.442  12.565
81917W        W46737  13.750  28.985   3.145
81918W        W46738  35.297  15.995   1.259
81919W        W46739  33.200  16.200   1.780
81920W        W46740  22.948  14.745  13.843
81921W        W46741  29.177  43.390  12.117
81922W        W46742  37.407  44.969  10.721
81923W        W46743   3.015  13.352  13.417
81924W        W46744  40.631  20.246   1.172
81925W        W46745  34.682  37.213   3.109
81926W        W46746   1.661  17.813  11.620
81927W        W46747  17.203  41.633  14.102
81928W        W46748  16.271  32.967   0.970
81929W        W46749   1.008   4.896  14.356
81930W        W46750  32.049  20.513  10.170
81931W        W46751  30.228  38.065  12.145
81932W        W46752  29.609  28.503   0.381
81933W        W46753  12.797   8.401  14.709
81934W        W46754   4.410   4.416  12.504
81935W        W46755  44.971   3.655   2.297
81936W        W46756   9.615  31.443  13.973
81937W        W46757  39.095   9.691   3.266
81938W        W46758  30.009  22.142  12.428
81939W        W46759   9.783  12.719  10.406
81940W        W46760   9.867   2.954   1.206
81941W        W46761  30.365  24.945   4.705
81942W        W46762  12.350  16.089  14.332
81943W        W46763  32.700  35.271   2.065
81944W        W46764  41.241  29.566   0.930
81945W        W46765   7.221   9.434   4.739
81946W        W46766  35.972  22.820   2.325
81947W        W46767  31.883  40.129  10.801
81948W        W46768  23.751   1.030  12.789
81949W        W46769  26.617  35.747   0.054
81950W        W46770  27.055  28.193  11.155
81951W        W46771  17.697   3.934  13.883
81952W        W46772  30.040   3.007  12.962
81953W        W46773  18.779  15.190   3.740
81954W        W46774  41.563  29.046  13.325
81955W        W46775  34.551  34.180   4.705
81956W        W46776  20.980   5.506  11.870
81957W        W46777  43.488  11.703   4.829
81958W        W46778   0.297  24.722  10.967
81959W        W46779   5.474  13.188   0.976
81960W        W46780   2.926   8.320  12.871
81961W        W46781  23.734  36.607  14.651
81962W        W46782  15.260  12.880  13.069
81963W        W46783  27.930   0.506   3.362
81964W        W46784   4.934  31.230  11.142
81965W        W46785   8.014  35.351   3.370
81966W        W46786  24.395  32.640   2.712
81967W        W46787  16.715  20.242  10.497
81968W        W46788  20.772  27.358  13.022
81969W        W46789  44.342  15.717   3.118
81970W        W46790   9.141  30.161   4.063
81971W        W46791  12.219  17.498  13.729
81972W        W46792  42.834  17.166  12.072
81973W        W46793   4.623   6.270   2.497
81974W        W46794  12.094  19.314  11.509
81975W        W46795  36.895  31.895  13.326
81976W        W46796   5.108  30.517   1.295
81977W        W46797   7.773  35.403  10.827
81978W        W46798   6.333   8.320   1.199
81979W        W46799  14.365  14.778   3.740
81980W        W46800  44.808   0.236  10.749
81981W        W46801  13.255   8.263   4.665
81982W        W46802  40.959  34.480   4.228
81983W        W46803  21.463  18.791   0.912
81984W        W46804   1.887  17.645  14.026
81985W        W46805  18.994  14.141  11.124
81986W        W46806  10.805  23.787  12.131
81987W        W46807  28.980   3.882  14.770
81988W        W46808   0.886  38.600  14.966
81989W        W46809   3.808  30.657   4.079
81990W        W46810   7.891   1.792   3.306
81991W        W46811   4.190  13.106   1.282
81992W        W46812  10.905  44.945  13.978
81993W        W46813  13.115  28.837   3.038
81994W        W46814  18.703  25.704   0.663
81995W        W46815  39.734   4.420   0.997
81996W        W46816  34.592  26.644   3.357
81997W        W46817  29.347  22.002   3.157
81998W        W46818  31.476   8.414  14.108
81999W        W46819  34.312  39.152   2.746
82000W        W46820   8.956   6.707  14.589
82001W        W46821  33.564  19.294   4.466
82002W        W46822  15.665  25.095  12.317
82003W        W46823   1.929  12.795  13.813
82004W        W46824  37.439  28.408   4.649
82005W        W46825  23.604  16.328   3.300
82006W        W46826  29.190  41.705   4.146
82007W        W46827  35.019   4.198  12.400
82008W        W46828   5.210  14.365   3.238
82009W        W46829  17.592  31.461   1.878
82010W        W46830   3.386  27.922  10.593
82011W        W46831   6.271  18.725   1.818
82012W        W46832  31.518  27.176  11.650
82013W        W46833  24.018  28.054  10.622
82014W        W46834  35.005  15.047   3.744
82015W        W46835  32.202  30.470  11.919
82016W        W46836  19.616  28.137  11.103
82017W        W46837  16.749  13.181   3.433
82018W        W46838   6.138   0.886   3.607
82019W        W46839  14.437   2.260   1.384
82020W        W46840   6.246  23.495  13.726
82021W        W46841   6.682  25.027   4.271
82022W        W46842  27.220  41.941  14.322
82023W        W46843  32.876  26.864   1.341
82024W        W46844  18.339  20.533  13.387
82025W        W46845   8.163   5.977   3.682
82026W        W46846   0.283  24.551  13.872
82027W        W46847   2.945  12.243   2.968
82028W        W46848   3.475  19.613  11.607
82029W        W46849  39.178  26.032   3.623
82030W        W46850  30.939  11.283   2.277
82031W        W46851  22.953  18.092   3.278
82032W        W46852  31.370  15.601  10.240
82033W        W46853  25.497  20.181  10.217
82034W        W46854  20.209   7.946  10.125
82035W        W46855  29.710  40.771   1.803
82036W        W46856  27.068   3.670  12.925
82037W        W46857  36.096   1.362   3.782
82038W        W46858  19.033   3.796   2.870
82039W        W46859  28.641   9.278   2.564
82040W        W46860  32.844   5.744  12.962
82041W        W46861  29.890  15.136   0.649
82042W        W46862  44.288   6.942  10.570
82043W        W46863  17.264   0.248   3.076
82044W        W46864  44.514   6.205   1.766
82045W        W46865  19.028  19.746   2.219
82046W        W46866   5.633  27.132   0.865
82047W        W46867   7.939  35.925  14.884
82048W        W46868   3.107  22.721  12.054
82049W        W46869  12.170  21.549   2.822
82050W        W46870   0.264  17.703  12.967
82051W        W46871   5.563   0.001  14.777
82052W        W46872  13.077   9.216   4.525
82053W        W46873   4.431   1.386   3.091
82054W        W46874  41.415  40.956   0.376
82055W        W46875   4.694  12.363   0.864
82056W        W46876  24.259   6.344   0.170
82057W        W46877   7.448  22.020  12.221
82058W        W46878   1.414  19.768   1.257
82059W        W46879  40.045  22.883  11.237
82060W        W46880   0.901  17.163  11.219
82061W        W46881   6.605  14.249  11.853
82062W        W46882  33.016  26.579   5.330
82063W        W46883  26.738   8.040  10.645
82064W        W46884  33.455   4.971  11.111
82065W        W46885  33.703  39.468  12.869
82066W        W46886   7.686  44.581   2.360
82067W        W46887  42.050  21.268   2.700
82068W        W46888  43.427  29.368  12.485
82069W        W46889  43.214   3.888  11.159
82070W        W46890  17.258  32.863  12.427
82071W        W46891  31.979  44.049  10.843
82072W        W46892  19.699  28.164  10.594
82073W        W46893  27.705  23.771   2.340
82074W        W46894  16.810  33.414   0.026
82075W        W46895   9.758   9.346   0.385
82076W        W46896  31.392   7.178  14.840
82077W        W46897  30.923   2.438  10.965
82078W        W46898   4.141  18.106   9.810
82079W        W46899   2.062  27.034   4.644
82080W        W46900  28.486  20.763   4.209
82081W        W46901  18.119  24.259  12.039
82082W        W46902  37.037  23.350   4.509
82083W        W46903  18.028  28.209   0.019
82084W        W46904  22.237  34.131  10.663
82085W        W46905  20.730  38.971   1.555
82086W        W46906  16.616  37.430  11.763
82087W        W46907  30.718  29.583  12.117
82088W        W46908   0.902  19.564  13.502
82089W        W46909  25.057   3.178   3.211
82090W        W46910  20.223  41.875   3.802
82091W        W46911   9.103  42.419   2.692
82092W        W46912  40.533  20.165   4.086
82093W        W46913  30.927   4.528  10.650
82094W        W46914  12.569  29.296  14.491
82095W        W46915  30.090  21.276   2.831
82096W        W46916  19.682  34.035   3.312
82097W        W46917  21.449   9.915  14.290
82098W        W46918  19.755  29.025   0.540
82099W        W46919  43.438  36.434   0.733
82100W        W46920  19.495  40.896  12.108
82101W        W46921   0.016   1.106   3.860
82102W        W46922  10.334  22.155   0.889
82103W        W46923   6.520   0.410   1.783
82104W        W46924  10.678  19.033  12.978
82105W        W46925  11.071  32.147  14.380
82106W        W46926  15.959  26.480  12.616
82107W        W46927  16.778  20.109  14.065
82108W        W46928  21.803  11.676   3.632
82109W        W46929  24.140  17.768   0.055
82110W        W46930  17.254  27.710   0.427
82111W        W46931  17.868  31.447   2.312
82112W        W46932  40.937  26.132   2.425
82113W        W46933  32.295  27.084   3.634
82114W        W46934   1.585  18.828  13.967
82115W        W46935  27.652  11.719   2.204
82116W        W46936  29.528   6.119   2.092
82117W        W46937  24.185  31.813   1.944
82118W        W46938  37.016   1.986  14.774
82119W        W46939   7.972  16.677  14.765
82120W        W46940  35.977  25.710  14.911
82121W        W46941  18.249  32.090   2.889
82122W        W46942   7.246   0.498  11.475
82123W        W46943   7.430  30.980   4.560
82124W        W46944  11.933  38.525   2.474
82125W        W46945  32.974   2.916   1.467
82126W        W46946  36.595  19.371   3.154
82127W        W46947  35.836  37.943   3.947
82128W        W46948  33.550  21.128  10.731
82129W        W46949  44.261   0.304  12.431
82130W        W46950  23.674  19.498   1.832
82131W        W46951   9.496  23.638  14.883
82132W        W46952   7.765   3.000  10.522
82133W        W46953  16.133  38.056  11.120
82134W        W46954  29.007  25.477   3.774
82135W        W46955  15.344   9.638  14.319
82136W        W46956  25.684  11.774   3.441
82137W        W46957  17.579  44.447  10.781
82138W        W46958  26.602  16.269   4.725
82139W        W46959  18.150  23.717   2.239
82140W        W46960   6.391  24.516  12.766
82141W        W46961  30.050  29.258   3.769
82142W        W46962  16.732  35.872   1.683
82143W        W46963  16.820  12.908  14.815
82144W        W46964  14.881  33.825   2.354
82145W        W46965   2.768  41.812   4.116
82146W        W46966   5.718   3.251   1.476
82147W        W46967  13.811  24.973  11.907
82148W        W46968  44.430  27.756  14.174
82149W        W46969  42.997  29.985   4.116
82150W        W46970  41.578  13.588   3.248
82151W        W46971   4.262  38.068   2.527
82152W        W46972   8.813  21.604  11.956
82153W        W46973   7.121  25.456  11.123
82154W        W46974  13.155  15.036  13.382
82155W        W46975  19.180   5.837   1.648
82156W        W46976   1.752  14.788  11.948
82157W        W46977   8.380  26.544  10.788
82158W        W46978  29.655  42.839   2.248
82159W        W46979  14.793   4.667   1.768
82160W        W46980  33.873  40.261  11.662
82161W        W46981   4.206  38.817  13.591
82162W        W46982   9.175  26.429   3.331
82163W        W46983  16.370  12.741   4.071
82164W        W46984  31.906  20.628   0.958
82165W        W46985  19.506  28.668   3.270
82166W        W46986  36.040  23.622   3.046
82167W        W46987  11.224  11.038   1.382
82168W        W46988  35.244   0.772  13.333
82169W        W46989  22.633   3.817   0.746
82170W        W46990   7.992   3.000  14.713
82171W        W46991   4.720  42.393  11.296
82172W        W46992  13.726  18.302   0.902
82173W        W46993  27.047  20.979   2.601
82174W        W46994   9.422  11.791   3.619
82175W        W46995  35.085  40.595   4.132
82176W        W46996  37.585  20.278   1.555
82177W        W46997  41.331  44.278  11.127
82178W        W46998  43.956  13.126  13.556
82179W        W46999   3.407  17.705  14.191
82180W        W47000  41.669   8.546   1.018
82181W        W47001  16.749  43.954   0.702
82182W        W47002  19.556  32.916  14.365
82183W        W47003  20.722  38.171   4.607
82184W        W47004  23.244  32.550   1.366
82185W        W47005  42.857  37.519   1.882
82186W        W47006  35.407   9.319   0.299
82187W        W47007  34.943  44.382  13.554
82188W        W47008  14.513  14.078   0.382
82189W        W47009  40.966  37.106   3.159
82190W        W47010   3.371  19.123   1.877
82191W        W47011  24.770  37.155  12.534
82192W        W47012  24.021  40.827   2.355
82193W        W47013  35.781  34.338  12.056
82194W        W47014  41.447   3.372  13.456
82195W        W47015  33.972  29.006   0.147
82196W        W47016  23.061   5.942  14.373
82197W        W47017  18.557  17.499  11.228
82198W        W47018  20.849  23.627   3.125
82199W        W47019  40.419  17.276   2.020
82200W        W47020   5.677  18.799   2.749
82201W        W47021  30.036  11.597   1.432
82202W        W47022  25.666  29.217  11.566
82203W        W47023  25.229  40.307   1.291
82204W        W47024  43.802  33.875  12.501
82205W        W47025  40.578  39.006   3.819
82206W        W47026  44.055  37.946  11.874
82207W        W47027   9.842   9.416  13.939
82208W        W47028  29.409  28.026   4.987
82209W        W47029  15.303  31.544  12.945
82210W        W47030  31.945  25.805   0.272
82211W        W47031   0.617  29.172  12.251
82212W        W47032  16.529  44.226   3.729
82213W        W47033   2.850   9.370   1.662
82214W        W47034  22.576  19.757   3.681
82215W        W47035  25.320   0.408  12.980
82216W        W47036  15.093   5.735   0.363
82217W        W47037  14.140  21.342   4.089
82218W        W47038   7.563  27.881  12.741
82219W        W47039   6.403  10.086   1.249
82220W        W47040  29.207   6.739  10.690
82221W        W47041   3.694   6.356  10.796
82222W        W47042  29.020  35.566  12.128
82223W        W47043  37.936  35.084   3.042
82224W        W47044   5.975  32.843  11.467
82225W        W47045  21.913  31.011  11.622
82226W        W47046   2.316  41.029   4.521
82227W        W47047   8.438  24.194  10.296
82228W        W47048   9.591  32.480  12.617
82229W        W47049   8.372   5.875  14.393
82230W        W47050   0.299  11.030  11.470
82231W        W47051  17.584  23.615  11.582
82232W        W47052  26.008  41.004  12.065
82233W        W47053  15.127  10.151  13.423
82234W        W47054   1.172   7.758   3.396
82235W        W47055  23.247   7.783   4.422
82236W        W47056  17.745  14.155   2.819
82237W        W47057  38.932  32.341   4.478
82238W        W47058  22.550  19.772  13.869
82239W        W47059  17.159   9.696  13.515
82240W        W47060   3.719  11.605  12.099
82241W        W47061   7.869  22.159   0.862
82242W        W47062  29.951  20.326   3.815
82243W        W47063  15.291  43.054  11.170
82244W        W47064  32.451  34.372  14.234
82245W        W47065  10.657   0.782  12.494
82246W        W47066  33.942   9.820   1.733
82247W        W47067   6.723  11.838   2.726
82248W        W47068  27.780  16.189  11.213
82249W        W47069  29.220   5.358   1.302
82250W        W47070  19.994  14.809   4.324
82251W        W47071  23.156   9.724   0.735
82252W        W47072  40.468   8.032   0.705
82253W        W47073  24.556  22.239   4.601
82254W        W47074  19.797  14.714   1.731
82255W        W47075  21.570  27.149   3.267
82256W        W47076  25.008  25.866  10.649
82257W        W47077  11.452  32.158   4.114
82258W        W47078  41.812   2.325  10.484
82259W        W47079  21.075   2.556   1.858
82260W        W47080  29.161  22.002  10.686
82261W        W47081  35.009   3.730  10.643
82262W        W47082  27.449  36.504   4.585
82263W        W47083  35.863   5.775   0.705
82264W        W47084   9.651   5.359  14.551
82265W        W47085  24.415  44.461   2.734
82266W        W47086  17.816  16.260  12.075
82267W        W47087  33.215  44.956  10.753
82268W        W47088  40.051  21.871  12.214
82269W        W47089  41.475   1.804  14.438
82270W        W47090   8.940  43.746  13.271
82271W        W47091  30.814  19.784  13.089
82272W        W47092  27.623  28.678  12.434
82273W        W47093  41.784  27.661  10.615
82274W        W47094  21.709  17.184   3.091
82275W        W47095  39.515  38.890   0.515
82276W        W47096  12.318  33.964   2.775
82277W        W47097  23.370  12.291   1.255
82278W        W47098  29.087  20.975   2.552
82279W        W47099  15.570   9.417  13.901
82280W        W47100  17.582  18.152   0.723
82281W        W47101   0.064  12.874   4.069
82282W        W47102  42.527  25.097  12.057
82283W        W47103  30.524  21.017  10.825
82284W        W47104  42.660  16.421   0.118
82285W        W47105  32.642  31.609   1.306
82286W        W47106   0.954  15.053   1.917
82287W        W47107  33.038   0.437  10.624
82288W        W47108  26.512   9.926  11.725
82289W        W47109  21.780  36.504   1.339
82290W        W47110   4.796  30.629   4.149
82291W        W47111  35.545  43.308   0.053
82292W        W47112   2.840  38.930  14.107
82293W        W47113   3.833  25.349   9.893
82294W        W47114  33.527  29.134  12.673
82295W        W47115   0.034   1.403   0.316
82296W        W47116  44.245  42.190  13.457
82297W        W47117  32.281  37.750  11.172
82298W        W47118  38.576  39.462   4.626
82299W        W47119  13.198  12.757   1.716
82300W        W47120  12.723   6.337   1.817
82301W        W47121  37.345   8.656  13.831
82302W        W47122  28.030  42.469   1.432
82303W        W47123  22.192  36.603  10.669
82304W        W47124   5.862  42.458   1.661
82305W        W47125  22.441  18.183  11.862
82306W        W47126  15.921  16.246   1.226
82307W        W47127  35.858  28.676   4.430
82308W        W47128  38.114  41.935  14.233
82309W        W47129  13.699  17.374  11.353
82310W        W47130  21.649  44.441  12.407
82311W        W47131  10.698  22.445  12.592
82312W        W47132  23.134  33.714   0.435
82313W        W47133   3.499  25.713   3.977
82314W        W47134  41.353  41.417   1.226
82315W        W47135  31.811  25.146  12.601
82316W        W47136  24.179  12.011   1.164
82317W        W47137  26.146  11.681   4.211
82318W        W47138  31.951  37.503  13.680
82319W        W47139   7.365  28.751   4.590
82320W        W47140  40.774  38.759  10.841
82321W        W47141  16.120  25.114   0.260
82322W        W47142  15.672   3.874   0.904
82323W        W47143  43.519  17.316   0.297
82324W        W47144  24.966  12.195  14.994
82325W        W47145  35.081  44.511   4.854
82326W        W47146   8.841  32.114   0.696
82327W        W47147  12.822  19.513  14.297
82328W        W47148  37.984  34.374  13.436
82329W        W47149  30.630  13.956   0.290
82330W        W47150   8.202  39.945   1.279
82331W        W47151  15.616  13.839   0.794
82332W        W47152   7.513  29.506  14.855
82333W        W47153  34.004   2.549   4.651
82334W        W47154  19.909  33.100  10.712
82335W        W47155  27.025  38.714  11.943
82336W        W47156   4.021  14.199   2.310
82337W        W47157  15.117  35.312   4.232
82338W        W47158  13.274  23.201  13.783
82339W        W47159  31.084  37.487   2.625
82340W        W47160  18.583  21.192   0.763
82341W        W47161  30.447  33.636   2.970
82342W        W47162  40.531  41.527  14.492
82343W        W47163  34.858   3.855   1.355
82344W        W47164  18.161  42.896  14.972
82345W        W47165  25.548   0.855  12.788
82346W        W47166  40.777  28.046   1.665
82347W        W47167  41.637   6.701   2.887
82348W        W47168  24.264  27.606  10.579
82349W        W47169   6.734  44.535   1.179
82350W        W47170   2.276  27.210   0.739
82351W        W47171  41.746   8.277  14.318
82352W        W47172  30.531  29.131   0.409
82353W        W47173  30.997  42.794  13.027
82354W        W47174  36.042  40.767   2.583
82355W        W47175  18.747  17.257  14.961
82356W        W47176  20.817  35.694   5.284
82357W        W47177  40.533   6.085   0.244
82358W        W47178  14.220  11.185  13.435
82359W        W47179   7.738  34.010   0.843
82360W        W47180   3.869  38.026   0.486
82361W        W47181   3.803  34.368  13.388
82362W        W47182  44.498  43.634  11.028
82363W        W47183  21.236  40.853   4.814
82364W        W47184  28.140  42.744   5.013
82365W        W47185  21.777  37.410  13.008
82366W        W47186  35.318  19.275   0.951
82367W        W47187  11.977   1.670   0.777
82368W        W47188  43.209  24.224   0.517
82369W        W47189  10.860  28.159   1.712
82370W        W47190  29.491  33.609   1.762
82371W        W47191  44.287  44.051   4.096
82372W        W47192  40.613  27.898   3.702
82373W        W47193  16.025  28.985  12.641
82374W        W47194  15.793   9.128   3.252
82375W        W47195  10.659  20.546   0.436
82376W        W47196   0.881  23.188   1.739
82377W        W47197   9.561  38.579   2.706
82378W        W47198  31.292   2.260   4.509
82379W        W47199  35.457  10.693  13.099
82380W        W47200  22.258  43.125   1.363
82381W        W47201  13.807  17.987   4.481
82382W        W47202  11.356  32.200  13.953
82383W        W47203   3.535  40.365  11.924
82384W        W47204  17.815  39.550   3.160
82385W        W47205  26.009  43.504  12.923
82386W        W47206  11.226  22.651  11.437
82387W        W47207  27.432  39.452   3.807
82388W        W47208  10.746  10.232   0.897
82389W        W47209  31.919  21.071  11.024
82390W        W47210  16.994  20.124   2.091
82391W        W47211  10.317  33.440  14.539
82392W        W47212  18.878   5.480  10.710
82393W        W47213  28.916   7.328   3.731
82394W        W47214   2.802  21.364   4.114
82395W        W47215  38.955  29.977  13.772
82396W        W47216   9.757  34.256  10.271
82397W        W47217  32.339  14.903   1.213
82398W        W47218  30.672  22.036   1.832
82399W        W47219   8.801   3.900  14.536
82400W        W47220  36.394   2.789   2.708
82401W        W47221   3.449  11.706   0.490
82402W        W47222   2.110  12.010   0.811
82403W        W47223  25.377   5.982  12.745
82404W        W47224   7.751  39.042   5.081
82405W        W47225  19.524  43.965   4.033
82406W        W47226   4.143  33.322   1.213
82407W        W47227  44.379  44.176   5.111
82408W        W47228  28.795  43.340   0.470
82409W        W47229  20.319  26.437   1.975
82410W        W47230  16.351  43.667   4.941
82411W        W47231  27.510  39.562  13.379
82412W        W47232  14.347  26.798   1.216
82413W        W47233  26.663  41.437   2.903
82414W        W47234  20.169  40.561   1.488
82415W        W47235  38.105  34.574   4.933
82416W        W47236  11.341  26.753  13.038
82417W        W47237  35.655   5.412   2.722
82418W        W47238  41.803  12.478   0.568
82419W        W47239  24.228  12.200  14.208
82420W        W47240  29.706  31.929   2.067
82421W        W47241  39.540  31.494   2.356
82422W        W47242  26.240  24.972  11.102
82423W        W47243  39.876  43.823   4.980
82424W        W47244  10.240  29.885   3.230
82425W        W47245  22.215  28.839  11.953
82426W        W47246  20.410  14.559   0.213
82427W        W47247  34.505   0.303   0.705
82428W        W47248  11.861  32.104  13.938
82429W        W47249  36.028  36.462  13.365
82430W        W47250  36.411   9.213  11.976
82431W        W47251  24.258  31.127  11.582
82432W        W47252  16.782  40.160   0.797
82433W        W47253  18.787  42.643   4.996
82434W        W47254   6.687  44.021   1.118
82435W        W47255  37.871   7.645   1.687
82436W        W47256  12.716  15.187   0.776
82437W        W47257  13.891  22.444  12.506
82438W        W47258  17.868  15.685  11.632
82439W        W47259   6.983  43.465  11.176
82440W        W47260  11.483  25.781   1.792
82441W        W47261   8.736  11.723  10.526
82442W        W47262  25.910  34.459   3.561
82443W        W47263  40.586  22.107   0.330
82444W        W47264  41.102  11.348   1.685
82445W        W47265   1.447  30.485   1.054
82446W        W47266  36.358   5.982  12.856
82447W        W47267  35.381  41.505   3.932
82448W        W47268  35.219  44.846   4.170
82449W        W47269  29.952  20.781   1.388
82450W        W47270  28.217  20.483   1.258
82451W        W47271  14.088  19.053  11.162
82452W        W47272   5.233  11.856   0.337
82453W        W47273  13.268  15.750   0.389
82454W        W47274   0.418  37.593  14.391
82455W        W47275   0.131  22.057  10.726
82456W        W47276  15.188  15.980   4.612
82457W        W47277   4.703  13.026  13.109
82458W        W47278  42.827  16.747  14.259
82459W        W47279   8.245   9.388  14.513
82460W        W47280  40.331  22.107  14.880
82461W        W47281  15.371  38.318   2.561
82462W        W47282  41.582  34.989   4.641
82463W        W47283  35.146  40.769   2.310
82464W        W47284  28.592  32.457   2.844
82465W        W47285  43.798  19.535  14.036
82466W        W47286  38.418  29.208  14.816
82467W        W47287   3.998  13.829   1.955
82468W        W47288  14.284  40.471   0.909
82469W        W47289  11.882  25.148  14.291
82470W        W47290  22.624   5.438  10.065
82471W        W47291  37.218  15.395   9.439
82472W        W47292  34.825  14.813   2.889
82473W        W47293   6.483  27.785  13.190
82474W        W47294  20.044  32.129   3.227
82475W        W47295  10.769   3.400   0.712
82476W        W47296  20.756   0.658  11.585
82477W        W47297  21.068  12.070   4.052
82478W        W47298  27.161  30.795   3.519
82479W        W47299  43.634   4.062   4.549
82480W        W47300  29.994  34.370  11.681
82481W        W47301  43.238  36.893  14.998
82482W        W47302  38.119   3.068   1.286
82483W        W47303  24.474  38.532   1.604
82484W        W47304   3.015  25.530   3.808
82485W        W47305  21.978   4.727  12.598
82486W        W47306  11.668  18.184   4.156
82487W        W47307   2.908  16.055   2.201
82488W        W47308  23.179  26.228  12.894
82489W        W47309  43.511  36.855   0.444
82490W        W47310   6.961  18.575  14.808
82491W        W47311  41.312   0.978   0.748
82492W        W47312  16.286  19.673  12.545
82493W        W47313  17.662  38.206  12.993
82494W        W47314  18.528  35.372   2.712
82495W        W47315  39.777   6.412  12.294
82496W        W47316  22.502  40.851   0.118
82497W        W47317  20.388   8.677   3.648
82498W        W47318   6.729  14.253  12.867
82499W        W47319  40.054   6.373  14.497
82500W        W47320  14.013  29.125   2.679
82501W        W47321  25.157  22.707   2.033
82502W        W47322  22.729   1.804   1.598
82503W        W47323  25.218  18.048   9.804
82504W        W47324   5.535  34.419  13.967
82505W        W47325  29.762  28.113  13.519
82506W        W47326  18.089  24.567   4.534
82507W        W47327  25.263  30.911  11.505
82508W        W47328   3.033  32.509  11.127
82509W        W47329  30.792  28.215   3.687
82510W        W47330   6.263  42.929   0.493
82511W        W47331  21.718  10.760   2.101
82512W        W47332  15.692   4.799  11.012
82513W        W47333  19.802   1.950   1.301
82514W        W47334  17.086  42.452  12.359
82515W        W47335  38.041  23.373  14.373
82516W        W47336  37.087  30.400   1.651
82517W        W47337  28.362  31.029   3.601
82518W        W47338  28.104   0.456   1.457
82519W        W47339   6.862  30.049  14.119
82520W        W47340   2.205   0.190  11.584
82521W        W47341   8.751  22.105   3.614
82522W        W47342  37.272   8.885   3.706
82523W        W47343   3.433  26.490   3.680
82524W        W47344   5.256  14.452   5.069
82525W        W47345  28.600  19.008   2.158
82526W        W47346  34.068  21.572  14.400
82527W        W47347  24.635  33.904   4.575
82528W        W47348  29.108  38.904   0.412
82529W        W47349   9.273  39.723  10.625
82530W        W47350  38.610   7.758   1.235
82531W        W47351   6.691  37.928   2.184
82532W        W47352  17.442   3.701   2.133
82533W        W47353   6.202  33.720   0.854
82534W        W47354  35.851  38.702   0.425
82535W        W47355  26.756  39.788   1.387
82536W        W47356   4.075  38.104   3.928
82537W        W47357   2.242  14.529   3.628
82538W        W47358  17.812  24.989   1.310
82539W        W47359  23.575  35.635   0.296
82540W        W47360  42.412  19.737  13.830
82541W        W47361  42.718  41.118  12.028
82542W        W47362  41.484  12.793  11.131
82543W        W47363  24.646   3.034  12.221
82544W        W47364   0.225  30.182   0.290
82545W        W47365  10.152   4.431  11.962
82546W        W47366  13.966  30.582  12.028
82547W        W47367   1.421  40.512  13.444
82548W        W47368  29.681  33.238  12.031
82549W        W47369  41.892   2.902   0.679
82550W        W47370   9.210   0.893   3.284
82551W        W47371  40.024   0.877   3.341
82552W        W47372  16.241  14.598  13.585
82553W        W47373   7.160   8.626   0.792
82554W        W47374   3.672   5.940  11.128
82555W        W47375  30.402  24.931  12.513
82556W        W47376  26.918  11.379  12.935
82557W        W47377  38.453  15.930   1.367
82558W        W47378  29.723  23.329  13.649
82559W        W47379  21.528  40.829   0.259
82560W        W47380   0.301  22.481   0.930
82561W        W47381   3.500  37.414   4.180
82562W        W47382  30.211  22.904   3.209
82563W        W47383  29.058  39.033  14.839
82564W        W47384  11.893  13.816   3.295
82565W        W47385  20.090   4.905  10.898
82566W        W47386   4.347  28.492   4.167
82567W        W47387  39.143  13.167  12.639
82568W        W47388  21.071  29.190  14.976
82569W        W47389  33.859   5.660   2.741
82570W        W47390   4.145  12.613  13.354
82571W        W47391   3.743  19.822  13.993
82572W        W47392  38.218  29.478  10.784
82573W        W47393  42.323  25.591   3.839
82574W        W47394  37.473  35.590   3.637
82575W        W47395  30.009  11.986   3.105
82576W        W47396  41.823  26.869   1.041
82577W        W47397  28.610  40.000   2.305
82578W        W47398  32.490  23.896  11.488
82579W        W47399  37.688  33.668   3.297
82580W        W47400  41.575   6.476   4.357
82581W        W47401  23.672  12.727   1.801
82582W        W47402  42.720   9.735  12.959
82583W        W47403  20.169  10.945   4.213
82584W        W47404  37.504  38.921  12.341
82585W        W47405  34.868  24.073  13.363
82586W        W47406  29.691  13.641   0.678
82587W        W47407  43.339   5.173   1.704
82588W        W47408  35.342  29.077   2.639
82589W        W47409  17.498  25.928  13.607
82590W        W47410   7.189  23.035   3.420
82591W        W47411  12.369   8.420   1.416
82592W        W47412  26.515  37.925  10.287
82593W        W47413  21.231  39.996  11.625
82594W        W47414   7.913  14.729   0.953
82595W        W47415  22.008   7.713   3.829
82596W        W47416  27.737  36.084  11.891
82597W        W47417  17.760   2.005   4.155
82598W        W47418  19.000   7.037  10.570
82599W        W47419  35.601   8.954   1.188
82600W        W47420  39.596  37.272   4.049
82601W        W47421  15.475  25.603   0.720
82602W        W47422  36.769  16.987  10.782
82603W        W47423   1.003  29.057   3.866
82604W        W47424  24.111  26.583  13.369
82605W        W47425   1.616  15.825   2.287
82606W        W47426   3.909  21.807  10.538
82607W        W47427   0.857  18.340   3.272
82608W        W47428  12.936  11.346  10.474
82609W        W47429  14.724  25.045   4.006
82610W        W47430  23.509   5.397  12.213
82611W        W47431  29.578  23.413  10.742
82612W        W47432  16.792  32.557   2.308
82613W        W47433  27.895  35.579  14.288
82614W        W47434  14.845   9.867   2.304
82615W        W47435  15.736  11.773  10.620
82616W        W47436  11.383  36.538  14.519
82617W        W47437  29.041  43.166   3.354
82618W        W47438  40.584   4.367  11.540
82619W        W47439  38.701  44.540  11.025
82620W        W47440  41.855   2.944  12.185
82621W        W47441   7.658  37.839  13.539
82622W        W47442  37.008  23.037   0.485
82623W        W47443  15.796  35.975  13.003
82624W        W47444  30.638   9.410   3.558
82625W        W47445  29.415  18.470  14.718
82626W        W47446   4.003  40.513   3.270
82627W        W47447   7.208  28.464   0.995
82628W        W47448  20.568   4.353   4.094
82629W        W47449  29.873  26.181  11.580
82630W        W47450  15.014  32.834   0.388
82631W        W47451  44.818  29.284  14.927
82632W        W47452   9.589   7.374   1.827
82633W        W47453   6.247  39.960   0.396
82634W        W47454  31.377  11.006   4.252
82635W        W47455  43.586   9.265  13.807
82636W        W47456  33.558  19.390  10.865
82637W        W47457  25.659  12.580  11.473
82638W        W47458  39.137  40.948  10.694
82639W        W47459  11.255  28.336  11.539
82640W        W47460   9.497  30.306   5.364
82641W        W47461  13.399  33.785   0.999
82642W        W47462  15.721  15.117   3.202
82643W        W47463  10.765   6.756   0.911
82644W        W47464  28.806  34.525   2.513
82645W        W47465   3.489  42.487   0.707
82646W        W47466  13.624  25.478  12.544
82647W        W47467  33.067  12.564   4.188
82648W        W47468  40.844  28.674   0.504
82649W        W47469  30.978  35.300  11.143
82650W        W47470  39.457   2.215   2.918
82651W        W47471  24.601  13.179   5.142
82652W        W47472  20.555  13.065  12.444
82653W        W47473  32.085  42.881  11.099
82654W        W47474  33.322  26.758  10.281
82655W        W47475   8.975  12.400  12.055
82656W        W47476  31.414   5.343   1.338
82657W        W47477  40.486   2.250  12.051
82658W        W47478  38.859  17.020   4.137
82659W        W47479  34.094   2.902   3.785
82660W        W47480  44.221  37.356   0.373
82661W        W47481  34.378  20.704   3.033
82662W        W47482   3.965   7.874   3.744
82663W        W47483  23.282  32.058  14.342
82664W        W47484  29.410  39.442  12.969
82665W        W47485  14.072   5.620  12.044
82666W        W47486  37.533  13.494  11.894
82667W        W47487  36.417  41.528   3.626
82668W        W47488  12.246  16.654   2.919
82669W        W47489  18.456   1.806  14.862
82670W        W47490  43.272  10.022   0.934
82671W        W47491  27.300  33.396  10.183
82672W        W47492   7.687  12.654  12.424
82673W        W47493  25.237  39.985   2.577
82674W        W47494  25.698  30.433  12.034
82675W        W47495  17.488  17.073  12.583
82676W        W47496  35.887   7.232  11.120
82677W        W47497  15.820  32.050   2.771
82678W        W47498  23.179  11.559   3.567
82679W        W47499   8.285  42.771   2.932
82680W        W47500   9.108  41.859   1.750
82681W        W47501  38.481   6.073   0.723
82682W        W47502  41.935  17.810   0.376
82683W        W47503   7.792   0.814   1.745
82684W        W47504  11.117   1.786  14.307
82685W        W47505  22.289  26.612  12.660
82686W        W47506  37.315  26.127   3.274
82687W        W47507  14.996  34.790   4.268
82688W        W47508   8.352  18.655   4.362
82689W        W47509  26.672  19.374  12.880
82690W        W47510  27.504  42.894  11.221
82691W        W47511  28.254   0.765   2.601
82692W        W47512  35.465  37.062   0.897
82693W        W47513  35.992  34.432   0.344
82694W        W47514  32.471  11.800  10.766
82695W        W47515  12.355   4.241   3.184
82696W        W47516   9.292  16.750  11.950
82697W        W47517  34.391  21.665   2.859
82698W        W47518  19.536  22.329  13.562
82699W        W47519  21.990  40.533   0.869
82700W        W47520  30.700  10.506  13.896
82701W        W47521  35.552  35.545  11.145
82702W        W47522   5.455   4.420   0.027
82703W        W47523  31.081   5.394  14.845
82704W        W47524  23.670  43.924  11.377
82705W        W47525  12.174  12.204  13.550
82706W        W47526  26.178  22.592   4.127
82707W        W47527  27.305  35.344  12.398
82708W        W47528   2.973  19.631  11.585
82709W        W47529   5.493  13.852  11.161
82710W        W47530  10.706   4.308   0.868
82711W        W47531  20.876  19.689   5.048
82712W        W47532  44.980   1.296   4.615
82713W        W47533  26.626  30.719  11.714
82714W        W47534  43.528  28.139   3.902
82715W        W47535  16.564  38.134  10.429
82716W        W47536   5.973  39.014   3.682
82717W        W47537  20.800   1.764  12.833
82718W        W47538  43.614  18.753   3.212
82719W        W47539  26.865  33.641  13.865
82720W        W47540  18.977   0.152  14.006
82721W        W47541  40.311  34.310  12.609
82722W        W47542  16.487  36.500  12.627
82723W        W47543  20.516   7.346   4.528
82724W        W47544  25.579  40.839  12.839
82725W        W47545  34.498  25.132   1.236
82726W        W47546  19.326   4.333  13.334
82727W        W47547  26.128  33.581   0.837
82728W        W47548  17.295  26.907   4.101
82729W        W47549   1.742  41.751  13.992
82730W        W47550  20.232   7.477  14.940
82731W        W47551  42.812  30.653   1.429
82732W        W47552  22.955   9.838   0.263
82733W        W47553  35.138  30.576   2.179
82734W        W47554   3.370   6.572  12.472
82735W        W47555  37.044  37.355  13.048
82736W        W47556  17.272  31.413   0.004
82737W        W47557   5.598  38.295  10.645
82738W        W47558  43.296  38.425  14.888
82739W        W47559  20.803  16.197   1.863
82740W        W47560  33.289  35.022  10.436
82741W        W47561  15.533  24.061  12.108
82742W        W47562  23.293  13.326   4.047
82743W        W47563  21.177  19.591   0.291
82744W        W47564  27.525   3.976   2.315
82745W        W47565  35.859   2.436   1.553
82746W        W47566   0.047  19.499   0.902
82747W        W47567   5.783  15.539  13.843
82748W        W47568  31.903  36.019   2.254
82749W        W47569   1.195  10.187  12.969
82750W        W47570  16.590   9.724  11.158
82751W        W47571  15.715   5.560   4.487
82752W        W47572  10.590  43.845   3.383
82753W        W47573  40.812  44.675   3.886
82754W        W47574  41.221  22.962   0.880
82755W        W47575  26.222  16.342  14.603
82756W        W47576  33.425   1.515  13.837
82757W        W47577  36.164   9.638  12.172
82758W        W47578   6.719  39.035  13.453
82759W        W47579   5.761   9.998  12.690
82760W        W47580  25.442  12.755   4.221
82761W        W47581  23.786   0.347   1.460
82762W        W47582  35.354  15.178   4.948
82763W        W47583  11.212  13.398   0.791
82764W        W47584   3.847  27.316  14.737
82765W        W47585   0.285  21.092   1.926
82766W        W47586  17.731  11.421   3.554
82767W        W47587  44.929  12.720   2.309
82768W        W47588  37.903  18.856  13.430
82769W        W47589   7.334  16.292  10.645
82770W        W47590  39.430  19.595  14.896
82771W        W47591   2.384   8.212  12.863
82772W        W47592   2.612   5.925   2.599
82773W        W47593  12.668  37.501   0.241
82774W        W47594  13.514  41.816   1.937
82775W        W47595  39.301  44.878   0.673
82776W        W47596  12.706  37.437  13.227
82777W        W47597   3.308   2.166  13.993
82778W        W47598   6.191   7.350   0.468
82779W        W47599  23.220  18.043  11.575
82780W        W47600  28.902  16.406  11.142
82781W        W47601  31.436  23.625  14.593
82782W        W47602  14.786   3.349   2.342
82783W        W47603  27.426  15.837  11.538
82784W        W47604  10.819  33.030  12.532
82785W        W47605  30.447  13.159   4.449
82786W        W47606  24.212  34.457  10.805
82787W        W47607  44.399  30.331   3.645
82788W        W47608  13.710  12.863  13.810
82789W        W47609  39.977  25.161   0.402
82790W        W47610  32.075  26.766   0.301
82791W        W47611  27.676  33.610   2.686
82792W        W47612  42.136  15.604  11.108
82793W        W47613  32.442  44.406  10.646
82794W        W47614  18.102  23.466  11.537
82795W        W47615  22.123  20.934   0.949
82796W        W47616  29.545  44.375   0.741
82797W        W47617  23.863  29.396  11.196
82798W        W47618   3.263   1.381   4.754
82799W        W47619  44.723  28.544  13.481
82800W        W47620  21.904  40.983  14.881
82801W        W47621   1.078   5.794  11.434
82802W        W47622   9.389  25.407  11.713
82803W        W47623  41.377  14.263   0.728
82804W        W47624  14.346   6.166   3.581
82805W        W47625  13.106  30.620  12.350
82806W        W47626   3.407  41.375  13.451
82807W        W47627  15.300  22.380   2.598
82808W        W47628   8.265   6.690   4.737
82809W        W47629   4.177   7.393   3.773
82810W        W47630  17.694   2.765  13.534
82811W        W47631   7.166  12.362   3.740
82812W        W47632  24.957  36.431  12.103
82813W        W47633  35.473  35.963   4.738
82814W        W47634  36.153  19.707  12.434
82815W        W47635  40.134  43.213  11.280
82816W        W47636  41.079   8.623  12.542
82817W        W47637   5.312  33.362  13.897
82818W        W47638  27.544  38.233  12.976
82819W        W47639  34.933  31.623   3.009
82820W        W47640   8.320   3.260  13.354
82821W        W47641   2.369  34.007  12.445
82822W        W47642  17.980  37.608   0.865
82823W        W47643  11.245  13.467  11.192
82824W        W47644  15.087  17.547   3.650
82825W        W47645   7.425  38.905  12.945
82826W        W47646  16.458  38.036  14.863
82827W        W47647  27.440  17.786  12.038
82828W        W47648  25.642  38.611   3.220
82829W        W47649   5.573  24.878   2.608
82830W        W47650  15.500  15.849  14.978
82831W        W47651  19.036  26.736  11.719
82832W        W47652  20.888  24.915   4.181
82833W        W47653  20.123  44.697   3.401
82834W        W47654  38.357   3.336   3.255
82835W        W47655   2.769  31.588   1.414
82836W        W47656  41.822  14.064   0.970
82837W        W47657  30.186   6.747   0.379
82838W        W47658  10.934  13.743  11.498
82839W        W47659   4.593  36.630  12.848
82840W        W47660   7.509  42.183  11.095
82841W        W47661  40.159  32.139  13.331
82842W        W47662  10.398  20.167  13.359
82843W        W47663  23.597  13.071  12.547
82844W        W47664  23.949  15.212   2.445
82845W        W47665  10.122  10.836  11.637
82846W        W47666  16.781  27.199  13.582
82847W        W47667  21.409  30.886  11.688
82848W        W47668  44.750  28.598   2.670
82849W        W47669  43.244  28.582   3.982
82850W        W47670  23.125  36.736   1.731
82851W        W47671  44.806   5.615  13.296
82852W        W47672  44.149  18.978   4.291
82853W        W47673  38.712  18.256   4.696
82854W        W47674  25.547  36.062   3.372
82855W        W47675   7.802  33.521   1.675
82856W        W47676  44.809  13.292   4.810
82857W        W47677  17.632  29.224  14.767
82858W        W47678  21.636  43.920   1.906
82859W        W47679   7.348  28.047  11.448
82860W        W47680  29.207  20.047   2.955
82861W        W47681  13.630   2.776  10.778
82862W        W47682  30.483   0.423   4.089
82863W        W47683  24.623  27.363   3.575
82864W        W47684  20.965  29.181  13.012
82865W        W47685  43.351  27.675   4.167
82866W        W47686  11.608   9.132   3.722
82867W        W47687  31.195  25.759  14.870
82868W        W47688  21.032  40.166  14.950
82869W        W47689  19.612  28.340  14.239
82870W        W47690   4.926  28.621   4.125
82871W        W47691   4.524  42.333  13.530
82872W        W47692  13.611  22.076   4.368
82873W        W47693  27.484  29.088   2.675
82874W        W47694  11.292   8.918  12.922
82875W        W47695  42.797  29.827  11.066
82876W        W47696   8.769  32.883   3.172
82877W        W47697  44.092  30.509  13.967
82878W        W47698   0.284  14.016  13.846
82879W        W47699   7.297  41.935   1.434
82880W        W47700  13.324  13.871  14.149
82881W        W47701  20.911  24.969   3.104
82882W        W47702   8.761  38.620   3.860
82883W        W47703  42.999   8.794   3.370
82884W        W47704  19.591   2.491  13.883
82885W        W47705  23.538  23.471   0.905
82886W        W47706  14.290  43.794  14.812
82887W        W47707  19.481  30.605  12.504
82888W        W47708  37.607  17.766  11.615
82889W        W47709  18.133   8.080   4.158
82890W        W47710  21.361  30.995   1.057
82891W        W47711  20.994  43.269   3.093
82892W        W47712  37.706  26.941  13.165
82893W        W47713  42.904   9.373   2.628
82894W        W47714   0.445  23.510  12.301
82895W        W47715  22.120   6.528  14.317
82896W        W47716  41.366  22.281   1.466
82897W        W47717  23.274  27.044  13.425
82898W        W47718   3.530  11.014   1.049
82899W        W47719   1.667  44.525  14.838
82900W        W47720  44.378  44.406  12.790
82901W        W47721   6.115  29.501  11.539
82902W        W47722  29.084  15.759   2.772
82903W        W47723  26.164  42.493  10.390
82904W        W47724  19.521   5.889  12.414
82905W        W47725   1.842  16.190   0.429
82906W        W47726   6.621  10.232  14.613
82907W        W47727  38.920  36.695   4.528
82908W        W47728  20.205  10.906  12.939
82909W        W47729  33.452  40.243  14.858
82910W        W47730  40.403   7.627  14.373
82911W        W47731  15.643  40.203   0.374
82912W        W47732  24.031  43.004   1.212
82913W        W47733  18.188  44.540   4.288
82914W        W47734   9.741   6.222  14.464
82915W        W47735   6.580  37.871   4.125
82916W        W47736  41.613  24.523  10.955
82917W        W47737  14.084  28.410  14.173
82918W        W47738   2.778  31.451  12.527
82919W        W47739   0.625  35.202   0.779
82920W        W47740  25.390  31.174   3.095
82921W        W47741  10.205   3.271  14.597
82922W        W47742  24.647   0.494   0.532
82923W        W47743  34.672   8.812  13.504
82924W        W47744  36.272   6.885   2.842
82925W        W47745   0.324   1.855   0.279
82926W        W47746   5.290  39.230  11.032
82927W        W47747  15.716  44.040   2.663
82928W        W47748  35.541  20.049  12.883
82929W        W47749  27.921  22.533   0.877
82930W        W47750  25.937  11.733  11.434
82931W        W47751  18.510  42.062  14.250
82932W        W47752  24.032   7.380   0.174
82933W        W47753   8.649   5.507   4.216
82934W        W47754  27.412   4.692   4.440
82935W        W47755  40.369  31.519  12.613
82936W        W47756  41.511  12.801   0.209
82937W        W47757   0.432  23.978   1.297
82938W        W47758  19.588  35.073  14.429
82939W        W47759  41.097   4.734  14.018
82940W        W47760  34.625  14.946  13.581
82941W        W47761  14.955  23.948  12.055
82942W        W47762  10.167  26.148  10.673
82943W        W47763  34.949   2.368  14.267
82944W        W47764  32.884  29.497   3.691
82945W        W47765   7.815   8.212   3.223
82946W        W47766  35.589  30.149   0.588
82947W        W47767   6.846   0.860   2.785
82948W        W47768  24.107   3.999   2.949
82949W        W47769  13.406  33.550  10.729
82950W        W47770   8.408   6.729  11.512
82951W        W47771   8.778  14.872  14.244
82952W        W47772  23.768  10.302   3.782
82953W        W47773   9.895  18.291  14.710
82954W        W47774  36.421  22.764  11.043
82955W        W47775  10.306  26.196  12.532
82956W        W47776  39.486  12.450  11.562
82957W        W47777  36.638  20.197  14.298
82958W        W47778  35.435  35.894   2.934
82959W        W47779   6.257  10.459   4.484
82960W        W47780  21.002  34.038   2.172
82961W        W47781  28.688  22.209  10.681
82962W        W47782  19.028   8.223   3.101
82963W        W47783   1.718  18.049  14.289
82964W        W47784  24.635  35.056   5.002
82965W        W47785   5.006  19.444  11.000
82966W        W47786  32.365  42.837   4.323
82967W        W47787   6.332  31.517  13.516
82968W        W47788  42.428  36.577   3.822
82969W        W47789   5.847   1.710   1.364
82970W        W47790  16.560  39.452  14.243
82971W        W47791   1.224  15.820  12.446
82972W        W47792   2.304   1.116  11.267
82973W        W47793  26.414  24.805  11.549
82974W        W47794  14.054  24.554  13.033
82975W        W47795   0.606  43.579   2.795
82976W        W47796  16.964  21.571   1.369
82977W        W47797  20.451  21.512   2.807
82978W        W47798  29.493  20.193   2.313
82979W        W47799  16.785  22.306   1.417
82980W        W47800  10.777  42.464  11.110
82981W        W47801  17.567  32.319   1.891
82982W        W47802   6.824  13.683   3.338
82983W        W47803  23.402  22.177  10.809
82984W        W47804  23.989   7.200  11.602
82985W        W47805  18.117  19.833   2.652
82986W        W47806  41.477  24.324   0.374
82987W        W47807  12.773  23.973  14.014
82988W        W47808  33.325  14.328  13.524
82989W        W47809  38.356   5.138  13.783
82990W        W47810  31.769  43.095   3.728
82991W        W47811  31.385  15.031   1.508
82992W        W47812   1.562   9.339   2.847
82993W        W47813  38.402  24.656  14.736
82994W        W47814   6.241  16.380   2.759
82995W        W47815  16.827  34.643   2.192
82996W        W47816  39.941   6.260   0.860
82997W        W47817  35.983  14.283   1.030
82998W        W47818  17.811  26.597  12.559
82999W        W47819  22.263  17.353   1.408
83000W        W47820  38.029   2.353  13.612
83001W        W47821   3.092  40.098   4.581
83002W        W47822  25.639  23.663  10.676
83003W        W47823  17.165  24.538   2.571
83004W        W47824  19.093  33.001  11.289
83005W        W47825  44.472   7.266  10.938
83006W        W47826  39.413  19.342   3.656
83007W        W47827   4.655   4.754  14.764
83008W        W47828  14.169  17.542  11.167
83009W        W47829  14.961   8.168   0.070
83010W        W47830   4.692  27.382   1.179
83011W        W47831  18.011   4.714  10.638
83012W        W47832  31.160   2.743   4.616
83013W        W47833  17.864  31.117  11.040
83014W        W47834  42.144  24.359  14.490
83015W        W47835  18.054  32.556   2.789
83016W        W47836  35.423   4.352   3.800
83017W        W47837  12.514  18.970  11.611
83018W        W47838  35.968  21.247  14.961
83019W        W47839  20.034  16.576   3.156
83020W        W47840  32.475  34.008   2.077
83021W        W47841  29.664  27.297  10.965
83022W        W47842  18.724  43.735   2.265
83023W        W47843  37.431  39.771  13.077
83024W        W47844   2.152  14.678  14.048
83025W        W47845   0.192   0.890  12.427
83026W        W47846  14.189   2.985   1.839
83027W        W47847  23.451   6.287  10.742
83028W        W47848  26.812  14.343   3.344
83029W        W47849   5.498  14.610   4.642
83030W        W47850  34.031   7.247  13.863
83031W        W47851  21.273  33.045  11.894
83032W        W47852  14.221  39.314  14.631
83033W        W47853  21.092  32.602   4.808
83034W        W47854  18.274  10.143   3.023
83035W        W47855   7.187  21.596  11.214
83036W        W47856  30.453   9.292   4.535
83037W        W47857  42.244  12.612   0.863
83038W        W47858   3.148   4.619   4.997
83039W        W47859  31.643  19.185  11.235
83040W        W47860  37.755  39.853   4.179
83041W        W47861  24.050  12.689  14.236
83042W        W47862   0.201   2.470  11.228
83043W        W47863  35.513  28.752   2.218
83044W        W47864  20.885  37.876   4.165
83045W        W47865  42.171   4.844   4.188
83046W        W47866   7.160  18.104   4.188
83047W        W47867  44.096  14.773  14.821
83048W        W47868  40.082  18.117   4.130
83049W        W47869  29.592  24.073   3.514
83050W        W47870  31.441  43.088   0.364
83051W        W47871  38.500  37.364  14.395
83052W        W47872  22.160   6.855  14.850
83053W        W47873   3.335   5.676   3.779
83054W        W47874   9.167  29.239   3.778
83055W        W47875   8.292   1.382   4.293
83056W        W47876   8.755   5.377  11.493
83057W        W47877   4.440  40.109   0.298
83058W        W47878  19.669   9.168   0.940
83059W        W47879   0.634  11.429   4.010
83060W        W47880  40.501  42.776  13.828
83061W        W47881  31.668  42.768  11.878
83062W        W47882  39.784  13.904  14.431
83063W        W47883  25.517  31.639  11.860
83064W        W47884  27.969  36.913  13.419
83065W        W47885  30.544  30.960  11.970
83066W        W47886   2.692  11.798  14.385
83067W        W47887  14.240   3.198  11.150
83068W        W47888  17.190  36.152   1.767
83069W        W47889  24.228  15.505   0.172
83070W        W47890   8.620  23.146   0.254
83071W        W47891  37.843  26.244   1.241
83072W        W47892  35.545  30.717  11.784
83073W        W47893  31.049   0.639  14.339
83074W        W47894  33.997  43.014  12.046
83075W        W47895  30.007  31.462   4.277
83076W        W47896  33.028  39.893   0.264
83077W        W47897  30.965   7.442  11.750
83078W        W47898  13.832  35.655   4.160
83079W        W47899   4.911  32.811   0.408
83080W        W47900   5.964  29.089   1.238
83081W        W47901  38.359  42.106  13.333
83082W        W47902   7.843  35.895   4.258
83083W        W47903  15.519  29.477  14.357
83084W        W47904  18.325  27.577   2.308
83085W        W47905  39.888   5.382  13.810
83086W        W47906  44.547  38.823  12.808
83087W        W47907  18.049  40.290   2.161
83088W        W47908  10.537  19.229  10.645
83089W        W47909  19.725  31.864  12.380
83090W        W47910   4.918   2.495  14.842
83091W        W47911  23.119  12.312   2.390
83092W        W47912  18.301  39.755   2.890
83093W        W47913  41.525   7.773  11.616
83094W        W47914  26.392  27.431   2.730
83095W        W47915  21.990  17.248   2.260
83096W        W47916   7.162  41.770  11.106
83097W        W47917   9.146   3.447  12.013
83098W        W47918   3.721  37.958   1.908
83099W        W47919  29.787  44.686  11.014
83100W        W47920  26.162  24.198  12.574
83101W        W47921  24.993  10.408   1.719
83102W        W47922  37.016  36.958   1.785
83103W        W47923  41.927  40.105  14.540
83104W        W47924  19.723   3.392  13.424
83105W        W47925  24.837  31.621  11.639
83106W        W47926  22.154   2.072  12.920
83107W        W47927  43.411  20.273   2.322
83108W        W47928  14.676  26.911  12.676
83109W        W47929  27.754  42.002   0.486
83110W        W47930   2.370  42.578  14.703
83111W        W47931  15.504  19.613  12.911
83112W        W47932   1.482  38.773  11.437
83113W        W47933  40.628  31.160  12.928
83114W        W47934  11.154  32.015   0.247
83115W        W47935   9.842  42.242   3.646
83116W        W47936  42.366   9.124   5.018
83117W        W47937   0.324  10.201  13.340
83118W        W47938   8.467  26.394   4.729
83119W        W47939   1.221   3.724   2.948
83120W        W47940  39.023  17.047  11.134
83121W        W47941   4.856   7.104   0.536
83122W        W47942   9.338  26.045   4.633
83123W        W47943  22.796  28.123   5.523
83124W        W47944   8.262  30.624   2.335
83125W        W47945  10.831  42.397   3.449
83126W        W47946  33.671  21.987   0.097
83127W        W47947  27.057  19.769   0.793
83128W        W47948   4.425  25.519  14.865
83129W        W47949   3.486  14.007   0.706
83130W        W47950   2.673  26.820   5.424
83131W        W47951  24.722  29.511   4.458
83132W        W47952  20.121  13.271  12.693
83133W        W47953  40.968   6.007  10.648
83134W        W47954  44.691   1.351  14.926
83135W        W47955  21.761  10.588  12.308
83136W        W47956  41.363  35.567  11.232
83137W        W47957  32.110  43.073   3.316
83138W        W47958  13.773   2.366   1.339
83139W        W47959  17.214  39.709   4.057
83140W        W47960   0.252  19.672   2.516
83141W        W47961  30.652   6.550   1.264
83142W        W47962  10.858   6.304   4.538
83143W        W47963  25.890  16.501   1.699
83144W        W47964  18.478   6.791   3.747
83145W        W47965   3.466  11.286   4.624
83146W        W47966  40.313   1.515   3.986
83147W        W47967  36.025  22.216   9.871
83148W        W47968  40.591  17.342  13.972
83149W        W47969  44.549  28.381  11.893
83150W        W47970  22.639  28.994  13.515
83151W        W47971  13.793  24.065   2.238
83152W        W47972  15.638  15.595   3.819
83153W        W47973  35.951   1.121  14.966
83154W        W47974  42.505  21.535  12.223
83155W        W47975   5.692  33.997  14.267
83156W        W47976  24.801  30.341  11.163
83157W        W47977  19.184  20.766   4.957
83158W        W47978  12.291   1.253  11.678
83159W        W47979  41.328   2.494   1.848
83160W        W47980   1.378  35.367   1.158
83161W        W47981  28.153  35.360   1.816
83162W        W47982   5.786  35.267  12.210
83163W        W47983  32.407  29.649  11.490
83164W        W47984   0.651  22.462  11.158
83165W        W47985  13.298  30.693   3.128
83166W        W47986  44.379  44.002   1.882
83167W        W47987  26.926  27.672  14.896
83168W        W47988  21.110  25.748   2.673
83169W        W47989  33.471   1.249   0.498
83170W        W47990  42.479  29.819   1.488
83171W        W47991   0.763  24.443   3.141
83172W        W47992  32.450  41.236   2.702
83173W        W47993  16.723   5.875   2.754
83174W        W47994  13.634  34.174   3.106
83175W        W47995  26.671  22.475  11.113
83176W        W47996  44.996   7.811  11.204
83177W        W47997  28.207   2.913   0.177
83178W        W47998  34.479  19.522  10.501
83179W        W47999  15.099  30.664   1.642
83180W        W48000   3.374  13.931  13.268
83181W        W48001  27.596   8.624  10.650
83182W        W48002  11.170  43.540  12.561
83183W        W48003  33.504  19.787  11.218
83184W        W48004  18.296  39.348   1.620
83185W        W48005  29.937  39.996  11.383
83186W        W48006   5.612  31.847  10.849
83187W        W48007   5.815  10.265  13.116
83188W        W48008  41.041   7.335   4.212
83189W        W48009   2.774  36.855   4.205
83190W        W48010  28.169  36.811  13.912
83191W        W48011  11.590  31.129   0.926
83192W        W48012  35.212  42.712  12.536
83193W        W48013  23.068  26.455   4.053
83194W        W48014  33.317   3.579   0.288
83195W        W48015   5.796  16.145  11.736
83196W        W48016  20.500   2.771   3.014
83197W        W48017  20.609  27.906   1.809
83198W        W48018  29.702  23.990  11.560
83199W        W48019  35.928  33.830   4.547
83200W        W48020  27.897  17.592   4.582
83201W        W48021   9.764  20.485  13.998
83202W        W48022  37.634  36.442  14.495
83203W        W48023  29.980  12.254  12.269
83204W        W48024  34.424  27.752   1.863
83205W        W48025  13.110   8.751   4.770
83206W        W48026   2.712  33.880  13.070
83207W        W48027   9.659  20.757  10.662
83208W        W48028  21.431  36.931   4.713
83209W        W48029  19.845  15.789  11.817
83210W        W48030  39.382  10.848  12.995
83211W        W48031  22.458   2.384  12.082
83212W        W48032  39.359  35.602   0.887
83213W        W48033  41.799  24.009  12.139
83214W        W48034  10.712  16.246   0.213
83215W        W48035  40.108  28.846  12.929
83216W        W48036   8.965  33.462   4.600
83217W        W48037  23.427  21.535  14.846
83218W        W48038   3.307  42.051  11.696
83219W        W48039  42.747  26.827   4.294
83220W        W48040  36.022  33.419   4.994
83221W        W48041  23.313  41.489   4.529
83222W        W48042   6.977  41.452  12.863
83223W        W48043  12.250  21.836  13.165
83224W        W48044  13.334  11.658  12.457
83225W        W48045  14.182  39.702  10.145
83226W        W48046   1.738  14.631   4.681
83227W        W48047  16.286  43.240  14.202
83228W        W48048  20.638   6.751  13.550
83229W        W48049  16.189  33.103  14.547
83230W        W48050  14.227   4.389   4.548
83231W        W48051  29.439  23.914   1.830
83232W        W48052  34.592  16.775  12.157
83233W        W48053   9.597  19.776   0.682
83234W        W48054  28.265   1.800   2.726
83235W        W48055  31.132  33.865   3.659
83236W        W48056  10.588  24.462   2.321
83237W        W48057  12.850  41.490  12.037
83238W        W48058  16.806  11.828  12.964
83239W        W48059  14.000   8.920   0.881
83240W        W48060   6.255  26.706   3.330
83241W        W48061  18.059  37.863   2.315
83242W        W48062  16.029  33.530   4.180
83243W        W48063  10.679   0.419  14.016
83244W        W48064  11.167  28.351  12.433
83245W        W48065  33.316  11.733  11.056
83246W        W48066   9.292  17.410  14.018
83247W        W48067  35.494   0.679   4.225
83248W        W48068  13.073  34.135  11.127
83249W        W48069  41.844  13.293   1.634
83250W        W48070  11.109  43.263  12.095
83251W        W48071  26.073  22.905  14.376
83252W        W48072  41.557  43.982  12.934
83253W        W48073  21.998  33.957   1.844
83254W        W48074  16.535  42.830  13.978
83255W        W48075  16.281  41.967  10.696
83256W        W48076  27.483  10.775   0.434
83257W        W48077  25.682   0.241   4.530
83258W        W48078  36.621  37.555  13.282
83259W        W48079  14.426  34.384   5.013
83260W        W48080  31.396  23.657   0.094
83261W        W48081  21.902  36.420  12.047
83262W        W48082   9.384  19.370  13.083
83263W        W48083  38.360  23.450   3.137
83264W        W48084  13.799  43.811  14.544
83265W        W48085   7.334  18.161   2.417
83266W        W48086  40.294  20.690   3.386
83267W        W48087   3.957  30.379   3.678
83268W        W48088  17.166  43.980   3.291
83269W        W48089  31.642   5.955   0.865
83270W        W48090  12.828   2.341   1.450
83271W        W48091  41.001  29.074   0.200
83272W        W48092   0.289   7.012   0.040
83273W        W48093  42.599   1.369   0.609
83274W        W48094  38.465  24.001  11.996
83275W        W48095  33.849  39.410  11.183
83276W        W48096  16.482   8.396   2.284
83277W        W48097  12.692  20.290  13.827
83278W        W48098  30.137   7.466  11.204
83279W        W48099  22.746  11.630   1.411
83280W        W48100  19.501  37.367   3.178
83281W        W48101  20.325  14.152  13.869
83282W        W48102   2.909  36.954  14.008
83283W        W48103  22.832  11.238   2.209
83284W        W48104  44.287  26.691   4.505
83285W        W48105   8.975   2.203   2.333
83286W        W48106  27.179   7.931  11.346
83287W        W48107  44.869   3.496   2.769
83288W        W48108  43.639  43.232  11.200
83289W        W48109   1.651  24.362  11.223
83290W        W48110  19.542  35.831  13.399
83291W        W48111  18.695  12.021   5.335
83292W        W48112  14.978  40.691  12.912
83293W        W48113  25.573  14.698  14.466
83294W        W48114  32.557   2.954   1.769
83295W        W48115  39.683  44.698   3.658
83296W        W48116  42.342  17.196  13.570
83297W        W48117  42.425  33.295  12.914
83298W        W48118  31.935  29.629   4.631
83299W        W48119   4.388  36.860  13.726
83300W        W48120  15.060  29.857   5.280
83301W        W48121  18.675   6.034  11.971
83302W        W48122  21.012  24.310  11.956
83303W        W48123  18.033  42.276  14.052
83304W        W48124  36.807  31.188   2.186
83305W        W48125  11.807  10.022   1.768
83306W        W48126  43.984  13.622  12.638
83307W        W48127  35.811  37.541   3.110
83308W        W48128  25.440  32.640   3.628
83309W        W48129  12.989  43.504  12.065
83310W        W48130  10.674  33.029   5.262
83311W        W48131  42.432  25.241   3.056
83312W        W48132   0.890  42.320   4.595
83313W        W48133  23.175  32.138   0.388
83314W        W48134   9.666  37.784   4.101
83315W        W48135  27.615  10.466   3.780
83316W        W48136   7.761  31.563   3.813
83317W        W48137   1.880  26.750  10.638
83318W        W48138   4.224  18.977   3.738
83319W        W48139  23.498  31.081   4.095
83320W        W48140   9.707   7.872   1.657
83321W        W48141  23.182  40.342   3.787
83322W        W48142   4.908  23.247  14.327
83323W        W48143  20.676  16.594   3.728
83324W        W48144  25.679  25.520  14.799
83325W        W48145   1.839  17.209   1.213
83326W        W48146  23.409   7.226   1.375
83327W        W48147  24.667  13.797  10.646
83328W        W48148  14.694  12.544   1.593
83329W        W48149  42.011  43.712  13.082
83330W        W48150  11.876  12.139  11.969
83331W        W48151  13.847  42.054   0.004
83332W        W48152   8.413  13.363  12.855
83333W        W48153  27.874   9.892   2.881
83334W        W48154  42.217  28.098  12.098
83335W        W48155   3.810  35.408  14.614
83336W        W48156  15.216  20.972  14.738
83337W        W48157   5.736  18.572   1.807
83338W        W48158   1.273  31.157   2.174
83339W        W48159  34.876  22.289   0.260
83340W        W48160  20.653  23.479  11.301
83341W        W48161   5.320   9.462   2.847
83342W        W48162  15.103  29.312  10.621
83343W        W48163  34.060  44.534   2.072
83344W        W48164  36.538  36.522   2.674
83345W        W48165  11.315  16.825   0.789
83346W        W48166   0.846  16.862   1.903
83347W        W48167  14.224  28.569   0.706
83348W        W48168  33.902   3.479  11.959
83349W        W48169  32.780  32.439   0.276
83350W        W48170  29.934  33.329   1.750
83351W        W48171  35.144  10.749  13.505
83352W        W48172  24.404  29.222   3.147
83353W        W48173  12.879  31.070   3.782
83354W        W48174   1.510  31.110  11.818
83355W        W48175  21.649  14.032  13.431
83356W        W48176  28.353  25.204   0.841
83357W        W48177  11.289   3.713   0.662
83358W        W48178  35.915  22.848  11.058
83359W        W48179  42.432  14.826   3.834
83360W        W48180  39.554  21.637   3.872
83361W        W48181  16.293  20.197   1.838
83362W        W48182   9.660  13.951  13.202
83363W        W48183  15.485  39.850  13.321
83364W        W48184   0.164  39.292   3.482
83365W        W48185  21.315  16.321  12.788
83366W        W48186  27.185  28.586   3.964
83367W        W48187  41.854  21.989  12.982
83368W        W48188  11.344  30.266  12.175
83369W        W48189  37.181  27.596  13.062
83370W        W48190   6.714  22.721   1.286
83371W        W48191  30.986  13.810   3.831
83372W        W48192   8.746  11.263   0.696
83373W        W48193  11.759  32.504   0.604
83374W        W48194  25.044  25.487   0.447
83375W        W48195  43.476   8.883  13.446
83376W        W48196   7.953  30.990  14.095
83377W        W48197  28.998   6.595   0.919
83378W        W48198  28.873  17.066   3.110
83379W        W48199  33.573  13.201  14.788
83380W        W48200  22.606  24.573   2.472
83381W        W48201  38.403  24.123   4.740
83382W        W48202   6.377  39.729  12.899
83383W        W48203  36.286  38.370  12.397
83384W        W48204  32.674  25.703  10.723
83385W        W48205  18.290  13.341  12.583
83386W        W48206  38.928  30.190  12.371
83387W        W48207  37.920  41.587  13.394
83388W        W48208  18.179  41.681   2.730
83389W        W48209   9.088  34.430  11.482
83390W        W48210   2.562  11.040  12.658
83391W        W48211   0.762  19.019  14.383
83392W        W48212   4.725  21.921  13.430
83393W        W48213  22.212   3.775  12.533
83394W        W48214  36.889  22.443   2.889
83395W        W48215  31.262  28.894   2.224
83396W        W48216  12.159  27.514  10.276
83397W        W48217  28.678   7.642   2.783
83398W        W48218  33.637   0.331  14.864
83399W        W48219  11.187  34.379  14.825
83400W        W48220  43.756  39.865   0.926
83401W        W48221  37.504  34.207   2.644
83402W        W48222  10.557  37.800  12.525
83403W        W48223  42.894  12.141   2.755
83404W        W48224  38.792   4.400  11.252
83405W        W48225  43.013   3.712   3.254
83406W        W48226  31.017  37.545  14.743
83407W        W48227  28.452  26.510   0.371
83408W        W48228   9.378  17.004   1.762
83409W        W48229   0.752  34.253  13.240
83410W        W48230  24.377  10.727  11.025
83411W        W48231  36.989  20.981   1.809
83412W        W48232   7.156   9.074  10.790
83413W        W48233  15.283   9.403  13.000
83414W        W48234   8.261  17.873  12.862
83415W        W48235  43.304  29.515   1.749
83416W        W48236  32.694   9.844  14.756
83417W        W48237  41.019  36.160  13.899
83418W        W48238  29.009  17.586   1.338
83419W        W48239   0.839  44.393   3.617
83420W        W48240  27.042  32.388   3.858
83421W        W48241  29.661   8.288  13.979
83422W        W48242   7.721   7.460   2.756
83423W        W48243  10.804   4.960  12.549
83424W        W48244  15.027   6.099  14.437
83425W        W48245  15.368  16.777  12.991
83426W        W48246  30.958  35.233  14.446
83427W        W48247  14.082  37.514  12.011
83428W        W48248  37.978  21.512  11.167
83429W        W48249  30.536  18.155   3.197
83430W        W48250  31.493  10.929   1.764
83431W        W48251  44.720  41.622  13.152
83432W        W48252  26.650  42.533   3.446
83433W        W48253  26.998   2.756  11.242
83434W        W48254   7.787  11.594  14.900
83435W        W48255   8.359  36.253  14.850
83436W        W48256  10.298  22.760  12.542
83437W        W48257  21.799  43.034   1.785
83438W        W48258   7.741   5.100   4.362
83439W        W48259  17.329  13.161  10.637
83440W        W48260   5.631  44.604  10.959
83441W        W48261   3.920  14.767  11.713
83442W        W48262  39.039  21.092   2.794
83443W        W48263  43.500   6.033   2.026
83444W        W48264   6.679  16.194   2.319
83445W        W48265  30.238  41.702   4.106
83446W        W48266  20.750   7.404  11.153
83447W        W48267  23.239  17.310  11.934
83448W        W48268   5.389   6.405   4.088
83449W        W48269   1.616  37.370   3.645
83450W        W48270  18.828  17.565   2.685
83451W        W48271   2.153  10.996  14.344
83452W        W48272   9.191  20.886   4.981
83453W        W48273  15.875  38.504  13.089
83454W        W48274  16.803  18.099   0.479
83455W        W48275   6.581  11.853   3.226
83456W        W48276  14.379  21.136  13.728
83457W        W48277  42.554  10.399   0.245
83458W        W48278  21.677  31.692   0.247
83459W        W48279  14.813  24.600   4.276
83460W        W48280   9.768   9.305  12.233
83461W        W48281   2.287   5.690  14.347
83462W        W48282   9.741   9.861   3.642
83463W        W48283  41.867   6.460  11.552
83464W        W48284  31.852   9.383  13.452
83465W        W48285  17.308   4.328  10.994
83466W        W48286   0.215  43.524   1.535
83467W        W48287  17.243  40.384   0.971
83468W        W48288  23.861  20.816   4.143
83469W        W48289  15.347   7.888  13.937
83470W        W48290   0.664  23.947  12.076
83471W        W48291  38.573  26.079  14.940
83472W        W48292  38.388   5.978  12.406
83473W        W48293  16.757  17.791   0.917
83474W        W48294  28.470  19.512  12.081
83475W        W48295  33.598  17.636  13.137
83476W        W48296  10.608  38.043   2.880
83477W        W48297  20.941  13.745  14.868
83478W        W48298  32.714   6.527   4.089
83479W        W48299   7.419  10.266  10.370
83480W        W48300  33.144  21.002  13.533
83481W        W48301  14.119  11.786  11.996
83482W        W48302  33.633  32.922  11.586
83483W        W48303  10.777  18.597  11.126
83484W        W48304  20.984  23.050   4.263
83485W        W48305  30.183  32.381   1.900
83486W        W48306  43.617  24.222   0.156
83487W        W48307  38.364  22.565  12.049
83488W        W48308  10.087  28.314   4.438
83489W        W48309  38.142  43.623   4.200
83490W        W48310   8.059  21.602  14.070
83491W        W48311  32.149   6.440  13.565
83492W        W48312  16.081  40.852  13.990
83493W        W48313   7.492  15.849  11.571
83494W        W48314  32.023  41.057   3.874
83495W        W48315  10.330   8.196   2.812
83496W        W48316  24.186  22.053  13.967
83497W        W48317   0.913  26.497   5.216
83498W        W48318   5.196   0.387   1.524
83499W        W48319  13.676  13.213  13.397
83500W        W48320  10.728  23.220  14.400
83501W        W48321  27.237   3.109  11.579
83502W        W48322   5.467  29.325  14.915
83503W        W48323  41.911  17.896   2.770
83504W        W48324   7.260  37.764   1.225
83505W        W48325  13.714  26.785   4.362
83506W        W48326  16.204  30.024   4.408
83507W        W48327   8.194   1.567   0.389
83508W        W48328  33.880  36.247   3.116
83509W        W48329  27.347  33.896  10.035
83510W        W48330  14.994  29.286  14.236
83511W        W48331   2.191  32.862   2.789
83512W        W48332  39.500   8.228   2.418
83513W        W48333  27.760  41.575   4.155
83514W        W48334   1.702   8.066   2.440
83515W        W48335  32.416  34.777   4.536
83516W        W48336  20.565  43.898   2.937
83517W        W48337   6.613  30.717   1.683
83518W        W48338  38.521  13.175   4.536
83519W        W48339  27.082  38.627   4.334
83520W        W48340  40.470  33.417  12.865
83521W        W48341   1.963  26.333   3.342
83522W        W48342   5.942  13.795   3.698
83523W        W48343  33.125  38.988   2.040
83524W        W48344  29.449   1.860   2.211
83525W        W48345   4.854   1.561  12.895
83526W        W48346   4.471  36.924  12.357
83527W        W48347  36.973  18.057  13.592
83528W        W48348   0.089  20.725   4.373
83529W        W48349  30.640  41.170  14.410
83530W        W48350  37.662  10.180   2.354
83531W        W48351  22.996  44.510  13.901
83532W        W48352   6.222   8.944  10.807
83533W        W48353  41.465  21.683  10.496
83534W        W48354   7.377  26.034  14.061
83535W        W48355  40.911  22.807   3.378
83536W        W48356  22.458  27.107  11.525
83537W        W48357  44.282   4.778  11.444
83538W        W48358  12.812   7.725   2.634
83539W        W48359   1.282  44.486  13.524
83540W        W48360  21.880  13.425  14.882
83541W        W48361  41.496  42.182   0.897
83542W        W48362   9.048  23.267   4.538
83543W        W48363  10.773  20.649  10.766
83544W        W48364  37.893  23.685   3.180
83545W        W48365  35.854  19.167  12.439
83546W        W48366   3.432   2.254   2.169
83547W        W48367  41.904   4.807   3.727
83548W        W48368  23.151   2.093  11.865
83549W        W48369  14.803  23.956  12.572
83550W        W48370  37.002  23.415  12.969
83551W        W48371  18.423  30.978   1.674
83552W        W48372  26.883  39.338  10.527
83553W        W48373  30.247   5.947   0.772
83554W        W48374  44.474  35.658   2.378
83555W        W48375  18.310  14.011   3.644
83556W        W48376  29.094  33.405   2.007
83557W        W48377  15.720   2.682   1.171
83558W        W48378  18.641  12.747   1.320
83559W        W48379   7.356   6.218   0.223
83560W        W48380  10.502  39.104  13.951
83561W        W48381  10.687  22.811   1.668
83562W        W48382  13.052   3.776  14.729
83563W        W48383  15.370   3.958   1.819
83564W        W48384  26.546  35.269   3.159
83565W        W48385  30.143   6.444   1.305
83566W        W48386  36.770  40.264  10.731
83567W        W48387  11.883  38.837  12.039
83568W        W48388  14.792  30.690   2.105
83569W        W48389  39.923  32.972  14.883
83570W        W48390   3.499  38.344  13.759
83571W        W48391  19.666  17.460  13.375
83572W        W48392   1.864  32.562  11.519
83573W        W48393  35.113  35.852  14.738
83574W        W48394  22.763  30.592   4.165
83575W        W48395  11.350   9.212  10.638
83576W        W48396  40.259   0.670   4.568
83577W        W48397  12.309   1.255   0.877
83578W        W48398   7.585  24.647   0.425
83579W        W48399  43.825  43.233   4.800
83580W        W48400  10.015  35.760  12.570
83581W        W48401  39.352  44.968   5.014
83582W        W48402  40.986  41.535  11.195
83583W        W48403   0.733  11.247  11.501
83584W        W48404  18.523  36.340  13.905
83585W        W48405  36.877  14.198  14.873
83586W        W48406   1.670  36.987  14.395
83587W        W48407   8.817  14.841   1.304
83588W        W48408   0.977   2.234   2.305
83589W        W48409  31.183  40.889  11.077
83590W        W48410  24.155  18.488   2.397
83591W        W48411  18.285  43.746   3.745
83592W        W48412  26.627  40.469   3.120
83593W        W48413   7.715  33.309   4.285
83594W        W48414  36.896  24.031   0.178
83595W        W48415  14.708  41.281   2.824
83596W        W48416  21.489   6.014  12.912
83597W        W48417  41.841   9.379  13.820
83598W        W48418  32.230  44.801  13.434
83599W        W48419  29.860  25.549   1.534
83600W        W48420  23.840  18.620  12.046
83601W        W48421  21.063  26.944  11.587
83602W        W48422  32.985  32.517   2.123
83603W        W48423  33.316  33.148   1.479
83604W        W48424   5.412  40.761   3.875
83605W        W48425   2.774  14.685   1.348
83606W        W48426   1.487  40.994  10.707
83607W        W48427  18.774  22.883  11.617
83608W        W48428  17.317  30.180   1.860
83609W        W48429   7.401  16.666  12.579
83610W        W48430  23.996   1.750  13.964
83611W        W48431  44.477  40.836  13.803
83612W        W48432  29.404   0.027  11.083
83613W        W48433  22.499  10.720   0.987
83614W        W48434  35.492  44.443  14.765
83615W        W48435  35.242  13.209  12.409
83616W        W48436  16.757  35.444  11.684
83617W        W48437  35.915  25.255   3.069
83618W        W48438   5.772  28.735  11.096
83619W        W48439  41.734   8.900   2.320
83620W        W48440  24.438  20.189  12.021
83621W        W48441  42.476  37.997  10.636
83622W        W48442  35.461  27.686  11.886
83623W        W48443  12.143  21.692  12.678
83624W        W48444  43.949  27.621   2.062
83625W        W48445  20.473  27.558  13.400
83626W        W48446  30.591  17.749   0.826
83627W        W48447  34.393  10.945   2.643
83628W        W48448  23.570   4.895  10.949
83629W        W48449  18.737  14.861   1.690
83630W        W48450  21.560  21.681  13.425
83631W        W48451  19.015  44.202  13.607
83632W        W48452  35.593   7.612   4.431
83633W        W48453   5.708  21.558   2.146
83634W        W48454   5.559  29.099   3.727
83635W        W48455  16.773   8.941  14.750
83636W        W48456   5.220  43.729  13.594
83637W        W48457   9.917  34.606   2.268
83638W        W48458  22.542   6.870   2.216
83639W        W48459  41.184  23.504   1.507
83640W        W48460  22.704  29.692   0.961
83641W        W48461  24.768   4.851  12.390
83642W        W48462  24.779   8.323  11.042
83643W        W48463  15.033   6.338   1.759
83644W        W48464  27.432  15.752  14.317
83645W        W48465   8.910  11.398  13.794
83646W        W48466  36.583   7.358   0.895
83647W        W48467  21.957  24.953  13.861
83648W        W48468   3.992  29.733  13.381
83649W        W48469   9.880  33.602  14.030
83650W        W48470  16.222  15.347  11.485
83651W        W48471  27.184  12.675  14.540
83652W        W48472  39.623   5.391   4.048
83653W        W48473  33.759  21.054   5.029
83654W        W48474  30.571  29.911   2.714
83655W        W48475  26.101  30.223  13.037
83656W        W48476  16.335   1.330   4.636
83657W        W48477  31.902  15.748   3.254
83658W        W48478  11.633  34.625  14.448
83659W        W48479   8.338  34.816  14.402
83660W        W48480  44.220  34.932  14.640
83661W        W48481  34.821   0.186   3.234
83662W        W48482  38.313  28.597  11.346
83663W        W48483  18.636  15.186   0.407
83664W        W48484  32.185  21.549   3.569
83665W        W48485   3.710  38.949   4.304
83666W        W48486   2.279  10.637  11.746
83667W        W48487  22.163   7.401  12.061
83668W        W48488   5.234  18.112   2.221
83669W        W48489  18.436   4.376   0.430
83670W        W48490   7.361  17.259  10.619
83671W        W48491  34.116  14.205   2.876
83672W        W48492  17.182   6.888  10.391
83673W        W48493  28.618  19.718  10.587
83674W        W48494  14.832   8.799  10.882
83675W        W48495  20.095  10.687   0.016
83676W        W48496   9.413  13.642   4.673
83677W        W48497   1.958  35.547  10.934
83678W        W48498  25.948   2.136   2.471
83679W        W48499  43.489  42.597   3.824
83680W        W48500   8.985  39.575  12.932
83681W        W48501  42.301   2.484  14.074
83682W        W48502   4.034   6.363  10.403
83683W        W48503  37.871  22.999   4.351
83684W        W48504   0.015  32.104  11.925
83685W        W48505  19.759  42.770  14.950
83686W        W48506  34.599  36.443   1.472
83687W        W48507  31.193   9.073  12.995
83688W        W48508  33.970  18.625  10.362
83689W        W48509  21.054  41.368  12.073
83690W        W48510  15.298  16.345  10.660
83691W        W48511  33.340   7.767  10.807
83692W        W48512   8.324  39.607   1.670
83693W        W48513  31.210   4.664   0.541
83694W        W48514  36.874  30.553  13.467
83695W        W48515  34.375  12.039   1.505
83696W        W48516  40.982   0.820  13.494
83697W        W48517  25.513  31.960   1.670
83698W        W48518   9.274  12.389  14.357
83699W        W48519  44.384  37.886  10.141
83700W        W48520   6.449  24.988   2.816
83701W        W48521  25.284  37.164  12.466
83702W        W48522  37.936  22.286  10.556
83703W        W48523  23.938  36.984  12.970
83704W        W48524   5.390   4.868   2.219
83705W        W48525   0.676  33.755   4.797
83706W        W48526   8.270  22.511  11.252
83707W        W48527  29.961  22.116   1.248
83708W        W48528  14.266   0.201   2.071
83709W        W48529   1.361  22.849  11.563
83710W        W48530  34.969  10.677  11.083
83711W        W48531  29.523  32.555  13.958
83712W        W48532  21.796  34.448  13.624
83713W        W48533  20.168   4.955   0.950
83714W        W48534  12.697  19.169   1.007
83715W        W48535  13.305   4.971  13.625
83716W        W48536   4.442  13.404   2.871
83717W        W48537  22.644  37.997  13.982
83718W        W48538  33.870  20.094  12.804
83719W        W48539   7.352   5.206   3.662
83720W        W48540   2.960  35.633   4.772
83721W        W48541  30.394  43.003  14.785
83722W        W48542  16.858   4.933   0.362
83723W        W48543   5.298  29.893  10.664
83724W        W48544   1.668  35.402  12.815
83725W        W48545  39.505   5.318  11.579
83726W        W48546  13.883  25.517   1.441
83727W        W48547  36.434   3.258  11.860
83728W        W48548   3.168   7.630   4.174
83729W        W48549   8.711  22.198  13.522
83730W        W48550  21.680   6.677  13.541
83731W        W48551  26.080  30.521   4.083
83732W        W48552  31.481  12.634  13.382
83733W        W48553  28.595   9.959  12.228
83734W        W48554  34.932   4.685  12.549
83735W        W48555  13.648  26.171   0.308
83736W        W48556  37.416  21.714  14.733
83737W        W48557  37.666  38.386  12.669
83738W        W48558   7.339  41.503  10.497
83739W        W48559  37.842  24.217  12.525
83740W        W48560   2.425  36.472  11.494
83741W        W48561  33.648  37.908  13.787
83742W        W48562   4.588  19.485   0.775
83743W        W48563   5.033   9.105   3.904
83744W        W48564  10.799  44.336  12.786
83745W        W48565  14.303  13.690   1.852
83746W        W48566  36.358  35.568  14.432
83747W        W48567  28.179  20.524  10.614
83748W        W48568  17.897   8.257  12.135
83749W        W48569  32.544  43.759  12.986
83750W        W48570  17.919   1.674  14.965
83751W        W48571  37.549  31.010  10.770
83752W        W48572  34.541  24.929  11.716
83753W        W48573  18.859   0.035  12.860
83754W        W48574  15.802  32.335   3.313
83755W        W48575  34.062  11.062  11.997
83756W        W48576   7.650  37.037  11.552
83757W        W48577  22.696  37.761   3.141
83758W        W48578  19.298   7.245  14.835
83759W        W48579  18.827   6.000  14.882
83760W        W48580  30.692  20.808  12.302
83761W        W48581  15.937  19.759   3.613
83762W        W48582  33.342  33.614   1.689
83763W        W48583   7.960  43.741  13.359
83764W        W48584  20.705  39.276  13.774
83765W        W48585  38.475  37.754   0.511
83766W        W48586   0.221  13.339   1.737
83767W        W48587  43.053  23.723   0.402
83768W        W48588  20.597   8.240  10.353
83769W        W48589  38.911  43.142  10.528
83770W        W48590  24.803  38.879   2.323
83771W        W48591  32.812  28.893  11.163
83772W        W48592  34.407   5.585   0.296
83773W        W48593  37.897  26.431   5.082
83774W        W48594   3.774   9.402   1.008
83775W        W48595  11.642  13.956  13.864
83776W        W48596  26.009  12.241  14.993
83777W        W48597  13.556   2.981   2.667
83778W        W48598  11.282  17.898  10.873
83779W        W48599  16.764  22.046  11.074
83780W        W48600  13.622   1.979  12.743
83781W        W48601  26.157  31.355   1.764
83782W        W48602  23.674  34.111   2.189
83783W        W48603   1.137   3.673  13.641
83784W        W48604  28.998  41.594   2.974
83785W        W48605  37.130  18.524  14.988
83786W        W48606  10.210   3.049   3.257
83787W        W48607   4.946  20.696   3.159
83788W        W48608  29.353  15.329  10.661
83789W        W48609  21.173  34.305   0.817
83790W        W48610   2.433   2.839  12.752
83791W        W48611  44.480  38.029   4.620
83792W        W48612  21.652  17.797   4.061
83793W        W48613  43.675  40.985  13.138
83794W        W48614  33.971  21.715  11.464
83795W        W48615   1.973  34.646   1.342
83796W        W48616   0.362  33.960  13.066
83797W        W48617  43.279  30.671  13.308
83798W        W48618  38.014  13.067   3.692
83799W        W48619  33.113  25.182  11.047
83800W        W48620  14.039   2.219  12.919
83801W        W48621  21.833  21.186  14.629
83802W        W48622   6.122   4.241   0.273
83803W        W48623  34.890  23.541   1.706
83804W        W48624   7.560   5.206   4.869
83805W        W48625  29.575  39.581   1.467
83806W        W48626  32.360   9.791   1.406
83807W        W48627   5.268  25.505  14.019
83808W        W48628  14.202  17.129   3.182
83809W        W48629  40.592  42.288  11.399
83810W        W48630  17.002  19.187   2.489
83811W        W48631  19.307   1.296  12.066
83812W        W48632  31.316  38.489  11.565
83813W        W48633  14.410  22.611  11.804
83814W        W48634  39.766  38.820  11.201
83815W        W48635  25.242   0.140  11.253
83816W        W48636  39.781  31.254  12.448
83817W        W48637  38.980   0.804   0.241
83818W        W48638  10.550  32.609  12.355
83819W        W48639  32.552  17.842  13.783
83820W        W48640  19.725  34.406  10.949
83821W        W48641   1.149  33.913   4.657
83822W        W48642  19.756  20.126  12.924
83823W        W48643  28.657  40.897   3.365
83824W        W48644  20.289   8.957   2.643
83825W        W48645  11.670  37.081  13.510
83826W        W48646  34.189  37.967   4.483
83827W        W48647  20.700   7.222   1.353
83828W        W48648  42.705  28.473   4.915
83829W        W48649   3.920   8.239  13.133
83830W        W48650  42.772  19.175  11.040
83831W        W48651  40.014  17.761  12.768
83832W        W48652  38.460  30.212   4.664
83833W        W48653  10.105  27.115  13.372
83834W        W48654   9.447  36.521   0.448
83835W        W48655  27.450   8.294   3.616
83836W        W48656  11.710   9.337   2.831
83837W        W48657  27.970  11.216  10.339
83838W        W48658  38.374  26.992  12.043
83839W        W48659  33.832  39.429   2.795
83840W        W48660  39.804  16.213   3.550
83841W        W48661  39.522  10.157  12.103
83842W        W48662  44.957  37.564  11.636
83843W        W48663  36.908  41.804  12.869
83844W        W48664  20.687  31.472  10.659
83845W        W48665  31.770  15.365   4.992
83846W        W48666  15.868  32.796   4.641
83847W        W48667   2.454  39.263   3.369
83848W        W48668  17.303  16.209  11.799
83849W        W48669  18.413  11.707  13.362
83850W        W48670  25.652  18.615   9.846
83851W        W48671  14.562  27.243   0.916
83852W        W48672  32.962  35.487   0.504
83853W        W48673  25.595  28.953   4.040
83854W        W48674  32.402  10.956   9.994
83855W        W48675  40.478  12.793   0.701
83856W        W48676  30.847  20.576   3.557
83857W        W48677  24.994  21.991   3.794
83858W        W48678  12.186  40.666   3.569
83859W        W48679  16.274  43.892   0.486
83860W        W48680  21.793  21.130  11.377
83861W        W48681  30.130  19.345   1.423
83862W        W48682  11.504   0.125  10.249
83863W        W48683  24.610   6.183   0.892
83864W        W48684  19.259  22.049  10.834
83865W        W48685  41.735  14.779  14.294
83866W        W48686  17.971  37.607  11.571
83867W        W48687  44.722  35.461  10.775
83868W        W48688  13.517   1.356   0.329
83869W        W48689  21.379  35.663  10.515
83870W        W48690  22.677  21.577  14.286
83871W        W48691  39.469  37.944   1.754
83872W        W48692  22.754  20.027  12.463
83873W        W48693  21.385   4.815  10.476
83874W        W48694  39.786  41.404  13.322
83875W        W48695   6.801  39.509  12.433
83876W        W48696  13.153  43.450  14.320
83877W        W48697  37.102  37.462   2.452
83878W        W48698  31.447  31.145  12.094
83879W        W48699   5.632   1.830  14.952
83880W        W48700  24.921  23.371  14.073
83881W        W48701  42.825   8.916  14.771
83882W        W48702  33.486  25.304  12.104
83883W        W48703   9.158  10.970   1.343
83884W        W48704  27.611  14.054   2.907
83885W        W48705  44.058  26.993   3.240
83886W        W48706  42.730  42.163  13.420
83887W        W48707  16.729   4.377   4.065
83888W        W48708  40.957  19.490   1.483
83889W        W48709  23.244  23.501   2.760
83890W        W48710  11.646  29.846   3.216
83891W        W48711  42.403  41.865  10.643
83892W        W48712  43.078   7.159  12.063
83893W        W48713  26.899  27.643   0.806
83894W        W48714  14.197  44.838  12.824
83895W        W48715  36.563  13.642   4.508
83896W        W48716  15.491  42.019   2.340
83897W        W48717   8.268  15.618  11.341
83898W        W48718   5.844  19.076  13.478
83899W        W48719  19.612  27.230  10.636
83900W        W48720  41.247  24.704   1.290
83901W        W48721  44.867   8.816  12.573
83902W        W48722  28.691  21.325   1.173
83903W        W48723  41.433  34.960   3.694
83904W        W48724  26.710  33.442   2.632
83905W        W48725  24.482  25.546   4.038
83906W        W48726  31.874  10.725   3.432
83907W        W48727   4.286   1.369   2.605
83908W        W48728  19.671  39.980  13.390
83909W        W48729  38.997  41.096   1.234
83910W        W48730   8.715  12.155  11.661
83911W        W48731  36.625   9.009   4.710
83912W        W48732  37.941   6.700   1.297
83913W        W48733  29.950   3.224   1.140
83914W        W48734   0.911  13.942  11.599
83915W        W48735  34.778  18.068   4.599
83916W        W48736  23.170  17.868   0.773
83917W        W48737  18.834  35.658   2.346
83918W        W48738  29.503  24.425   1.711
83919W        W48739  25.271  33.580   2.788
83920W        W48740  36.459   4.780  10.424
83921W        W48741  13.516  44.007  12.558
83922W        W48742  37.134  36.004  10.558
83923W        W48743  17.628  12.838   3.095
83924W        W48744   3.709  22.291   0.685
83925W        W48745   1.823  26.865   1.326
83926W        W48746  12.753  44.802   3.074
83927W        W48747  33.630  27.899   2.788
83928W        W48748  37.121  12.607  13.347
83929W        W48749  11.321  42.831   3.690
83930W        W48750  41.192  18.512  10.914
83931W        W48751   0.649  20.396  14.875
83932W        W48752  17.980  29.630  14.868
83933W        W48753  44.740  13.110  13.909
83934W        W48754   3.262  41.887  13.469
83935W        W48755   9.389   3.393  12.872
83936W        W48756  14.807  27.027   1.305
83937W        W48757  10.793   0.288   3.198
83938W        W48758   8.967  23.631  14.935
83939W        W48759  26.004  25.998  12.296
83940W        W48760   2.992  40.106  13.418
83941W        W48761  23.173  37.274   2.633
83942W        W48762  27.046  40.433   2.792
83943W        W48763  28.003  36.968   3.615
83944W        W48764  14.965  16.278   2.682
83945W        W48765  15.570  23.400  12.666
83946W        W48766  12.546  40.499   3.200
83947W        W48767  18.734   5.530   3.125
83948W        W48768  42.332  38.934  14.803
83949W        W48769  37.414  10.462   3.176
83950W        W48770   8.819   7.388   0.389
83951W        W48771  28.146  31.194  13.319
83952W        W48772  39.483  32.116  14.478
83953W        W48773  18.094   5.876  14.854
83954W        W48774   7.247  37.052  13.312
83955W        W48775   8.190  19.615   0.938
83956W        W48776  13.738   3.333   3.628
83957W        W48777  37.855   9.111   5.400
83958W        W48778  14.152  43.791  12.090
83959W        W48779  35.743  26.028  14.575
83960W        W48780  41.976  25.415  11.203
83961W        W48781  23.459  44.086   0.435
83962W        W48782  43.330  22.496   3.617
83963W        W48783  33.860  28.083  10.361
83964W        W48784  30.697  17.018   3.775
83965W        W48785   2.376  17.594   1.879
83966W        W48786   3.626  33.938   4.575
83967W        W48787  34.462  19.043   4.627
83968W        W48788  21.193  35.813   1.227
83969W        W48789  21.796  37.262   4.568
83970W        W48790  36.448   0.574   1.720
83971W        W48791  44.205  28.205  11.537
83972W        W48792  37.981  28.304   2.261
83973W        W48793  42.903  34.367  11.636
83974W        W48794  28.408  16.005   0.478
83975W        W48795  19.590  41.748   4.972
83976W        W48796  26.918   5.739  12.525
83977W        W48797   0.866  15.783   3.279
83978W        W48798  29.854  10.790   4.977
83979W        W48799   0.815  35.058   3.133
83980W        W48800  14.707   6.915   1.372
83981W        W48801   5.262   5.441   3.227
83982W        W48802  34.800  23.042   2.552
83983W        W48803  34.001  25.096   3.281
83984W        W48804   3.787   3.687  12.425
83985W        W48805  19.855  37.559  10.612
83986W        W48806  27.163  17.273  11.209
83987W        W48807   6.243   3.996  10.719
83988W        W48808   6.640  31.423  13.923
83989W        W48809  23.218  24.259  12.851
83990W        W48810  30.533  31.312   1.277
83991W        W48811  22.033  15.769   4.558
83992W        W48812  29.933  35.074  12.373
83993W        W48813  27.369  32.573  13.856
83994W        W48814  44.933  44.519   3.346
83995W        W48815   5.623   8.216   1.902
83996W        W48816  13.657  30.431   0.019
83997W        W48817  35.858  14.314   2.761
83998W        W48818  15.161  26.444   0.920
83999W        W48819   5.771  16.798  13.114
84000W        W48820  28.673  21.265  14.385
84001W        W48821  33.679  43.359  11.202
84002W        W48822   1.047  17.057   0.002
84003W        W48823   1.941  41.124  13.485
84004W        W48824  44.045  18.539  11.244
84005W        W48825  44.976  23.635   2.687
84006W        W48826  15.574  28.684  14.436
84007W        W48827   2.206   9.827  13.392
84008W        W48828  13.762  13.669  11.533
84009W        W48829  25.665  33.556  14.738
84010W        W48830  41.491   8.622   2.710
84011W        W48831  29.739  30.918  12.423
84012W        W48832   0.459  42.436  10.479
84013W        W48833  12.466  28.065   4.932
84014W        W48834  31.545  27.962   4.361
84015W        W48835  26.005  33.391   5.681
84016W        W48836  27.972  44.024  13.949
84017W        W48837  38.053  24.627   3.086
84018W        W48838  34.160   4.143  11.043
84019W        W48839  38.859  30.529   0.660
84020W        W48840  26.147  30.170   3.653
84021W        W48841  25.451  33.088  14.824
84022W        W48842  38.282   4.315   0.544
84023W        W48843  31.128  39.375  10.492
84024W        W48844  11.195  41.224   0.253
84025W        W48845  44.010  25.873  12.397
84026W        W48846  44.340  18.272  13.560
84027W        W48847  33.023  18.384  13.071
84028W        W48848   9.785  19.701  14.873
84029W        W48849  44.766  15.642  14.747
84030W        W48850  40.387   2.378   2.037
84031W        W48851  19.651  21.450   3.848
84032W        W48852  38.660   6.774   9.645
84033W        W48853  36.813  11.918   2.319
84034W        W48854  28.499  12.109   2.647
84035W        W48855  15.725  32.512  12.968
84036W        W48856  25.029  44.506   1.837
84037W        W48857  38.939  42.446   1.016
84038W        W48858   2.955  36.272   1.013
84039W        W48859  42.604  13.362  12.024
84040W        W48860  22.985   5.436  10.474
84041W        W48861  43.469  39.878  13.661
84042W        W48862  28.700  41.479   1.281
84043W        W48863  42.813   5.362  11.192
84044W        W48864   4.433  14.831   3.603
84045W        W48865   0.064  17.803  13.465
84046W        W48866  35.788  30.096  13.954
84047W        W48867  38.768  34.535  14.507
84048W        W48868  44.419  21.040   1.777
84049W        W48869  27.436  43.452  10.580
84050W        W48870  11.111  12.208   2.911
84051W        W48871  25.919  21.495   1.279
84052W        W48872  43.305  19.978   5.087
84053W        W48873  17.699  10.930  12.981
84054W        W48874   0.828  14.429  11.690
84055W        W48875  11.922  44.772  11.556
84056W        W48876  27.130  23.281  11.058
84057W        W48877  41.156  43.262   1.568
84058W        W48878  39.918   9.977  10.707
84059W        W48879  31.134   3.576  11.957
84060W        W48880  39.910  21.153  13.430
84061W        W48881  39.614   4.713  14.983
84062W        W48882  11.308  36.092   1.250
84063W        W48883  22.798   6.900   4.671
84064W        W48884   3.338  16.274   1.269
84065W        W48885  38.545  30.305  13.932
84066W        W48886  37.463  23.695   0.535
84067W        W48887   6.328  44.287  14.958
84068W        W48888  20.340  23.172   2.164
84069W        W48889  35.803  12.694   4.192
84070W        W48890  37.418   1.392  10.487
84071W        W48891  23.566   7.615  14.958
84072W        W48892  36.574   9.387   1.136
84073W        W48893  36.846  18.697   1.376
84074W        W48894  32.037   0.853  10.606
84075W        W48895   8.595  38.382  10.819
84076W        W48896  35.544  14.865  13.485
84077W        W48897   6.686  31.511  14.431
84078W        W48898   4.101  23.119   4.115
84079W        W48899  40.255  35.475  12.039
84080W        W48900  15.309  14.582  14.454
84081W        W48901   0.042  19.264   1.752
84082W        W48902  20.671  41.581   0.238
84083W        W48903   3.719  43.784  10.568
84084W        W48904  17.210  42.944   3.267
84085W        W48905  42.278  30.047  11.725
84086W        W48906  17.266  33.114  11.128
84087W        W48907  15.817  22.677   3.201
84088W        W48908  36.613  24.215  12.017
84089W        W48909  23.686  17.078  14.847
84090W        W48910  16.780  19.469   0.746
84091W        W48911  31.527   0.520   1.472
84092W        W48912  30.494  27.241   4.128
84093W        W48913  39.955   7.868  14.314
84094W        W48914  13.820  17.648  11.784
84095W        W48915  21.825   3.013   1.878
84096W        W48916   0.381  32.502  11.119
84097W        W48917   8.702   4.208  14.929
84098W        W48918  14.168  28.048  14.924
84099W        W48919  20.282  30.396  13.871
84100W        W48920  25.864  14.418   3.525
84101W        W48921  13.737  18.137   3.976
84102W        W48922  26.026  30.879  10.881
84103W        W48923  17.662   6.745   1.017
84104W        W48924  37.850  33.107   1.646
84105W        W48925  36.252   2.529   0.056
84106W        W48926  28.936  37.562   5.777
84107W        W48927  17.011  24.695   4.453
84108W        W48928   9.151  16.750   3.586
84109W        W48929   6.666  14.374   1.880
84110W        W48930   0.974  35.734  14.404
84111W        W48931  27.182   0.748  10.553
84112W        W48932  44.477  22.995   1.988
84113W        W48933  19.243  18.570  12.575
84114W        W48934  38.436  32.274  12.869
84115W        W48935  36.670   4.888   0.803
84116W        W48936   3.201  40.607   0.320
84117W        W48937   4.759  34.979  11.329
84118W        W48938   8.670  34.111   0.578
84119W        W48939  22.813  13.612   4.163
84120W        W48940   8.844   3.053  14.903
84121W        W48941   8.940  43.240   3.744
84122W        W48942   8.640  44.352  13.966
84123W        W48943  33.325  19.220   0.926
84124W        W48944  41.741  38.851   0.810
84125W        W48945  34.631   2.761  12.974
84126W        W48946   4.722  38.429  13.002
84127W        W48947  14.452  29.922  12.546
84128W        W48948  31.630  37.516   2.442
84129W        W48949   9.380  32.930  10.624
84130W        W48950  43.788  37.614   0.476
84131W        W48951  42.543  42.371  14.989
84132W        W48952  23.754  40.893  14.376
84133W        W48953  24.985  40.500   0.871
84134W        W48954  18.514  21.022   4.487
84135W        W48955  11.705  27.881   0.332
84136W        W48956  32.363   7.390   3.624
84137W        W48957  32.531  13.427   2.359
84138W        W48958  14.772  14.249  14.809
84139W        W48959  43.896  10.310   2.110
84140W        W48960  30.710   8.318   1.849
84141W        W48961  12.788  19.576   3.875
84142W        W48962  23.658  28.185   0.369
84143W        W48963  38.711  12.359  10.158
84144W        W48964  31.052   2.202  12.499
84145W        W48965  27.467  38.916   0.822
84146W        W48966   9.275  18.589  10.749
84147W        W48967  35.185  28.482  14.438
84148W        W48968  11.823  17.542  12.110
84149W        W48969  17.067  18.115   3.760
84150W        W48970  33.807  20.272  13.278
84151W        W48971   4.947   1.617  11.877
84152W        W48972   3.317  30.993   0.984
84153W        W48973  27.367  17.065   3.378
84154W        W48974  34.809   8.378   2.388
84155W        W48975  23.784  13.550  14.691
84156W        W48976  17.713  23.626  12.081
84157W        W48977  42.032  25.970  11.081
84158W        W48978  23.629   4.620  14.097
84159W        W48979   1.749  44.580  11.070
84160W        W48980  34.973   4.916  13.004
84161W        W48981  27.013  19.818  14.865
84162W        W48982  26.273  24.442   1.329
84163W        W48983   7.302  28.495  14.600
84164W        W48984  39.356  34.961   3.904
84165W        W48985  35.331  22.037   1.248
84166W        W48986  32.359  22.784   0.747
84167W        W48987  16.320  29.396  12.456
84168W        W48988  19.332  26.332  14.952
84169W        W48989  21.601  27.176   0.228
84170W        W48990   6.732  30.138  11.628
84171W        W48991  21.133  35.593  14.060
84172W        W48992   2.707  19.131   3.688
84173W        W48993   8.460  30.135   4.627
84174W        W48994  25.088  19.711  12.489
84175W        W48995  41.363  29.980   0.660
84176W        W48996  28.622  33.853  12.571
84177W        W48997  33.428   6.921  12.144
84178W        W48998  44.739   7.635   0.451
84179W        W48999  21.467  19.001   3.318
84180W        W49000  44.456   9.150  10.580
84181W        W49001  26.993  12.150   4.172
84182W        W49002  27.772  39.346   0.795
84183W        W49003  30.926  22.299  12.903
84184W        W49004  14.147  27.433   2.453
84185W        W49005  34.616  32.982   4.734
84186W        W49006   9.042   5.879  14.993
84187W        W49007  22.374   8.981  13.533
84188W        W49008  18.292  12.075  12.043
84189W        W49009  15.241  41.907   0.334
84190W        W49010   5.218  44.670  13.300
84191W        W49011  33.075  38.550  14.441
84192W        W49012  27.081  22.089  12.578
84193W        W49013  34.577  42.787  13.776
84194W        W49014  42.419  14.279   2.304
84195W        W49015  11.775   3.403  12.456
84196W        W49016  43.926  14.153   4.574
84197W        W49017  23.186  40.566  14.909
84198W        W49018  37.664  31.416  12.106
84199W        W49019  26.376   3.948  12.439
84200W        W49020   6.056  34.325  14.071
84201W        W49021  36.955  41.304   4.887
84202W        W49022   7.495  31.201   4.085
84203W        W49023  44.309  22.022   2.122
84204W        W49024  41.366  34.596   2.747
84205W        W49025  11.785  35.847  13.052
84206W        W49026  22.785  32.551  13.709
84207W        W49027  41.581  40.914   4.808
84208W        W49028  29.422  23.599  12.454
84209W        W49029  33.207  35.675   0.947
84210W        W49030  25.857  14.218  10.546
84211W        W49031  18.980  36.278  12.672
84212W        W49032  44.223  12.119   2.246
84213W        W49033   8.673  38.420   2.719
84214W        W49034   5.192   4.825   2.709
84215W        W49035  16.699  15.664  12.603
84216W        W49036  12.901  30.466   3.359
84217W        W49037  36.799  37.329   1.002
84218W        W49038   9.182  32.340  10.297
84219W        W49039  43.304  12.134   4.400
84220W        W49040  11.829  33.465  10.207
84221W        W49041   0.450   3.466  12.998
84222W        W49042  38.063  42.781   0.381
84223W        W49043  19.326  31.109  12.628
84224W        W49044  20.033  26.057   1.787
84225W        W49045  38.389  19.095  12.157
84226W        W49046  40.571  20.798  13.485
84227W        W49047   9.445  15.191  12.822
84228W        W49048  30.031  24.877   9.791
84229W        W49049  41.695  14.165   1.894
84230W        W49050  40.032   4.974  10.781
84231W        W49051  14.055  13.099   0.357
84232W        W49052  31.667   5.647  11.920
84233W        W49053  19.208  17.044  14.824
84234W        W49054  16.974   7.218   0.358
84235W        W49055  38.640  29.530   1.700
84236W        W49056   2.316  17.159  13.409
84237W        W49057  11.824  43.312  13.424
84238W        W49058  23.053  23.627   4.679
84239W        W49059  26.120  28.659  13.004
84240W        W49060  27.542   6.822  14.050
84241W        W49061  10.830  26.887  13.031
84242W        W49062  35.372  12.418   0.362
84243W        W49063  17.526  38.473   1.915
84244W        W49064  36.976  12.915  11.067
84245W        W49065  14.081   7.655  12.685
84246W        W49066  17.832  31.983   0.801
84247W        W49067  39.319  41.915  14.747
84248W        W49068  20.713  31.899   1.220
84249W        W49069  24.583  34.619  14.329
84250W        W49070  24.688  43.253  13.928
84251W        W49071  24.226  42.562  13.844
84252W        W49072  39.767  38.364  11.995
84253W        W49073  17.296  38.261   0.015
84254W        W49074  26.456  41.859   0.226
84255W        W49075  14.815  18.310  10.240
84256W        W49076  14.314  35.585   4.561
84257W        W49077  19.646  27.147   0.241
84258W        W49078  36.086   1.312   0.409
84259W        W49079   2.949   0.702   0.345
84260W        W49080  29.181   0.758   0.875
84261W        W49081  15.135  24.099   0.494
84262W        W49082  39.870  13.439   1.377
84263W        W49083  35.610   4.740   4.738
84264W        W49084  40.952   0.424   1.085
84265W        W49085   6.835  43.881   4.413
84266W        W49086  13.360  30.246   3.424
84267W        W49087  29.294  19.543   0.322
84268W        W49088  24.807  25.066  12.888
84269W        W49089   6.938  42.206   0.415
84270W        W49090  40.053  43.517   1.863
84271W        W49091  17.420  37.982  10.753
84272W        W49092  39.520  24.171   2.180
84273W        W49093  25.730  11.753   2.938
84274W        W49094  35.594  39.966   1.810
84275W        W49095  10.064  35.660  10.043
84276W        W49096  40.518  39.394   4.139
84277W        W49097  36.666   6.710   0.378
84278W        W49098  16.284   4.144  13.883
84279W        W49099  15.179  42.418   0.529
84280W        W49100  18.781   7.258  14.914
84281W        W49101  35.927   6.243   0.911
84282W        W49102  44.434  24.609  13.199
84283W        W49103  11.713  34.129   1.485
84284W        W49104  12.405   4.183   4.743
84285W        W49105   8.468  14.348   1.344
84286W        W49106  14.033  33.892  11.079
84287W        W49107  21.667  36.561  11.067
84288W        W49108  19.484  33.489   4.752
84289W        W49109  26.281  34.035  11.701
84290W        W49110  31.094   7.348   2.420
84291W        W49111  37.935   2.544   4.434
84292W        W49112  32.816  25.348  13.273
84293W        W49113  13.477  28.851   1.734
84294W        W49114   5.848   9.655   2.232
84295W        W49115  13.094   7.476  12.535
84296W        W49116   1.122  15.356  11.470
84297W        W49117  38.924  16.812  12.907
84298W        W49118   1.387  36.234  12.454
84299W        W49119   4.773  43.606   3.869
84300W        W49120  16.148   9.283   4.500
84301W        W49121   2.257  31.540  11.598
84302W        W49122  11.382  44.261  12.153
84303W        W49123  14.874  12.709   3.857
84304W        W49124  43.796  28.356   3.222
84305W        W49125  14.543  19.810   2.271
84306W        W49126  41.351  15.138  12.011
84307W        W49127  14.668  38.949   2.692
84308W        W49128  25.659  15.609  14.545
84309W        W49129  14.323  11.698  13.324
84310W        W49130   7.796   7.750   2.337
84311W        W49131  32.434  34.584   3.665
84312W        W49132  23.218  37.256   0.870
84313W        W49133   2.717  13.218   1.294
84314W        W49134  11.766  22.759  10.260
84315W        W49135  13.842   4.178  14.857
84316W        W49136  27.456  36.655  13.545
84317W        W49137  24.507  36.735  13.910
84318W        W49138  39.556  41.380   4.055
84319W        W49139   1.048  18.799   0.308
84320W        W49140  39.970   7.861  12.177
84321W        W49141   3.060  43.764   1.114
84322W        W49142   5.424  36.938   2.818
84323W        W49143  16.805  40.950  14.260
84324W        W49144  42.283  25.020   2.603
84325W        W49145  32.121   6.659   2.767
84326W        W49146  35.901  36.779   0.982
84327W        W49147   0.082   7.225   0.481
84328W        W49148  35.792  24.213   2.858
84329W        W49149  11.786   3.872   4.395
84330W        W49150   6.840  17.450  11.108
84331W        W49151  21.119  33.166  11.418
84332W        W49152   1.381  15.668  12.917
84333W        W49153  39.965  15.807   4.735
84334W        W49154   0.374   3.981   2.677
84335W        W49155  28.963  38.299   4.405
84336W        W49156  20.007  17.598   0.466
84337W        W49157  39.478  20.789  11.202
84338W        W49158  29.738   2.318   0.314
84339W        W49159  42.901  29.459   1.383
84340W        W49160   8.494  21.191  12.008
84341W        W49161  20.210  29.168   3.798
84342W        W49162  13.375   3.445  10.268
84343W        W49163  11.661  10.173  12.872
84344W        W49164  12.179  26.918   0.707
84345W        W49165  34.801   3.661  12.326
84346W        W49166  15.260  32.100   1.822
84347W        W49167   5.130  12.269  13.214
84348W        W49168  25.093  25.922  13.158
84349W        W49169  23.577   9.137  12.698
84350W        W49170  40.025  10.222   3.319
84351W        W49171  22.968  43.538   1.846
84352W        W49172  20.853  20.973   2.210
84353W        W49173   4.342  25.983  14.412
84354W        W49174  11.612   3.392   3.684
84355W        W49175  20.104  21.755   2.430
84356W        W49176  34.632  10.252  12.655
84357W        W49177  41.863  30.704   3.166
84358W        W49178  19.783  30.414  11.208
84359W        W49179  41.779   7.774  14.502
84360W        W49180   6.931  12.840   3.719
84361W        W49181  19.275   5.145  13.356
84362W        W49182  17.298  19.208   1.526
84363W        W49183  16.330  32.935   3.955
84364W        W49184  43.052   5.386  12.482
84365W        W49185   2.004  44.025   4.199
84366W        W49186  32.643  20.386  14.786
84367W        W49187  44.946  40.841  13.544
84368W        W49188  23.132  43.714   2.331
84369W        W49189  34.763  12.658   3.229
84370W        W49190   3.979  40.653  14.829
84371W        W49191  11.229  28.556  14.021
84372W        W49192  13.184  22.900  10.715
84373W        W49193  19.540  18.886   3.234
84374W        W49194  43.944  32.909   0.187
84375W        W49195   1.849  14.071   3.967
84376W        W49196   7.397  27.168   4.325
84377W        W49197  41.633  44.004  10.786
84378W        W49198  20.349  28.087  13.877
84379W        W49199  39.551  29.552  13.152
84380W        W49200  43.404  19.270  11.487
84381W        W49201  41.004  15.807   3.239
84382W        W49202  34.355  32.558   2.295
84383W        W49203  24.123  34.323   2.337
84384W        W49204   9.716  18.296  13.384
84385W        W49205   9.436   7.574   4.082
84386W        W49206  14.164   2.471   1.786
84387W        W49207  20.730  23.229  12.585
84388W        W49208   6.626  11.407  13.944
84389W        W49209  38.066  39.013   3.549
84390W        W49210  16.289   3.234   3.234
84391W        W49211  43.481  27.728   1.808
84392W        W49212   8.722   1.510  13.888
84393W        W49213  37.483  29.599  12.930
84394W        W49214   5.479  23.098   3.580
84395W        W49215   7.652  20.972  14.358
84396W        W49216  30.689  17.175   2.241
84397W        W49217  28.377  44.216   0.281
84398W        W49218   5.889  26.483   2.647
84399W        W49219   8.712   1.483  13.025
84400W        W49220  35.424   2.036  11.495
84401W        W49221  25.042   0.885  10.734
84402W        W49222  37.385  43.903   0.473
84403W        W49223  13.002  15.904   1.838
84404W        W49224  16.592  24.747   4.144
84405W        W49225  38.932   7.350   3.343
84406W        W49226  12.583   0.813   0.029
84407W        W49227  21.185  35.452   1.672
84408W        W49228  31.923  18.392  10.174
84409W        W49229  38.576  34.121   1.903
84410W        W49230  14.842  44.935   3.656
84411W        W49231  38.025  15.672   0.829
84412W        W49232  44.786  32.621   2.730
84413W        W49233  43.013  30.516  11.165
84414W        W49234  32.609   4.026  12.001
84415W        W49235   1.919   2.994  13.465
84416W        W49236  22.637  29.484   1.421
84417W        W49237  28.634   0.270   3.746
84418W        W49238  26.550  12.783   0.261
84419W        W49239  12.714  20.507   3.433
84420W        W49240  35.330  42.259   1.702
84421W        W49241  29.909   9.870   2.663
84422W        W49242  26.993  42.632  13.889
84423W        W49243  16.626  40.747  13.808
84424W        W49244   3.863  37.332  10.648
84425W        W49245  19.630  38.430   0.907
84426W        W49246  34.223   2.391  14.849
84427W        W49247  40.902   1.026   1.288
84428W        W49248  11.883  14.145  12.145
84429W        W49249   8.473   2.267  11.105
84430W        W49250  15.627  39.875  12.827
84431W        W49251  16.330   3.419  14.824
84432W        W49252  30.299  11.920   1.846
84433W        W49253   8.053  17.741   1.538
84434W        W49254   4.377  22.033   1.392
84435W        W49255  32.159  17.809  12.986
84436W        W49256  29.864  33.195  14.455
84437W        W49257  40.526  19.842   3.258
84438W        W49258   0.888  11.993  12.896
84439W        W49259   4.413  39.589  12.076
84440W        W49260  30.951  28.178   1.218
84441W        W49261  12.494  42.604  13.377
84442W        W49262  20.384  30.982  11.856
84443W        W49263  16.806  12.338  12.065
84444W        W49264  11.606   7.475  11.086
84445W        W49265  41.734   6.373   4.866
84446W        W49266  22.473  18.658   0.833
84447W        W49267  28.384  29.073   0.284
84448W        W49268   1.038  12.736  14.345
84449W        W49269  38.063  10.772  13.394
84450W        W49270   3.956  31.846  12.839
84451W        W49271  17.261  27.067  13.391
84452W        W49272  24.980  23.680   4.443
84453W        W49273   1.208  42.794   3.763
84454W        W49274  30.509  33.809  14.833
84455W        W49275  41.505  43.977   0.853
84456W        W49276  32.949  43.835  14.097
84457W        W49277  24.110  22.823   2.276
84458W        W49278  18.031  10.298   3.993
84459W        W49279  16.102  32.071  14.572
84460W        W49280  30.694  33.541  10.160
84461W        W49281   8.026  24.546  14.205
84462W        W49282  27.457  25.578   2.751
84463W        W49283  33.692  37.473   3.409
84464W        W49284  20.509  32.583  12.571
84465W        W49285   0.968  30.117   2.308
84466W        W49286  24.797  33.698   0.914
84467W        W49287   0.430  33.543   3.386
84468W        W49288  25.934  10.543   2.244
84469W        W49289  16.083  30.984   3.587
84470W        W49290   5.373  35.854  12.977
84471W        W49291  31.051   6.158   0.434
84472W        W49292  17.614  30.342  12.883
84473W        W49293  24.177   7.859  13.767
84474W        W49294  25.428  18.623   4.952
84475W        W49295  18.595  37.890   2.425
84476W        W49296  37.708  28.733   0.174
84477W        W49297  37.942   4.254  11.661
84478W        W49298  37.621  42.359   3.199
84479W        W49299  21.089  20.746  11.681
84480W        W49300  36.869   5.785   3.466
84481W        W49301  44.239  31.038  13.951
84482W        W49302  26.433  16.192   4.234
84483W        W49303  41.303   4.303  13.783
84484W        W49304  30.921   3.241   4.653
84485W        W49305  16.691   0.320   0.866
84486W        W49306  36.613   2.896   0.125
84487W        W49307  43.469  27.986  14.899
84488W        W49308  24.997  41.387  14.510
84489W        W49309  32.320  10.281   0.405
84490W        W49310  32.022  14.146  14.526
84491W        W49311  11.609  21.187   4.120
84492W        W49312  20.920  23.994  11.553
84493W        W49313  40.385  37.310   0.202
84494W        W49314  21.977   0.491  14.615
84495W        W49315  35.473  19.515   0.139
84496W        W49316  26.417  41.794  13.906
84497W        W49317  30.178  43.526  13.737
84498W        W49318  26.244  43.384   3.290
84499W        W49319   2.686  19.692  12.514
84500W        W49320  36.377  19.258  12.523
84501W        W49321  14.428  15.804   1.974
84502W        W49322  14.261  12.162   4.576
84503W        W49323  24.700  36.647  14.371
84504W        W49324  36.609   1.472  13.635
84505W        W49325   3.200  18.138  14.456
84506W        W49326  22.771  34.564   0.196
84507W        W49327  31.962  16.064   2.775
84508W        W49328  33.480  27.672   4.623
84509W        W49329  38.637  15.381  11.040
84510W        W49330  17.288  26.679  14.395
84511W        W49331   1.906   3.055  10.340
84512W        W49332  44.254   6.843  13.046
84513W        W49333   2.203  12.146   4.220
84514W        W49334  36.421   1.438  10.592
84515W        W49335   7.771  20.042   2.274
84516W        W49336  39.411  36.897   0.354
84517W        W49337  23.259  11.173  11.570
84518W        W49338  39.969  18.534   1.355
84519W        W49339  32.382  26.981   3.145
84520W        W49340   5.438   2.644   0.352
84521W        W49341   5.924  10.131   1.410
84522W        W49342  29.059  31.217  14.585
84523W        W49343  38.959  12.150   0.845
84524W        W49344  19.167  32.919  12.698
84525W        W49345  21.842  14.746  11.036
84526W        W49346  31.267  10.034   1.753
84527W        W49347  29.187  12.686   1.797
84528W        W49348  17.366   1.951   1.294
84529W        W49349  36.137  38.145  14.011
84530W        W49350  22.080   5.425  14.461
84531W        W49351  10.345  17.198   1.825
84532W        W49352  30.060  28.938  13.266
84533W        W49353  29.591  27.949   0.411
84534W        W49354  22.968  39.430   1.454
84535W        W49355  17.362  16.092  13.735
84536W        W49356  12.828  22.363   4.672
84537W        W49357  27.703  29.657  10.603
84538W        W49358  29.607  28.190   1.775
84539W        W49359  38.781  28.078   4.156
84540W        W49360  30.928  36.071  11.576
84541W        W49361  28.067   4.369  13.914
84542W        W49362  35.073  30.973  14.488
84543W        W49363  43.158  19.869   1.622
84544W        W49364  26.364  22.692   0.752
84545W        W49365  34.039  10.574  13.858
84546W        W49366  42.171  21.062   0.590
84547W        W49367  43.522   0.094   0.421
84548W        W49368   4.199  36.847   3.232
84549W        W49369  30.906  20.182   3.872
84550W        W49370  15.035  43.024   0.717
84551W        W49371  28.927  15.064   3.308
84552W        W49372  43.925  37.509  10.665
84553W        W49373   3.208  34.491   2.865
84554W        W49374  27.579  17.502  13.382
84555W        W49375  24.162  31.167  10.715
84556W        W49376  22.964   3.622   2.865
84557W        W49377  27.453  40.907  14.855
84558W        W49378  39.743  17.954  10.937
84559W        W49379   7.920  10.417   0.934
84560W        W49380  28.353  24.985  12.557
84561W        W49381  36.164  21.370  10.151
84562W        W49382  41.922  19.910  11.540
84563W        W49383  37.827  12.774   0.112
84564W        W49384  11.933  33.910   4.138
84565W        W49385   3.434   1.474   3.922
84566W        W49386  34.393  27.067   3.613
84567W        W49387   2.796  33.727  13.989
84568W        W49388   9.818  19.148   1.488
84569W        W49389  18.786  20.947  11.582
84570W        W49390  11.875  15.614  13.846
84571W        W49391   8.391  38.292   2.313
84572W        W49392  15.180  35.644   4.620
84573W        W49393  30.991  25.546  10.464
84574W        W49394  24.219  27.467   0.378
84575W        W49395  26.315   2.270  12.060
84576W        W49396   2.972  27.585  11.030
84577W        W49397  14.757  44.961  12.543
84578W        W49398  28.502  27.450   2.070
84579W        W49399  25.520   6.607  11.130
84580W        W49400   1.436  43.449   1.276
84581W        W49401  29.075   7.840   3.719
84582W        W49402  36.836  43.703   2.431
84583W        W49403  27.510  25.610  10.462
84584W        W49404  21.710   6.390   4.940
84585W        W49405  11.787  35.626  12.581
84586W        W49406  38.886   4.131  13.884
84587W        W49407  40.558  28.244   0.388
84588W        W49408   1.962   7.809   0.576
84589W        W49409  10.636  19.227   2.775
84590W        W49410  43.787  14.694  11.076
84591W        W49411  34.882  43.311  12.473
84592W        W49412  44.194   2.986   3.656
84593W        W49413  43.220   2.370   4.196
84594W        W49414  19.188  23.178  14.941
84595W        W49415  44.902  36.450  11.612
84596W        W49416  40.757  21.343  10.777
84597W        W49417  31.867  33.940   4.105
84598W        W49418  21.833  36.156   0.385
84599W        W49419  12.604   5.834   0.457
84600W        W49420   7.938  31.007   4.770
84601W        W49421  44.770  29.540   2.788
84602W        W49422   9.795  38.851   0.484
84603W        W49423   2.488  43.418  10.735
84604W        W49424  35.298  33.859   1.893
84605W        W49425  22.598  31.359  11.947
84606W        W49426   9.058  28.722  14.061
84607W        W49427   9.609  32.174   0.316
84608W        W49428  29.058   1.160  11.625
84609W        W49429  18.912  25.298   2.202
84610W        W49430  29.144  29.085   0.861
84611W        W49431   1.024   5.288   3.597
84612W        W49432   2.970  26.232   1.935
84613W        W49433   9.687  29.083   1.454
84614W        W49434  15.104  25.777  13.333
84615W        W49435   5.580  21.660  10.071
84616W        W49436  13.231  11.034  11.309
84617W        W49437  18.360  15.641   0.305
84618W        W49438  20.054  28.218   0.952
84619W        W49439   9.831  13.343   4.587
84620W        W49440  12.622  41.536  14.407
84621W        W49441   7.729  15.866  12.502
84622W        W49442   6.320  23.879   1.036
84623W        W49443  35.599  27.602  10.588
84624W        W49444   3.887  42.194   0.860
84625W        W49445  15.511  31.026   2.181
84626W        W49446  28.788  13.082  12.814
84627W        W49447  29.157  44.729  14.457
84628W        W49448  10.878  11.719   3.227
84629W        W49449  15.771  43.270  11.572
84630W        W49450   9.664  41.881  13.354
84631W        W49451  35.870  11.298  11.363
84632W        W49452  36.410   5.160   1.347
84633W        W49453   6.253   8.855   3.820
84634W        W49454  10.119  29.854   1.446
84635W        W49455  25.106   3.297   0.748
84636W        W49456  42.262  41.277  13.261
84637W        W49457  18.821  40.503   4.366
84638W        W49458  15.157  37.252  10.075
84639W        W49459  31.450  43.435   1.449
84640W        W49460  35.609  44.795   3.213
84641W        W49461   0.968   6.429  12.817
84642W        W49462  24.233  31.692   4.528
84643W        W49463  37.290  41.959  11.131
84644W        W49464   9.734  12.258  11.630
84645W        W49465  29.593  42.758  14.402
84646W        W49466  30.097  26.457  12.884
84647W        W49467  20.332  32.468  13.072
84648W        W49468   1.177  13.294  14.748
84649W        W49469  36.602  39.350  14.795
84650W        W49470  29.007  32.640   2.572
84651W        W49471   4.245  39.274   1.034
84652W        W49472  23.973  29.564   2.185
84653W        W49473   6.159  30.741   4.357
84654W        W49474   1.345  26.409   1.523
84655W        W49475  33.216  19.010  10.980
84656W        W49476  36.401   3.945  13.089
84657W        W49477  14.125  37.657  14.907
84658W        W49478   9.278  15.400   3.737
84659W        W49479   4.435  41.429   3.337
84660W        W49480  31.548  41.498  12.524
84661W        W49481  43.439  35.895  13.341
84662W        W49482  34.544   2.721  11.153
84663W        W49483  31.977  12.356  14.057
84664W        W49484  32.816   4.421   4.473
84665W        W49485  34.221   0.280  11.626
84666W        W49486  27.040  12.243  13.321
84667W        W49487  43.983   8.591  12.574
84668W        W49488  26.978  15.342   3.707
84669W        W49489  20.942  43.138  12.103
84670W        W49490  39.362  17.553   1.025
84671W        W49491   1.373   6.218  11.525
84672W        W49492  44.304  11.637   5.504
84673W        W49493  12.707   3.501  14.373
84674W        W49494   4.405  18.643  10.751
84675W        W49495  27.627  11.122  14.911
84676W        W49496  31.165  17.069   3.553
84677W        W49497   3.875  24.759  14.866
84678W        W49498   8.698  35.358   4.223
84679W        W49499  13.845  34.854   2.571
84680W        W49500  41.522  34.533   1.151
84681W        W49501  36.538  25.269   4.624
84682W        W49502  34.829  14.579  14.432
84683W        W49503  16.088  16.700  14.881
84684W        W49504  38.346  34.879  13.783
84685W        W49505  39.996  11.323  11.293
84686W        W49506   7.137   8.764   2.842
84687W        W49507  33.688  16.585   3.628
84688W        W49508  11.188  39.868  10.548
84689W        W49509  16.315   0.861  14.735
84690W        W49510   7.558   1.294   3.588
84691W        W49511  44.552   1.351   0.961
84692W        W49512  15.733  43.579   0.491
84693W        W49513  19.692  12.843   3.399
84694W        W49514  26.508  33.952   3.657
84695W        W49515   6.230  43.026  12.536
84696W        W49516  41.297  43.683  11.923
84697W        W49517  43.843   4.578   2.687
84698W        W49518  30.902  36.876   3.314
84699W        W49519   8.123  28.170  14.384
84700W        W49520   4.272  32.085   2.602
84701W        W49521  29.005  11.609  11.136
84702W        W49522  37.474  18.020   1.138
84703W        W49523  38.555   3.729   3.613
84704W        W49524  42.812  20.279  12.983
84705W        W49525  17.229  27.825   9.944
84706W        W49526  35.903  11.219  13.359
84707W        W49527   3.344  19.279   1.334
84708W        W49528  32.556  41.325  13.068
84709W        W49529  25.749  20.793   4.485
84710W        W49530  36.810  17.737  12.928
84711W        W49531  30.075  33.357   2.730
84712W        W49532  30.427  21.643  12.000
84713W        W49533  42.976  11.567   4.061
84714W        W49534   9.248  40.404   2.916
84715W        W49535  32.591  12.243   2.820
84716W        W49536  11.412   4.188   3.119
84717W        W49537  40.684  14.126  11.208
84718W        W49538  30.490  14.927   4.474
84719W        W49539  33.464  37.099   1.540
84720W        W49540  19.069  31.013  14.772
84721W        W49541  25.921  18.618  11.110
84722W        W49542  38.279  28.087  10.714
84723W        W49543  24.199  23.988   4.203
84724W        W49544  25.484  24.581  13.290
84725W        W49545  25.776   8.622   3.201
84726W        W49546   9.422  40.373  13.462
84727W        W49547  32.617  15.356  14.859
84728W        W49548  41.174  11.133  11.944
84729W        W49549  18.882   1.078   3.539
84730W        W49550  12.106  32.452  14.466
84731W        W49551  42.961   4.547   4.446
84732W        W49552  14.571  15.238   3.925
84733W        W49553  30.201  39.488  11.926
84734W        W49554  27.441  24.873  13.462
84735W        W49555  18.253  16.634   0.205
84736W        W49556  37.654  10.760  11.230
84737W        W49557   4.262   2.838   4.702
84738W        W49558   0.927  16.553   3.610
84739W        W49559  41.050  32.587  12.496
84740W        W49560  20.095   9.185   2.208
84741W        W49561  28.120   4.063   3.290
84742W        W49562  43.196  26.598  13.031
84743W        W49563  43.239   2.480   1.321
84744W        W49564  39.371  44.790   3.246
84745W        W49565  44.258  23.720  14.741
84746W        W49566   6.047  40.769   3.795
84747W        W49567  37.070   1.047  10.677
84748W        W49568  43.052  23.711   3.819
84749W        W49569  21.128  21.232   0.088
84750W        W49570  33.872  32.597  12.884
84751W        W49571  28.193  39.273   4.240
84752W        W49572  18.932  40.727   5.412
84753W        W49573   3.715  16.233  12.938
84754W        W49574   0.759  15.652  12.686
84755W        W49575  24.573  25.206   3.285
84756W        W49576   2.468  24.606  10.754
84757W        W49577  13.273   7.445  10.642
84758W        W49578   6.235  40.027  11.927
84759W        W49579  42.942  32.858  10.767
84760W        W49580  10.933  35.107  14.447
84761W        W49581   6.858  42.952   1.122
84762W        W49582  11.902  32.024   0.752
84763W        W49583  24.816  42.300  11.100
84764W        W49584  27.661  15.537  11.070
84765W        W49585  43.886  19.544  12.294
84766W        W49586  14.313  44.893  13.853
84767W        W49587  25.953  28.967  14.396
84768W        W49588   8.287  15.482   4.605
84769W        W49589  16.714  20.086   4.735
84770W        W49590  35.964   3.333  14.765
84771W        W49591  32.542  21.687  11.450
84772W        W49592  30.643   1.297   4.660
84773W        W49593  22.647  40.535  10.929
84774W        W49594  38.412   6.876   4.546
84775W        W49595  15.549   3.170  12.077
84776W        W49596  44.528  11.985  13.495
84777W        W49597  44.841  25.265  11.598
84778W        W49598  41.947  42.043   4.605
84779W        W49599  10.680  22.061   3.501
84780W        W49600  34.927  37.428  12.145
84781W        W49601  29.510  39.012   0.116
84782W        W49602  27.619   9.582   3.256
84783W        W49603  35.508   5.149  13.040
84784W        W49604   5.736  25.112   0.812
84785W        W49605  27.516   6.728   4.039
84786W        W49606  28.694  31.741   0.843
84787W        W49607   0.672  41.515  11.032
84788W        W49608   2.040  20.436  13.526
84789W        W49609   8.556   0.280   4.584
84790W        W49610   1.164  18.036   1.869
84791W        W49611   3.430  20.077  14.309
84792W        W49612  29.438  27.321   3.241
84793W        W49613   1.501  33.097   4.551
84794W        W49614  33.206  13.819  14.288
84795W        W49615  42.433  33.995   3.787
84796W        W49616  15.774  25.976   3.481
84797W        W49617  31.077  40.503   4.567
84798W        W49618  30.065   9.663   3.676
84799W        W49619  17.271  32.009   0.723
84800W        W49620  18.510  40.995  11.950
84801W        W49621  24.952  11.690  13.869
84802W        W49622   5.183   3.408  14.941
84803W        W49623  44.207  23.252   3.299
84804W        W49624  24.448   4.832  11.465
84805W        W49625  24.014  42.886  11.854
84806W        W49626  34.029   9.449  12.507
84807W        W49627  12.404  36.643  13.481
84808W        W49628  39.871  12.653  14.912
84809W        W49629  32.033  10.708  12.652
84810W        W49630  43.615  14.416   2.688
84811W        W49631   6.764  35.004   1.182
84812W        W49632  13.256  19.521   1.639
84813W        W49633  43.897  10.789  11.206
84814W        W49634  21.452  20.323   4.101
84815W        W49635   2.810   0.223   0.464
84816W        W49636  26.023  38.769  11.647
84817W        W49637  41.001   3.105   1.253
84818W        W49638  10.897  35.402  13.356
84819W        W49639  21.736  18.791  13.427
84820W        W49640  32.990   3.438   1.476
84821W        W49641   1.810  19.266   3.216
84822W        W49642  25.860  17.678  14.111
84823W        W49643  23.618  32.034  14.808
84824W        W49644  17.690  26.765  14.718
84825W        W49645  27.235   4.415  14.544
84826W        W49646  27.068  38.938  12.409
84827W        W49647  15.760  27.512   3.207
84828W        W49648   3.416  41.550   0.711
84829W        W49649  40.498  33.843   4.649
84830W        W49650  42.533  15.465  14.582
84831W        W49651  11.160  42.302   2.484
84832W        W49652   4.999   5.134   1.968
84833W        W49653  26.227  33.601   2.157
84834W        W49654   4.468  33.375  10.661
84835W        W49655  34.672  41.050  10.405
84836W        W49656   0.648   5.448   0.425
84837W        W49657  34.112  26.556  13.713
84838W        W49658  14.070   7.152  12.630
84839W        W49659  15.298  23.170   0.892
84840W        W49660  26.938  19.292  11.627
84841W        W49661   9.496   3.429   5.107
84842W        W49662  22.731  37.073   1.705
84843W        W49663  20.328  14.309  14.743
84844W        W49664  18.661  12.785  11.475
84845W        W49665  44.739   0.043   2.161
84846W        W49666   9.405  25.131  10.024
84847W        W49667   7.693  32.370   0.050
84848W        W49668  35.064  36.758  14.891
84849W        W49669  29.658  26.081   2.331
84850W        W49670  29.118  20.162  12.051
84851W        W49671  38.982  11.171  10.951
84852W        W49672  32.102  18.600  14.628
84853W        W49673  21.047  37.651  13.450
84854W        W49674   2.340  18.207  11.177
84855W        W49675   3.757  17.897   1.707
84856W        W49676  25.005   5.662   2.646
84857W        W49677   9.667  40.773  10.778
84858W        W49678  40.018  41.763  14.431
84859W        W49679   9.857  22.552  12.395
84860W        W49680  19.183  16.577  14.229
84861W        W49681  23.100  38.209  13.785
84862W        W49682  12.604  38.871  14.356
84863W        W49683  10.682   3.046  14.731
84864W        W49684  36.283   3.020   3.170
84865W        W49685  12.809   0.881  13.577
84866W        W49686  10.736  11.069  14.308
84867W        W49687  16.818  41.297  14.817
84868W        W49688  31.403  16.117   3.692
84869W        W49689   4.887   9.672   2.670
84870W        W49690   7.542  11.363   4.113
84871W        W49691  25.029  43.671   2.348
84872W        W49692  20.036  27.822   0.600
84873W        W49693  40.985  15.207  14.539
84874W        W49694  10.211  20.759  11.459
84875W        W49695  21.298  42.262  11.647
84876W        W49696  26.938  40.769  13.452
84877W        W49697   8.369   8.180  11.474
84878W        W49698  27.960  44.327  12.547
84879W        W49699  29.370  16.130   4.897
84880W        W49700  29.137   2.536   2.687
84881W        W49701  39.919   9.280   0.366
84882W        W49702  12.077  16.689   0.412
84883W        W49703   8.641  43.810  14.761
84884W        W49704  22.656  36.298   3.041
84885W        W49705  26.004  15.775   0.274
84886W        W49706  31.211  18.913   4.327
84887W        W49707   0.990  23.068   0.272
84888W        W49708  11.014  26.496  12.705
84889W        W49709  29.617  27.930  10.355
84890W        W49710  39.530  25.669   2.282
84891W        W49711  39.895  16.582   2.403
84892W        W49712  12.200   5.868  10.727
84893W        W49713  29.976  38.561  12.126
84894W        W49714  30.953  11.811   4.597
84895W        W49715  21.343  14.154   1.802
84896W        W49716  36.123  44.804   3.123
84897W        W49717  40.983  43.241  12.415
84898W        W49718  27.994  25.604  10.679
84899W        W49719  43.975  31.451  11.531
84900W        W49720  34.191   0.830   3.306
84901W        W49721  43.289  41.986  11.256
84902W        W49722  39.556  40.829   1.911
84903W        W49723  32.898  33.452   1.919
84904W        W49724  10.189  10.671  14.144
84905W        W49725  28.154  41.516  11.538
84906W        W49726  23.199  39.805  12.990
84907W        W49727   3.413  11.577   2.943
84908W        W49728  17.245  14.672   2.827
84909W        W49729  17.461  40.757   2.158
84910W        W49730  27.012  29.018  10.723
84911W        W49731  41.099  32.218   2.806
84912W        W49732  17.668  41.959  11.295
84913W        W49733   3.549   4.792  10.606
84914W        W49734  20.786  38.457   0.360
84915W        W49735  12.102  33.142   2.294
84916W        W49736   9.410  12.835  10.780
84917W        W49737  28.291  32.668  10.646
84918W        W49738  12.833   8.804  14.344
84919W        W49739  22.089  35.573   1.722
84920W        W49740  40.914   3.863  14.479
84921W        W49741  41.693  11.700  14.575
84922W        W49742   8.303  12.497  11.698
84923W        W49743  28.391  24.606  10.793
84924W        W49744  10.323   2.692   1.126
84925W        W49745   8.712   5.024   3.435
84926W        W49746   2.907  32.201   4.056
84927W        W49747  40.625  13.097   4.706
84928W        W49748  15.499  43.341  12.057
84929W        W49749  25.412  43.760   3.641
84930W        W49750  32.546  34.402  14.740
84931W        W49751   3.090  23.900  11.554
84932W        W49752  21.672  16.243  10.474
84933W        W49753  38.948   5.729  11.160
84934W        W49754  28.225  41.319   4.686
84935W        W49755  29.876  16.980  10.080
84936W        W49756  42.314   1.791   1.155
84937W        W49757   6.707  28.350  11.940
84938W        W49758  30.543  17.221   0.854
84939W        W49759  18.094  31.423  14.390
84940W        W49760   4.887  24.555  14.802
84941W        W49761  43.000  11.674  14.184
84942W        W49762  13.910  31.283   3.772
84943W        W49763  10.698   0.718  10.574
84944W        W49764  30.353   1.275   3.637
84945W        W49765  19.855  23.683   4.624
84946W        W49766  34.593  30.533   2.215
84947W        W49767  36.491  25.169   5.124
84948W        W49768   2.372  29.746   4.699
84949W        W49769  37.970  13.287   1.155
84950W        W49770  22.576  26.622  11.739
84951W        W49771   5.726  15.229   4.020
84952W        W49772   2.642  42.715  12.432
84953W        W49773  23.991  29.621  13.438
84954W        W49774  43.725  44.973  13.312
84955W        W49775  34.264  11.532   4.173
84956W        W49776  15.500  32.912   1.336
84957W        W49777   4.227  38.940  14.092
84958W        W49778  11.451   3.690   2.345
84959W        W49779   9.287   5.245  13.232
84960W        W49780   5.361  32.556  10.762
84961W        W49781  11.436  15.272   3.990
84962W        W49782  12.235   3.711  14.423
84963W        W49783  25.596  34.672   1.530
84964W        W49784  12.624  41.919   1.832
84965W        W49785  32.760  42.681  10.565
84966W        W49786   4.275  25.157   3.481
84967W        W49787   3.524   5.617  11.569
84968W        W49788  15.711   3.382   3.896
84969W        W49789   4.917  29.275  13.085
84970W        W49790  12.043  15.321   0.043
84971W        W49791  11.088  30.937   0.974
84972W        W49792  38.520  35.409  13.995
84973W        W49793   0.770  11.717  11.659
84974W        W49794  41.925   0.998   0.518
84975W        W49795   6.182  33.814  12.178
84976W        W49796   0.137   9.165   2.664
84977W        W49797  39.592  26.968  14.523
84978W        W49798  12.354  35.355  10.717
84979W        W49799  23.228   6.103  13.498
84980W        W49800  41.096   3.684   2.313
84981W        W49801  37.006   2.995  13.426
84982W        W49802   2.683  18.656  13.406
84983W        W49803   4.033  25.822  14.030
84984W        W49804  31.470  31.370   0.364
84985W        W49805  21.152  14.389   2.231
84986W        W49806   4.322  43.122   2.791
84987W        W49807  11.143   5.759   3.726
84988W        W49808  30.952  17.122  12.983
84989W        W49809  11.651  33.358  12.514
84990W        W49810  30.806   0.759  11.639
84991W        W49811  42.779  15.177  10.679
84992W        W49812  31.420  32.711  12.956
84993W        W49813   9.579  38.460   4.474
84994W        W49814  17.171  34.353   3.710
84995W        W49815  22.157  26.977   1.724
84996W        W49816   7.399  32.200   1.133
84997W        W49817  18.529  14.349   5.301
84998W        W49818  31.524  27.240  12.145
84999W        W49819  38.816   6.134  13.345
85000W        W49820  18.424  27.869  12.929
85001W        W49821  36.507  31.572   4.507
85002W        W49822  32.885  21.476   0.872
85003W        W49823  44.249  25.021  11.895
85004W        W49824  36.542  27.589  13.545
85005W        W49825  10.378  27.183   0.705
85006W        W49826  22.155  23.421   4.989
85007W        W49827   2.647  13.710   3.342
85008W        W49828  39.007  18.975  11.008
85009W        W49829  20.361  15.044  11.349
85010W        W49830  24.157  17.134  13.480
85011W        W49831  25.105  18.750  13.547
85012W        W49832  21.066  10.053  10.845
85013W        W49833   1.341  18.544  11.935
85014W        W49834  39.229  24.461   0.917
85015W        W49835  40.568  13.881  13.879
85016W        W49836  19.114  42.609   0.975
85017W        W49837   5.970  18.131  14.354
85018W        W49838  25.661  17.677   2.333
85019W        W49839   3.584  27.646   4.786
85020W        W49840  23.754   6.897   4.219
85021W        W49841   6.827  13.895   0.961
85022W        W49842  29.487  36.016  11.491
85023W        W49843  19.321  39.484  14.434
85024W        W49844   7.813   0.843   0.243
85025W        W49845   0.523  41.930   4.561
85026W        W49846   6.192  18.291  13.318
85027W        W49847  25.232  19.256  14.985
85028W        W49848  23.772   6.293   3.378
85029W        W49849   8.757  41.819  10.971
85030W        W49850   1.634  35.061   4.599
85031W        W49851  43.404  14.515  12.541
85032W        W49852  30.847  34.480  12.000
85033W        W49853  42.589  18.484  13.391
85034W        W49854  44.576  13.873  13.907
85035W        W49855   7.264  41.321   3.107
85036W        W49856  23.709  44.908   2.319
85037W        W49857  32.526  32.951  11.653
85038W        W49858  41.029  17.040  11.128
85039W        W49859  32.445   8.704   3.546
85040W        W49860  35.843   6.117  12.553
85041W        W49861   8.672  34.540   2.225
85042W        W49862   9.252  16.612  11.452
85043W        W49863  21.905  42.051  14.896
85044W        W49864  44.258  33.869  14.569
85045W        W49865  26.999  22.767  13.280
85046W        W49866  14.584  41.325  14.242
85047W        W49867  39.009  27.421   2.132
85048W        W49868   2.856  36.666   4.677
85049W        W49869  15.015   2.696   1.933
85050W        W49870  31.566  43.997   1.416
85051W        W49871  29.645  36.972   1.646
85052W        W49872  36.512   8.226   0.258
85053W        W49873  43.267  33.932   2.400
85054W        W49874  16.753  38.178   4.977
85055W        W49875   1.006   9.248   0.533
85056W        W49876   8.562   6.805   4.192
85057W        W49877   0.660  29.572   0.486
85058W        W49878  32.353  23.980  13.090
85059W        W49879   3.782   1.813   4.100
85060W        W49880  34.457  19.326   2.878
85061W        W49881  44.254   6.829  14.035
85062W        W49882  39.843  38.030  13.009
85063W        W49883  18.518  13.272   1.295
85064W        W49884   0.307   8.796  10.938
85065W        W49885  11.076  37.921  12.601
85066W        W49886  15.837  14.231  12.543
85067W        W49887  36.198   3.356   2.793
85068W        W49888   2.467  25.097  11.468
85069W        W49889  11.335  17.407   3.197
85070W        W49890  11.807  41.490  10.540
85071W        W49891  25.458  14.677  13.577
85072W        W49892   2.227  44.307   1.820
85073W        W49893  39.596  22.197  11.568
85074W        W49894  27.077  14.580  10.790
85075W        W49895  22.672   8.851   0.897
85076W        W49896  10.301  29.503   0.090
85077W        W49897  30.879  42.768  14.804
85078W        W49898  34.899  28.590   3.436
85079W        W49899  33.300  30.325  11.146
85080W        W49900   7.617  10.728   0.414
85081W        W49901  29.464  44.018  13.026
85082W        W49902  32.575  29.605  13.602
85083W        W49903  10.981  33.488   0.763
85084W        W49904  30.948  19.102   2.723
85085W        W49905  35.884  28.508  12.635
85086W        W49906  35.349  43.436  14.577
85087W        W49907  36.724  27.954   4.353
85088W        W49908  37.745  38.089  11.381
85089W        W49909  25.507   8.717  14.391
85090W        W49910   0.866  24.321   1.401
85091W        W49911   1.544  44.859   2.824
85092W        W49912  17.142  29.660   3.314
85093W        W49913  18.229  19.055  11.920
85094W        W49914  35.478  19.646  11.550
85095W        W49915  31.846  21.773   1.698
85096W        W49916  38.413  44.763   4.722
85097W        W49917  42.434   2.343  13.160
85098W        W49918  42.634  36.038   3.387
85099W        W49919  34.454   7.207  14.858
85100W        W49920  39.057  36.049  10.286
85101W        W49921  33.553   4.955   3.936
85102W        W49922  39.482  40.956  13.420
85103W        W49923   0.018   6.148   1.825
85104W        W49924  23.671   8.278   4.530
85105W        W49925  21.211  17.392   0.851
85106W        W49926  26.556  43.441  10.607
85107W        W49927   2.182  21.265   0.269
85108W        W49928   2.521  16.567   2.728
85109W        W49929  41.805  18.723  13.841
85110W        W49930  36.665  20.536   4.550
85111W        W49931  11.522  11.892   0.085
85112W        W49932  13.654   9.215  12.936
85113W        W49933   5.117  16.009  12.985
85114W        W49934   3.840  42.364  13.789
85115W        W49935  36.587  35.647   3.858
85116W        W49936  25.744   9.299  10.644
85117W        W49937  32.711  30.048  11.335
85118W        W49938  38.876  38.122   0.431
85119W        W49939  35.465  36.078   0.679
85120W        W49940  27.553  19.929  14.013
85121W        W49941  38.647  32.507  12.408
85122W        W49942  39.439   3.884  11.213
85123W        W49943   9.110  19.660   2.298
85124W        W49944  25.714  44.216  10.597
85125W        W49945  15.497  26.913  12.012
85126W        W49946   5.731  33.499   4.342
85127W        W49947  33.573  13.914  10.521
85128W        W49948  18.222  25.099   4.011
85129W        W49949  31.722  30.119  11.467
85130W        W49950  14.816  42.270  11.524
85131W        W49951  21.339  44.054  13.608
85132W        W49952  39.040   7.616   2.731
85133W        W49953  26.725  10.145   2.240
85134W        W49954  13.564  36.001  13.475
85135W        W49955  21.885  20.150  12.089
85136W        W49956  38.949  26.595  13.086
85137W        W49957  23.246   4.730  14.938
85138W        W49958  32.160  23.550   3.286
85139W        W49959  24.176  10.597   2.678
85140W        W49960   0.628   1.004   1.868
85141W        W49961  18.750   0.751   1.236
85142W        W49962  19.567  31.823   1.340
85143W        W49963  17.157  40.382   1.940
85144W        W49964   7.468  32.930  11.219
85145W        W49965  24.568  13.307   0.511
85146W        W49966  32.690  26.643  14.214
85147W        W49967   7.120  26.607   5.121
85148W        W49968   8.769  40.892   0.836
85149W        W49969   8.668   6.795  12.177
85150W        W49970  38.938   6.981   2.342
85151W        W49971  28.123   5.697   2.403
85152W        W49972  28.696   7.165   0.880
85153W        W49973  12.888  34.043  11.665
85154W        W49974  18.986  22.015   1.755
85155W        W49975  22.134  24.228   0.280
85156W        W49976  24.058  33.663  13.031
85157W        W49977   2.424  29.196  14.429
85158W        W49978  19.495  10.776   0.905
85159W        W49979  18.199   8.656  14.963
85160W        W49980  10.934  44.829   4.510
85161W        W49981   2.837  40.874   4.639
85162W        W49982  15.453  18.891   3.761
85163W        W49983  22.759  28.722  11.340
85164W        W49984   4.074  17.407  12.047
85165W        W49985  14.725  24.501  13.513
85166W        W49986  18.117   0.262   0.968
85167W        W49987  17.673   9.307   5.440
85168W        W49988   5.319  11.609  11.479
85169W        W49989  40.872  11.627   2.259
85170W        W49990  10.802  41.984   0.410
85171W        W49991  23.938  14.120  12.077
85172W        W49992   7.687   2.252  13.420
85173W        W49993  32.569  39.686  13.041
85174W        W49994  19.518  29.535  11.659
85175W        W49995  14.102  13.238  12.651
85176W        W49996  38.126  42.556  10.147
85177W        W49997   2.341   3.164  10.050
85178W        W49998  19.367  32.615  14.003
85179W        W49999  31.680  38.335   2.632
85180W        W50000   6.202  44.527   1.385
85181W        W50001  17.741  30.353   3.618
85182W        W50002  39.144  44.313  11.235
85183W        W50003  44.184  15.840   1.781
85184W        W50004  36.008  17.982   0.269
85185W        W50005  34.104  31.343  11.164
85186W        W50006  41.793  29.411  12.024
85187W        W50007  36.632  43.904  14.048
85188W        W50008  28.734   0.707   4.534
85189W        W50009  31.197  11.277  11.101
85190W        W50010  20.841  33.863   2.632
85191W        W50011  25.974  32.375   0.990
85192W        W50012  24.667  41.248  12.238
85193W        W50013   3.189   5.430   4.750
85194W        W50014  43.015  24.469  11.909
85195W        W50015  11.583   9.779  14.087
85196W        W50016   4.044  26.984   1.699
85197W        W50017   8.795  39.517  10.644
85198W        W50018  44.469  23.107  13.943
85199W        W50019  16.629  12.723  10.644
85200W        W50020  23.512  20.274   0.465
85201W        W50021  17.106  29.127   2.253
85202W        W50022  32.901   2.992  14.501
85203W        W50023  36.684   2.683   1.387
85204W        W50024   7.773  39.041   2.183
85205W        W50025   6.654  41.787  10.995
85206W        W50026  16.799  26.790   4.127
85207W        W50027   4.399  10.834  13.175
85208W        W50028  30.853  29.795   0.970
85209W        W50029  27.986   8.813  13.237
85210W        W50030  19.238  44.850   1.569
85211W        W50031  37.986  19.706   0.434
85212W        W50032  41.411  35.906   4.807
85213W        W50033  19.588   9.667   0.939
85214W        W50034   3.280  21.255  11.213
85215W        W50035  39.327  30.623   2.362
85216W        W50036  22.143   6.674   0.351
85217W        W50037  19.757  12.322  12.012
85218W        W50038   0.223  38.055  14.238
85219W        W50039  39.265  39.983   1.082
85220W        W50040   4.524  10.178   4.623
85221W        W50041   8.366  26.597   0.957
85222W        W50042  26.475  30.602  14.314
85223W        W50043  42.006   9.814   3.402
85224W        W50044   5.240  30.381  11.948
85225W        W50045  38.032  24.810   0.358
85226W        W50046  24.059  42.840   0.715
85227W        W50047  43.647  20.731  12.822
85228W        W50048  34.982  39.438  14.017
85229W        W50049   5.188  34.391  13.591
85230W        W50050  36.860   4.740  11.162
85231W        W50051  34.469  21.980  12.328
85232W        W50052  16.074  21.702  11.640
85233W        W50053  30.375   4.423   0.445
85234W        W50054   5.106  19.650   0.753
85235W        W50055  16.810  31.962   1.803
85236W        W50056   0.796  34.393   1.731
85237W        W50057  34.442  37.491   1.393
85238W        W50058   9.774  10.786   0.277
85239W        W50059  11.891  35.861   0.358
85240W        W50060  12.376  18.643   3.712
85241W        W50061   6.351  42.779  14.913
85242W        W50062  14.145  17.758  12.173
85243W        W50063  21.628  14.181   2.248
85244W        W50064  14.111  33.852   3.251
85245W        W50065  42.922  13.501   2.302
85246W        W50066  30.525  19.473  14.379
85247W        W50067  16.764  40.750   2.671
85248W        W50068  29.505  16.554  13.725
85249W        W50069  32.360  16.159   2.199
85250W        W50070   2.692  23.731   9.940
85251W        W50071  28.125   7.855  11.378
85252W        W50072  18.969  28.646   3.267
85253W        W50073  35.729   1.637   4.055
85254W        W50074  28.505  22.729  11.935
85255W        W50075  18.190  42.798   1.442
85256W        W50076  24.597  26.915   1.146
85257W        W50077  14.827  11.169   0.461
85258W        W50078  40.954  16.555  14.021
85259W        W50079  10.839  37.522  10.421
85260W        W50080   5.701  44.406   3.990
85261W        W50081  31.042   2.229  11.582
85262W        W50082  15.571  19.785  11.537
85263W        W50083  10.356   4.781  12.889
85264W        W50084  30.494  25.205   3.193
85265W        W50085  32.053   7.895  11.094
85266W        W50086   6.662  30.481  12.027
85267W        W50087  42.877   8.406   2.654
85268W        W50088   0.194  41.518   4.282
85269W        W50089  25.086  31.950  10.538
85270W        W50090  30.559  26.517   3.062
85271W        W50091  21.282  38.495  13.712
85272W        W50092   8.199  12.346   4.630
85273W        W50093  23.251   8.787   3.081
85274W        W50094  29.848  17.144  10.611
85275W        W50095  27.678  28.020  14.480
85276W        W50096  14.779  25.017   3.495
85277W        W50097  24.440  14.977   1.289
85278W        W50098  39.773  30.645   3.404
85279W        W50099  26.060  26.412   0.431
85280W        W50100  41.102  38.344  10.714
85281W        W50101  30.614  26.848   2.669
85282W        W50102   0.707   9.633  14.297
85283W        W50103   5.783   3.651  13.413
85284W        W50104  22.946  25.414   3.079
85285W        W50105  16.594   6.465   0.352
85286W        W50106  42.572  17.184   3.319
85287W        W50107  30.576   0.509  12.119
85288W        W50108  19.749  13.213   3.054
85289W        W50109  26.563  42.994  11.432
85290W        W50110  36.278  27.567   1.381
85291W        W50111  25.465  25.221   2.213
85292W        W50112  37.406  42.371  13.353
85293W        W50113  15.509   5.871  11.094
85294W        W50114  23.431   9.545   4.083
85295W        W50115   7.757  24.011  12.978
85296W        W50116  43.052  21.715  12.374
85297W        W50117  28.818  15.105  11.882
85298W        W50118  35.099  33.287   1.867
85299W        W50119  36.849  39.350   0.711
85300W        W50120  11.287  29.698   3.569
85301W        W50121  12.264  18.713  14.237
85302W        W50122  30.562   3.616   0.640
85303W        W50123  28.210   0.772  13.450
85304W        W50124  29.121  13.284  12.500
85305W        W50125  17.113  14.300   4.512
85306W        W50126  30.785   8.837   1.929
85307W        W50127  29.426   3.918   1.314
85308W        W50128  33.749  14.855  10.670
85309W        W50129  39.431   6.837  12.539
85310W        W50130   8.942   9.256  10.631
85311W        W50131   8.388  36.786  12.124
85312W        W50132   4.806  23.171   3.183
85313W        W50133  10.784   5.261  14.006
85314W        W50134   1.862  40.534   1.242
85315W        W50135  18.556   6.974  14.525
85316W        W50136   2.425  11.424  10.937
85317W        W50137  17.742  37.046   2.757
85318W        W50138   5.741  44.271   1.453
85319W        W50139  15.553   0.875  13.859
85320W        W50140  38.848  44.000  13.968
85321W        W50141  13.169  18.727   3.235
85322W        W50142  36.136  39.417  13.811
85323W        W50143  39.883  39.326  12.438
85324W        W50144  28.001  25.173  14.858
85325W        W50145  33.455  44.351  13.568
85326W        W50146  27.031  25.427  11.254
85327W        W50147  19.824  19.269  11.740
85328W        W50148  19.337  19.396   4.451
85329W        W50149   9.289  38.765  12.968
85330W        W50150  34.135   3.957   3.257
85331W        W50151  11.909  22.034  14.764
85332W        W50152  16.040  16.295  11.992
85333W        W50153  26.385   9.273   2.618
85334W        W50154   6.682   3.501   4.836
85335W        W50155  26.212  29.071   0.690
85336W        W50156  40.341  16.916   2.459
85337W        W50157  44.678  19.980  11.353
85338W        W50158  17.047  14.255   0.464
85339W        W50159  40.283  23.159  10.735
85340W        W50160  11.372  28.507  11.070
85341W        W50161  37.040  39.562   2.616
85342W        W50162  22.685  22.684  12.426
85343W        W50163  18.544  24.911   0.418
85344W        W50164  37.588  25.908  14.900
85345W        W50165   4.420  13.398  13.364
85346W        W50166  29.050  36.383   0.216
85347W        W50167  44.653  22.752   0.410
85348W        W50168  24.539  19.671  14.812
85349W        W50169  18.689  11.390   1.765
85350W        W50170  27.935  11.804  10.557
85351W        W50171  24.052  14.616  12.056
85352W        W50172  23.033   8.750  12.061
85353W        W50173  10.454  16.194   1.477
85354W        W50174  23.018  16.572  10.709
85355W        W50175  42.832  39.866   4.012
85356W        W50176  36.341  19.711   1.914
85357W        W50177  26.579   4.178   0.763
85358W        W50178  17.862  30.526  12.430
85359W        W50179  28.446  34.119   2.642
85360W        W50180   9.921  40.329  10.785
85361W        W50181  27.959   7.398  12.139
85362W        W50182  36.325  10.301   0.913
85363W        W50183  34.937  35.348  13.422
85364W        W50184  32.629  37.729   4.157
85365W        W50185  16.371   4.434   4.442
85366W        W50186  37.817  15.219  11.186
85367W        W50187  28.594  20.052  14.977
85368W        W50188  26.538   8.585   4.764
85369W        W50189  10.132  19.216   0.406
85370W        W50190  33.533  22.266   4.567
85371W        W50191  17.109  11.918  12.538
85372W        W50192  26.303  10.602   3.155
85373W        W50193  25.578   2.887  11.963
85374W        W50194  33.810   9.504   5.134
85375W        W50195  14.729  33.920  10.655
85376W        W50196  12.278  15.781  14.955
85377W        W50197  18.108  35.917  12.169
85378W        W50198  31.151  44.531  14.349
85379W        W50199  10.766   7.344   2.119
85380W        W50200  16.164  41.466   0.494
85381W        W50201  31.432  12.777   1.306
85382W        W50202  40.407  13.812  13.130
85383W        W50203  14.014  34.396   2.264
85384W        W50204  24.211  34.925  11.951
85385W        W50205  13.724  37.540  11.159
85386W        W50206  27.090  31.731  12.098
85387W        W50207   2.499  18.255   3.063
85388W        W50208   2.202  25.949  13.983
85389W        W50209  13.285  21.196  10.509
85390W        W50210  29.326   0.474   0.411
85391W        W50211  10.230  12.862  12.845
85392W        W50212  24.487  17.777   1.842
85393W        W50213  37.603   6.877   3.353
85394W        W50214   7.410  44.963  12.385
85395W        W50215   7.440  17.403  13.352
85396W        W50216  22.987  30.383   3.719
85397W        W50217   1.515  33.169  12.963
85398W        W50218  23.108  41.370  14.559
85399W        W50219  38.857  14.779   0.106
85400W        W50220  20.162   1.445  14.473
85401W        W50221   3.161  22.943   3.178
85402W        W50222   3.921  40.856  12.051
85403W        W50223  37.423   3.056   2.352
85404W        W50224  22.353  38.941   4.710
85405W        W50225   2.320  26.265  11.141
85406W        W50226  26.657  44.304   2.332
85407W        W50227  39.457   0.851   3.155
85408W        W50228   0.324  18.148  14.087
85409W        W50229   0.545  43.065   4.991
85410W        W50230  25.027  34.456   5.526
85411W        W50231  15.252  29.005   4.968
85412W        W50232  11.555  39.691  12.201
85413W        W50233  37.308   2.377   0.008
85414W        W50234  38.578   0.831   4.337
85415W        W50235  39.007   3.028   3.901
85416W        W50236   0.763  22.137  11.554
85417W        W50237  38.986  12.194  10.617
85418W        W50238  32.127  25.172  14.737
85419W        W50239  36.354  20.115  11.405
85420W        W50240  13.737  16.965  12.317
85421W        W50241   2.752   2.991  11.222
85422W        W50242  38.139  17.119   0.481
85423W        W50243  40.273  28.587  13.342
85424W        W50244   3.176  32.493   0.443
85425W        W50245  13.905  12.740  10.649
85426W        W50246  17.357  29.522   2.472
85427W        W50247   4.214   0.635  14.804
85428W        W50248   7.676   9.986   3.682
85429W        W50249  36.004  34.284   1.307
85430W        W50250  39.517  37.867  12.028
85431W        W50251  35.068  28.115  13.917
85432W        W50252  36.623   2.900  12.165
85433W        W50253   8.443   9.036   0.858
85434W        W50254  11.714  24.503   0.193
85435W        W50255   3.083  17.979   1.437
85436W        W50256  22.808  32.480   4.149
85437W        W50257  40.845  34.872   3.805
85438W        W50258  12.757  13.153  13.849
85439W        W50259   9.888   4.226   4.684
85440W        W50260   8.318  40.025  11.644
85441W        W50261  24.096  35.956  10.726
85442W        W50262  36.554   1.062  13.968
85443W        W50263  30.258  33.945  11.534
85444W        W50264  37.171  17.256   3.652
85445W        W50265  26.954  43.443   3.782
85446W        W50266  27.714  41.328   4.640
85447W        W50267  26.542   1.699  14.258
85448W        W50268  34.854   6.665   2.779
85449W        W50269  19.475  31.321   0.872
85450W        W50270  39.155  19.489   1.267
85451W        W50271  40.681  33.385  13.323
85452W        W50272   2.277  10.102   1.785
85453W        W50273   7.384  33.155   0.273
85454W        W50274  16.074   7.440   1.126
85455W        W50275  22.099  36.102  13.188
85456W        W50276  11.931  28.468  11.233
85457W        W50277  16.716  21.469   1.834
85458W        W50278  39.848   7.302   3.643
85459W        W50279   8.035   0.298   4.499
85460W        W50280   8.409  13.103  12.413
85461W        W50281  18.653  41.457  12.173
85462W        W50282  37.467  21.132   0.485
85463W        W50283   4.777  44.109   3.691
85464W        W50284  34.836  16.229   1.359
85465W        W50285  43.205  41.762   2.493
85466W        W50286  22.000  21.754   5.004
85467W        W50287  10.649   7.301   3.643
85468W        W50288  25.485  43.274  14.379
85469W        W50289  12.818   5.845   1.688
85470W        W50290  17.764  22.017  12.451
85471W        W50291  18.222  37.132   1.502
85472W        W50292  24.654  10.101   3.292
85473W        W50293  40.551  33.303   4.731
85474W        W50294  22.539  20.178  14.545
85475W        W50295  34.997  21.267  10.616
85476W        W50296   3.518   9.610  10.228
85477W        W50297  31.231  10.290   0.201
85478W        W50298  27.405  40.992  11.588
85479W        W50299  23.753  12.569   2.690
85480W        W50300  28.820  33.095   0.473
85481W        W50301   1.946  44.709   3.143
85482W        W50302   8.200  35.069   4.106
85483W        W50303  37.151  39.076  10.607
85484W        W50304   6.247  26.126   3.846
85485W        W50305  39.939  32.925   1.373
85486W        W50306  24.699  44.280  14.948
85487W        W50307   6.534  11.700   0.497
85488W        W50308  37.089  19.579   4.119
85489W        W50309  44.011   0.910  11.605
85490W        W50310  40.309  19.990  12.993
85491W        W50311  35.898  32.816   1.588
85492W        W50312  20.015  44.420   4.556
85493W        W50313  20.095  30.175  13.436
85494W        W50314  37.404  33.500  12.024
85495W        W50315  35.652  27.118   5.030
85496W        W50316  32.064   1.374  14.381
85497W        W50317  12.244  27.195  12.067
85498W        W50318  15.493  21.252   5.033
85499W        W50319  25.295   1.872  14.451
85500W        W50320  18.548  30.552   0.291
85501W        W50321  26.220  13.310   2.916
85502W        W50322  13.686   0.871   0.228
85503W        W50323  40.993  19.992   1.417
85504W        W50324   4.578  25.548  13.434
85505W        W50325   2.080   1.511   2.965
85506W        W50326   6.672   1.974  14.257
85507W        W50327  23.169  24.730  13.295
85508W        W50328   3.293   5.159   4.274
85509W        W50329  17.270  20.963  13.775
85510W        W50330   7.095  42.298   4.109
85511W        W50331  28.476  11.992  15.000
85512W        W50332   1.421  27.395   3.351
85513W        W50333  19.291   8.699  12.324
85514W        W50334  42.721  15.679  10.021
85515W        W50335  33.844  39.794  13.454
85516W        W50336   0.551   8.429  13.565
85517W        W50337   0.333  20.813  11.687
85518W        W50338   0.402   8.440   0.728
85519W        W50339  16.308   8.208  13.315
85520W        W50340  42.368  13.173   0.880
85521W        W50341  37.253  30.618  12.041
85522W        W50342  27.458  43.297   1.051
85523W        W50343  16.006  14.851   0.733
85524W        W50344   2.821  30.213  11.148
85525W        W50345  27.363  16.623  14.714
85526W        W50346  26.090  17.440  10.155
85527W        W50347  13.351  20.619   0.048
85528W        W50348  33.569   4.475   3.755
85529W        W50349  11.351  24.150  13.475
85530W        W50350  38.367  28.587   3.107
85531W        W50351  17.685   1.336  13.761
85532W        W50352  39.262  28.315   4.239
85533W        W50353  26.734  42.004   0.625
85534W        W50354  19.653  33.408   3.829
85535W        W50355  31.827  18.814   2.562
85536W        W50356  29.726  44.221   1.227
85537W        W50357   4.257  35.945  12.540
85538W        W50358  11.561   5.230   2.902
85539W        W50359  33.443  35.757  12.613
85540W        W50360  26.597  33.896   2.402
85541W        W50361   3.906  10.671  12.475
85542W        W50362  25.792  38.583   2.402
85543W        W50363  30.433  23.532  12.481
85544W        W50364  21.408  30.333  10.645
85545W        W50365  29.594  32.554   0.076
85546W        W50366   0.824  41.564   0.936
85547W        W50367   9.751   3.935  13.467
85548W        W50368  39.157  18.027   3.769
85549W        W50369  17.652  40.522  12.476
85550W        W50370  16.342  42.352  11.052
85551W        W50371  19.566  14.260   1.652
85552W        W50372  18.511  42.486   2.760
85553W        W50373   1.566  28.998  13.880
85554W        W50374   9.576  25.670   3.715
85555W        W50375  21.112  38.040  13.875
85556W        W50376  38.498   3.292  13.463
85557W        W50377  29.798   4.741  14.381
85558W        W50378  21.375  34.102  10.908
85559W        W50379   6.262  12.322   2.182
85560W        W50380   1.517  38.066  12.410
85561W        W50381  38.885  22.840  11.369
85562W        W50382  25.382  23.393   4.617
85563W        W50383  41.957  32.476   2.286
85564W        W50384   1.464   2.483   2.359
85565W        W50385   8.699  22.400  14.368
85566W        W50386  11.300  38.751  12.948
85567W        W50387  12.311  27.871  12.462
85568W        W50388  15.740  20.583   2.738
85569W        W50389  26.469   4.171   2.337
85570W        W50390  29.448  41.447  13.539
85571W        W50391  28.898  22.090   2.231
85572W        W50392  15.573  37.799   0.909
85573W        W50393  16.778  20.999  11.567
85574W        W50394  22.498  19.141   2.415
85575W        W50395  20.457  36.815   2.330
85576W        W50396  44.519  34.159  10.647
85577W        W50397  23.701  43.429   1.255
85578W        W50398  19.614  30.493  10.724
85579W        W50399  15.208  38.438  10.986
85580W        W50400   6.216  19.238  14.786
85581W        W50401  40.750   7.290  12.386
85582W        W50402  10.197  29.235   1.043
85583W        W50403  35.051   3.033   0.817
85584W        W50404  32.349  39.321  11.187
85585W        W50405  10.638  40.021   1.964
85586W        W50406   6.786  12.392  13.959
85587W        W50407  29.390  16.678   4.566
85588W        W50408   3.357   2.428  14.467
85589W        W50409  24.571  33.466   1.321
85590W        W50410   9.131  27.017   2.185
85591W        W50411   8.224  33.572  12.655
85592W        W50412  43.142  20.137  11.638
85593W        W50413  34.886  36.087   1.219
85594W        W50414  16.368  10.930   4.713
85595W        W50415  42.350  34.994  12.420
85596W        W50416  39.477  42.319   1.833
85597W        W50417  31.094   1.154  14.388
85598W        W50418  21.470   7.370  14.412
85599W        W50419  37.094  13.577  11.576
85600W        W50420  41.313  38.695   4.191
85601W        W50421  23.678  16.064  14.875
85602W        W50422  30.582  31.663   2.660
85603W        W50423  16.980  37.097  12.007
85604W        W50424  31.444   1.274   2.763
85605W        W50425  37.614   4.793   2.155
85606W        W50426  23.821   9.103  10.835
85607W        W50427   0.422  31.558   0.773
85608W        W50428  19.012  25.373   4.294
85609W        W50429  13.636   4.214   3.317
85610W        W50430  22.989  12.712   0.239
85611W        W50431  31.995  10.140  11.568
85612W        W50432  41.396  10.093   4.172
85613W        W50433  43.218  28.193   1.778
85614W        W50434  15.842  31.529  10.617
85615W        W50435  20.208   5.226   4.732
85616W        W50436  22.552  40.498   4.594
85617W        W50437  38.056  35.100  13.352
85618W        W50438  30.717  11.742   3.116
85619W        W50439   5.676  21.720  14.553
85620W        W50440  16.117  19.233  14.951
85621W        W50441  15.643   7.703   1.196
85622W        W50442   0.589  15.233  11.446
85623W        W50443  33.174  31.083   4.137
85624W        W50444  36.327   6.317   3.184
85625W        W50445  27.656  29.498   3.672
85626W        W50446   3.601  22.106  14.705
85627W        W50447  44.485  20.663   2.749
85628W        W50448  25.083   4.727   2.093
85629W        W50449  20.275  22.677  13.298
85630W        W50450  13.651  29.410   1.377
85631W        W50451   3.226   7.201   1.268
85632W        W50452  29.019  15.254  12.801
85633W        W50453   7.404   9.945   4.137
85634W        W50454  32.450  17.864   4.057
85635W        W50455  26.714  34.798   3.908
85636W        W50456   6.716   0.364  14.519
85637W        W50457  20.257  42.311  11.029
85638W        W50458  26.671  14.645   2.583
85639W        W50459  38.756   3.245  11.130
85640W        W50460  23.718  18.487  12.648
85641W        W50461  23.025   5.691   4.636
85642W        W50462  12.669  18.562   4.144
85643W        W50463   0.801  32.901   2.842
85644W        W50464  19.357  10.931   2.704
85645W        W50465  21.069   0.729   1.354
85646W        W50466  34.028  17.920   4.952
85647W        W50467  31.248  20.169  12.105
85648W        W50468   2.475   8.832   3.644
85649W        W50469  18.300  12.277  10.798
85650W        W50470  35.686  29.515   4.877
85651W        W50471   3.981  18.995   4.867
85652W        W50472  44.485  28.455   0.713
85653W        W50473  20.502  20.744  12.364
85654W        W50474   6.239  28.722  11.346
85655W        W50475   3.211  42.572  11.684
85656W        W50476  36.885  13.804  11.105
85657W        W50477  39.604  10.381  13.030
85658W        W50478  26.622  26.984  13.175
85659W        W50479  23.102  19.753   3.688
85660W        W50480  23.109  29.286   4.566
85661W        W50481  28.440   9.780   1.411
85662W        W50482  35.779  30.635   0.776
85663W        W50483   4.091  34.958   1.850
85664W        W50484   2.286   0.374  13.631
85665W        W50485  15.543  13.384  10.898
85666W        W50486  12.146  18.372   4.070
85667W        W50487  29.972  41.619   1.753
85668W        W50488  29.730  18.220  10.750
85669W        W50489  38.917  41.791   4.936
85670W        W50490  36.857  29.450  14.438
85671W        W50491  41.907  19.215   0.475
85672W        W50492  36.540  19.501  10.694
85673W        W50493  43.069   6.008  13.018
85674W        W50494   2.806   8.157  10.672
85675W        W50495  36.935  32.550   3.846
85676W        W50496   2.766  18.199   0.813
85677W        W50497   9.324   2.414   1.544
85678W        W50498   7.148  36.544   1.164
85679W        W50499  24.541  33.685   5.038
85680W        W50500  43.459  15.594   1.449
85681W        W50501  38.760  42.784  10.075
85682W        W50502  40.077  27.858   4.901
85683W        W50503  21.739  14.589   3.614
85684W        W50504   2.277  33.634   3.170
85685W        W50505   8.802  30.491   4.275
85686W        W50506  43.329   2.747   2.648
85687W        W50507   1.962  25.975   0.206
85688W        W50508   5.342   8.171  14.322
85689W        W50509  16.283   7.635  14.726
85690W        W50510  24.362  11.312   5.394
85691W        W50511  31.743  28.927   3.369
85692W        W50512   1.771  30.488   4.748
85693W        W50513  14.809   3.254  14.690
85694W        W50514   8.100  16.084  11.202
85695W        W50515  41.528  15.640   0.802
85696W        W50516  37.580  11.220   1.240
85697W        W50517  33.414  34.112   1.500
85698W        W50518  43.375   5.262   4.669
85699W        W50519   4.245  32.111   0.311
85700W        W50520  31.550  37.990   2.252
85701W        W50521  24.456  34.709  11.192
85702W        W50522  38.931   2.925   1.970
85703W        W50523  40.294  39.912   0.023
85704W        W50524  28.001  44.128  12.039
85705W        W50525   1.466  26.559   3.424
85706W        W50526  19.115  32.051   1.469
85707W        W50527  15.189  20.098  14.740
85708W        W50528  37.492   2.262   3.281
85709W        W50529  20.348  36.569   0.331
85710W        W50530  24.409  23.481  14.054
85711W        W50531  18.289  35.632   3.153
85712W        W50532  15.577  32.986  12.710
85713W        W50533  39.366   0.300  14.932
85714W        W50534  17.594  29.887   0.973
85715W        W50535  17.814  13.105   4.480
85716W        W50536  22.237  16.287   0.398
85717W        W50537  28.157  41.492  13.974
85718W        W50538  23.931  39.218   0.706
85719W        W50539  42.008  37.973   4.315
85720W        W50540  33.155  25.914  11.526
85721W        W50541  38.006  18.712   0.323
85722W        W50542  43.873  34.630  11.209
85723W        W50543  38.616  31.209   3.759
85724W        W50544  21.295  37.938  12.434
85725W        W50545  44.684  29.959   3.076
85726W        W50546  30.513  20.642   0.478
85727W        W50547  34.401  19.894  14.278
85728W        W50548  21.535  17.112   2.082
85729W        W50549  36.785  27.863   0.330
85730W        W50550  11.802  44.844  14.516
85731W        W50551  12.124  44.917  11.992
85732W        W50552   9.360  25.346   2.736
85733W        W50553  10.190  31.089   3.862
85734W        W50554  27.247  25.769  12.359
85735W        W50555  24.548  15.240   1.775
85736W        W50556  22.577  19.285   1.186
85737W        W50557  30.922  19.796  11.618
85738W        W50558  43.349  31.401   2.696
85739W        W50559   9.339  12.332   0.253
85740W        W50560   5.724   8.131  12.875
85741W        W50561   9.762  37.311  14.144
85742W        W50562  21.981  39.364   0.006
85743W        W50563  35.289  37.552  11.120
85744W        W50564   9.754  34.864  14.915
85745W        W50565   6.351   6.511   1.723
85746W        W50566  32.755  10.101  11.088
85747W        W50567   2.443  11.122  11.888
85748W        W50568  16.070  13.697   3.312
85749W        W50569  20.719  17.125   3.645
85750W        W50570  44.261   8.886  10.155
85751W        W50571  13.670  41.977   2.873
85752W        W50572  34.322   0.862   0.073
85753W        W50573  15.067  18.499   0.848
85754W        W50574   0.097  39.056   1.539
85755W        W50575  15.354  35.210  14.482
85756W        W50576   1.600  11.744   4.783
85757W        W50577   6.828  16.418  13.335
85758W        W50578  42.463  25.490  12.418
85759W        W50579   3.147  22.958   2.247
85760W        W50580  29.089  17.816  14.007
85761W        W50581   4.424  20.224   2.872
85762W        W50582   6.014  38.851   5.057
85763W        W50583   3.110  11.433   0.118
85764W        W50584  37.574  32.149   3.234
85765W        W50585  19.796  42.372   2.390
85766W        W50586  32.269   4.221  13.355
85767W        W50587   5.458  35.449  10.676
85768W        W50588  39.005  37.243   0.876
85769W        W50589   4.728  11.820   3.132
85770W        W50590  32.928   3.967   4.178
85771W        W50591  32.651  34.315   0.768
85772W        W50592  19.732  22.218   3.262
85773W        W50593  20.644  21.135  14.832
85774W        W50594  19.085  27.419  13.403
85775W        W50595  34.946  39.799   3.223
85776W        W50596   1.738  36.476   1.492
85777W        W50597  22.497  38.657  14.832
85778W        W50598  38.569  31.453  11.956
85779W        W50599  43.794  30.318  11.639
85780W        W50600  28.958  19.653   3.243
85781W        W50601  27.111  43.420   0.346
85782W        W50602  18.982  23.663  13.932
85783W        W50603  20.038  30.156   1.361
85784W        W50604   1.322  38.548  14.001
85785W        W50605   8.658  24.978  14.846
85786W        W50606  19.466  14.125   3.263
85787W        W50607  22.564  35.324  10.245
85788W        W50608  18.189  22.741  10.686
85789W        W50609  32.967  21.977  11.480
85790W        W50610  22.117  25.008  11.519
85791W        W50611  38.937  43.747  12.581
85792W        W50612  34.382  31.727  10.721
85793W        W50613  10.926  22.474  13.979
85794W        W50614   2.381  39.725   3.114
85795W        W50615  20.622   4.576  12.002
85796W        W50616  42.777  13.091   3.248
85797W        W50617  26.970  11.613   4.230
85798W        W50618   5.818  43.093  12.033
85799W        W50619   5.571  34.587   4.745
85800W        W50620  16.152  16.359  14.477
85801W        W50621  37.064  12.026   1.465
85802W        W50622  26.919  24.946  13.486
85803W        W50623  39.360  32.557  13.539
85804W        W50624   5.261  32.024   0.506
85805W        W50625  19.807   7.981  10.698
85806W        W50626   3.925   1.176  13.507
85807W        W50627   3.968  13.522  12.541
85808W        W50628   6.680   0.955   1.732
85809W        W50629   9.384   7.815   0.268
85810W        W50630  31.444  24.103  14.810
85811W        W50631  40.706  40.733  14.753
85812W        W50632   0.946  38.349   2.656
85813W        W50633  22.500   8.184   4.062
85814W        W50634  30.171  21.955   1.800
85815W        W50635  37.721  11.934  11.036
85816W        W50636  31.338  10.225   2.304
85817W        W50637  34.721  43.262  11.145
85818W        W50638  33.202  23.147  11.513
85819W        W50639  28.514  44.808   4.496
85820W        W50640  17.562   7.258   1.728
85821W        W50641  16.097  20.749   3.135
85822W        W50642  40.171  27.566  14.877
85823W        W50643  44.742  38.585   0.460
85824W        W50644  10.787  22.530  11.885
85825W        W50645  33.149   4.429  14.438
85826W        W50646  28.129  20.593   9.767
85827W        W50647  34.917   0.335  13.508
85828W        W50648  26.143  39.789  10.692
85829W        W50649  39.610  36.398   3.427
85830W        W50650   2.217   9.822   4.424
85831W        W50651  44.890  25.115  14.465
85832W        W50652  14.594  11.431  11.507
85833W        W50653   8.182  38.545   4.589
85834W        W50654  41.903  13.721  14.240
85835W        W50655  42.693  19.935  11.761
85836W        W50656  22.583  13.531   0.840
85837W        W50657  13.852  22.808   4.183
85838W        W50658  21.480  32.659   0.448
85839W        W50659  26.793  25.939  14.601
85840W        W50660  37.086  32.079   1.647
85841W        W50661  23.248   3.332  11.872
85842W        W50662  42.339  11.635  12.442
85843W        W50663  28.759  24.039   3.184
85844W        W50664  36.917  18.888  13.101
85845W        W50665   9.166  15.267   2.925
85846W        W50666  18.355   3.869  11.549
85847W        W50667   9.726  17.758  12.433
85848W        W50668  42.025   6.717   4.149
85849W        W50669  16.838  20.823  12.867
85850W        W50670  41.604  10.224  10.265
85851W        W50671  43.238  21.617  11.883
85852W        W50672  24.671   0.975   4.568
85853W        W50673   2.533  33.975   4.134
85854W        W50674  21.175  13.853   2.264
85855W        W50675  44.031  42.843   5.048
85856W        W50676   7.372   4.771   4.612
85857W        W50677  27.681   2.199  13.573
85858W        W50678  43.304  38.889   3.212
85859W        W50679   7.818  13.701  11.079
85860W        W50680  33.996  13.353  13.088
85861W        W50681   4.927  27.078  12.820
85862W        W50682   1.370  34.011   2.233
85863W        W50683  32.602  20.708  13.984
85864W        W50684   2.288   6.229  14.319
85865W        W50685  31.926   9.207   3.209
85866W        W50686  15.844   7.118  10.816
85867W        W50687   4.923  30.438  10.739
85868W        W50688  32.007  41.524   0.866
85869W        W50689   7.218   2.269  11.548
85870W        W50690  11.208  30.871  14.969
85871W        W50691  30.709  12.240   4.853
85872W        W50692   3.505  12.317  11.606
85873W        W50693  19.852  37.063   9.771
85874W        W50694  12.809  32.340   0.865
85875W        W50695  38.653  20.140   2.189
85876W        W50696  42.319   6.748  12.006
85877W        W50697  34.013  32.441   0.980
85878W        W50698  33.579   0.192   1.489
85879W        W50699  33.672   7.107  12.591
85880W        W50700   3.214  24.654   3.643
85881W        W50701  12.252  32.201  11.107
85882W        W50702  42.092   9.285   3.277
85883W        W50703  27.173  38.542  12.773
85884W        W50704  30.374  24.123   2.053
85885W        W50705   4.817  27.054  13.319
85886W        W50706   1.098  43.115  11.616
85887W        W50707  37.479  13.105   3.731
85888W        W50708  13.241   8.246  12.045
85889W        W50709  31.529   4.009   1.796
85890W        W50710  40.809  35.443   2.463
85891W        W50711  23.651   7.183   1.825
85892W        W50712  34.347   3.566   1.301
85893W        W50713  39.648   7.237  14.015
85894W        W50714  38.413  12.098   3.598
85895W        W50715  16.168   0.931  12.503
85896W        W50716  34.450  14.558  14.075
85897W        W50717  20.289  36.469  11.675
85898W        W50718  19.233  34.359   3.697
85899W        W50719   6.482  30.624  14.911
85900W        W50720  35.610  12.611  11.607
85901W        W50721  20.790  42.574   3.375
85902W        W50722  34.353  10.282   5.007
85903W        W50723  10.936  35.607  12.872
85904W        W50724  19.790  33.410  13.093
85905W        W50725  26.941   4.759  10.103
85906W        W50726  30.991   7.620   1.974
85907W        W50727  31.395  21.875   0.925
85908W        W50728  21.502  21.530   4.994
85909W        W50729  34.838  12.754   4.524
85910W        W50730  29.798  43.889  10.580
85911W        W50731  36.664  20.270  13.419
85912W        W50732   7.557  29.953   0.949
85913W        W50733  18.532  18.053   3.678
85914W        W50734   7.285   4.416   1.020
85915W        W50735  22.943   4.735  13.483
85916W        W50736  39.116  19.632  13.473
85917W        W50737  14.846  18.437  11.147
85918W        W50738  18.773  30.534   0.992
85919W        W50739   5.377  22.625   3.750
85920W        W50740   9.065  35.535   4.678
85921W        W50741  43.464   7.898  11.207
85922W        W50742  13.035  35.815   0.854
85923W        W50743  22.717   8.745  14.865
85924W        W50744  32.951   2.391  13.381
85925W        W50745  11.818   4.895  14.770
85926W        W50746  32.111  26.616  12.874
85927W        W50747  28.276  16.228  11.423
85928W        W50748  16.691  23.238   2.419
85929W        W50749  36.944   0.560  13.493
85930W        W50750  42.847  29.858   4.602
85931W        W50751   3.187  16.643   0.841
85932W        W50752  40.850  33.384   1.138
85933W        W50753  42.670  13.620   0.861
85934W        W50754  22.181  17.349   0.891
85935W        W50755   6.404  43.494  12.858
85936W        W50756  38.463  32.344   9.931
85937W        W50757   2.780   4.262   1.672
85938W        W50758  26.575  32.558   1.141
85939W        W50759  40.479  24.521   1.410
85940W        W50760  21.341  12.807  11.456
85941W        W50761  11.833   6.663   1.687
85942W        W50762  35.916  12.684  12.033
85943W        W50763  21.616  11.786   3.150
85944W        W50764  17.790  34.327  14.313
85945W        W50765  42.875  11.125  11.939
85946W        W50766  26.476   5.410   0.064
85947W        W50767  15.726  16.780   1.335
85948W        W50768   6.430  37.970  14.408
85949W        W50769  13.908  39.779   3.392
85950W        W50770  19.087   9.894   3.524
85951W        W50771  23.288   4.396   2.797
85952W        W50772   8.582  27.576   2.708
85953W        W50773  33.530  17.338   0.755
85954W        W50774  14.321   8.862   0.478
85955W        W50775  26.899  41.867   3.988
85956W        W50776  30.097  15.800   4.640
85957W        W50777  38.391  15.185   3.373
85958W        W50778  41.158  16.594   2.669
85959W        W50779  42.264  15.805   1.838
85960W        W50780  39.823  22.703   2.837
85961W        W50781  15.310  12.653   3.551
85962W        W50782  44.988  34.014   4.069
85963W        W50783  24.008   9.167  14.929
85964W        W50784   9.705  35.264   1.423
85965W        W50785  34.393   6.164   4.692
85966W        W50786  19.616  25.253  12.525
85967W        W50787   7.861  17.178   3.548
85968W        W50788   9.964  33.998  14.926
85969W        W50789  26.698  28.126   1.832
85970W        W50790  39.119  23.949   4.154
85971W        W50791   8.460   4.286  11.226
85972W        W50792  41.561  23.744  10.759
85973W        W50793  28.387  24.452   2.788
85974W        W50794  40.019  30.541  10.771
85975W        W50795  30.882  22.586  12.467
85976W        W50796  20.712  25.638  11.679
85977W        W50797   1.409   6.769  12.837
85978W        W50798  21.879  34.946  12.014
85979W        W50799  33.784  39.747  11.591
85980W        W50800  29.649   9.721  14.807
85981W        W50801  43.700  24.573   1.336
85982W        W50802  35.295  27.200  11.789
85983W        W50803  41.787   3.356   0.892
85984W        W50804  31.141  21.609  12.332
85985W        W50805  38.042  16.097   4.419
85986W        W50806  35.968   3.660   4.266
85987W        W50807  22.510  14.182  12.137
85988W        W50808  22.738  38.279   3.202
85989W        W50809  28.398  16.809   1.869
85990W        W50810  30.039  31.465   1.367
85991W        W50811  19.944  23.872  13.392
85992W        W50812   3.267  14.090   2.595
85993W        W50813  30.794  38.988  13.555
85994W        W50814  37.894  11.405   2.652
85995W        W50815  41.364  22.962   0.032
85996W        W50816  16.998  28.566  12.915
85997W        W50817  44.344   4.014   3.340
85998W        W50818  35.384  15.085  13.918
85999W        W50819  44.235  24.087  11.441
86000W        W50820  23.778  21.353  13.468
86001W        W50821  34.311   7.149  11.936
86002W        W50822  17.498  40.388   4.328
86003W        W50823   2.432  17.052   2.886
86004W        W50824  32.488  11.161   3.589
86005W        W50825  23.165   6.858  14.926
86006W        W50826  40.253  35.986   2.984
86007W        W50827   8.273  19.508   4.676
86008W        W50828  36.764  22.108   2.505
86009W        W50829  22.681  12.691  10.274
86010W        W50830  18.797  15.720  13.923
86011W        W50831   6.432  21.525  12.896
86012W        W50832  41.051  26.015  11.967
86013W        W50833  44.353   6.953  14.991
86014W        W50834  17.524  20.303   3.578
86015W        W50835  38.823  20.690   4.614
86016W        W50836  44.897   5.876   1.389
86017W        W50837  42.839   7.888   2.787
86018W        W50838  28.921  39.105   3.713
86019W        W50839   1.879  40.570   2.095
86020W        W50840  41.405  23.304  13.005
86021W        W50841  13.420  36.932   0.261
86022W        W50842  27.017  31.877   3.665
86023W        W50843   1.368  40.772  14.300
86024W        W50844  13.546  27.227  13.390
86025W        W50845  25.419  43.363   3.965
86026W        W50846  14.630  34.922   1.973
86027W        W50847  12.650  10.434  11.370
86028W        W50848  17.765  20.502  12.031
86029W        W50849  32.996   4.759  12.998
86030W        W50850   2.848   4.575   2.621
86031W        W50851   5.305  36.899   0.740
86032W        W50852  19.486  26.521  11.788
86033W        W50853  23.803  27.140   0.424
86034W        W50854   5.163  37.009  14.753
86035W        W50855  28.990  17.653   3.820
86036W        W50856  25.452  28.939   4.525
86037W        W50857  32.390   7.665  12.616
86038W        W50858   6.901  26.156  11.748
86039W        W50859  26.226  35.382  13.020
86040W        W50860  23.894  44.716  14.985
86041W        W50861  14.865  30.578  11.740
86042W        W50862  25.769   5.302  14.295
86043W        W50863  11.221  14.755   9.818
86044W        W50864  24.740  16.489  12.006
86045W        W50865   6.754  28.668  13.436
86046W        W50866   1.424  28.854   3.652
86047W        W50867  26.937  33.634   9.821
86048W        W50868  17.258  22.033   0.486
86049W        W50869   7.631   3.531   9.712
86050W        W50870  35.020  25.996   4.117
86051W        W50871   2.727  13.073  12.500
86052W        W50872  37.572  38.170   2.631
86053W        W50873  10.363  42.716   4.837
86054W        W50874  17.554  32.080   4.241
86055W        W50875  29.162  28.510  11.185
86056W        W50876  18.064  21.394  12.175
86057W        W50877  11.581  14.242  11.159
86058W        W50878  36.574  28.172  14.262
86059W        W50879   4.323  21.169  11.211
86060W        W50880  18.122  16.569   1.696
86061W        W50881  42.499   7.418   4.870
86062W        W50882  26.955  25.497  14.145
86063W        W50883  16.831   0.533  10.647
86064W        W50884   9.728  10.936  11.960
86065W        W50885  32.167  30.610  10.706
86066W        W50886  26.511  39.560  12.374
86067W        W50887  12.176  16.838  11.054
86068W        W50888  43.417  16.828   0.354
86069W        W50889  30.227  24.502  10.717
86070W        W50890  44.846  20.737   0.845
86071W        W50891  33.507  30.044   1.079
86072W        W50892  15.798  22.051   3.858
86073W        W50893  16.281  44.695  14.468
86074W        W50894  23.263  22.136  11.787
86075W        W50895  19.310   9.225  14.386
86076W        W50896  26.197  41.469   3.146
86077W        W50897  25.006  21.475   3.767
86078W        W50898  17.582   8.522  13.431
86079W        W50899   8.012  29.459  14.746
86080W        W50900  14.351  22.726   4.160
86081W        W50901   0.281   8.419  14.799
86082W        W50902  37.813  40.604  10.194
86083W        W50903  17.648  25.479   1.143
86084W        W50904   3.481  16.150  10.755
86085W        W50905  12.677  28.598  10.666
86086W        W50906  11.149   7.987   2.607
86087W        W50907  41.069  12.239  12.815
86088W        W50908  24.511  39.354  12.525
86089W        W50909  30.173  28.150   2.234
86090W        W50910  16.613  25.130   1.541
86091W        W50911  32.439  25.618  13.543
86092W        W50912  34.116  35.178  12.885
86093W        W50913  33.039   3.192  12.308
86094W        W50914  10.816  32.676   3.007
86095W        W50915  44.787  29.645  14.545
86096W        W50916   5.179  38.958   4.861
86097W        W50917   4.718   4.205   2.355
86098W        W50918  25.489  31.996  14.836
86099W        W50919  14.370  32.626  10.869
86100W        W50920  11.992  24.507   3.345
86101W        W50921  28.986  36.899   0.881
86102W        W50922  11.206  43.263  13.045
86103W        W50923  23.469  27.149  11.732
86104W        W50924  37.543   0.344   2.290
86105W        W50925  21.893  17.628   0.214
86106W        W50926   3.515  14.216   2.151
86107W        W50927  21.725  41.295   0.358
86108W        W50928  16.046  18.407   0.243
86109W        W50929  36.557  25.509   3.293
86110W        W50930   2.119  43.046  12.113
86111W        W50931   1.920  15.595  12.924
86112W        W50932  20.331  24.753  14.939
86113W        W50933  16.267  15.382  13.114
86114W        W50934   5.554  32.388  14.879
86115W        W50935  28.638   0.703  12.576
86116W        W50936  33.499  27.949  12.099
86117W        W50937  44.240  44.453   0.288
86118W        W50938   1.849  22.755   1.830
86119W        W50939  28.543  17.046  14.044
86120W        W50940  32.900   2.796  13.039
86121W        W50941  13.793  25.906  12.330
86122W        W50942   0.979  30.869   1.852
86123W        W50943  19.308  39.931  12.652
86124W        W50944  43.931   1.669   3.255
86125W        W50945  38.316  16.217  14.430
86126W        W50946  23.988  24.923  14.297
86127W        W50947   0.702  37.424  11.161
86128W        W50948   1.175  37.950  13.341
86129W        W50949  25.757  38.374   4.108
86130W        W50950  26.798  38.956   1.626
86131W        W50951  34.740  34.496   2.566
86132W        W50952  17.419  44.598   1.199
86133W        W50953   9.861  28.560   0.719
86134W        W50954   6.949  31.031  12.883
86135W        W50955   8.353  33.842   0.952
86136W        W50956  22.067  44.460  14.745
86137W        W50957   7.261  13.409  11.130
86138W        W50958  32.988  27.176   2.575
86139W        W50959  11.063  20.249   1.232
86140W        W50960  34.028  14.738   4.015
86141W        W50961  33.039   6.695   0.589
86142W        W50962  28.425  15.850  10.586
86143W        W50963  42.860  17.088   1.536
86144W        W50964  11.245   4.394   1.354
86145W        W50965  38.112  44.516  13.097
86146W        W50966  17.286  20.239   1.674
86147W        W50967  31.780  24.626  12.609
86148W        W50968   7.562  43.050  10.294
86149W        W50969  41.058  15.564  11.133
86150W        W50970  42.049  40.314   4.688
86151W        W50971  31.189  14.186   2.589
86152W        W50972  15.498  24.056   3.963
86153W        W50973  15.372  31.572  11.544
86154W        W50974  24.652  12.742  10.667
86155W        W50975  34.115  40.048  14.376
86156W        W50976   9.766   3.439  10.490
86157W        W50977  18.545  40.292   0.845
86158W        W50978  33.108  40.471   0.906
86159W        W50979  27.171  11.707  11.231
86160W        W50980  40.868  41.390   2.028
86161W        W50981  25.149  39.757  13.877
86162W        W50982  40.517  24.276   2.262
86163W        W50983  14.069  31.988   0.796
86164W        W50984  42.639  16.647  10.533
86165W        W50985  37.523  38.851   4.174
86166W        W50986   6.089  11.725   4.247
86167W        W50987  25.917  24.094  10.084
86168W        W50988  43.786   3.317  11.618
86169W        W50989  21.866   0.430  13.383
86170W        W50990  11.342  22.183  11.263
86171W        W50991  29.132   1.943  12.958
86172W        W50992  34.351  34.277   1.846
86173W        W50993  32.065  10.754   5.169
86174W        W50994  28.156  18.736   2.083
86175W        W50995  17.091   8.263   0.260
86176W        W50996  27.949  39.523  13.115
86177W        W50997  23.716   6.373   2.876
86178W        W50998  26.829  38.285  13.687
86179W        W50999  20.690  39.393   0.745
86180W        W51000   1.859  20.342   4.587
86181W        W51001  14.860  36.681  14.900
86182W        W51002  16.998  18.587  11.518
86183W        W51003   8.691  30.764   9.900
86184W        W51004  28.924  24.575  13.313
86185W        W51005  27.474   8.445  12.734
86186W        W51006   6.470  35.540  10.407
86187W        W51007  40.814  15.666  11.619
86188W        W51008  31.717  15.918  12.996
86189W        W51009  42.262  23.641   2.371
86190W        W51010   7.845   8.793   5.120
86191W        W51011  27.457  43.512  12.414
86192W        W51012  36.636  22.481  11.581
86193W        W51013  20.285  31.005   1.852
86194W        W51014  28.432  12.225   3.977
86195W        W51015   1.432  21.038   3.319
86196W        W51016  22.161   8.896  14.020
86197W        W51017  20.828   7.815  12.134
86198W        W51018  11.508  13.711  10.411
86199W        W51019  16.707  10.615   1.310
86200W        W51020  39.358  17.353  13.477
86201W        W51021  39.066   5.914   1.539
86202W        W51022  35.686  11.555   3.245
86203W        W51023   5.630   8.349   2.796
86204W        W51024  40.792  30.157  14.765
86205W        W51025  32.197  21.168   2.812
86206W        W51026  13.795   3.457  12.942
86207W        W51027  16.291   4.820  13.360
86208W        W51028  13.303  43.505  11.644
86209W        W51029  28.720  23.241  13.361
86210W        W51030  26.503   0.862   3.640
86211W        W51031   1.456  31.115  13.555
86212W        W51032   9.600   9.182  13.098
86213W        W51033  42.323  21.586  13.413
86214W        W51034  29.616  32.567  12.900
86215W        W51035  29.080  42.359   1.285
86216W        W51036   2.075  20.406  14.530
86217W        W51037   5.424  25.558   0.796
86218W        W51038  18.528   8.025  10.730
86219W        W51039   3.569  40.287   0.484
86220W        W51040  38.025  25.152   3.303
86221W        W51041   9.246  35.814  14.810
86222W        W51042  36.969  37.104  12.602
86223W        W51043  38.990  37.202  14.410
86224W        W51044  12.189  13.032  11.902
86225W        W51045  26.605   3.323   2.508
86226W        W51046  21.874  24.714   1.728
86227W        W51047  37.856  23.058   1.789
86228W        W51048   4.195   9.481  13.490
86229W        W51049  26.144   9.009   3.152
86230W        W51050  40.059  33.341   1.679
86231W        W51051  39.027  39.543   2.026
86232W        W51052   7.416  31.572  10.717
86233W        W51053  43.752  29.478  13.484
86234W        W51054  35.468  35.419   3.755
86235W        W51055  34.289  22.524  11.169
86236W        W51056  23.580   7.162   0.893
86237W        W51057  34.508  25.481  12.599
86238W        W51058  44.379   3.756  12.363
86239W        W51059  34.055  15.554   3.170
86240W        W51060  43.828  28.711  10.499
86241W        W51061  21.008  31.099   5.376
86242W        W51062   0.526  30.663  14.042
86243W        W51063  29.669  20.717  11.462
86244W        W51064  36.609  33.100  12.979
86245W        W51065  31.657  38.713  13.563
86246W        W51066  16.372  26.568  12.331
86247W        W51067  18.176  26.250  11.676
86248W        W51068  25.128  28.512  10.685
86249W        W51069  22.212  26.196   1.260
86250W        W51070  27.746  22.524  13.988
86251W        W51071  23.169  17.173   2.377
86252W        W51072  27.960  18.606   4.292
86253W        W51073  31.210  43.405  12.118
86254W        W51074   9.671  27.929  13.907
86255W        W51075  38.869  24.830   0.840
86256W        W51076   4.453  28.983  13.928
86257W        W51077  19.057  44.315   3.304
86258W        W51078  27.551  42.608   3.044
86259W        W51079  32.366  29.674  12.603
86260W        W51080  14.054  27.681  12.016
86261W        W51081   2.803  32.206  10.673
86262W        W51082  29.430   3.044   3.311
86263W        W51083  37.676   9.724   1.272
86264W        W51084  29.384  43.024  13.882
86265W        W51085  29.880  15.765  13.944
86266W        W51086   2.090  13.639   4.639
86267W        W51087   0.797   7.298  12.410
86268W        W51088  16.699  26.091  14.836
86269W        W51089   7.258  32.388   3.649
86270W        W51090  37.389   6.990  10.732
86271W        W51091   9.903   6.436  12.936
86272W        W51092   4.229  13.765  13.681
86273W        W51093  28.568  24.021  13.925
86274W        W51094  39.540   1.701   0.927
86275W        W51095   0.507  17.714   4.613
86276W        W51096  31.686  44.471   1.191
86277W        W51097  14.262  39.872  11.036
86278W        W51098  39.325  35.788  11.804
86279W        W51099  20.635  30.125   4.136
86280W        W51100  32.066   9.259  10.898
86281W        W51101  18.584   6.373   2.355
86282W        W51102   7.919  37.566   0.967
86283W        W51103   1.724  13.537  12.400
86284W        W51104  23.014   3.568  10.408
86285W        W51105  29.653   3.580   0.918
86286W        W51106  32.651   0.420   0.011
86287W        W51107  39.820   3.587   4.338
86288W        W51108   3.649  17.070   4.464
86289W        W51109  22.481  16.820  11.995
86290W        W51110  31.210  25.676   4.659
86291W        W51111  41.494  34.098  14.234
86292W        W51112  26.469   2.241   1.269
86293W        W51113  38.894  28.587   2.253
86294W        W51114   3.127  41.406   2.684
86295W        W51115  24.564  15.004   4.711
86296W        W51116  14.695  44.380  13.210
86297W        W51117  25.140  29.462  14.516
86298W        W51118  44.291  20.246  14.806
86299W        W51119   1.995  21.625   1.940
86300W        W51120  28.589   1.618   0.008
86301W        W51121  13.440  25.181  14.486
86302W        W51122   2.082  22.570  14.854
86303W        W51123  15.343   5.173  11.019
86304W        W51124  16.634   2.356  13.922
86305W        W51125  35.409   4.838  10.940
86306W        W51126  11.664   5.886   2.238
86307W        W51127  18.783  40.011   1.236
86308W        W51128   0.361  26.081   2.595
86309W        W51129  18.721  42.056   1.483
86310W        W51130   3.950  20.481   3.288
86311W        W51131  12.184  18.812  11.117
86312W        W51132  20.329  18.843  11.221
86313W        W51133  38.397  34.073   1.010
86314W        W51134  27.791  44.330  14.349
86315W        W51135  26.857  40.281  10.457
86316W        W51136  10.308   7.444   1.233
86317W        W51137  17.758  21.036  11.091
86318W        W51138  40.809   7.494   1.435
86319W        W51139  21.536  23.823  12.502
86320W        W51140  22.598  13.544  10.680
86321W        W51141   3.265  30.413   4.128
86322W        W51142  23.093  26.865   3.175
86323W        W51143  42.976  19.753  10.749
86324W        W51144  27.848   0.031  13.920
86325W        W51145  41.996  15.203  10.813
86326W        W51146  28.513  33.018   0.051
86327W        W51147  38.652  34.513  14.010
86328W        W51148   5.932  21.273  11.992
86329W        W51149   9.345  33.498   4.953
86330W        W51150  14.874  17.639   1.392
86331W        W51151  22.508  36.928  13.184
86332W        W51152  29.516  12.210  11.470
86333W        W51153  18.975  33.590   4.019
86334W        W51154  39.441  34.575   2.172
86335W        W51155  42.913   2.344   4.618
86336W        W51156   0.208  19.640  13.974
86337W        W51157  14.051  21.303  12.757
86338W        W51158   6.270  37.396  13.548
86339W        W51159  38.992  33.385  10.395
86340W        W51160  12.853  29.631   0.754
86341W        W51161  16.286  32.003   0.964
86342W        W51162  31.499   5.670   4.227
86343W        W51163  33.672  33.900   3.901
86344W        W51164   2.776  34.043   4.615
86345W        W51165  12.837   0.307   3.264
86346W        W51166  22.828  44.110  11.175
86347W        W51167  35.583   1.175  10.488
86348W        W51168  11.793  37.190  11.437
86349W        W51169  18.044  43.122  13.068
86350W        W51170  19.625  36.014  14.792
86351W        W51171   3.044  15.233   2.701
86352W        W51172  12.592  41.142   1.222
86353W        W51173  34.367  32.228   1.348
86354W        W51174  27.573  20.511   0.025
86355W        W51175   4.845  35.756  13.035
86356W        W51176  30.133  44.466  12.622
86357W        W51177  39.746  35.970   0.084
86358W        W51178  33.627  33.428  13.979
86359W        W51179  12.368  14.845   4.116
86360W        W51180  14.506  41.072   0.247
86361W        W51181  24.033  31.663   1.037
86362W        W51182  34.371   5.655   1.297
86363W        W51183  24.043   7.417   0.873
86364W        W51184   1.315  14.168  13.864
86365W        W51185  40.434  24.042   4.069
86366W        W51186  36.522   9.998  12.340
86367W        W51187  20.064  11.440   1.134
86368W        W51188  40.615  25.650   4.857
86369W        W51189  33.641   8.922   4.225
86370W        W51190  34.164  19.738   4.208
86371W        W51191  34.437  43.494  11.512
86372W        W51192  23.605  24.613   4.832
86373W        W51193  36.185  16.163   5.483
86374W        W51194   8.188  25.755  13.329
86375W        W51195  26.080  25.627  11.065
86376W        W51196  21.099  11.342   4.635
86377W        W51197  27.916   9.413  10.679
86378W        W51198  20.042  43.341  12.742
86379W        W51199  12.725  35.017   0.695
86380W        W51200   2.675  33.132   3.890
86381W        W51201   3.913  30.576  13.268
86382W        W51202  24.998  38.084   2.787
86383W        W51203   4.353  16.718   4.172
86384W        W51204  34.043   1.751   2.369
86385W        W51205  24.755  20.985   0.310
86386W        W51206  42.754  12.895  14.747
86387W        W51207  42.358  36.373   0.531
86388W        W51208  31.588  17.725   0.777
86389W        W51209  34.217  23.227  11.494
86390W        W51210  23.723  40.900  11.024
86391W        W51211  26.960  42.009   0.107
86392W        W51212   3.367  40.907   3.856
86393W        W51213  41.069  35.055   1.878
86394W        W51214  24.970   4.760  13.314
86395W        W51215  16.134  24.769  12.107
86396W        W51216  39.307   1.548   4.162
86397W        W51217  25.037  16.817  14.990
86398W        W51218  32.181  14.242  11.033
86399W        W51219  33.314  10.927   4.245
86400W        W51220   9.695   3.667  11.065
86401W        W51221  44.382  43.254  11.908
86402W        W51222  10.148  16.824   0.451
86403W        W51223  28.690  36.772  13.836
86404W        W51224  29.519  17.747  14.285
86405W        W51225  38.071   6.750  14.373
86406W        W51226   0.831  17.601  10.977
86407W        W51227  25.547  32.867   1.723
86408W        W51228  20.494  28.050   0.688
86409W        W51229  44.457  28.557  12.984
86410W        W51230   7.452   3.161   3.748
86411W        W51231  27.038  17.145  10.720
86412W        W51232   7.188  27.490   0.737
86413W        W51233  11.946  37.158  12.333
86414W        W51234  10.754  20.692  10.252
86415W        W51235  22.507  37.271   3.218
86416W        W51236  36.019   3.739  14.427
86417W        W51237  37.403  20.052   3.366
86418W        W51238  34.405  42.842  11.042
86419W        W51239   0.340   7.625   2.753
86420W        W51240  15.588  27.787  11.168
86421W        W51241   9.895  41.240  10.772
86422W        W51242  18.147  13.225   3.084
86423W        W51243  34.402  37.418  14.973
86424W        W51244  32.406  22.994   4.600
86425W        W51245   6.915  22.767  10.906
86426W        W51246  26.181  43.503  14.325
86427W        W51247  37.954   7.721  10.605
86428W        W51248  16.590  42.279  13.924
86429W        W51249  25.560  30.429  12.986
86430W        W51250   4.084  42.782   2.041
86431W        W51251  40.524   8.962  11.512
86432W        W51252  26.159  32.581  10.243
86433W        W51253   2.354  11.156   0.448
86434W        W51254  21.257   3.465   3.225
86435W        W51255   0.171   5.154   4.186
86436W        W51256  21.531  17.146  12.503
86437W        W51257   2.699  22.071  13.303
86438W        W51258   3.956  22.756   1.016
86439W        W51259  15.325   7.835  14.801
86440W        W51260  20.206  25.787   2.715
86441W        W51261   7.569  12.751  13.267
86442W        W51262  25.217  24.462   3.341
86443W        W51263   8.851  38.003  10.568
86444W        W51264  34.605  21.080  10.007
86445W        W51265  32.352  38.298   1.041
86446W        W51266  24.887  27.563  11.207
86447W        W51267  36.433  22.521   1.688
86448W        W51268  28.167  23.434  12.894
86449W        W51269  16.516  27.565  12.801
86450W        W51270  36.762  22.159   3.768
86451W        W51271  35.553  37.015  13.803
86452W        W51272  34.315  43.318   1.942
86453W        W51273  13.696  18.848  10.918
86454W        W51274  25.696  41.020   0.875
86455W        W51275  17.053   7.655  12.041
86456W        W51276  12.164   3.719   3.280
86457W        W51277  19.118  39.939  10.683
86458W        W51278  18.171  18.225  13.562
86459W        W51279  22.604  29.545  13.571
86460W        W51280  18.446  20.614   1.431
86461W        W51281  20.232  35.458  13.908
86462W        W51282  37.828   4.921   3.383
86463W        W51283  27.316  21.195   1.238
86464W        W51284  41.753  12.575  14.785
86465W        W51285  27.012   1.988   1.899
86466W        W51286  28.505   9.699   4.823
86467W        W51287  10.237  29.510  14.046
86468W        W51288  13.854   1.884  13.649
86469W        W51289  19.726  38.947  12.443
86470W        W51290  14.308  32.845   2.757
86471W        W51291   7.500   4.949   1.964
86472W        W51292  30.076   5.181   1.267
86473W        W51293  41.962  44.641   2.427
86474W        W51294   8.589  31.606  14.863
86475W        W51295  41.098   8.303   4.149
86476W        W51296  13.171  14.796   2.584
86477W        W51297  26.927  27.420  12.446
86478W        W51298  29.530  41.923  14.740
86479W        W51299  17.801  35.777  13.753
86480W        W51300  39.367  28.194   2.439
86481W        W51301   6.895  22.262  11.081
86482W        W51302  24.951  41.625   3.604
86483W        W51303  31.980   1.778  11.024
86484W        W51304  40.526  37.011  12.490
86485W        W51305   9.187  28.417   4.361
86486W        W51306  15.653  35.074   1.851
86487W        W51307  30.939  22.820  12.924
86488W        W51308  16.898   1.916  14.002
86489W        W51309  18.409  21.220  11.814
86490W        W51310  40.513  27.932   0.802
86491W        W51311  35.165   2.572   4.638
86492W        W51312   4.443  19.754  13.385
86493W        W51313   2.369   3.883  14.000
86494W        W51314  16.721  43.377  14.455
86495W        W51315   4.708  38.063   2.259
86496W        W51316  41.168  33.429  13.490
86497W        W51317  44.382   3.760   2.869
86498W        W51318  39.991  36.437  11.013
86499W        W51319  35.931   3.893   2.131
86500W        W51320  36.054  36.309  12.045
86501W        W51321  32.067  32.119   4.511
86502W        W51322  44.271  32.160  14.243
86503W        W51323  30.867   8.687   0.227
86504W        W51324  34.619  43.938   4.349
86505W        W51325  38.261  20.901   3.721
86506W        W51326   2.459  16.325   2.263
86507W        W51327  12.827  30.945  14.474
86508W        W51328   2.180   7.196  13.016
86509W        W51329   9.181  18.525   1.826
86510W        W51330  35.447  32.413  14.022
86511W        W51331  37.419   7.801   5.141
86512W        W51332   0.721  33.972  11.814
86513W        W51333  20.330  35.880   3.035
86514W        W51334  23.375  30.894  11.042
86515W        W51335  16.149  26.213  13.465
86516W        W51336  25.901   1.938  12.048
86517W        W51337  14.350  33.616   4.906
86518W        W51338  42.529   3.192   0.032
86519W        W51339  20.690  21.063   2.690
86520W        W51340  37.284  19.931   5.236
86521W        W51341  14.923  29.446   1.726
86522W        W51342  40.736  19.628  12.885
86523W        W51343  42.018  12.719   2.855
86524W        W51344  38.466  12.313  10.604
86525W        W51345   4.291  44.079  13.891
86526W        W51346  16.364  31.680   0.431
86527W        W51347  31.135  38.619  13.706
86528W        W51348  21.685  11.090  12.093
86529W        W51349  12.165  33.380   0.527
86530W        W51350   5.679  29.518  13.535
86531W        W51351  27.613   7.733  11.574
86532W        W51352  34.954  10.342  11.480
86533W        W51353  26.403  10.153  13.885
86534W        W51354   5.440  43.210  14.996
86535W        W51355  43.048  39.357   2.167
86536W        W51356  11.348  18.729  13.011
86537W        W51357  38.473  37.326   3.203
86538W        W51358  21.116  12.240  13.823
86539W        W51359  39.983  29.599   1.154
86540W        W51360  22.201  12.425  12.683
86541W        W51361  33.121   7.348  14.314
86542W        W51362  12.043  17.845  13.383
86543W        W51363  16.579  11.837   2.738
86544W        W51364  44.921  39.915   2.174
86545W        W51365  41.811  13.494  13.324
86546W        W51366  41.583  30.777  13.100
86547W        W51367  28.875   5.480  12.669
86548W        W51368  27.100   7.945  13.013
86549W        W51369  29.543  29.379   3.840
86550W        W51370  41.968  40.937   1.779
86551W        W51371  34.555   0.059  14.806
86552W        W51372  34.043  14.538  11.104
86553W        W51373  29.945  21.840  11.989
86554W        W51374  30.641   1.034   1.822
86555W        W51375  19.087  26.080  12.516
86556W        W51376  41.392  22.719  11.992
86557W        W51377  39.851  27.092   2.705
86558W        W51378  37.117  19.031   3.204
86559W        W51379  13.329  41.089   3.240
86560W        W51380  37.068   7.709  12.893
86561W        W51381  23.023  33.512   3.344
86562W        W51382  25.399   4.890  12.120
86563W        W51383  16.990  34.150   5.390
86564W        W51384  38.195   9.163  14.683
86565W        W51385  27.903  25.523   4.545
86566W        W51386  44.610  12.579   3.201
86567W        W51387  34.602   6.430  14.507
86568W        W51388  38.133  41.488   2.093
86569W        W51389  29.469  34.098   1.949
86570W        W51390  23.556  23.085  10.826
86571W        W51391  36.400  38.830   0.489
86572W        W51392  18.855  27.599   4.137
86573W        W51393  13.248  26.028   4.453
86574W        W51394   8.208  15.392  10.891
86575W        W51395  42.859  39.128   1.405
86576W        W51396   6.584  14.179   4.998
86577W        W51397   3.057  16.792  14.382
86578W        W51398  34.638   5.210  13.996
86579W        W51399  34.453  30.395  14.364
86580W        W51400  22.318  26.658   3.680
86581W        W51401  23.091  27.435   1.431
86582W        W51402  22.985  41.460   4.100
86583W        W51403  15.401  43.194   0.387
86584W        W51404  33.177  27.151   0.737
86585W        W51405  33.988  41.732  14.145
86586W        W51406  11.259   2.812  13.914
86587W        W51407   4.794   0.954  14.001
86588W        W51408  40.143  42.942  14.726
86589W        W51409  44.167  37.625   3.736
86590W        W51410  12.632  17.032  10.409
86591W        W51411  38.886  37.369  13.067
86592W        W51412  23.928  16.322  13.616
86593W        W51413  39.225  14.452  11.109
86594W        W51414  34.543   9.610  13.938
86595W        W51415  37.872  11.630   1.774
86596W        W51416   1.856  11.262  13.548
86597W        W51417  29.378  44.077  11.688
86598W        W51418  13.339   3.006  11.959
86599W        W51419  31.474  35.558   2.854
86600W        W51420   8.810  17.734   0.298
86601W        W51421  30.243   2.657  14.394
86602W        W51422   4.439   5.425   3.720
86603W        W51423  31.639  35.485   3.357
86604W        W51424  24.755  13.274  13.766
86605W        W51425  17.294   4.284   3.153
86606W        W51426  19.300   8.001  10.502
86607W        W51427  24.028  23.176  13.552
86608W        W51428  11.825  28.032  12.533
86609W        W51429   1.848  37.864   2.325
86610W        W51430  25.906  12.657   0.763
86611W        W51431   4.895  39.344   0.506
86612W        W51432  24.087  24.761   4.685
86613W        W51433   2.119  21.955  11.291
86614W        W51434  10.803  38.946  14.338
86615W        W51435  18.091  32.901   3.794
86616W        W51436  16.280  34.456   1.736
86617W        W51437  34.469   3.710  14.891
86618W        W51438   9.269  35.549   1.454
86619W        W51439   0.475  36.953   1.264
86620W        W51440  24.008  34.481   1.812
86621W        W51441   6.450  30.569  13.923
86622W        W51442  42.393  21.245  13.011
86623W        W51443   1.516  19.688   0.324
86624W        W51444  17.356  26.072  10.720
86625W        W51445  20.914  22.112  11.401
86626W        W51446   8.731  15.227  11.667
86627W        W51447  12.708   1.495   1.780
86628W        W51448   7.632  20.229   0.796
86629W        W51449   7.188  17.307  14.710
86630W        W51450  25.379  17.475  14.171
86631W        W51451  16.991  30.172  12.156
86632W        W51452  18.462  13.108   5.087
86633W        W51453  30.360  14.222   4.584
86634W        W51454  37.815  22.073   2.695
86635W        W51455  27.197  25.878  13.523
86636W        W51456  43.929   2.195   3.271
86637W        W51457  21.737  18.686   1.339
86638W        W51458   5.749  19.261   4.538
86639W        W51459  26.777   6.182   2.457
86640W        W51460  24.710  33.836   3.708
86641W        W51461   2.814  25.758  14.370
86642W        W51462   4.956  35.588  11.962
86643W        W51463  31.569  18.481  14.755
86644W        W51464  22.213   9.058   1.700
86645W        W51465  18.077  19.034   0.989
86646W        W51466  38.547  10.264   2.608
86647W        W51467  11.524  25.679   0.699
86648W        W51468  17.498  39.975   3.129
86649W        W51469  15.525  31.576   2.723
86650W        W51470  29.518  31.513  11.872
86651W        W51471  38.902   4.258  10.352
86652W        W51472  18.671  15.332  11.919
86653W        W51473   9.787   6.162   2.062
86654W        W51474  25.688  24.030  12.548
86655W        W51475  36.956  11.129  10.306
86656W        W51476   7.186  11.743   4.080
86657W        W51477   6.842  40.421  13.461
86658W        W51478  31.143  26.821  11.559
86659W        W51479  24.541  34.503   1.001
86660W        W51480  14.509  16.886   5.044
86661W        W51481  44.202   2.167  12.554
86662W        W51482  33.678  24.314   0.484
86663W        W51483  24.365   5.747   3.448
86664W        W51484  28.550  15.071   4.156
86665W        W51485  27.960  30.341  12.016
86666W        W51486  42.312  39.895   4.863
86667W        W51487  37.957  13.228   2.156
86668W        W51488  26.985   1.465   2.987
86669W        W51489  25.078  14.788   2.582
86670W        W51490  18.519   6.300  11.553
86671W        W51491  29.398   0.064   1.414
86672W        W51492  15.868  11.162  11.997
86673W        W51493  11.339  31.773  11.164
86674W        W51494  33.586   4.200  14.565
86675W        W51495   9.165   7.910   2.793
86676W        W51496  14.537  37.819  11.025
86677W        W51497  37.667  18.167   2.196
86678W        W51498   9.987  23.169   4.198
86679W        W51499  44.493  13.156  12.291
86680W        W51500  23.003  26.352   3.043
86681W        W51501  13.641  12.180  14.388
86682W        W51502  20.498  44.925   0.963
86683W        W51503  29.547  26.280  11.216
86684W        W51504  20.615  31.469  11.175
86685W        W51505  21.655  14.568   0.893
86686W        W51506  31.612   1.246   0.823
86687W        W51507  25.550  15.147  14.806
86688W        W51508   9.211  39.580   0.454
86689W        W51509  30.687  21.962  10.776
86690W        W51510  23.673  17.125   1.755
86691W        W51511   9.794  17.319   1.764
86692W        W51512  27.263  38.924   0.339
86693W        W51513  16.832  41.938  10.702
86694W        W51514  13.640  34.511  11.610
86695W        W51515   6.847  28.805   3.666
86696W        W51516   9.393  18.288   5.841
86697W        W51517   5.997  25.973  12.117
86698W        W51518  28.006  42.487   3.247
86699W        W51519  22.982  25.014  14.525
86700W        W51520  18.409  14.541  10.722
86701W        W51521  20.507  40.080   2.286
86702W        W51522  22.610  22.002  14.913
86703W        W51523  10.014   0.191  12.102
86704W        W51524  35.952  31.538  11.159
86705W        W51525  44.999  42.053   3.219
86706W        W51526  23.643   0.324   3.584
86707W        W51527   3.766   7.280   0.366
86708W        W51528   9.718  28.927  12.449
86709W        W51529  40.093   1.925   9.978
86710W        W51530   9.380  39.062   2.869
86711W        W51531  37.755  41.020   0.376
86712W        W51532  27.018  24.166  13.070
86713W        W51533  25.510  16.560  11.513
86714W        W51534  12.759  32.041   4.856
86715W        W51535  21.497  30.509  14.393
86716W        W51536   1.905  31.286   0.034
86717W        W51537  44.858  12.334   2.776
86718W        W51538  14.770  13.864   4.569
86719W        W51539  28.568  17.266  12.429
86720W        W51540   2.123   8.310   4.863
86721W        W51541   2.473  36.310   0.232
86722W        W51542  18.700  27.647  10.707
86723W        W51543   8.771  32.793  13.134
86724W        W51544  12.892  10.322  13.025
86725W        W51545   4.378  41.093   2.886
86726W        W51546  14.273  15.155  11.595
86727W        W51547  17.690  18.231   4.199
86728W        W51548  40.896  15.325   1.925
86729W        W51549  25.543   3.987   2.155
86730W        W51550  23.611  25.655  12.500
86731W        W51551  32.943  27.708  12.863
86732W        W51552  14.782  13.568   1.715
86733W        W51553  30.329  16.377   1.157
86734W        W51554  44.945  22.540  13.338
86735W        W51555  11.689   4.651   1.514
86736W        W51556  16.334   0.961   3.733
86737W        W51557  16.546  13.813  12.228
86738W        W51558  17.541  24.739   3.621
86739W        W51559   5.705  30.612  14.442
86740W        W51560  24.293  32.472   0.200
86741W        W51561  23.924  39.098  14.914
86742W        W51562  38.287  43.213  12.520
86743W        W51563  26.980  11.138  10.495
86744W        W51564  40.805  30.397   2.244
86745W        W51565  16.570  10.740  10.781
86746W        W51566   7.821   5.914   0.249
86747W        W51567  35.558  13.704   2.337
86748W        W51568  31.598  31.001  10.643
86749W        W51569  20.858  22.425   2.421
86750W        W51570  16.457  17.178   2.764
86751W        W51571  36.084   2.255   0.511
86752W        W51572  32.600  25.222   3.387
86753W        W51573  30.505  13.080   0.543
86754W        W51574  41.706   0.312  12.568
86755W        W51575  44.213   4.895  14.792
86756W        W51576   2.289  39.565   4.776
86757W        W51577  15.184  42.474   4.519
86758W        W51578  27.596  33.877  11.040
86759W        W51579  33.891  32.701   2.509
86760W        W51580   4.887  16.172   0.304
86761W        W51581  36.060  12.263   4.112
86762W        W51582  36.417  38.348  11.546
86763W        W51583  23.497  22.906   0.009
86764W        W51584  12.753   9.822  14.322
86765W        W51585  17.878  16.695   1.225
86766W        W51586   7.884   5.082  14.586
86767W        W51587  26.816  23.512   1.948
86768W        W51588  19.997  44.989  13.936
86769W        W51589   8.159  23.225   1.306
86770W        W51590   1.239  36.991  12.883
86771W        W51591  20.331  44.372  10.254
86772W        W51592  40.109  23.283   0.664
86773W        W51593  35.171  19.015   1.387
86774W        W51594  20.227  17.729   4.087
86775W        W51595  40.010  29.705  13.350
86776W        W51596  20.013  40.385   1.964
86777W        W51597  29.959  44.095  12.317
86778W        W51598  32.561   4.444   0.734
86779W        W51599  21.758   8.646   0.921
86780W        W51600  13.619  18.950  13.541
86781W        W51601  30.205  12.158  10.821
86782W        W51602  42.748   9.098  11.665
86783W        W51603  25.539  18.972  14.299
86784W        W51604  42.909  39.434  12.024
86785W        W51605  21.561   1.455   1.464
86786W        W51606  41.385  21.000   0.846
86787W        W51607  11.913  40.551  13.626
86788W        W51608  40.717  25.064  13.100
86789W        W51609   9.941   2.486  11.500
86790W        W51610   8.772  11.633   5.316
86791W        W51611   9.783  33.349   3.691
86792W        W51612  40.761  14.783  11.490
86793W        W51613  27.197  23.131  14.972
86794W        W51614  29.842   9.352  13.250
86795W        W51615  25.752  19.078  11.271
86796W        W51616  30.970  35.137   2.236
86797W        W51617   2.494  17.181  12.895
86798W        W51618   5.749  10.129   3.858
86799W        W51619  11.685  20.538  12.920
86800W        W51620  41.934   4.009  14.588
86801W        W51621  11.684  12.089  14.261
86802W        W51622  34.283  20.422  13.484
86803W        W51623   9.171   4.096   2.799
86804W        W51624  18.956  29.525  11.926
86805W        W51625   0.482   7.967   4.080
86806W        W51626  41.991  42.766   2.797
86807W        W51627  13.085   2.499  12.042
86808W        W51628  12.290  23.273  13.471
86809W        W51629   3.465  14.880   0.394
86810W        W51630  44.882  16.367  13.681
86811W        W51631  33.766  37.089   0.222
86812W        W51632   1.853  34.816  13.576
86813W        W51633   3.333  29.996  11.434
86814W        W51634   9.942  10.860   2.799
86815W        W51635  17.024  26.715   0.797
86816W        W51636  33.140  43.017  10.663
86817W        W51637   0.936  29.198   1.296
86818W        W51638  27.804   7.353  14.888
86819W        W51639  34.601  28.542   0.183
86820W        W51640  23.091  30.454   0.412
86821W        W51641  40.312   6.231  11.570
86822W        W51642  40.040  17.240   4.301
86823W        W51643  39.511  33.517  12.020
86824W        W51644  44.156  11.563   2.588
86825W        W51645  14.711  25.929   3.390
86826W        W51646  41.289  13.682  12.433
86827W        W51647  40.483  42.963  12.472
86828W        W51648  32.791   8.028   0.442
86829W        W51649   3.274  14.807  14.860
86830W        W51650  15.285   7.400  11.971
86831W        W51651  21.767  13.681   1.292
86832W        W51652  39.432   3.491  13.340
86833W        W51653  13.877  26.124   1.717
86834W        W51654  13.105  31.586   2.692
86835W        W51655  23.693   1.500  11.544
86836W        W51656  21.055  25.230   2.635
86837W        W51657  24.053  15.097  14.277
86838W        W51658  24.023   7.829   5.083
86839W        W51659  15.625  37.280  10.901
86840W        W51660  19.114   1.132   2.871
86841W        W51661  18.688   0.398  14.789
86842W        W51662  25.544  25.627  11.030
86843W        W51663  32.183  21.317   4.092
86844W        W51664  38.505  33.520  10.523
86845W        W51665  20.972  28.664   3.288
86846W        W51666  10.667   4.875   1.777
86847W        W51667  30.221   7.222   2.735
86848W        W51668  38.030  14.282   1.471
86849W        W51669  27.732  28.025   4.068
86850W        W51670  30.575   5.424   3.114
86851W        W51671  21.232  15.897  10.016
86852W        W51672  26.393  13.024  11.193
86853W        W51673  38.046  16.121  13.971
86854W        W51674  44.415  31.376   2.102
86855W        W51675  12.137   1.242  12.588
86856W        W51676  31.964  30.413   4.216
86857W        W51677   7.743  17.306   4.085
86858W        W51678  41.114  23.507  10.669
86859W        W51679   4.166  34.680   2.766
86860W        W51680   8.880  12.773   3.275
86861W        W51681  19.739  42.499  13.225
86862W        W51682  33.791  22.670   0.620
86863W        W51683  35.586  26.747   4.301
86864W        W51684  20.984  21.726  12.541
86865W        W51685  16.068  24.022  10.694
86866W        W51686  22.011  34.142  11.501
86867W        W51687   6.728  36.414   1.460
86868W        W51688  10.906  44.975   3.620
86869W        W51689   5.223  18.135   0.477
86870W        W51690  28.594   4.242  12.972
86871W        W51691  17.184   6.451   0.663
86872W        W51692   2.394  24.130   5.313
86873W        W51693  44.763  11.775  11.498
86874W        W51694   6.360  23.059   3.709
86875W        W51695  30.326   5.819  11.833
86876W        W51696  23.066  33.920   2.652
86877W        W51697   4.201  22.617  11.468
86878W        W51698  40.769  13.833   1.748
86879W        W51699  31.608  21.152  11.417
86880W        W51700  40.148  28.975   4.196
86881W        W51701  44.031  34.087  10.775
86882W        W51702  23.139  29.133  11.438
86883W        W51703   3.494  15.226   3.861
86884W        W51704  20.240  37.098   3.093
86885W        W51705  32.901   1.917   2.442
86886W        W51706  40.409  42.032   1.261
86887W        W51707  24.694   1.251   1.641
86888W        W51708  23.780  20.635  14.089
86889W        W51709  28.797  40.310  12.484
86890W        W51710  36.502  21.796   0.027
86891W        W51711  33.555  34.895   0.844
86892W        W51712   7.827   7.897   0.964
86893W        W51713  29.235  16.817   3.631
86894W        W51714  23.959  41.998  13.035
86895W        W51715  10.655   1.174   3.108
86896W        W51716   5.725   9.166   1.586
86897W        W51717  18.624   3.513  14.756
86898W        W51718  14.352  14.134   2.147
86899W        W51719  34.138  31.910   1.709
86900W        W51720   7.669  36.084  14.007
86901W        W51721  44.840  36.361  13.010
86902W        W51722  25.455  22.742  10.735
86903W        W51723  43.778  40.607   0.246
86904W        W51724  20.381  15.386  11.866
86905W        W51725   4.991  41.463  10.851
86906W        W51726   6.976   5.644  12.412
86907W        W51727  28.679   3.267   3.635
86908W        W51728  28.682  27.553   1.210
86909W        W51729  43.401  21.527   0.209
86910W        W51730   1.113  32.070  11.141
86911W        W51731  39.823   5.314  11.117
86912W        W51732  30.531   8.217  14.571
86913W        W51733  41.476  41.344  11.228
86914W        W51734  12.229  12.123   3.808
86915W        W51735  21.643   7.854  14.453
86916W        W51736   7.923  12.198  11.129
86917W        W51737  25.447  32.053  13.357
86918W        W51738  27.514  43.789   0.251
86919W        W51739  16.109   2.989   3.670
86920W        W51740  31.865   0.864   3.659
86921W        W51741  12.313  38.422  12.693
86922W        W51742   1.843  20.864  14.423
86923W        W51743  15.684  28.710   2.315
86924W        W51744  38.527  29.977   2.379
86925W        W51745   1.860   5.941  14.495
86926W        W51746  28.644  20.800  10.616
86927W        W51747   9.932  10.657   1.799
86928W        W51748  36.807   4.073  11.636
86929W        W51749  12.897  38.028  14.053
86930W        W51750  23.578  38.468   2.113
86931W        W51751  40.726  30.471  12.991
86932W        W51752  31.186  39.308  12.114
86933W        W51753  37.522  23.630   1.038
86934W        W51754  13.352  41.230  11.339
86935W        W51755  18.989  18.281  14.278
86936W        W51756  25.757   3.265  12.590
86937W        W51757   1.341  21.403   2.888
86938W        W51758  11.334   4.323  11.441
86939W        W51759  29.655  40.290   1.636
86940W        W51760  17.503  19.297   2.381
86941W        W51761  28.187  15.421   1.236
86942W        W51762  25.652  13.374  13.511
86943W        W51763   6.768  10.446   0.417
86944W        W51764  30.844  35.457  11.967
86945W        W51765  20.339   4.348  12.388
86946W        W51766  44.010  31.253   0.818
86947W        W51767  11.730   3.697   1.888
86948W        W51768   3.800  27.506   4.308
86949W        W51769   5.604   2.596  12.020
86950W        W51770   7.345  14.500   3.274
86951W        W51771   5.388  44.887  12.376
86952W        W51772  11.408  22.329   2.657
86953W        W51773   5.048  43.333  10.864
86954W        W51774  31.244  20.203   1.237
86955W        W51775   3.623  12.137   4.514
86956W        W51776  20.895  33.256  10.956
86957W        W51777  39.745  31.100  11.584
86958W        W51778   8.328  35.575   1.688
86959W        W51779   8.650   3.120   1.286
86960W        W51780  37.337  28.725   1.941
86961W        W51781  34.867  15.013  12.360
86962W        W51782   8.466  33.006   1.292
86963W        W51783   6.246  27.075   5.097
86964W        W51784  15.731   8.345   4.295
86965W        W51785  15.532  42.419   4.044
86966W        W51786  34.487   2.845   1.872
86967W        W51787  34.035  20.992   1.434
86968W        W51788  35.324  23.584  12.937
86969W        W51789  42.780   5.211  12.044
86970W        W51790  40.157  12.875   3.784
86971W        W51791  11.126  26.009  13.411
86972W        W51792  31.434  36.572  13.868
86973W        W51793  28.661  23.094   3.648
86974W        W51794  38.315  19.562  14.255
86975W        W51795   5.156  19.027   2.327
86976W        W51796   1.276   5.210   1.911
86977W        W51797  29.179  11.609   1.890
86978W        W51798   5.255  42.009  13.800
86979W        W51799   7.112  27.476   1.284
86980W        W51800  36.931  21.767   1.404
86981W        W51801  16.656  15.579   2.329
86982W        W51802   4.428   8.347   1.528
86983W        W51803  14.596  21.281   4.996
86984W        W51804  33.550  19.200  12.218
86985W        W51805  17.975   7.770   2.750
86986W        W51806  25.582   7.950   2.757
86987W        W51807  11.291  14.039   4.503
86988W        W51808  28.581  31.003  13.024
86989W        W51809  20.377  37.074  11.869
86990W        W51810  32.087   5.102   2.307
86991W        W51811   9.568  32.552  14.868
86992W        W51812   1.823  43.030  14.076
86993W        W51813  28.374  20.702  13.518
86994W        W51814  18.053  38.497   4.152
86995W        W51815   6.522  10.961   1.968
86996W        W51816   2.003  42.917   3.386
86997W        W51817   3.332  36.073  14.734
86998W        W51818  19.010   0.322   1.447
86999W        W51819  39.086   4.116  14.420
87000W        W51820  13.199  18.391   1.289
87001W        W51821  37.068   6.280   2.729
87002W        W51822  23.837  25.440  12.936
87003W        W51823   7.295  44.979   4.083
87004W        W51824   5.451  36.640  11.167
87005W        W51825   2.010  33.035   2.322
87006W        W51826   0.298  13.167  14.741
87007W        W51827  30.675  12.022  13.980
87008W        W51828  42.719  13.364  13.861
87009W        W51829  16.531  37.929   0.353
87010W        W51830  32.557  19.477  14.361
87011W        W51831  27.662   5.195   1.432
87012W        W51832  40.700  28.400   2.516
87013W        W51833   9.134   5.332  10.648
87014W        W51834   8.876   9.143   1.859
87015W        W51835  26.589  15.712   4.098
87016W        W51836  37.780  24.317  11.265
87017W        W51837  32.091  32.436  12.014
87018W        W51838  18.272   0.539  12.576
87019W        W51839  33.154  11.136  14.109
87020W        W51840  30.130  13.762  10.771
87021W        W51841  23.434  33.750   1.173
87022W        W51842  43.459  28.716  13.003
87023W        W51843  24.712  34.021  12.901
87024W        W51844   6.404  17.354   0.962
87025W        W51845  23.043  40.330  12.165
87026W        W51846  28.566   9.160   4.903
87027W        W51847   3.961   4.400  13.754
87028W        W51848  35.334  38.355  11.590
87029W        W51849  37.111   6.971  11.244
87030W        W51850   2.732  21.296   3.094
87031W        W51851  40.435  26.031  14.104
87032W        W51852  29.629   2.891  10.762
87033W        W51853  44.837   8.893  14.061
87034W        W51854  23.740  22.547  12.432
87035W        W51855   1.817  30.438   4.251
87036W        W51856  37.582   0.184  12.921
87037W        W51857   8.971  32.693  11.032
87038W        W51858  10.346  28.857   3.154
87039W        W51859  10.399   2.671   3.776
87040W        W51860  19.361  37.521   5.480
87041W        W51861  36.804  32.181  11.117
87042W        W51862  17.287   0.431   4.999
87043W        W51863  38.417  35.085  11.629
87044W        W51864   5.168  40.954   0.459
87045W        W51865   3.325  20.235  12.843
87046W        W51866  28.242  42.004  14.055
87047W        W51867  34.162  26.438  14.212
87048W        W51868  35.853  25.772   3.052
87049W        W51869  23.440  44.556   1.713
87050W        W51870  32.315   9.397   4.284
87051W        W51871  43.548  23.829   0.487
87052W        W51872  33.574   9.585   0.988
87053W        W51873  22.172  19.606  10.310
87054W        W51874  18.540  18.773  10.668
87055W        W51875  13.761  37.984   1.407
87056W        W51876  22.917  41.083   2.329
87057W        W51877  31.568  32.427  12.549
87058W        W51878  23.783  11.014   4.093
87059W        W51879  28.480  12.134  11.582
87060W        W51880  43.570  44.142   0.025
87061W        W51881  12.749  21.817   1.758
87062W        W51882  13.267  38.459   2.105
87063W        W51883   1.473  27.050  10.604
87064W        W51884  24.954  24.693   3.802
87065W        W51885  39.740  33.832   0.030
87066W        W51886  37.922  19.020  14.909
87067W        W51887  27.130  28.107  12.491
87068W        W51888  12.731   7.640  10.660
87069W        W51889   8.178   2.614  14.982
87070W        W51890  27.193  42.247  12.996
87071W        W51891  42.756  19.692  12.878
87072W        W51892  27.573  43.311   2.936
87073W        W51893  16.187  19.791  13.427
87074W        W51894  36.450  21.065  14.813
87075W        W51895  30.211  20.651  11.504
87076W        W51896  34.932   6.286  13.401
87077W        W51897  11.956  38.967  10.809
87078W        W51898   5.001  41.499   1.160
87079W        W51899  25.984  15.480  10.063
87080W        W51900  24.651  15.980  12.030
87081W        W51901  11.780  20.432  10.662
87082W        W51902  12.705  38.026   4.712
87083W        W51903   5.686  38.489  14.503
87084W        W51904  19.543  11.642   2.175
87085W        W51905   3.142  21.807  12.930
87086W        W51906  22.241  11.562  11.552
87087W        W51907  12.866  27.650   3.264
87088W        W51908  14.853  27.485  11.570
87089W        W51909  32.177  40.555  13.151
87090W        W51910  13.846  27.925   0.885
87091W        W51911  22.677  37.778  12.253
87092W        W51912  18.261   1.530  11.005
87093W        W51913  31.537  29.371  10.779
87094W        W51914  15.516   1.853   4.963
87095W        W51915  16.726  11.873  14.864
87096W        W51916  10.976  37.618  11.451
87097W        W51917  27.172   1.328  11.402
87098W        W51918   0.722  20.535   1.245
87099W        W51919  21.006  36.343   4.088
87100W        W51920   7.353  17.732  14.979
87101W        W51921  31.902   2.430  12.375
87102W        W51922  32.856  28.532  14.372
87103W        W51923  33.393  38.680  13.340
87104W        W51924  38.506  32.025   3.230
87105W        W51925   9.757  44.623  10.558
87106W        W51926  30.888  37.080   4.202
87107W        W51927   3.817  13.583  13.435
87108W        W51928  36.311   0.209   3.405
87109W        W51929   7.359  36.596   3.366
87110W        W51930  21.578  20.190   4.569
87111W        W51931   6.666  11.482  11.502
87112W        W51932  24.498  39.360   3.488
87113W        W51933   3.686  36.440  14.854
87114W        W51934  42.354  31.463   2.765
87115W        W51935   6.958  33.640  10.831
87116W        W51936   5.241  42.858   0.977
87117W        W51937  30.071  26.030   3.821
87118W        W51938  44.675  42.392   3.001
87119W        W51939  15.522  18.230   2.763
87120W        W51940  26.561  43.464  12.199
87121W        W51941   4.174  16.261  12.534
87122W        W51942  30.552  25.238  13.026
87123W        W51943   5.156  13.061  12.318
87124W        W51944  36.847  43.378   4.186
87125W        W51945  24.184   6.963  13.772
87126W        W51946  22.655  31.794   2.686
87127W        W51947  26.670   8.116  11.895
87128W        W51948  41.745  27.068   3.594
87129W        W51949  31.437  22.568   2.424
87130W        W51950  25.502  33.005   1.224
87131W        W51951  30.575  37.436  13.320
87132W        W51952  15.042   3.929  12.819
87133W        W51953   6.901  21.623  10.317
87134W        W51954  29.602  44.873   4.257
87135W        W51955  17.438   0.873   0.831
87136W        W51956  37.014  10.958   2.110
87137W        W51957  15.070  21.698   1.776
87138W        W51958   0.253  18.927  14.441
87139W        W51959  27.029  32.151  14.054
87140W        W51960   9.490  20.663   3.283
87141W        W51961   2.338  23.738  10.781
87142W        W51962  27.040  34.054   2.202
87143W        W51963   4.685   9.299   0.889
87144W        W51964   6.857  21.577  14.517
87145W        W51965  22.171  25.313  11.920
87146W        W51966  14.267   8.689  10.132
87147W        W51967  44.460   6.846  13.508
87148W        W51968  24.488   9.911   2.826
87149W        W51969  21.197  19.308   2.739
87150W        W51970  26.418  19.340   1.321
87151W        W51971   3.146   1.692  10.750
87152W        W51972   1.486   0.303  11.149
87153W        W51973  19.174   1.523  10.915
87154W        W51974  44.939  23.857  10.306
87155W        W51975  21.795  16.114   1.744
87156W        W51976  19.333  36.431   0.385
87157W        W51977  30.766  39.509  13.398
87158W        W51978  15.027  10.727   0.005
87159W        W51979   8.963  21.667   1.244
87160W        W51980  25.449  22.129   3.174
87161W        W51981  36.079  39.038  11.637
87162W        W51982  25.117  26.093  12.076
87163W        W51983  29.482  38.477  12.365
87164W        W51984  31.640  16.882   3.652
87165W        W51985  35.163   1.903  14.459
87166W        W51986  17.252  31.469  13.591
87167W        W51987  25.742  17.900   5.443
87168W        W51988  14.243  20.213   3.117
87169W        W51989   2.432  25.941  13.500
87170W        W51990  25.929  36.541  10.700
87171W        W51991   5.850  28.127   1.974
87172W        W51992  40.242  25.147  14.315
87173W        W51993  42.654  28.726  12.831
87174W        W51994  27.014  24.558  12.170
87175W        W51995  12.181  13.222  10.809
87176W        W51996  20.050   4.398   4.178
87177W        W51997  18.819  28.995  11.956
87178W        W51998  39.286  17.276   3.263
87179W        W51999   1.957  42.543  11.227
87180W        W52000   4.447  40.245   4.616
87181W        W52001  39.568   3.571   0.386
87182W        W52002  30.019  18.062  12.903
87183W        W52003  27.568   6.307  14.406
87184W        W52004  35.808  22.270  10.370
87185W        W52005   8.968   3.499   5.147
87186W        W52006  26.009  24.689   1.731
87187W        W52007  10.602  28.935  11.912
87188W        W52008  30.735   4.175  13.485
87189W        W52009  43.985  12.466   1.941
87190W        W52010  10.288   8.932   2.192
87191W        W52011  30.015   8.394   4.840
87192W        W52012  15.518  17.851   3.551
87193W        W52013  30.780  34.025  11.576
87194W        W52014  39.532  19.901  12.408
87195W        W52015  13.331  19.994   1.843
87196W        W52016  35.876   5.285  13.624
87197W        W52017  24.348  36.877   2.300
87198W        W52018  42.816  29.681   1.851
87199W        W52019   8.476  17.393   2.283
87200W        W52020  35.777  35.913   1.067
87201W        W52021  30.195  20.075  11.175
87202W        W52022  38.734  39.321   2.950
87203W        W52023   4.764  13.216   0.455
87204W        W52024  44.911  36.486   1.976
87205W        W52025  20.343  25.407  10.978
87206W        W52026   0.161  25.015   4.813
87207W        W52027  26.725  37.932   4.581
87208W        W52028  25.119  16.798   3.608
87209W        W52029   9.247  41.508  12.437
87210W        W52030   2.700  18.573  11.149
87211W        W52031   6.970   0.031   0.411
87212W        W52032  19.606  44.894  12.140
87213W        W52033  29.585   6.695   2.360
87214W        W52034   9.945  26.069   3.014
87215W        W52035  22.166  41.683   3.540
87216W        W52036  38.249  40.660  12.499
87217W        W52037  37.645  25.008   0.030
87218W        W52038  42.184   9.705   3.878
87219W        W52039  33.375   5.574   2.584
87220W        W52040  41.501   5.453   3.620
87221W        W52041  31.135   3.508  11.146
87222W        W52042  39.779  10.592  11.968
87223W        W52043  31.649  36.157   0.976
87224W        W52044  39.856  35.067  13.930
87225W        W52045  37.133  24.477   3.587
87226W        W52046  44.730  19.151   1.351
87227W        W52047  42.910  15.040  14.011
87228W        W52048   8.089  41.766   1.103
87229W        W52049  22.216  18.953   2.795
87230W        W52050  21.514   4.098  14.095
87231W        W52051   4.465  18.643  11.804
87232W        W52052  28.509   6.509   4.574
87233W        W52053  42.839  25.319  14.626
87234W        W52054  40.190  26.079   3.679
87235W        W52055  28.988  10.197   0.015
87236W        W52056  10.605  30.603  13.319
87237W        W52057  33.825   9.969   0.264
87238W        W52058  32.239  19.552  14.785
87239W        W52059  31.579  32.499  13.404
87240W        W52060  43.999  20.611  12.431
87241W        W52061  28.656  38.600   3.296
87242W        W52062  20.273  25.334   2.492
87243W        W52063  24.146  43.293   2.945
87244W        W52064  19.205  14.833   2.844
87245W        W52065  20.085   6.187   2.319
87246W        W52066  28.804   8.382  12.917
87247W        W52067  41.086  33.809   3.058
87248W        W52068  33.147  31.724   3.659
87249W        W52069  43.422  11.270   1.767
87250W        W52070   8.480  21.149   3.676
87251W        W52071   8.219  27.969  13.381
87252W        W52072   1.710  12.526  12.426
87253W        W52073  21.969  41.900  12.906
87254W        W52074  20.745  40.564  11.930
87255W        W52075  13.789  28.254  13.297
87256W        W52076  18.221  11.668   0.815
87257W        W52077  19.738   5.724   1.525
87258W        W52078   7.297  40.010   3.503
87259W        W52079  23.949  42.809   4.655
87260W        W52080  16.017   7.773  13.294
87261W        W52081  22.781  24.447   2.977
87262W        W52082  19.500  12.725  11.057
87263W        W52083  37.266  11.626   1.256
87264W        W52084   5.186  23.267   3.963
87265W        W52085   1.319   3.056  11.804
87266W        W52086  35.568  18.366   3.218
87267W        W52087  35.148  41.761   0.419
87268W        W52088  25.643  38.350  12.520
87269W        W52089  20.608  31.045   2.714
87270W        W52090  10.723  13.329  10.624
87271W        W52091  25.817  19.422  13.456
87272W        W52092  31.067  20.701   2.627
87273W        W52093  43.889  28.923  14.153
87274W        W52094  19.672  19.688  13.956
87275W        W52095  30.049  10.153   0.865
87276W        W52096  44.829  33.932   4.568
87277W        W52097  41.002  34.302   3.018
87278W        W52098  26.930  39.481   3.863
87279W        W52099   7.918  42.998  13.783
87280W        W52100   6.317  28.437  12.563
87281W        W52101  33.101  34.861  13.332
87282W        W52102  36.272  41.945   3.304
87283W        W52103  20.710  26.094   1.029
87284W        W52104  14.043  39.086  12.842
87285W        W52105  41.449  32.209  11.627
87286W        W52106  12.082  20.612   2.143
87287W        W52107  21.238  33.680   0.155
87288W        W52108  11.837  21.224   0.379
87289W        W52109  26.689  11.691  11.109
87290W        W52110  39.338   9.341  14.810
87291W        W52111  35.517   0.816   4.828
87292W        W52112   4.860  40.322  12.143
87293W        W52113  39.161  36.392   0.542
87294W        W52114  29.532  18.616   3.684
87295W        W52115  41.319  35.395  11.738
87296W        W52116  21.427  12.246  12.897
87297W        W52117  17.344   7.421  14.478
87298W        W52118  41.035   5.630  13.495
87299W        W52119  19.526  39.464  12.553
87300W        W52120   7.885  29.469   3.992
87301W        W52121   9.857   8.435  11.096
87302W        W52122  35.913  37.697  13.886
87303W        W52123  24.544   0.942   2.739
87304W        W52124  26.767  13.138   4.157
87305W        W52125  36.711  43.313   0.340
87306W        W52126  36.786  10.213   2.571
87307W        W52127  26.481   0.331   2.222
87308W        W52128  20.537   0.155  14.259
87309W        W52129  35.664  18.632  11.576
87310W        W52130  41.010  36.597   1.875
87311W        W52131  26.217  23.200   3.659
87312W        W52132   8.176  15.860   0.493
87313W        W52133  41.605  24.268  14.542
87314W        W52134   8.326  30.848   4.001
87315W        W52135   4.082   9.307  11.270
87316W        W52136  35.086  14.074   0.969
87317W        W52137  22.156  29.362   1.237
87318W        W52138   7.065  20.663  13.375
87319W        W52139  37.787  15.318  11.676
87320W        W52140   9.643  16.752  12.581
87321W        W52141  44.467  33.460  12.941
87322W        W52142  13.114  19.656   3.138
87323W        W52143  34.092  31.034  10.745
87324W        W52144  33.945  12.371  10.428
87325W        W52145  22.435  25.476   1.956
87326W        W52146   5.122  35.271   2.644
87327W        W52147  23.324  33.348   4.591
87328W        W52148   0.522   9.531  11.624
87329W        W52149   2.041  41.331  13.946
87330W        W52150  25.651   2.077  10.803
87331W        W52151  25.788  24.665   4.078
87332W        W52152   2.815   1.229   1.338
87333W        W52153  38.889   7.150   2.836
87334W        W52154  43.759  37.128   2.624
87335W        W52155  27.484  43.901  14.282
87336W        W52156  24.441  14.368  13.880
87337W        W52157  40.085  28.098  13.446
87338W        W52158  28.893   0.189   4.713
87339W        W52159   6.450  12.774  10.120
87340W        W52160  30.854  11.137  13.881
87341W        W52161   9.802   9.458  14.880
87342W        W52162  29.680  28.128  11.726
87343W        W52163   9.970  42.443  12.039
87344W        W52164  29.840  43.304  13.409
87345W        W52165  26.518   1.052   0.778
87346W        W52166  20.803  38.242  14.560
87347W        W52167  26.589  38.952   1.143
87348W        W52168  22.962  40.586   3.394
87349W        W52169  11.788  26.112  10.091
87350W        W52170  17.540   4.126  10.361
87351W        W52171   4.303   0.267   2.853
87352W        W52172  15.685  41.903   4.926
87353W        W52173  20.034  41.357   3.739
87354W        W52174   6.820  44.771  11.612
87355W        W52175  35.461  10.984   4.556
87356W        W52176  14.774  36.924   2.770
87357W        W52177   5.355   9.700   2.367
87358W        W52178  10.260  26.313   0.455
87359W        W52179  14.590   6.141   1.912
87360W        W52180  33.639  27.163  10.782
87361W        W52181  22.990  44.162  12.403
87362W        W52182   5.170  33.953   3.282
87363W        W52183  28.288  29.227  11.717
87364W        W52184  17.367  26.866   2.692
87365W        W52185  38.046  39.578  10.874
87366W        W52186   6.747  30.099  13.135
87367W        W52187  15.043  41.396  11.622
87368W        W52188   4.160  39.278   1.878
87369W        W52189  34.083   2.825  10.387
87370W        W52190  26.163  22.783  12.791
87371W        W52191   0.701  18.669  12.431
87372W        W52192  28.179  16.595  12.917
87373W        W52193  28.822  18.835   3.329
87374W        W52194  32.995  40.190   1.339
87375W        W52195  29.409  29.529  12.653
87376W        W52196  23.212  32.895   0.764
87377W        W52197  43.597  21.318  14.789
87378W        W52198  17.825  42.372  11.554
87379W        W52199  20.632  37.363   3.267
87380W        W52200   1.476  20.491  14.380
87381W        W52201  17.169  14.043   0.929
87382W        W52202  34.971   7.731  14.182
87383W        W52203  10.783  31.665  12.446
87384W        W52204  33.070  41.599   1.481
87385W        W52205  33.171  14.352   0.241
87386W        W52206   9.138  28.172   0.969
87387W        W52207  18.115   9.388   2.904
87388W        W52208  17.322  24.762   0.731
87389W        W52209  13.368  17.221   1.163
87390W        W52210  39.508  43.460   0.264
87391W        W52211  18.308   8.373   0.397
87392W        W52212  26.184  12.543   3.269
87393W        W52213   3.324  17.304   0.036
87394W        W52214  40.287  43.686  14.749
87395W        W52215  39.774  35.047  11.145
87396W        W52216   4.148  34.775  10.740
87397W        W52217  26.977  33.104   3.427
87398W        W52218  34.682   2.699  13.932
87399W        W52219  38.870  14.742  11.980
87400W        W52220   9.435  30.493   3.692
87401W        W52221  12.402  30.369   3.477
87402W        W52222  43.764  27.959   0.362
87403W        W52223  17.987   9.812   4.196
87404W        W52224  17.446  24.842   1.675
87405W        W52225  19.065  32.430  10.692
87406W        W52226  26.497  27.385  13.516
87407W        W52227   0.331  27.164  14.361
87408W        W52228  42.250  40.659   3.560
87409W        W52229  43.214  36.909  10.570
87410W        W52230  26.037  15.167   4.237
87411W        W52231  28.980  22.997   2.315
87412W        W52232   7.587  39.546   2.257
87413W        W52233   7.287  17.560   4.112
87414W        W52234  26.590  22.442  12.611
87415W        W52235  36.986  31.653   2.291
87416W        W52236  20.451  40.927   3.775
87417W        W52237  43.869  36.021  13.559
87418W        W52238  31.058  32.873   4.587
87419W        W52239  33.039  25.621   4.414
87420W        W52240   9.645  24.593  10.376
87421W        W52241  25.033  21.998  11.771
87422W        W52242  26.378  43.940   4.572
87423W        W52243  34.649  13.701  10.475
87424W        W52244  39.935  39.649  11.317
87425W        W52245   8.030  30.637  10.679
87426W        W52246  31.202  35.031  14.881
87427W        W52247   5.220  40.382   0.865
87428W        W52248  25.420  17.798   1.888
87429W        W52249   8.630   5.198  10.743
87430W        W52250  26.736  42.794   2.767
87431W        W52251  39.580  35.948  13.286
87432W        W52252   1.988  44.800   4.209
87433W        W52253  38.999  33.585  14.822
87434W        W52254   6.841  20.930  11.656
87435W        W52255  28.756  23.749  14.802
87436W        W52256  33.922  10.273  14.845
87437W        W52257  12.186  37.963   4.047
87438W        W52258  31.588   2.251   1.015
87439W        W52259  12.563  18.030   4.649
87440W        W52260  37.542  42.939  10.770
87441W        W52261   4.321  16.302  14.396
87442W        W52262  39.692   2.236  11.469
87443W        W52263  12.746  14.095   0.722
87444W        W52264  10.653   6.833  13.594
87445W        W52265  40.593  12.209  12.996
87446W        W52266  17.128  14.279  10.706
87447W        W52267  25.202  36.999   1.743
87448W        W52268   9.316  12.000   3.121
87449W        W52269   0.482  24.947  12.348
87450W        W52270  31.376  22.548  11.647
87451W        W52271   3.923  34.813   1.343
87452W        W52272  29.104  38.623  13.006
87453W        W52273  32.110  32.146  14.742
87454W        W52274  16.916   8.890   3.077
87455W        W52275  34.894  31.135   4.862
87456W        W52276  25.965  44.286  11.606
87457W        W52277   3.790  42.201  11.816
87458W        W52278  10.234   5.776   2.709
87459W        W52279   0.429  34.702  14.063
87460W        W52280  23.240   6.653  11.607
87461W        W52281  26.780  11.885  14.441
87462W        W52282  41.965  21.569   4.095
87463W        W52283   4.399  35.238  10.622
87464W        W52284  10.355  13.183  13.870
87465W        W52285  41.373  20.899  13.972
87466W        W52286  35.955   5.411  14.114
87467W        W52287   1.405  32.937  12.524
87468W        W52288   3.654   6.129   3.506
87469W        W52289   4.507  25.630  12.158
87470W        W52290  26.135   3.413  10.733
87471W        W52291  19.403  31.997   1.895
87472W        W52292  14.148  23.527  10.802
87473W        W52293  24.931  38.517  14.338
87474W        W52294  15.514   6.744   0.439
87475W        W52295  30.426  23.911  14.071
87476W        W52296  15.857  25.137  14.316
87477W        W52297  30.153  18.097   2.438
87478W        W52298  25.437   3.516  13.948
87479W        W52299  39.353  29.097  13.289
87480W        W52300  31.305  22.539  13.166
87481W        W52301  14.064   9.285   2.410
87482W        W52302  15.442  32.115   4.536
87483W        W52303  32.733  23.037   3.667
87484W        W52304  24.000  26.135  14.883
87485W        W52305  29.236  40.816   4.131
87486W        W52306   0.423  23.478   1.159
87487W        W52307  36.217  12.876  13.726
87488W        W52308   5.789   4.183   1.850
87489W        W52309  44.341  21.534   0.897
87490W        W52310  28.411  33.058   1.786
87491W        W52311  41.309  18.273   3.335
87492W        W52312   0.748  24.781  12.781
87493W        W52313  38.597   8.577   1.508
87494W        W52314  19.217  40.557  14.728
87495W        W52315   3.700  36.082  13.348
87496W        W52316  10.738  25.975  13.760
87497W        W52317  14.927  40.859   4.077
87498W        W52318  28.124  29.434   1.530
87499W        W52319  13.755  23.943   4.490
87500W        W52320  31.067  12.168  12.798
87501W        W52321  20.778  29.664  12.938
87502W        W52322  27.719  27.476   3.862
87503W        W52323  15.816  23.195  13.943
87504W        W52324  34.072   3.933   2.328
87505W        W52325  37.443   2.944  13.965
87506W        W52326  26.765  34.220  14.890
87507W        W52327  27.578   5.696   3.694
87508W        W52328  35.710   9.391  12.534
87509W        W52329   9.593  41.354   3.270
87510W        W52330  21.568  36.161  10.645
87511W        W52331   7.946   5.410   1.416
87512W        W52332  28.181  17.115   0.464
87513W        W52333  43.867   5.751   1.111
87514W        W52334  13.186  18.655   2.218
87515W        W52335   6.663  42.480  12.893
87516W        W52336  17.713  14.257  13.451
87517W        W52337   9.609  24.559   2.245
87518W        W52338  24.175  15.775  12.907
87519W        W52339  31.435  40.484   3.773
87520W        W52340   0.371  12.838  12.015
87521W        W52341  26.126  21.162   4.498
87522W        W52342  18.101   2.383  12.655
87523W        W52343  44.911  35.924  11.630
87524W        W52344   6.413  36.396  13.579
87525W        W52345  32.983  34.782  11.575
87526W        W52346  29.737   1.401   0.495
87527W        W52347   5.256  31.502  12.446
87528W        W52348  23.284  26.601  14.978
87529W        W52349  13.695   2.297  14.392
87530W        W52350  17.706  22.301  13.344
87531W        W52351   5.368   4.477   1.875
87532W        W52352  21.652  15.744  14.776
87533W        W52353  16.286  17.967   0.343
87534W        W52354   4.863  34.608   4.020
87535W        W52355  20.584  12.821  11.981
87536W        W52356  40.461  34.642   4.247
87537W        W52357   3.447   3.480   1.209
87538W        W52358  30.476  21.050  11.331
87539W        W52359  13.653  15.723  11.928
87540W        W52360  35.135  43.304   2.736
87541W        W52361  11.849  17.704  14.028
87542W        W52362  12.086  23.996  12.012
87543W        W52363  21.603  28.612  14.459
87544W        W52364  42.350  19.953  14.521
87545W        W52365  29.348  22.435  11.486
87546W        W52366  43.384  38.372   0.400
87547W        W52367  30.537  38.255   4.671
87548W        W52368   6.645  14.200  11.357
87549W        W52369  33.552  23.528  11.914
87550W        W52370  34.972   8.847   2.195
87551W        W52371  14.372  38.631  10.746
87552W        W52372  43.334  10.155   4.409
87553W        W52373  13.560  43.953   1.180
87554W        W52374   7.358  35.192   2.310
87555W        W52375   0.264  37.205  14.054
87556W        W52376   8.738  15.107   3.183
87557W        W52377  27.459   1.657  13.837
87558W        W52378  16.377  12.007  12.150
87559W        W52379  19.152  16.606   2.977
87560W        W52380  22.095  12.718  13.201
87561W        W52381  31.188   0.633   3.106
87562W        W52382  26.976  28.654  13.598
87563W        W52383  24.956  11.177  13.948
87564W        W52384  44.806  27.279  14.881
87565W        W52385  37.893  32.545  11.220
87566W        W52386  25.624  44.527   0.470
87567W        W52387  19.916  24.183   0.798
87568W        W52388   4.272  29.677   3.660
87569W        W52389   2.841   2.364   4.682
87570W        W52390  32.400  19.952   0.521
87571W        W52391  16.140  19.608  14.348
87572W        W52392  34.604   8.009   0.956
87573W        W52393  39.876   3.151   2.402
87574W        W52394  31.807   2.259   2.450
87575W        W52395  37.988  32.987  10.982
87576W        W52396  12.292  43.802   4.821
87577W        W52397  14.239  43.189  12.504
87578W        W52398   5.399   8.904  13.468
87579W        W52399  23.627   4.405  14.956
87580W        W52400   7.232   8.447   2.094
87581W        W52401   5.203   4.629   0.414
87582W        W52402  17.790  31.490   0.072
87583W        W52403   8.406  42.079  13.952
87584W        W52404  16.175   4.913   4.588
87585W        W52405   6.349  14.852  13.915
87586W        W52406  39.851  30.848  11.152
87587W        W52407  14.295  14.129   4.622
87588W        W52408   1.719  30.210  13.115
87589W        W52409  26.588   3.914   3.195
87590W        W52410  44.913  21.645  11.873
87591W        W52411   1.323   8.327  12.918
87592W        W52412  41.735   0.202  11.270
87593W        W52413  14.907  17.691   0.429
87594W        W52414  44.950  25.373   3.937
87595W        W52415  34.844  29.976   4.794
87596W        W52416  19.018  42.510   0.468
87597W        W52417  12.768  43.592   0.350
87598W        W52418  25.985  31.670  12.520
87599W        W52419  25.491   1.536  10.754
87600W        W52420  36.924  16.293   1.274
87601W        W52421   3.987  11.202   4.596
87602W        W52422  27.933  38.478   2.768
87603W        W52423  18.801  31.444   4.011
87604W        W52424  17.131  19.560   3.264
87605W        W52425  29.129  44.744  13.472
87606W        W52426   6.483  31.964   1.177
87607W        W52427  31.085   8.187  13.359
87608W        W52428  26.520  40.458   4.472
87609W        W52429  41.298  44.687   3.183
87610W        W52430  14.572  33.163   3.692
87611W        W52431  29.642  19.012   2.296
87612W        W52432   6.666  40.865  11.575
87613W        W52433   1.726  22.034   1.781
87614W        W52434   3.991   1.290  12.123
87615W        W52435   0.992  41.813  10.755
87616W        W52436  18.687  25.137  14.501
87617W        W52437  24.439  34.972   0.772
87618W        W52438  27.616  18.524   0.042
87619W        W52439  35.995  34.283  11.095
87620W        W52440  44.976  23.753  12.299
87621W        W52441  39.245   2.837   4.692
87622W        W52442   8.057  41.351   5.054
87623W        W52443  18.638  19.748  12.872
87624W        W52444  40.845  14.858  13.307
87625W        W52445  14.818  24.988  12.720
87626W        W52446  10.034  17.428  10.324
87627W        W52447  23.720  25.087  10.830
87628W        W52448   1.443  28.486   2.765
87629W        W52449  30.231   7.974  11.127
87630W        W52450  11.342  18.144  10.403
87631W        W52451  16.960  41.009  10.846
87632W        W52452   3.244  37.002   4.424
87633W        W52453  22.252   8.153   3.609
87634W        W52454  25.129   4.338  11.382
87635W        W52455  27.608  21.572   4.640
87636W        W52456  42.274  30.081   2.452
87637W        W52457  20.683   9.827   1.015
87638W        W52458   4.430   1.347   0.809
87639W        W52459  21.598  14.318  11.874
87640W        W52460   5.690  13.254   0.095
87641W        W52461  42.337  34.408   2.492
87642W        W52462  43.027  41.130   2.758
87643W        W52463  42.024  15.599  14.547
87644W        W52464   3.445  20.277  12.035
87645W        W52465  27.071  19.049  12.961
87646W        W52466   0.811  43.457  14.447
87647W        W52467  44.499  21.647  12.553
87648W        W52468   8.069  42.395  12.914
87649W        W52469  13.429  44.362  13.380
87650W        W52470  17.974  28.093  10.938
87651W        W52471   0.865  17.786  12.074
87652W        W52472   5.988  31.606  12.609
87653W        W52473  25.039  15.463   1.763
87654W        W52474  30.637  28.461  12.120
87655W        W52475  18.326  26.560  12.455
87656W        W52476  44.784  19.954   2.476
87657W        W52477  18.189   8.387  12.557
87658W        W52478  16.721  24.878   2.529
87659W        W52479   9.877  13.430  13.893
87660W        W52480   0.711  35.716  12.000
87661W        W52481  40.812  37.675   4.596
87662W        W52482   5.501  25.983  14.172
87663W        W52483  44.607  33.244   2.372
87664W        W52484  28.488   4.922   2.688
87665W        W52485  31.707  20.557   1.863
87666W        W52486  43.767  20.336  14.942
87667W        W52487  16.498  41.150  13.275
87668W        W52488   3.030  12.088  10.443
87669W        W52489  12.683  32.814   0.988
87670W        W52490  20.444  33.581   0.756
87671W        W52491  19.036  42.498  14.947
87672W        W52492  15.618   3.813   9.995
87673W        W52493  15.833  16.635  13.151
87674W        W52494  39.481  32.634  12.095
87675W        W52495  44.832   6.963  11.173
87676W        W52496  19.166   6.233   2.017
87677W        W52497  41.431  20.191   0.371
87678W        W52498   4.668  14.867   1.180
87679W        W52499  31.831  22.006   1.208
87680W        W52500  26.591  11.323   3.110
87681W        W52501  14.368  21.168   0.875
87682W        W52502   7.499  17.757  11.542
87683W        W52503  11.803  42.578   3.190
87684W        W52504  12.514  31.855  12.076
87685W        W52505  21.802   1.732   3.659
87686W        W52506   6.439  43.221  13.297
87687W        W52507  10.500   4.337  13.097
87688W        W52508  32.853  27.164   3.063
87689W        W52509  43.980   1.154   2.367
87690W        W52510   4.102  43.426   0.419
87691W        W52511  18.035  29.519  11.929
87692W        W52512  29.157  29.462   1.920
87693W        W52513   8.615  38.065   4.006
87694W        W52514  42.065   1.351  10.689
87695W        W52515  10.912  30.103   1.712
87696W        W52516  23.327  22.612   2.872
87697W        W52517   0.735  38.884  11.075
87698W        W52518  29.050   2.280   0.938
87699W        W52519  38.299   3.463  11.143
87700W        W52520  22.480  21.515  11.993
87701W        W52521  39.921  40.924  10.878
87702W        W52522   0.724  21.096   2.738
87703W        W52523   0.641  37.644  12.573
87704W        W52524  16.853   5.298  14.847
87705W        W52525   7.331  24.291   2.084
87706W        W52526  25.146  13.594   4.137
87707W        W52527  31.898  21.561  11.239
87708W        W52528  20.192   5.980  14.995
87709W        W52529  40.949   9.179  10.445
87710W        W52530  26.964   9.078   1.933
87711W        W52531  42.580  29.671  11.544
87712W        W52532   5.981  32.403  11.205
87713W        W52533  34.063  17.155  11.083
87714W        W52534   7.443  29.945  11.106
87715W        W52535  19.251  35.352   2.337
87716W        W52536  37.002   8.665  14.495
87717W        W52537  17.173   2.192   3.347
87718W        W52538  15.898  38.372   4.556
87719W        W52539  20.614  29.179   1.689
87720W        W52540  13.094  21.253  14.658
87721W        W52541  37.499  11.862   5.130
87722W        W52542  16.049  26.977  12.470
87723W        W52543  12.095  41.844   1.782
87724W        W52544  10.860  12.665   1.747
87725W        W52545  29.239  10.841  10.731
87726W        W52546  10.354  30.249   0.882
87727W        W52547  21.360  32.497  13.186
87728W        W52548  22.653  10.258   0.301
87729W        W52549  25.494  40.481   4.608
87730W        W52550   7.380   2.563  13.057
87731W        W52551  32.593  23.444   4.201
87732W        W52552  10.869  37.832   3.272
87733W        W52553   0.665  40.920   2.834
87734W        W52554   8.939  23.539   1.273
87735W        W52555  35.729  23.594   4.507
87736W        W52556  32.438  34.877  14.412
87737W        W52557  24.185   0.774  12.945
87738W        W52558  11.142  34.724   0.233
87739W        W52559  21.702  21.587   0.867
87740W        W52560  11.677  17.639   4.946
87741W        W52561  28.109  30.535   3.714
87742W        W52562  12.355   0.730   3.920
87743W        W52563  41.837   5.680   4.865
87744W        W52564  17.127   5.319  13.388
87745W        W52565  23.883  39.712   0.019
87746W        W52566  14.302   1.268   1.538
87747W        W52567  43.471   0.441   3.189
87748W        W52568   9.983   3.886   3.842
87749W        W52569  24.988  38.994  13.532
87750W        W52570  10.190  30.329   4.515
87751W        W52571  19.254   4.750  13.021
87752W        W52572  42.428  17.763  11.522
87753W        W52573  28.172  22.122   2.696
87754W        W52574   1.055  40.929   1.355
87755W        W52575  10.807  22.459   4.741
87756W        W52576  44.025  41.484   0.926
87757W        W52577  21.679  15.610   0.807
87758W        W52578  20.766  17.032   2.859
87759W        W52579  38.395  39.158   1.265
87760W        W52580  10.157  11.297  12.024
87761W        W52581  41.527  40.388   4.755
87762W        W52582   7.785   6.467   4.616
87763W        W52583  38.441  16.829  12.507
87764W        W52584  32.472   2.089   0.568
87765W        W52585   8.273   6.953   2.146
87766W        W52586   6.180  37.051   3.270
87767W        W52587  38.338  39.279   0.361
87768W        W52588  30.405  44.489   3.710
87769W        W52589  23.015  13.178  14.991
87770W        W52590  27.590  16.514  12.323
87771W        W52591  12.098  41.754  10.892
87772W        W52592   7.649  32.741  14.662
87773W        W52593  22.463  40.959   1.425
87774W        W52594  33.888  38.276   2.696
87775W        W52595   2.920  41.521   1.834
87776W        W52596  22.912   3.043   3.834
87777W        W52597  17.614  39.924  11.720
87778W        W52598  15.821  18.303   3.263
87779W        W52599   8.827  44.556   4.154
87780W        W52600  44.339  26.986  14.866
87781W        W52601  12.165  17.567   0.136
87782W        W52602  22.415  43.194   0.792
87783W        W52603  28.531  13.455  12.569
87784W        W52604   9.460  20.327  12.891
87785W        W52605  19.840   1.665   2.471
87786W        W52606   2.786  40.591   3.749
87787W        W52607  27.140   4.497   1.744
87788W        W52608   3.785  28.722  13.485
87789W        W52609  19.651  27.056  12.463
87790W        W52610  12.240  35.126   0.831
87791W        W52611  13.238  20.151  11.587
87792W        W52612  11.772  16.770   3.095
87793W        W52613   3.800  26.909  11.382
87794W        W52614   1.883  43.314   2.550
87795W        W52615  44.427  42.298  12.154
87796W        W52616   7.519  24.292  10.038
87797W        W52617  15.204   9.452   0.715
87798W        W52618  33.079  43.002  13.481
87799W        W52619  30.060   8.750   3.401
87800W        W52620  37.491   9.909  13.475
87801W        W52621  17.941  28.499  11.292
87802W        W52622  27.155   7.243  12.566
87803W        W52623  39.526  19.238   4.507
87804W        W52624  13.026  41.022   4.510
87805W        W52625  21.163  31.038   1.646
87806W        W52626  42.830  27.185   3.932
87807W        W52627   8.833   4.262   4.541
87808W        W52628   2.266  12.806   0.885
87809W        W52629  40.118   1.178   1.306
87810W        W52630  16.261   9.913  11.515
87811W        W52631   2.847  33.147   1.290
87812W        W52632  26.163   2.816   0.946
87813W        W52633  43.917   3.730   0.814
87814W        W52634  23.985  38.778  11.216
87815W        W52635   7.283  31.836  12.018
87816W        W52636  38.403  39.790   0.406
87817W        W52637  39.248   6.630   1.228
87818W        W52638  43.258  32.027   2.324
87819W        W52639  12.194  18.882   4.661
87820W        W52640   0.193  25.982   0.820
87821W        W52641  32.719  25.611   0.841
87822W        W52642  12.947   9.716   4.451
87823W        W52643   0.329  36.317   1.168
87824W        W52644  32.924   9.690  10.816
87825W        W52645  43.278  39.628   0.892
87826W        W52646  27.186  34.866  11.224
87827W        W52647  17.407   6.471  12.865
87828W        W52648  31.459  15.383   4.129
87829W        W52649  28.111  36.491   1.718
87830W        W52650   1.501   9.329   0.848
87831W        W52651   5.122  30.765  14.495
87832W        W52652  34.392   0.087   4.903
87833W        W52653  18.769  24.297   4.536
87834W        W52654  34.630  23.264   4.008
87835W        W52655  39.272  26.094  12.583
87836W        W52656  43.593  20.988   1.568
87837W        W52657  24.781  31.638  12.336
87838W        W52658  25.059  42.958   0.337
87839W        W52659  34.050  34.132  10.762
87840W        W52660  34.620   6.949  14.426
87841W        W52661  41.034  21.475   3.093
87842W        W52662  34.047  29.642   0.788
87843W        W52663  39.526  25.205  14.712
87844W        W52664  24.297  41.539   4.300
87845W        W52665   1.142  11.079  12.976
87846W        W52666  21.883  33.006  11.080
87847W        W52667  10.129  23.876  14.596
87848W        W52668  22.760  20.027   0.907
87849W        W52669  17.539  43.375   0.914
87850W        W52670  10.346  38.389  14.767
87851W        W52671  10.353  33.380   0.461
87852W        W52672  19.084  27.208   0.417
87853W        W52673   7.309  43.693   4.455
87854W        W52674  20.969  26.307   4.192
87855W        W52675   2.821  21.789  14.329
87856W        W52676  23.480  25.937   1.929
87857W        W52677  40.054   8.558   2.827
87858W        W52678  40.942  23.797   3.437
87859W        W52679   9.615  14.826   2.187
87860W        W52680  38.120  42.852   1.733
87861W        W52681  36.306  16.782  13.801
87862W        W52682  42.730  26.690  10.776
87863W        W52683  20.068  16.099  14.437
87864W        W52684   9.293  10.343   4.177
87865W        W52685  15.249  23.913   2.001
87866W        W52686  10.125  39.110  11.182
87867W        W52687  19.889  35.842   1.425
87868W        W52688  43.968  39.832  11.042
87869W        W52689  22.221  32.395  12.021
87870W        W52690  15.386   3.049   3.518
87871W        W52691  43.523  32.369  14.796
87872W        W52692   9.438   8.242   4.599
87873W        W52693   0.704  42.395   2.662
87874W        W52694  29.261  19.595  13.984
87875W        W52695  30.838  13.367   2.618
87876W        W52696  10.695  22.329   1.479
87877W        W52697  26.124   3.360   4.187
87878W        W52698  39.560   4.280  14.252
87879W        W52699   7.229  15.239   2.814
87880W        W52700  27.057  24.277   2.474
87881W        W52701  23.515   8.436   2.348
87882W        W52702  31.664   6.733   3.751
87883W        W52703  34.017  42.233   4.552
87884W        W52704  35.604  27.967  11.197
87885W        W52705   5.655  30.621   0.319
87886W        W52706  15.309  17.333  14.817
87887W        W52707  42.440  35.992  12.657
87888W        W52708   1.070  27.533   2.575
87889W        W52709  14.640  18.829   0.845
87890W        W52710   6.507  15.649   3.123
87891W        W52711   5.212  17.603   2.307
87892W        W52712  42.069  19.654  12.379
87893W        W52713  35.208  22.258  13.863
87894W        W52714  40.285  26.996   4.656
87895W        W52715  29.975  23.725   5.148
87896W        W52716  34.266  38.809  12.973
87897W        W52717  14.771  33.215   0.854
87898W        W52718  24.938  32.428  14.550
87899W        W52719  28.849  44.348  13.285
87900W        W52720   7.424  39.280   3.502
87901W        W52721  32.533   0.733   0.424
87902W        W52722   7.850  28.094   1.396
87903W        W52723   6.894  38.331   1.955
87904W        W52724   6.811  29.935   0.455
87905W        W52725  13.707   6.274   3.510
87906W        W52726   5.744  10.059   0.526
87907W        W52727  11.277  17.699   0.096
87908W        W52728  40.015   6.021  10.668
87909W        W52729  15.853  26.939   5.065
87910W        W52730  36.283  28.250   1.758
87911W        W52731  31.156   0.768  11.260
87912W        W52732  24.680   9.655   5.055
87913W        W52733  38.394  24.910   2.816
87914W        W52734   2.869  29.382   3.766
87915W        W52735  18.556  13.745   4.010
87916W        W52736  20.437  26.194   1.483
87917W        W52737  11.392  23.990   1.237
87918W        W52738  37.106   3.948  12.044
87919W        W52739  10.222  20.248  11.411
87920W        W52740  10.489   8.796  14.884
87921W        W52741  39.272   7.934   2.042
87922W        W52742  35.136  22.524   1.242
87923W        W52743  17.573  37.004   0.131
87924W        W52744  39.556  38.428   1.951
87925W        W52745  30.948  31.387  12.972
87926W        W52746   2.668  12.961  13.369
87927W        W52747   6.777  17.970  11.104
87928W        W52748  28.749  25.153  11.682
87929W        W52749  14.249  25.082   4.319
87930W        W52750  26.849  29.141  12.357
87931W        W52751  30.387  38.380   4.179
87932W        W52752  19.603  16.981  13.558
87933W        W52753   8.734  40.963  11.642
87934W        W52754  28.498  40.204  14.058
87935W        W52755  26.522   1.640   3.324
87936W        W52756  12.814   6.653   2.212
87937W        W52757   8.340  39.599   0.686
87938W        W52758  27.393  34.418   1.385
87939W        W52759  43.422  15.854  10.644
87940W        W52760  35.766  25.241   2.585
87941W        W52761  36.357  37.046   0.361
87942W        W52762   3.222  34.978   3.739
87943W        W52763  12.086  42.540   1.352
87944W        W52764  27.729   2.295   3.387
87945W        W52765  43.332   3.977  12.496
87946W        W52766   1.368  22.214   2.287
87947W        W52767  43.462  24.736  11.969
87948W        W52768  32.236  20.509  11.486
87949W        W52769   8.318  43.399  13.116
87950W        W52770   7.566  33.516  14.456
87951W        W52771  26.556  33.028  12.517
87952W        W52772  13.709  27.518   0.448
87953W        W52773  10.806  21.962   4.009
87954W        W52774  23.422  36.028  13.424
87955W        W52775  15.673   0.827  11.139
87956W        W52776   2.213  22.100   1.949
87957W        W52777  30.811  29.454   2.800
87958W        W52778   3.526   5.585  12.664
87959W        W52779  24.645  25.545  14.506
87960W        W52780  32.899  44.120  12.839
87961W        W52781   2.969  36.940  12.670
87962W        W52782  11.214  42.038  11.607
87963W        W52783  27.359   1.973   4.440
87964W        W52784   2.116  28.877   1.314
87965W        W52785  29.603   2.716  12.942
87966W        W52786  24.078  16.317   1.644
87967W        W52787  18.569  37.115  13.437
87968W        W52788  21.280  16.986  10.647
87969W        W52789   2.453  39.145   2.410
87970W        W52790  26.114  31.022   4.872
87971W        W52791  44.410  31.795   1.760
87972W        W52792  16.192  28.942  14.954
87973W        W52793  13.751  32.494  13.395
87974W        W52794  29.596  12.191   3.313
87975W        W52795   8.335  40.113   0.315
87976W        W52796   6.581  23.477   1.877
87977W        W52797  38.111  36.418   0.375
87978W        W52798  25.977  33.689   1.704
87979W        W52799   0.024  30.111  10.648
87980W        W52800  24.040  12.507   1.315
87981W        W52801  29.757  36.199  12.050
87982W        W52802  28.597   3.324  14.293
87983W        W52803  35.446  34.912   3.630
87984W        W52804   0.676  24.718   1.677
87985W        W52805  23.269  26.934   3.953
87986W        W52806  21.116   1.358   2.973
87987W        W52807  16.741  33.374   1.862
87988W        W52808  40.943  11.815   5.066
87989W        W52809  41.896  13.195   3.590
87990W        W52810   8.364  33.861  11.888
87991W        W52811  16.017  17.057   3.014
87992W        W52812  40.442  16.227   0.210
87993W        W52813  39.321  35.510   4.587
87994W        W52814   3.231  17.206  14.117
87995W        W52815  38.607  21.950   0.821
87996W        W52816  19.345  41.066  12.954
87997W        W52817  29.627  11.416   4.702
87998W        W52818  38.346   3.076   2.070
87999W        W52819  28.495   5.761  12.428
88000W        W52820   2.768  17.141   0.189
88001W        W52821  23.758  12.955  13.870
88002W        W52822  42.221  41.604   2.376
88003W        W52823  37.328  17.487  11.261
88004W        W52824  38.828  14.205  12.466
88005W        W52825  11.107   2.111  10.756
88006W        W52826  41.050  18.541   1.216
88007W        W52827  42.217  26.020  13.573
88008W        W52828  25.534  20.195   0.942
88009W        W52829  44.808  40.495  10.694
88010W        W52830  29.278   8.638   2.237
88011W        W52831   8.064  24.302   4.625
88012W        W52832   6.265  35.125   1.036
88013W        W52833  41.244  24.616  11.897
88014W        W52834   9.627  44.168  11.756
88015W        W52835   1.361  42.078  10.476
88016W        W52836   9.115  26.202  13.231
88017W        W52837  31.666  37.498  12.292
88018W        W52838  32.442   0.287  13.379
88019W        W52839  17.529   1.191   3.969
88020W        W52840  13.200  26.589  11.123
88021W        W52841  13.136  19.444  12.098
88022W        W52842  24.723  18.190  14.899
88023W        W52843  43.773  15.872   1.159
88024W        W52844  25.742   9.259   0.057
88025W        W52845  15.447  38.489  12.440
88026W        W52846   6.478   7.694  12.553
88027W        W52847   0.451  28.381  12.961
88028W        W52848  14.102   8.995  12.406
88029W        W52849  30.397   4.938   0.428
88030W        W52850  33.864  27.495  12.023
88031W        W52851  27.922  26.648  13.430
88032W        W52852   9.769  30.512   4.876
88033W        W52853  16.628  39.756   2.350
88034W        W52854  40.487  33.687   9.853
88035W        W52855  35.662   6.677   0.196
88036W        W52856  11.240  20.289  10.687
88037W        W52857  25.219   8.242  12.002
88038W        W52858  13.720  38.481  14.774
88039W        W52859  13.219  30.455   2.271
88040W        W52860  43.337   1.233   3.681
88041W        W52861  38.573   1.771   0.903
88042W        W52862  18.648  27.965  11.519
88043W        W52863  32.114   5.161  13.961
88044W        W52864  40.868  23.794  14.020
88045W        W52865   8.646   0.816  10.303
88046W        W52866  27.927  39.066  14.543
88047W        W52867  37.681  32.783  10.608
88048W        W52868  39.040  44.012  11.679
88049W        W52869  21.922  18.195   1.438
88050W        W52870  42.046  21.462   2.194
88051W        W52871  26.178   3.169   4.699
88052W        W52872  34.107  22.205  11.523
88053W        W52873  28.755  19.113  12.803
88054W        W52874  19.311  29.998  14.886
88055W        W52875  10.669  27.446  13.954
88056W        W52876  11.463  14.758   4.132
88057W        W52877  31.170  35.592  11.571
88058W        W52878  37.049   5.449  14.426
88059W        W52879   3.746  27.267  10.885
88060W        W52880  22.910  18.300  12.077
88061W        W52881  19.032  20.788   2.198
88062W        W52882   1.880   5.026   4.577
88063W        W52883  41.074  18.782  11.740
88064W        W52884  34.992   1.677  13.481
88065W        W52885  36.009  41.405  12.515
88066W        W52886  27.627   1.929  11.896
88067W        W52887  21.014   3.941   0.509
88068W        W52888  36.105  42.443  13.959
88069W        W52889  44.365  16.465  12.441
88070W        W52890  25.974  30.050  10.842
88071W        W52891   3.861  10.354  11.020
88072W        W52892   5.057  39.416   1.365
88073W        W52893  34.336  35.604   0.178
88074W        W52894  13.847   9.505  11.636
88075W        W52895  36.045  29.072   1.565
88076W        W52896  29.615  27.396   0.345
88077W        W52897  28.885  38.588  14.638
88078W        W52898  35.065  25.887  13.792
88079W        W52899  13.710  11.420  14.941
88080W        W52900   3.513  40.876   1.808
88081W        W52901  30.077  25.022  12.055
88082W        W52902   2.224  32.975   4.084
88083W        W52903  28.286  38.852   2.555
88084W        W52904  22.238  19.623   0.328
88085W        W52905  24.582  29.393   2.533
88086W        W52906  16.766   0.365   0.357
88087W        W52907   1.737  15.772   2.996
88088W        W52908  24.293  35.380   1.925
88089W        W52909   9.074  27.104  10.337
88090W        W52910   0.523  15.721  14.449
88091W        W52911  18.783  25.232   2.713
88092W        W52912  11.859   4.372  14.765
88093W        W52913   3.413   0.269   2.677
88094W        W52914  31.264  19.138   4.863
88095W        W52915   6.264  13.612  14.345
88096W        W52916   3.318  23.409   1.487
88097W        W52917  19.069  15.112   4.153
88098W        W52918  37.034  19.661  11.940
88099W        W52919  32.862  22.117  13.994
88100W        W52920   3.842  28.267  10.581
88101W        W52921  12.326  44.877  14.276
88102W        W52922  36.053  26.696  10.778
88103W        W52923   3.399  10.785  12.207
88104W        W52924   2.032  36.002  10.722
88105W        W52925  34.478   5.794  11.554
88106W        W52926   4.938   6.969   3.653
88107W        W52927   0.639  37.847   1.756
88108W        W52928   7.262  27.579   4.627
88109W        W52929   0.899  30.704   0.934
88110W        W52930  35.654   2.820   1.274
88111W        W52931   0.503   2.446   3.627
88112W        W52932  17.398  34.086   1.440
88113W        W52933  44.836  12.008  14.535
88114W        W52934  34.345  36.170   3.647
88115W        W52935  41.188   9.108   1.878
88116W        W52936   8.273  16.658   0.972
88117W        W52937  10.826  36.876  11.713
88118W        W52938  25.656   5.877   3.934
88119W        W52939   3.684  37.344  14.299
88120W        W52940  38.982  25.468  10.640
88121W        W52941  29.135   4.640  11.109
88122W        W52942  32.348  22.151   5.576
88123W        W52943  25.223  17.903   3.227
88124W        W52944   8.056  25.019   1.726
88125W        W52945   2.000  30.486   2.944
88126W        W52946  11.801  42.807  12.462
88127W        W52947   9.414  42.392  11.992
88128W        W52948  12.660  24.058   0.814
88129W        W52949  31.395  37.053   2.445
88130W        W52950  15.459  35.646  13.318
88131W        W52951  31.498  32.932  11.654
88132W        W52952  10.477   1.938   2.866
88133W        W52953  20.009  19.232  11.108
88134W        W52954  39.254  28.201   5.054
88135W        W52955  44.624  14.623   2.296
88136W        W52956  13.424  28.319  10.191
88137W        W52957  36.136  34.556  13.846
88138W        W52958   7.903  19.220  13.851
88139W        W52959   0.312  15.907  12.573
88140W        W52960   9.869   5.831  10.861
88141W        W52961  26.183  43.932   0.074
88142W        W52962  39.898  22.123  14.383
88143W        W52963  35.754   9.453   2.266
88144W        W52964  27.194   8.949   4.670
88145W        W52965  20.641  43.012   4.678
88146W        W52966   9.488  23.902  12.517
88147W        W52967   1.722  40.264   1.702
88148W        W52968  23.525   3.434   1.001
88149W        W52969   1.814  34.184   4.988
88150W        W52970  38.409   4.368   2.859
88151W        W52971  15.217  38.060  13.771
88152W        W52972  14.410   3.440  10.707
88153W        W52973  22.420  12.329  13.271
88154W        W52974  27.420  14.504   0.325
88155W        W52975  32.592  33.059   3.475
88156W        W52976  21.517  36.485  14.496
88157W        W52977  24.448  36.231  11.029
88158W        W52978  17.215  26.101   3.693
88159W        W52979  31.215  44.976  10.784
88160W        W52980  34.589  11.928   2.802
88161W        W52981   9.306  10.865   0.052
88162W        W52982  21.047  11.852   3.166
88163W        W52983  41.123  10.546   4.190
88164W        W52984  25.576  44.045  11.369
88165W        W52985  20.051  43.922   0.195
88166W        W52986   9.255  44.747   3.048
88167W        W52987  13.565  31.372   1.180
88168W        W52988   9.901  12.101   0.756
88169W        W52989  29.731  43.599   1.672
88170W        W52990  32.913  28.014   3.340
88171W        W52991   5.422  42.978   2.370
88172W        W52992  35.917   7.380   2.769
88173W        W52993  26.107   8.398  14.565
88174W        W52994   1.768  33.739  11.684
88175W        W52995  24.568  14.769   2.920
88176W        W52996   0.410  43.032   0.295
88177W        W52997  41.171  43.487  13.739
88178W        W52998  43.786   2.826   4.102
88179W        W52999   6.843  19.153  12.555
88180W        W53000  13.566  10.355  11.454
88181W        W53001   5.372  23.007  14.325
88182W        W53002  33.410  22.250  11.469
88183W        W53003  25.671  23.353  14.991
88184W        W53004  20.258  25.804  13.151
88185W        W53005  21.935  22.529  14.385
88186W        W53006  44.891   3.402  12.457
88187W        W53007  38.660  29.987   2.876
88188W        W53008  27.255  44.842   2.261
88189W        W53009   6.777   7.632   4.760
88190W        W53010  26.951   0.837   1.064
88191W        W53011   9.274  17.494   1.826
88192W        W53012   4.929  13.113   4.108
88193W        W53013  11.788  10.853   3.836
88194W        W53014  12.728  35.086   4.720
88195W        W53015  12.925   5.973   0.856
88196W        W53016  28.874   6.832  13.786
88197W        W53017  39.109  36.961   3.166
88198W        W53018  25.616  31.966  11.473
88199W        W53019  37.007  39.580   0.265
88200W        W53020  16.485   8.616   3.191
88201W        W53021   9.667  32.575   3.126
88202W        W53022  35.472  35.039   1.857
88203W        W53023  27.526  11.867   0.396
88204W        W53024   6.363  11.513  12.837
88205W        W53025  36.264  11.980   0.386
88206W        W53026  44.918   4.671   2.097
88207W        W53027  30.070  21.087  14.044
88208W        W53028  19.770   7.163  11.022
88209W        W53029   2.405  33.828  11.061
88210W        W53030   0.816  33.983  12.816
88211W        W53031  42.802  24.662  11.468
88212W        W53032   1.256   2.882  12.320
88213W        W53033  22.536   8.672  11.945
88214W        W53034  22.969   4.222   3.200
88215W        W53035   1.390  15.099   4.571
88216W        W53036  41.426  19.735   1.314
88217W        W53037  39.506   9.417   1.721
88218W        W53038   4.484  15.831  13.059
88219W        W53039  32.972  42.357   3.848
88220W        W53040  40.252  26.648   0.920
88221W        W53041   9.656  26.729  11.649
88222W        W53042  26.062   0.912   3.893
88223W        W53043  25.696  17.793   3.653
88224W        W53044  16.650  12.651   0.239
88225W        W53045  16.622  20.306   4.217
88226W        W53046   1.887  24.307  10.353
88227W        W53047  30.012  24.237   5.169
88228W        W53048   2.166  19.068   2.900
88229W        W53049  36.293   9.793   0.907
88230W        W53050  23.165  35.784   0.699
88231W        W53051  33.458  42.515   1.961
88232W        W53052  44.901  34.077  11.999
88233W        W53053  43.516  19.072  10.774
88234W        W53054   9.200   1.258   3.841
88235W        W53055  43.824  22.908   3.215
88236W        W53056  40.902  21.258   1.802
88237W        W53057   1.312   4.981  13.037
88238W        W53058  25.716  43.381  10.739
88239W        W53059   3.716  24.562  14.355
88240W        W53060  33.331  42.485  14.265
88241W        W53061   3.969   2.794   4.289
88242W        W53062  10.191  24.164   3.782
88243W        W53063  18.495  43.272   4.504
88244W        W53064   9.761   5.498   2.716
88245W        W53065   6.614  38.435   0.985
88246W        W53066  13.114  22.258   1.407
88247W        W53067  24.504  36.484   0.802
88248W        W53068  20.567  10.848  13.498
88249W        W53069  27.815  12.885   0.440
88250W        W53070  20.977  27.991  10.628
88251W        W53071   3.903  16.173  13.439
88252W        W53072   2.517  24.262   0.786
88253W        W53073   4.822   1.681  13.418
88254W        W53074  12.809  31.624   4.552
88255W        W53075  21.711  41.399  13.602
88256W        W53076  33.106  35.292  11.566
88257W        W53077  11.200  20.118   2.558
88258W        W53078  19.847   9.440   0.545
88259W        W53079  27.527  32.417   5.031
88260W        W53080   6.600   3.998  14.350
88261W        W53081  19.758  19.204  12.705
88262W        W53082  27.565  23.962   0.811
88263W        W53083  18.343  37.427   2.349
88264W        W53084  19.721  37.245  12.582
88265W        W53085  19.631  20.223   0.045
88266W        W53086  38.873   6.657  13.360
88267W        W53087  37.971  29.746  14.911
88268W        W53088  32.571  11.864  13.032
88269W        W53089  26.701  26.346   5.002
88270W        W53090  16.674  43.442   3.141
88271W        W53091  41.914  24.004   2.219
88272W        W53092  20.795  21.976  11.869
88273W        W53093  35.514  15.248   2.345
88274W        W53094  39.944  10.588   2.953
88275W        W53095  25.874  10.716  11.423
88276W        W53096  21.148  25.502   0.258
88277W        W53097  20.227  31.153  11.018
88278W        W53098  17.711  17.797   3.366
88279W        W53099  44.804  23.724  11.178
88280W        W53100  19.702  25.586  11.521
88281W        W53101  43.985   3.661  10.421
88282W        W53102  13.189  13.189  13.554
88283W        W53103   6.409  14.130  14.269
88284W        W53104  25.647   4.159   0.482
88285W        W53105  37.817  43.278   0.902
88286W        W53106  43.913  27.245  14.762
88287W        W53107  32.144  26.045  13.503
88288W        W53108  37.656  17.424   3.637
88289W        W53109   4.970  22.819   1.714
88290W        W53110  28.888  37.464  14.622
88291W        W53111  43.887   3.837  14.376
88292W        W53112  41.695  27.454   4.586
88293W        W53113  40.115  21.634   4.301
88294W        W53114  41.698  11.226  14.370
88295W        W53115   6.415  24.121   0.133
88296W        W53116   9.733  20.745  12.901
88297W        W53117  34.545   2.445   2.857
88298W        W53118  39.858  37.893  10.797
88299W        W53119   3.197  40.882  14.226
88300W        W53120  33.980  30.386   4.531
88301W        W53121  33.610  42.993   0.436
88302W        W53122  43.306   4.496   2.424
88303W        W53123  11.873  43.947  14.543
88304W        W53124  10.397   0.322  11.262
88305W        W53125  32.951  29.935  13.487
88306W        W53126  13.061  11.584  14.572
88307W        W53127   4.820  32.812   1.318
88308W        W53128  42.935  22.910  12.082
88309W        W53129  37.845  40.746  11.592
88310W        W53130  29.562  23.166  10.262
88311W        W53131  36.432   4.219  13.552
88312W        W53132  34.014   9.770   0.695
88313W        W53133  11.576   0.804  10.695
88314W        W53134  41.805  43.392   0.490
88315W        W53135  19.296  20.179  11.574
88316W        W53136  15.314  23.814   4.769
88317W        W53137   4.310  30.956   1.315
88318W        W53138  32.926  38.862  13.082
88319W        W53139  44.012   3.606  14.868
88320W        W53140   8.736  13.189   1.045
88321W        W53141   9.263  29.023  11.579
88322W        W53142  16.525  24.553   4.651
88323W        W53143  21.929   8.820  14.468
88324W        W53144  17.937  37.787  12.802
88325W        W53145  29.990  24.423  14.170
88326W        W53146  12.553  22.205   2.367
88327W        W53147   7.486  23.951  14.314
88328W        W53148  25.066   0.484   2.374
88329W        W53149  42.043  29.029  13.469
88330W        W53150   3.885   0.377  10.668
88331W        W53151  24.246   9.314   0.365
88332W        W53152  34.387   4.252  14.957
88333W        W53153  19.716  33.945  10.676
88334W        W53154  36.734   9.172  12.445
88335W        W53155  11.079  20.956  14.743
88336W        W53156   5.108  44.056  12.178
88337W        W53157  44.826  29.975   4.089
88338W        W53158  38.332  14.341   0.879
88339W        W53159   7.729  38.335  11.161
88340W        W53160  28.392  32.864  13.446
88341W        W53161  17.117  32.078  10.085
88342W        W53162  23.449   9.682   1.166
88343W        W53163  44.321  19.038  12.935
88344W        W53164   7.732  32.985   1.960
88345W        W53165   1.275  11.390   2.313
88346W        W53166  20.469  34.395  12.134
88347W        W53167   6.704  42.411   4.497
88348W        W53168   5.440   1.526  10.999
88349W        W53169   9.380  36.510   1.861
88350W        W53170  12.655  27.487  12.422
88351W        W53171  10.906  13.111  12.372
88352W        W53172  31.560  12.651   3.552
88353W        W53173  18.129  31.935   4.579
88354W        W53174  19.310   7.768  11.423
88355W        W53175   8.692  31.720   1.634
88356W        W53176  28.992  30.691   2.275
88357W        W53177  21.261   2.419   3.290
88358W        W53178  26.714  33.928   4.585
88359W        W53179  25.668  28.945  11.137
88360W        W53180   6.916  26.907  11.500
88361W        W53181  15.538  35.058  11.659
88362W        W53182  42.488  18.715  10.423
88363W        W53183  16.271  38.260   3.789
88364W        W53184  44.145  26.813  11.525
88365W        W53185  28.424  23.429   2.694
88366W        W53186  17.212  22.018   1.368
88367W        W53187   6.741  14.237   4.342
88368W        W53188  10.396   3.903   2.238
88369W        W53189   9.168  27.709  12.487
88370W        W53190  37.334  11.205  13.641
88371W        W53191   8.481  29.167   4.626
88372W        W53192  18.499  20.227   4.908
88373W        W53193  44.923   3.056  13.878
88374W        W53194  35.487  42.838  12.099
88375W        W53195  12.601   2.838   3.429
88376W        W53196  40.585  26.302  11.103
88377W        W53197  14.972  27.674   2.666
88378W        W53198  11.046  13.215   4.997
88379W        W53199   1.230  27.193   2.178
88380W        W53200  35.144  10.534  12.689
88381W        W53201   1.058  40.596   2.850
88382W        W53202  12.487  24.532  12.095
88383W        W53203  35.421  38.341  12.828
88384W        W53204  22.796  23.908  13.000
88385W        W53205  39.999  10.321   5.433
88386W        W53206  15.101  18.293  11.579
88387W        W53207  35.054  41.301  11.185
88388W        W53208  44.974  27.585  13.376
88389W        W53209   6.265  44.115   5.006
88390W        W53210  41.925  32.833   2.700
88391W        W53211  39.583  35.060  10.470
88392W        W53212  26.259  40.423   0.459
88393W        W53213  18.402  16.674   2.123
88394W        W53214  11.382  24.053  12.555
88395W        W53215   9.810  39.241   0.856
88396W        W53216  42.078   8.266   1.963
88397W        W53217   6.279  25.250  11.526
88398W        W53218  43.115  24.494  11.052
88399W        W53219  35.341  34.144  10.407
88400W        W53220  14.609  17.885   5.836
88401W        W53221  12.125  16.082   1.645
88402W        W53222  18.005  26.291  11.201
88403W        W53223  35.027  17.992   4.113
88404W        W53224   9.358  38.346  14.867
88405W        W53225   5.676  39.352  14.000
88406W        W53226  29.193   1.861  14.170
88407W        W53227  34.294  13.600  12.560
88408W        W53228  36.825  13.560   3.962
88409W        W53229   3.198  26.996  13.977
88410W        W53230  11.672  22.589  13.568
88411W        W53231   5.369  26.627   4.554
88412W        W53232   5.253   1.943  13.656
88413W        W53233  19.843   0.486   2.712
88414W        W53234  20.054  36.916  13.357
88415W        W53235   9.187   6.730  14.059
88416W        W53236  33.925  37.539   2.942
88417W        W53237   8.770  42.682  10.972
88418W        W53238  43.760  19.522   3.657
88419W        W53239  22.798  43.741  13.686
88420W        W53240  22.226  19.153   1.974
88421W        W53241  34.908  38.052  12.749
88422W        W53242  44.750  12.220   2.276
88423W        W53243  12.607  15.837  13.432
88424W        W53244  19.585  34.268  13.824
88425W        W53245   9.212  28.302   3.258
88426W        W53246  11.214  43.931   4.639
88427W        W53247  28.091  42.987  10.335
88428W        W53248  30.476   3.025   2.273
88429W        W53249  18.478  18.636  11.744
88430W        W53250   6.340  26.962  12.806
88431W        W53251   4.699   3.389  12.864
88432W        W53252  38.893  29.948   4.397
88433W        W53253   3.689  34.408   3.166
88434W        W53254  25.971   9.789  14.322
88435W        W53255  44.520  11.130   1.878
88436W        W53256  27.450  20.839  12.653
88437W        W53257  27.901  18.678  10.436
88438W        W53258  43.800  17.261  14.837
88439W        W53259  29.537  13.719   1.709
88440W        W53260   1.983   6.424  11.487
88441W        W53261  29.599  33.414  12.507
88442W        W53262  35.587  34.079   0.377
88443W        W53263  16.275  26.950  11.384
88444W        W53264  43.313  36.407   1.253
88445W        W53265  37.531  18.495  13.370
88446W        W53266   5.257  20.242   3.570
88447W        W53267  37.635  13.053   2.959
88448W        W53268  13.211   7.893  14.459
88449W        W53269   7.913   7.778   0.457
88450W        W53270  23.919   0.827   3.900
88451W        W53271  30.456   1.813   4.458
88452W        W53272  17.512  22.064   4.528
88453W        W53273  32.389  14.306  13.389
88454W        W53274  40.679   6.220  14.579
88455W        W53275  33.540   4.198  13.637
88456W        W53276   4.512  37.601  13.129
88457W        W53277  16.092  32.015  11.495
88458W        W53278  10.826   3.284  13.465
88459W        W53279   7.209   3.374   4.599
88460W        W53280  43.804  19.250   3.131
88461W        W53281  11.644  20.241   3.866
88462W        W53282  42.937  15.646   3.584
88463W        W53283  34.837   4.873   1.153
88464W        W53284  28.470  40.072   4.421
88465W        W53285  20.740   4.871   4.251
88466W        W53286  29.694   5.198   2.229
88467W        W53287   9.166   0.805   0.692
88468W        W53288   0.163  22.837   0.484
88469W        W53289  15.592  12.586  10.401
88470W        W53290  42.354  31.390   4.125
88471W        W53291  22.768  30.843  11.963
88472W        W53292  36.460  24.016  12.480
88473W        W53293  28.986  29.847  13.921
88474W        W53294  16.813  27.151  11.977
88475W        W53295  13.200  21.740  14.378
88476W        W53296  43.693  10.831   1.873
88477W        W53297  20.166  29.157   1.389
88478W        W53298   0.784  29.195   0.808
88479W        W53299   8.835  36.083  14.624
88480W        W53300  15.311  18.421  12.423
88481W        W53301  44.510  26.755   0.852
88482W        W53302  25.312  21.348  11.119
88483W        W53303  26.050  43.042   1.907
88484W        W53304   5.650  31.422  14.185
88485W        W53305  27.402  13.473   1.246
88486W        W53306   2.889   6.716   1.333
88487W        W53307  44.495  10.208  13.549
88488W        W53308  29.554  23.102  11.159
88489W        W53309  36.465   7.236  12.547
88490W        W53310  21.093  15.797  13.373
88491W        W53311  22.986  18.669   0.833
88492W        W53312  33.713  13.786   1.055
88493W        W53313  15.259  26.961   4.344
88494W        W53314  12.344  32.991   4.083
88495W        W53315  28.191   6.418   1.667
88496W        W53316  10.224   9.503  12.002
88497W        W53317  43.516   1.635   1.874
88498W        W53318   1.957  11.430  14.572
88499W        W53319  34.980   2.290  14.778
88500W        W53320  36.269  40.968  14.458
88501W        W53321   6.200  19.097  10.687
88502W        W53322  29.797  28.222   3.206
88503W        W53323  26.602  31.646   1.814
88504W        W53324  26.509  25.720   1.454
88505W        W53325  10.896   2.940  11.564
88506W        W53326  16.677  44.113   1.186
88507W        W53327  41.596   8.713  14.072
88508W        W53328  44.703   0.975   0.295
88509W        W53329  27.501  14.549  13.475
88510W        W53330  36.470  36.934   4.113
88511W        W53331  12.010  33.282   3.606
88512W        W53332  10.495  40.611  11.975
88513W        W53333  18.787  34.373   1.872
88514W        W53334  37.607  12.319  14.925
88515W        W53335  22.740  37.359   4.536
88516W        W53336  25.121  27.256   2.865
88517W        W53337  22.384   1.065  13.123
88518W        W53338  43.467  15.014   0.774
88519W        W53339  32.022  23.502  11.817
88520W        W53340  14.579  34.744   2.895
88521W        W53341  20.056  40.584   2.484
88522W        W53342   3.233  19.125  10.760
88523W        W53343  10.147  17.774  14.421
88524W        W53344  40.318  38.087  10.668
88525W        W53345  15.631  26.076   9.924
88526W        W53346  11.877   7.214  12.114
88527W        W53347  35.350  43.272  12.901
88528W        W53348   8.656  22.836   0.700
88529W        W53349  13.197  33.588   2.971
88530W        W53350  35.465   8.928  11.836
88531W        W53351  13.208   6.375   1.668
88532W        W53352  30.432  11.667   3.735
88533W        W53353   2.256  41.504  14.876
88534W        W53354  14.117  11.459  12.877
88535W        W53355  25.440  22.481  13.957
88536W        W53356   8.408  36.357  12.391
88537W        W53357  13.817  37.424   1.823
88538W        W53358  24.195  22.895  14.548
88539W        W53359  20.774  36.161  13.551
88540W        W53360  25.404   4.459   4.497
88541W        W53361  26.587  20.786  14.972
88542W        W53362  10.759  39.539   1.761
88543W        W53363  14.544  18.823   2.362
88544W        W53364  13.838  28.093  14.507
88545W        W53365  21.961  42.466  13.335
88546W        W53366  29.523  39.318   4.841
88547W        W53367  38.701  41.710  13.412
88548W        W53368   4.108  41.556   0.051
88549W        W53369  12.689  41.287  13.927
88550W        W53370  15.875  32.131  12.658
88551W        W53371  28.807  19.276   3.586
88552W        W53372  40.652   7.207  14.155
88553W        W53373  29.623  12.593  13.796
88554W        W53374   0.957  14.138   4.424
88555W        W53375  34.967  10.259  13.568
88556W        W53376   1.432  36.533  12.059
88557W        W53377  12.745  34.526  14.309
88558W        W53378  11.635  11.708  14.611
88559W        W53379  22.994   2.770  14.804
88560W        W53380  16.847  17.805   3.371
88561W        W53381   4.671  39.107  14.263
88562W        W53382   7.436  23.105  14.202
88563W        W53383   0.092  13.171  12.915
88564W        W53384  26.586   5.429   1.377
88565W        W53385  30.388  19.143   1.815
88566W        W53386  17.287  41.298   2.996
88567W        W53387  41.721  34.325  13.297
88568W        W53388  27.497   8.258  13.774
88569W        W53389  33.586   3.284  11.556
88570W        W53390  41.221   4.294   4.735
88571W        W53391  21.854   1.309  13.250
88572W        W53392  23.739  36.820   5.019
88573W        W53393  37.530  18.560   1.179
88574W        W53394  42.884  23.602  11.085
88575W        W53395   2.404   7.718   2.709
88576W        W53396  25.758   8.301  14.207
88577W        W53397  14.563  43.927  10.705
88578W        W53398  24.263  21.654  12.426
88579W        W53399  19.735  13.814  12.021
88580W        W53400  12.031  21.151  12.197
88581W        W53401  30.497  35.100   3.556
88582W        W53402  32.863  21.923   0.390
88583W        W53403   7.943  19.676  14.776
88584W        W53404  15.163  44.240  11.955
88585W        W53405  32.660  15.598   1.272
88586W        W53406  14.802   7.463  10.745
88587W        W53407  39.128  37.336   0.386
88588W        W53408  23.450   4.425   3.309
88589W        W53409  44.771  28.445   3.675
88590W        W53410   7.192  31.046  12.414
88591W        W53411  33.871   0.842  14.808
88592W        W53412  14.724   5.775  12.373
88593W        W53413  43.595  27.470  10.689
88594W        W53414  17.857  27.771   2.292
88595W        W53415   7.332   2.788   4.697
88596W        W53416  23.247   8.724  14.892
88597W        W53417  41.805  10.063   2.697
88598W        W53418  32.095  17.277   5.031
88599W        W53419   1.166  34.992   3.964
88600W        W53420  28.397   5.677  13.881
88601W        W53421  38.157  25.726  12.399
88602W        W53422   0.430  36.528   1.828
88603W        W53423  34.008  44.950   2.346
88604W        W53424  42.930   5.823   1.009
88605W        W53425  35.062  41.010  14.299
88606W        W53426   1.416  44.771  12.015
88607W        W53427   2.449  39.013  12.811
88608W        W53428   1.908   6.776   1.108
88609W        W53429  40.077   0.791   0.947
88610W        W53430  17.403  31.555   3.841
88611W        W53431   8.679  18.027   1.037
88612W        W53432   8.164   6.760  13.850
88613W        W53433  32.371   3.931  10.767
88614W        W53434  44.809  43.593  14.851
88615W        W53435  36.343  33.879  11.165
88616W        W53436  23.098  42.094  13.111
88617W        W53437  23.155  16.011  14.293
88618W        W53438  28.035  25.729  14.884
88619W        W53439  11.263   4.251   0.840
88620W        W53440  37.832  22.036  11.467
88621W        W53441  41.064  37.245   4.489
88622W        W53442   4.297  43.000   0.667
88623W        W53443  25.045   0.294  14.812
88624W        W53444  40.489  34.192   2.282
88625W        W53445  11.131  15.301   0.733
88626W        W53446  44.531  41.910   4.918
88627W        W53447  21.485   4.742  14.861
88628W        W53448   5.929  17.633   4.094
88629W        W53449   0.212  19.593  14.811
88630W        W53450  32.230  21.713   4.430
88631W        W53451   5.796  33.837  11.277
88632W        W53452  24.573   6.831   4.723
88633W        W53453  22.341  29.614  12.394
88634W        W53454   4.342  42.534   0.456
88635W        W53455  20.535  39.141   0.118
88636W        W53456  17.591  44.804   2.277
88637W        W53457  20.258  37.880   2.804
88638W        W53458  13.839  36.163  10.097
88639W        W53459   7.438  40.394   2.842
88640W        W53460  24.445  18.063  11.574
88641W        W53461  14.222   4.376  11.682
88642W        W53462  18.975  10.166  13.519
88643W        W53463  40.725   0.279  12.613
88644W        W53464  44.807  30.257  12.812
88645W        W53465  30.261  40.895  11.282
88646W        W53466  13.840   2.370  11.539
88647W        W53467  22.522  41.334   3.306
88648W        W53468  41.466  30.136  12.550
88649W        W53469  39.879  29.182   3.758
88650W        W53470   6.585   5.391  10.721
88651W        W53471   8.417  21.533   3.317
88652W        W53472  31.597  14.571  10.515
88653W        W53473  27.545  38.866  12.596
88654W        W53474  38.010  28.553  13.222
88655W        W53475  29.581  40.423  11.374
88656W        W53476  20.056  38.858   4.593
88657W        W53477  12.811   3.040   1.939
88658W        W53478  31.389  36.292  11.487
88659W        W53479  25.619  43.749  10.381
88660W        W53480  38.295   3.575   4.084
88661W        W53481  11.739  21.532   4.839
88662W        W53482  10.669  38.557   2.786
88663W        W53483  24.160  40.390   2.770
88664W        W53484  32.160  41.795   4.621
88665W        W53485  25.284  43.342  10.461
88666W        W53486  24.675  18.341   2.741
88667W        W53487  30.740  11.479  11.121
88668W        W53488  12.905   0.248   2.272
88669W        W53489  27.969  20.802  11.038
88670W        W53490  21.159  42.652   0.916
88671W        W53491  17.748   4.625   2.333
88672W        W53492   8.462  37.996  11.594
88673W        W53493  18.299  14.527  14.413
88674W        W53494  27.647   2.297  10.662
88675W        W53495  37.561  33.155   4.097
88676W        W53496  37.007  15.546  10.347
88677W        W53497  33.845  33.775   0.072
88678W        W53498   1.699  43.007   4.254
88679W        W53499  13.601  11.599  12.901
88680W        W53500  33.237  25.423  14.510
88681W        W53501  25.739  23.819   0.282
88682W        W53502  33.509   9.875   4.538
88683W        W53503  16.737  39.908   4.272
88684W        W53504  16.643  39.783   4.763
88685W        W53505  28.919  12.190  14.874
88686W        W53506  42.279  17.742  12.535
88687W        W53507  44.077   0.315   0.517
88688W        W53508  13.489  23.068   1.183
88689W        W53509  10.191  30.013   5.531
88690W        W53510   2.941  19.739   2.792
88691W        W53511  22.413  35.662  14.537
88692W        W53512   9.992  33.199  11.258
88693W        W53513  10.634   2.895   4.217
88694W        W53514  42.370   3.903  14.328
88695W        W53515  30.380  33.654  13.973
88696W        W53516  16.501  24.624   0.007
88697W        W53517  12.174  18.238  10.459
88698W        W53518  42.791   3.254   4.560
88699W        W53519  42.566  13.858  12.110
88700W        W53520   0.395  36.319   0.217
88701W        W53521  32.662  21.534  13.062
88702W        W53522  29.781  28.266   0.813
88703W        W53523   5.357  21.632  10.563
88704W        W53524  43.099  25.794  14.502
88705W        W53525  17.044   3.786  12.915
88706W        W53526   1.812  43.085  11.262
88707W        W53527  25.753  43.762   4.062
88708W        W53528  25.094  28.625   4.269
88709W        W53529  34.789  38.452  14.151
88710W        W53530  39.898   1.535  13.087
88711W        W53531   1.285   9.656   3.673
88712W        W53532  16.456  41.074   2.337
88713W        W53533  31.453  10.749   0.376
88714W        W53534  22.377   5.168  12.205
88715W        W53535   3.585  35.611  13.112
88716W        W53536  23.906  42.989   3.286
88717W        W53537   6.723  43.337  13.727
88718W        W53538  11.329  20.692   1.271
88719W        W53539  30.606  13.740   2.173
88720W        W53540  26.596  25.293   2.560
88721W        W53541  22.643   4.264  14.389
88722W        W53542  17.207  21.376  12.178
88723W        W53543  15.423  38.509  13.984
88724W        W53544  36.470  11.646   0.056
88725W        W53545  23.674   4.375   1.946
88726W        W53546  19.283   1.959   3.259
88727W        W53547   6.288  18.791  11.928
88728W        W53548   2.852   1.975  13.840
88729W        W53549  37.477  39.362   0.194
88730W        W53550   8.227  32.210   4.906
88731W        W53551   9.800  29.751  10.672
88732W        W53552  24.063  39.068  12.542
88733W        W53553   5.179  34.934  11.608
88734W        W53554  40.164   3.651   1.379
88735W        W53555  12.429  37.474   2.419
88736W        W53556  36.080  42.861   0.557
88737W        W53557  22.040   1.859   3.151
88738W        W53558  19.576   1.602   0.347
88739W        W53559  13.248  23.983  13.071
88740W        W53560  10.834  23.489  14.835
88741W        W53561   1.051  28.198  14.081
88742W        W53562   7.008  38.588  10.736
88743W        W53563  13.352  36.604   2.590
88744W        W53564   3.158  25.759   1.908
88745W        W53565   0.118   6.020  14.899
88746W        W53566  12.910  18.117  14.945
88747W        W53567  44.746  42.988   4.692
88748W        W53568  13.449  22.689   4.886
88749W        W53569  28.532  40.536   4.179
88750W        W53570  17.684  43.783  11.295
88751W        W53571   9.065  32.891   3.642
88752W        W53572  37.817   6.136   4.472
88753W        W53573  24.902  42.343   0.934
88754W        W53574   0.979  30.425   2.728
88755W        W53575  43.301  41.502   4.646
88756W        W53576  30.073  43.379  10.585
88757W        W53577  21.058  11.586  14.490
88758W        W53578  16.289   9.908  10.761
88759W        W53579  10.785  15.122  12.020
88760W        W53580  24.083   9.593   2.629
88761W        W53581  19.311  34.613   1.004
88762W        W53582  33.959  36.579   4.309
88763W        W53583   8.813   6.179   1.344
88764W        W53584  44.672  31.675  12.052
88765W        W53585  38.161  15.471  10.851
88766W        W53586  22.466  43.448   3.921
88767W        W53587   4.122  16.231  13.908
88768W        W53588  23.736  16.799  13.454
88769W        W53589  20.204  31.936  12.978
88770W        W53590   6.286  44.682  10.342
88771W        W53591  40.861   4.880  11.640
88772W        W53592   8.269  14.192   2.327
88773W        W53593  43.220  44.546   2.847
88774W        W53594   7.271   3.838   2.735
88775W        W53595  25.324   9.085  11.342
88776W        W53596  28.271   6.520   2.616
88777W        W53597   3.151  13.893  11.586
88778W        W53598  10.572  37.569   2.674
88779W        W53599  23.443  22.545  12.007
88780W        W53600  22.544  26.610  13.589
88781W        W53601  43.556  29.771  14.745
88782W        W53602  44.374  24.560  11.650
88783W        W53603  13.294  43.561   2.137
88784W        W53604  14.384  23.588  13.386
88785W        W53605   6.010  24.137  14.787
88786W        W53606   1.985  31.493  14.546
88787W        W53607  37.026   8.235   0.992
88788W        W53608   1.855  42.401  14.616
88789W        W53609  12.821   6.734  11.233
88790W        W53610  32.841   7.433   3.883
88791W        W53611  13.595  42.396   1.180
88792W        W53612  38.269  21.619  10.751
88793W        W53613  13.122   7.634  14.913
88794W        W53614   9.284  13.339  10.664
88795W        W53615  25.419  32.533  14.821
88796W        W53616  28.414  23.256  11.109
88797W        W53617  37.365  25.083  14.072
88798W        W53618  32.546  40.396  13.499
88799W        W53619  13.519  11.743  10.713
88800W        W53620  38.446  38.569   4.598
88801W        W53621   3.350  31.912   3.157
88802W        W53622  15.634  26.511  14.265
88803W        W53623  12.652   6.915  11.667
88804W        W53624  21.021  34.413  12.048
88805W        W53625   7.591  16.580   1.606
88806W        W53626  34.906  40.025  14.868
88807W        W53627   3.869  30.123   0.276
88808W        W53628   7.265  16.932   0.813
88809W        W53629  19.422  17.854   2.183
88810W        W53630  37.812  21.550  12.043
88811W        W53631   8.922   7.459  11.176
88812W        W53632  13.385   8.567  13.559
88813W        W53633  22.161   2.854  12.598
88814W        W53634   4.491  26.515   2.200
88815W        W53635  24.916  30.626  14.480
88816W        W53636  13.542  24.684  11.049
88817W        W53637  26.009  10.326  13.518
88818W        W53638  18.857  22.204  12.945
88819W        W53639  26.991  23.917   1.675
88820W        W53640  17.249   2.435  14.610
88821W        W53641  39.544   1.778   1.445
88822W        W53642   7.163  27.087  14.974
88823W        W53643   4.468   5.576  14.362
88824W        W53644  14.245  12.618   1.840
88825W        W53645  24.007  12.108   2.763
88826W        W53646  11.852  25.993   2.077
88827W        W53647  42.197  22.270   3.111
88828W        W53648  40.080   2.560  13.932
88829W        W53649   9.256  18.291  12.109
88830W        W53650  19.698  41.549   0.493
88831W        W53651  31.797  20.568   0.009
88832W        W53652   3.276  29.605  12.446
88833W        W53653  25.609  13.911  12.119
88834W        W53654  30.174  14.290  12.893
88835W        W53655  43.288  33.810  12.560
88836W        W53656   0.202  14.247   2.876
88837W        W53657  35.802  30.001  11.782
88838W        W53658  13.505  24.151  12.150
88839W        W53659  22.671   6.201   1.101
88840W        W53660  18.789  42.321   3.161
88841W        W53661   2.657   4.326  11.687
88842W        W53662  18.495  18.477  14.328
88843W        W53663  31.882  28.042  11.408
88844W        W53664   9.292  23.442   0.329
88845W        W53665   0.438  33.109  13.351
88846W        W53666  40.938  16.974   0.315
88847W        W53667  44.257  40.969   2.685
88848W        W53668   9.661  44.355   4.699
88849W        W53669  30.032  12.781   2.376
88850W        W53670  21.056  23.508  11.626
88851W        W53671  28.211   2.091   3.644
88852W        W53672  16.208   6.886  14.219
88853W        W53673   9.689   5.837   0.261
88854W        W53674   1.706  31.619  10.652
88855W        W53675  18.259  32.859  12.436
88856W        W53676   8.028   3.007  14.210
88857W        W53677   0.739   9.311  13.047
88858W        W53678   2.992  12.779   4.230
88859W        W53679  34.062  11.768  12.750
88860W        W53680  15.331  14.280  14.879
88861W        W53681   2.211  11.716  14.237
88862W        W53682  21.724  31.522   4.154
88863W        W53683  41.421   9.240  11.825
88864W        W53684  15.670  24.181   4.444
88865W        W53685  24.857  10.190  12.839
88866W        W53686  13.360   0.318   3.261
88867W        W53687  18.635   3.134  11.771
88868W        W53688  27.456  16.069  12.659
88869W        W53689  39.876  23.948   4.857
88870W        W53690   3.966  18.596   0.541
88871W        W53691   8.343  44.381  13.520
88872W        W53692  10.980  34.069   4.112
88873W        W53693  35.496  41.287  11.806
88874W        W53694  43.555  24.939  13.978
88875W        W53695   5.129  38.919   1.210
88876W        W53696   5.299  24.075   1.413
88877W        W53697  29.058  15.671  13.110
88878W        W53698  19.306   3.348   4.661
88879W        W53699  44.044  33.925   0.321
88880W        W53700  28.013  17.129  11.181
88881W        W53701  28.077   3.240  12.560
88882W        W53702  21.040  22.167   4.260
88883W        W53703   8.211  42.289  11.522
88884W        W53704  15.564  43.265   4.228
88885W        W53705   2.713  32.917  14.442
88886W        W53706  34.185  41.996   2.159
88887W        W53707  30.183  27.527   3.483
88888W        W53708  43.378  19.509  10.526
88889W        W53709  15.431   7.574  12.468
88890W        W53710  27.722  33.525   0.224
88891W        W53711   7.374   7.815   4.082
88892W        W53712  38.300   7.379   4.691
88893W        W53713   0.250   5.150   1.713
88894W        W53714  31.630  23.623   2.365
88895W        W53715  33.919  35.609  10.611
88896W        W53716   5.504  40.282   1.289
88897W        W53717  35.550  37.527   4.112
88898W        W53718   2.744   7.332   1.746
88899W        W53719  18.325   6.374  10.812
88900W        W53720  12.912  41.167  11.108
88901W        W53721   6.339  10.666  12.455
88902W        W53722  42.911  32.695  14.986
88903W        W53723   0.472  36.002   3.429
88904W        W53724  10.319  32.235  13.928
88905W        W53725   8.303  14.860   1.405
88906W        W53726  25.042  13.909  14.351
88907W        W53727   7.909   6.937  14.818
88908W        W53728   2.916  10.232  10.036
88909W        W53729   0.300  43.613   1.031
88910W        W53730  13.303  29.155  13.382
88911W        W53731   2.948  23.053   2.716
88912W        W53732  37.669  11.851  14.436
88913W        W53733   9.327   1.056  12.927
88914W        W53734  40.257  13.143  12.042
88915W        W53735   6.877   1.868   0.212
88916W        W53736  39.456  29.661   1.349
88917W        W53737   2.439  16.470  13.083
88918W        W53738   7.348  33.729  12.614
88919W        W53739  43.286  12.318   1.488
88920W        W53740   2.923  35.577   1.752
88921W        W53741   5.294  22.083  12.354
88922W        W53742  20.712   2.986   1.824
88923W        W53743   9.199  32.138  13.192
88924W        W53744  38.825   1.724   4.195
88925W        W53745  40.311  40.367  14.772
88926W        W53746  11.388  29.390   2.389
88927W        W53747  24.693  22.047  13.898
88928W        W53748  42.506   8.836   2.703
88929W        W53749  11.050  40.596   3.142
88930W        W53750  33.026  35.487  12.044
88931W        W53751  17.596   2.138   3.026
88932W        W53752  22.455  28.906   3.377
88933W        W53753  21.738   6.189  10.051
88934W        W53754   3.958  23.118  13.451
88935W        W53755   7.272  42.313   2.232
88936W        W53756   4.350  14.047   0.508
88937W        W53757  11.758   9.311  13.390
88938W        W53758  21.531  31.415   0.720
88939W        W53759  42.713  11.988  12.373
88940W        W53760  19.233  25.897   4.255
88941W        W53761  13.940  22.659  12.014
88942W        W53762   5.810  27.043   3.358
88943W        W53763   1.980  38.382   4.114
88944W        W53764   0.876  30.550  14.615
88945W        W53765   0.477   2.772   4.350
88946W        W53766   4.261  29.138   3.649
88947W        W53767   7.822  33.918  12.584
88948W        W53768  16.475  19.935  13.009
88949W        W53769  18.231   0.666  10.737
88950W        W53770  15.575  34.048  13.913
88951W        W53771  32.443  18.353  13.749
88952W        W53772  26.784  34.944  13.397
88953W        W53773   2.720  26.283   2.780
88954W        W53774  26.748  26.406  14.885
88955W        W53775  44.863  44.299  10.302
88956W        W53776  14.703   5.926  11.045
88957W        W53777  20.677  34.226   9.837
88958W        W53778  43.534   0.796  10.792
88959W        W53779  36.164   8.343   3.582
88960W        W53780  20.640   9.238  14.364
88961W        W53781  32.044  22.072  11.866
88962W        W53782  16.859  30.437  11.619
88963W        W53783  43.091   2.254   0.879
88964W        W53784  33.452   2.529   9.870
88965W        W53785  27.567  42.813   1.318
88966W        W53786  36.694  12.333  13.285
88967W        W53787   3.983  36.368   3.879
88968W        W53788   9.951  23.579   1.098
88969W        W53789   3.808  16.098   2.159
88970W        W53790  24.702   6.145   1.795
88971W        W53791   7.077  37.765   4.095
88972W        W53792  15.160  14.106   4.119
88973W        W53793  12.369  43.025   1.340
88974W        W53794  26.514   1.950  11.024
88975W        W53795  11.813  23.145  12.543
88976W        W53796  37.753  35.411   1.740
88977W        W53797   2.950  39.790  13.849
88978W        W53798  33.767  14.186   9.952
88979W        W53799  36.037  35.321  12.473
88980W        W53800  26.692  13.357   2.151
88981W        W53801  21.860   8.642   3.297
88982W        W53802  15.787  36.872  12.563
88983W        W53803  36.646  39.956  14.368
88984W        W53804   4.324  30.652   1.947
88985W        W53805  33.479  37.296  11.650
88986W        W53806  44.633   6.958   2.113
88987W        W53807   8.745  14.339   2.215
88988W        W53808  25.154   9.426   0.973
88989W        W53809   8.666   1.310   2.682
88990W        W53810   3.469  42.939  12.537
88991W        W53811  33.461  21.866  13.118
88992W        W53812  36.145  12.148  12.919
88993W        W53813   9.966   3.519   4.336
88994W        W53814  33.871   8.723  12.091
88995W        W53815  30.408  26.801   3.457
88996W        W53816   1.798  34.724   5.088
88997W        W53817  30.759   0.224  14.080
88998W        W53818  31.415  21.257  13.724
88999W        W53819   5.699   3.732  11.432
89000W        W53820   7.807  43.030   4.326
89001W        W53821  36.021  28.296  11.126
89002W        W53822  17.723  26.756   3.236
89003W        W53823  34.062  33.580  14.278
89004W        W53824  25.035   6.828  11.175
89005W        W53825  28.502  31.414  14.371
89006W        W53826  30.107  23.445   3.158
89007W        W53827   8.145  17.893  13.459
89008W        W53828  39.237  15.759   5.168
89009W        W53829  24.070   1.943  11.536
89010W        W53830  18.227   0.457   3.476
89011W        W53831  39.010   9.542   1.416
89012W        W53832  38.389  34.681  13.292
89013W        W53833  24.060  43.998  13.789
89014W        W53834  17.642   9.987   1.328
89015W        W53835  13.807  24.725   2.773
89016W        W53836  32.810  32.953  14.589
89017W        W53837   2.890  12.669  12.065
89018W        W53838   1.264   4.338   4.707
89019W        W53839   4.905  15.178   2.806
89020W        W53840   9.478  37.504  13.413
89021W        W53841  13.813  37.063  14.911
89022W        W53842  31.805   6.506   5.174
89023W        W53843  30.899   1.256   1.436
89024W        W53844  34.520  12.939  10.515
89025W        W53845   0.235  20.611   2.320
89026W        W53846  19.210  30.432   1.256
89027W        W53847   3.824  34.912  14.461
89028W        W53848  30.494  28.177   2.657
89029W        W53849  23.001  29.507  10.904
89030W        W53850  15.973  20.254  13.686
89031W        W53851   2.305  28.240   0.262
89032W        W53852  39.974  34.290   2.120
89033W        W53853  33.207  37.544   3.575
89034W        W53854  21.214  14.292  13.555
89035W        W53855   7.247  32.683   3.210
89036W        W53856  39.823  30.512  13.013
89037W        W53857  16.521  31.044  13.854
89038W        W53858  39.461  14.319  14.468
89039W        W53859  31.962   1.802  11.540
89040W        W53860   7.817  18.473  14.156
89041W        W53861  15.383  33.564   4.774
89042W        W53862  29.161  43.274  11.233
89043W        W53863  13.951  31.729  13.294
89044W        W53864  13.019  41.946  10.672
89045W        W53865   8.721  17.632  14.253
89046W        W53866   6.230  11.127  13.769
89047W        W53867  25.418  17.269   1.806
89048W        W53868  14.087  21.709  13.052
89049W        W53869  13.811  22.112   3.699
89050W        W53870  32.095  38.417   3.839
89051W        W53871  33.333  23.438   0.905
89052W        W53872   7.072   7.413  12.342
89053W        W53873   8.204  19.624  13.920
89054W        W53874  35.484  33.174   0.235
89055W        W53875  32.641  10.825  10.784
89056W        W53876  29.155  35.830  13.402
89057W        W53877  39.993   5.954  12.484
89058W        W53878  29.675  38.662  11.005
89059W        W53879  36.023   1.520  12.206
89060W        W53880  17.419  32.386   4.670
89061W        W53881  39.960  33.937  13.937
89062W        W53882  17.176  17.337  12.911
89063W        W53883   8.189  30.516   0.280
89064W        W53884  22.942  12.780   2.306
89065W        W53885  11.362  34.454   4.576
89066W        W53886   3.506  41.556   1.216
89067W        W53887  39.565  18.333   3.640
89068W        W53888  37.388  31.835  13.363
89069W        W53889  42.979   2.092  11.541
89070W        W53890  13.731  15.879   9.563
89071W        W53891  15.228   2.702  14.242
89072W        W53892  37.030   5.047   2.649
89073W        W53893  21.123  32.656  11.603
89074W        W53894  44.839  25.926   1.887
89075W        W53895  16.057  44.004  10.372
89076W        W53896   0.036  21.540  12.675
89077W        W53897  12.674   3.162   2.598
89078W        W53898  22.151  36.565   0.293
89079W        W53899  37.660  11.341   0.106
89080W        W53900  17.378  27.833   2.743
89081W        W53901  16.796  21.089  13.944
89082W        W53902  22.979   8.377   3.204
89083W        W53903  31.500  23.097  13.900
89084W        W53904  33.435  32.658   4.574
89085W        W53905  28.889   0.232  12.604
89086W        W53906   2.397  27.509   3.904
89087W        W53907  27.933  24.295  11.535
89088W        W53908   4.484  24.446  12.907
89089W        W53909   0.717  41.908  12.066
89090W        W53910  31.221  16.156  12.909
89091W        W53911  17.657  14.170   1.806
89092W        W53912  44.512  11.577  11.054
89093W        W53913  20.103  12.520   3.282
89094W        W53914   1.863   0.741  12.495
89095W        W53915   5.380  40.535  14.241
89096W        W53916   7.250   6.637   0.578
89097W        W53917   8.402   1.158   3.776
89098W        W53918  14.554   2.962  11.701
89099W        W53919  22.757  40.587   2.884
89100W        W53920  13.726  40.745   3.382
89101W        W53921  37.510  13.448   4.214
89102W        W53922  35.217  17.762   4.558
89103W        W53923  21.966  27.957  12.109
89104W        W53924  18.768   7.656   3.670
89105W        W53925  12.677  27.165  10.601
89106W        W53926   4.389  11.363   2.840
89107W        W53927   7.638   6.832   0.284
89108W        W53928  44.289  36.383   0.343
89109W        W53929   0.296  14.838   3.443
89110W        W53930  28.155  29.352  12.955
89111W        W53931  14.713  41.549   4.512
89112W        W53932  20.637  15.819  14.958
89113W        W53933  34.614   7.508   0.844
89114W        W53934  20.075  24.049  14.303
89115W        W53935   2.862  22.598  13.771
89116W        W53936   4.702  28.140   4.079
89117W        W53937  21.706  33.914   3.476
89118W        W53938   7.428  16.259  14.364
89119W        W53939  28.207  25.121  11.588
89120W        W53940  16.906  11.140   3.893
89121W        W53941  29.068  35.811  10.053
89122W        W53942  23.581  20.084  14.122
89123W        W53943  43.015  31.143   0.922
89124W        W53944  11.324  11.551   0.474
89125W        W53945  13.763  37.796   4.506
89126W        W53946  41.393  34.180  11.208
89127W        W53947  21.562   6.667   1.638
89128W        W53948  32.703  20.313   0.295
89129W        W53949  41.476   2.312  12.152
89130W        W53950  16.519   3.007  12.870
89131W        W53951  18.760  30.894   4.508
89132W        W53952   2.872  30.704  14.285
89133W        W53953  13.130   5.258  14.516
89134W        W53954  11.574  17.828   1.720
89135W        W53955  27.062  36.676  10.716
89136W        W53956  10.368  19.145  12.095
89137W        W53957   1.891  43.875  12.399
89138W        W53958  34.307  19.339   0.685
89139W        W53959   8.440  23.618   0.058
89140W        W53960  13.354  39.126  10.348
89141W        W53961   9.133  41.725  13.381
89142W        W53962  25.665  10.697  14.888
89143W        W53963  41.614  27.597  12.862
89144W        W53964  25.272   0.381   2.851
89145W        W53965  21.536  27.964   1.370
89146W        W53966   4.827   2.098   0.427
89147W        W53967   1.351  10.888   2.331
89148W        W53968  33.480  32.934  14.018
89149W        W53969   6.508  38.345  12.720
89150W        W53970  29.465  11.807  13.450
89151W        W53971  20.280   7.162   4.934
89152W        W53972   7.948  43.770  10.697
89153W        W53973  30.897   5.367  14.351
89154W        W53974  31.069  37.621  11.602
89155W        W53975  21.767  26.026   0.714
89156W        W53976  15.723  40.132   3.726
89157W        W53977   9.361   9.625  13.043
89158W        W53978  41.023  31.510   2.152
89159W        W53979  42.784  17.675  12.527
89160W        W53980  35.466   0.758   3.599
89161W        W53981  15.736  31.071   2.635
89162W        W53982  25.145  37.149   3.679
89163W        W53983  43.873  13.964  11.642
89164W        W53984   5.200  22.185   1.821
89165W        W53985  24.018   8.229  14.878
89166W        W53986  20.149  35.341   2.280
89167W        W53987  18.306  39.454   3.302
89168W        W53988  12.777  41.988  12.102
89169W        W53989  20.654  12.841  14.891
89170W        W53990  14.477  19.964  11.251
89171W        W53991  33.360  12.656   4.632
89172W        W53992   7.657  18.143   3.286
89173W        W53993  25.207  15.647  13.752
89174W        W53994   8.343  27.488   4.218
89175W        W53995  36.589   7.672  10.485
89176W        W53996   1.993  10.375  11.168
89177W        W53997  16.872  21.110   4.900
89178W        W53998  39.101  27.498  13.076
89179W        W53999  43.892  20.768   0.967
89180W        W54000  39.870   6.619  14.939
89181W        W54001  26.201  31.007  14.149
89182W        W54002  30.913   7.753  13.121
89183W        W54003  23.175  28.246   4.546
89184W        W54004  21.663  26.650   2.378
89185W        W54005  15.758  21.545  10.669
89186W        W54006  43.435  10.758  13.514
89187W        W54007  34.536   7.780  13.860
89188W        W54008  43.646  38.601  13.826
89189W        W54009  33.435  43.487  12.412
89190W        W54010  36.031  38.342   1.678
89191W        W54011  25.786   4.374   3.602
89192W        W54012   0.189   8.483   1.924
89193W        W54013  33.735  44.219  14.399
89194W        W54014   6.293  39.968   3.323
89195W        W54015  14.764   6.008  11.555
89196W        W54016  19.856  36.463  13.567
89197W        W54017  27.995  34.990  14.865
89198W        W54018  38.148   2.807   3.036
89199W        W54019  37.575  22.022  11.929
89200W        W54020  39.240  38.203  14.055
89201W        W54021  23.723  32.822  13.018
89202W        W54022  36.404  12.489  12.009
89203W        W54023  42.280   7.274  12.486
89204W        W54024   5.251  12.232  13.704
89205W        W54025  42.497   9.743   1.399
89206W        W54026  31.526  32.368  10.803
89207W        W54027  29.605   7.072  10.658
89208W        W54028  32.356   8.157  13.491
89209W        W54029  30.407  24.514   5.001
89210W        W54030  29.887  28.018   4.835
89211W        W54031   1.628  18.590  13.507
89212W        W54032  12.111   7.294  13.837
89213W        W54033  33.342   5.913  12.904
89214W        W54034  31.429   0.249   3.670
89215W        W54035  35.028  25.401  11.311
89216W        W54036  42.432  33.701  10.171
89217W        W54037   1.237  34.182   4.185
89218W        W54038  36.935  37.294  13.997
89219W        W54039  18.130  32.851   4.760
89220W        W54040  15.186  29.441   2.273
89221W        W54041  33.664  24.613   3.621
89222W        W54042  14.372  31.681  13.037
89223W        W54043  22.497  12.286   0.244
89224W        W54044   8.131  36.977  11.701
89225W        W54045  42.677  24.041   0.253
89226W        W54046  15.579  26.810  14.704
89227W        W54047  21.240  21.404   1.119
89228W        W54048  20.766  35.532   1.388
89229W        W54049  33.570  14.709  12.486
89230W        W54050   6.206   5.365   1.854
89231W        W54051  19.096  21.609   4.022
89232W        W54052  29.397  25.024  12.553
89233W        W54053  18.728  30.626  10.394
89234W        W54054   7.280  41.456   1.648
89235W        W54055   1.204  24.082   1.079
89236W        W54056  41.015  43.467  11.067
89237W        W54057  21.235  35.303   1.157
89238W        W54058  31.048  11.864  12.369
89239W        W54059  18.320  42.825   0.472
89240W        W54060  14.299  22.992  13.426
89241W        W54061   7.688  42.838  11.991
89242W        W54062  31.422   1.884  14.771
89243W        W54063  17.350  26.150  14.123
89244W        W54064  23.460  26.955  10.468
89245W        W54065  33.544  12.246   4.363
89246W        W54066  36.154   3.672  12.026
89247W        W54067  34.325  23.052   2.386
89248W        W54068  40.568  42.078   4.614
89249W        W54069  41.092  39.765   2.273
89250W        W54070   9.734  24.727  12.876
89251W        W54071  34.395   1.454   2.620
89252W        W54072  33.472  26.676  10.761
89253W        W54073   0.369  16.136   0.564
89254W        W54074  29.149  39.353  12.160
89255W        W54075  36.479  40.061   3.277
89256W        W54076   5.485  15.433  11.159
89257W        W54077   0.201  11.359  13.381
89258W        W54078  26.123  43.404  11.922
89259W        W54079  38.333  29.203   1.432
89260W        W54080  29.350  34.986   0.247
89261W        W54081  23.630  33.655  13.375
89262W        W54082  18.012  39.535   3.710
89263W        W54083  39.948  25.573  11.371
89264W        W54084  30.950  43.720   2.780
89265W        W54085   1.451  31.616   2.339
89266W        W54086   2.147  23.612   0.827
89267W        W54087   9.444  24.837   2.681
89268W        W54088   1.351  30.207   4.524
89269W        W54089  18.116  28.930  12.091
89270W        W54090  15.033   0.498  11.024
89271W        W54091   5.889  10.338   3.422
89272W        W54092  22.242  10.584  12.560
89273W        W54093   5.469   0.735  12.830
89274W        W54094  43.240  25.162   2.234
89275W        W54095  25.558  16.069  11.593
89276W        W54096   4.609  15.067   4.616
89277W        W54097   3.709  21.591  14.780
89278W        W54098   2.874  26.237  13.482
89279W        W54099  40.418   3.142   5.246
89280W        W54100   2.331   8.617   2.702
89281W        W54101  32.817   2.463   3.304
89282W        W54102  42.422   4.849  12.679
89283W        W54103  24.571  41.719  14.973
89284W        W54104   7.065  15.229   1.571
89285W        W54105  13.401   6.929  14.039
89286W        W54106  17.777   1.352   1.920
89287W        W54107  15.641  24.681  12.980
89288W        W54108  15.218  22.739  12.323
89289W        W54109  23.850  36.159  14.392
89290W        W54110  13.498  30.798  14.059
89291W        W54111  18.996  20.528  12.358
89292W        W54112   1.124   7.303   0.275
89293W        W54113   0.906  18.924  10.971
89294W        W54114   2.944  18.317  12.427
89295W        W54115  28.419  34.273  13.161
89296W        W54116  14.076  37.897  13.353
89297W        W54117   4.841  15.593   3.875
89298W        W54118   6.129   8.492   2.693
89299W        W54119  30.145  32.496  10.716
89300W        W54120   1.968  35.138   0.392
89301W        W54121  13.373  19.246   4.250
89302W        W54122  34.072  16.810  10.706
89303W        W54123  38.479  31.212  12.945
89304W        W54124  22.645  43.087   3.587
89305W        W54125  21.289   7.298  14.881
89306W        W54126  33.127   7.218  12.923
89307W        W54127  37.770  15.353  14.376
89308W        W54128  10.314   8.445   2.369
89309W        W54129   6.299   8.139   0.697
89310W        W54130  17.973  36.375   4.079
89311W        W54131  33.490  42.907  14.555
89312W        W54132  35.250  35.659  11.970
89313W        W54133  10.103   3.425   2.292
89314W        W54134   3.657   4.489   4.704
89315W        W54135  11.539  11.553   4.953
89316W        W54136  24.452  26.625   5.069
89317W        W54137   9.822  39.624   1.283
89318W        W54138   5.938  20.655   1.679
89319W        W54139   7.735  31.323  11.935
89320W        W54140   3.320  36.878   0.747
89321W        W54141   7.184  17.765  11.986
89322W        W54142  26.945  42.683  10.302
89323W        W54143  26.660  38.406   0.059
89324W        W54144   2.789  41.216  11.487
89325W        W54145  23.631  13.798   1.260
89326W        W54146  39.076  25.900  11.033
89327W        W54147  22.056  24.659  10.600
89328W        W54148  19.694  25.548   0.910
89329W        W54149  12.123  11.306   0.836
89330W        W54150  12.127  26.996   2.737
89331W        W54151   2.130  40.477   3.645
89332W        W54152  31.800   9.416  14.394
89333W        W54153   1.112  31.898  10.343
89334W        W54154  24.017  16.813   1.538
89335W        W54155  33.420  25.593  14.065
89336W        W54156  37.909  36.365  13.020
89337W        W54157   9.233  13.992   3.390
89338W        W54158  11.408   0.170   0.672
89339W        W54159   4.981   5.860   4.719
89340W        W54160  17.017  23.015   0.527
89341W        W54161  25.145  13.763  12.345
89342W        W54162  34.807   4.676  10.143
89343W        W54163   0.117   5.633  11.871
89344W        W54164   1.866   4.692  14.054
89345W        W54165   4.480  32.660  11.159
89346W        W54166   6.850  18.695  14.300
89347W        W54167  18.305   8.593  12.033
89348W        W54168   1.833  35.563   1.026
89349W        W54169   3.060  37.035  14.949
89350W        W54170   2.517  25.026  13.980
89351W        W54171  18.566  28.129   1.183
89352W        W54172  23.004  16.983  14.559
89353W        W54173  25.287   4.367   3.712
89354W        W54174  15.062  22.682   3.692
89355W        W54175  44.056  42.311  11.176
89356W        W54176  33.452   6.226   1.272
89357W        W54177  40.815   8.749   0.184
89358W        W54178  13.425  24.995   4.003
89359W        W54179  38.537  44.401   2.230
89360W        W54180  28.024  30.074   2.760
89361W        W54181  13.755   1.279   1.994
89362W        W54182  15.993  43.434  12.003
89363W        W54183  34.179   3.097   1.102
89364W        W54184  24.270  12.067  11.094
89365W        W54185  10.242   8.387  14.684
89366W        W54186  43.986  26.086  13.385
89367W        W54187  18.890  44.399   0.824
89368W        W54188  42.032  23.460   0.417
89369W        W54189   2.486  24.180  11.001
89370W        W54190  34.309  33.663   0.302
89371W        W54191  27.122  23.172   1.732
89372W        W54192   7.007  15.873   3.204
89373W        W54193  34.631  27.664   1.388
89374W        W54194  43.228  37.058   1.792
89375W        W54195  10.343  43.172   0.531
89376W        W54196  32.230  12.620  10.827
89377W        W54197  18.011  25.126  13.991
89378W        W54198   1.303  27.682  14.290
89379W        W54199  43.148  40.319   2.254
89380W        W54200  20.584  29.609   3.908
89381W        W54201  19.375  38.274  12.073
89382W        W54202  40.414   7.774  10.929
89383W        W54203  10.537  32.172  11.735
89384W        W54204  35.841  12.160  11.561
89385W        W54205  36.952  37.882  13.047
89386W        W54206  16.749  23.503   3.727
89387W        W54207  42.244  36.863   1.859
89388W        W54208  42.295  44.436  13.610
89389W        W54209  35.688  39.230   1.817
89390W        W54210   2.397  38.798  13.817
89391W        W54211  41.459  28.566  10.575
89392W        W54212  25.121  15.535   3.214
89393W        W54213  26.658  28.517  14.045
89394W        W54214  13.568  43.905  10.424
89395W        W54215   4.881   8.103  14.055
89396W        W54216  20.742  38.552  13.784
89397W        W54217  14.053  29.862   0.547
89398W        W54218  34.046  24.956  14.879
89399W        W54219  33.021  31.695   0.936
89400W        W54220   5.460  40.348   4.566
89401W        W54221  29.527  31.082  13.394
89402W        W54222   2.013   1.390  14.447
89403W        W54223  16.794  15.281  13.910
89404W        W54224  28.461  21.082  11.007
89405W        W54225  30.434   8.668   5.017
89406W        W54226  42.275   9.201  13.601
89407W        W54227  43.313   6.168   0.285
89408W        W54228  23.625  11.665   3.317
89409W        W54229  17.380  40.781  14.315
89410W        W54230  39.837  19.062  10.739
89411W        W54231  32.737  38.292   1.613
89412W        W54232   2.911  38.261  10.732
89413W        W54233  10.144  13.467   0.241
89414W        W54234  16.765  27.983   1.005
89415W        W54235   3.738  19.037   0.712
89416W        W54236  31.497  18.840  11.564
89417W        W54237  33.866  29.431   3.649
89418W        W54238  40.396  43.975   0.612
89419W        W54239  30.073  26.234  14.212
89420W        W54240  29.284  44.512  13.036
89421W        W54241  41.471  16.322  12.850
89422W        W54242  36.368   1.435   0.808
89423W        W54243  25.423  28.548   1.369
89424W        W54244  32.462  16.156  12.291
89425W        W54245   4.217   2.834  13.014
89426W        W54246  18.985  30.765  12.513
89427W        W54247  35.531  40.286  13.931
89428W        W54248  14.177  36.522  12.046
89429W        W54249  30.907   8.585  13.846
89430W        W54250  19.733   0.859   5.367
89431W        W54251  35.956  13.327  13.637
89432W        W54252  27.390  19.970   9.945
89433W        W54253  43.961  24.731   0.876
89434W        W54254  24.928   4.126  12.707
89435W        W54255  26.192   8.698   1.383
89436W        W54256  28.522  20.612   1.668
89437W        W54257  24.598  38.877  12.344
89438W        W54258   9.939  21.575   2.336
89439W        W54259   9.815  14.587   1.771
89440W        W54260  28.791  11.669   2.807
89441W        W54261  16.625  11.366  14.921
89442W        W54262   8.391  19.766  12.796
89443W        W54263  26.060  30.263  13.537
89444W        W54264  35.460  20.576  13.631
89445W        W54265   3.459   7.432   4.562
89446W        W54266   0.306   8.851  13.362
89447W        W54267  19.066  44.488  11.576
89448W        W54268   9.257  32.133  11.687
89449W        W54269  13.792  34.882  12.658
89450W        W54270  36.567  19.095  11.528
89451W        W54271  25.664  13.685   2.996
89452W        W54272  18.691  40.730   3.644
89453W        W54273  15.812  21.039   0.816
89454W        W54274  40.893  11.279  14.349
89455W        W54275  16.535  20.594  14.955
89456W        W54276  39.247  26.594   1.036
89457W        W54277  16.142   1.852  13.478
89458W        W54278  38.720   0.607  13.893
89459W        W54279  35.016  37.433   4.094
89460W        W54280  37.623   5.732   0.567
89461W        W54281  35.455  38.870  13.779
89462W        W54282  34.108   8.385  11.319
89463W        W54283   8.406  27.037   1.731
89464W        W54284  15.652   4.984  11.514
89465W        W54285  42.035  17.850  12.097
89466W        W54286  21.081  11.760  13.586
89467W        W54287   3.804   2.237  14.244
89468W        W54288  25.176  43.808   0.757
89469W        W54289  35.432  20.018  13.904
89470W        W54290   6.351   2.746  11.294
89471W        W54291  12.923  43.834  13.928
89472W        W54292  15.948  24.362  13.845
89473W        W54293  40.436  21.947   3.261
89474W        W54294  13.593  23.580  13.018
89475W        W54295  19.533  11.303   3.771
89476W        W54296  10.245   2.098  10.708
89477W        W54297  44.760  17.702   1.813
89478W        W54298  35.797   8.337  14.896
89479W        W54299   0.598  36.886   3.065
89480W        W54300  38.082  23.227  11.608
89481W        W54301   6.214  34.447  10.682
89482W        W54302   0.492  30.450  11.124
89483W        W54303  37.641  35.032   4.450
89484W        W54304  23.455   3.095   3.768
89485W        W54305  31.456  17.384  12.991
89486W        W54306  21.138  25.429   3.107
89487W        W54307  24.625   3.538   0.003
89488W        W54308  43.947   8.785   2.283
89489W        W54309  10.765   5.473  12.440
89490W        W54310   5.033  24.208   0.207
89491W        W54311   3.132  17.069   4.556
89492W        W54312   8.687  20.101   5.093
89493W        W54313  37.987  17.343  10.718
89494W        W54314   1.905  40.215  10.449
89495W        W54315  24.599  22.266   5.484
89496W        W54316  17.745  39.967  14.949
89497W        W54317  34.976  29.423  12.041
89498W        W54318  33.009  15.157  10.026
89499W        W54319  35.299  38.828  12.984
89500W        W54320  38.380  28.648   2.234
89501W        W54321  19.615  31.379  12.190
89502W        W54322  10.368  12.301   4.423
89503W        W54323   4.439  12.904  10.420
89504W        W54324  23.742  40.603  14.986
89505W        W54325  37.389  38.888  14.944
89506W        W54326  42.777   6.652   4.569
89507W        W54327  14.185  33.013  11.655
89508W        W54328  12.807  16.621  13.057
89509W        W54329  21.453   3.959  11.089
89510W        W54330  13.365  20.531   1.888
89511W        W54331   7.461  14.251  10.833
89512W        W54332   8.952  22.216   2.694
89513W        W54333  12.293   9.909  13.965
89514W        W54334  37.041  10.333   0.410
89515W        W54335  34.283  22.229   3.246
89516W        W54336  43.415  37.835  14.425
89517W        W54337  41.293   5.835  11.422
89518W        W54338  12.102   2.482  11.986
89519W        W54339  22.703  22.480  14.672
89520W        W54340  12.251  44.893  14.782
89521W        W54341  43.235  20.790  14.061
89522W        W54342   3.727  20.121   2.175
89523W        W54343  16.553   7.519   0.388
89524W        W54344  21.429  21.685  14.840
89525W        W54345  43.036  26.035  11.301
89526W        W54346   8.318  18.094   4.563
89527W        W54347   8.347  44.869  14.901
89528W        W54348   9.242  43.255   3.282
89529W        W54349  17.792  23.417  12.556
89530W        W54350   9.316  36.809  12.144
89531W        W54351  13.365  18.255   4.357
89532W        W54352  44.587  11.355  12.007
89533W        W54353   9.157  26.112   1.820
89534W        W54354  33.533  24.905  11.162
89535W        W54355  29.576   0.561  14.949
89536W        W54356  28.545   4.828   1.645
89537W        W54357  27.998  19.653   3.127
89538W        W54358  42.539  38.624   4.942
89539W        W54359  35.122  19.475   3.350
89540W        W54360  31.790   4.976   2.742
89541W        W54361  41.473  13.120   3.873
89542W        W54362   3.165  31.362  10.758
89543W        W54363  36.908  23.608  14.711
89544W        W54364  38.092  40.631  14.424
89545W        W54365  42.029  32.994   4.619
89546W        W54366  32.942  16.587  13.454
89547W        W54367  31.007  20.618  11.958
89548W        W54368  14.236  27.158  14.834
89549W        W54369   8.883   0.265  13.313
89550W        W54370  41.372   4.176   0.300
89551W        W54371  36.641  16.649   3.580
89552W        W54372  31.711  24.541   2.343
89553W        W54373  39.200  14.132   2.886
89554W        W54374   6.796  26.049   1.387
89555W        W54375   8.592  10.267   2.838
89556W        W54376   8.593  41.684   1.163
89557W        W54377   0.403   8.637  11.402
89558W        W54378   1.297   9.300   3.317
89559W        W54379  11.721  35.054  14.987
89560W        W54380  36.391  12.625  12.943
89561W        W54381   7.272   1.161  10.665
89562W        W54382   1.214   4.333  10.699
89563W        W54383   6.256  21.078   1.869
89564W        W54384  24.913   0.455  13.815
89565W        W54385  37.307  42.352   1.865
89566W        W54386  11.395  22.216  10.764
89567W        W54387  28.565  37.108   3.145
89568W        W54388  36.933  35.838   4.676
89569W        W54389  17.249   7.590   1.437
89570W        W54390  35.069   7.571   9.912
89571W        W54391   7.046  34.847   0.772
89572W        W54392  40.988  32.045   5.048
89573W        W54393  26.465  15.232  13.841
89574W        W54394   4.795  20.038  14.935
89575W        W54395  16.181   1.840   0.849
89576W        W54396  11.719   5.206   3.836
89577W        W54397  30.104  12.957   3.278
89578W        W54398  22.992  24.961  12.007
89579W        W54399  40.932  26.700   4.217
89580W        W54400  40.326  38.108   3.333
89581W        W54401  18.112  14.801   2.983
89582W        W54402  28.327  38.392  13.992
89583W        W54403  40.008  39.353   4.561
89584W        W54404  11.822  13.099  13.409
89585W        W54405  34.663  43.007   1.726
89586W        W54406  20.602  16.245   2.369
89587W        W54407  39.459  22.100   3.604
89588W        W54408   8.936  19.106  11.223
89589W        W54409  10.225  42.789  10.213
89590W        W54410  17.180  19.043  11.767
89591W        W54411  13.674  24.798  10.554
89592W        W54412  14.368  28.646  12.849
89593W        W54413   3.711   9.668  14.901
89594W        W54414   6.456  39.050  13.892
89595W        W54415  32.004  11.762  10.964
89596W        W54416  36.347  35.006  12.188
89597W        W54417   6.391  36.572   3.280
89598W        W54418  40.368   7.238   2.869
89599W        W54419   3.605  18.562  13.332
89600W        W54420   2.473  26.104  14.982
89601W        W54421   8.179   5.966   0.638
89602W        W54422  33.609  30.499   1.274
89603W        W54423  17.615  40.327   0.346
89604W        W54424  19.108  18.824   2.244
89605W        W54425  40.988  20.538  13.280
89606W        W54426  38.431  22.421   1.968
89607W        W54427  19.454  38.520   2.760
89608W        W54428   5.972   7.125  11.977
89609W        W54429   6.868   3.012   1.794
89610W        W54430   8.729   6.920   4.673
89611W        W54431  14.777  37.919   4.625
89612W        W54432  18.942  12.683   3.155
89613W        W54433  35.462  10.724  14.044
89614W        W54434  23.029   7.147  13.381
89615W        W54435  36.599   0.372   1.264
89616W        W54436   4.914  28.675  13.894
89617W        W54437  33.426   6.406  12.026
89618W        W54438  20.092  18.775   2.195
89619W        W54439  13.546  25.378  11.603
89620W        W54440  25.292  16.214   0.471
89621W        W54441  13.919  26.491  14.177
89622W        W54442   5.767  17.101  11.414
89623W        W54443  33.684  26.821  11.208
89624W        W54444   9.049  32.830  10.236
89625W        W54445   0.283  35.333  11.915
89626W        W54446  15.331  10.282  12.143
89627W        W54447  32.004  31.452   0.319
89628W        W54448  44.997  38.512  14.617
89629W        W54449   2.854  17.185   4.128
89630W        W54450  39.730   8.086   3.883
89631W        W54451  17.609  41.717  13.506
89632W        W54452   1.736  18.219   4.296
89633W        W54453   0.651  43.016  14.804
89634W        W54454   0.734  13.640   1.780
89635W        W54455  23.140  39.610   4.766
89636W        W54456  33.037  38.388   2.674
89637W        W54457   2.919  29.729  11.319
89638W        W54458  30.400  31.588  10.783
89639W        W54459  31.813  33.066  11.215
89640W        W54460   3.778  18.857   1.704
89641W        W54461  16.578  28.928   1.373
89642W        W54462  14.586   9.357   3.171
89643W        W54463  29.571  26.055   0.772
89644W        W54464  23.088   3.797  13.814
89645W        W54465  22.248  11.352  14.349
89646W        W54466  15.405  41.482  12.154
89647W        W54467  43.870  21.757   0.932
89648W        W54468  43.332  15.179   4.557
89649W        W54469  34.947  36.698   4.870
89650W        W54470   0.929  35.125   1.188
89651W        W54471  31.071  41.071   1.376
89652W        W54472   7.401  43.247   2.887
89653W        W54473   0.477  23.814  10.398
89654W        W54474  35.288  43.294   4.128
89655W        W54475  28.977   8.138   0.246
89656W        W54476  38.865  18.496  11.182
89657W        W54477   4.405   0.401  10.731
89658W        W54478  22.585   5.344  11.291
89659W        W54479   6.346  11.883  13.224
89660W        W54480  44.817   4.416   0.740
89661W        W54481   8.875  30.211   1.762
89662W        W54482   2.916  40.824  14.882
89663W        W54483  19.005   0.462   4.126
89664W        W54484  15.848   8.234   0.232
89665W        W54485  26.696  39.808  12.950
89666W        W54486  25.441   9.242  14.134
89667W        W54487   2.543  41.425   3.592
89668W        W54488   4.667  27.404  12.485
89669W        W54489  26.731  36.416   2.023
89670W        W54490  35.402   4.628  13.017
89671W        W54491  25.205  15.384   0.546
89672W        W54492  14.067  17.275  12.098
89673W        W54493   8.364  28.203  12.493
89674W        W54494  40.983  22.356  13.823
89675W        W54495   7.763  12.100  14.966
89676W        W54496  42.747   5.884  14.703
89677W        W54497  16.837  21.103  10.706
89678W        W54498  18.988  24.741   1.337
89679W        W54499  18.720   7.063   4.167
89680W        W54500  41.814  26.536  14.327
89681W        W54501  10.569  28.506  14.973
89682W        W54502  11.284   7.927   3.715
89683W        W54503  28.795  31.924   2.032
89684W        W54504   3.212   5.384   2.354
89685W        W54505  37.871  26.699  12.473
89686W        W54506  37.062  33.374   1.146
89687W        W54507  17.666  16.311  13.374
89688W        W54508  23.669  37.584   1.777
89689W        W54509  32.900  41.495   4.869
89690W        W54510  34.054  29.103   2.331
89691W        W54511   5.498   7.399   0.903
89692W        W54512   1.851  18.269  11.433
89693W        W54513  21.615  24.185  14.431
89694W        W54514  13.007  23.476  11.486
89695W        W54515  11.840  32.137  14.781
89696W        W54516  43.036   4.284  14.305
89697W        W54517  18.398  25.031  14.930
89698W        W54518   0.962  29.593   0.042
89699W        W54519  29.261  16.262  11.510
89700W        W54520  39.357  42.357  14.514
89701W        W54521  18.811  34.278  13.496
89702W        W54522  20.235   6.222   4.981
89703W        W54523   6.028  38.526   2.276
89704W        W54524  39.302   5.117   2.133
89705W        W54525   8.660  18.148   0.024
89706W        W54526  26.573  14.358  13.851
89707W        W54527  44.823  41.862   4.081
89708W        W54528   1.757  29.068  11.121
89709W        W54529  44.429  20.795   0.442
89710W        W54530   7.890   9.785  10.912
89711W        W54531   6.662   7.190   0.267
89712W        W54532  16.368  39.378  12.882
89713W        W54533  40.351  36.796   0.065
89714W        W54534  14.842  16.866   4.645
89715W        W54535  13.635   4.513  14.446
89716W        W54536  26.243  38.411   1.296
89717W        W54537   2.711   4.003   3.322
89718W        W54538   4.697   5.308   1.067
89719W        W54539   3.186  19.232  13.787
89720W        W54540  26.214  42.480   1.354
89721W        W54541   8.078  10.315   2.774
89722W        W54542  33.918   0.880  14.276
89723W        W54543  34.643  25.313   4.640
89724W        W54544  15.157  36.356   1.344
89725W        W54545   1.320   6.220  14.415
89726W        W54546  26.343   3.206   3.752
89727W        W54547  26.080  33.030   3.199
89728W        W54548   2.804  11.720  11.100
89729W        W54549   6.116  35.933  11.032
89730W        W54550  43.994   7.880   3.424
89731W        W54551  35.562  32.555  12.124
89732W        W54552  33.110   1.383   1.534
89733W        W54553  17.203  19.898   3.643
89734W        W54554  36.299  31.501  14.494
89735W        W54555   6.730  15.605  10.730
89736W        W54556   4.222  17.368  11.042
89737W        W54557  18.092  18.130  14.578
89738W        W54558  44.510  26.713   4.031
89739W        W54559  25.867   2.288   4.552
89740W        W54560  16.343   5.571   4.263
89741W        W54561   2.535  20.088  14.528
89742W        W54562  12.777   1.211  11.092
89743W        W54563  14.285  29.419  12.624
89744W        W54564  42.218   2.222   1.799
89745W        W54565  35.647  25.210  11.493
89746W        W54566   1.326  25.537   4.015
89747W        W54567  36.930  16.192   3.571
89748W        W54568  25.013  33.405  12.985
89749W        W54569  33.390  34.127  12.870
89750W        W54570  12.984  14.627   1.877
89751W        W54571  42.503  34.356   0.870
89752W        W54572  11.725  10.616  12.604
89753W        W54573  36.841  37.065  13.473
89754W        W54574  18.543  37.603  14.381
89755W        W54575  28.178  27.373   4.061
89756W        W54576  24.024  14.621  14.555
89757W        W54577  44.509  17.898  11.653
89758W        W54578  35.509   8.936   3.441
89759W        W54579  36.899  30.681   1.182
89760W        W54580  42.261  21.658   0.037
89761W        W54581  11.729  26.480   2.240
89762W        W54582  17.074  32.774   5.466
89763W        W54583   0.206  36.549   3.215
89764W        W54584  38.573  35.171  13.427
89765W        W54585  42.865  36.019   2.486
89766W        W54586   5.656  12.185   3.439
89767W        W54587  13.546  24.627  13.859
89768W        W54588  21.200   6.184  13.367
89769W        W54589  12.733  31.914  12.530
89770W        W54590  44.012  26.229   2.076
89771W        W54591  44.208  31.983  14.746
89772W        W54592  43.775  10.300   3.670
89773W        W54593  32.693  14.628  14.513
89774W        W54594  36.290  13.594   2.797
89775W        W54595  30.449   8.642   1.024
89776W        W54596  11.238   7.836   4.206
89777W        W54597   9.363  33.530  13.369
89778W        W54598  33.986  29.946  10.825
89779W        W54599  40.339  38.875   4.242
89780W        W54600  39.100  21.764  12.476
89781W        W54601  43.804  27.458   4.053
89782W        W54602  33.907   7.749  12.937
89783W        W54603   4.309   2.813   2.239
89784W        W54604  15.266   1.563   1.535
89785W        W54605  15.621   8.233  11.678
89786W        W54606  12.452  10.247   1.360
89787W        W54607  23.442  38.832   3.758
89788W        W54608  21.139   0.287   9.711
89789W        W54609  34.432  40.443   2.290
89790W        W54610  28.410  27.044  13.588
89791W        W54611  36.206  19.225  13.498
89792W        W54612  24.772  25.108  11.205
89793W        W54613  29.515  14.669   0.002
89794W        W54614  40.681  16.526   2.452
89795W        W54615  13.265  29.530   4.163
89796W        W54616  34.095  22.162   4.315
89797W        W54617   3.098  30.698   2.741
89798W        W54618   2.471  34.017  10.596
89799W        W54619  24.510  36.180  10.516
89800W        W54620  10.551  35.440   0.278
89801W        W54621  39.527  15.996   0.071
89802W        W54622  36.545  36.842  10.584
89803W        W54623  44.010  19.907  11.973
89804W        W54624  16.288   3.683  12.491
89805W        W54625   8.777  30.920   1.209
89806W        W54626  27.513   7.660  12.063
89807W        W54627   6.633  25.667  11.273
89808W        W54628  18.102  23.962  11.436
89809W        W54629  27.565  19.765   2.575
89810W        W54630  40.503  28.860   2.722
89811W        W54631  10.337  35.756   2.718
89812W        W54632  17.211  34.158  11.170
89813W        W54633  25.040  18.453   4.023
89814W        W54634  20.739  17.232  14.736
89815W        W54635   1.338  18.290  11.498
89816W        W54636  26.551  12.358  14.980
89817W        W54637  42.063  28.883  14.431
89818W        W54638  21.135  25.124  12.402
89819W        W54639  41.216   6.400  12.493
89820W        W54640  29.540   0.262   3.471
89821W        W54641  33.644  16.810   0.063
89822W        W54642   8.831  34.049   1.076
89823W        W54643  23.668   9.295   2.759
89824W        W54644   8.700  41.767  14.353
89825W        W54645  18.157  40.522  13.295
89826W        W54646   8.637  12.656  13.498
89827W        W54647   9.844   1.696  12.061
89828W        W54648  28.645   7.292  10.805
89829W        W54649  13.433  27.052  11.035
89830W        W54650  42.820  42.920   0.488
89831W        W54651  15.723  10.111  10.146
89832W        W54652  15.603  34.171   0.807
89833W        W54653  10.052   5.393   4.825
89834W        W54654   9.417  21.991   4.184
89835W        W54655  10.695  43.258  14.777
89836W        W54656  18.525  14.334   0.483
89837W        W54657  39.811   0.226  13.348
89838W        W54658  18.492   7.356   3.355
89839W        W54659   6.925  10.304  11.906
89840W        W54660  34.121   8.818   1.445
89841W        W54661  42.357   9.251  10.849
89842W        W54662  23.812  31.304  14.558
89843W        W54663  33.685  38.507   1.474
89844W        W54664  29.690  14.128   1.441
89845W        W54665  43.047  12.173  10.775
89846W        W54666  39.809  12.571  11.984
89847W        W54667  14.385  22.561   2.384
89848W        W54668  16.072  16.401   2.162
89849W        W54669  27.645   0.309  11.378
89850W        W54670  37.311  23.093  11.931
89851W        W54671   7.593  34.642  10.259
89852W        W54672   3.520  43.888  11.043
89853W        W54673  26.004  18.543   3.221
89854W        W54674   3.016   4.761  10.722
89855W        W54675  34.964  39.244   0.389
89856W        W54676   4.501  17.616  14.091
89857W        W54677  29.728  24.468  13.720
89858W        W54678   0.893  19.840   3.255
89859W        W54679  36.015  36.082  11.578
89860W        W54680   7.963   4.805   3.445
89861W        W54681  31.528  44.544   0.697
89862W        W54682   2.749  44.241   1.838
89863W        W54683  26.968  12.194  11.430
89864W        W54684  31.016  36.612  11.593
89865W        W54685  37.660  22.018   0.900
89866W        W54686  35.831  11.240   1.782
89867W        W54687  26.238  34.614  14.464
89868W        W54688  37.176  20.497   3.227
89869W        W54689  25.432  24.105   0.584
89870W        W54690   8.809  11.036  14.303
89871W        W54691  22.473  18.791  12.975
89872W        W54692  18.794  18.391   1.357
89873W        W54693   1.230  28.174   0.504
89874W        W54694   0.331   3.137  12.616
89875W        W54695  14.578  21.213  12.845
89876W        W54696  40.389   7.781   4.592
89877W        W54697  42.324  18.560   0.788
89878W        W54698   8.422  26.584   1.466
89879W        W54699  27.520  35.495  13.044
89880W        W54700  31.649  21.511  12.200
89881W        W54701   8.138   1.934   3.738
89882W        W54702  16.116  13.923   4.320
89883W        W54703  13.151  18.571   0.797
89884W        W54704   0.413  35.488   4.135
89885W        W54705  38.061  16.132   3.572
89886W        W54706   4.780  11.534  12.917
89887W        W54707   4.468  12.131  11.484
89888W        W54708  12.371  41.374  11.711
89889W        W54709  39.381  20.169   1.194
89890W        W54710   6.578  23.306   4.956
89891W        W54711  41.515   4.276  14.682
89892W        W54712  34.565   4.540   0.363
89893W        W54713  35.025  30.443   4.653
89894W        W54714  34.935  17.177   1.781
89895W        W54715  18.778  28.059   0.252
89896W        W54716  31.998   1.919  14.867
89897W        W54717  28.427  27.707   1.634
89898W        W54718   6.313   2.453  13.604
89899W        W54719  28.270  25.357   9.984
89900W        W54720   0.904  34.105  10.609
89901W        W54721  31.915  33.817   1.802
89902W        W54722  13.434   9.151  14.960
89903W        W54723  15.258  14.524   4.943
89904W        W54724  18.645  15.182  11.409
89905W        W54725   2.403  20.771   0.324
89906W        W54726   3.058  39.922  11.520
89907W        W54727  29.831  29.238   4.253
89908W        W54728   1.621  38.719  12.813
89909W        W54729  18.701  15.771   1.689
89910W        W54730   3.292   9.068  11.116
89911W        W54731   2.436  33.305   1.532
89912W        W54732   1.742  40.113  11.793
89913W        W54733   7.150  39.475   2.553
89914W        W54734  35.154  31.432  13.499
89915W        W54735  44.573  21.321  13.285
89916W        W54736  26.676   1.858   2.839
89917W        W54737  19.950  24.622  10.800
89918W        W54738   9.641  17.214  11.617
89919W        W54739   2.886  24.335   9.650
89920W        W54740  42.080  34.931   0.816
89921W        W54741  11.210  28.052   4.274
89922W        W54742  14.823  18.605   1.314
89923W        W54743   2.109  14.561  12.920
89924W        W54744  22.003  27.416  13.002
89925W        W54745  39.931   5.068   4.338
89926W        W54746  33.451  10.063   5.009
89927W        W54747  40.051  33.543  10.799
89928W        W54748   6.388  39.852   2.829
89929W        W54749  34.652   2.247  12.957
89930W        W54750  22.840  27.548   0.485
89931W        W54751  34.837  12.442   0.771
89932W        W54752  41.537  41.447  12.072
89933W        W54753  39.722  33.618  14.343
89934W        W54754  17.664  13.522  11.237
89935W        W54755  25.058  24.703   0.973
89936W        W54756  24.287   1.413   0.785
89937W        W54757  24.560  13.334  14.251
89938W        W54758  34.726  25.208  12.112
89939W        W54759  17.655  42.432   2.724
89940W        W54760  16.873  31.351  11.458
89941W        W54761  34.461   0.805   0.575
89942W        W54762  11.276  39.386  12.573
89943W        W54763  11.815  27.155  14.777
89944W        W54764  40.864  12.072  13.844
89945W        W54765  22.535  34.872   3.162
89946W        W54766  12.188   6.515  13.489
89947W        W54767  37.255  30.667   0.778
89948W        W54768  36.939   4.847   3.159
89949W        W54769   9.591  34.897  13.428
89950W        W54770  27.015  24.428  14.414
89951W        W54771  42.487  11.429   1.846
89952W        W54772   7.264  13.620  13.408
89953W        W54773  33.057  34.077   4.704
89954W        W54774   6.068  34.626   0.878
89955W        W54775   3.835  21.127  10.964
89956W        W54776   0.728  23.042   1.271
89957W        W54777  40.041   2.941  11.692
89958W        W54778  36.407  23.981  11.581
89959W        W54779  22.256  42.921  11.117
89960W        W54780   2.192  41.796   0.355
89961W        W54781  28.006  15.591   3.445
89962W        W54782  27.886  11.347  10.825
89963W        W54783  39.420  25.889   1.460
89964W        W54784  39.076   7.829   1.516
89965W        W54785  43.304  23.535   4.243
89966W        W54786  44.336   2.923  14.987
89967W        W54787  39.697  15.591  14.802
89968W        W54788   3.395  12.075   3.132
89969W        W54789   0.766   7.266  14.882
89970W        W54790  33.555   0.350   3.991
89971W        W54791  34.825   2.594   0.237
89972W        W54792  44.355  21.714   4.392
89973W        W54793  13.076  37.099   1.664
89974W        W54794  23.095  30.469  11.138
89975W        W54795   1.839  42.822  10.812
89976W        W54796  26.099  43.295   4.725
89977W        W54797  12.803  10.587   2.804
89978W        W54798  39.265  18.236  13.484
89979W        W54799  43.325  21.208  10.703
89980W        W54800  14.537   4.724   5.315
89981W        W54801  23.010  10.860   1.291
89982W        W54802   1.589  11.718  13.456
89983W        W54803  12.831  20.300  11.975
89984W        W54804  14.128   5.402   1.183
89985W        W54805  37.910   6.188  12.485
89986W        W54806   2.447  31.381   0.212
89987W        W54807  12.315  43.620  13.502
89988W        W54808  10.470  16.265  12.943
89989W        W54809  20.465   7.129   2.749
89990W        W54810  21.753  28.986  12.124
89991W        W54811  40.156   0.600  13.946
89992W        W54812  14.104  21.966  12.571
89993W        W54813  23.983  44.888   1.893
89994W        W54814  40.754   1.440  10.985
89995W        W54815  13.305   7.201   0.617
89996W        W54816   5.459   7.790  12.064
89997W        W54817   2.506  17.724  13.009
89998W        W54818  17.281  37.993   2.792
89999W        W54819  31.639   4.745   0.257
90000W        W54820  37.953  41.843   0.134
90001W        W54821   4.586  34.364   4.399
90002W        W54822  27.686   3.987  11.248
90003W        W54823  35.635  14.688  12.342
90004W        W54824   7.117  41.552  11.821
90005W        W54825  18.077  35.656  12.604
90006W        W54826   5.334   6.870   4.791
90007W        W54827  44.266  12.212  12.637
90008W        W54828   5.639  38.378   1.962
90009W        W54829  27.159  23.759  11.208
90010W        W54830   6.230   4.973  14.459
90011W        W54831  41.153  15.173   0.023
90012W        W54832  38.833  20.974   4.189
90013W        W54833  11.380  28.201   0.852
90014W        W54834  25.254  15.257   2.791
90015W        W54835   9.412   4.612   3.560
90016W        W54836  32.794  41.523   3.460
90017W        W54837  16.034  31.457   2.765
90018W        W54838   7.515  37.397   0.061
90019W        W54839  31.545  44.802  11.184
90020W        W54840  34.849   1.939   1.738
90021W        W54841  10.301  42.456  14.945
90022W        W54842  22.518  41.869   4.756
90023W        W54843   9.664   0.475   1.746
90024W        W54844   7.894  29.578   0.793
90025W        W54845  17.901  30.669   2.419
90026W        W54846   8.174   6.404  14.223
90027W        W54847  20.243   8.310   4.652
90028W        W54848   5.972  29.805   0.878
90029W        W54849  11.295  25.531  13.460
90030W        W54850  14.242   9.356   1.503
90031W        W54851  15.265   6.946  12.207
90032W        W54852  34.375   9.854  12.464
90033W        W54853  21.167  28.699  12.931
90034W        W54854  26.015  27.913  12.476
90035W        W54855  21.244  31.667   4.244
90036W        W54856  28.639  25.960   1.621
90037W        W54857  10.073  38.677  11.936
90038W        W54858   2.103  40.523   4.910
90039W        W54859  12.720  20.703  13.494
90040W        W54860  40.520  17.762  11.128
90041W        W54861   1.810   9.211   3.278
90042W        W54862  11.555  14.661  13.801
90043W        W54863  41.369   7.866   4.165
90044W        W54864  11.911   8.008  11.221
90045W        W54865  26.374   2.280   4.582
90046W        W54866  16.568   8.280  12.879
90047W        W54867  32.393  14.785   1.699
90048W        W54868  31.873  36.863  10.626
90049W        W54869  20.563  12.247  12.412
90050W        W54870   6.002  39.058   2.198
90051W        W54871  23.725  37.945   2.184
90052W        W54872  20.157  11.460  13.943
90053W        W54873  21.631  27.155   4.563
90054W        W54874  32.005  18.301  12.997
90055W        W54875  18.664  40.059   4.576
90056W        W54876  14.683  31.574   4.293
90057W        W54877  34.850  17.894  13.747
90058W        W54878  22.456   9.226  14.851
90059W        W54879   5.741   9.750   2.774
90060W        W54880  11.320  30.759   4.281
90061W        W54881  34.581  34.048  11.008
90062W        W54882  22.710   4.956   4.132
90063W        W54883  34.854   3.500   4.359
90064W        W54884  32.889  40.468  13.081
90065W        W54885  14.872  34.639   5.122
90066W        W54886  15.555  13.049   3.857
90067W        W54887  15.103  11.275  10.728
90068W        W54888  22.130  34.121   1.301
90069W        W54889  17.599   7.439  13.170
90070W        W54890  33.689  28.422  12.032
90071W        W54891  38.885  22.615   0.314
90072W        W54892   8.372   2.999   3.677
90073W        W54893   9.612   4.221   3.827
90074W        W54894  29.549  18.691  10.447
90075W        W54895  36.943  27.945   3.105
90076W        W54896  10.187   7.157  11.844
90077W        W54897  44.855  25.218   1.164
90078W        W54898  17.374  18.624   0.742
90079W        W54899  21.757  22.433  10.483
90080W        W54900   6.274  43.813  14.043
90081W        W54901  22.044  26.599  14.462
90082W        W54902  44.992  32.456  14.384
90083W        W54903  10.065  44.386  14.504
90084W        W54904  23.925  27.816   2.477
90085W        W54905   8.390  39.462  11.798
90086W        W54906   2.764  44.724  10.546
90087W        W54907  36.598  18.538  14.411
90088W        W54908  31.911  14.283  12.037
90089W        W54909  25.620  30.525   4.922
90090W        W54910  23.562  41.793   0.534
90091W        W54911  36.690  11.104   4.777
90092W        W54912   3.272   5.876   3.243
90093W        W54913   1.398  26.091  11.111
90094W        W54914  37.905   5.316  12.108
90095W        W54915   7.155   1.745  13.416
90096W        W54916   4.641  36.366   1.891
90097W        W54917  10.367  13.679   5.055
90098W        W54918  24.220  12.685  10.285
90099W        W54919   9.800  36.476  14.203
90100W        W54920  31.669  12.154   3.689
90101W        W54921  35.843  30.438   4.415
90102W        W54922  33.431  41.661   4.199
90103W        W54923   1.714  41.929   2.700
90104W        W54924  42.543   5.350  12.518
90105W        W54925  21.630   6.170  11.982
90106W        W54926  44.261  28.628  12.424
90107W        W54927  17.679  17.723   0.999
90108W        W54928  30.010  19.482  14.329
90109W        W54929  27.195  41.414  11.365
90110W        W54930  18.420   9.699  12.882
90111W        W54931  23.713  33.576   0.761
90112W        W54932  38.380   6.686  13.932
90113W        W54933  34.067  25.751  12.578
90114W        W54934   8.582  31.942   0.277
90115W        W54935   7.161   6.781  11.827
90116W        W54936  42.324  19.070  11.264
90117W        W54937  30.005  24.573  10.246
90118W        W54938  20.694   2.516  12.087
90119W        W54939  15.230  11.623  14.615
90120W        W54940  12.394  13.227   5.153
90121W        W54941  27.872  32.422  12.494
90122W        W54942  35.071   4.865  10.557
90123W        W54943   7.210  17.118   3.290
90124W        W54944  41.777  18.057  13.452
90125W        W54945  11.601  40.343   1.661
90126W        W54946  23.924   1.744   5.053
90127W        W54947   4.499   5.398   1.786
90128W        W54948  44.815  44.467  13.055
90129W        W54949   3.935   5.236  12.546
90130W        W54950  15.645  36.531   1.399
90131W        W54951  27.993  39.894  10.763
90132W        W54952  33.479  32.217  12.463
90133W        W54953   1.969  41.978   2.270
90134W        W54954   6.003  31.989   0.946
90135W        W54955   6.896   6.163   0.526
90136W        W54956  17.755  19.549  11.150
90137W        W54957  31.405   3.835  12.342
90138W        W54958  30.431  41.505   1.976
90139W        W54959   1.832  29.419  13.313
90140W        W54960   1.950  34.561  11.699
90141W        W54961  31.103  17.108   4.069
90142W        W54962  15.916   6.013   1.464
90143W        W54963  26.077  28.939  11.677
90144W        W54964  13.067  12.249  11.531
90145W        W54965  43.168  31.990  11.277
90146W        W54966  31.040   9.790   1.331
90147W        W54967   8.768  14.763  13.744
90148W        W54968  17.491  34.955  11.441
90149W        W54969  28.246  22.143   0.810
90150W        W54970  33.557  32.102  13.000
90151W        W54971   4.917  12.802  10.206
90152W        W54972   1.257  25.287  13.330
90153W        W54973  15.363   4.779   3.396
90154W        W54974  10.600  34.017  13.761
90155W        W54975  42.087  15.690  11.956
90156W        W54976   9.659  19.636   1.173
90157W        W54977   5.589  42.252   1.253
90158W        W54978  35.499  23.719  13.949
90159W        W54979  29.712  29.051  12.911
90160W        W54980  29.510  36.466  10.790
90161W        W54981  44.515  38.488   1.869
90162W        W54982  35.637  38.388   3.606
90163W        W54983   7.781   1.258  11.696
90164W        W54984   6.210  40.518  12.061
90165W        W54985  12.598  39.067   1.888
90166W        W54986  11.228  30.180   3.328
90167W        W54987   5.472  19.381   1.914
90168W        W54988  35.140  15.628   3.207
90169W        W54989  13.792  22.056   2.811
90170W        W54990  27.009  28.153  13.014
90171W        W54991  39.532  36.394  11.994
90172W        W54992  25.048  17.599   4.206
90173W        W54993   9.335  10.194   1.332
90174W        W54994  23.089  27.901  14.006
90175W        W54995  38.894  29.734  14.306
90176W        W54996   9.279  24.327  14.364
90177W        W54997  33.417   1.775   4.078
90178W        W54998  38.825  21.486   4.106
90179W        W54999  42.496  20.215   0.490
90180W        W55000  26.979  33.494   1.497
90181W        W55001   9.682   8.058   0.761
90182W        W55002  33.895  23.666   2.657
90183W        W55003  31.133  16.884  14.285
90184W        W55004  17.696   2.210  10.960
90185W        W55005  31.437  31.913  11.694
90186W        W55006  38.527  18.641  10.813
90187W        W55007  24.484   2.648  14.158
90188W        W55008  20.262   1.580   3.841
90189W        W55009   1.158  25.437  11.964
90190W        W55010  14.250  37.956   4.603
90191W        W55011  30.110  34.196   1.391
90192W        W55012  33.162  23.163   4.980
90193W        W55013  15.308  17.093   3.591
90194W        W55014   2.472  27.898  10.373
90195W        W55015  14.441  36.975   3.208
90196W        W55016  15.985  34.439   2.174
90197W        W55017  11.113  13.713   2.202
90198W        W55018  34.365  30.477  12.940
90199W        W55019  10.851  38.161  14.949
90200W        W55020  27.838   1.874   4.595
90201W        W55021  22.431  38.137  11.290
90202W        W55022  17.943  11.091  12.114
90203W        W55023  16.191  35.313  10.741
90204W        W55024  37.760  21.695   1.804
90205W        W55025  36.015   0.135   4.954
90206W        W55026  38.521  32.590   0.252
90207W        W55027  29.582  41.270   0.931
90208W        W55028   6.438  14.585  10.722
90209W        W55029   4.889  13.860  14.348
90210W        W55030  14.171  24.167  13.811
90211W        W55031   9.973  21.061  14.368
90212W        W55032  15.331  40.622   2.337
90213W        W55033  23.204  25.106  12.441
90214W        W55034  36.604  13.849  12.334
90215W        W55035  18.479  37.055   2.011
90216W        W55036  15.360   2.052   0.461
90217W        W55037  20.767  15.203   4.021
90218W        W55038  20.600  18.624   0.444
90219W        W55039  25.438  23.411  14.012
90220W        W55040  40.689   3.372  12.960
90221W        W55041  30.623  19.108   1.340
90222W        W55042  14.335  27.587  11.602
90223W        W55043  15.566   0.045   2.341
90224W        W55044  10.158  10.443   4.195
90225W        W55045  21.170   4.978   1.358
90226W        W55046  15.085  19.023   1.081
90227W        W55047  12.329  33.040  12.587
90228W        W55048   4.173  40.954  14.443
90229W        W55049  38.614  12.199  14.509
90230W        W55050  14.597  38.797   3.600
90231W        W55051   6.545  17.116  12.089
90232W        W55052  13.797  33.709   1.301
90233W        W55053  10.821  37.544  10.945
90234W        W55054   2.216   4.956  13.734
90235W        W55055  26.069   1.908  14.076
90236W        W55056  43.110  43.072   2.685
90237W        W55057  28.585  34.889  12.549
90238W        W55058  37.264  13.864  14.727
90239W        W55059  37.181   4.895   0.808
90240W        W55060  40.290  15.832   0.488
90241W        W55061  26.644   7.881   2.675
90242W        W55062  19.127  40.265   4.720
90243W        W55063  25.090  32.116  12.966
90244W        W55064  32.630  35.420   1.585
90245W        W55065  23.373  13.985  13.038
90246W        W55066  11.323   4.109   0.342
90247W        W55067   9.795  13.293   4.068
90248W        W55068  19.601  23.237   4.405
90249W        W55069   3.776  24.411  10.235
90250W        W55070   1.568  44.844   1.842
90251W        W55071  22.409  42.389   2.746
90252W        W55072  36.802  18.806   3.673
90253W        W55073  11.483  10.550   4.202
90254W        W55074  22.208  34.438   1.904
90255W        W55075  23.068  20.425  11.596
90256W        W55076   1.144  26.087  14.565
90257W        W55077   4.641   2.477  13.950
90258W        W55078  21.164  14.746   2.622
90259W        W55079  42.288  30.635  12.565
90260W        W55080   9.472  19.281   0.757
90261W        W55081  40.780   4.694  11.171
90262W        W55082   2.409   4.915   1.225
90263W        W55083  17.235  12.664  13.865
90264W        W55084  17.268  36.831   2.683
90265W        W55085   5.519  10.166   1.107
90266W        W55086  19.835  20.602   3.786
90267W        W55087  22.682   0.165  14.412
90268W        W55088  14.176   8.104   2.177
90269W        W55089  39.030  23.574   1.408
90270W        W55090  22.487   4.265  11.034
90271W        W55091  35.546  26.380  12.160
90272W        W55092  18.051  27.001  13.892
90273W        W55093  44.295  26.392  11.852
90274W        W55094  25.494  18.452  14.258
90275W        W55095   9.557  33.683   2.402
90276W        W55096   9.413  17.088   0.837
90277W        W55097   4.275  39.553   3.475
90278W        W55098   9.637   3.883   0.146
90279W        W55099  20.292  19.130   4.504
90280W        W55100  27.743   5.796   1.755
90281W        W55101  14.220   7.682   4.486
90282W        W55102  12.871  36.349  10.607
90283W        W55103  28.595  24.109  10.796
90284W        W55104  39.949  19.734  14.878
90285W        W55105  40.571  31.650   2.334
90286W        W55106  12.401   4.200   1.754
90287W        W55107   1.495  28.845  14.797
90288W        W55108  31.581   0.749   1.910
90289W        W55109  25.430  40.373  12.123
90290W        W55110  23.202  21.432  12.532
90291W        W55111   8.835  17.239  12.587
90292W        W55112  29.696  32.072  14.869
90293W        W55113   4.992  10.430   1.003
90294W        W55114  13.096  22.797   1.347
90295W        W55115  25.103  22.899   2.499
90296W        W55116  28.116  40.571   2.881
90297W        W55117   4.693  39.070   2.259
90298W        W55118   1.023  28.012  13.474
90299W        W55119  33.184  30.193   3.992
90300W        W55120  19.648  28.117   0.408
90301W        W55121  31.669  19.639   1.955
90302W        W55122  40.154  28.140   3.838
90303W        W55123   3.967  25.274  14.832
90304W        W55124  34.092   7.218   1.923
90305W        W55125   9.896   6.240   0.949
90306W        W55126   9.798  13.197  10.617
90307W        W55127  23.633  22.503  14.307
90308W        W55128  19.130  44.346  12.289
90309W        W55129  38.021  42.275   4.592
90310W        W55130  18.110   6.824  14.311
90311W        W55131  40.303  23.170   0.192
90312W        W55132  11.816  22.954  10.757
90313W        W55133  27.206  33.603   1.959
90314W        W55134  19.559  15.672   4.613
90315W        W55135  13.039  11.833   0.975
90316W        W55136  25.215  24.624   2.861
90317W        W55137  15.063  24.956  13.943
90318W        W55138  11.934   0.926  13.023
90319W        W55139  20.462  25.889   0.475
90320W        W55140   3.228  33.589   4.641
90321W        W55141  10.865   9.753  11.136
90322W        W55142  29.892   3.267   3.365
90323W        W55143  37.343  41.979   1.427
90324W        W55144  19.635  21.828   4.200
90325W        W55145  44.744  16.356  14.260
90326W        W55146  25.632  29.923   3.323
90327W        W55147  17.773  30.994  14.410
90328W        W55148   1.182   3.898  12.205
90329W        W55149  39.774   0.002  12.516
90330W        W55150   6.775  44.213  12.453
90331W        W55151  22.976  25.671   1.260
90332W        W55152  36.349  24.508  11.655
90333W        W55153   7.731  22.515  11.660
90334W        W55154   1.861  26.139   2.873
90335W        W55155  24.469  26.186  11.563
90336W        W55156   1.991  40.707  10.654
90337W        W55157   9.311   9.641  14.350
90338W        W55158   9.493  26.332   2.898
90339W        W55159  16.537  22.072  13.733
90340W        W55160  38.756  18.859  14.580
90341W        W55161  20.472   7.561   9.850
90342W        W55162   6.639   6.216   4.149
90343W        W55163  13.778  23.014  13.755
90344W        W55164  16.713  29.535   5.513
90345W        W55165  13.240   4.883   4.362
90346W        W55166  36.880  35.587  14.459
90347W        W55167  15.238  21.327  12.031
90348W        W55168   8.116  31.544   2.864
90349W        W55169  40.197  33.059   5.045
90350W        W55170   0.481  40.009  11.166
90351W        W55171  30.657  27.207  13.806
90352W        W55172  24.254  40.934  14.489
90353W        W55173   1.537  41.385  13.716
90354W        W55174   2.961  12.494   2.352
90355W        W55175  34.138   0.670   2.830
90356W        W55176   6.100  34.297   1.288
90357W        W55177   7.188  13.212  10.653
90358W        W55178  36.346   5.441  13.787
90359W        W55179  42.656  20.704  13.278
90360W        W55180  37.287  29.032   2.724
90361W        W55181   3.717  10.806  14.810
90362W        W55182  11.373  12.161  12.087
90363W        W55183  43.914   3.431   3.656
90364W        W55184   4.707  31.154  13.380
90365W        W55185  37.536  20.174   4.267
90366W        W55186  28.979  37.450   2.138
90367W        W55187   8.853  13.981  11.185
90368W        W55188  23.307  27.380   3.121
90369W        W55189  26.158  25.656  14.932
90370W        W55190  27.700  28.914  12.959
90371W        W55191  15.545  30.182   2.190
90372W        W55192   5.730  18.466  11.029
90373W        W55193   4.991   5.773  13.385
90374W        W55194   5.816  17.828  13.941
90375W        W55195   1.713  32.814  13.567
90376W        W55196  32.025  17.678  14.297
90377W        W55197   5.505  41.522  10.822
90378W        W55198   8.809  15.684  12.967
90379W        W55199  29.651  43.799  13.436
90380W        W55200  43.513  33.128  13.604
90381W        W55201  41.511  16.142  14.011
90382W        W55202   6.103  35.761   0.291
90383W        W55203   7.893  12.655   0.169
90384W        W55204  27.551  44.730   3.698
90385W        W55205  20.094   0.598  12.874
90386W        W55206  34.852  42.507  14.523
90387W        W55207   6.638  33.134   1.893
90388W        W55208  41.011   3.213   4.072
90389W        W55209  24.785  18.687   1.308
90390W        W55210   4.327  41.361   2.404
90391W        W55211  16.225  27.115  12.971
90392W        W55212  13.951  41.479  13.577
90393W        W55213  30.175  44.818  14.363
90394W        W55214  20.650  21.967   2.941
90395W        W55215  38.985  42.735   3.728
90396W        W55216  19.982  12.782  11.976
90397W        W55217  13.297  15.205  12.437
90398W        W55218  19.597  40.973  14.609
90399W        W55219   2.671  25.180   4.847
90400W        W55220  41.567  34.063   1.397
90401W        W55221  26.539  10.612  12.542
90402W        W55222  19.373  12.728   1.761
90403W        W55223   9.966  21.247  12.124
90404W        W55224  33.489  28.074  14.950
90405W        W55225  15.721  20.678   3.784
90406W        W55226   3.662  15.357   3.392
90407W        W55227  21.297  19.570   1.678
90408W        W55228  38.419  22.641  12.560
90409W        W55229  37.016  33.526  13.884
90410W        W55230  17.296  26.648   0.310
90411W        W55231  28.790  37.073   1.336
90412W        W55232  38.626  40.523   4.110
90413W        W55233  18.241  34.490  14.090
90414W        W55234   5.466   7.846   3.997
90415W        W55235  39.863  32.104   1.469
90416W        W55236   1.697  23.944   2.299
90417W        W55237  41.975  12.632  11.955
90418W        W55238  14.673   0.966   4.115
90419W        W55239  35.907  14.405  12.716
90420W        W55240  23.006  41.098   3.306
90421W        W55241  20.467  39.778   1.530
90422W        W55242   9.069  15.144  12.065
90423W        W55243  24.762  15.714  14.386
90424W        W55244  10.352  16.578   0.038
90425W        W55245   2.664   5.876  13.303
90426W        W55246   1.290  41.587   0.345
90427W        W55247  23.393  26.513  10.182
90428W        W55248  30.557   2.597   3.859
90429W        W55249  27.713  34.866   1.383
90430W        W55250  39.768  22.478   1.759
90431W        W55251   7.578  11.580   2.741
90432W        W55252  32.106   2.660  10.739
90433W        W55253  26.389   4.154  11.709
90434W        W55254  31.627  27.602   3.205
90435W        W55255  25.540  43.221  13.518
90436W        W55256  28.950  12.741  14.374
90437W        W55257  42.868  41.193   4.400
90438W        W55258  22.399  43.730   0.805
90439W        W55259   6.489  26.947   1.638
90440W        W55260  23.340  39.073   1.435
90441W        W55261   0.960  29.564   3.139
90442W        W55262  16.966  17.296   3.350
90443W        W55263  36.611  15.489   4.175
90444W        W55264   3.806  16.973   2.645
90445W        W55265  44.413  12.694  12.516
90446W        W55266  30.317  41.409  12.292
90447W        W55267  29.940  10.272  10.742
90448W        W55268  32.611  30.392   2.470
90449W        W55269  10.761  23.747  14.385
90450W        W55270   0.933  27.136   0.855
90451W        W55271  32.968  25.356   1.344
90452W        W55272  44.511   1.803   4.115
90453W        W55273  22.275  44.340   1.021
90454W        W55274  34.475  26.184   3.163
90455W        W55275  43.180  30.210  14.956
90456W        W55276   3.539  28.283  13.569
90457W        W55277  28.393  33.651   0.705
90458W        W55278  18.853   7.220   0.930
90459W        W55279  17.733  11.807  11.453
90460W        W55280  15.532  12.839   4.480
90461W        W55281  12.811  38.913  13.873
90462W        W55282  26.072  16.640   0.841
90463W        W55283  27.706  11.178   2.236
90464W        W55284  15.072  23.849  13.991
90465W        W55285  28.823  16.221   2.735
90466W        W55286  18.502  23.746  14.535
90467W        W55287  41.901  28.655   0.285
90468W        W55288  10.720  25.217   0.801
90469W        W55289  28.579   4.110  11.488
90470W        W55290  15.758  19.758  12.463
90471W        W55291  43.389   6.920  14.898
90472W        W55292  16.608  37.073  12.823
90473W        W55293  37.835  27.082  10.742
90474W        W55294   3.725  34.935   3.658
90475W        W55295  19.954  22.710   3.249
90476W        W55296  16.304  21.086  10.684
90477W        W55297   0.726  43.086   0.767
90478W        W55298   9.406   4.020   1.805
90479W        W55299   1.915  36.415  11.904
90480W        W55300   4.272  21.332   0.859
90481W        W55301  41.401  29.751   3.618
90482W        W55302  15.524  35.374  12.435
90483W        W55303  32.806  27.058  13.926
90484W        W55304  17.715  44.274   3.222
90485W        W55305  33.775  44.889   4.206
90486W        W55306  14.931   5.656   0.911
90487W        W55307  16.556   4.486   2.305
90488W        W55308  11.359  30.348   1.896
90489W        W55309  33.127  27.924  13.297
90490W        W55310  29.750  22.721   1.245
90491W        W55311  28.659  29.635  10.615
90492W        W55312  17.327  18.039  10.372
90493W        W55313  30.192  26.796   0.636
90494W        W55314  25.160   9.577  11.470
90495W        W55315  31.680  27.668  11.863
90496W        W55316  10.761   0.724  14.524
90497W        W55317  17.286  18.102   3.289
90498W        W55318  41.909  23.101  13.760
90499W        W55319  21.529   1.360   0.269
90500W        W55320  23.439  39.114   0.764
90501W        W55321  11.438   7.394   0.482
90502W        W55322  12.161  10.728  12.368
90503W        W55323  11.336  32.944  12.587
90504W        W55324  29.688  38.205   3.688
90505W        W55325   0.005  38.603   3.658
90506W        W55326  24.279  19.252  14.574
90507W        W55327   6.570  44.055   3.985
90508W        W55328  39.268  36.907  12.093
90509W        W55329  29.711  40.369   3.004
90510W        W55330  39.769   8.580  13.101
90511W        W55331  14.759  32.118   0.875
90512W        W55332  30.514  44.045   2.882
90513W        W55333  24.500  32.189   0.913
90514W        W55334  26.931  40.508   4.819
90515W        W55335  19.460   8.708   0.923
90516W        W55336  17.186   9.459   4.694
90517W        W55337  42.744   6.917  11.676
90518W        W55338   9.944  28.343  11.753
90519W        W55339  42.315  15.248   3.518
90520W        W55340  34.348  33.835  12.494
90521W        W55341  13.111   3.471   1.898
90522W        W55342  38.207  24.190  14.866
90523W        W55343  40.063  29.409   3.308
90524W        W55344  39.054  23.174  13.453
90525W        W55345  25.926  30.684  12.412
90526W        W55346  17.299   5.811  11.627
90527W        W55347   4.523  27.908   3.244
90528W        W55348  36.643  12.721   1.451
90529W        W55349  41.882  24.631  13.785
90530W        W55350  20.044  44.022  11.610
90531W        W55351   8.693   1.214  11.723
90532W        W55352  15.376  27.473  11.536
90533W        W55353  15.888  36.161  11.619
90534W        W55354  38.082   7.931  10.152
90535W        W55355  39.638   2.754  11.975
90536W        W55356  23.971  20.993   1.810
90537W        W55357  13.844   2.489  12.420
90538W        W55358  15.612  41.437   2.790
90539W        W55359  20.171  20.775  14.417
90540W        W55360   6.682  15.286   1.919
90541W        W55361  18.302  34.520  13.559
90542W        W55362  28.972  28.020   2.760
90543W        W55363  22.709  17.042   2.197
90544W        W55364   9.116  34.452  14.377
90545W        W55365  33.009  39.844   2.861
90546W        W55366   4.381  38.058   0.492
90547W        W55367   7.682   6.700   1.787
90548W        W55368   7.199   5.714   3.701
90549W        W55369  38.433   9.094   0.146
90550W        W55370  41.617  31.771  10.402
90551W        W55371  40.108  13.847   4.592
90552W        W55372  34.491   5.882   1.897
90553W        W55373  19.606   1.284   0.749
90554W        W55374   1.467  23.335  11.296
90555W        W55375  17.198   2.321   0.928
90556W        W55376  28.082   5.856   4.651
90557W        W55377   1.314   3.014  11.185
90558W        W55378  33.643   4.136  11.080
90559W        W55379  35.866   5.844   3.603
90560W        W55380  23.167  24.961   2.785
90561W        W55381  17.785   0.505  11.024
90562W        W55382  31.653  33.597   4.434
90563W        W55383   6.291  15.113  14.594
90564W        W55384  13.935  15.345  12.151
90565W        W55385  12.835  28.648  12.383
90566W        W55386  30.087   3.752   4.556
90567W        W55387  29.465   9.845   2.915
90568W        W55388  26.001   0.945   1.513
90569W        W55389  24.379   6.360  11.901
90570W        W55390  12.099  20.047   0.936
90571W        W55391   4.695   5.671  11.138
90572W        W55392  24.544  12.493   0.963
90573W        W55393   5.452  44.162   4.470
90574W        W55394   0.794  34.101   3.054
90575W        W55395  10.731   2.413   0.607
90576W        W55396  41.665  39.032  14.021
90577W        W55397  26.363  17.724  13.960
90578W        W55398  18.804  22.471   2.496
90579W        W55399   0.121  34.360  13.783
90580W        W55400  23.851  37.316  12.042
90581W        W55401   1.899  15.546  13.849
90582W        W55402  37.455  43.019  11.265
90583W        W55403   9.722  33.119   1.032
90584W        W55404  25.307  36.315  13.021
90585W        W55405  27.852  44.315  11.567
90586W        W55406  13.332   2.988   1.889
90587W        W55407  44.869  21.675  13.558
90588W        W55408  16.549  21.296   1.296
90589W        W55409  21.000  16.535   2.199
90590W        W55410  34.904  19.599   2.356
90591W        W55411  33.442  28.003   0.925
90592W        W55412  12.190  25.664   3.687
90593W        W55413  30.612  27.717  11.518
90594W        W55414  34.470  23.457   2.681
90595W        W55415   3.364   4.470   2.823
90596W        W55416  40.708   7.282   1.880
90597W        W55417   7.102  32.007  13.235
90598W        W55418  31.081   9.478   2.788
90599W        W55419   4.261  10.219   4.166
90600W        W55420  21.829   4.939  10.206
90601W        W55421  18.075  44.382  14.038
90602W        W55422  32.014  25.971  12.071
90603W        W55423  42.241  31.582  12.188
90604W        W55424  27.581  12.395   0.445
90605W        W55425  44.434  30.402  11.057
90606W        W55426  28.665   7.848   1.710
90607W        W55427  17.327  31.957  13.770
90608W        W55428   0.521   4.623   0.809
90609W        W55429  25.564  15.543  12.954
90610W        W55430  32.149  40.848  11.886
90611W        W55431  12.393  35.649  11.582
90612W        W55432   4.172  32.312   4.647
90613W        W55433  15.476   2.793   2.822
90614W        W55434  32.163  20.805   4.082
90615W        W55435  36.482   8.321   3.995
90616W        W55436   6.543  32.436  12.011
90617W        W55437  18.642  11.368   0.871
90618W        W55438  13.588  24.070   0.119
90619W        W55439  44.861  21.023   2.689
90620W        W55440  27.066  23.114  11.536
90621W        W55441  25.034  22.908  11.594
90622W        W55442   1.788  21.473  12.188
90623W        W55443  24.495  11.577  13.072
90624W        W55444  39.247  18.263   4.503
90625W        W55445  30.559  13.710   4.599
90626W        W55446  33.119  42.820   0.490
90627W        W55447   9.195   3.923   2.289
90628W        W55448   0.389  37.961   1.313
90629W        W55449  21.115  39.564   4.559
90630W        W55450  12.219  16.713  13.291
90631W        W55451  39.100   1.936   3.190
90632W        W55452  36.359  11.069  12.886
90633W        W55453  31.957  28.741  13.946
90634W        W55454  40.128   2.356  12.978
90635W        W55455  18.725  25.138  12.694
90636W        W55456  31.380   6.095   5.169
90637W        W55457  16.900  32.060  11.866
90638W        W55458  35.402  23.087   3.603
90639W        W55459  29.194  43.059   0.754
90640W        W55460  33.351  37.777  13.393
90641W        W55461  30.133  20.110  12.066
90642W        W55462   4.613  43.545  11.105
90643W        W55463  38.928  33.850  10.651
90644W        W55464  30.092  30.058   3.905
90645W        W55465  37.549  11.076  14.112
90646W        W55466  27.208  43.536   2.506
90647W        W55467   2.519  25.785   2.339
90648W        W55468  40.309  42.526   1.097
90649W        W55469   8.918  40.399  13.367
90650W        W55470  13.416  40.587   0.800
90651W        W55471  34.076  43.514   4.048
90652W        W55472  28.325   2.774  13.840
90653W        W55473  16.112  27.607   3.797
90654W        W55474  12.396  38.736   0.975
90655W        W55475   5.355   2.228   3.342
90656W        W55476  26.512  26.627   0.370
90657W        W55477  17.683  39.223   0.308
90658W        W55478  43.937  15.552   0.205
90659W        W55479  22.998  23.534   1.438
90660W        W55480  12.330   7.950  10.899
90661W        W55481  39.879  27.038  10.669
90662W        W55482   4.015  11.259   3.705
90663W        W55483  16.151  42.846  11.115
90664W        W55484  12.674  30.683   1.763
90665W        W55485  15.123  10.572   1.936
90666W        W55486   5.787  21.230   0.499
90667W        W55487  38.918  14.455   2.247
90668W        W55488  38.029  30.092  13.805
90669W        W55489  28.511  30.537  12.023
90670W        W55490  27.093  10.196   0.711
90671W        W55491   4.833  36.663  13.853
90672W        W55492  22.327  35.853  11.186
90673W        W55493  32.511  38.119  12.204
90674W        W55494  13.264  40.704  12.536
90675W        W55495  36.449  13.077   1.082
90676W        W55496  38.294  19.482   1.757
90677W        W55497   4.780   7.168  10.190
90678W        W55498  41.038  23.067   2.269
90679W        W55499  37.009  24.543   1.891
90680W        W55500  28.537  30.407  14.529
90681W        W55501   8.449  11.734  13.358
90682W        W55502  22.628  20.810   1.185
90683W        W55503  37.051  29.464  12.470
90684W        W55504  26.978  10.591   2.179
90685W        W55505  42.192  44.348   0.227
90686W        W55506   3.927  33.895  14.279
90687W        W55507  16.691   8.598  13.273
90688W        W55508  21.314  26.017  14.408
90689W        W55509  26.882   9.488  11.746
90690W        W55510   0.158  38.773  12.881
90691W        W55511  18.798  11.701   2.641
90692W        W55512  33.153  44.527   3.670
90693W        W55513  38.102  12.112  14.554
90694W        W55514  12.229  25.743   9.660
90695W        W55515  39.500   0.475  10.565
90696W        W55516  14.639  26.655   3.281
90697W        W55517  36.766   5.520   0.232
90698W        W55518  17.651  34.595   0.310
90699W        W55519  20.453  27.747   0.269
90700W        W55520  12.787   2.016  14.317
90701W        W55521  40.262  44.258  12.473
90702W        W55522  11.430   1.039  13.861
90703W        W55523  24.511  28.393  11.988
90704W        W55524  19.954  23.592  12.923
90705W        W55525   9.150  28.474   4.881
90706W        W55526  14.117  21.645  10.499
90707W        W55527  44.688  26.843  10.684
90708W        W55528  16.723  41.285  11.935
90709W        W55529  37.036  15.074   3.459
90710W        W55530   1.386  31.669   1.770
90711W        W55531   7.876  40.093   2.820
90712W        W55532  23.694  27.545  13.963
90713W        W55533  32.016  35.588   2.005
90714W        W55534   8.183  12.351  10.726
90715W        W55535  10.648  21.285   0.937
90716W        W55536   5.717  38.841   3.124
90717W        W55537  30.486  12.506  14.010
90718W        W55538   4.297   9.854   1.949
90719W        W55539  35.360  36.678   4.132
90720W        W55540  22.657  30.514  13.945
90721W        W55541   5.672   2.907   0.771
90722W        W55542  18.085  18.816  12.681
90723W        W55543   0.387  16.406  12.696
90724W        W55544  24.210  29.454  14.481
90725W        W55545  21.991  14.205  12.182
90726W        W55546   0.832  28.152   0.861
90727W        W55547   3.477  35.391   2.624
90728W        W55548  40.568  12.848  11.033
90729W        W55549  20.129  31.360  10.558
90730W        W55550  13.396  19.844   1.196
90731W        W55551  35.847  28.062   1.996
90732W        W55552  31.375  31.976  13.537
90733W        W55553   3.751  39.720  12.788
90734W        W55554   9.909  38.558   2.319
90735W        W55555  33.333   9.668   5.316
90736W        W55556  19.669  31.376   0.392
90737W        W55557  10.258  39.953  10.643
90738W        W55558  35.855  28.874  13.027
90739W        W55559  11.306  12.696   2.194
90740W        W55560  43.786   5.953   1.589
90741W        W55561  36.529  31.965  12.636
90742W        W55562   7.093  14.340  11.172
90743W        W55563  18.111  18.191  10.934
90744W        W55564   8.415  10.444  12.932
90745W        W55565  22.638  15.366   4.903
90746W        W55566  39.978  38.301   2.731
90747W        W55567  14.881  28.627  11.980
90748W        W55568  44.410  22.040   0.834
90749W        W55569  17.868   6.708   1.936
90750W        W55570   1.282  29.404  10.701
90751W        W55571   3.526  16.494  11.610
90752W        W55572  34.110  36.048  10.774
90753W        W55573  29.127  26.030   4.388
90754W        W55574  33.992  37.140  13.228
90755W        W55575   7.327  38.738  12.449
90756W        W55576  21.046  17.555  13.978
90757W        W55577  39.496  16.314  13.477
90758W        W55578  15.433  12.820  11.741
90759W        W55579  23.663   0.959   2.922
90760W        W55580  20.516  32.615   2.718
90761W        W55581  18.083  31.814   0.374
90762W        W55582  44.334   0.581  10.805
90763W        W55583  21.243  25.675  11.124
90764W        W55584  19.351  41.939  12.987
90765W        W55585  32.451  44.473  11.635
90766W        W55586  14.163   4.103   0.309
90767W        W55587  41.069  21.021  13.419
90768W        W55588  13.443   7.643   0.910
90769W        W55589  15.456  37.326   4.979
90770W        W55590   3.322  11.300  12.221
90771W        W55591   2.971  12.438   3.835
90772W        W55592  18.748   5.320  12.568
90773W        W55593  31.715  41.816   0.428
90774W        W55594  26.454  24.301  10.692
90775W        W55595  29.837   6.747   4.391
90776W        W55596  11.141  11.682   4.633
90777W        W55597  24.920  36.332  14.023
90778W        W55598   9.414   1.667  14.039
90779W        W55599   6.913   6.370  11.566
90780W        W55600  44.978   0.020   1.194
90781W        W55601  33.957  19.719   0.556
90782W        W55602  25.485   6.220  13.580
90783W        W55603  32.155   6.940  14.384
90784W        W55604  35.215  13.243  13.821
90785W        W55605  27.078  41.374   3.240
90786W        W55606  42.884   0.439  14.316
90787W        W55607  41.928  12.171   0.054
90788W        W55608  15.941  23.452   5.109
90789W        W55609  20.918  21.588  14.738
90790W        W55610   2.337  19.988   4.549
90791W        W55611  14.091  44.434   4.698
90792W        W55612  39.491   7.363   2.750
90793W        W55613  33.387  31.268   0.264
90794W        W55614  10.385  42.159   2.260
90795W        W55615  12.749  34.769   1.156
90796W        W55616  44.413  12.512  13.498
90797W        W55617   9.285   6.080   3.708
90798W        W55618   4.248  23.663   0.389
90799W        W55619  21.252  34.949   4.947
90800W        W55620  27.815  42.737  11.704
90801W        W55621  16.532  28.986  14.037
90802W        W55622  40.376  15.485  11.980
90803W        W55623  16.429  34.873   3.262
90804W        W55624  35.731  11.868   4.197
90805W        W55625  22.244  15.087   3.196
90806W        W55626  33.534   4.715  13.619
90807W        W55627   8.637  32.493  14.956
90808W        W55628  24.606  27.352  12.298
90809W        W55629  17.190  19.777  14.424
90810W        W55630   6.214  14.520   0.426
90811W        W55631  37.131  26.091   1.974
90812W        W55632  36.823  41.877   2.393
90813W        W55633  23.665  44.292  13.976
90814W        W55634  30.281  25.865  10.699
90815W        W55635   6.976  39.292  11.182
90816W        W55636  16.416   3.172   0.302
90817W        W55637  35.144  33.569   2.292
90818W        W55638  43.019  21.008   0.876
90819W        W55639  39.017  20.662  12.384
90820W        W55640  27.203  31.945   2.252
90821W        W55641  11.301  30.026  13.134
90822W        W55642  13.850   0.160   3.228
90823W        W55643  31.025  35.619   2.397
90824W        W55644   5.919  21.089   1.426
90825W        W55645  28.979  37.897  11.044
90826W        W55646  42.260   1.420   4.178
90827W        W55647  18.562   8.888   2.427
90828W        W55648  25.701  28.393   0.922
90829W        W55649  11.841   8.917   3.289
90830W        W55650  28.677  34.545  13.535
90831W        W55651   1.618   0.318   0.624
90832W        W55652   4.631  16.269  13.878
90833W        W55653  41.292  22.128  12.567
90834W        W55654  22.497  35.038  12.982
90835W        W55655  22.681   3.302  11.229
90836W        W55656  30.261  10.545   2.291
90837W        W55657  28.236  35.941   3.275
90838W        W55658  43.228   2.276  12.058
90839W        W55659   2.368  10.781  14.767
90840W        W55660  17.673  13.608  10.739
90841W        W55661  25.447   1.843   1.399
90842W        W55662  40.204  26.528   4.899
90843W        W55663  34.355  41.568  11.890
90844W        W55664  16.736  41.482  14.313
90845W        W55665  18.183  36.742   2.846
90846W        W55666  31.722   6.652  11.758
90847W        W55667  29.524  27.895  12.161
90848W        W55668  24.970  24.331  12.108
90849W        W55669  39.615  34.045  11.381
90850W        W55670  36.935   5.941  13.398
90851W        W55671  23.132  44.445  11.969
90852W        W55672  31.883  20.452  13.558
90853W        W55673  30.433   0.322  14.496
90854W        W55674  13.405  26.630  10.629
90855W        W55675   5.668  14.684   4.157
90856W        W55676  15.695  15.054  12.857
90857W        W55677   8.254   1.956   4.647
90858W        W55678  29.112  30.388   1.868
90859W        W55679   2.519   9.733  12.978
90860W        W55680   1.266  38.339   3.371
90861W        W55681  15.376  37.567   2.786
90862W        W55682   4.898  19.518  13.517
90863W        W55683  20.537   2.044  14.009
90864W        W55684  16.285  31.676   1.375
90865W        W55685  32.997  14.467   0.699
90866W        W55686  31.123  21.797   3.386
90867W        W55687   1.554  15.268   2.624
90868W        W55688  19.652  26.572  12.269
90869W        W55689  25.284  32.150  10.990
90870W        W55690  26.900  24.692   4.817
90871W        W55691   8.314   4.443  14.709
90872W        W55692  38.405  38.774  12.055
90873W        W55693  10.205  12.149   2.845
90874W        W55694  19.457  33.653  12.076
90875W        W55695  27.210  44.721  11.995
90876W        W55696  16.891  24.411  14.104
90877W        W55697  42.475  27.693  14.933
90878W        W55698   6.705  31.016  10.713
90879W        W55699  44.221  39.212  12.640
90880W        W55700   0.966   1.841   5.205
90881W        W55701  44.499  40.832   0.223
90882W        W55702   9.428  37.623  13.914
90883W        W55703  10.800  27.153   4.740
90884W        W55704  20.130   3.978  10.676
90885W        W55705  38.571   3.889  11.991
90886W        W55706  42.170  41.096   2.265
90887W        W55707  41.054  10.399  11.168
90888W        W55708  10.155  15.246   2.893
90889W        W55709  10.094  14.900  11.191
90890W        W55710  16.414  16.773   3.724
90891W        W55711  12.342  20.228   2.343
90892W        W55712   3.319   7.129  10.375
90893W        W55713  32.444   2.370   3.664
90894W        W55714  38.152  18.218   3.765
90895W        W55715  41.780  29.384   2.717
90896W        W55716  15.387  21.701  12.373
90897W        W55717   9.732  31.927  12.414
90898W        W55718   5.103   0.834   1.746
90899W        W55719  10.132  23.093   3.194
90900W        W55720   9.113  36.091   2.789
90901W        W55721  34.944  26.709  13.515
90902W        W55722  34.451  41.492   0.333
90903W        W55723  19.015  26.316   2.781
90904W        W55724  21.682  30.417  13.930
90905W        W55725  29.452  13.727   0.233
90906W        W55726   1.604  41.432  10.983
90907W        W55727  28.004   7.866  11.881
90908W        W55728  27.279  34.362  10.829
90909W        W55729  12.100  15.331  13.083
90910W        W55730  27.276  30.089   4.510
90911W        W55731  42.058  18.715   4.628
90912W        W55732   4.840  13.901   3.235
90913W        W55733   9.426  20.626   2.321
90914W        W55734  36.812  26.282   1.045
90915W        W55735  19.515  27.603  13.654
90916W        W55736  24.411  17.712   5.597
90917W        W55737   9.787  15.538   3.541
90918W        W55738  22.247  30.576   4.097
90919W        W55739   5.487  13.901  13.073
90920W        W55740   1.461  34.466   3.285
90921W        W55741  31.181  37.523   9.636
90922W        W55742   8.460   7.707  11.195
90923W        W55743   7.374  41.790   2.448
90924W        W55744  21.985  13.652   2.683
90925W        W55745  16.310  39.010  11.966
90926W        W55746   1.279   2.768  14.729
90927W        W55747   7.848  43.719  14.505
90928W        W55748  11.766  29.872  12.998
90929W        W55749  37.251  21.971  11.543
90930W        W55750  11.826  30.613   2.141
90931W        W55751  33.131  21.454   4.494
90932W        W55752  17.582   5.279   1.123
90933W        W55753   8.176   8.807  10.540
90934W        W55754  15.762  43.210  14.346
90935W        W55755   4.384  12.281  11.947
90936W        W55756  24.669   5.738  11.362
90937W        W55757  17.062  28.414  14.709
90938W        W55758  36.653  34.858   3.184
90939W        W55759  31.810   1.244  12.186
90940W        W55760  35.962  22.516   3.802
90941W        W55761  32.925   3.231  10.500
90942W        W55762  30.712   4.988  10.193
90943W        W55763  36.018   2.715  11.078
90944W        W55764   8.637   4.802   0.930
90945W        W55765  34.654  13.363   4.557
90946W        W55766   8.366  29.030  11.844
90947W        W55767  17.732  13.732  13.505
90948W        W55768  14.666   4.614   2.689
90949W        W55769  44.994  29.917  11.539
90950W        W55770  15.448  21.014  13.411
90951W        W55771   0.207   4.552   4.131
90952W        W55772   0.211   0.984  11.046
90953W        W55773  16.870  21.704  11.959
90954W        W55774  13.653  38.402   0.769
90955W        W55775  43.034   6.792  12.558
90956W        W55776  19.726  16.170  10.626
90957W        W55777  13.574  12.213   1.394
90958W        W55778   0.917   3.505   4.679
90959W        W55779   2.011  16.214  11.138
90960W        W55780  44.034  12.074  13.566
90961W        W55781   1.889  24.061  13.417
90962W        W55782   3.799  36.307   1.284
90963W        W55783   2.891  34.417  14.445
90964W        W55784   6.203   8.501  12.027
90965W        W55785  13.084  41.548  14.153
90966W        W55786  30.008  10.722   3.080
90967W        W55787  12.422  39.524   1.677
90968W        W55788  25.169   3.816   5.017
90969W        W55789  18.622  23.651   0.959
90970W        W55790  19.897   0.282  11.412
90971W        W55791  22.179  29.113  12.403
90972W        W55792  38.398  16.384   2.289
90973W        W55793  29.630   0.710   3.039
90974W        W55794  35.330   9.028  14.054
90975W        W55795  44.831  10.764  10.793
90976W        W55796  22.279  16.333  10.001
90977W        W55797  25.040   1.534   2.455
90978W        W55798  13.859   1.971   0.387
90979W        W55799   8.149  43.796   0.808
90980W        W55800  26.347   1.813   2.423
90981W        W55801  44.447  29.731  11.665
90982W        W55802  18.792   6.358   2.824
90983W        W55803  39.320   8.698  13.413
90984W        W55804  41.987  24.256  12.934
90985W        W55805  36.006   8.709   1.398
90986W        W55806  33.956  42.364   4.050
90987W        W55807  15.778   1.813   3.212
90988W        W55808  34.948  43.117  11.580
90989W        W55809   1.572   8.816   1.235
90990W        W55810  26.647  24.053  14.356
90991W        W55811  43.412  32.410   1.285
90992W        W55812   4.508  10.297  13.900
90993W        W55813  22.557  22.669   3.570
90994W        W55814  22.371   8.153  11.250
90995W        W55815  13.131  35.309   0.825
90996W        W55816  22.240  31.118  14.242
90997W        W55817  11.319  37.566  10.133
90998W        W55818  13.799  39.836   0.480
90999W        W55819  30.866  19.101  14.546
91000W        W55820  10.390  11.222   4.385
91001W        W55821  12.475  10.829  14.360
91002W        W55822  40.971  42.799   1.708
91003W        W55823   3.029  31.667   3.911
91004W        W55824   6.053  29.333   0.690
91005W        W55825  12.959  22.670  12.568
91006W        W55826  38.529  28.756   1.235
91007W        W55827  39.912  41.908   1.301
91008W        W55828  41.782   5.692  11.177
91009W        W55829  20.593  29.422   1.223
91010W        W55830  43.258   6.848   4.633
91011W        W55831  43.032  19.490  12.496
91012W        W55832   7.959  13.062  12.685
91013W        W55833   0.913  30.554  12.216
91014W        W55834  41.557  26.717  12.198
91015W        W55835  20.824  12.346  11.982
91016W        W55836  17.882  29.586  14.331
91017W        W55837  25.620  44.251  12.380
91018W        W55838  41.079  33.716  13.908
91019W        W55839  31.535  21.028  12.323
91020W        W55840  34.113  42.781  12.492
91021W        W55841  25.906  26.954   2.267
91022W        W55842  36.479  20.444  14.944
91023W        W55843  20.075   6.745  12.812
91024W        W55844  20.051   7.423   3.270
91025W        W55845  40.636  30.796   3.340
91026W        W55846  12.720  36.384  13.117
91027W        W55847  20.679  12.364   1.720
91028W        W55848  29.401  43.845   1.369
91029W        W55849  27.472  24.790  12.068
91030W        W55850  25.773  32.905  13.044
91031W        W55851  25.096  27.588  12.150
91032W        W55852  29.562   2.239  12.025
91033W        W55853  25.247   1.909  13.504
91034W        W55854  28.214  15.157   3.667
91035W        W55855  18.460  13.617  14.400
91036W        W55856  22.511  40.826   3.283
91037W        W55857  34.276  44.457  14.254
91038W        W55858  23.143  39.715  13.946
91039W        W55859  21.851  26.986  14.761
91040W        W55860  16.638  19.550   4.754
91041W        W55861  29.857  14.681   2.955
91042W        W55862  17.417  32.118  11.885
91043W        W55863  10.864   8.113   0.388
91044W        W55864  31.658   4.874   1.366
91045W        W55865   6.164  22.966  11.180
91046W        W55866  38.090  14.588  13.361
91047W        W55867  12.446  14.184  14.070
91048W        W55868  29.368  23.788   4.967
91049W        W55869  30.906  20.214  14.859
91050W        W55870  31.416  27.643  10.839
91051W        W55871  19.248  43.335   4.279
91052W        W55872  12.375  28.460   0.880
91053W        W55873  36.671  23.367  10.276
91054W        W55874  35.430   6.693   4.083
91055W        W55875  21.550   1.282  11.034
91056W        W55876  42.966  11.758  12.746
91057W        W55877  37.483  32.907  12.062
91058W        W55878   7.989  20.086  12.926
91059W        W55879  19.057  24.500  12.926
91060W        W55880  28.833  27.994   3.268
91061W        W55881  39.263  19.045   4.082
91062W        W55882   0.053  15.338   0.068
91063W        W55883  28.779  32.880  11.669
91064W        W55884  41.325  22.522   3.598
91065W        W55885  38.551  13.410   2.696
91066W        W55886  26.574   9.855   1.455
91067W        W55887  23.771  25.182   4.711
91068W        W55888  27.735  29.159   3.290
91069W        W55889  31.648  42.775   3.355
91070W        W55890  41.046  33.189  13.007
91071W        W55891  17.794  10.517  14.009
91072W        W55892  24.822  15.124   3.180
91073W        W55893  26.861  37.591  10.066
91074W        W55894  11.668  28.430   1.246
91075W        W55895  23.922  15.195  12.129
91076W        W55896  32.303  13.257  13.408
91077W        W55897  43.909  44.241  10.419
91078W        W55898   6.220  26.582  14.239
91079W        W55899   8.661  40.531  13.830
91080W        W55900  10.328  20.809   1.382
91081W        W55901  22.897  35.398  13.872
91082W        W55902  30.209  15.828   1.202
91083W        W55903  11.804   5.243  13.006
91084W        W55904  12.505  14.760   1.763
91085W        W55905   2.004  40.385  13.070
91086W        W55906  14.870  38.498   2.467
91087W        W55907   3.785  41.963   1.341
91088W        W55908  27.046   2.987   1.673
91089W        W55909  39.312  44.459  11.700
91090W        W55910  10.515  13.753  11.773
91091W        W55911   2.818  12.719  11.171
91092W        W55912  25.192  14.380  14.434
91093W        W55913  36.986  22.059  14.268
91094W        W55914  23.824   7.802   4.417
91095W        W55915  29.162   8.939   3.754
91096W        W55916  43.300  23.191  13.796
91097W        W55917  29.647  40.007   1.209
91098W        W55918  26.556   4.103  13.443
91099W        W55919   8.423  19.162   2.182
91100W        W55920  17.935  23.239  13.042
91101W        W55921   3.731  21.278  11.977
91102W        W55922  40.740  17.977  10.118
91103W        W55923  32.366  33.934  12.955
91104W        W55924  25.150   9.649  13.521
91105W        W55925  13.786  15.829  14.654
91106W        W55926  37.839  18.252   0.826
91107W        W55927   1.974  26.155  12.968
91108W        W55928  22.990  30.601   5.003
91109W        W55929  21.175   5.157  10.849
91110W        W55930  31.329   9.112  11.363
91111W        W55931  18.112   5.875   1.662
91112W        W55932  12.682  40.488   0.016
91113W        W55933  38.347  20.760  12.926
91114W        W55934  18.110  12.149   2.282
91115W        W55935  32.322  39.784   0.825
91116W        W55936  29.085  42.113   1.762
91117W        W55937  41.482  37.709   2.441
91118W        W55938  44.304  29.862  14.559
91119W        W55939  33.076  27.598   0.952
91120W        W55940  31.660  28.552  13.466
91121W        W55941  31.105  25.243   3.884
91122W        W55942  39.431  25.205   0.705
91123W        W55943   5.202  42.452  10.597
91124W        W55944  27.468  15.051  14.845
91125W        W55945  18.219  43.281  11.614
91126W        W55946   2.325  14.733  10.697
91127W        W55947  44.988  22.329  11.126
91128W        W55948  13.377  35.080   2.721
91129W        W55949  31.031  15.607  11.096
91130W        W55950  42.058  44.006  11.790
91131W        W55951   9.311  22.523   0.288
91132W        W55952   0.958   0.182   2.249
91133W        W55953  43.270  17.595   0.720
91134W        W55954  40.007  33.198   3.656
91135W        W55955  13.791   7.932   1.346
91136W        W55956   6.114  12.772   3.335
91137W        W55957  19.642  35.917   2.903
91138W        W55958  25.620  27.516  13.994
91139W        W55959  11.159  29.468  14.497
91140W        W55960  24.807  35.227   3.792
91141W        W55961  34.238  21.482  11.056
91142W        W55962  13.136   4.188  11.552
91143W        W55963  23.564  28.960  11.143
91144W        W55964  23.981  24.238  13.311
91145W        W55965  14.866   6.957  10.612
91146W        W55966  15.242  25.259  12.557
91147W        W55967  43.919  42.567  10.652
91148W        W55968  13.318   0.340  12.893
91149W        W55969  32.187  28.672   2.461
91150W        W55970   4.142  26.685   1.262
91151W        W55971  27.661   9.133  13.865
91152W        W55972  36.980  44.189  13.799
91153W        W55973  30.590   2.234  11.289
91154W        W55974  19.443   3.942   3.203
91155W        W55975  17.443  41.521  13.041
91156W        W55976  18.195  40.035  14.251
91157W        W55977  23.610  11.206  12.455
91158W        W55978  22.741  37.432  13.206
91159W        W55979  29.511   3.241   1.916
91160W        W55980   9.330  44.081   1.802
91161W        W55981   6.525   9.491  12.316
91162W        W55982  26.040  15.681   3.201
91163W        W55983   7.705   5.905   2.799
91164W        W55984   8.748  31.460   2.095
91165W        W55985  21.221  27.267  11.219
91166W        W55986  13.154  23.458   3.328
91167W        W55987  14.592  20.174   4.054
91168W        W55988  17.994  19.354  14.493
91169W        W55989   4.498   9.609   4.050
91170W        W55990  42.296   6.116  14.896
91171W        W55991  19.594  17.737  13.801
91172W        W55992   2.547  17.314   3.733
91173W        W55993  13.660  17.805  12.616
91174W        W55994   0.095  40.543   4.099
91175W        W55995  12.529  22.704  14.394
91176W        W55996   3.726  43.407  14.467
91177W        W55997  20.793  15.539   0.704
91178W        W55998  41.866  41.424  10.212
91179W        W55999  28.040  21.707   2.204
91180W        W56000  25.642  35.097   3.394
91181W        W56001   7.043  10.716   3.595
91182W        W56002  31.423  15.922   1.915
91183W        W56003   8.493  22.583  14.821
91184W        W56004  11.136   8.798  11.528
91185W        W56005  23.341  15.687  12.567
91186W        W56006  22.688  44.231  13.572
91187W        W56007  26.755  21.541  11.570
91188W        W56008  15.998  29.112  14.112
91189W        W56009  21.007  26.246   4.998
91190W        W56010  21.118  42.162   0.721
91191W        W56011  44.875  28.537   4.682
91192W        W56012  23.546   5.893   2.290
91193W        W56013  13.694  17.106  13.793
91194W        W56014  16.897   8.131   1.452
91195W        W56015  16.812   6.353  14.002
91196W        W56016  20.623  33.612   0.270
91197W        W56017  13.719  25.915   4.667
91198W        W56018   2.245  40.809   1.818
91199W        W56019   0.906  28.301  12.077
91200W        W56020  34.867  26.240  14.955
91201W        W56021  42.419  14.353  10.707
91202W        W56022  42.780  25.532   0.910
91203W        W56023  43.422   7.079  10.915
91204W        W56024   2.911  29.956   4.630
91205W        W56025   5.852  30.268  12.133
91206W        W56026  13.202   8.248   2.618
91207W        W56027   3.359  35.939   0.992
91208W        W56028  25.663  11.736  12.605
91209W        W56029  17.881  35.774  11.314
91210W        W56030  35.637  20.963  14.466
91211W        W56031  27.207  33.641   0.240
91212W        W56032  42.788  41.520  10.635
91213W        W56033  21.611  44.380   2.368
91214W        W56034  24.647  34.035   3.217
91215W        W56035  11.048  37.671   0.309
91216W        W56036  25.244   5.517   0.230
91217W        W56037  37.925  28.687   2.790
91218W        W56038   1.787  35.604  10.455
91219W        W56039  38.427  33.917   2.873
91220W        W56040   5.714  13.409  11.758
91221W        W56041   0.293  22.226   3.026
91222W        W56042   1.602  29.461   1.501
91223W        W56043  11.351   7.636   1.783
91224W        W56044  10.445  12.370  12.172
91225W        W56045   7.758  20.811   2.760
91226W        W56046  29.489  31.467   4.712
91227W        W56047  10.286  27.664   0.989
91228W        W56048   9.744  32.650   4.013
91229W        W56049  27.475  29.623   4.594
91230W        W56050  15.974  28.963  11.466
91231W        W56051   2.453   8.986   4.124
91232W        W56052   5.791  24.803   3.849
91233W        W56053  16.912  26.060   1.874
91234W        W56054   4.369   0.722   0.802
91235W        W56055  24.906  36.960   4.481
91236W        W56056  21.387  23.750   0.727
91237W        W56057  23.483  17.903   0.332
91238W        W56058  30.096   1.224  13.493
91239W        W56059  15.677  28.529   1.488
91240W        W56060  21.811   5.798   4.332
91241W        W56061  16.879  29.072  13.030
91242W        W56062   0.775  40.762   0.501
91243W        W56063  21.316  38.884  14.488
91244W        W56064   4.417   2.469  12.479
91245W        W56065   4.277  30.435   1.435
91246W        W56066  29.519  15.800  11.556
91247W        W56067   8.379  38.286  13.159
91248W        W56068  26.411  11.301  12.958
91249W        W56069  40.795  25.192   2.231
91250W        W56070  32.951  14.868   1.679
91251W        W56071  16.426  33.009   9.689
91252W        W56072  19.475  34.413   1.463
91253W        W56073  37.167  10.631   1.280
91254W        W56074   1.769  25.220  14.244
91255W        W56075   7.798  33.862   2.458
91256W        W56076  18.675  14.679  13.628
91257W        W56077   7.936   8.402   4.778
91258W        W56078  20.598  42.394   2.773
91259W        W56079  10.690  41.626   2.769
91260W        W56080  24.257  10.268   4.551
91261W        W56081   8.554   5.734   1.513
91262W        W56082  29.487  13.824   2.842
91263W        W56083  17.629  21.531  12.441
91264W        W56084  25.819  16.226   0.464
91265W        W56085  10.051  24.012  13.050
91266W        W56086   5.842   3.363  10.229
91267W        W56087  21.059  26.028   0.215
91268W        W56088  15.830   7.584   4.165
91269W        W56089  29.395   5.369   4.567
91270W        W56090  37.712  13.641  14.576
91271W        W56091  35.586  15.071   4.493
91272W        W56092  21.199  40.559  12.518
91273W        W56093   3.679   2.363  12.884
91274W        W56094  26.606  38.434   3.559
91275W        W56095  32.911  40.940  12.899
91276W        W56096  16.030  29.614  14.469
91277W        W56097  35.796  36.431   4.252
91278W        W56098  36.351  11.960  13.387
91279W        W56099  26.955   6.821   0.901
91280W        W56100  34.651   4.604  10.718
91281W        W56101   1.247   1.024   1.233
91282W        W56102  23.053  41.888   2.218
91283W        W56103  19.702  24.434   4.947
91284W        W56104  31.010  25.097   3.360
91285W        W56105  41.998   7.891  14.980
91286W        W56106  37.070  33.894   4.191
91287W        W56107  41.377  41.469   1.780
91288W        W56108   9.678  27.584   4.296
91289W        W56109   1.287  43.594  12.955
91290W        W56110  26.575  30.628   0.040
91291W        W56111  42.883  43.875   0.088
91292W        W56112   5.033  14.700   0.849
91293W        W56113  34.110  23.158  14.736
91294W        W56114  22.577   0.758  12.115
91295W        W56115   5.419  37.419  14.941
91296W        W56116  25.198   5.218   3.411
91297W        W56117   7.869  42.243   3.759
91298W        W56118  15.793  21.022  10.699
91299W        W56119  43.546   3.728  12.916
91300W        W56120  36.433  11.060   1.915
91301W        W56121  20.184  33.153   1.944
91302W        W56122  26.016  17.745  12.042
91303W        W56123  14.242   7.114   3.223
91304W        W56124  13.648  31.363   4.211
91305W        W56125  37.814  33.208  13.504
91306W        W56126  34.108  43.224   0.382
91307W        W56127  36.873   4.318   4.332
91308W        W56128  27.767  25.144  11.303
91309W        W56129  22.465  19.858  11.149
91310W        W56130   6.730  26.779  13.098
91311W        W56131  12.670  13.335   4.714
91312W        W56132  33.868  22.127   2.298
91313W        W56133  38.118  25.973   2.178
91314W        W56134  16.247  40.357   0.819
91315W        W56135  33.442  12.663   0.485
91316W        W56136  21.251   1.967  14.304
91317W        W56137  25.630  20.562   1.295
91318W        W56138  39.108   8.398  12.348
91319W        W56139  38.359   5.835   2.809
91320W        W56140   5.921  14.101   0.433
91321W        W56141  19.834  33.195   2.319
91322W        W56142  25.413  10.015   3.628
91323W        W56143  19.733  25.020  12.976
91324W        W56144  29.627  19.971  13.364
91325W        W56145  15.321  28.322  12.003
91326W        W56146  22.964  34.278   1.814
91327W        W56147  11.127  34.169  11.148
91328W        W56148   2.959  16.195   1.680
91329W        W56149   1.624   3.786  13.472
91330W        W56150  12.305  17.970  11.451
91331W        W56151  40.001  34.392  12.210
91332W        W56152   8.641  41.203   3.447
91333W        W56153  11.618   8.225   2.642
91334W        W56154  15.268  25.233   0.416
91335W        W56155   2.775  37.541   3.130
91336W        W56156   3.026  34.731   1.175
91337W        W56157  24.770  34.488  10.838
91338W        W56158  14.091   8.765  10.633
91339W        W56159  24.143  41.383   3.081
91340W        W56160  13.306  29.527   0.986
91341W        W56161  16.870   3.157  12.252
91342W        W56162   9.207   7.015   2.513
91343W        W56163  43.432   7.034   2.131
91344W        W56164  35.063  16.242  12.492
91345W        W56165   8.854   0.405   2.412
91346W        W56166  16.437  25.918   2.000
91347W        W56167   3.486  18.664  11.597
91348W        W56168  19.125  16.059   1.301
91349W        W56169  28.836   1.784  13.367
91350W        W56170  20.063   3.887  12.137
91351W        W56171  42.977  42.006   3.308
91352W        W56172  34.868  42.740  11.226
91353W        W56173  20.646  40.615  11.440
91354W        W56174  21.917   9.718  14.316
91355W        W56175  29.396  27.113  12.574
91356W        W56176  38.991  22.334  14.421
91357W        W56177   1.732  43.793  10.584
91358W        W56178  28.849  20.645   4.601
91359W        W56179  25.264  13.271  11.665
91360W        W56180  17.823  35.880   4.486
91361W        W56181  14.969  35.588   0.980
91362W        W56182  29.483  29.746  14.799
91363W        W56183  30.258   2.500   1.164
91364W        W56184   6.367  25.400   5.045
91365W        W56185  31.906  10.232  13.347
91366W        W56186  11.553  40.420   1.020
91367W        W56187  12.305  24.730   3.680
91368W        W56188   8.273  31.775  12.862
91369W        W56189  36.143   3.836   3.121
91370W        W56190  32.012  10.390  14.212
91371W        W56191  26.386   9.849   2.816
91372W        W56192  27.502  13.053  11.127
91373W        W56193  25.490  18.069   0.730
91374W        W56194  23.255  25.030  11.037
91375W        W56195  40.053  39.805   1.431
91376W        W56196  37.177  38.868   3.233
91377W        W56197  25.616   1.475   1.735
91378W        W56198  31.974   5.736  12.580
91379W        W56199  20.153  41.443   0.221
91380W        W56200  37.944  35.855   0.790
91381W        W56201  23.804  20.749   3.255
91382W        W56202   7.349  11.766   3.585
91383W        W56203  19.193  11.370  11.053
91384W        W56204  13.301  10.273  12.729
91385W        W56205  11.379  28.380   2.894
91386W        W56206  26.168  16.535   4.554
91387W        W56207  44.044  33.060  13.739
91388W        W56208   5.201  44.098   4.938
91389W        W56209  31.535  34.487   3.596
91390W        W56210  10.868  28.213  14.293
91391W        W56211  40.213   1.360  11.030
91392W        W56212  26.355  44.331  13.538
91393W        W56213  14.156  26.754   4.688
91394W        W56214   6.697  23.523  14.503
91395W        W56215  17.071  29.000   0.757
91396W        W56216  30.645   7.173  10.969
91397W        W56217  17.639  17.245   4.632
91398W        W56218  11.432   4.808  12.924
91399W        W56219  43.986   6.419   2.820
91400W        W56220  19.356  30.357   4.448
91401W        W56221  27.006  31.661  13.348
91402W        W56222  15.115  26.051  14.822
91403W        W56223  34.408  22.950  11.945
91404W        W56224  22.937   5.191   1.921
91405W        W56225   1.308  16.737   3.295
91406W        W56226  33.725  22.231  13.368
91407W        W56227  28.219  38.236  11.542
91408W        W56228  12.777  13.147  14.773
91409W        W56229  34.952  12.841  14.522
91410W        W56230   0.550   1.396   0.234
91411W        W56231  18.345  10.352  12.677
91412W        W56232  28.365  20.238  11.440
91413W        W56233  33.721  41.278   3.332
91414W        W56234  27.138   8.017  14.882
91415W        W56235  39.021  31.997  11.169
91416W        W56236   5.785  22.290  12.514
91417W        W56237  23.012  21.651   3.878
91418W        W56238  12.094  21.637  10.986
91419W        W56239  28.552  42.385  13.870
91420W        W56240  25.229  14.256   2.432
91421W        W56241  23.748  20.744  14.591
91422W        W56242  14.522  17.288   0.333
91423W        W56243  28.150   9.321   4.129
91424W        W56244  14.208  22.605   1.884
91425W        W56245  18.822  23.810   2.714
91426W        W56246  38.908  35.239  11.147
91427W        W56247  26.194  16.851  14.499
91428W        W56248  26.084   6.637  13.385
91429W        W56249  15.788  13.316   1.889
91430W        W56250   2.900  27.617  14.397
91431W        W56251  40.060  36.456  11.961
91432W        W56252  33.384   5.094  10.604
91433W        W56253   7.419   9.808  14.426
91434W        W56254   0.385  17.615   2.303
91435W        W56255   9.517  10.135   0.460
91436W        W56256  38.777  39.696   3.313
91437W        W56257   5.378  43.009  10.400
91438W        W56258  14.857  23.095  14.964
91439W        W56259   8.331   7.540  13.518
91440W        W56260   1.162  11.676  10.379
91441W        W56261  33.244  39.492   4.186
91442W        W56262  18.654  13.141  12.870
91443W        W56263   4.131  26.543   4.199
91444W        W56264  10.799  10.166   1.904
91445W        W56265  10.179  10.158  14.099
91446W        W56266  27.917  39.027  11.806
91447W        W56267  30.011  11.745  14.072
91448W        W56268  42.266  18.201   0.323
91449W        W56269  28.958   4.475  12.657
91450W        W56270  14.577  28.521   3.202
91451W        W56271  31.318  24.936  13.493
91452W        W56272  28.073  33.649  11.931
91453W        W56273  29.043  11.169  12.162
91454W        W56274  44.160  21.019  10.293
91455W        W56275  40.249  39.915   0.961
91456W        W56276   2.886   5.216  14.984
91457W        W56277  31.391   5.885  10.655
91458W        W56278   1.688  22.919  14.732
91459W        W56279  38.828   7.202   1.870
91460W        W56280  37.517  11.804  14.942
91461W        W56281  43.979   7.056  13.457
91462W        W56282   0.151  44.704   5.033
91463W        W56283  40.231  17.665  14.903
91464W        W56284  30.690   6.198   2.647
91465W        W56285  43.317  22.735  14.031
91466W        W56286  38.428   5.472  12.236
91467W        W56287  35.356  15.096  12.498
91468W        W56288   9.459  38.984   3.762
91469W        W56289  42.327  42.658   2.409
91470W        W56290  25.631  18.044  11.037
91471W        W56291   9.635  25.190  12.477
91472W        W56292   4.218   5.880  13.008
91473W        W56293  23.358  31.162   2.421
91474W        W56294  31.010   7.208  12.448
91475W        W56295  24.141   4.254   1.630
91476W        W56296  31.022  30.566   3.246
91477W        W56297  35.113   3.801   3.311
91478W        W56298   1.803   1.644   2.183
91479W        W56299  14.111   6.780   1.858
91480W        W56300  24.184   8.409   1.272
91481W        W56301  40.017   3.461   0.141
91482W        W56302  41.588   6.138   2.204
91483W        W56303  40.720  14.379  13.968
91484W        W56304  37.911  28.168   0.968
91485W        W56305  31.483  42.934   2.807
91486W        W56306  16.687  27.657  13.822
91487W        W56307  16.145   4.159   0.443
91488W        W56308   8.022  13.957  11.654
91489W        W56309   0.938  21.799  14.452
91490W        W56310  32.031   3.161  10.677
91491W        W56311  12.333  37.069  12.718
91492W        W56312  36.500  40.069   4.635
91493W        W56313  44.836   3.170   2.371
91494W        W56314  40.397  16.201  14.364
91495W        W56315  26.056  27.425  14.337
91496W        W56316  24.230  22.970  14.034
91497W        W56317  40.985  34.406  11.425
91498W        W56318   7.971  15.102  12.938
91499W        W56319  22.849  19.600   3.256
91500W        W56320  29.249  36.239  14.750
91501W        W56321  11.908  33.925  12.332
91502W        W56322  15.833   0.800   2.517
91503W        W56323  38.027  27.639  13.332
91504W        W56324  34.845   8.563   4.610
91505W        W56325  27.354  35.451   4.242
91506W        W56326  19.014  29.433   4.672
91507W        W56327  12.158  39.771  14.514
91508W        W56328  31.954  11.601  10.490
91509W        W56329  27.783  11.197   1.721
91510W        W56330   9.587   6.405   2.819
91511W        W56331  12.869   4.240  14.938
91512W        W56332  22.037  34.598   4.514
91513W        W56333  42.732  15.130   0.014
91514W        W56334  29.572  16.204   3.269
91515W        W56335  11.613  18.788  13.470
91516W        W56336  14.709  16.751   0.228
91517W        W56337  10.516   1.445   1.740
91518W        W56338  36.871   0.205   3.298
91519W        W56339  37.776   4.610  10.928
91520W        W56340  40.099   6.396   0.357
91521W        W56341   3.221   3.812   0.850
91522W        W56342  30.699  17.556  12.869
91523W        W56343  34.894  15.462   4.924
91524W        W56344  22.497  17.009  13.345
91525W        W56345   9.203  18.524  11.256
91526W        W56346  35.745  18.216   0.697
91527W        W56347  16.081  26.970  14.888
91528W        W56348  33.549  14.715   0.064
91529W        W56349  23.428  25.593   3.217
91530W        W56350  22.708  31.098   4.593
91531W        W56351  13.654   4.192  13.496
91532W        W56352   3.502  13.182  13.423
91533W        W56353   5.802  26.698  11.997
91534W        W56354  14.914   5.236  14.506
91535W        W56355  14.637  24.066   0.006
91536W        W56356  26.137  12.766  11.544
91537W        W56357  44.685  21.050  10.549
91538W        W56358  30.873  13.061  11.469
91539W        W56359  18.662  23.425   2.388
91540W        W56360  23.332  40.292   0.308
91541W        W56361  44.339   8.907   3.199
91542W        W56362   2.900  22.254  11.949
91543W        W56363  42.085  29.684   3.219
91544W        W56364  13.759  11.253  13.241
91545W        W56365   4.980   8.294   0.427
91546W        W56366   8.159  17.809   4.960
91547W        W56367  22.294  43.853  14.484
91548W        W56368  41.362   3.143  13.925
91549W        W56369  17.851   1.401  13.259
91550W        W56370  40.072  23.636   1.204
91551W        W56371  36.809  14.686   2.656
91552W        W56372   1.616  36.650  12.628
91553W        W56373  40.839  37.879  14.421
91554W        W56374  31.164   6.662  14.444
91555W        W56375  43.335  17.797   1.811
91556W        W56376  15.584  18.893  14.456
91557W        W56377  30.382  32.656  12.121
91558W        W56378  36.667   9.988  13.801
91559W        W56379  20.144  29.599  12.351
91560W        W56380  22.738  44.367   4.623
91561W        W56381   8.639  42.886   0.821
91562W        W56382  20.690  32.006  14.303
91563W        W56383   1.864   3.238   1.167
91564W        W56384   4.984  12.076   4.205
91565W        W56385  12.226  30.922   1.772
91566W        W56386  21.267  43.073   2.683
91567W        W56387  27.873  44.321   0.187
91568W        W56388   8.923  26.360  10.847
91569W        W56389  34.113  37.790   1.724
91570W        W56390  23.006  19.002   1.236
91571W        W56391  16.306  44.931  14.925
91572W        W56392   3.035  28.077   3.239
91573W        W56393  44.783   7.351   4.100
91574W        W56394  44.015  12.244  10.444
91575W        W56395  24.981  37.569   2.890
91576W        W56396  31.618  17.038  14.415
91577W        W56397  34.292  25.923  14.306
91578W        W56398  40.802  31.454  10.719
91579W        W56399  28.608  17.528  14.180
91580W        W56400   8.056   5.597  13.443
91581W        W56401  15.099  21.092   0.250
91582W        W56402   7.352  29.063  12.884
91583W        W56403  12.704  22.530  14.839
91584W        W56404  35.294  38.785   2.608
91585W        W56405  36.139  33.795  12.483
91586W        W56406   5.666  24.075   4.043
91587W        W56407   8.572  17.194   2.752
91588W        W56408  42.787   1.995  11.996
91589W        W56409  15.245  38.121  10.577
91590W        W56410  13.631   4.668   3.028
91591W        W56411   9.638  11.273   0.463
91592W        W56412  20.288   4.860  13.366
91593W        W56413  13.439  43.279   0.780
91594W        W56414   9.813  37.636   1.982
91595W        W56415   9.191  44.504   4.892
91596W        W56416   0.223  20.707  13.840
91597W        W56417  20.503  27.170  10.567
91598W        W56418  15.443   8.305  14.905
91599W        W56419   9.342  36.176  12.899
91600W        W56420   2.279  40.724   0.374
91601W        W56421  27.926  34.116   4.092
91602W        W56422  35.755  38.443  12.407
91603W        W56423  22.658  27.396   4.536
91604W        W56424  31.254  30.509   1.408
91605W        W56425  14.850  15.028  12.670
91606W        W56426  20.437  28.285   4.094
91607W        W56427  11.975   2.217  11.113
91608W        W56428  34.019  42.686  11.638
91609W        W56429  20.493  29.369   2.151
91610W        W56430  38.263  33.401   1.601
91611W        W56431  24.981  32.463  11.669
91612W        W56432  19.535   1.430   2.797
91613W        W56433  34.289  43.753   3.627
91614W        W56434   0.272  19.110  13.972
91615W        W56435  40.039  13.576  13.431
91616W        W56436   8.775  24.230  12.033
91617W        W56437  30.142  13.752  11.676
91618W        W56438   8.221  28.514  11.667
91619W        W56439  25.140  28.019   4.187
91620W        W56440  25.959  34.484  12.777
91621W        W56441  38.880  16.943   3.362
91622W        W56442  21.707  19.633   0.297
91623W        W56443   3.976   5.833   4.638
91624W        W56444  38.127  29.108   0.969
91625W        W56445   9.256   7.853   1.298
91626W        W56446   0.624  31.453  13.848
91627W        W56447  31.898  44.688   4.812
91628W        W56448  15.416   7.029   3.361
91629W        W56449  36.961  24.470   4.780
91630W        W56450  20.866  32.527  13.039
91631W        W56451   9.465  44.791  12.568
91632W        W56452  39.526  19.208   3.156
91633W        W56453  34.258   0.488  12.400
91634W        W56454  27.521  42.774   2.242
91635W        W56455  20.369  33.623   1.947
91636W        W56456  22.144  27.195   2.212
91637W        W56457  26.969  40.271  12.827
91638W        W56458  43.917  18.253   4.046
91639W        W56459  30.530  34.149  13.808
91640W        W56460   8.271  41.897  10.758
91641W        W56461  41.134   4.679   4.264
91642W        W56462  35.385  10.687  11.657
91643W        W56463   8.812  25.540   4.472
91644W        W56464   5.293  39.871   2.044
91645W        W56465  10.174  43.274   4.115
91646W        W56466  22.008  25.235   0.270
91647W        W56467  23.649  44.726  13.541
91648W        W56468  39.126  14.325   3.364
91649W        W56469  34.563  29.269  11.775
91650W        W56470  15.844  27.963   4.057
91651W        W56471   3.346  24.439  10.785
91652W        W56472  11.699   5.460  14.869
91653W        W56473   4.758  24.417   1.233
91654W        W56474   4.453  15.752   1.678
91655W        W56475   7.137  19.268   0.088
91656W        W56476  13.768   6.477   2.515
91657W        W56477  41.453  28.960   2.805
91658W        W56478  13.468  24.587   3.595
91659W        W56479  23.213  20.612  11.143
91660W        W56480   7.675   5.493  10.654
91661W        W56481  19.527   2.989   2.840
91662W        W56482   6.115  14.258   3.477
91663W        W56483   8.957   2.695  13.474
91664W        W56484  11.549  30.273  10.105
91665W        W56485  26.377  27.592   0.804
91666W        W56486  17.802  41.796  12.188
91667W        W56487  44.967  34.444   0.506
91668W        W56488  19.158  21.947  11.592
91669W        W56489  12.070  19.774  10.264
91670W        W56490  19.734   1.712   3.209
91671W        W56491  21.972  17.218  12.758
91672W        W56492  36.415  22.029  12.452
91673W        W56493   8.686  14.666   4.360
91674W        W56494  43.837  28.922  12.223
91675W        W56495  36.135  18.817   2.342
91676W        W56496  38.862  24.765   3.041
91677W        W56497  24.235  30.386  13.210
91678W        W56498   7.641   0.994   4.021
91679W        W56499  30.107  33.116  10.429
91680W        W56500  44.859  41.372   0.816
91681W        W56501  34.082  29.992   3.436
91682W        W56502  38.382   1.938   0.023
91683W        W56503  16.100  13.827   1.751
91684W        W56504  39.769  40.087   4.190
91685W        W56505  34.501   0.410   1.639
91686W        W56506  18.569  33.231   3.952
91687W        W56507  42.809  43.303  13.388
91688W        W56508  13.861  11.548   3.266
91689W        W56509   9.746  34.417   1.135
91690W        W56510  40.281  31.623   0.864
91691W        W56511  32.193  33.520  14.514
91692W        W56512  34.550   3.503  14.410
91693W        W56513  29.975  41.427   4.481
91694W        W56514   4.006  41.870  14.434
91695W        W56515  38.701   9.201  10.149
91696W        W56516  39.021  12.708  12.390
91697W        W56517   5.253  44.523   1.671
91698W        W56518  34.174  37.918  13.828
91699W        W56519  34.966  23.806   4.937
91700W        W56520   4.169  25.245  11.258
91701W        W56521   8.829  12.194  12.526
91702W        W56522  43.905  28.111  11.129
91703W        W56523  41.430  42.522  14.150
91704W        W56524  10.056  25.044   3.966
91705W        W56525  34.323  17.633   2.181
91706W        W56526  22.172  42.876  14.561
91707W        W56527  38.341  43.823  13.221
91708W        W56528  27.164  19.559  12.912
91709W        W56529  31.451  25.401   2.245
91710W        W56530  28.954  17.294   0.919
91711W        W56531  36.358  18.763   1.537
91712W        W56532  25.194  31.632  13.093
91713W        W56533  27.919  39.201   2.847
91714W        W56534  15.515  33.519   4.175
91715W        W56535  37.806  27.396   2.237
91716W        W56536  10.434   3.403  13.152
91717W        W56537   8.664   9.486   1.264
91718W        W56538  24.157   2.197  12.505
91719W        W56539  42.447  36.766   2.742
91720W        W56540  11.510  37.614  11.531
91721W        W56541  13.188  29.157  12.885
91722W        W56542  21.706  22.079   1.088
91723W        W56543  17.810  15.081   2.208
91724W        W56544  32.643  32.201  11.067
91725W        W56545  27.234  34.477  14.836
91726W        W56546  17.659  33.368  14.221
91727W        W56547  42.246   3.332   0.455
91728W        W56548  23.214  33.439   2.856
91729W        W56549  32.675  15.003  12.135
91730W        W56550  22.255   6.106  12.543
91731W        W56551  18.642  21.606   2.905
91732W        W56552  35.065  30.731  12.657
91733W        W56553  43.880  21.548   4.110
91734W        W56554   1.400  32.140  14.972
91735W        W56555  27.461  30.467   3.246
91736W        W56556   1.067  30.381   0.103
91737W        W56557  36.554  14.619  14.881
91738W        W56558  14.133  23.404  14.532
91739W        W56559  19.726  40.199   5.060
91740W        W56560  23.491  10.983   1.164
91741W        W56561  20.929  20.229  11.060
91742W        W56562  16.060  22.740  10.366
91743W        W56563  41.568   4.459  11.346
91744W        W56564  32.948  37.465   2.162
91745W        W56565   1.356  17.530  11.995
91746W        W56566   0.635   5.766   2.839
91747W        W56567  39.824  25.942  13.527
91748W        W56568  29.439   8.942   0.269
91749W        W56569  11.104  15.106  13.162
91750W        W56570  25.754   8.660   2.259
91751W        W56571  41.089  13.831  11.973
91752W        W56572  29.911  24.582   4.818
91753W        W56573  16.319  13.425   3.663
91754W        W56574   3.516  10.753  13.198
91755W        W56575   4.643  43.919  13.127
91756W        W56576  39.939  38.627   2.233
91757W        W56577  23.148   5.246  11.601
91758W        W56578  10.762  27.793   0.269
91759W        W56579   7.681  21.655  11.448
91760W        W56580  34.366  40.465  11.564
91761W        W56581   5.262  23.437  14.000
91762W        W56582  37.455  32.354   2.767
91763W        W56583   5.253  30.990  14.978
91764W        W56584   6.679  43.341   2.405
91765W        W56585   1.690  20.020  13.380
91766W        W56586  23.736  22.200   1.211
91767W        W56587  39.986   2.650   2.310
91768W        W56588   8.856  23.481   2.662
91769W        W56589  34.523   3.665   2.278
91770W        W56590  16.673  18.558  12.491
91771W        W56591  39.559  33.129  13.783
91772W        W56592  27.500  24.058   2.756
91773W        W56593  30.708  23.959  12.422
91774W        W56594  44.435  29.210  13.764
91775W        W56595   4.695  42.680   3.601
91776W        W56596   6.749   7.989  14.874
91777W        W56597  13.064  32.608  11.065
91778W        W56598  39.058   0.020  11.920
91779W        W56599   8.498  17.579   4.588
91780W        W56600   2.876  16.679   4.352
91781W        W56601  28.558  41.843  12.656
91782W        W56602   5.138  16.631  14.554
91783W        W56603  44.209  39.281   3.174
91784W        W56604  23.463  11.577   0.679
91785W        W56605  22.148  13.531  12.902
91786W        W56606  41.599  11.740  10.394
91787W        W56607   3.632  39.983   4.642
91788W        W56608  14.618  42.873  13.873
91789W        W56609  22.962  37.317  11.014
91790W        W56610  19.638  40.970  14.085
91791W        W56611  32.915   7.234   4.951
91792W        W56612   3.901  44.293  10.565
91793W        W56613  36.376  32.896   1.190
91794W        W56614  44.020  16.185   0.783
91795W        W56615  22.503  13.787   4.526
91796W        W56616  33.678  15.697   4.083
91797W        W56617   9.445  28.410  11.853
91798W        W56618  33.042  28.566   2.592
91799W        W56619   0.697  14.118   1.514
91800W        W56620  14.799   8.898   4.699
91801W        W56621  19.300  20.270  12.677
91802W        W56622  33.968  20.443   1.207
91803W        W56623  21.142  24.654   3.689
91804W        W56624  21.261  35.174  10.729
91805W        W56625  11.832   4.457   3.235
91806W        W56626  32.727  31.399  11.577
91807W        W56627  42.309  11.159  12.632
91808W        W56628  36.498  27.249   4.905
91809W        W56629  30.318  36.941   2.378
91810W        W56630  26.639   4.729   0.766
91811W        W56631   4.771  31.074   3.215
91812W        W56632  23.952  38.879   3.694
91813W        W56633  18.583   1.655   3.548
91814W        W56634  44.270  23.712   3.078
91815W        W56635  12.268  16.877  10.032
91816W        W56636   0.851  14.546   4.746
91817W        W56637  12.373  10.144   2.787
91818W        W56638  14.158  20.634   2.185
91819W        W56639  27.613  41.620  14.259
91820W        W56640  37.633  12.203   4.061
91821W        W56641   9.220  33.872  14.917
91822W        W56642   8.948  16.215  11.620
91823W        W56643  26.846  14.269   4.253
91824W        W56644  32.336  37.569   4.537
91825W        W56645   1.318  35.025  12.903
91826W        W56646  28.250  11.269  14.457
91827W        W56647   2.983  15.605   0.438
91828W        W56648  27.435  20.676  13.533
91829W        W56649  23.146  12.422  12.019
91830W        W56650  21.908  42.542  11.046
91831W        W56651  42.606  15.661   4.601
91832W        W56652  11.422  27.680   0.778
91833W        W56653  44.594  34.376   1.824
91834W        W56654  11.254  40.088   1.357
91835W        W56655  15.286  29.570  12.556
91836W        W56656  34.235  22.162  13.303
91837W        W56657  23.070  16.102  12.412
91838W        W56658  21.838  10.645   4.612
91839W        W56659  28.543  12.870   3.347
91840W        W56660  18.921  11.769  13.517
91841W        W56661  39.709  10.920  10.045
91842W        W56662  14.967  42.084  10.994
91843W        W56663  43.472  37.276  10.837
91844W        W56664   7.174   9.568  14.026
91845W        W56665  22.685  25.683   0.548
91846W        W56666   3.909  42.996   4.103
91847W        W56667   3.102  34.484  10.195
91848W        W56668  28.345  44.963  13.846
91849W        W56669  31.065  33.933  11.060
91850W        W56670  30.699   4.910  14.618
91851W        W56671  32.502  33.072  13.833
91852W        W56672   5.436   6.964  12.143
91853W        W56673   2.537  27.462  13.043
91854W        W56674  36.405  25.530  11.780
91855W        W56675  19.720  37.101   0.525
91856W        W56676  16.121  38.013   3.063
91857W        W56677   9.311  18.798  12.232
91858W        W56678  11.475   2.361  13.767
91859W        W56679   1.953  15.417  10.714
91860W        W56680  20.612   3.607  12.799
91861W        W56681   6.964   0.295   0.854
91862W        W56682  27.452  40.420  12.176
91863W        W56683  14.194  17.067  12.553
91864W        W56684  39.969   8.379  14.360
91865W        W56685  16.791  39.607   3.298
91866W        W56686   5.780  42.768  12.445
91867W        W56687  42.303  23.033  11.637
91868W        W56688  26.599   0.021  10.698
91869W        W56689   9.667  35.491  11.822
91870W        W56690   4.699  29.815   2.242
91871W        W56691  43.769  15.791  11.031
91872W        W56692   1.913   7.753  11.548
91873W        W56693  22.952  24.603   4.100
91874W        W56694   8.100   4.180   1.693
91875W        W56695  39.770  36.334  12.983
91876W        W56696  19.134  18.435  10.804
91877W        W56697  10.285   9.223   1.662
91878W        W56698  39.451   6.268  13.124
91879W        W56699  27.660  40.569   0.968
91880W        W56700   2.203  32.751  14.349
91881W        W56701  38.611  26.722   2.403
91882W        W56702  38.563  33.521   0.604
91883W        W56703  31.918   8.100   3.281
91884W        W56704  15.699  29.941  10.508
91885W        W56705  38.200  26.365   9.768
91886W        W56706  38.941  20.340  14.371
91887W        W56707  44.984  44.420  11.308
91888W        W56708   5.638  16.375  14.832
91889W        W56709  34.040  15.563   0.749
91890W        W56710  41.998  38.463   4.118
91891W        W56711  14.272   8.164  13.413
91892W        W56712  25.337  35.393  13.845
91893W        W56713  16.023   9.086  11.094
91894W        W56714  39.127  44.903   0.196
91895W        W56715  31.085   6.278   1.323
91896W        W56716  32.167  30.816   0.302
91897W        W56717  20.595  44.245   1.316
91898W        W56718  42.529   5.421   3.562
91899W        W56719  15.209  19.286   0.644
91900W        W56720  24.786   4.384   3.878
91901W        W56721  29.789  43.532   2.938
91902W        W56722  36.077  25.197  13.316
91903W        W56723  14.190   1.720   2.540
91904W        W56724  24.472  28.345  13.350
91905W        W56725   8.222  27.026   1.257
91906W        W56726  38.356   1.310   0.817
91907W        W56727  40.363  32.918   1.711
91908W        W56728   6.015  24.086   4.501
91909W        W56729  36.565  21.645   3.828
91910W        W56730   4.291  41.777  10.776
91911W        W56731  23.096  43.309  13.580
91912W        W56732  25.616  40.683   1.276
91913W        W56733  42.557  12.127   0.765
91914W        W56734  18.798  31.414  11.060
91915W        W56735  19.120  30.373   1.810
91916W        W56736  15.798  27.979  12.919
91917W        W56737  39.780   4.723   2.002
91918W        W56738  41.374  30.835  14.845
91919W        W56739  44.388  30.665  10.627
91920W        W56740  18.095  16.743  13.826
91921W        W56741  27.170  22.325   3.129
91922W        W56742  20.737  40.317  12.368
91923W        W56743  21.697  11.448  14.203
91924W        W56744  18.257  19.339  11.079
91925W        W56745   0.918   5.758   0.096
91926W        W56746  29.031   6.949  11.528
91927W        W56747   8.019  11.286   2.704
91928W        W56748   3.456  40.980  13.784
91929W        W56749  26.410  39.449  14.575
91930W        W56750  13.782   7.004  12.232
91931W        W56751  25.141  42.675   4.411
91932W        W56752  30.963  23.385   1.683
91933W        W56753  22.097  29.573   4.368
91934W        W56754  38.860   9.746   1.896
91935W        W56755  41.349  40.873  12.963
91936W        W56756   8.113   0.458   2.848
91937W        W56757  11.233  37.346   1.803
91938W        W56758   9.623  15.484  11.302
91939W        W56759  35.646  31.563  13.431
91940W        W56760   8.199  18.281   0.273
91941W        W56761  22.603  32.885  11.584
91942W        W56762   7.380  17.662  10.282
91943W        W56763   6.759  32.174   2.884
91944W        W56764  13.392  22.797  14.126
91945W        W56765  43.391  14.686   1.358
91946W        W56766  44.711   2.156  11.208
91947W        W56767   8.409   5.313   1.193
91948W        W56768   8.958  19.326  13.903
91949W        W56769  27.835  25.453   0.268
91950W        W56770  30.461  38.490   1.407
91951W        W56771  23.695   1.825  13.506
91952W        W56772  42.794  30.493   3.250
91953W        W56773   8.641  21.036   3.197
91954W        W56774  13.688   7.611  12.366
91955W        W56775  25.676  40.937   3.749
91956W        W56776   4.925  10.323   3.313
91957W        W56777   0.968  28.931  14.855
91958W        W56778  18.680  14.337  10.311
91959W        W56779   2.922   6.321  13.294
91960W        W56780  39.286  31.859   0.449
91961W        W56781  26.506  31.243   2.178
91962W        W56782  33.082  13.325   1.846
91963W        W56783  32.971  39.067   4.204
91964W        W56784  32.085  41.673   1.864
91965W        W56785  30.110   0.677  11.921
91966W        W56786   5.122  20.201   4.633
91967W        W56787  21.339  16.130   2.016
91968W        W56788  13.737  39.315  11.614
91969W        W56789  43.288  15.662   0.969
91970W        W56790  19.211  37.360  12.620
91971W        W56791  19.048  41.605  13.845
91972W        W56792  43.095  14.260   9.963
91973W        W56793  30.311  43.847  10.580
91974W        W56794  14.487  36.627  13.009
91975W        W56795  21.555   5.119  14.006
91976W        W56796  32.018  31.159  12.391
91977W        W56797  14.509   0.050   1.599
91978W        W56798  33.604  21.099   1.775
91979W        W56799  11.633  43.783   2.269
91980W        W56800  14.143  10.687   3.535
91981W        W56801  21.336  34.372  14.373
91982W        W56802  12.640  17.663  14.962
91983W        W56803  16.456  30.418   4.612
91984W        W56804  25.144  38.964   5.070
91985W        W56805  18.764  27.338  14.755
91986W        W56806   0.887   3.744  11.065
91987W        W56807   9.544  31.700   5.052
91988W        W56808  19.001  36.612   3.097
91989W        W56809  13.904   7.884  13.121
91990W        W56810   4.748   8.160   2.877
91991W        W56811  36.869  43.408   3.284
91992W        W56812  19.784   2.955   4.268
91993W        W56813  37.301  33.713   1.916
91994W        W56814  41.503  15.230  10.670
91995W        W56815  25.040  16.293   3.635
91996W        W56816  33.583  25.734   1.856
91997W        W56817  35.987   9.335   4.536
91998W        W56818   0.374   8.951   0.731
91999W        W56819  13.082  18.286  14.094
92000W        W56820   3.594  40.109  12.381
92001W        W56821  34.620  43.453   3.364
92002W        W56822  29.998  40.094   0.818
92003W        W56823   2.791  26.895   0.434
92004W        W56824  43.734   1.504   3.888
92005W        W56825  35.579  20.461  14.640
92006W        W56826   0.254  32.562  12.093
92007W        W56827  37.845  41.978   1.429
92008W        W56828  33.652  33.370   3.780
92009W        W56829  20.530  26.384   3.675
92010W        W56830  31.981  14.725  11.298
92011W        W56831   9.134  19.636  13.485
92012W        W56832  14.302  42.639   3.065
92013W        W56833  13.818  39.147   2.414
92014W        W56834  33.671  21.616   2.155
92015W        W56835  12.070  38.968  12.500
92016W        W56836  41.980  42.401  12.717
92017W        W56837  30.764  30.581   3.698
92018W        W56838  33.869  21.023  11.147
92019W        W56839  11.322  30.338   2.836
92020W        W56840  12.682   9.909   3.226
92021W        W56841  44.751  34.658  11.113
92022W        W56842  32.468  20.886  14.479
92023W        W56843  21.891  32.680  12.336
92024W        W56844   7.242   8.110   0.780
92025W        W56845  31.403  42.779  10.554
92026W        W56846  42.527  37.480  10.699
92027W        W56847  21.630  17.485   4.470
92028W        W56848  10.902  43.458   3.594
92029W        W56849  19.945  11.692  13.526
92030W        W56850   0.776  26.757   2.280
92031W        W56851  16.964  10.381   3.606
92032W        W56852  27.420   3.009  11.121
92033W        W56853  38.329  26.577  14.295
92034W        W56854  16.420   6.882  12.856
92035W        W56855  27.799   2.342   1.375
92036W        W56856  17.601  36.314   0.585
92037W        W56857   6.980   3.397   2.765
92038W        W56858  14.598  42.710   3.726
92039W        W56859  19.565  23.231   3.838
92040W        W56860  36.252  37.811  10.894
92041W        W56861  13.038   6.771   0.830
92042W        W56862  39.377   3.138   1.291
92043W        W56863  20.371  36.425   2.742
92044W        W56864  22.069   4.897  13.984
92045W        W56865  31.520  17.797  14.316
92046W        W56866  16.076  23.054   1.164
92047W        W56867  12.389  37.963  14.041
92048W        W56868   6.822  25.146   1.073
92049W        W56869  38.962  12.882   1.408
92050W        W56870  15.334  43.315   2.358
92051W        W56871  34.386  42.421   2.425
92052W        W56872   9.228  28.926   4.203
92053W        W56873  41.178  14.066  13.100
92054W        W56874  15.123  33.666  13.518
92055W        W56875   5.930  25.583   0.826
92056W        W56876  24.708  15.841  12.992
92057W        W56877   8.306   0.498   1.702
92058W        W56878  21.997   6.280   4.125
92059W        W56879  26.550  40.783   0.251
92060W        W56880  21.081  15.140  14.111
92061W        W56881  40.265  20.572   0.278
92062W        W56882  18.781  37.543  10.714
92063W        W56883  36.939  44.742  13.862
92064W        W56884  15.663  15.229   1.776
92065W        W56885   7.395   7.744  12.642
92066W        W56886   0.706  21.748  13.987
92067W        W56887   8.123  37.023  10.748
92068W        W56888  36.381  43.235  12.357
92069W        W56889  27.053  35.286  10.952
92070W        W56890  22.225  33.390  12.842
92071W        W56891  16.567   7.760   4.616
92072W        W56892  40.280  40.964  11.773
92073W        W56893  42.918  26.471   2.606
92074W        W56894  24.698  24.122   4.122
92075W        W56895   9.707   9.150   0.882
92076W        W56896  10.999  31.413   1.411
92077W        W56897  30.546  19.753  13.545
92078W        W56898  32.422   6.754  12.397
92079W        W56899  19.257  16.859   3.818
92080W        W56900  22.702   9.384   0.320
92081W        W56901   8.423  28.641   0.861
92082W        W56902  17.758  41.294   4.290
92083W        W56903  40.493   1.862   1.312
92084W        W56904   7.487  37.433   3.406
92085W        W56905  25.181  27.741  14.790
92086W        W56906   4.236  13.221  12.914
92087W        W56907  32.597  35.166  11.549
92088W        W56908  10.405  26.945   4.463
92089W        W56909  43.254  44.443   4.631
92090W        W56910   5.669  19.073   2.295
92091W        W56911  13.596  44.179   2.870
92092W        W56912  42.063  33.155   1.187
92093W        W56913  36.140   4.888   0.742
92094W        W56914  25.170  27.906   3.193
92095W        W56915  16.354  37.442  14.055
92096W        W56916   3.418  17.664   3.716
92097W        W56917  37.281  37.366  14.873
92098W        W56918  14.254  22.276  13.865
92099W        W56919  18.773  12.223  12.300
92100W        W56920  44.695   7.315  10.465
92101W        W56921  15.362  34.254  12.146
92102W        W56922  11.857  34.650   4.545
92103W        W56923  24.650   8.850  12.490
92104W        W56924   9.497   1.993   0.347
92105W        W56925  12.634  36.412   0.053
92106W        W56926  36.609   3.720   4.605
92107W        W56927  17.654  14.277  14.375
92108W        W56928   0.357  25.863  14.058
92109W        W56929  29.769  41.041  12.952
92110W        W56930  43.268  20.668   2.650
92111W        W56931  44.437  36.912  14.085
92112W        W56932  25.380   8.716  12.127
92113W        W56933  34.523  32.079  12.412
92114W        W56934  11.633   1.209  11.587
92115W        W56935  21.232   5.984   1.262
92116W        W56936  39.167  34.581  14.007
92117W        W56937  22.914  21.519  14.912
92118W        W56938  27.561  12.672   4.836
92119W        W56939  29.969   0.474   2.730
92120W        W56940  27.943  11.186  14.037
92121W        W56941   0.450  11.289   2.968
92122W        W56942  11.414  12.604  10.725
92123W        W56943  42.528  17.629  10.705
92124W        W56944  10.646  40.368   0.652
92125W        W56945   6.452  36.039  11.414
92126W        W56946  32.647   7.387   2.288
92127W        W56947  37.367  17.364   2.678
92128W        W56948  14.850   1.213   0.715
92129W        W56949   4.290  33.104  12.593
92130W        W56950  21.096  14.142  14.523
92131W        W56951  40.517  27.068   3.268
92132W        W56952  17.714  13.398  11.731
92133W        W56953  13.238  36.813   4.001
92134W        W56954  41.308  23.657  11.970
92135W        W56955  32.333  34.356  13.309
92136W        W56956  25.122  24.997   4.186
92137W        W56957  10.644  11.283  12.994
92138W        W56958  36.909   0.877   1.928
92139W        W56959   1.326  10.044  13.786
92140W        W56960  30.295  14.879   0.475
92141W        W56961  13.119  42.354  12.200
92142W        W56962  15.666  26.156   2.103
92143W        W56963  41.364  12.466   9.947
92144W        W56964  43.908  17.040   5.002
92145W        W56965  21.226  42.107  12.146
92146W        W56966  41.502  35.476   4.553
92147W        W56967  23.588  39.478   2.581
92148W        W56968  22.647   2.764  12.454
92149W        W56969  10.181  26.677  11.621
92150W        W56970  10.218  42.060  11.808
92151W        W56971  18.336  38.917   1.889
92152W        W56972  35.347   0.259   3.355
92153W        W56973   7.318  17.050   4.277
92154W        W56974   9.575   9.721   2.216
92155W        W56975   2.905  38.510   3.952
92156W        W56976  17.026   4.537   2.077
92157W        W56977  35.284   6.726  10.760
92158W        W56978  28.849  15.913   1.811
92159W        W56979  18.454  25.458   2.366
92160W        W56980  37.191  24.910  12.458
92161W        W56981  15.758  24.957  10.848
92162W        W56982  20.492  32.785   1.734
92163W        W56983  39.401  36.750  11.628
92164W        W56984  43.532  12.353  10.662
92165W        W56985   7.257  32.095  12.457
92166W        W56986  11.247  43.723   1.920
92167W        W56987  35.662   9.156  10.690
92168W        W56988  15.296  13.727   0.388
92169W        W56989   3.752  29.895  12.679
92170W        W56990   3.687   4.991   1.753
92171W        W56991  23.796   2.912  14.320
92172W        W56992  42.131  32.052  11.982
92173W        W56993   5.796  31.015   1.415
92174W        W56994  30.782  35.181   3.137
92175W        W56995   1.755   5.772   1.477
92176W        W56996  24.474  19.114   1.398
92177W        W56997  19.987  26.153  12.156
92178W        W56998  41.299  23.475   2.531
92179W        W56999  33.199  14.367   4.233
92180W        W57000  26.016  32.203  13.541
92181W        W57001   4.724  41.540   4.129
92182W        W57002   0.792   5.868   1.945
92183W        W57003  32.439  34.096  13.793
92184W        W57004  24.136  37.448  13.529
92185W        W57005  29.388  17.854   4.646
92186W        W57006   5.826  13.264   0.610
92187W        W57007  28.048  34.757   0.832
92188W        W57008   1.680   4.876   1.811
92189W        W57009  26.051  20.459  12.688
92190W        W57010   4.623  13.237   3.669
92191W        W57011  36.276  15.643   3.752
92192W        W57012  28.874  42.229  14.832
92193W        W57013  44.355   9.425   3.200
92194W        W57014   5.419  35.702   2.542
92195W        W57015  10.454   0.360  10.273
92196W        W57016  21.728  12.948   5.542
92197W        W57017  41.214  25.047  14.388
92198W        W57018  16.734  32.662   4.108
92199W        W57019  22.299  35.135  11.566
92200W        W57020  35.556   9.413   3.251
92201W        W57021  11.605   6.287   4.876
92202W        W57022  23.192   7.247  11.096
92203W        W57023  12.308  40.426   4.369
92204W        W57024  25.000  44.677   5.052
92205W        W57025  16.480  25.002  12.543
92206W        W57026  36.490  39.328  11.550
92207W        W57027  25.540  26.682  14.500
92208W        W57028   6.639  42.898  11.976
92209W        W57029  37.050   7.371  10.716
92210W        W57030   6.878  30.638  12.455
92211W        W57031  29.432  25.196   2.393
92212W        W57032  38.075  11.304   5.376
92213W        W57033   7.709  37.521   5.063
92214W        W57034  19.960   5.631   3.681
92215W        W57035  12.152  11.554   1.293
92216W        W57036  33.127  37.950   0.945
92217W        W57037   6.556  19.469   2.479
92218W        W57038  11.183  38.350   2.788
92219W        W57039   3.969  33.079   0.707
92220W        W57040  43.568  19.509  14.909
92221W        W57041  20.640  33.326  11.394
92222W        W57042  17.633   2.911  11.654
92223W        W57043  11.439  14.581  11.604
92224W        W57044  42.954  23.335  10.653
92225W        W57045  42.327  16.012   0.824
92226W        W57046  27.007  19.043   0.222
92227W        W57047  25.955  38.302  14.515
92228W        W57048   5.713  20.484  14.970
92229W        W57049  25.585  40.239  11.060
92230W        W57050  37.531   8.265   0.641
92231W        W57051  13.742   1.656  12.151
92232W        W57052  14.358  36.819   0.067
92233W        W57053   5.818   5.025  14.012
92234W        W57054  23.264  35.411  14.324
92235W        W57055   2.216   5.936   1.226
92236W        W57056  36.006   4.428  13.769
92237W        W57057  29.910  44.893  13.888
92238W        W57058  20.221  38.920  12.621
92239W        W57059  32.963  25.781   2.675
92240W        W57060  36.014  26.269  13.220
92241W        W57061  18.058  41.406  10.621
92242W        W57062  22.615   1.806   0.039
92243W        W57063  15.728  25.481   0.272
92244W        W57064  39.912  10.808  12.947
92245W        W57065  14.489  28.817   5.290
92246W        W57066  28.039  21.945  13.397
92247W        W57067  42.769   9.669   0.951
92248W        W57068  25.073  39.610  11.700
92249W        W57069  36.998  22.141  13.747
92250W        W57070   2.926   6.884  12.510
92251W        W57071  24.025   9.359   0.828
92252W        W57072  19.845  40.734   5.066
92253W        W57073  31.517   5.272  12.971
92254W        W57074  40.521   4.944   5.065
92255W        W57075  24.925  31.609   0.359
92256W        W57076  26.731  26.577  12.392
92257W        W57077  29.335   1.275  12.773
92258W        W57078  38.498  23.112  14.335
92259W        W57079  10.351  41.570  14.294
92260W        W57080  40.971  40.441   4.627
92261W        W57081  16.433  17.518   3.251
92262W        W57082  30.180  34.433   3.752
92263W        W57083  27.398  18.097  11.135
92264W        W57084  14.192  19.184  14.763
92265W        W57085   0.245   1.793   4.621
92266W        W57086  44.473  21.067   4.982
92267W        W57087  21.503  21.646   0.364
92268W        W57088  28.098  25.006   2.178
92269W        W57089  16.029  16.915   2.526
92270W        W57090   7.944  27.551  12.999
92271W        W57091  35.869  19.608  14.556
92272W        W57092  13.812   7.928   4.116
92273W        W57093   7.420  38.868  14.859
92274W        W57094  38.260  28.381  14.554
92275W        W57095   7.393  22.061  11.222
92276W        W57096  27.662   7.931  11.121
92277W        W57097  14.204  24.263  14.318
92278W        W57098  33.284  34.553  10.176
92279W        W57099  27.029  26.421  11.973
92280W        W57100   9.892  21.289   3.743
92281W        W57101  38.028  32.981   3.979
92282W        W57102  17.599  15.169  10.637
92283W        W57103   2.812   3.544   2.477
92284W        W57104  26.407  20.872   0.437
92285W        W57105  29.832  15.974   3.683
92286W        W57106  21.123   8.207   0.510
92287W        W57107   0.384  16.136  13.570
92288W        W57108   9.753  32.648  14.388
92289W        W57109  26.949  43.362   0.899
92290W        W57110  24.720  23.641  13.678
92291W        W57111  27.809  36.302  14.794
92292W        W57112   1.365  42.207  11.969
92293W        W57113  38.908   4.453   1.225
92294W        W57114   3.605  30.444  12.873
92295W        W57115  39.047  30.386   4.155
92296W        W57116  40.657  34.557  14.060
92297W        W57117  20.052   3.464   1.103
92298W        W57118  21.616  43.948  12.756
92299W        W57119  40.507  16.352   1.747
92300W        W57120   2.766  11.201  13.094
92301W        W57121  17.999  30.994  12.552
92302W        W57122  18.708  25.543  14.856
92303W        W57123  32.566  26.812   2.608
92304W        W57124   9.917  33.340   1.724
92305W        W57125  22.992  25.777  11.537
92306W        W57126  13.148  44.845   1.344
92307W        W57127  29.178  11.386  13.478
92308W        W57128  28.050  12.914   1.440
92309W        W57129  35.933  38.153   1.162
92310W        W57130  40.825   9.678  12.499
92311W        W57131  39.121  37.994  12.361
92312W        W57132  19.314  37.959   2.795
92313W        W57133  43.855  17.749  10.453
92314W        W57134  13.914  34.521   1.220
92315W        W57135  43.547  44.403  10.758
92316W        W57136  21.635  37.115   3.877
92317W        W57137  40.999  41.571   3.028
92318W        W57138  24.647  17.986   3.190
92319W        W57139  44.267   7.830   9.747
92320W        W57140  36.487  14.809   0.370
92321W        W57141  34.223  14.633  10.638
92322W        W57142  38.975  32.419   2.373
92323W        W57143  18.090  17.484   1.792
92324W        W57144  14.085  41.781  12.964
92325W        W57145  15.689  11.672  11.928
92326W        W57146  23.136  12.151   3.693
92327W        W57147  30.072  29.580   0.374
92328W        W57148  25.048  28.943  10.403
92329W        W57149   5.743  12.325  11.851
92330W        W57150  19.546  33.066  11.065
92331W        W57151  44.979  13.304   0.861
92332W        W57152  10.225  10.680   2.248
92333W        W57153  27.546  14.800  10.732
92334W        W57154  20.288  44.764   4.886
92335W        W57155   4.447   3.852  13.916
92336W        W57156  31.658  10.230   3.598
92337W        W57157  39.564  44.018   1.175
92338W        W57158  12.355  12.845  14.737
92339W        W57159  17.679  44.984  11.920
92340W        W57160  23.206  20.234   1.808
92341W        W57161  40.315   1.838  14.686
92342W        W57162  37.042  27.403  11.595
92343W        W57163  16.024  33.051   1.438
92344W        W57164  16.037  38.056   2.562
92345W        W57165  13.830  25.516  14.433
92346W        W57166  35.975  12.929  13.274
92347W        W57167   6.712  20.183   3.190
92348W        W57168  24.402  38.246   5.021
92349W        W57169   4.225  24.418  12.478
92350W        W57170  34.387  16.149   0.455
92351W        W57171  29.729  32.664  10.419
92352W        W57172   3.421   1.906  12.648
92353W        W57173  37.014  30.156   1.201
92354W        W57174  18.145  38.603   3.309
92355W        W57175  24.578  15.576   3.190
92356W        W57176  10.631   7.424  11.665
92357W        W57177   9.432  22.353   4.562
92358W        W57178  40.455   4.135   1.795
92359W        W57179  21.585   6.680  11.715
92360W        W57180  22.108  15.340   0.874
92361W        W57181  34.839   3.363  12.770
92362W        W57182  20.650   0.269  11.262
92363W        W57183  33.768  10.234  13.108
92364W        W57184  32.804   5.219   4.509
92365W        W57185  15.079  41.425   1.459
92366W        W57186  40.257  41.293   3.252
92367W        W57187  12.118  41.815  12.869
92368W        W57188  19.647  10.578   2.253
92369W        W57189  41.733  26.626  13.057
92370W        W57190  12.868  34.577   4.820
92371W        W57191  21.119  33.650  11.246
92372W        W57192   4.843  13.696  13.860
92373W        W57193  15.000  37.261   3.135
92374W        W57194  22.780  21.037   2.279
92375W        W57195  25.505  11.758   1.422
92376W        W57196   0.271  36.626   2.316
92377W        W57197  27.164  10.132  10.631
92378W        W57198  28.195   4.276  10.643
92379W        W57199   4.768  20.547  13.609
92380W        W57200  30.050  35.114   9.958
92381W        W57201  37.129   6.701   3.054
92382W        W57202  18.455  14.033  14.011
92383W        W57203  32.991  37.110  11.263
92384W        W57204   2.890  32.684  14.866
92385W        W57205  24.972  41.963  10.716
92386W        W57206  24.224  24.259  12.417
92387W        W57207  10.535   5.888  13.529
92388W        W57208  26.451   8.945   0.855
92389W        W57209  27.992  30.080  10.731
92390W        W57210  23.243  16.757  14.956
92391W        W57211  41.564  14.512   2.252
92392W        W57212  24.556  36.743   2.768
92393W        W57213   0.557  29.712   2.314
92394W        W57214  17.570  11.093  12.489
92395W        W57215  41.360  36.534   3.119
92396W        W57216  43.224   6.296  12.585
92397W        W57217   7.762  13.164  12.245
92398W        W57218  33.914   6.457   1.364
92399W        W57219  30.915  39.243  12.536
92400W        W57220  34.875  28.427   2.856
92401W        W57221   6.312   5.891  14.398
92402W        W57222  39.949  22.543   2.248
92403W        W57223  33.563  39.363   0.222
92404W        W57224  30.024   4.164   3.556
92405W        W57225  43.860  32.155   2.716
92406W        W57226  24.178   1.373   3.762
92407W        W57227  19.016  27.082  13.805
92408W        W57228   5.442  38.536   2.395
92409W        W57229  33.145  18.842  12.186
92410W        W57230  25.722   2.165  14.414
92411W        W57231   8.511   5.043   3.914
92412W        W57232  32.857   8.958  11.214
92413W        W57233   4.164  44.290   0.220
92414W        W57234  27.487   1.968  12.849
92415W        W57235   3.332  25.641  11.535
92416W        W57236  15.202   1.738  14.559
92417W        W57237  37.384  13.828  14.212
92418W        W57238  29.459  26.424   3.688
92419W        W57239  11.898  39.248  13.812
92420W        W57240   5.637  13.234   3.620
92421W        W57241  11.830  11.258  14.787
92422W        W57242  37.598  43.358  10.422
92423W        W57243   0.325  13.660   4.465
92424W        W57244  17.542   7.494  14.962
92425W        W57245  34.498  35.929   4.632
92426W        W57246  26.790  42.310   1.964
92427W        W57247   8.983  21.015   3.657
92428W        W57248  14.806  37.523  12.710
92429W        W57249  14.199  24.359  11.667
92430W        W57250   8.608   5.840  10.072
92431W        W57251  20.673   3.913   4.596
92432W        W57252  42.269  44.145   1.255
92433W        W57253  28.888  24.555   0.866
92434W        W57254   5.196   1.896  13.156
92435W        W57255  19.542   1.228   2.304
92436W        W57256  13.153  36.314   0.825
92437W        W57257  18.124   8.634   2.263
92438W        W57258   4.721   5.340   0.537
92439W        W57259  29.417  31.088   3.662
92440W        W57260   0.903   7.286  11.920
92441W        W57261  15.637  41.505  13.409
92442W        W57262  24.862  29.459   3.430
92443W        W57263  33.458  18.132  14.966
92444W        W57264   8.298  22.728   0.292
92445W        W57265   4.590  43.295  10.646
92446W        W57266  27.920  10.391   1.083
92447W        W57267  36.333  30.584  10.734
92448W        W57268  43.754  41.927   2.598
92449W        W57269  38.168  30.688  11.995
92450W        W57270  17.579  36.915  13.766
92451W        W57271   0.877  11.354   5.035
92452W        W57272   4.669  25.056  14.731
92453W        W57273   8.699  35.071   3.397
92454W        W57274  34.677  23.188   2.033
92455W        W57275  24.155  31.092   0.327
92456W        W57276  18.535  12.425   3.349
92457W        W57277  24.451  15.629   2.693
92458W        W57278  39.360   4.200   3.810
92459W        W57279   0.286  40.552  10.497
92460W        W57280   9.349  41.227  14.941
92461W        W57281  21.024  19.366   0.756
92462W        W57282  34.810  40.379  11.040
92463W        W57283  44.945   0.522   1.417
92464W        W57284  35.586  41.437   4.398
92465W        W57285   5.746  26.091  12.612
92466W        W57286   3.370   7.695   1.309
92467W        W57287  16.197  42.309   0.007
92468W        W57288   4.452  37.919   4.885
92469W        W57289  26.389   8.613   4.161
92470W        W57290  20.503  30.490  12.533
92471W        W57291  15.070  26.931  12.338
92472W        W57292  40.448  25.452   0.319
92473W        W57293  38.257   6.850  12.031
92474W        W57294  35.433  24.572  12.129
92475W        W57295  18.662  19.621  11.165
92476W        W57296  18.745   0.239  13.316
92477W        W57297  11.855  20.218   3.260
92478W        W57298  26.042   8.999   1.809
92479W        W57299   2.980  30.163   1.775
92480W        W57300  24.388  24.188   3.641
92481W        W57301  24.675   6.097   3.231
92482W        W57302  15.819  42.567  12.406
92483W        W57303   5.193  41.901   0.501
92484W        W57304  30.493  27.372   2.615
92485W        W57305  10.814  43.308   1.281
92486W        W57306  28.710  31.168   3.215
92487W        W57307  10.283  11.838  14.305
92488W        W57308   0.958  20.620  14.358
92489W        W57309  41.345  30.754  10.960
92490W        W57310  33.896   0.038   3.703
92491W        W57311  18.120  10.827   4.581
92492W        W57312  11.753  37.276  10.060
92493W        W57313  15.466  10.357   2.799
92494W        W57314  16.875  10.388  14.833
92495W        W57315  26.928  30.467   4.441
92496W        W57316   6.412  43.615   1.779
92497W        W57317  20.639  39.676   1.997
92498W        W57318  23.446  20.324  11.959
92499W        W57319  26.463   6.837   2.824
92500W        W57320  37.249   2.701   3.134
92501W        W57321  33.473  31.370  14.360
92502W        W57322  29.906  15.045   0.095
92503W        W57323  13.125  38.596   1.629
92504W        W57324   8.295   4.704   2.595
92505W        W57325  24.992   0.923  11.496
92506W        W57326  32.400  29.460   1.722
92507W        W57327   0.877  13.819  12.489
92508W        W57328  11.055  37.047   2.189
92509W        W57329  10.272  35.872   4.382
92510W        W57330  24.807  42.233  13.051
92511W        W57331  44.754   5.706   1.901
92512W        W57332  20.163  15.977  11.470
92513W        W57333   4.913  26.573  10.675
92514W        W57334  18.235  38.660  13.832
92515W        W57335  35.662  44.585  13.489
92516W        W57336  37.875  40.582   1.443
92517W        W57337  34.926   4.053   3.707
92518W        W57338  15.912  36.081  11.110
92519W        W57339  12.220   4.260  13.869
92520W        W57340  24.699  24.065  12.453
92521W        W57341  42.294  32.184  11.034
92522W        W57342  13.446  29.945   3.842
92523W        W57343  20.060  26.196   4.374
92524W        W57344  37.127   3.037   2.756
92525W        W57345  17.067   3.777  14.296
92526W        W57346  11.703  35.546  14.879
92527W        W57347  12.704  10.872  11.672
92528W        W57348  19.606  39.330  11.035
92529W        W57349  44.411  10.935  10.548
92530W        W57350  32.917  26.284   3.569
92531W        W57351  17.562   0.334   2.183
92532W        W57352  42.512   4.420   4.176
92533W        W57353  19.131   9.348   0.887
92534W        W57354  15.631  24.530   2.186
92535W        W57355  23.279   1.557   0.874
92536W        W57356   1.457  41.924  10.959
92537W        W57357  12.185  33.498   0.011
92538W        W57358   0.945  42.000  14.358
92539W        W57359  27.887  22.195   2.250
92540W        W57360   0.786   0.290  11.608
92541W        W57361   7.842  16.676   3.705
92542W        W57362  13.295   2.574   1.565
92543W        W57363  18.650  25.215   0.837
92544W        W57364  16.267  25.100  11.156
92545W        W57365  42.433  14.550   1.771
92546W        W57366   0.195  24.678   1.823
92547W        W57367   5.118  21.157   3.329
92548W        W57368   9.329  35.787   2.420
92549W        W57369  36.658  40.269  14.786
92550W        W57370   7.736  21.185  11.657
92551W        W57371   5.731  12.880  11.599
92552W        W57372  39.995   7.987  10.688
92553W        W57373  14.658  41.263   4.953
92554W        W57374  15.691  38.975  12.495
92555W        W57375  28.139  28.615   0.226
92556W        W57376  40.979  42.747  12.492
92557W        W57377  13.098  42.863  10.438
92558W        W57378   9.679  32.047  11.381
92559W        W57379  43.318  32.526  10.874
92560W        W57380   0.488  27.985  12.049
92561W        W57381  13.828   9.788   4.425
92562W        W57382  12.192  21.839   2.376
92563W        W57383  42.881  33.536   2.209
92564W        W57384  30.419  36.072   2.160
92565W        W57385  27.658  29.332  13.823
92566W        W57386  26.436   6.640   1.854
92567W        W57387  38.413  15.819  11.180
92568W        W57388   1.008   1.967   0.186
92569W        W57389   8.807   7.718  12.050
92570W        W57390  12.786   9.349   0.890
92571W        W57391  32.542  28.500   3.299
92572W        W57392  40.869   7.416  10.381
92573W        W57393  40.908  12.140   2.355
92574W        W57394  39.526  19.215  11.153
92575W        W57395   1.001  44.246   1.421
92576W        W57396  22.250  33.983  14.499
92577W        W57397  17.875  10.860   1.389
92578W        W57398  32.033  36.097  13.766
92579W        W57399  27.191  40.058   1.528
92580W        W57400  15.208  33.682  10.741
92581W        W57401   6.195  34.107  11.494
92582W        W57402  10.336  42.669   0.426
92583W        W57403  15.507  36.835  13.013
92584W        W57404   7.259  12.178   2.154
92585W        W57405  35.017  38.585   4.669
92586W        W57406  36.775  36.073   2.523
92587W        W57407  11.936  25.266  12.487
92588W        W57408   2.396  33.819   2.248
92589W        W57409  38.399  15.093   1.383
92590W        W57410  19.674  40.649   1.616
92591W        W57411  15.227  33.369  12.669
92592W        W57412  38.873  33.662   2.879
92593W        W57413  17.304  35.402  12.192
92594W        W57414  31.625  38.461  12.029
92595W        W57415  42.441  25.957   0.225
92596W        W57416  33.471  21.274  12.440
92597W        W57417   2.775  28.728   0.373
92598W        W57418  26.969  37.296  13.374
92599W        W57419  19.066  27.679  11.618
92600W        W57420   0.719  37.875  13.025
92601W        W57421  29.862  29.701   3.605
92602W        W57422   1.563  41.714  11.963
92603W        W57423  15.230   9.959   3.103
92604W        W57424  23.850   2.753   3.825
92605W        W57425  26.498   6.725  12.622
92606W        W57426  23.576  28.768  13.617
92607W        W57427   6.347   9.116   3.365
92608W        W57428   5.810  17.269  10.401
92609W        W57429   7.167   6.296  14.224
92610W        W57430  36.774  27.676  12.120
92611W        W57431  15.274  22.447   4.420
92612W        W57432  29.071  35.464  12.641
92613W        W57433   2.300   7.440   3.704
92614W        W57434   0.509  21.135  13.026
92615W        W57435  44.199   0.759   0.288
92616W        W57436  39.106  27.518   0.864
92617W        W57437  28.427  25.747  13.290
92618W        W57438   9.780   3.166  10.940
92619W        W57439  31.002  32.687  14.890
92620W        W57440   6.345  11.291   4.178
92621W        W57441  42.443  12.126   1.272
92622W        W57442  24.329  12.718  12.473
92623W        W57443  33.989  13.667   3.720
92624W        W57444  15.958  28.488  12.815
92625W        W57445  20.008  25.507  10.543
92626W        W57446   4.666  20.659   2.680
92627W        W57447  42.032   0.039  10.445
92628W        W57448  30.717  16.049   1.292
92629W        W57449   5.900  18.564   3.970
92630W        W57450   2.711  19.134  10.737
92631W        W57451  33.556   8.964  10.815
92632W        W57452  31.940  30.447  10.252
92633W        W57453  33.718  35.012  13.169
92634W        W57454   1.238   2.466   3.238
92635W        W57455  19.838  29.090  11.582
92636W        W57456  18.679  41.566  12.657
92637W        W57457  30.371  44.496  12.168
92638W        W57458   6.421  17.659   4.291
92639W        W57459  38.200   3.573  12.788
92640W        W57460  42.032  14.637  12.995
92641W        W57461   5.718  35.090  13.468
92642W        W57462  37.424  28.591   4.173
92643W        W57463  37.359  12.812   3.302
92644W        W57464  37.830   8.756  14.055
92645W        W57465  28.202  31.059  11.513
92646W        W57466  44.696  14.321  12.570
92647W        W57467  29.008  20.533  12.425
92648W        W57468   2.951   0.010   2.827
92649W        W57469  44.602  12.270  13.059
92650W        W57470  42.812  38.621  13.110
92651W        W57471  31.157  11.474   4.147
92652W        W57472  14.567  13.046   1.784
92653W        W57473   2.806  28.152  10.075
92654W        W57474   5.304  11.242   2.753
92655W        W57475  31.571   9.348  11.747
92656W        W57476   5.782  26.238   2.210
92657W        W57477  42.658   2.288   4.183
92658W        W57478  24.020  41.755   3.394
92659W        W57479  37.030   7.997   5.427
92660W        W57480  27.969  17.758  12.018
92661W        W57481  36.632  32.591  11.380
92662W        W57482  27.973  42.903   0.356
92663W        W57483  10.829  24.658  11.954
92664W        W57484  40.103  35.343   0.276
92665W        W57485  38.986  20.859  14.343
92666W        W57486  35.398  23.638   1.840
92667W        W57487  42.302  17.106   2.421
92668W        W57488  17.674   9.100  13.977
92669W        W57489  22.999  39.270   0.983
92670W        W57490  30.534  20.760   2.262
92671W        W57491   4.720  29.195  11.170
92672W        W57492  26.113  12.049   3.203
92673W        W57493  38.947  26.209   0.880
92674W        W57494  33.355  44.354   1.038
92675W        W57495  17.034  20.755   4.149
92676W        W57496   6.481   4.813  11.081
92677W        W57497  33.556  18.802   0.572
92678W        W57498  20.182  13.016   3.371
92679W        W57499  27.418   7.213  13.409
92680W        W57500  44.772  39.453   1.446
92681W        W57501  27.502  10.579   3.274
92682W        W57502  16.315  22.487  12.245
92683W        W57503  37.132   7.189   4.200
92684W        W57504  16.549  28.442   1.163
92685W        W57505   1.323  15.412   4.160
92686W        W57506  39.421  15.266   1.909
92687W        W57507  20.215  43.311   4.562
92688W        W57508  43.164  31.517  12.044
92689W        W57509  15.418  40.764   3.256
92690W        W57510  43.624  19.672   1.454
92691W        W57511  17.091  15.827  14.955
92692W        W57512  15.010  13.715  13.546
92693W        W57513   6.034  22.068   3.295
92694W        W57514   6.204  26.716  13.229
92695W        W57515  17.114   8.308  11.453
92696W        W57516   8.155  17.793   2.474
92697W        W57517  14.786   4.309  11.792
92698W        W57518  20.486  38.201  10.989
92699W        W57519  36.259  38.822  11.187
92700W        W57520  31.018   9.585  12.926
92701W        W57521  26.551  10.284  14.786
92702W        W57522  40.496  27.509   2.668
92703W        W57523  43.958  13.838   1.452
92704W        W57524  27.688  42.095   3.127
92705W        W57525  24.565  33.083   2.996
92706W        W57526  10.899  41.081  10.656
92707W        W57527  11.736   3.235   2.658
92708W        W57528  40.080  23.142   4.875
92709W        W57529   6.661  12.491   4.587
92710W        W57530   4.452   5.870  10.734
92711W        W57531  11.501  44.161   4.068
92712W        W57532  34.512  40.090   3.250
92713W        W57533   1.008  12.788   1.358
92714W        W57534  37.836  44.313   0.348
92715W        W57535  33.459  35.308   3.677
92716W        W57536   1.726  34.854   1.804
92717W        W57537  14.078  27.127  12.086
92718W        W57538  38.817  32.143   1.139
92719W        W57539  11.355   4.864  10.777
92720W        W57540   4.940   6.218   0.067
92721W        W57541  25.717  19.536   4.010
92722W        W57542  11.841  29.510  12.143
92723W        W57543  31.723  44.839   1.941
92724W        W57544  35.929   6.757   1.647
92725W        W57545  22.804  25.820  12.831
92726W        W57546  33.550  31.943  14.031
92727W        W57547  40.866  13.340   5.093
92728W        W57548  26.485  34.428   0.830
92729W        W57549  21.699   9.726  13.849
92730W        W57550  37.385   6.730  14.685
92731W        W57551  40.282  10.666  11.970
92732W        W57552  24.296  44.998  10.735
92733W        W57553   8.098  15.734  10.541
92734W        W57554   9.186  31.606  11.965
92735W        W57555   6.971  41.356  10.828
92736W        W57556  27.629  36.400  12.557
92737W        W57557  34.962  35.107  12.952
92738W        W57558   3.840  21.132   2.113
92739W        W57559  34.124  31.413  13.500
92740W        W57560  41.917  10.706   0.924
92741W        W57561  32.073  13.164  12.935
92742W        W57562  28.666  14.123   1.419
92743W        W57563   7.756   8.681  14.150
92744W        W57564  42.928  37.327  14.990
92745W        W57565  37.398  24.191   0.741
92746W        W57566  39.070  22.160   4.657
92747W        W57567  31.929   3.667  10.677
92748W        W57568  36.435  24.484   4.226
92749W        W57569  37.456   1.909   1.004
92750W        W57570  24.264  44.360  14.596
92751W        W57571   9.334   1.248  12.380
92752W        W57572  16.544  29.638  14.327
92753W        W57573  44.766  13.115   3.700
92754W        W57574   6.495  27.090  13.457
92755W        W57575  36.388  40.469  14.395
92756W        W57576  22.685  28.099   4.387
92757W        W57577  21.261  33.317   3.747
92758W        W57578  11.343  40.766  10.707
92759W        W57579  12.107  35.427   4.676
92760W        W57580   1.770  24.158   4.729
92761W        W57581  44.738  15.219   3.712
92762W        W57582  40.254  18.210  10.986
92763W        W57583   0.609  28.238  12.494
92764W        W57584  23.628   1.813  14.857
92765W        W57585  39.978  18.206  10.548
92766W        W57586  20.641   1.217  14.359
92767W        W57587  38.710  19.285   1.085
92768W        W57588   1.571  17.578   3.658
92769W        W57589   5.830  24.478   0.747
92770W        W57590  14.687  30.397  13.458
92771W        W57591   8.520  40.697   0.430
92772W        W57592  25.424   4.426  14.025
92773W        W57593  30.681  31.443  13.403
92774W        W57594  20.526  11.804   3.128
92775W        W57595  10.391   6.510  13.105
92776W        W57596  16.464  15.603  13.593
92777W        W57597  42.021   1.896   4.022
92778W        W57598  16.004  33.282  11.952
92779W        W57599  34.108   1.968   3.323
92780W        W57600  21.323  29.000   4.928
92781W        W57601  42.060  34.516   1.118
92782W        W57602  31.360  35.918   3.274
92783W        W57603  20.021  35.583  13.470
92784W        W57604  13.733  14.198  10.684
92785W        W57605  21.235  10.305  12.384
92786W        W57606  28.073  41.793  14.495
92787W        W57607  35.324   4.891  13.445
92788W        W57608  10.356  40.682   5.040
92789W        W57609  24.343  17.555   3.296
92790W        W57610  34.648   3.897   4.109
92791W        W57611  41.485  17.678   4.106
92792W        W57612  17.515   0.523   2.700
92793W        W57613  33.028  41.327   3.854
92794W        W57614  24.095   4.313   3.397
92795W        W57615  17.591  27.657   0.868
92796W        W57616  20.633  40.466  14.756
92797W        W57617  31.118   5.808  14.459
92798W        W57618  11.777   9.233  11.909
92799W        W57619   9.725   7.169  14.492
92800W        W57620  23.878   7.696   2.463
92801W        W57621  42.798  15.061   1.328
92802W        W57622  39.367   6.323  12.593
92803W        W57623  11.600  10.190  13.395
92804W        W57624  41.697   9.650   4.186
92805W        W57625  21.178  12.841   1.442
92806W        W57626  23.263  15.381  11.130
92807W        W57627  16.775  20.636   4.609
92808W        W57628  22.277  38.508   0.927
92809W        W57629  39.010  16.635   3.739
92810W        W57630  38.089  10.089   3.845
92811W        W57631  25.546  31.169   3.594
92812W        W57632  29.888  36.814   3.250
92813W        W57633  20.138  43.367   0.210
92814W        W57634  19.612  31.472  10.643
92815W        W57635  14.368  39.562   3.249
92816W        W57636  31.005  10.609  11.632
92817W        W57637   3.800  28.120  14.930
92818W        W57638  26.446  38.069   0.836
92819W        W57639  15.569   4.304  14.396
92820W        W57640  42.869  19.010   4.096
92821W        W57641  31.218  44.786   1.934
92822W        W57642  43.765  14.091  12.617
92823W        W57643  37.918  30.421   1.180
92824W        W57644  23.650  10.278   2.864
92825W        W57645   0.416  27.194   0.208
92826W        W57646  14.978  29.028  11.618
92827W        W57647   4.419  38.194  14.615
92828W        W57648  36.469  20.988   4.447
92829W        W57649   9.458  18.525   0.468
92830W        W57650  43.276  18.379   4.579
92831W        W57651  38.095  41.819   2.804
92832W        W57652   5.760  18.345  13.043
92833W        W57653  42.859  40.077   1.628
92834W        W57654  39.653  19.716  13.379
92835W        W57655  12.186  25.330  10.453
92836W        W57656   9.793  14.087   2.695
92837W        W57657  19.139   2.992   3.166
92838W        W57658   6.191   4.697   3.596
92839W        W57659  41.481   5.706   3.144
92840W        W57660   9.380   9.287  10.347
92841W        W57661  40.312  28.004   2.770
92842W        W57662   9.340  36.853  14.007
92843W        W57663  15.896  26.628  12.119
92844W        W57664  38.943  11.624  14.966
92845W        W57665   7.899  39.183   3.669
92846W        W57666  18.284  34.482   1.768
92847W        W57667   9.142  19.846  14.454
92848W        W57668  41.866  27.180   4.135
92849W        W57669  37.028  13.093  12.601
92850W        W57670  15.806   0.851  13.392
92851W        W57671   5.851  33.592  14.985
92852W        W57672   6.981   2.760   1.322
92853W        W57673  20.498   2.665  10.766
92854W        W57674  11.935  14.902  12.825
92855W        W57675  34.477  31.950  10.223
92856W        W57676  14.080   4.485  13.598
92857W        W57677  38.172  21.628   0.315
92858W        W57678   7.234   3.814  12.493
92859W        W57679  23.982   1.001  11.631
92860W        W57680  10.241  21.724  12.321
92861W        W57681  25.202  44.360  10.539
92862W        W57682  26.991   7.595  12.071
92863W        W57683  39.864  11.872   0.343
92864W        W57684   3.451   6.314   2.802
92865W        W57685  27.664   5.973   2.240
92866W        W57686  43.066  35.045  11.137
92867W        W57687  21.563  11.557  13.717
92868W        W57688  16.802  13.325  13.549
92869W        W57689  15.874  28.380   1.938
92870W        W57690  44.038   1.195   0.555
92871W        W57691  17.051  13.660   1.287
92872W        W57692  41.328  43.676   1.267
92873W        W57693  33.024  23.899   2.358
92874W        W57694   5.794  38.820   2.621
92875W        W57695  27.178  37.036   4.776
92876W        W57696  42.048  39.898  10.761
92877W        W57697  39.836  34.266   0.242
92878W        W57698  32.375   2.158   3.199
92879W        W57699  24.213  41.080   4.098
92880W        W57700   2.793  27.976  12.948
92881W        W57701  21.600  19.173   4.630
92882W        W57702  34.298  31.656   4.205
92883W        W57703  13.668  11.880   2.343
92884W        W57704  18.600  40.975   3.201
92885W        W57705   0.017  23.303  11.567
92886W        W57706  14.925  28.939   0.388
92887W        W57707   6.897   9.406   0.904
92888W        W57708   2.549  17.065   4.512
92889W        W57709  11.425  27.333  11.590
92890W        W57710   7.634  13.230   0.047
92891W        W57711  44.081  18.186  11.634
92892W        W57712  44.524  28.031  10.648
92893W        W57713   0.238  23.122   1.479
92894W        W57714  28.598  42.351  12.486
92895W        W57715  37.779  37.974  11.901
92896W        W57716  18.551  22.846  14.402
92897W        W57717  35.872  11.777  12.647
92898W        W57718   4.314   1.943   0.374
92899W        W57719  39.477  35.854   1.327
92900W        W57720   1.442   0.888  10.351
92901W        W57721  44.348  15.929  14.963
92902W        W57722   7.242   6.895  12.336
92903W        W57723  13.924  14.607   1.936
92904W        W57724  38.454  16.307   0.446
92905W        W57725  13.157  35.929   4.618
92906W        W57726   5.384  42.881  12.749
92907W        W57727  16.366  28.996  13.084
92908W        W57728  23.216  31.136  13.244
92909W        W57729  41.961   2.889   4.616
92910W        W57730  40.583  28.037  13.457
92911W        W57731   3.854  20.589  13.569
92912W        W57732  17.151  21.382   5.264
92913W        W57733  12.615   9.316   4.283
92914W        W57734  31.998  26.035  11.064
92915W        W57735  24.303  10.316   9.795
92916W        W57736  44.542  12.843  14.359
92917W        W57737  21.075   4.699   3.910
92918W        W57738   8.804  34.539   3.569
92919W        W57739  24.901  22.238   0.615
92920W        W57740   0.020  29.557  11.153
92921W        W57741  39.472  34.976   3.414
92922W        W57742  15.311  35.691   0.571
92923W        W57743  18.872  14.749  11.228
92924W        W57744  39.889  15.276   2.114
92925W        W57745  42.404  18.505  12.174
92926W        W57746  44.510  19.244   3.364
92927W        W57747  23.243   2.067  10.480
92928W        W57748   4.446  19.150  12.145
92929W        W57749  25.045  28.897   0.499
92930W        W57750  19.053  33.809  14.344
92931W        W57751  23.100  17.038  11.432
92932W        W57752  14.791   2.673  10.845
92933W        W57753  35.371  27.481   2.624
92934W        W57754  17.579  23.608  13.972
92935W        W57755  27.530  24.261   2.264
92936W        W57756  27.707   3.785  12.135
92937W        W57757  39.001   9.990   2.414
92938W        W57758   5.440  12.666  14.951
92939W        W57759   8.262  26.257  14.615
92940W        W57760   1.325   5.483  13.947
92941W        W57761  44.876   2.464  10.830
92942W        W57762  21.681   8.132  13.838
92943W        W57763  42.944  26.103   1.301
92944W        W57764  21.512   5.512  12.991
92945W        W57765  26.554   4.785   2.881
92946W        W57766   8.690   6.439   0.529
92947W        W57767  33.217  25.497   0.898
92948W        W57768  18.285  31.145   0.737
92949W        W57769  38.404  35.221   4.216
92950W        W57770  15.649   8.699  11.484
92951W        W57771   2.954  28.868   3.818
92952W        W57772   9.658  28.950  14.735
92953W        W57773  21.349   8.696  12.860
92954W        W57774  43.466   1.462   3.225
92955W        W57775   8.866  22.209   1.449
92956W        W57776  19.302   2.015  14.399
92957W        W57777  26.634  38.426  10.197
92958W        W57778  11.238  31.847   1.244
92959W        W57779  16.785  27.987   0.453
92960W        W57780  16.133  24.493   0.945
92961W        W57781  34.882  28.982  13.894
92962W        W57782  12.096  28.155   1.216
92963W        W57783  22.651  19.279  14.872
92964W        W57784  23.096  15.062   3.617
92965W        W57785   7.166  30.661   0.421
92966W        W57786  31.434  37.249   1.595
92967W        W57787   7.201  43.371   2.395
92968W        W57788  32.080  26.078  12.994
92969W        W57789  33.420  35.670  10.381
92970W        W57790  32.522  12.053  12.514
92971W        W57791   7.744   7.424   3.649
92972W        W57792  31.878  43.327  11.399
92973W        W57793  16.309  14.791   3.293
92974W        W57794  32.998  15.187   3.678
92975W        W57795  18.099  17.790   3.707
92976W        W57796  33.466   6.382  11.002
92977W        W57797  13.773   9.876  13.506
92978W        W57798  36.620  44.081   0.891
92979W        W57799   0.341  41.322  11.384
92980W        W57800   7.773   0.068  12.728
92981W        W57801  19.847   1.217   3.164
92982W        W57802  41.690  42.772  13.788
92983W        W57803   3.704  42.957   3.623
92984W        W57804  21.982  27.081  13.898
92985W        W57805  16.666   5.409   2.532
92986W        W57806  16.884  40.078  14.756
92987W        W57807  30.947   1.457  13.937
92988W        W57808  19.678   5.467  13.331
92989W        W57809  42.964  28.554  11.397
92990W        W57810  13.897  19.744   3.733
92991W        W57811  40.839  20.749   1.819
92992W        W57812  26.347   5.328  11.079
92993W        W57813  10.316  11.915  11.962
92994W        W57814  23.673  12.081  13.906
92995W        W57815  21.042  35.189   0.083
92996W        W57816  14.700  19.358   0.934
92997W        W57817  34.526  37.086   3.700
92998W        W57818  37.469  12.871  11.161
92999W        W57819  21.911  34.088   0.833
93000W        W57820  38.671   8.821  11.962
93001W        W57821  10.290   3.814  14.379
93002W        W57822   4.299  22.484   2.263
93003W        W57823  12.255   4.021  10.450
93004W        W57824  26.748  26.084  10.739
93005W        W57825   6.307   5.051  12.404
93006W        W57826  11.742  38.423   3.491
93007W        W57827  23.794  33.241  14.971
93008W        W57828  43.962  41.785  13.697
93009W        W57829  30.007  42.422   2.137
93010W        W57830   1.398  13.261   0.197
93011W        W57831  39.122   0.771  11.421
93012W        W57832  17.226   1.273   1.957
93013W        W57833  17.288   2.468   0.110
93014W        W57834  38.383  13.911  12.435
93015W        W57835   1.857   4.131  11.196
93016W        W57836  10.684  32.954   2.577
93017W        W57837   0.998  36.937   2.731
93018W        W57838   0.886  34.655  10.687
93019W        W57839  18.367  13.152   4.577
93020W        W57840  27.289  13.022  12.686
93021W        W57841  31.798  38.569   3.109
93022W        W57842  13.527  32.496  12.427
93023W        W57843  31.382  13.643  11.216
93024W        W57844  27.906  29.448  13.388
93025W        W57845  37.369  39.068   4.627
93026W        W57846  41.454  11.818   3.465
93027W        W57847  25.144   4.017   0.326
93028W        W57848  12.385  34.951  11.049
93029W        W57849  18.348  30.613  12.659
93030W        W57850  23.179   0.872  14.945
93031W        W57851  42.854  24.507   0.752
93032W        W57852  30.500  38.324  11.485
93033W        W57853  11.170  19.202  14.039
93034W        W57854  20.163  18.560   1.706
93035W        W57855  24.732  31.149   0.335
93036W        W57856  30.501   9.110   1.281
93037W        W57857   4.212  13.481   3.839
93038W        W57858  33.401  22.784   1.455
93039W        W57859   3.766  41.016   3.201
93040W        W57860  14.549   7.640   1.825
93041W        W57861  25.578  17.131   0.760
93042W        W57862   4.274   0.499   2.356
93043W        W57863   6.232  42.323  13.129
93044W        W57864  16.333  35.959   4.064
93045W        W57865  12.400  24.463   1.942
93046W        W57866   6.491   4.627   2.273
93047W        W57867   9.316  16.111   5.174
93048W        W57868  18.075  44.661  10.747
93049W        W57869  28.145  19.788  14.943
93050W        W57870  10.547   9.501   0.359
93051W        W57871  39.606  21.646   4.387
93052W        W57872  35.523  14.373  13.355
93053W        W57873  30.525  15.138  14.250
93054W        W57874  30.489  18.686   1.986
93055W        W57875  15.857   0.763   3.834
93056W        W57876  16.349  14.834   1.884
93057W        W57877  33.158  17.772  10.783
93058W        W57878   8.210   4.372   2.186
93059W        W57879  32.940   2.257  12.423
93060W        W57880   7.362   5.953   4.178
93061W        W57881  40.045  15.242  11.568
93062W        W57882  16.072  36.049  13.422
93063W        W57883  17.052  22.572   2.811
93064W        W57884  16.054  31.554   0.907
93065W        W57885   2.312  21.821   1.127
93066W        W57886  25.560   0.788  13.306
93067W        W57887  26.611  21.659  13.514
93068W        W57888  40.881  25.029  10.519
93069W        W57889  32.450  31.443  10.713
93070W        W57890  13.895  41.437   3.888
93071W        W57891  27.470  30.657  11.355
93072W        W57892   3.227  16.630  10.719
93073W        W57893  37.926  11.647  13.262
93074W        W57894  14.355  40.247   2.158
93075W        W57895  16.490  34.094   5.557
93076W        W57896  24.260   7.765   4.130
93077W        W57897   4.704  36.257   2.723
93078W        W57898   1.957   2.481  13.385
93079W        W57899  14.151  16.431   2.418
93080W        W57900  29.744  35.542  13.938
93081W        W57901  11.827  26.160  12.545
93082W        W57902  28.616  42.412  11.625
93083W        W57903   0.785  41.156  13.897
93084W        W57904  43.074  30.527  12.127
93085W        W57905  30.877  14.012  13.413
93086W        W57906  43.280   8.788  14.490
93087W        W57907  15.023  22.034  11.481
93088W        W57908  22.505  11.826  14.501
93089W        W57909  31.893  39.408  12.629
93090W        W57910  17.233  35.881  14.339
93091W        W57911  37.477  23.302   2.033
93092W        W57912  21.652   7.685   4.831
93093W        W57913   9.358  24.690  10.804
93094W        W57914  10.771  28.590   2.293
93095W        W57915  37.973  37.081   2.025
93096W        W57916  44.528   3.895  12.914
93097W        W57917  40.478  43.988  13.390
93098W        W57918  29.202  36.384   4.274
93099W        W57919  24.096  22.674  11.507
93100W        W57920   3.739  10.286  12.859
93101W        W57921   8.252  24.022   3.685
93102W        W57922  35.311  37.040  13.354
93103W        W57923   1.925  22.972   0.223
93104W        W57924   8.802   8.949   0.420
93105W        W57925  31.529   2.273  13.990
93106W        W57926  43.317   0.412  14.811
93107W        W57927   2.206  36.609   2.410
93108W        W57928  40.361  36.133   2.217
93109W        W57929  22.847   2.828   1.217
93110W        W57930  31.860  35.072   3.140
93111W        W57931  39.244  33.461   1.277
93112W        W57932  22.799  17.197   1.716
93113W        W57933  24.805  17.733   9.840
93114W        W57934  19.585  33.753  13.905
93115W        W57935  41.907   2.702  12.618
93116W        W57936  35.599  28.021   5.119
93117W        W57937  28.967  10.708  14.570
93118W        W57938  25.685  15.232  13.348
93119W        W57939  14.845   4.196  14.887
93120W        W57940  33.352  15.312  13.587
93121W        W57941  31.154  27.317  12.504
93122W        W57942  18.343  44.923  13.164
93123W        W57943  39.227  44.470   3.667
93124W        W57944  23.934  19.350   0.417
93125W        W57945   2.040  34.064   2.865
93126W        W57946  32.548  21.597  10.511
93127W        W57947  22.500  16.102  10.874
93128W        W57948  32.137  36.620   0.978
93129W        W57949  13.619  12.739  14.295
93130W        W57950   3.407  18.218   4.634
93131W        W57951  39.829  17.179  13.369
93132W        W57952  19.804  16.205   1.683
93133W        W57953  20.136  12.804   2.257
93134W        W57954  44.511  17.641  11.034
93135W        W57955  41.008  36.666  13.842
93136W        W57956  32.095   5.606  10.349
93137W        W57957  32.125  37.422   3.695
93138W        W57958  12.932  30.584   0.875
93139W        W57959  14.226  13.731   2.881
93140W        W57960  38.390  11.626   2.283
93141W        W57961  41.941  26.268   5.068
93142W        W57962  16.834   6.757  14.990
93143W        W57963  14.518   8.476   3.102
93144W        W57964  42.522  15.875  14.968
93145W        W57965   0.811  41.789   0.297
93146W        W57966  28.092  24.245   1.470
93147W        W57967  41.953  13.872   9.747
93148W        W57968  31.963  33.224  12.501
93149W        W57969  43.023  24.708   2.114
93150W        W57970  28.478  22.444  12.379
93151W        W57971  12.603  42.036  11.000
93152W        W57972   4.985  18.149  10.677
93153W        W57973   8.165  39.164   0.938
93154W        W57974  29.217  34.975  13.380
93155W        W57975  37.746  21.775  10.557
93156W        W57976  31.235  35.755  10.372
93157W        W57977  13.125  17.563  14.849
93158W        W57978  35.366   5.842   3.731
93159W        W57979  21.767  38.834  10.261
93160W        W57980  14.833   3.026  14.228
93161W        W57981   8.027   3.659   4.081
93162W        W57982  12.600  11.624   4.097
93163W        W57983  24.032  32.031  11.738
93164W        W57984  18.177   0.178  13.568
93165W        W57985   6.169  22.803   4.138
93166W        W57986  44.352  11.809  12.954
93167W        W57987  41.994   5.352   2.640
93168W        W57988  18.419  42.582  11.148
93169W        W57989  41.434   0.473   0.853
93170W        W57990  31.421  12.782  13.888
93171W        W57991  31.166  13.339   0.662
93172W        W57992  35.581  12.342  11.158
93173W        W57993  29.302  15.248   4.639
93174W        W57994   0.717   5.640  13.203
93175W        W57995  23.541  25.309  12.128
93176W        W57996  21.664  13.723  13.035
93177W        W57997  35.659  21.400  10.174
93178W        W57998  42.348   9.919  13.910
93179W        W57999  38.894  14.038   3.720
93180W        W58000  11.685  17.262  12.530
93181W        W58001   2.738   4.291  13.937
93182W        W58002  16.740  38.948   4.292
93183W        W58003  41.959  30.881   2.691
93184W        W58004  40.636  10.860   1.800
93185W        W58005  25.405  42.322   1.001
93186W        W58006  23.040  36.258   2.669
93187W        W58007  26.412   7.057  12.050
93188W        W58008   1.305  20.709   4.506
93189W        W58009  20.865  36.552  10.427
93190W        W58010  40.772   1.800  12.019
93191W        W58011  20.160  29.218   0.866
93192W        W58012   2.269  30.100   4.123
93193W        W58013   5.339  20.714   1.710
93194W        W58014  31.229  23.805  12.991
93195W        W58015  27.264   8.833   3.205
93196W        W58016  19.999  28.465  13.438
93197W        W58017  16.773  38.340   0.185
93198W        W58018  23.146  27.719  10.475
93199W        W58019  33.314  25.357   2.215
93200W        W58020   8.451  44.092  11.917
93201W        W58021  22.274  33.604   3.698
93202W        W58022  31.968  23.079  12.098
93203W        W58023  17.459   6.814   2.839
93204W        W58024   6.203  34.598  12.308
93205W        W58025   3.916  31.609   4.240
93206W        W58026  39.134  29.025   1.061
93207W        W58027  27.115  39.824  12.589
93208W        W58028  33.274  27.776   4.135
93209W        W58029  36.569   1.755   2.945
93210W        W58030  19.931  12.852  13.963
93211W        W58031   4.744  26.049  13.469
93212W        W58032  31.917  32.438   0.563
93213W        W58033  30.930   6.926  14.838
93214W        W58034  44.010  42.984   3.206
93215W        W58035  37.622   9.593   0.468
93216W        W58036   2.276   7.112   0.919
93217W        W58037  35.624  11.823   0.412
93218W        W58038  25.973  38.525   0.849
93219W        W58039  28.420   4.485   4.505
93220W        W58040  36.805  43.588   0.773
93221W        W58041   8.403  24.774  11.195
93222W        W58042  37.279  23.265  14.805
93223W        W58043   6.809  28.752   0.773
93224W        W58044   9.899  10.679   0.762
93225W        W58045  12.619  20.949   3.173
93226W        W58046  31.398  10.938  11.452
93227W        W58047   0.524  29.760   3.319
93228W        W58048  20.609  11.353  14.770
93229W        W58049   7.959  24.125   5.096
93230W        W58050  23.511   0.278  10.736
93231W        W58051  19.612  25.498  12.034
93232W        W58052  15.225  33.954   4.495
93233W        W58053  42.926  25.511  13.655
93234W        W58054  44.232  12.301   0.342
93235W        W58055  29.415  16.176   1.904
93236W        W58056  19.767   7.132   4.114
93237W        W58057  24.463  18.414   4.183
93238W        W58058   8.549  24.161  12.684
93239W        W58059  19.703  39.745   0.182
93240W        W58060  12.321  12.211   2.307
93241W        W58061  39.103   2.416  10.187
93242W        W58062   0.518  25.712   0.542
93243W        W58063   3.296  35.594   3.074
93244W        W58064   3.153  16.032  13.793
93245W        W58065  41.276  29.154  14.765
93246W        W58066  36.483  15.123   2.769
93247W        W58067   9.814  40.970   0.838
93248W        W58068  39.454  17.681   1.963
93249W        W58069  18.931  24.077  11.694
93250W        W58070  23.596  25.128   2.999
93251W        W58071  29.888  23.271   2.287
93252W        W58072  11.121   0.580  12.593
93253W        W58073  15.423   8.093   1.753
93254W        W58074   2.438   1.260  10.794
93255W        W58075  22.065  42.326  14.215
93256W        W58076  38.486  15.542  13.067
93257W        W58077   4.879   8.280  13.082
93258W        W58078  27.533  28.528  14.431
93259W        W58079  25.824   8.778  14.820
93260W        W58080   8.396   6.713  14.928
93261W        W58081   1.614   6.561  14.922
93262W        W58082  22.747  12.896  13.369
93263W        W58083  19.480   3.824   1.064
93264W        W58084   5.299   9.879  13.403
93265W        W58085  38.761  14.416   2.759
93266W        W58086  37.335  43.693   2.310
93267W        W58087  24.016  18.677  13.894
93268W        W58088  25.177   8.795  14.000
93269W        W58089   6.178  11.471  11.995
93270W        W58090  26.134   9.378   0.819
93271W        W58091  30.890  34.977  12.113
93272W        W58092  43.022  38.962  10.667
93273W        W58093  41.826   5.447   1.597
93274W        W58094   6.365   8.441  10.795
93275W        W58095   3.887  40.711   2.737
93276W        W58096  10.901  29.752  13.344
93277W        W58097  21.946  43.436   0.823
93278W        W58098  25.107  11.379   0.123
93279W        W58099  15.333  20.993  11.616
93280W        W58100   4.876  38.451   3.202
93281W        W58101  30.925  28.479  13.066
93282W        W58102  13.903  19.943   1.629
93283W        W58103  43.498  44.415   2.370
93284W        W58104  13.626  44.691  12.089
93285W        W58105  33.650  38.847   0.545
93286W        W58106  30.236  30.470   3.615
93287W        W58107  33.581  38.039   1.741
93288W        W58108  44.469  25.721  14.074
93289W        W58109   5.118  42.718  11.372
93290W        W58110  15.890   4.497  13.920
93291W        W58111  21.135  20.254   4.910
93292W        W58112  23.665  11.664  10.643
93293W        W58113  40.091  36.513   0.489
93294W        W58114  43.448  16.340  12.109
93295W        W58115  10.891  25.397   3.936
93296W        W58116  24.040   8.868   1.618
93297W        W58117  39.729  39.030   1.847
93298W        W58118  11.291  15.389  12.119
93299W        W58119  37.156  16.059  12.783
93300W        W58120  34.670   5.128  10.790
93301W        W58121  15.909  34.429  13.839
93302W        W58122  39.523  30.531   2.843
93303W        W58123  42.622  39.569  12.674
93304W        W58124  19.178  15.295  14.018
93305W        W58125  20.642  10.007  10.543
93306W        W58126  41.906  14.638   1.862
93307W        W58127  26.584  13.353   3.294
93308W        W58128   7.910  29.180  14.292
93309W        W58129  22.526   4.193   4.992
93310W        W58130   7.709  42.901   0.865
93311W        W58131   4.941   5.309  13.082
93312W        W58132  40.034  40.343   3.365
93313W        W58133  20.748   8.548   4.638
93314W        W58134   4.860  16.585   2.829
93315W        W58135  41.977  31.244  14.479
93316W        W58136  13.482  39.858   3.669
93317W        W58137   0.692   7.029   2.456
93318W        W58138  11.812  34.108   0.069
93319W        W58139  10.686  41.308   3.757
93320W        W58140  18.857   4.465  10.205
93321W        W58141  15.213  26.720  11.089
93322W        W58142   9.754   0.225  12.547
93323W        W58143  43.900  12.190  14.471
93324W        W58144  23.608  24.565  13.025
93325W        W58145  19.647  40.846  11.611
93326W        W58146  18.038  19.167  10.657
93327W        W58147   7.954   6.898  13.292
93328W        W58148  13.780   1.384  13.535
93329W        W58149  17.191   8.750  14.003
93330W        W58150  28.020  24.093   2.839
93331W        W58151  16.290  18.515   3.637
93332W        W58152  35.429  44.737  11.738
93333W        W58153   6.782   4.424  12.844
93334W        W58154  32.416  39.439   0.435
93335W        W58155  23.168  26.153  13.912
93336W        W58156  36.623  36.570  14.418
93337W        W58157  38.608  10.792   2.706
93338W        W58158  38.956  24.092   0.280
93339W        W58159  16.350  26.180  12.972
93340W        W58160  31.066   1.050   2.151
93341W        W58161   7.772  22.668   0.956
93342W        W58162  34.031  17.661  11.957
93343W        W58163  16.106   8.828   1.362
93344W        W58164  13.158  17.609  12.549
93345W        W58165  26.430  41.109  10.763
93346W        W58166  15.180  24.439   1.977
93347W        W58167  43.333  31.018   2.261
93348W        W58168   1.857   0.787   0.445
93349W        W58169  37.234  12.191   2.148
93350W        W58170   1.212  41.255   0.779
93351W        W58171  41.154   8.651  13.607
93352W        W58172  44.524  42.345   3.520
93353W        W58173  15.764  25.052   3.827
93354W        W58174  23.110  43.206   2.228
93355W        W58175   3.352   7.601   0.267
93356W        W58176   7.217  38.452  14.220
93357W        W58177  17.589  10.996  14.248
93358W        W58178  37.153   8.827  12.140
93359W        W58179  33.024  31.097  14.400
93360W        W58180  37.914  21.069  13.077
93361W        W58181  17.135  17.474  11.589
93362W        W58182  40.324  22.392  10.425
93363W        W58183  22.768  14.023   1.775
93364W        W58184  20.557   1.813  13.523
93365W        W58185  44.010  36.835   0.292
93366W        W58186  43.744  33.187  11.282
93367W        W58187  24.705  22.538   0.249
93368W        W58188  26.913  43.343  13.038
93369W        W58189   0.937  13.252   3.163
93370W        W58190   7.851  33.899   4.347
93371W        W58191  15.899  43.846  12.893
93372W        W58192   0.887   2.486   4.622
93373W        W58193  11.403   8.922  13.540
93374W        W58194  31.066   9.286  10.943
93375W        W58195  23.223  11.860  11.993
93376W        W58196   9.212  14.633  13.533
93377W        W58197   5.423  26.941  12.719
93378W        W58198  32.284   8.863  13.049
93379W        W58199  36.830   3.192   1.343
93380W        W58200  16.225   2.286   0.389
93381W        W58201  26.803  16.482   2.914
93382W        W58202  38.892  38.493   4.853
93383W        W58203  17.069  43.051   4.563
93384W        W58204  43.600   8.833   2.687
93385W        W58205  21.648  18.259  12.759
93386W        W58206  11.746  38.734  13.863
93387W        W58207  43.922  39.510  12.943
93388W        W58208  31.403  22.073  12.945
93389W        W58209  19.915   2.460   3.651
93390W        W58210  24.043  38.861   4.597
93391W        W58211  12.632  17.588   1.312
93392W        W58212  39.903  27.434   2.204
93393W        W58213  27.142  20.719  10.607
93394W        W58214  26.022  35.113   0.339
93395W        W58215   5.380  18.997   3.167
93396W        W58216  18.107  44.026  12.551
93397W        W58217  43.345  32.450   3.730
93398W        W58218  12.546  37.941  12.673
93399W        W58219  40.348  31.349  14.428
93400W        W58220   1.290   7.730   2.886
93401W        W58221  16.499   9.343  14.913
93402W        W58222  41.505   4.040   2.132
93403W        W58223  13.275  43.658  13.309
93404W        W58224   4.807  30.129   4.161
93405W        W58225   3.215   9.825  10.616
93406W        W58226  42.563  31.066  13.891
93407W        W58227   1.575  25.577   2.511
93408W        W58228  39.950  31.896  13.804
93409W        W58229  25.729  25.653   0.758
93410W        W58230  33.455  42.208  10.949
93411W        W58231  27.911   5.416  11.195
93412W        W58232  15.620  16.065   3.985
93413W        W58233  27.636  22.653   2.195
93414W        W58234  36.643   5.840  13.890
93415W        W58235  28.745  20.983   0.245
93416W        W58236  34.839   8.202   2.895
93417W        W58237  36.925  12.395  11.100
93418W        W58238  36.711  14.132  10.212
93419W        W58239  27.736   6.892   2.205
93420W        W58240  21.095  42.336  13.017
93421W        W58241  44.462  44.674   3.300
93422W        W58242  15.002  31.961   1.376
93423W        W58243  22.731  25.389  14.845
93424W        W58244  33.362   7.416  14.825
93425W        W58245  16.610  20.662  10.802
93426W        W58246  15.358  29.535   5.008
93427W        W58247   2.412  15.512   1.609
93428W        W58248  27.419  38.730  11.136
93429W        W58249  44.960   5.425  11.005
93430W        W58250  21.340  14.770  11.160
93431W        W58251   1.427  21.790  12.382
93432W        W58252   3.678  16.648   3.617
93433W        W58253  25.466  44.665  12.064
93434W        W58254  23.966  35.869   4.923
93435W        W58255  30.004   5.647  12.909
93436W        W58256   6.325  40.606  12.542
93437W        W58257  28.340  44.391  13.433
93438W        W58258  21.122  30.650  12.911
93439W        W58259  37.844   5.970   3.222
93440W        W58260   7.111  15.564   4.109
93441W        W58261  37.571   9.100  10.549
93442W        W58262  17.105  16.786  12.946
93443W        W58263  37.000  40.101  11.578
93444W        W58264  30.954  27.489   1.934
93445W        W58265  18.261  30.610   0.812
93446W        W58266  35.843  35.924  14.186
93447W        W58267  37.902  14.145  13.571
93448W        W58268  36.864  13.099  11.566
93449W        W58269  23.197  43.819   3.255
93450W        W58270  22.579   0.456  12.556
93451W        W58271   6.240   8.857   4.714
93452W        W58272  18.079  40.789   0.231
93453W        W58273   5.411  27.714   3.800
93454W        W58274  29.146  29.901   1.653
93455W        W58275  17.592  40.695   0.738
93456W        W58276   3.300  31.231  14.265
93457W        W58277  31.540   2.438   2.044
93458W        W58278  41.985   4.887   1.200
93459W        W58279  38.278  11.275  13.395
93460W        W58280  29.471  25.590   3.971
93461W        W58281  18.037  39.173   4.989
93462W        W58282   1.434  26.188  12.903
93463W        W58283  20.990   9.660  14.431
93464W        W58284  12.233   6.387  10.720
93465W        W58285  41.427  33.617   1.779
93466W        W58286  43.757  42.893   2.248
93467W        W58287   9.450  24.682   0.833
93468W        W58288  33.151  26.401  12.504
93469W        W58289  32.651   2.328  10.965
93470W        W58290  34.689  28.636  10.675
93471W        W58291  25.990   5.265  12.934
93472W        W58292   9.626  25.531   2.316
93473W        W58293  39.001  41.184   2.682
93474W        W58294  17.056  27.455  14.977
93475W        W58295  41.043  32.922   0.915
93476W        W58296   0.686  37.480   3.701
93477W        W58297  17.171  12.843   3.986
93478W        W58298  41.971  26.619  13.511
93479W        W58299  34.733  16.716   1.728
93480W        W58300  14.574  12.712  12.145
93481W        W58301  14.849  12.453  14.966
93482W        W58302  44.268   7.663  14.424
93483W        W58303  41.051  21.657  11.045
93484W        W58304  32.479  13.184   4.486
93485W        W58305  14.315   3.308   3.652
93486W        W58306  44.974  20.418   2.736
93487W        W58307  39.945   2.450   2.786
93488W        W58308  34.052   5.352  14.714
93489W        W58309  39.071  32.915  14.508
93490W        W58310  44.012  24.201   3.268
93491W        W58311  37.639   7.631  14.812
93492W        W58312  44.510  24.717   4.291
93493W        W58313  29.076  21.806  12.136
93494W        W58314  44.347  13.303  11.299
93495W        W58315  34.605  18.139   1.390
93496W        W58316  42.442  25.713   2.807
93497W        W58317   4.273  12.688   2.420
93498W        W58318  29.569   9.624   3.420
93499W        W58319   3.348  37.969  11.025
93500W        W58320  22.141  43.931   3.285
93501W        W58321   3.259  19.758   1.241
93502W        W58322  10.168  27.659  14.042
93503W        W58323  41.240  22.530   2.203
93504W        W58324   9.143  35.475  13.993
93505W        W58325  27.010   5.721  10.774
93506W        W58326  39.411  25.747  10.665
93507W        W58327  41.462  40.721  10.576
93508W        W58328  31.085   6.277   4.430
93509W        W58329  36.133  26.622  11.298
93510W        W58330  16.090   9.818   4.645
93511W        W58331  34.973  24.847  11.420
93512W        W58332  19.185  12.319  14.533
93513W        W58333  27.953  43.480  13.098
93514W        W58334   0.304  30.075   2.591
93515W        W58335  15.121  36.669  10.799
93516W        W58336  40.549  24.680   1.909
93517W        W58337  21.681  32.955   3.073
93518W        W58338  42.868   5.840   4.030
93519W        W58339  19.626  32.826   0.255
93520W        W58340   9.147  14.895   3.816
93521W        W58341  32.582  35.530  12.286
93522W        W58342  18.535  27.287   3.882
93523W        W58343   9.712  29.075   0.922
93524W        W58344  26.479  40.383  14.190
93525W        W58345  38.771   5.412  11.709
93526W        W58346   0.411  30.727   4.852
93527W        W58347  12.644  20.798   0.284
93528W        W58348   2.484  26.673  12.386
93529W        W58349   2.611  14.350  11.172
93530W        W58350  39.348   5.403   3.076
93531W        W58351  26.921  32.886   4.431
93532W        W58352  38.706  25.935  11.423
93533W        W58353  39.513   0.244  12.914
93534W        W58354   9.661  35.711   0.389
93535W        W58355  11.743  39.838   4.539
93536W        W58356  12.846  32.680   2.386
93537W        W58357  16.644  32.109   0.054
93538W        W58358   2.160   4.659   0.845
93539W        W58359  26.842  19.039   1.420
93540W        W58360  16.796  39.233  11.919
93541W        W58361  14.285  10.448  12.865
93542W        W58362  30.673  18.301  13.456
93543W        W58363  17.741  26.511   1.361
93544W        W58364   4.964  18.166   3.122
93545W        W58365   5.370  39.479   2.398
93546W        W58366  44.800   4.251   4.257
93547W        W58367  20.237   3.086  14.703
93548W        W58368  16.636  44.463  12.785
93549W        W58369  11.677  41.965  11.188
93550W        W58370  38.652  10.169   2.090
93551W        W58371  32.869  28.693  12.946
93552W        W58372   6.142  17.674  10.442
93553W        W58373   9.842  44.067   1.778
93554W        W58374  32.003  27.032   4.189
93555W        W58375  40.406  43.570   3.252
93556W        W58376  36.881   6.792  12.407
93557W        W58377   2.346  33.109   3.203
93558W        W58378  21.999  32.500  10.454
93559W        W58379   5.916   6.426  12.505
93560W        W58380   7.380  38.394  12.907
93561W        W58381  37.840  17.045   3.182
93562W        W58382  27.656  18.021  12.456
93563W        W58383  35.076  22.179  11.066
93564W        W58384   6.256  25.443  13.187
93565W        W58385  39.451   1.024   0.287
93566W        W58386   5.961  20.610   2.182
93567W        W58387   9.239  32.543   2.775
93568W        W58388  16.111  32.024   3.599
93569W        W58389  38.291  29.435  12.749
93570W        W58390  36.442  13.870  14.317
93571W        W58391   1.813  17.302  11.975
93572W        W58392   4.271  21.883  11.222
93573W        W58393   0.445  33.521  11.624
93574W        W58394  36.402   2.190  12.856
93575W        W58395  37.795  33.282  14.273
93576W        W58396   4.753   5.824   1.658
93577W        W58397   3.431  27.458  14.075
93578W        W58398  19.005   5.219   0.381
93579W        W58399   8.455   0.602  12.954
93580W        W58400  26.558  22.858   2.778
93581W        W58401   2.646  34.736  14.848
93582W        W58402  37.283  34.559  11.966
93583W        W58403  34.632  14.317   3.032
93584W        W58404  23.611   9.804   2.639
93585W        W58405  29.188  21.505   3.192
93586W        W58406  42.709  41.023  11.202
93587W        W58407  10.436  20.530  12.327
93588W        W58408  40.198  22.794   0.761
93589W        W58409   5.809  16.347  10.743
93590W        W58410  13.900  19.688  10.595
93591W        W58411  28.605  22.308   4.251
93592W        W58412   3.670  38.020   4.253
93593W        W58413  18.588  11.607   0.424
93594W        W58414  21.017  28.721  13.859
93595W        W58415  35.387  38.997  14.773
93596W        W58416  29.933   5.729  10.812
93597W        W58417  15.146  36.580  11.674
93598W        W58418  16.768  29.930  12.772
93599W        W58419  17.286   0.781  13.565
93600W        W58420  10.681   6.897   3.996
93601W        W58421   8.141  41.755  13.610
93602W        W58422  42.950  25.003  11.114
93603W        W58423  26.226  16.701  13.985
93604W        W58424  33.666  14.112  14.349
93605W        W58425   4.122  32.963  13.441
93606W        W58426  10.530  39.082   1.824
93607W        W58427  37.574  14.306  12.111
93608W        W58428  34.374  22.218   2.289
93609W        W58429  29.079  15.051   4.194
93610W        W58430  32.420  38.334  12.649
93611W        W58431   5.848  32.036  12.381
93612W        W58432  10.324  13.634   4.547
93613W        W58433   3.248  25.489  12.385
93614W        W58434  43.390   4.796   2.848
93615W        W58435  32.049  15.477   4.575
93616W        W58436  16.173  37.596   0.969
93617W        W58437  24.416  14.667   0.822
93618W        W58438   1.033  24.690  12.368
93619W        W58439  28.380  39.202  11.588
93620W        W58440   4.371  43.339  12.486
93621W        W58441   5.875  37.580  12.203
93622W        W58442  27.597  22.591  12.081
93623W        W58443  42.852  24.273  10.551
93624W        W58444   7.094  43.519   0.102
93625W        W58445  25.204  23.400  11.820
93626W        W58446   7.813  30.091   2.750
93627W        W58447  17.976  40.384   4.156
93628W        W58448  12.581  18.214  13.989
93629W        W58449  43.389  15.377  10.310
93630W        W58450  13.342  44.816   4.056
93631W        W58451  41.851   6.756   0.840
93632W        W58452  30.129  21.724  13.329
93633W        W58453  41.450  37.945  13.600
93634W        W58454  35.905  10.780  10.066
93635W        W58455  32.020  17.505   3.348
93636W        W58456  27.693  31.222   4.669
93637W        W58457  29.042  41.175  12.295
93638W        W58458  11.417   2.774   2.291
93639W        W58459  26.527  27.538   4.455
93640W        W58460  11.601  14.091   2.362
93641W        W58461   8.962   4.302  11.112
93642W        W58462  32.388  12.318   0.944
93643W        W58463   9.500  25.843   2.725
93644W        W58464  34.935  33.945   0.723
93645W        W58465  44.679  26.205   3.716
93646W        W58466  44.469  20.069  12.748
93647W        W58467   0.719  24.670  10.670
93648W        W58468  19.927  27.014  12.906
93649W        W58469  37.376   8.841   2.161
93650W        W58470  35.575  17.644   2.736
93651W        W58471  33.971   5.736  12.526
93652W        W58472  30.211  21.203   3.771
93653W        W58473  18.060  39.885  10.645
93654W        W58474   2.434  28.273  10.735
93655W        W58475  43.533   1.764  11.479
93656W        W58476  27.456  29.006   3.740
93657W        W58477  11.445  38.955  10.654
93658W        W58478  20.962  30.208  14.684
93659W        W58479  32.136  25.692  14.797
93660W        W58480   9.306   8.332   2.015
93661W        W58481  19.278  30.839   2.277
93662W        W58482  21.757  30.054  13.094
93663W        W58483  40.038   6.006  11.970
93664W        W58484  21.295  36.301   2.728
93665W        W58485  42.808  30.542  13.483
93666W        W58486  17.706  41.398   2.710
93667W        W58487  21.450  28.451   4.192
93668W        W58488  23.616  36.973   2.642
93669W        W58489  32.665  41.970   3.669
93670W        W58490  10.531  23.976  10.479
93671W        W58491  35.840   7.879  12.549
93672W        W58492  15.075  29.218  12.945
93673W        W58493   6.291  41.002  12.913
93674W        W58494  33.960   0.779  12.774
93675W        W58495  14.320  23.884   4.957
93676W        W58496  19.843  41.303   4.998
93677W        W58497  18.711   7.017   0.437
93678W        W58498  33.127   9.133   4.554
93679W        W58499   2.488  15.694   3.607
93680W        W58500   8.188   8.307   3.615
93681W        W58501  12.581  13.637   2.830
93682W        W58502  33.374   0.490  12.866
93683W        W58503  23.431  23.148   1.766
93684W        W58504  41.371  30.483  14.459
93685W        W58505   0.546  38.349   1.860
93686W        W58506  25.258   9.296  10.481
93687W        W58507   9.369  38.998  11.618
93688W        W58508  25.227  40.481  11.674
93689W        W58509   6.255  22.431   0.435
93690W        W58510  22.124  16.704  13.562
93691W        W58511  41.539  20.015  13.863
93692W        W58512  21.486   0.841   0.978
93693W        W58513  37.506   3.289  11.703
93694W        W58514  34.405  27.837  13.408
93695W        W58515  16.373   2.775  13.759
93696W        W58516  17.142  32.021   0.192
93697W        W58517  42.007  27.254   3.133
93698W        W58518  27.749  20.718  14.438
93699W        W58519  29.041  31.062   2.653
93700W        W58520  16.746  16.241   0.876
93701W        W58521  19.204  26.976   0.866
93702W        W58522  21.696  26.088   3.348
93703W        W58523   3.518   4.020   0.454
93704W        W58524  20.882  21.564  11.126
93705W        W58525  32.059   0.821   2.112
93706W        W58526  16.339  32.135  14.104
93707W        W58527  25.518   7.422   0.374
93708W        W58528  22.224  10.586  14.744
93709W        W58529  30.355  31.371   1.779
93710W        W58530  27.746  14.750  12.119
93711W        W58531  39.479  22.043   1.761
93712W        W58532  41.900  36.645   0.449
93713W        W58533  17.908  28.811  12.900
93714W        W58534   8.625  30.032   4.144
93715W        W58535   7.953  19.570  11.601
93716W        W58536  14.022  42.825  10.297
93717W        W58537  12.611  42.422  11.340
93718W        W58538   2.309  25.960   4.478
93719W        W58539  44.461  38.908  12.302
93720W        W58540  33.443  13.190   2.216
93721W        W58541  14.297  23.916   2.144
93722W        W58542  11.112   2.154   3.215
93723W        W58543  27.015   3.376   4.294
93724W        W58544  23.147  37.641  11.446
93725W        W58545  31.178  40.744  12.280
93726W        W58546   8.737   6.113   4.912
93727W        W58547  15.047  10.637   2.976
93728W        W58548  43.508  16.853  13.013
93729W        W58549  30.981  29.440   0.402
93730W        W58550  25.203  13.261  14.022
93731W        W58551   8.870  23.760   2.216
93732W        W58552  42.733   5.795  10.902
93733W        W58553  33.507  23.482  12.756
93734W        W58554  41.327  12.332   0.757
93735W        W58555  27.116  27.700  11.117
93736W        W58556   2.349  15.361  14.879
93737W        W58557  35.523   7.865   1.411
93738W        W58558  16.767  10.686   9.998
93739W        W58559  13.305   8.926  14.508
93740W        W58560  28.095  28.111  11.171
93741W        W58561  41.529  21.252   1.316
93742W        W58562  39.981  43.176   0.536
93743W        W58563   4.175  27.448  12.580
93744W        W58564  23.874  35.890  12.799
93745W        W58565   3.423   1.654  13.984
93746W        W58566  30.568   7.843   1.746
93747W        W58567  18.975  30.543   4.142
93748W        W58568   4.757  29.685   3.241
93749W        W58569  13.152  15.597  12.090
93750W        W58570  29.081  14.953   2.161
93751W        W58571   9.070  39.954   0.844
93752W        W58572   9.716  10.864  14.253
93753W        W58573  39.365   4.076   2.197
93754W        W58574  41.801   2.340   2.891
93755W        W58575  39.169  34.463  11.678
93756W        W58576   2.513  12.652  11.632
93757W        W58577  35.429   0.266  10.994
93758W        W58578  23.194  43.927   0.898
93759W        W58579  13.518   8.270  13.987
93760W        W58580  10.693  43.820   1.248
93761W        W58581  15.471  11.865   1.099
93762W        W58582  11.311  30.986   1.443
93763W        W58583  25.982   3.727  13.427
93764W        W58584  19.454   0.890  14.886
93765W        W58585  35.934  26.214   0.059
93766W        W58586  13.269   3.758  10.672
93767W        W58587  12.368  25.193   2.287
93768W        W58588  19.263  21.174  14.499
93769W        W58589  18.076  41.836  13.767
93770W        W58590  28.015  16.338  13.494
93771W        W58591   8.297   7.973   0.753
93772W        W58592  18.372  15.589  11.609
93773W        W58593  32.675  35.939   4.621
93774W        W58594  11.138  39.603   1.385
93775W        W58595  34.535  14.172   2.558
93776W        W58596  17.513  38.224   0.497
93777W        W58597  40.800  19.587   3.630
93778W        W58598  20.705  41.488  13.556
93779W        W58599  11.050  29.562   1.452
93780W        W58600   0.654  31.555   1.252
93781W        W58601   2.726  35.225  12.970
93782W        W58602  15.775   4.301  10.928
93783W        W58603   0.908  42.631  12.625
93784W        W58604  13.732  10.060   0.375
93785W        W58605  13.062   5.700   1.267
93786W        W58606  35.495  28.421   0.732
93787W        W58607   2.211  37.694   3.280
93788W        W58608   5.401  14.674  11.566
93789W        W58609  34.732  26.664   3.852
93790W        W58610  33.012   5.180   0.007
93791W        W58611  36.365  42.797  11.193
93792W        W58612  36.872   0.836   2.452
93793W        W58613  24.289  11.331   4.615
93794W        W58614  13.502   9.667  13.117
93795W        W58615  39.540   5.118   0.325
93796W        W58616  27.147  14.688   4.351
93797W        W58617  40.849   0.662  13.012
93798W        W58618  43.947  38.508  10.699
93799W        W58619  27.210  32.560  14.337
93800W        W58620  19.126  36.585  13.096
93801W        W58621  31.511  21.555   3.125
93802W        W58622   9.829   2.446   1.284
93803W        W58623  31.621   0.673  13.772
93804W        W58624  28.449  29.525  12.093
93805W        W58625  11.284  23.775   4.529
93806W        W58626  39.587  29.226   3.323
93807W        W58627  20.030  41.531  12.075
93808W        W58628  14.188  38.586  12.907
93809W        W58629   5.709  26.928   0.368
93810W        W58630  23.243   8.900   2.084
93811W        W58631  25.067  23.470   3.994
93812W        W58632   2.787  29.231   0.183
93813W        W58633  12.380  27.665   9.843
93814W        W58634  10.806  26.151  12.372
93815W        W58635  33.872  39.867  14.810
93816W        W58636  41.403  35.119   0.367
93817W        W58637   7.971  14.958  10.681
93818W        W58638  26.835  26.323  10.265
93819W        W58639  37.742  29.000  14.082
93820W        W58640  44.821  32.370  12.312
93821W        W58641  24.606  41.735   1.487
93822W        W58642  14.965  24.168  10.813
93823W        W58643  25.174  17.038  13.951
93824W        W58644  39.825  27.428  11.005
93825W        W58645  25.639   4.463   0.906
93826W        W58646   5.143  29.851  11.536
93827W        W58647  42.114  28.628  13.818
93828W        W58648  42.743   9.286   1.297
93829W        W58649  28.400  36.016   0.436
93830W        W58650  44.225  24.136  11.962
93831W        W58651  37.924  22.995   0.912
93832W        W58652  39.350  15.345   1.380
93833W        W58653  11.724  30.087  13.463
93834W        W58654  39.319   7.151   3.763
93835W        W58655  30.063  43.986   1.723
93836W        W58656  11.107  41.338   1.636
93837W        W58657  19.557  27.233   2.150
93838W        W58658   4.793  10.207   5.142
93839W        W58659  20.494  23.676   2.319
93840W        W58660   1.921  14.884   2.699
93841W        W58661  39.674  24.307  12.546
93842W        W58662   5.535  41.314  12.559
93843W        W58663  37.981  38.447   3.802
93844W        W58664  11.268  32.832  10.592
93845W        W58665  24.581  36.413   3.755
93846W        W58666  16.101   8.441  11.638
93847W        W58667  11.094  14.501   3.298
93848W        W58668  43.333  10.460   1.299
93849W        W58669  18.138  29.171  12.580
93850W        W58670   7.365  28.898   3.809
93851W        W58671  24.433   4.488  14.042
93852W        W58672   7.833  25.940  12.406
93853W        W58673  20.772  32.438   3.146
93854W        W58674  42.566   4.748  11.800
93855W        W58675  15.228  17.013  11.143
93856W        W58676  42.936  10.349   4.731
93857W        W58677   6.514  38.360   2.400
93858W        W58678  20.086  14.620   3.860
93859W        W58679  18.752   5.354  11.219
93860W        W58680  32.326  13.389   4.028
93861W        W58681  12.870   1.453   3.378
93862W        W58682  21.259  41.579   1.892
93863W        W58683  39.255  13.185  13.165
93864W        W58684  11.891  32.338  12.791
93865W        W58685  36.972  15.124   2.956
93866W        W58686  14.297   4.730   3.430
93867W        W58687  41.265  12.929  14.019
93868W        W58688   2.040  33.061   1.331
93869W        W58689  29.932  38.285  12.568
93870W        W58690  42.850  40.345   4.255
93871W        W58691  10.628  28.813   0.410
93872W        W58692  38.960  24.145   3.657
93873W        W58693  24.003   7.785  12.772
93874W        W58694  41.843  43.209  11.526
93875W        W58695  11.043  28.075   1.229
93876W        W58696  32.016  11.967  13.679
93877W        W58697  34.033  28.220  12.475
93878W        W58698   8.277  33.364  11.155
93879W        W58699  40.385  43.376   4.302
93880W        W58700  12.806   3.212  13.023
93881W        W58701  24.788   1.347  11.188
93882W        W58702   6.254   4.567  12.924
93883W        W58703   7.153   5.027  12.973
93884W        W58704   0.774   3.412  10.625
93885W        W58705  26.076   6.294   1.678
93886W        W58706  41.939   9.145   0.693
93887W        W58707  24.828  11.744   2.140
93888W        W58708  25.537  16.114  14.470
93889W        W58709  37.432  38.034  13.999
93890W        W58710   5.532  33.145  12.555
93891W        W58711  11.838  12.171   4.456
93892W        W58712  18.248  38.077   1.480
93893W        W58713  21.245   4.375   4.824
93894W        W58714  23.191  21.545  11.521
93895W        W58715  17.196  14.228  11.672
93896W        W58716  14.939  12.580   2.549
93897W        W58717  40.562  40.319   3.191
93898W        W58718  15.217   5.750   3.189
93899W        W58719  15.296  18.774   3.260
93900W        W58720  25.620  28.217  14.522
93901W        W58721  38.872  39.918   0.730
93902W        W58722  15.816  31.433   1.362
93903W        W58723  14.724  14.101   1.744
93904W        W58724   9.901  38.979   2.799
93905W        W58725   6.197   3.526  14.884
93906W        W58726   7.152   7.907  13.940
93907W        W58727  36.101  15.116   3.124
93908W        W58728  44.257  33.954  14.061
93909W        W58729  14.104  35.704   1.897
93910W        W58730   3.195   1.179   4.293
93911W        W58731  34.865  22.762  13.052
93912W        W58732  17.232  18.488  14.122
93913W        W58733  15.243   8.899  13.013
93914W        W58734  25.337  21.256   1.711
93915W        W58735  21.848  20.491  13.093
93916W        W58736  11.050  33.747   2.416
93917W        W58737  10.821   1.247  12.214
93918W        W58738  37.031  36.727   3.319
93919W        W58739   2.378  40.691  14.325
93920W        W58740  18.870  36.048   2.000
93921W        W58741  39.142  30.916  11.985
93922W        W58742  11.305  32.150  12.093
93923W        W58743   7.103  21.703   5.721
93924W        W58744  18.339  27.002   0.797
93925W        W58745  31.904  17.347   0.344
93926W        W58746  44.534   3.251   3.990
93927W        W58747  22.493  19.640   4.545
93928W        W58748  30.732  35.152   1.777
93929W        W58749  43.334  24.197   2.308
93930W        W58750  16.211  12.311   2.110
93931W        W58751   0.014   6.146   0.931
93932W        W58752  24.632  35.624  12.375
93933W        W58753  40.460  12.828   1.712
93934W        W58754   6.954  16.727  11.360
93935W        W58755  33.907  28.665   2.054
93936W        W58756  11.394  16.047  12.865
93937W        W58757  31.417   9.918  14.074
93938W        W58758   9.748  32.440   0.847
93939W        W58759  42.159  16.647  10.735
93940W        W58760  22.084  11.820  11.088
93941W        W58761  14.301   9.414   0.980
93942W        W58762  17.506  13.613   1.566
93943W        W58763  10.473  42.983  13.144
93944W        W58764  40.979  12.060   1.124
93945W        W58765   6.429  12.016  12.736
93946W        W58766  36.870  39.270   3.035
93947W        W58767  21.517  44.685   2.817
93948W        W58768  23.248   5.791  11.285
93949W        W58769  34.888  42.530   4.652
93950W        W58770   1.209  30.090   4.031
93951W        W58771  28.820  41.796  11.077
93952W        W58772  44.492   9.289   0.563
93953W        W58773   5.089  39.712  13.291
93954W        W58774  29.141   8.895   1.826
93955W        W58775  25.890  37.089  12.054
93956W        W58776  32.419  19.486   0.292
93957W        W58777  19.620  20.745  14.424
93958W        W58778   8.882  27.622  14.498
93959W        W58779  38.146  40.132  14.428
93960W        W58780  10.140  29.183  11.626
93961W        W58781  27.668  39.172   1.277
93962W        W58782  33.746  32.958   0.682
93963W        W58783  42.486  21.605   2.394
93964W        W58784  17.515   7.987   2.820
93965W        W58785  25.241   6.493   0.315
93966W        W58786  36.181  16.225   2.618
93967W        W58787  35.839  15.324  13.095
93968W        W58788  18.964  43.014   4.652
93969W        W58789   5.403  22.020   1.323
93970W        W58790  13.532  20.260  14.377
93971W        W58791  20.066   2.853  14.286
93972W        W58792  25.476  11.259   1.725
93973W        W58793  43.223  19.409  11.029
93974W        W58794  13.255  37.124  11.163
93975W        W58795   9.850  29.415  14.817
93976W        W58796  27.931  12.736   2.761
93977W        W58797  33.597  18.473  13.346
93978W        W58798  38.427  38.125   3.790
93979W        W58799  44.409   0.810  12.987
93980W        W58800  42.559  23.830  13.336
93981W        W58801  39.595  18.560   0.151
93982W        W58802  37.877   5.673   2.796
93983W        W58803  15.594  12.174   1.940
93984W        W58804   1.828  27.691  11.165
93985W        W58805  30.440   0.496   3.035
93986W        W58806  13.877  13.887   2.108
93987W        W58807  40.832   7.371  11.385
93988W        W58808  35.014  26.062  12.923
93989W        W58809  10.503  26.517   1.364
93990W        W58810   5.937  38.897  13.907
93991W        W58811  11.864  17.766   3.347
93992W        W58812  12.161  16.859  14.501
93993W        W58813  10.723  32.546   3.927
93994W        W58814   0.517  35.972  10.553
93995W        W58815  26.221  41.803  14.401
93996W        W58816  25.648  34.166  11.888
93997W        W58817   6.711  34.935  13.556
93998W        W58818  42.128   2.263  14.510
93999W        W58819  16.014   4.652   4.124
94000W        W58820  14.319   7.428  13.964
94001W        W58821  41.658  19.979  10.734
94002W        W58822  11.867  41.843   9.871
94003W        W58823   0.094  33.161   1.221
94004W        W58824  36.651  20.597   1.789
94005W        W58825  10.637  19.680  10.406
94006W        W58826  12.253  40.133  14.971
94007W        W58827   0.565   8.234   4.515
94008W        W58828  18.330  38.085   0.148
94009W        W58829   7.502   5.530  11.491
94010W        W58830  30.607  42.901   4.706
94011W        W58831  19.377   0.722   2.644
94012W        W58832   9.849   1.394   3.302
94013W        W58833  22.029  42.562  14.941
94014W        W58834  40.977  13.842   3.109
94015W        W58835  41.831  14.215   5.194
94016W        W58836   9.891  17.163   3.526
94017W        W58837   0.433  32.577   4.420
94018W        W58838  10.179  18.755  11.711
94019W        W58839  11.104  15.240  11.647
94020W        W58840  44.762  17.674  13.007
94021W        W58841  43.732   5.392   0.186
94022W        W58842  24.225   9.228   3.915
94023W        W58843   0.352  25.010   1.369
94024W        W58844  16.103  44.119   4.863
94025W        W58845  14.009  35.373  12.632
94026W        W58846  28.832  26.422  11.992
94027W        W58847  17.035  15.033  12.508
94028W        W58848  24.083  14.761   2.652
94029W        W58849  16.760  20.048   1.629
94030W        W58850  43.941  15.412  12.908
94031W        W58851   7.340  15.091   4.479
94032W        W58852   9.188  20.743  13.297
94033W        W58853  10.571  39.870   4.614
94034W        W58854  21.491  37.461   3.040
94035W        W58855  40.131  16.138   3.149
94036W        W58856   0.387   4.342   1.268
94037W        W58857   2.737  32.149  13.154
94038W        W58858   8.409  18.767   2.504
94039W        W58859  25.684   4.182   4.108
94040W        W58860  20.668  11.240   4.954
94041W        W58861  32.620  16.224   1.739
94042W        W58862  41.340  11.749  11.349
94043W        W58863  39.409  36.920  14.411
94044W        W58864  27.286   8.318   3.079
94045W        W58865   7.444  39.744   0.176
94046W        W58866  32.565  43.981  11.574
94047W        W58867   3.841  38.342  12.764
94048W        W58868  18.638  32.127   2.271
94049W        W58869  18.996  35.205   3.928
94050W        W58870  43.140  43.471   1.838
94051W        W58871   9.724  12.246   4.880
94052W        W58872   1.428  23.097   3.094
94053W        W58873   6.475  19.736   4.217
94054W        W58874  38.982  20.206  11.647
94055W        W58875  36.279  40.985   1.419
94056W        W58876  32.760  43.873  13.441
94057W        W58877  33.900  29.651  14.379
94058W        W58878  39.933  14.825   1.316
94059W        W58879  18.358  28.112  11.928
94060W        W58880  37.282  15.061   0.956
94061W        W58881  27.954   6.945  12.364
94062W        W58882  14.655  30.601   3.105
94063W        W58883   7.763  13.529   1.264
94064W        W58884  17.142  22.254   0.023
94065W        W58885  39.953   8.354  11.981
94066W        W58886  44.835   8.362   4.616
94067W        W58887  15.244  16.721   0.339
94068W        W58888  35.558  24.008   5.424
94069W        W58889   7.196  37.848   3.600
94070W        W58890  25.682  29.739   1.945
94071W        W58891  33.588  39.513   1.791
94072W        W58892  32.089  20.440   4.465
94073W        W58893  35.066   0.583  12.868
94074W        W58894  23.359  41.819   4.128
94075W        W58895  17.492  33.359   0.911
94076W        W58896  21.221  29.398  12.593
94077W        W58897   3.250  21.168  12.724
94078W        W58898   2.536   0.769   2.855
94079W        W58899  33.518  22.620  12.515
94080W        W58900  13.194  44.262  10.388
94081W        W58901   4.627  44.893  14.734
94082W        W58902  33.595  10.236   3.156
94083W        W58903  42.817  19.491   0.869
94084W        W58904   3.760  23.922   0.111
94085W        W58905  40.314  15.891  10.728
94086W        W58906  15.227  39.412  14.168
94087W        W58907  21.522  34.056   2.028
94088W        W58908  37.612  29.555   4.061
94089W        W58909  12.126  40.749  14.302
94090W        W58910  15.316  12.584   2.144
94091W        W58911  43.919   8.349   3.645
94092W        W58912  17.663  43.897  14.539
94093W        W58913  20.859  34.036   0.076
94094W        W58914  15.224   7.412   0.058
94095W        W58915  37.906  28.835   2.279
94096W        W58916  19.426  22.502  14.394
94097W        W58917  31.192  19.104  12.489
94098W        W58918   1.079  12.229   0.758
94099W        W58919  13.980   2.656  11.130
94100W        W58920  18.622   9.353   1.813
94101W        W58921  21.193  36.037  11.025
94102W        W58922  39.250   6.866  11.269
94103W        W58923  32.153  13.131   1.680
94104W        W58924  11.890  19.195   4.259
94105W        W58925  27.425  26.862  13.579
94106W        W58926  23.079  26.158  10.736
94107W        W58927  24.540  35.569  10.385
94108W        W58928  26.085  25.691  12.789
94109W        W58929   1.164  18.271   2.351
94110W        W58930  14.885  25.264  12.186
94111W        W58931  14.984   1.627  11.613
94112W        W58932  44.813  38.749   2.359
94113W        W58933  36.281  19.536   2.783
94114W        W58934   8.192  34.860   4.571
94115W        W58935  24.394  35.858   0.856
94116W        W58936  40.901  22.502  14.305
94117W        W58937   2.419   8.030  13.937
94118W        W58938  27.131  21.690   1.187
94119W        W58939  13.438  30.655   0.802
94120W        W58940  23.709  10.692  13.763
94121W        W58941  37.827   1.473   1.683
94122W        W58942   4.542  10.050  12.942
94123W        W58943  39.999  11.702  12.769
94124W        W58944  41.348  41.184   3.890
94125W        W58945   6.755  25.231  13.143
94126W        W58946  41.330   7.229   2.690
94127W        W58947  30.982   2.136   3.130
94128W        W58948  31.491  44.459  10.786
94129W        W58949  38.105  22.907  14.615
94130W        W58950  10.639  35.818   1.826
94131W        W58951  19.124  23.205  10.973
94132W        W58952   2.298   5.190   2.652
94133W        W58953   9.295  38.373  11.023
94134W        W58954  31.989   6.725   4.739
94135W        W58955  31.171  27.749  13.418
94136W        W58956  22.471  20.092   0.473
94137W        W58957  11.292  21.715   3.548
94138W        W58958  42.252  29.714  11.137
94139W        W58959   8.756   4.730  11.950
94140W        W58960  19.013   8.427   0.955
94141W        W58961  23.565   8.702   1.372
94142W        W58962  15.815  11.717   0.279
94143W        W58963  35.999   4.841  10.109
94144W        W58964   4.715  24.418   2.637
94145W        W58965  24.699  41.858   0.846
94146W        W58966  11.315   3.786  13.009
94147W        W58967  40.404   6.447  12.102
94148W        W58968   6.903  27.491  12.201
94149W        W58969   3.308  31.708   2.692
94150W        W58970   0.852  24.227   4.645
94151W        W58971  41.773  17.570  14.909
94152W        W58972  37.078  40.373   2.450
94153W        W58973  44.373   4.426  14.996
94154W        W58974  11.520  12.402   2.634
94155W        W58975  16.876  24.536   0.882
94156W        W58976  27.825  28.466  12.009
94157W        W58977  18.861  14.879  11.748
94158W        W58978  15.587  19.742   2.312
94159W        W58979  33.831  36.606   0.098
94160W        W58980   2.644   8.740  13.797
94161W        W58981  32.524  42.767  12.041
94162W        W58982  16.531  30.115   2.345
94163W        W58983   4.757  10.560  12.907
94164W        W58984  27.237  14.213  11.123
94165W        W58985  10.354  18.692  13.965
94166W        W58986  29.533  13.646   4.786
94167W        W58987   5.881  41.272  14.891
94168W        W58988  19.074  20.051   1.795
94169W        W58989  13.935  10.670  11.131
94170W        W58990  44.732  40.607  12.000
94171W        W58991   7.407  26.636  12.839
94172W        W58992  27.073  32.554  11.194
94173W        W58993  28.422  16.608  13.368
94174W        W58994   2.500  17.395  14.798
94175W        W58995  44.034  41.908   4.720
94176W        W58996  31.132  10.325  12.566
94177W        W58997  20.552  10.863   0.963
94178W        W58998  19.541   8.255   3.286
94179W        W58999  28.881  19.186  14.082
94180W        W59000  27.337  11.399   0.243
94181W        W59001  43.008  33.997   1.482
94182W        W59002  34.134  16.356   2.739
94183W        W59003   4.875  27.522  13.116
94184W        W59004  16.947  34.716   4.597
94185W        W59005   4.777  12.858   4.586
94186W        W59006  17.753   0.275  14.648
94187W        W59007  12.662   1.213   2.500
94188W        W59008  32.569   5.368  13.828
94189W        W59009   8.787  37.637  11.976
94190W        W59010  25.567  35.939   2.276
94191W        W59011  11.255  38.902  14.574
94192W        W59012  26.213  31.223  11.202
94193W        W59013   1.488  22.294  13.889
94194W        W59014  44.107  40.057  10.602
94195W        W59015  17.067  44.306   1.470
94196W        W59016  20.272  43.004  13.871
94197W        W59017  44.246   8.432   1.948
94198W        W59018  28.104  30.617   0.269
94199W        W59019  21.814  11.635  13.281
94200W        W59020  34.100  24.971   0.952
94201W        W59021   3.413  19.579  14.447
94202W        W59022  25.881  10.188  14.005
94203W        W59023  12.693  29.781   2.250
94204W        W59024  43.269  34.742   0.389
94205W        W59025  27.178  23.580   0.324
94206W        W59026  21.966   3.883   3.841
94207W        W59027   9.713   0.334   3.693
94208W        W59028   8.914   1.008  14.873
94209W        W59029  18.648  22.599   4.586
94210W        W59030  16.257  28.567  11.333
94211W        W59031  32.148  26.991   0.848
94212W        W59032  39.753  16.708   0.011
94213W        W59033  13.604  22.039  11.616
94214W        W59034  33.899   6.559  11.309
94215W        W59035  23.117  38.290   1.866
94216W        W59036  26.527  27.395  14.042
94217W        W59037  42.245  20.845  14.787
94218W        W59038  39.816  19.777  12.878
94219W        W59039  44.397  13.500   5.049
94220W        W59040  38.899  13.337  13.506
94221W        W59041  21.942  21.424  12.503
94222W        W59042  40.859   6.156   1.030
94223W        W59043  22.540  42.948  10.242
94224W        W59044  41.394  14.793   0.310
94225W        W59045   9.166   6.703  12.104
94226W        W59046   7.702  29.899   2.266
94227W        W59047  19.294  31.822  14.429
94228W        W59048   0.531   9.620   1.269
94229W        W59049  32.414  43.274  11.174
94230W        W59050  23.228  13.743   1.640
94231W        W59051   0.391  28.372   0.657
94232W        W59052  14.287   4.537  14.074
94233W        W59053  22.867   4.748  12.768
94234W        W59054   9.987  43.798  11.651
94235W        W59055  16.285   2.389  14.848
94236W        W59056  43.953   2.423  11.739
94237W        W59057  14.629  27.756  14.772
94238W        W59058  13.631  32.203   3.908
94239W        W59059  24.560  18.429  12.384
94240W        W59060  34.396  13.690   2.406
94241W        W59061  23.228  23.025  11.220
94242W        W59062   2.345  23.509  14.431
94243W        W59063  43.117   8.878   4.623
94244W        W59064  41.731  19.418   0.005
94245W        W59065  12.816  26.710   0.361
94246W        W59066  11.454  19.638  13.952
94247W        W59067  36.383  34.140   4.114
94248W        W59068  18.782  41.408  13.434
94249W        W59069  13.651  36.152   5.453
94250W        W59070  43.956  12.818   4.652
94251W        W59071  28.459  31.731   1.316
94252W        W59072  34.019  39.832   3.235
94253W        W59073  29.964  28.910  12.356
94254W        W59074   0.356  37.676   2.203
94255W        W59075   3.371  44.776   3.260
94256W        W59076  34.444  14.158   4.619
94257W        W59077  39.544  10.317   3.125
94258W        W59078  21.293  31.347   0.246
94259W        W59079   8.162  38.300   4.133
94260W        W59080  40.046   8.475  10.468
94261W        W59081  20.293  31.452   2.601
94262W        W59082   0.817  15.248  11.896
94263W        W59083  42.837  24.907   4.866
94264W        W59084   1.961   2.334  14.243
94265W        W59085  15.559  43.508  11.173
94266W        W59086  25.947  19.691  13.046
94267W        W59087  36.132  27.605  10.533
94268W        W59088  22.286  14.556   0.434
94269W        W59089  43.794  31.033  12.452
94270W        W59090  14.789  39.645   4.562
94271W        W59091  29.186  30.474   4.672
94272W        W59092  13.662  39.936   2.943
94273W        W59093  43.303  14.449   4.141
94274W        W59094  13.519  35.967   3.836
94275W        W59095  27.133  15.360   2.097
94276W        W59096  26.309  26.109  11.028
94277W        W59097  36.456  32.821   2.783
94278W        W59098  30.630  12.776  14.471
94279W        W59099  43.548   7.441   3.624
94280W        W59100   7.108  16.133   2.680
94281W        W59101  33.435  39.964   2.011
94282W        W59102  20.725   3.680  10.671
94283W        W59103  34.442  32.211   2.659
94284W        W59104  12.048  25.692  10.797
94285W        W59105   8.212  28.356  10.656
94286W        W59106  26.081   7.871  12.093
94287W        W59107  18.373  39.235   0.171
94288W        W59108  28.540  13.917   1.875
94289W        W59109  11.845   6.331   1.279
94290W        W59110  15.045   9.934   0.739
94291W        W59111  18.613  31.559   1.003
94292W        W59112  36.036  40.883   2.062
94293W        W59113  13.161  31.124  12.161
94294W        W59114  32.624  38.986  13.604
94295W        W59115  29.491  39.738  12.529
94296W        W59116  21.835  33.664  14.423
94297W        W59117  10.731  40.959  13.460
94298W        W59118  20.020  35.053  13.434
94299W        W59119  39.915   1.663   4.613
94300W        W59120  44.795  23.632   3.162
94301W        W59121  17.908  34.661  12.735
94302W        W59122   0.189  20.936   3.597
94303W        W59123  25.024  24.981   0.528
94304W        W59124  41.415   9.239   3.897
94305W        W59125  25.506   5.201  14.918
94306W        W59126   6.815  41.843   4.153
94307W        W59127  23.948  41.483  12.873
94308W        W59128  12.765  38.410  12.417
94309W        W59129   0.561  39.331   2.717
94310W        W59130  10.161  17.991  12.570
94311W        W59131  21.176   2.490  11.024
94312W        W59132   1.526  25.702   4.988
94313W        W59133  36.393  22.249  13.119
94314W        W59134  31.416   1.213  13.900
94315W        W59135  24.446  22.451  13.009
94316W        W59136  24.810  15.463  12.450
94317W        W59137  16.290  38.816  13.283
94318W        W59138  23.635  38.665   1.635
94319W        W59139  36.533  13.912   4.954
94320W        W59140  19.737   7.623  10.321
94321W        W59141  39.469  43.005   4.610
94322W        W59142  10.676  38.439   1.190
94323W        W59143  20.600  21.089   0.896
94324W        W59144   4.164  35.856  13.448
94325W        W59145  33.586  11.606  10.631
94326W        W59146  39.352  23.603  14.462
94327W        W59147   1.295  33.067   1.674
94328W        W59148  44.984  41.475  14.811
94329W        W59149  37.199  15.161   1.983
94330W        W59150  32.723  41.126  14.738
94331W        W59151  21.557  31.082  11.242
94332W        W59152  21.118  18.692   4.080
94333W        W59153  25.071  18.591   0.472
94334W        W59154  10.760  40.840   0.854
94335W        W59155  34.378  28.105   4.557
94336W        W59156  12.622  24.047  12.012
94337W        W59157  39.610  38.545   2.984
94338W        W59158  12.683  23.208  14.493
94339W        W59159  16.335  10.820  11.628
94340W        W59160  29.016  38.571  10.666
94341W        W59161  22.178  18.226   2.330
94342W        W59162  13.124  13.082  11.330
94343W        W59163  41.047  20.204   4.157
94344W        W59164  33.830   9.369   4.083
94345W        W59165  13.296  41.370  11.816
94346W        W59166  34.106  14.521   9.757
94347W        W59167   2.518  44.658   2.967
94348W        W59168  27.581  38.732  13.093
94349W        W59169  30.403  43.097   3.739
94350W        W59170  32.432  33.360  10.102
94351W        W59171   3.686  33.326  13.379
94352W        W59172  34.567   8.151  11.223
94353W        W59173   4.291  33.842  10.490
94354W        W59174  20.832  39.817  12.398
94355W        W59175   0.735   6.745  14.971
94356W        W59176  31.957  31.405  13.891
94357W        W59177  36.238  14.364   4.944
94358W        W59178   0.797  21.686  10.705
94359W        W59179   6.233   2.734  14.475
94360W        W59180  19.232  28.450   0.923
94361W        W59181  18.531   2.574   0.326
94362W        W59182   8.345   8.039  13.371
94363W        W59183  42.834  36.300   1.400
94364W        W59184  33.058   6.544  11.672
94365W        W59185  44.903   9.033  12.053
94366W        W59186  16.278  21.251   3.141
94367W        W59187  42.002   9.626   2.901
94368W        W59188  42.736   3.327  10.817
94369W        W59189  12.214  40.642  14.838
94370W        W59190  23.982  42.060   1.902
94371W        W59191  31.904  13.987   0.910
94372W        W59192  37.457  13.410   1.983
94373W        W59193   4.338  12.823   3.778
94374W        W59194   1.032  31.932  13.117
94375W        W59195  32.396  22.992   1.751
94376W        W59196  10.087  24.106  10.226
94377W        W59197  44.426  29.170   4.551
94378W        W59198  18.831  11.377  14.181
94379W        W59199  35.308  33.842   2.693
94380W        W59200  11.283  24.424  14.533
94381W        W59201  31.580  21.579  11.690
94382W        W59202  15.589  24.024   1.275
94383W        W59203  33.519  16.185  13.722
94384W        W59204  10.080  32.853   3.652
94385W        W59205   9.093  22.980   0.395
94386W        W59206  39.829  21.026  12.500
94387W        W59207  32.382  29.620   3.173
94388W        W59208  10.105  16.601  14.562
94389W        W59209  18.695  42.871   3.651
94390W        W59210  20.544  34.107  13.464
94391W        W59211   8.592  41.574  13.903
94392W        W59212  40.292  18.400   3.335
94393W        W59213  31.385  20.489   3.733
94394W        W59214  31.791  18.630  11.934
94395W        W59215  17.621  37.901   3.180
94396W        W59216  14.764  31.052   4.348
94397W        W59217   3.071  40.336  14.880
94398W        W59218  20.164  24.363  13.532
94399W        W59219  26.124   6.328   0.658
94400W        W59220  24.674  41.017  11.361
94401W        W59221  15.214  33.082   4.728
94402W        W59222   1.251  38.261  11.489
94403W        W59223   9.383  17.334   1.339
94404W        W59224  31.512   4.479   4.780
94405W        W59225  28.962  21.239   5.106
94406W        W59226  26.377  38.840   3.765
94407W        W59227  26.883   8.628   4.381
94408W        W59228  15.271  33.686  11.248
94409W        W59229  43.571  36.040  12.083
94410W        W59230  15.028  34.248   1.277
94411W        W59231  39.714  16.471  12.088
94412W        W59232  41.179   8.710  13.079
94413W        W59233  38.707  15.222  11.549
94414W        W59234  30.397  29.640  11.695
94415W        W59235  23.144  11.339  12.690
94416W        W59236   8.186  11.185  14.367
94417W        W59237   6.716   2.235   3.399
94418W        W59238  11.539  17.385   2.484
94419W        W59239  23.942  20.263  12.090
94420W        W59240  37.078   3.836  12.929
94421W        W59241  19.862  22.720   4.490
94422W        W59242  23.887   7.209   2.300
94423W        W59243  13.825   0.925  12.649
94424W        W59244  37.301  10.206   2.713
94425W        W59245  11.730   9.247  14.849
94426W        W59246  28.461   5.537   4.839
94427W        W59247  27.284  19.486  14.070
94428W        W59248  23.607  41.976  10.595
94429W        W59249  18.179  35.107   3.216
94430W        W59250   0.229  12.837   1.903
94431W        W59251   8.895  29.045  12.809
94432W        W59252  22.146   4.006  11.443
94433W        W59253   7.354  31.760  12.846
94434W        W59254  41.975  12.295   1.441
94435W        W59255  43.877  17.184   2.781
94436W        W59256   1.454   5.985  13.966
94437W        W59257  26.977  13.720   0.969
94438W        W59258   9.591  15.905   2.327
94439W        W59259  26.503   0.943   1.300
94440W        W59260  13.595  38.936  12.560
94441W        W59261  13.997  43.991  11.651
94442W        W59262  17.744  34.410   1.717
94443W        W59263   5.698  17.972  11.153
94444W        W59264  14.629  24.343  11.976
94445W        W59265  37.382   0.006  13.838
94446W        W59266   9.359  39.777  13.992
94447W        W59267  43.412   3.811   1.425
94448W        W59268   4.908  36.776   1.020
94449W        W59269   1.332  27.473  12.836
94450W        W59270  14.548  12.930  12.612
94451W        W59271  10.704  30.684  14.348
94452W        W59272  15.659  11.105   1.699
94453W        W59273  33.074  27.759   0.022
94454W        W59274   5.253  44.471   3.253
94455W        W59275  26.594  27.015  12.620
94456W        W59276  33.498  14.379   5.576
94457W        W59277  39.983   1.943   2.660
94458W        W59278  35.747  31.446   3.349
94459W        W59279  11.423   4.842  11.655
94460W        W59280  40.000  24.140   1.356
94461W        W59281   7.183   3.417   0.191
94462W        W59282  23.891  32.958  11.136
94463W        W59283  43.710  18.069   4.513
94464W        W59284  24.580  37.251   2.839
94465W        W59285   9.598  42.804   0.050
94466W        W59286  37.063  37.536  13.541
94467W        W59287   3.519  40.410  13.140
94468W        W59288  13.934  19.934  11.071
94469W        W59289   2.329  34.861   3.824
94470W        W59290  16.132  35.083  14.413
94471W        W59291  32.716  16.787  14.847
94472W        W59292   9.755  14.354  14.046
94473W        W59293   5.987  16.656   1.424
94474W        W59294  19.199  39.923   9.723
94475W        W59295   2.074  14.919  11.554
94476W        W59296  29.024  12.298  11.625
94477W        W59297  25.719  16.348  11.998
94478W        W59298  18.290   7.921  12.841
94479W        W59299   2.727   2.485   4.167
94480W        W59300  41.727  42.362   1.434
94481W        W59301   6.816  37.059   0.362
94482W        W59302   1.239  20.285  12.478
94483W        W59303  25.306  34.348   4.152
94484W        W59304   3.367  12.750   0.499
94485W        W59305  12.723  37.232  11.178
94486W        W59306   9.435   2.659  13.283
94487W        W59307   0.413  21.628   0.376
94488W        W59308  26.675  44.008  13.275
94489W        W59309   2.196  39.863   4.087
94490W        W59310  34.283  12.865   4.055
94491W        W59311  12.801  43.245  12.489
94492W        W59312  37.427  35.965   4.808
94493W        W59313  30.368  11.143   1.667
94494W        W59314  27.202  14.250   4.615
94495W        W59315  25.604  24.981  12.561
94496W        W59316  30.547  31.477  14.364
94497W        W59317   8.712  44.260  14.521
94498W        W59318  26.601  17.262   1.723
94499W        W59319  43.536   3.787  10.725
94500W        W59320  25.433  24.892  12.035
94501W        W59321  28.946  28.618  13.746
94502W        W59322  34.177  20.760   3.999
94503W        W59323  28.677  23.188   1.914
94504W        W59324   2.929   0.613  11.644
94505W        W59325  27.905  27.126  12.683
94506W        W59326  24.323  35.319   3.630
94507W        W59327  29.134  42.535   0.731
94508W        W59328  44.767  32.504   0.832
94509W        W59329  37.184  30.139   4.817
94510W        W59330  43.221  36.887   0.889
94511W        W59331   4.663  27.138   2.314
94512W        W59332  37.528  10.878   3.724
94513W        W59333   3.803  40.310  11.278
94514W        W59334   9.932  44.976   1.728
94515W        W59335   1.032  21.782   3.050
94516W        W59336  13.153  23.719   3.821
94517W        W59337  15.958  13.275  13.417
94518W        W59338  36.872  29.135   4.594
94519W        W59339   9.754  22.425   1.865
94520W        W59340   9.371  32.049   0.761
94521W        W59341   2.832  10.626   3.287
94522W        W59342  14.418   2.885  13.431
94523W        W59343  23.026  35.351   3.803
94524W        W59344  40.332  14.917   3.858
94525W        W59345  30.992  23.706  14.341
94526W        W59346  24.981  25.497   2.668
94527W        W59347  23.296  11.324   4.690
94528W        W59348  32.206  23.127  13.389
94529W        W59349   3.052  44.504  13.475
94530W        W59350  23.100   8.653   0.707
94531W        W59351   9.232  30.269  12.367
94532W        W59352   0.826  20.097  14.476
94533W        W59353  42.967  36.815   1.332
94534W        W59354   8.663  35.990  11.588
94535W        W59355  17.106  10.123   1.205
94536W        W59356  44.776  27.011  14.415
94537W        W59357  11.391  43.091  12.568
94538W        W59358  34.507  18.997   1.789
94539W        W59359  37.972   4.664   2.947
94540W        W59360  33.315   8.604   3.299
94541W        W59361   0.831  13.170  10.614
94542W        W59362   2.285  38.866   2.804
94543W        W59363  14.838  20.861   3.677
94544W        W59364  22.562   8.418   2.374
94545W        W59365   2.948  42.900   1.231
94546W        W59366  27.222   4.151  14.038
94547W        W59367  12.704  15.035  10.758
94548W        W59368  31.579   7.044   4.587
94549W        W59369  19.068  36.909   0.309
94550W        W59370  23.642  14.697  12.560
94551W        W59371   0.971  34.704  14.508
94552W        W59372  25.906  29.985  11.820
94553W        W59373  12.899  33.598  10.911
94554W        W59374  44.329  33.842  11.180
94555W        W59375  29.610   3.751   4.276
94556W        W59376   3.010  34.007  12.255
94557W        W59377  19.063  28.624  13.075
94558W        W59378  25.009  14.105   3.253
94559W        W59379   8.814   3.889   0.296
94560W        W59380  43.406  10.592   2.227
94561W        W59381  38.253   4.373  11.147
94562W        W59382  38.018  23.723  14.779
94563W        W59383  10.266  21.705   3.781
94564W        W59384  10.389  11.495   1.429
94565W        W59385   1.827  18.239   4.807
94566W        W59386  27.900   5.343   2.832
94567W        W59387  30.972  32.591   1.341
94568W        W59388  14.276  42.894  12.078
94569W        W59389  34.790  31.536   4.154
94570W        W59390  19.048  29.618  11.434
94571W        W59391  17.580  27.616   3.761
94572W        W59392   2.471  16.596  13.616
94573W        W59393  16.343  23.182   0.710
94574W        W59394  31.510   7.791  11.181
94575W        W59395  43.241  21.142   2.980
94576W        W59396  42.658  32.531  14.565
94577W        W59397   7.842  36.567  11.591
94578W        W59398  27.383   4.984  14.058
94579W        W59399  34.044   7.380   0.359
94580W        W59400   8.734  40.307   2.243
94581W        W59401  43.980   7.659   1.742
94582W        W59402  10.067  37.761   1.288
94583W        W59403  14.241  41.932  11.920
94584W        W59404   7.303   6.306  13.722
94585W        W59405  24.531   3.974   2.223
94586W        W59406  17.467  21.549   1.393
94587W        W59407  15.326   1.993  12.909
94588W        W59408  18.056  13.031  11.692
94589W        W59409   9.847   8.344   2.624
94590W        W59410  12.634  34.494  11.659
94591W        W59411   5.433  17.696   4.352
94592W        W59412  21.537  20.863  10.915
94593W        W59413  22.762  10.215  10.486
94594W        W59414  17.818  38.107  11.630
94595W        W59415  16.835  36.214  14.467
94596W        W59416  37.090  32.050   3.064
94597W        W59417   5.884  29.039  10.688
94598W        W59418  12.811  17.595  12.966
94599W        W59419   1.344  17.357  13.977
94600W        W59420  14.837  43.013  12.061
94601W        W59421   9.376  25.697  14.489
94602W        W59422  40.956   6.382  12.962
94603W        W59423  22.434  26.233  11.393
94604W        W59424   3.191  32.968  11.991
94605W        W59425  41.310  20.664   4.184
94606W        W59426   3.640   4.189   3.196
94607W        W59427   3.797  30.983  12.945
94608W        W59428  37.661  10.727   1.344
94609W        W59429  43.908   3.960   3.623
94610W        W59430  29.997  19.822   3.656
94611W        W59431   1.343  40.002  12.702
94612W        W59432  14.215  33.920  13.489
94613W        W59433  22.114   5.894  12.080
94614W        W59434   5.315  37.162  14.289
94615W        W59435   3.271  24.674   0.014
94616W        W59436  21.084  31.864   2.386
94617W        W59437  11.362  21.317  12.783
94618W        W59438  27.410  42.471   0.914
94619W        W59439  24.297  25.257   4.736
94620W        W59440   0.785  18.598   2.618
94621W        W59441   8.670  18.616   0.225
94622W        W59442   4.978   4.724   4.115
94623W        W59443  25.204  40.884  14.452
94624W        W59444   9.401  21.000  11.058
94625W        W59445  24.722   6.141   4.071
94626W        W59446  28.870   5.481  14.857
94627W        W59447   3.737  11.669   3.864
94628W        W59448  27.953   8.732   0.535
94629W        W59449  30.182  18.812   1.428
94630W        W59450  31.375   8.624  12.615
94631W        W59451  23.530  24.750  13.933
94632W        W59452  25.255  43.331   3.220
94633W        W59453  37.867  24.681   5.029
94634W        W59454  44.394   7.460   2.272
94635W        W59455  13.809  37.538   0.747
94636W        W59456  13.106  20.678   0.533
94637W        W59457  41.958  21.592   3.086
94638W        W59458  16.624  27.641  13.302
94639W        W59459  26.800   0.369   0.314
94640W        W59460  28.169  35.853   1.949
94641W        W59461  36.505  39.575   2.117
94642W        W59462   1.185  37.533  11.103
94643W        W59463   7.591  44.768  14.387
94644W        W59464   5.827  40.346  13.380
94645W        W59465  18.795  13.565  14.009
94646W        W59466  16.166  28.591  11.862
94647W        W59467  27.606  25.841  13.189
94648W        W59468   9.404  27.033  14.449
94649W        W59469  32.132  31.709   0.788
94650W        W59470  28.741   2.309  11.666
94651W        W59471  27.464  32.087  12.950
94652W        W59472  44.823   3.330   1.874
94653W        W59473  28.263  23.490   0.451
94654W        W59474  17.985  30.149   1.239
94655W        W59475  10.115  29.092   2.752
94656W        W59476  28.934   8.210  13.421
94657W        W59477  19.814  43.013   4.366
94658W        W59478  20.726  43.840  14.482
94659W        W59479  26.982   4.512  12.527
94660W        W59480   5.582  42.966   3.220
94661W        W59481  25.584  41.751  11.451
94662W        W59482   1.447  13.901   2.370
94663W        W59483  24.155  44.691  13.614
94664W        W59484   8.176  29.415   3.583
94665W        W59485  28.850  32.107  11.450
94666W        W59486  26.938  30.883  10.636
94667W        W59487   1.786  27.692  14.090
94668W        W59488  32.861   9.811  12.899
94669W        W59489  17.400  30.114   0.495
94670W        W59490  15.496  30.081   5.047
94671W        W59491  34.507  33.585  13.503
94672W        W59492  22.013   4.465  10.964
94673W        W59493  43.471  40.398   1.184
94674W        W59494  39.424  35.824  14.714
94675W        W59495   7.317  13.769   3.617
94676W        W59496  25.436  30.662  14.451
94677W        W59497  12.635  13.785  12.967
94678W        W59498  23.668  42.915  13.004
94679W        W59499  33.837   2.361  13.582
94680W        W59500  18.345   8.774  12.937
94681W        W59501  21.613  36.596  13.590
94682W        W59502  18.110  35.835  14.475
94683W        W59503   6.234  12.764   1.427
94684W        W59504  33.882   5.401   1.328
94685W        W59505  28.370   0.823   1.215
94686W        W59506  12.897  18.598  11.580
94687W        W59507  41.899  39.457  11.472
94688W        W59508  19.577  26.778  14.876
94689W        W59509   4.639   4.309  13.005
94690W        W59510  36.021  40.331  11.092
94691W        W59511  22.042  24.161  11.296
94692W        W59512  14.266  42.547  11.631
94693W        W59513  35.760  35.141  11.578
94694W        W59514   5.993  25.128   2.654
94695W        W59515   6.269  29.737   0.401
94696W        W59516   9.854  39.439  12.404
94697W        W59517   5.089  10.106   1.385
94698W        W59518  42.303   4.206   2.809
94699W        W59519  33.434   3.447  13.069
94700W        W59520   1.712   7.269  11.430
94701W        W59521  36.406   2.847   1.764
94702W        W59522  13.708  26.116   5.151
94703W        W59523   8.730   6.291  14.878
94704W        W59524  36.526  39.300   0.298
94705W        W59525  41.734  33.637  14.295
94706W        W59526  26.173  20.171  11.710
94707W        W59527  32.771  11.283  12.142
94708W        W59528  38.584   0.333  14.331
94709W        W59529   6.732  43.105   0.649
94710W        W59530  29.152  20.037  13.091
94711W        W59531  18.602  22.953   2.157
94712W        W59532   9.910  41.505   0.777
94713W        W59533   2.789  39.378   1.191
94714W        W59534  41.408   7.095   3.172
94715W        W59535  10.346  41.553  13.769
94716W        W59536  37.203  43.065   2.604
94717W        W59537  13.921   1.343  10.759
94718W        W59538   1.353  10.278  14.243
94719W        W59539  23.655  14.064  10.767
94720W        W59540   9.990  39.321   0.365
94721W        W59541  25.552  33.138  13.450
94722W        W59542  18.612  39.125  11.134
94723W        W59543   3.003  21.836  10.739
94724W        W59544   2.759  35.139   3.883
94725W        W59545  10.855  12.597  11.140
94726W        W59546  11.058  22.546  10.971
94727W        W59547  22.724  35.662  12.069
94728W        W59548   2.443  31.493  13.852
94729W        W59549  27.232  22.000   1.835
94730W        W59550  28.682   3.294   0.947
94731W        W59551   9.051  21.994   2.238
94732W        W59552  24.020  44.395   1.740
94733W        W59553  23.774  20.764   0.473
94734W        W59554  16.266   1.973   1.367
94735W        W59555  42.233  15.255   0.055
94736W        W59556  30.489  23.012   3.738
94737W        W59557  19.161  31.752   9.893
94738W        W59558  33.566   5.079   2.550
94739W        W59559  15.816  20.528   1.925
94740W        W59560  20.756  38.108   2.822
94741W        W59561  30.110   8.411  14.844
94742W        W59562   9.554  23.257  10.396
94743W        W59563   7.248  16.723   2.918
94744W        W59564  30.419  18.253   1.728
94745W        W59565  23.088  16.161   4.594
94746W        W59566  17.173  33.926  10.710
94747W        W59567   8.585  17.302   4.056
94748W        W59568  39.095  14.803   2.654
94749W        W59569  28.725   5.934  11.994
94750W        W59570  42.110   1.377   0.845
94751W        W59571   4.758  12.180  10.737
94752W        W59572   8.391  40.068   2.807
94753W        W59573  24.113  32.870   1.685
94754W        W59574   3.336   1.532  11.194
94755W        W59575  10.647  39.263  13.475
94756W        W59576  27.006  27.455  11.567
94757W        W59577  12.222  40.528   4.882
94758W        W59578  24.470  10.203   1.846
94759W        W59579  26.931  42.507  12.636
94760W        W59580  33.742   6.155  14.417
94761W        W59581  37.888  11.101   4.052
94762W        W59582  36.739  11.800   4.631
94763W        W59583  36.332   5.729  14.281
94764W        W59584  43.510   7.363  13.574
94765W        W59585   4.309  43.877   1.369
94766W        W59586  14.938  16.753   3.405
94767W        W59587   8.219  38.105  14.387
94768W        W59588   5.268   9.996   2.783
94769W        W59589  37.341  31.625   3.265
94770W        W59590  24.978  26.507  11.135
94771W        W59591  28.184   7.719   0.280
94772W        W59592  37.108   7.853  10.958
94773W        W59593   6.071  36.941   1.947
94774W        W59594   3.323   7.375   3.731
94775W        W59595  42.778   2.433  12.316
94776W        W59596  26.706  42.386   1.445
94777W        W59597   7.546   6.791  11.246
94778W        W59598  34.938   0.767  13.892
94779W        W59599  18.247  18.813   2.843
94780W        W59600   7.480  43.296   0.394
94781W        W59601   2.761  39.578  12.314
94782W        W59602   8.685  33.962   0.061
94783W        W59603  23.488  10.599   4.098
94784W        W59604  21.672  17.568   3.602
94785W        W59605  18.055  18.764  14.448
94786W        W59606  15.765   2.999  11.636
94787W        W59607  44.036   9.121  12.595
94788W        W59608   7.793  11.152  12.570
94789W        W59609  40.790  40.604   2.730
94790W        W59610  28.596  29.509   1.339
94791W        W59611   8.514  26.950   5.120
94792W        W59612  15.067  41.383  14.517
94793W        W59613  31.457  32.374   2.908
94794W        W59614  38.767  25.499  11.106
94795W        W59615  37.196   8.492   5.410
94796W        W59616  18.448  18.496   1.750
94797W        W59617   5.543  39.548  10.714
94798W        W59618  22.622  32.544   2.195
94799W        W59619  16.207   1.370  12.822
94800W        W59620  17.054  31.601  14.585
94801W        W59621  27.447  32.156   3.658
94802W        W59622  35.407  36.889   0.302
94803W        W59623  29.459  37.351  13.700
94804W        W59624  22.955  41.541   2.579
94805W        W59625  34.727  27.207  13.944
94806W        W59626   4.313   1.984   1.234
94807W        W59627  22.131  14.494  11.380
94808W        W59628  33.548  41.268   0.726
94809W        W59629  19.766  37.384   1.863
94810W        W59630  37.949   8.248  11.981
94811W        W59631  19.203  38.849  13.219
94812W        W59632  37.034   5.848   2.964
94813W        W59633  22.895  19.447  11.446
94814W        W59634  25.089  44.256  11.430
94815W        W59635   0.523   5.350  11.969
94816W        W59636  43.875  10.767   2.364
94817W        W59637  24.861  24.842   0.047
94818W        W59638  44.531  16.653  12.909
94819W        W59639  33.393   1.262   0.993
94820W        W59640  23.582   2.352   1.606
94821W        W59641  31.213   8.663   1.638
94822W        W59642  44.259  16.776   1.718
94823W        W59643   5.773  44.499  13.232
94824W        W59644  27.432  32.673   3.662
94825W        W59645  25.772  13.283   2.644
94826W        W59646  17.445  15.881  12.162
94827W        W59647  44.816  18.141  13.800
94828W        W59648   5.682  40.075  10.711
94829W        W59649  35.284  39.902  13.404
94830W        W59650  39.853  40.512   2.908
94831W        W59651  44.747  12.848   2.760
94832W        W59652  30.667  30.296  12.621
94833W        W59653  26.457   5.666   0.916
94834W        W59654  21.361  19.042   1.371
94835W        W59655   9.104  17.089  11.603
94836W        W59656  13.534  26.608   5.197
94837W        W59657   6.667   4.173   3.156
94838W        W59658  28.773   4.852   4.340
94839W        W59659  17.236  15.118   1.697
94840W        W59660   7.074  31.987   4.986
94841W        W59661  32.744  30.514   4.595
94842W        W59662  37.859  39.256  12.579
94843W        W59663  44.755  37.004   3.727
94844W        W59664  20.668  29.981   2.592
94845W        W59665  18.109  34.076   2.869
94846W        W59666   0.449  25.119   1.887
94847W        W59667  22.102  25.712   3.304
94848W        W59668  18.336  17.933   1.840
94849W        W59669  29.114  26.064   2.323
94850W        W59670  35.884  28.902  11.907
94851W        W59671   2.778   3.925   3.819
94852W        W59672   3.166  36.407  12.579
94853W        W59673   9.718  18.027  14.282
94854W        W59674  23.586  16.877   0.318
94855W        W59675  41.506  19.359   4.159
94856W        W59676  19.623  15.392  11.167
94857W        W59677  18.520  21.528  10.790
94858W        W59678   2.055   8.900   1.429
94859W        W59679  26.432   9.534   5.417
94860W        W59680  17.698  39.104   5.391
94861W        W59681  26.433  29.162   1.907
94862W        W59682  31.535   0.447  14.344
94863W        W59683  36.894  23.015  14.502
94864W        W59684  44.953  43.378   0.732
94865W        W59685  23.640  18.406   0.329
94866W        W59686  30.885  33.203  10.538
94867W        W59687  13.078  44.292   3.239
94868W        W59688  40.661  40.891   3.759
94869W        W59689  15.669  43.318   3.362
94870W        W59690   1.968   0.246   3.569
94871W        W59691  42.330  25.300   1.607
94872W        W59692   3.019  38.909  11.141
94873W        W59693  26.698   9.675   3.302
94874W        W59694   2.352  21.099   1.694
94875W        W59695  21.694  31.874   0.842
94876W        W59696  40.629  33.540   2.997
94877W        W59697  34.667  18.706  13.382
94878W        W59698  35.411  15.926   3.600
94879W        W59699  32.844   6.331   4.625
94880W        W59700  20.164  16.538   3.650
94881W        W59701  35.294  27.109   3.289
94882W        W59702  15.135  22.227  12.261
94883W        W59703  22.586  14.766   4.750
94884W        W59704  37.965  27.098  11.699
94885W        W59705   0.445   9.181  14.373
94886W        W59706  19.448  18.108   2.616
94887W        W59707   9.674  14.794   4.511
94888W        W59708  15.859  41.858   1.335
94889W        W59709  24.851  13.304   2.226
94890W        W59710   1.450  24.960  12.492
94891W        W59711  18.672  27.096  13.405
94892W        W59712  42.155   1.816   4.513
94893W        W59713  35.115  41.597  11.596
94894W        W59714  38.493   1.043  10.874
94895W        W59715  26.422  28.520   4.529
94896W        W59716  39.723  13.847  12.462
94897W        W59717   4.160  32.693  12.990
94898W        W59718  12.204  16.115   3.063
94899W        W59719  17.641  24.088   3.260
94900W        W59720  36.337  12.894   0.602
94901W        W59721  32.031   3.991   3.982
94902W        W59722  18.098  33.187  11.190
94903W        W59723  28.325  14.482   1.818
94904W        W59724  17.529  36.637   1.859
94905W        W59725   9.703  14.818  14.343
94906W        W59726   7.820   2.776  13.233
94907W        W59727  28.974  16.064   0.474
94908W        W59728  35.248  21.895  13.417
94909W        W59729   3.509  31.330  13.779
94910W        W59730  22.259  40.816   4.202
94911W        W59731  38.643  15.799  14.397
94912W        W59732  26.094   4.237  12.120
94913W        W59733  10.195  44.096  12.837
94914W        W59734  11.421  43.032  14.718
94915W        W59735   6.765  13.256  10.948
94916W        W59736  13.828  31.638  13.774
94917W        W59737  24.565   8.569  13.359
94918W        W59738  18.770  31.438   0.093
94919W        W59739  26.853   3.188   3.843
94920W        W59740  44.223   0.407  11.601
94921W        W59741  26.721  31.580   4.840
94922W        W59742  40.840  17.260  12.043
94923W        W59743  43.761  28.471  11.507
94924W        W59744   2.751  15.117   1.665
94925W        W59745   5.011  15.271   1.194
94926W        W59746   4.906  34.804  12.838
94927W        W59747  15.055   8.874  13.914
94928W        W59748  16.771  14.566   3.330
94929W        W59749   7.853  35.123  12.155
94930W        W59750  14.049   8.327  14.087
94931W        W59751  33.067  35.860  10.758
94932W        W59752  32.618   4.623  13.364
94933W        W59753   1.483  36.321   4.761
94934W        W59754   2.171  29.096  12.028
94935W        W59755  36.442  36.354  10.705
94936W        W59756  36.736  10.892   3.275
94937W        W59757  43.486  13.114   0.754
94938W        W59758   6.845  12.912  13.970
94939W        W59759  19.657   5.334   3.958
94940W        W59760  21.751  39.572  12.167
94941W        W59761  22.649  23.606  12.451
94942W        W59762  13.457   7.162   1.589
94943W        W59763  30.191  29.134   2.361
94944W        W59764  36.547  37.068  12.026
94945W        W59765  42.885  27.727   3.320
94946W        W59766  30.651   8.231  13.029
94947W        W59767  16.757  27.188  13.058
94948W        W59768  32.625  12.728   2.651
94949W        W59769   2.815   7.767   4.533
94950W        W59770  34.451  11.198   3.102
94951W        W59771  18.573  41.989   4.235
94952W        W59772  34.548   0.279   2.172
94953W        W59773  43.930  44.406   4.908
94954W        W59774  22.331  32.134  14.374
94955W        W59775  37.314  18.750   3.704
94956W        W59776  18.515   7.745  14.855
94957W        W59777  11.842   6.107  13.466
94958W        W59778  41.347  16.974   4.625
94959W        W59779   2.802  23.261   4.561
94960W        W59780  15.277   4.935  11.948
94961W        W59781  19.355  25.793  11.205
94962W        W59782  13.095  37.775   0.395
94963W        W59783  31.464  17.845   2.707
94964W        W59784  28.285  41.500   4.142
94965W        W59785   4.487  13.232   0.889
94966W        W59786   7.787  12.316  13.479
94967W        W59787  30.014  34.516   3.287
94968W        W59788  42.381  32.576   2.919
94969W        W59789  42.046  25.683  14.344
94970W        W59790  17.251  28.823  14.418
94971W        W59791  30.013   0.757   0.310
94972W        W59792  20.891  25.233  11.963
94973W        W59793  10.578   0.343   2.200
94974W        W59794  41.605  28.101  13.394
94975W        W59795  28.494   4.136  12.458
94976W        W59796  42.466  41.301   1.704
94977W        W59797  26.080   0.166  13.898
94978W        W59798  23.100   4.920  11.199
94979W        W59799  18.718  12.198   2.919
94980W        W59800   3.430  10.515   1.272
94981W        W59801  39.576  37.570   5.021
94982W        W59802  38.660  10.919  10.237
94983W        W59803  23.611  12.850   3.089
94984W        W59804  36.394  33.208   4.139
94985W        W59805  18.432   5.247   2.755
94986W        W59806  24.938  27.836   0.778
94987W        W59807  34.968  10.918   9.810
94988W        W59808  18.285  43.080  10.517
94989W        W59809   1.338  28.782   4.552
94990W        W59810   5.649  22.187   2.803
94991W        W59811  31.877   4.716  12.021
94992W        W59812   8.757  32.752  12.591
94993W        W59813  21.025  20.496   1.289
94994W        W59814  14.825  27.733  13.020
94995W        W59815   8.179  29.328   2.587
94996W        W59816  23.775  11.661   2.332
94997W        W59817  30.080  11.423   4.416
94998W        W59818  36.133  44.061   1.800
94999W        W59819  39.814  26.720   3.627
95000W        W59820  12.197   3.397   3.788
95001W        W59821  22.047  25.575  13.024
95002W        W59822  22.784  37.465   3.634
95003W        W59823  12.551  23.151   4.689
95004W        W59824   5.996   8.327  11.586
95005W        W59825   7.317   1.348   2.223
95006W        W59826  22.979  25.648  10.677
95007W        W59827  13.678  35.152   2.204
95008W        W59828  37.450  17.965  13.385
95009W        W59829  31.484  30.116   0.388
95010W        W59830   3.780   3.453  10.418
95011W        W59831   7.803  22.790   0.412
95012W        W59832  15.599  34.446   3.525
95013W        W59833   3.309  12.762   0.006
95014W        W59834  13.228  27.095   4.728
95015W        W59835  32.942  39.956  13.805
95016W        W59836   4.155   3.694   4.005
95017W        W59837   7.446   3.541  14.334
95018W        W59838  40.961  13.193  10.257
95019W        W59839  33.483   5.957  10.684
95020W        W59840  16.477  22.973  11.073
95021W        W59841  15.529  34.073   4.112
95022W        W59842  44.523  20.019   2.037
95023W        W59843  25.094  42.629   2.043
95024W        W59844   3.145   6.780  12.049
95025W        W59845   3.971  40.828  12.570
95026W        W59846  12.480  10.261   4.138
95027W        W59847  26.794   5.407  13.307
95028W        W59848  19.215  31.976   4.731
95029W        W59849  29.759  34.301  13.356
95030W        W59850  13.695  19.801  13.311
95031W        W59851  14.706   3.044  10.481
95032W        W59852  21.183  35.522   2.204
95033W        W59853  16.730  37.421   2.349
95034W        W59854  44.006  40.473   4.477
95035W        W59855  37.885  25.525   4.587
95036W        W59856   6.351  11.804   2.364
95037W        W59857  33.400  25.892  14.680
95038W        W59858  29.705  12.687   0.887
95039W        W59859  44.371  42.727  10.860
95040W        W59860  35.727  38.865   2.874
95041W        W59861  30.647  17.216  14.877
95042W        W59862  24.193  32.118   2.575
95043W        W59863  30.200  36.376   3.154
95044W        W59864  41.213  20.355  12.288
95045W        W59865  23.687  22.018  14.933
95046W        W59866   6.638   7.383   1.902
95047W        W59867  24.961  12.587  11.105
95048W        W59868  33.785  15.045   5.021
95049W        W59869  28.115  41.239   0.812
95050W        W59870  31.581  40.076   0.320
95051W        W59871  12.622   0.797  12.002
95052W        W59872   1.218  19.168  13.681
95053W        W59873  35.920  14.757   0.784
95054W        W59874  38.125  22.638   3.299
95055W        W59875   3.012  28.597   2.455
95056W        W59876  20.513  31.799  13.835
95057W        W59877   8.501  41.532  12.998
95058W        W59878  40.851   6.345  13.881
95059W        W59879  10.014   0.698  12.108
95060W        W59880  20.229  18.321   3.219
95061W        W59881  34.432  34.852  11.493
95062W        W59882  43.880  26.385  12.573
95063W        W59883  38.381   6.627  14.822
95064W        W59884  17.296  16.693  13.422
95065W        W59885  41.251  12.577  14.847
95066W        W59886  15.833  29.550   1.841
95067W        W59887  31.650   0.806   2.856
95068W        W59888  42.991   5.399  13.320
95069W        W59889   1.586  29.291  11.552
95070W        W59890   0.777  16.122   0.235
95071W        W59891  16.593   6.423  11.408
95072W        W59892  17.788  39.948  11.134
95073W        W59893  39.134   1.522   1.223
95074W        W59894  34.509  30.944   2.772
95075W        W59895  26.736  32.488   0.262
95076W        W59896   1.427  37.427  14.299
95077W        W59897  19.123  28.914   4.520
95078W        W59898  44.790  31.669   1.368
95079W        W59899   8.274  16.556  11.418
95080W        W59900   9.727  29.202  11.986
95081W        W59901  12.676  14.841   1.263
95082W        W59902  27.484  15.099   2.881
95083W        W59903  30.581  33.176   2.776
95084W        W59904  41.823   2.272  14.062
95085W        W59905  38.727   1.597   1.736
95086W        W59906   5.981  38.428   4.233
95087W        W59907  11.575  16.203  14.805
95088W        W59908  41.521  19.085  12.237
95089W        W59909  30.499  25.763  13.014
95090W        W59910   2.964  26.163   3.211
95091W        W59911  42.191  26.896   2.124
95092W        W59912   4.473  40.897  12.435
95093W        W59913  37.123  39.362  13.950
95094W        W59914  30.495  24.746  10.221
95095W        W59915  29.436   7.249   2.409
95096W        W59916   4.203  23.673   1.794
95097W        W59917  42.985   3.406  14.790
95098W        W59918   5.499  35.261  11.363
95099W        W59919  31.538   8.319  13.087
95100W        W59920  38.064  43.474  10.641
95101W        W59921  29.105  41.471  14.814
95102W        W59922  32.945  21.963  13.118
95103W        W59923  18.211   9.631   0.005
95104W        W59924  29.230  35.457   2.826
95105W        W59925  43.175  34.727  10.689
95106W        W59926  22.471  23.903  10.937
95107W        W59927  29.206  33.453   0.444
95108W        W59928  18.155  32.333   0.382
95109W        W59929  28.000  21.145  12.593
95110W        W59930  41.905  24.457   4.682
95111W        W59931   3.920   0.821   4.435
95112W        W59932  22.580  19.779   1.360
95113W        W59933   4.587  41.542  13.049
95114W        W59934  44.606  40.565  14.790
95115W        W59935  32.559   7.298   0.311
95116W        W59936  32.112   1.287   1.384
95117W        W59937  39.051  26.992   2.461
95118W        W59938   6.161  25.997   2.612
95119W        W59939  26.936  42.712   4.542
95120W        W59940  42.787   8.922   1.793
95121W        W59941  19.769  29.331   4.985
95122W        W59942  36.572   8.729   2.740
95123W        W59943  42.905  42.743  12.499
95124W        W59944   8.854  38.787   1.399
95125W        W59945  28.707  27.110  13.136
95126W        W59946   4.664  42.886   0.257
95127W        W59947  30.731  39.551   0.033
95128W        W59948   7.822  40.562   2.542
95129W        W59949  43.923  18.380  14.803
95130W        W59950  12.592  24.896   4.898
95131W        W59951  29.111  19.181   3.080
95132W        W59952  39.519  34.128   1.911
95133W        W59953   1.257  32.072   2.090
95134W        W59954   9.334   1.899   3.257
95135W        W59955  18.677  34.123  14.527
95136W        W59956  19.021  44.903   0.822
95137W        W59957  30.291  39.797  13.980
95138W        W59958  16.106  37.426   3.572
95139W        W59959   5.613  23.818   2.710
95140W        W59960   7.172  14.344   1.925
95141W        W59961  33.134  26.099   4.566
95142W        W59962  38.850   5.170   1.869
95143W        W59963  13.573  32.129  13.022
95144W        W59964  32.596   8.439  13.097
95145W        W59965  12.756  20.521   1.330
95146W        W59966  14.592  21.722   4.553
95147W        W59967   6.737  27.050   3.514
95148W        W59968  28.378   3.260   4.080
95149W        W59969   6.503  13.246  13.755
95150W        W59970  33.072  12.025   4.222
95151W        W59971  10.718  30.099   3.168
95152W        W59972  11.401  21.722  14.072
95153W        W59973  39.323  12.468  14.059
95154W        W59974  40.238  36.464  12.803
95155W        W59975  40.036   7.346   4.472
95156W        W59976  18.871  14.668   0.320
95157W        W59977   2.132  31.521   4.150
95158W        W59978  26.609  18.650  14.758
95159W        W59979   3.830  32.177   4.279
95160W        W59980  39.344  23.482  14.983
95161W        W59981  37.308  16.843   0.320
95162W        W59982  15.191  40.367   0.523
95163W        W59983  30.168   8.261  13.246
95164W        W59984   2.087  19.056  12.442
95165W        W59985  17.661  14.706   0.800
95166W        W59986  38.954  44.058  12.179
95167W        W59987  36.593  25.034   1.150
95168W        W59988   9.163  18.848   4.595
95169W        W59989  13.300  28.219  13.527
95170W        W59990   3.315   2.324   2.747
95171W        W59991  14.612   9.645  11.872
95172W        W59992  33.012  26.882   0.342
95173W        W59993  27.718   9.176   2.544
95174W        W59994  38.624  39.363  14.467
95175W        W59995  35.135  11.613  13.887
95176W        W59996  34.109  41.963  12.147
95177W        W59997   4.234  23.013   1.421
95178W        W59998   2.916  13.865  13.494
95179W        W59999  24.611  29.723   2.937
95180W        W60000  22.167  21.757   3.207
95181W        W60001  41.464  20.234   1.357
95182W        W60002  22.065  16.236   2.801
95183W        W60003  11.892  41.085  12.942
95184W        W60004  39.017  10.874   3.029
95185W        W60005   0.618  31.045  10.491
95186W        W60006  17.254  28.116  12.837
95187W        W60007  23.455  14.210   3.101
95188W        W60008  11.281   7.378   4.996
95189W        W60009  11.420  13.045  12.463
95190W        W60010  36.197   5.247  14.537
95191W        W60011  27.061  43.962   0.473
95192W        W60012  41.494   6.219  12.044
95193W        W60013  37.563  34.796   3.237
95194W        W60014  35.061  29.289  12.537
95195W        W60015  18.752  31.998  12.815
95196W        W60016  15.646   1.338  14.357
95197W        W60017  13.302  26.473   4.118
95198W        W60018  33.672  42.619   4.417
95199W        W60019  37.909  44.848  10.561
95200W        W60020  13.584   5.781  10.707
95201W        W60021  11.497  11.963  12.925
95202W        W60022  10.871  43.510   3.088
95203W        W60023  32.720  33.024  13.018
95204W        W60024  36.856  33.760  14.321
95205W        W60025   0.978  30.353   3.627
95206W        W60026  31.657  31.406   1.391
95207W        W60027  31.617  12.057   2.875
95208W        W60028   7.328   0.216  14.972
95209W        W60029  29.654  39.465  12.055
95210W        W60030  19.756  14.266   3.664
95211W        W60031  39.429  22.406   0.031
95212W        W60032   4.672  38.851  11.727
95213W        W60033  42.777  24.921   3.806
95214W        W60034  38.405  33.486   2.570
95215W        W60035  22.021  12.832  14.538
95216W        W60036  30.046   7.804  14.090
95217W        W60037  17.612  31.091   1.241
95218W        W60038  17.627  42.091  14.502
95219W        W60039  11.916  12.536   4.951
95220W        W60040  36.623  42.411   3.206
95221W        W60041   9.257   9.051   4.190
95222W        W60042  21.733  33.085  13.822
95223W        W60043   7.535  32.247  12.852
95224W        W60044  34.197   4.922   3.166
95225W        W60045  39.377  40.589  13.800
95226W        W60046  22.905  44.915   3.754
95227W        W60047  10.850  28.335  13.770
95228W        W60048  26.709  26.735   3.298
95229W        W60049  22.136  43.859  12.906
95230W        W60050  16.751  13.969  14.823
95231W        W60051  16.716   3.449  13.154
95232W        W60052  39.886  28.214   1.733
95233W        W60053   7.936  22.625  14.895
95234W        W60054  20.392  13.132  13.983
95235W        W60055   6.962  41.046  12.498
95236W        W60056  23.738  17.385   0.288
95237W        W60057  33.579  36.933   4.181
95238W        W60058  18.386  41.284   1.808
95239W        W60059  21.957  30.505  12.688
95240W        W60060  29.045  20.187   4.480
95241W        W60061  29.843  39.088  10.779
95242W        W60062  34.343   7.684   1.862
95243W        W60063  14.299  32.682  14.516
95244W        W60064   8.635  42.960   2.287
95245W        W60065  28.139  36.271  12.662
95246W        W60066  20.499  30.527  11.623
95247W        W60067  39.849  27.734   0.454
95248W        W60068  32.898  23.224  13.966
95249W        W60069  34.600  11.712   0.232
95250W        W60070   1.189  40.019   0.844
95251W        W60071  19.464  34.761  11.239
95252W        W60072   5.013  40.601  14.925
95253W        W60073  20.986   7.135  13.526
95254W        W60074  10.863  14.229  11.690
95255W        W60075  44.947  12.529  12.071
95256W        W60076  44.760  38.964   1.904
95257W        W60077   6.971  31.338   0.491
95258W        W60078  38.454  24.143  14.361
95259W        W60079  40.389  32.665  14.929
95260W        W60080  42.852  40.956  14.876
95261W        W60081  14.839  43.010  14.754
95262W        W60082  28.960   2.983  12.114
95263W        W60083  10.609  33.098  12.061
95264W        W60084  18.703  15.823   3.073
95265W        W60085  44.100  23.632  13.554
95266W        W60086  30.853   3.406   1.565
95267W        W60087  33.416  17.852  14.460
95268W        W60088  13.325   9.339  12.138
95269W        W60089  42.859  34.340  13.357
95270W        W60090  36.096  25.466  12.584
95271W        W60091  30.107  12.131   0.017
95272W        W60092   1.312   7.214  13.105
95273W        W60093  34.480   9.095  10.535
95274W        W60094   4.784  44.844  11.516
95275W        W60095  35.333  20.179   0.770
95276W        W60096  36.941  31.386   4.237
95277W        W60097  36.068  14.624   4.124
95278W        W60098  32.277  28.073   3.850
95279W        W60099  37.844  13.020  14.307
95280W        W60100  37.391  17.718  13.825
95281W        W60101   3.787   6.011  12.056
95282W        W60102  17.894  43.608   4.545
95283W        W60103   8.891  21.938  11.554
95284W        W60104  11.908  39.901  11.064
95285W        W60105  38.838  15.262  13.378
95286W        W60106  29.855   5.422   3.623
95287W        W60107  34.505  33.316   1.708
95288W        W60108  32.346  44.932  12.461
95289W        W60109  15.665   4.258   0.239
95290W        W60110   6.291  22.526   4.592
95291W        W60111  15.990   5.776  10.934
95292W        W60112  42.286  35.625  12.980
95293W        W60113   9.481  21.144  14.309
95294W        W60114  26.653   4.277  12.138
95295W        W60115  19.006  40.372   3.869
95296W        W60116  21.293   9.318   1.385
95297W        W60117  22.681   0.433  13.956
95298W        W60118  30.206  16.978   3.605
95299W        W60119   1.902   3.461   3.638
95300W        W60120  23.744  18.090  14.935
95301W        W60121  43.984  43.526  13.567
95302W        W60122   2.901  38.638  11.627
95303W        W60123  32.482  35.644   0.616
95304W        W60124  33.554   2.758  11.665
95305W        W60125  13.886  37.317  10.730
95306W        W60126  22.013  20.330   4.150
95307W        W60127  13.668  18.162  11.662
95308W        W60128   6.831  27.581  10.315
95309W        W60129  16.336   7.794  12.887
95310W        W60130   6.495  39.092   3.658
95311W        W60131  16.063  40.977   3.452
95312W        W60132  28.955  24.739  14.188
95313W        W60133  11.986   7.244   2.184
95314W        W60134  11.930  34.164  13.293
95315W        W60135  23.907  26.044   1.628
95316W        W60136  27.754  21.204   2.232
95317W        W60137  16.385  17.842   4.154
95318W        W60138   2.748  33.053  11.093
95319W        W60139  40.921   7.368   0.956
95320W        W60140   3.214  13.294   1.385
95321W        W60141   5.792  34.314  12.924
95322W        W60142  18.329  16.881  13.377
95323W        W60143  12.572  41.009  14.479
95324W        W60144  17.519  36.876   3.171
95325W        W60145   8.917   5.831  10.613
95326W        W60146   3.130  23.064   4.193
95327W        W60147  20.811  18.978  12.066
95328W        W60148  26.742  32.380  14.449
95329W        W60149  30.906  27.699  10.632
95330W        W60150  23.417  31.514  12.862
95331W        W60151  41.982  30.914   1.795
95332W        W60152  17.588   5.823  14.947
95333W        W60153  18.388  19.633  13.437
95334W        W60154   0.474   7.402  10.665
95335W        W60155  22.632   9.934  13.364
95336W        W60156   6.274  31.588   4.362
95337W        W60157  29.246  15.882   0.944
95338W        W60158  31.990  41.287  14.464
95339W        W60159  36.059   8.735  12.148
95340W        W60160   8.246   6.947  12.450
95341W        W60161  32.036  37.347  11.958
95342W        W60162   0.364  30.512   0.881
95343W        W60163  29.571  12.081   2.316
95344W        W60164   5.729   4.612  13.023
95345W        W60165  15.530  42.612  11.029
95346W        W60166  38.777  23.700   3.823
95347W        W60167  34.480  40.625  10.699
95348W        W60168  16.913   6.338  12.769
95349W        W60169  22.067  33.684   4.661
95350W        W60170  38.542  16.872   3.775
95351W        W60171  15.966  26.338   0.954
95352W        W60172  16.863  42.543  14.287
95353W        W60173   7.253  17.447   0.925
95354W        W60174  36.096  34.553  10.600
95355W        W60175   9.801  39.437   2.251
95356W        W60176  28.963  21.951   3.935
95357W        W60177  14.042  12.352   2.925
95358W        W60178  32.543  18.385   4.100
95359W        W60179  36.440   4.647   9.874
95360W        W60180  28.003   5.283  11.705
95361W        W60181   2.448  31.558  11.136
95362W        W60182   0.768  36.961   0.799
95363W        W60183  23.434  29.111   1.672
95364W        W60184  30.304   5.100  12.563
95365W        W60185   8.925  29.559  12.720
95366W        W60186  35.618   4.675  11.937
95367W        W60187   3.002  18.464   1.244
95368W        W60188  30.963   5.912  14.950
95369W        W60189  37.900  35.618   2.182
95370W        W60190  29.084  13.122   0.692
95371W        W60191  43.030  41.727  13.398
95372W        W60192  10.544  17.190   0.326
95373W        W60193  18.016   8.335  10.545
95374W        W60194  11.260  14.876  12.016
95375W        W60195  32.013  35.958  14.266
95376W        W60196  34.366  17.221  10.574
95377W        W60197  43.448  41.354   0.103
95378W        W60198   5.246  36.387   0.946
95379W        W60199   5.150  37.070   2.389
95380W        W60200  27.188  21.267  10.697
95381W        W60201  39.558  42.848   1.124
95382W        W60202  11.931  43.054   5.173
95383W        W60203  10.400  32.688   2.230
95384W        W60204  32.778   3.121  13.982
95385W        W60205  37.063  43.976  13.324
95386W        W60206  40.203  19.046   2.587
95387W        W60207  37.572  40.397  10.982
95388W        W60208   3.182  14.057  13.934
95389W        W60209  23.963  24.543   4.170
95390W        W60210  40.395  13.997  11.653
95391W        W60211  40.988  11.406  10.221
95392W        W60212  40.696  26.029   3.726
95393W        W60213  22.768   6.748  14.259
95394W        W60214  17.694  14.547   3.138
95395W        W60215  35.855  29.185   4.483
95396W        W60216  16.485   3.240   4.807
95397W        W60217  31.384  34.561   4.986
95398W        W60218  11.382  16.782  14.051
95399W        W60219  19.334   4.950   2.078
95400W        W60220  38.693  30.253   5.142
95401W        W60221  23.292  39.503  11.656
95402W        W60222  28.075  41.431  12.427
95403W        W60223   8.898  37.754  11.454
95404W        W60224  11.207  38.956  13.975
95405W        W60225  11.265  37.180   1.279
95406W        W60226   7.897  27.207   4.078
95407W        W60227  36.617  41.336  11.146
95408W        W60228  26.188  10.107   2.389
95409W        W60229  32.819  36.682   2.811
95410W        W60230   0.190  41.259   1.240
95411W        W60231  32.480  18.184   2.754
95412W        W60232  44.742  36.331  13.933
95413W        W60233  20.616  10.987  12.489
95414W        W60234  25.683  16.756  10.514
95415W        W60235   2.437  44.757  11.969
95416W        W60236  31.957   6.692   3.272
95417W        W60237  28.035  27.099   3.080
95418W        W60238  19.683  19.112   2.782
95419W        W60239   0.491   0.026   2.834
95420W        W60240   3.949  37.849   4.652
95421W        W60241  12.375  25.638  14.617
95422W        W60242  33.660  25.512   3.208
95423W        W60243   1.508  10.081   3.835
95424W        W60244   8.927  26.121  12.014
95425W        W60245  14.202  28.536  14.691
95426W        W60246  13.182  30.954   0.456
95427W        W60247   4.417  21.218  12.982
95428W        W60248  44.692  30.667  13.113
95429W        W60249  17.219  24.730  14.434
95430W        W60250  44.174  38.429   3.279
95431W        W60251  12.865  14.711   3.232
95432W        W60252  25.616  17.720  10.141
95433W        W60253  16.129  37.924  11.961
95434W        W60254  41.411  39.399   2.092
95435W        W60255  43.765   1.525  12.005
95436W        W60256  15.730  16.219   0.747
95437W        W60257  19.922  32.794  13.057
95438W        W60258  14.790  13.720  13.082
95439W        W60259  39.516  22.767  10.901
95440W        W60260  31.075  38.012  12.580
95441W        W60261  36.665   5.820  11.979
95442W        W60262  34.740   1.519   3.875
95443W        W60263   3.996  14.524  14.334
95444W        W60264   6.816   6.593  13.917
95445W        W60265   0.119  12.294  12.994
95446W        W60266   8.293  37.561  14.362
95447W        W60267  41.232  17.529   0.999
95448W        W60268   3.371   0.353  10.582
95449W        W60269  15.083  13.891   0.924
95450W        W60270  23.953   5.712   1.496
95451W        W60271  34.931  12.732  10.745
95452W        W60272  36.930  10.336   3.052
95453W        W60273  12.730  38.740  11.044
95454W        W60274  15.588  38.050  12.812
95455W        W60275  32.482  40.186  12.968
95456W        W60276  26.202  41.780  12.631
95457W        W60277  42.456  41.018   0.928
95458W        W60278  22.705  35.897   0.940
95459W        W60279  34.708  44.838  13.443
95460W        W60280  31.228  23.952  12.484
95461W        W60281  29.248  10.997  13.133
95462W        W60282  16.469  39.316   2.796
95463W        W60283  12.254   0.379  14.975
95464W        W60284  27.936  12.893   4.545
95465W        W60285  37.400  11.946   3.204
95466W        W60286  39.923  35.391  10.659
95467W        W60287  23.029  37.458   4.135
95468W        W60288  23.354  25.088   1.014
95469W        W60289  34.978  11.605  12.402
95470W        W60290  35.852   1.792   0.371
95471W        W60291  23.570  16.770   1.283
95472W        W60292  43.226   4.953   4.203
95473W        W60293   4.918   5.805  14.268
95474W        W60294  13.828   7.342  13.088
95475W        W60295  34.874  39.587  12.502
95476W        W60296  36.572   6.354  11.030
95477W        W60297  42.942  14.750  12.138
95478W        W60298  39.400   8.363   1.763
95479W        W60299  28.609  25.475   4.565
95480W        W60300  37.470  23.974   1.430
95481W        W60301  16.564  26.557  11.155
95482W        W60302  15.440   9.257   5.012
95483W        W60303   0.021  21.219  10.911
95484W        W60304  43.091   7.736   3.787
95485W        W60305  40.290  32.626  13.383
95486W        W60306  44.958   2.969   1.497
95487W        W60307  13.137  37.928   3.753
95488W        W60308   8.036  23.894   4.157
95489W        W60309  13.025  26.584  12.794
95490W        W60310  25.274  10.871   0.920
95491W        W60311   7.960  16.307   4.500
95492W        W60312   7.687   7.321   0.462
95493W        W60313  19.502  33.784   2.897
95494W        W60314  40.133   2.852   4.527
95495W        W60315  36.034  24.810   1.740
95496W        W60316  14.079  21.440   1.989
95497W        W60317   7.151  13.602   2.234
95498W        W60318  21.159  15.251  11.077
95499W        W60319   3.348  34.959  11.430
95500W        W60320  12.641   3.686   2.762
95501W        W60321  17.688  25.711  12.000
95502W        W60322   2.972  42.981  12.691
95503W        W60323  29.080   2.273  14.755
95504W        W60324  33.754  36.509  11.558
95505W        W60325   0.096  16.701  14.023
95506W        W60326  40.838  23.284   0.862
95507W        W60327  36.996  26.667   3.898
95508W        W60328   5.159  26.944   0.920
95509W        W60329  29.910  41.267   1.350
95510W        W60330  30.907   7.175  10.133
95511W        W60331  35.397  12.052   2.248
95512W        W60332   9.683   7.930  11.473
95513W        W60333  21.760  22.041   0.587
95514W        W60334  20.054  34.676  13.052
95515W        W60335  36.346   5.303  12.179
95516W        W60336  23.155  39.080   0.314
95517W        W60337  31.883  40.087   0.818
95518W        W60338  34.865  31.401   1.874
95519W        W60339  31.215  32.887  13.633
95520W        W60340  31.364  43.738   1.018
95521W        W60341  17.333  36.385  14.453
95522W        W60342  28.636  25.026  13.875
95523W        W60343  33.615  12.890   0.901
95524W        W60344  37.069  25.713   4.182
95525W        W60345   0.092   8.695   2.895
95526W        W60346  15.274  26.820   2.383
95527W        W60347  24.276   0.924  12.047
95528W        W60348   1.206  38.484  12.622
95529W        W60349  29.528  14.361  14.559
95530W        W60350   9.283  44.020  12.087
95531W        W60351  41.980  30.201   4.089
95532W        W60352   7.582  27.747   9.783
95533W        W60353   7.663  27.657   0.898
95534W        W60354  14.827   2.316   3.199
95535W        W60355  30.112  10.102  11.198
95536W        W60356  21.290   1.724   3.687
95537W        W60357  19.076  16.060  10.915
95538W        W60358  10.299  42.013  12.831
95539W        W60359  35.125   6.128  13.894
95540W        W60360  37.059   1.576  14.419
95541W        W60361  24.965  15.739   2.755
95542W        W60362  32.716  35.475   1.067
95543W        W60363  20.205  21.148  13.515
95544W        W60364  12.599  37.124  14.449
95545W        W60365   2.438  42.190   2.739
95546W        W60366  37.142  24.242  13.927
95547W        W60367   0.960  41.447  12.015
95548W        W60368   2.218  42.261  11.663
95549W        W60369  31.862  13.647   1.296
95550W        W60370  33.866  24.253   1.351
95551W        W60371   2.051  16.214  12.367
95552W        W60372  11.551  34.819  11.473
95553W        W60373   6.360   8.320   0.215
95554W        W60374  26.361  21.954   3.996
95555W        W60375  20.489  38.031  14.908
95556W        W60376  13.803  41.146  11.688
95557W        W60377   2.922  25.634   1.175
95558W        W60378   4.651  18.072   4.094
95559W        W60379  37.583  42.774  11.680
95560W        W60380   5.128   4.862  14.961
95561W        W60381  36.277   1.689  11.105
95562W        W60382   2.809  38.986   4.122
95563W        W60383  31.191   2.034  11.139
95564W        W60384  14.849   6.388  10.766
95565W        W60385   4.961   1.386  10.668
95566W        W60386  19.534   2.907  13.419
95567W        W60387  15.724  10.314   0.990
95568W        W60388  32.909   2.959   3.250
95569W        W60389  20.148  35.462   2.794
95570W        W60390  15.522  30.462   3.316
95571W        W60391  13.497  36.029  12.654
95572W        W60392  15.750  14.141  13.932
95573W        W60393  42.372   1.015   0.264
95574W        W60394  20.255  16.204  13.408
95575W        W60395   9.378   4.264   4.606
95576W        W60396  26.967   3.112  12.032
95577W        W60397   9.450   1.901  11.117
95578W        W60398   8.239  19.075  10.635
95579W        W60399   5.434  30.145  12.392
95580W        W60400   5.677  42.516   3.612
95581W        W60401  34.730  41.320  14.542
95582W        W60402  10.899  25.151   5.180
95583W        W60403  32.932   1.400   2.411
95584W        W60404  43.439  21.165  13.043
95585W        W60405  31.593  15.716   4.580
95586W        W60406  36.991  13.906  10.620
95587W        W60407  26.657  39.116  10.956
95588W        W60408  27.743  37.926  14.758
95589W        W60409  30.428   3.162  13.410
95590W        W60410  16.568  16.518   2.379
95591W        W60411  30.020   3.958  14.786
95592W        W60412  19.307  24.588  11.495
95593W        W60413  16.976   3.514   1.459
95594W        W60414  42.176  44.231   3.832
95595W        W60415  35.046  22.771   3.410
95596W        W60416  24.438  44.735  14.896
95597W        W60417  30.919  15.241   2.397
95598W        W60418   1.448  37.072  12.373
95599W        W60419   1.852  42.238  14.018
95600W        W60420  11.788  16.012  14.340
95601W        W60421  11.138   2.200   0.862
95602W        W60422  32.470   1.910   4.598
95603W        W60423   4.687   9.110  14.944
95604W        W60424   3.008  14.155   0.683
95605W        W60425   2.772  24.786  11.963
95606W        W60426  34.512  27.600  14.834
95607W        W60427  29.499  41.549   1.489
95608W        W60428  35.151  32.252  12.007
95609W        W60429  38.597  29.508   4.141
95610W        W60430  39.428   8.861  14.925
95611W        W60431  29.635  27.220  13.028
95612W        W60432  28.166  29.298   2.034
95613W        W60433  12.402  22.721   2.144
95614W        W60434  21.559  42.016   0.925
95615W        W60435  39.527   1.472  13.482
95616W        W60436  42.693  36.800   0.819
95617W        W60437  26.323  15.067  11.973
95618W        W60438  42.209   3.102  14.343
95619W        W60439  20.518   6.372   3.808
95620W        W60440   1.897  36.918   2.859
95621W        W60441  14.273  20.890  11.030
95622W        W60442  21.282  36.890   1.910
95623W        W60443  20.646  38.137   0.968
95624W        W60444  30.610  39.082   0.206
95625W        W60445  39.334  25.766   0.367
95626W        W60446   7.211  31.463   4.553
95627W        W60447   1.293  43.599  11.998
95628W        W60448  19.327  10.254  14.949
95629W        W60449  42.447   3.786  10.676
95630W        W60450  33.825  12.767   2.286
95631W        W60451  30.571  10.017   0.929
95632W        W60452  29.575  18.606   0.729
95633W        W60453  13.269  26.557   3.244
95634W        W60454  43.566   2.118  14.634
95635W        W60455   0.868  31.797   4.091
95636W        W60456  19.267   7.787   3.209
95637W        W60457  21.655  36.635   0.475
95638W        W60458  41.013  24.661   4.773
95639W        W60459  30.443  19.561   0.284
95640W        W60460  25.964  44.561   1.854
95641W        W60461  16.682   6.233   4.741
95642W        W60462  29.569  44.962  12.942
95643W        W60463   8.132   2.768   3.245
95644W        W60464  12.963   6.147   2.255
95645W        W60465  17.271  17.638   3.635
95646W        W60466  13.374  24.118  14.581
95647W        W60467  12.874   0.732  12.492
95648W        W60468   9.166  23.443  12.938
95649W        W60469   9.812  23.205   2.303
95650W        W60470   6.459   4.021   1.386
95651W        W60471  30.109  43.581   2.506
95652W        W60472  23.969  14.547  14.022
95653W        W60473  29.471  30.564  14.118
95654W        W60474  44.282  36.980  12.710
95655W        W60475   0.960  14.143  12.093
95656W        W60476  34.665  39.419   2.199
95657W        W60477  38.414  38.632   3.055
95658W        W60478  10.181  19.603   1.273
95659W        W60479   4.090  10.238  13.583
95660W        W60480   7.707   5.542  12.124
95661W        W60481  18.592   7.499  12.802
95662W        W60482   5.231  27.492   0.888
95663W        W60483  22.533  17.591   3.082
95664W        W60484  33.773  18.227   4.602
95665W        W60485  16.170   5.275   3.276
95666W        W60486  40.639  37.889   1.458
95667W        W60487  41.926  22.036  14.120
95668W        W60488  34.553  29.696  12.769
95669W        W60489  31.609  34.123   4.532
95670W        W60490  28.735   1.553   1.767
95671W        W60491   7.250  39.995  12.988
95672W        W60492  35.386  35.361  10.704
95673W        W60493  31.922   4.729   0.706
95674W        W60494  41.661   5.828  14.668
95675W        W60495  40.386   4.436  12.460
95676W        W60496  10.689  20.575   1.892
95677W        W60497  36.949  37.577  11.637
95678W        W60498  43.896   6.912  12.133
95679W        W60499  38.198  34.605  11.609
95680W        W60500  10.070  16.475  12.676
95681W        W60501  38.719  37.289   5.173
95682W        W60502  16.259  39.603   1.335
95683W        W60503  17.187   5.195  11.139
95684W        W60504  15.787   0.882  14.729
95685W        W60505  32.814   2.290  11.922
95686W        W60506  33.092  31.193   0.836
95687W        W60507  18.702  43.515   3.536
95688W        W60508   6.741  34.854  12.008
95689W        W60509  17.612  34.089   2.675
95690W        W60510  19.186  38.909   0.597
95691W        W60511  21.119  21.986   2.301
95692W        W60512   5.410  35.385   1.160
95693W        W60513  35.987  30.984  11.899
95694W        W60514  19.224  17.367  14.385
95695W        W60515  13.736   3.306   1.814
95696W        W60516  42.581  13.542  11.096
95697W        W60517  16.298  14.699   0.282
95698W        W60518  36.327   8.793   3.780
95699W        W60519  16.653  33.935   3.272
95700W        W60520  41.010   1.295  13.695
95701W        W60521   9.592  26.968   1.293
95702W        W60522  27.046   2.520   0.172
95703W        W60523  22.017  12.689   2.542
95704W        W60524   6.484  38.386   4.093
95705W        W60525   4.014  25.721  12.029
95706W        W60526  34.022  18.359  11.931
95707W        W60527  16.839  39.094   0.633
95708W        W60528  10.134  34.109   2.235
95709W        W60529  38.627   2.902  12.036
95710W        W60530  13.231  31.802  10.387
95711W        W60531  10.820  24.251   1.168
95712W        W60532   1.688  11.365  14.997
95713W        W60533  43.665  43.295  12.038
95714W        W60534  25.261   2.472  10.729
95715W        W60535   7.386  43.204   4.572
95716W        W60536  44.514   9.188  12.367
95717W        W60537  11.468  36.160   5.031
95718W        W60538  15.252  38.659  14.944
95719W        W60539  40.085  12.832   2.118
95720W        W60540  21.551  36.092   0.834
95721W        W60541  24.684  24.738  11.583
95722W        W60542  38.384  41.041   4.669
95723W        W60543   7.330   6.189   0.831
95724W        W60544  18.106  21.632   3.783
95725W        W60545  29.735  21.193   0.221
95726W        W60546   0.835  18.564   4.694
95727W        W60547  15.054  43.412   4.150
95728W        W60548  15.016  24.390  13.932
95729W        W60549  21.578  44.920   0.864
95730W        W60550  22.583  31.078  12.417
95731W        W60551   4.901   2.658   0.350
95732W        W60552  33.496  13.343  12.248
95733W        W60553  23.550  15.781   4.726
95734W        W60554  34.939  15.172   0.727
95735W        W60555  36.029   2.432  13.135
95736W        W60556  15.012   5.669  12.927
95737W        W60557  23.945  29.616   4.544
95738W        W60558  22.566  15.615   0.914
95739W        W60559  42.549  40.822  11.638
95740W        W60560   8.796  14.355  14.052
95741W        W60561  10.355  36.498  14.222
95742W        W60562  29.026  30.873  13.747
95743W        W60563  36.655  39.237   2.525
95744W        W60564  41.315  13.303   2.876
95745W        W60565   8.022   6.270  13.741
95746W        W60566  26.098  17.724  11.150
95747W        W60567  34.282  22.661   0.866
95748W        W60568  19.545  28.810  12.894
95749W        W60569  28.110  11.878   2.371
95750W        W60570  36.035   9.288   3.161
95751W        W60571  23.046  36.387  11.179
95752W        W60572  13.544  37.904  13.225
95753W        W60573  19.338  30.906  12.096
95754W        W60574  15.331  20.092   4.863
95755W        W60575   4.238  33.920  11.689
95756W        W60576  42.294  25.585  14.817
95757W        W60577  12.428   4.840   2.265
95758W        W60578  34.393  42.518   4.807
95759W        W60579  38.355  26.187   1.764
95760W        W60580  16.809  39.736  12.047
95761W        W60581  31.628  20.074  14.873
95762W        W60582  42.748  43.649  12.310
95763W        W60583   6.337  27.476  10.167
95764W        W60584  33.303   2.169   0.080
95765W        W60585   5.401   8.379   0.712
95766W        W60586  11.025  29.162  10.711
95767W        W60587   0.163  10.128  12.862
95768W        W60588  24.587  16.063   2.439
95769W        W60589   7.653  11.332   3.622
95770W        W60590  37.628   9.666  13.994
95771W        W60591  26.238   1.575   2.872
95772W        W60592  38.086  38.384  11.896
95773W        W60593  11.404  35.842  14.006
95774W        W60594  12.173   5.344   4.054
95775W        W60595  16.708  21.215  12.033
95776W        W60596  31.771  36.288   5.033
95777W        W60597  42.959  42.013   1.183
95778W        W60598  11.212  12.253   3.866
95779W        W60599  29.523  37.157  13.168
95780W        W60600  34.060  35.447  11.105
95781W        W60601  39.025  31.720  12.018
95782W        W60602  44.792  30.006   3.566
95783W        W60603  40.835  38.951  13.731
95784W        W60604  42.108  14.785   4.701
95785W        W60605   6.220  40.093  12.421
95786W        W60606   6.565   2.849  14.026
95787W        W60607   8.426  43.235  11.212
95788W        W60608   6.343  36.207   0.325
95789W        W60609  37.590  35.686   1.334
95790W        W60610  31.482  42.502  12.364
95791W        W60611   5.360   4.433  13.452
95792W        W60612  36.012  16.589  12.523
95793W        W60613  33.511  37.335  10.167
95794W        W60614   1.811   2.950   5.136
95795W        W60615   8.387   1.142  13.744
95796W        W60616  33.481   8.188   2.539
95797W        W60617  28.756  26.255   4.128
95798W        W60618  28.274  11.734   2.913
95799W        W60619  27.648  18.881  12.136
95800W        W60620  40.731  35.794  14.834
95801W        W60621   9.759   9.554  13.448
95802W        W60622   9.619   8.088   3.680
95803W        W60623  21.118  19.621  11.670
95804W        W60624  35.357  13.089  10.736
95805W        W60625  40.563  14.602  11.050
95806W        W60626   4.006  30.539   2.744
95807W        W60627  23.251  10.407   1.351
95808W        W60628  36.020  42.051  11.732
95809W        W60629  31.877   0.460  11.336
95810W        W60630  42.531  27.184  10.764
95811W        W60631  44.555   3.451  13.934
95812W        W60632  15.126  41.583   2.805
95813W        W60633  19.358   4.893   3.896
95814W        W60634  34.336  34.375  11.639
95815W        W60635   1.916  21.493   3.727
95816W        W60636   7.728   2.669   4.319
95817W        W60637  42.944  15.284  12.479
95818W        W60638  24.633  21.493   4.104
95819W        W60639  33.000   6.833   4.616
95820W        W60640  12.153   8.818  11.679
95821W        W60641   1.212  42.612   2.877
95822W        W60642  24.547  11.416   2.871
95823W        W60643  11.949   8.847  11.173
95824W        W60644  43.491   3.967   3.268
95825W        W60645  26.545   2.761   4.776
95826W        W60646  26.288  25.848  11.480
95827W        W60647  29.032   0.390   2.567
95828W        W60648  14.240   2.716   4.572
95829W        W60649   8.747  16.713  11.571
95830W        W60650  40.567  17.109  14.450
95831W        W60651  29.400   8.659  14.253
95832W        W60652  24.584  15.740   1.657
95833W        W60653   3.764  13.360   3.204
95834W        W60654   9.311  10.729  11.174
95835W        W60655   0.809  30.079  13.390
95836W        W60656   4.387  44.590  13.921
95837W        W60657  19.676  31.199   4.147
95838W        W60658  26.424  23.068   0.291
95839W        W60659  32.717   7.288   1.241
95840W        W60660  22.279  29.912  10.516
95841W        W60661  43.515  26.012  11.572
95842W        W60662  27.629  14.266  12.079
95843W        W60663  33.005  14.681   3.551
95844W        W60664  30.579  17.179   1.679
95845W        W60665   9.781  37.856  11.656
95846W        W60666   6.881  34.541  12.818
95847W        W60667  30.159  36.156  13.407
95848W        W60668  21.082   7.761  11.259
95849W        W60669   4.866  22.761  14.459
95850W        W60670  36.807  31.679   3.329
95851W        W60671  21.247  17.066  14.772
95852W        W60672  37.121  42.617  11.529
95853W        W60673  43.764  24.467  14.039
95854W        W60674   3.694  31.765   2.308
95855W        W60675  40.846  38.355   0.872
95856W        W60676   2.210  11.229  14.968
95857W        W60677   8.211  14.128   3.847
95858W        W60678  18.865  35.301   0.921
95859W        W60679   2.022  12.169  14.466
95860W        W60680  26.671  35.223   0.091
95861W        W60681  41.593  40.986   2.798
95862W        W60682   3.355  43.988  11.513
95863W        W60683  26.502  10.903  11.563
95864W        W60684  32.424  26.736   2.089
95865W        W60685   1.400  24.944   4.651
95866W        W60686   4.306  12.089   3.312
95867W        W60687   1.775   2.552   3.230
95868W        W60688   8.667  25.952   1.252
95869W        W60689   5.279  23.723   1.877
95870W        W60690  31.800  25.606  10.793
95871W        W60691  18.221   3.845  14.815
95872W        W60692  32.493  39.734  13.895
95873W        W60693  14.274   1.746  12.865
95874W        W60694  21.697  28.472   0.471
95875W        W60695   4.757   1.932   2.010
95876W        W60696   4.023  35.004   4.059
95877W        W60697   9.638  43.926   0.895
95878W        W60698  42.763   5.212  14.256
95879W        W60699  18.084  16.665  11.909
95880W        W60700  23.779  19.824   0.385
95881W        W60701  40.445  38.513   2.680
95882W        W60702   3.438   7.877   3.728
95883W        W60703  26.383  27.075   2.367
95884W        W60704   1.818   7.826  13.514
95885W        W60705  40.344  18.028  13.068
95886W        W60706  25.911  33.575  13.819
95887W        W60707  15.929  23.309  10.275
95888W        W60708  28.010   6.894  14.968
95889W        W60709  30.401  14.216  11.550
95890W        W60710  42.252  11.141   0.886
95891W        W60711  29.617  19.562   4.044
95892W        W60712  26.654  18.420   0.233
95893W        W60713  24.429   4.691   1.819
95894W        W60714  43.702   3.365  14.252
95895W        W60715  39.020   0.484  12.179
95896W        W60716  33.906  12.163   3.777
95897W        W60717  43.114  13.353  12.026
95898W        W60718   7.227  23.110  11.206
95899W        W60719  14.379  16.173   3.866
95900W        W60720  25.880  30.402   3.217
95901W        W60721  24.599  36.723  10.856
95902W        W60722  44.063  28.268  10.654
95903W        W60723  23.053  42.933   4.336
95904W        W60724  11.577   1.889   2.366
95905W        W60725   5.654  35.087  14.517
95906W        W60726  33.181  22.389   5.389
95907W        W60727  16.877   0.284  11.651
95908W        W60728   7.748  33.125   3.811
95909W        W60729  10.729  23.422  13.000
95910W        W60730  24.173  26.999   4.121
95911W        W60731  15.774  31.114  11.097
95912W        W60732  26.997  17.381   0.037
95913W        W60733  22.265  43.353  14.415
95914W        W60734  37.142  38.283  11.125
95915W        W60735  34.631  44.663   5.078
95916W        W60736  24.244   3.412   2.236
95917W        W60737  41.487  41.901   1.321
95918W        W60738   0.767   9.222   3.316
95919W        W60739  15.008  17.148   4.185
95920W        W60740   0.877  13.039   0.880
95921W        W60741   0.264  16.994  14.801
95922W        W60742  41.364  39.973   3.348
95923W        W60743  11.755  31.705   4.166
95924W        W60744  34.300   3.197   2.358
95925W        W60745   7.763   1.986  13.923
95926W        W60746  41.407  42.694   4.978
95927W        W60747  41.252  16.280   2.262
95928W        W60748   9.862  20.279  10.690
95929W        W60749  11.863   6.885   3.155
95930W        W60750  40.062  38.553   0.276
95931W        W60751   8.179  29.681  12.981
95932W        W60752  13.235  20.151   4.798
95933W        W60753  36.042  33.984   2.390
95934W        W60754  41.041  30.885   0.844
95935W        W60755  28.103  14.265  13.897
95936W        W60756  22.143  35.820  13.642
95937W        W60757  34.968  32.029  11.085
95938W        W60758  36.529   9.171   4.092
95939W        W60759  20.385  18.015  14.396
95940W        W60760  33.564  18.157   1.865
95941W        W60761  43.846  43.399  14.553
95942W        W60762  41.982  23.966   1.703
95943W        W60763  15.602   7.207   2.921
95944W        W60764   4.487  42.776   2.377
95945W        W60765  15.740  10.319   0.466
95946W        W60766  38.994   1.177   4.311
95947W        W60767   0.198  25.945  14.941
95948W        W60768  18.312  17.134  11.952
95949W        W60769  10.378  38.378   3.185
95950W        W60770  21.962   1.471   4.970
95951W        W60771  22.989   7.462   1.229
95952W        W60772  10.224  24.887  14.533
95953W        W60773   2.871  31.555   4.556
95954W        W60774  30.448   7.612  10.833
95955W        W60775  37.086  33.163  12.829
95956W        W60776  40.638  15.561   2.977
95957W        W60777  42.012   8.331  14.739
95958W        W60778  14.269   0.869  11.620
95959W        W60779  24.224  19.995   2.622
95960W        W60780   6.821  37.032   2.297
95961W        W60781  29.888  17.778  12.440
95962W        W60782  21.776   6.920  10.745
95963W        W60783  11.177   3.011   4.159
95964W        W60784  25.836  12.261  14.507
95965W        W60785  40.145  38.021   1.305
95966W        W60786  35.113  13.005  13.343
95967W        W60787  44.218  19.418  11.902
95968W        W60788  28.825  27.504  12.030
95969W        W60789   7.885  31.349   3.319
95970W        W60790  15.146  11.864   1.933
95971W        W60791  22.150   1.936  14.287
95972W        W60792  42.611   5.817  11.877
95973W        W60793  26.677  30.863   3.626
95974W        W60794  22.472  41.069  13.627
95975W        W60795  30.440  19.429   3.164
95976W        W60796   7.167   5.297   3.175
95977W        W60797  19.078   6.352   1.540
95978W        W60798  28.015  34.136   2.350
95979W        W60799  33.431  27.214   0.293
95980W        W60800   8.347  42.883  12.952
95981W        W60801  36.929   7.001   5.414
95982W        W60802  39.741  16.285  14.726
95983W        W60803  13.178  13.675   1.502
95984W        W60804  39.573  38.162  11.579
95985W        W60805  19.503  32.545  12.830
95986W        W60806   2.677   4.723   0.801
95987W        W60807  37.270  26.029  12.557
95988W        W60808   4.431   4.252   2.805
95989W        W60809  38.103   8.374  14.269
95990W        W60810  37.899   6.862  14.835
95991W        W60811   6.820  22.706  11.414
95992W        W60812  36.709  21.117  12.461
95993W        W60813  27.145  22.719  11.868
95994W        W60814   0.307  20.461   0.876
95995W        W60815   5.240   5.083  12.296
95996W        W60816  19.089  44.240   4.320
95997W        W60817  28.631  17.992   2.268
95998W        W60818  21.930   3.499   0.256
95999W        W60819  44.568   5.230  14.620
96000W        W60820  37.920  39.552  13.064
96001W        W60821  15.371  25.087   0.889
96002W        W60822  16.213   7.131   2.176
96003W        W60823  33.395  26.082  14.184
96004W        W60824  15.295  31.117   0.847
96005W        W60825  16.643  43.469  12.936
96006W        W60826  11.110  25.206   3.262
96007W        W60827   6.641  17.640   2.217
96008W        W60828  36.832  19.019   0.907
96009W        W60829  38.896   5.192   4.668
96010W        W60830  29.227   9.393   2.791
96011W        W60831  42.810   7.080  10.312
96012W        W60832  42.485  37.866  14.096
96013W        W60833  25.735  14.886  11.189
96014W        W60834  35.445  21.624   3.630
96015W        W60835   1.473   6.820   0.363
96016W        W60836   4.234   8.898  14.746
96017W        W60837  14.065  30.078   2.173
96018W        W60838  41.882  13.592   2.835
96019W        W60839  29.705  41.876  13.355
96020W        W60840  37.534  22.455  11.526
96021W        W60841   7.189  34.143  12.905
96022W        W60842  37.530  18.127   1.678
96023W        W60843   5.760   4.334   1.348
96024W        W60844  38.987  28.089   2.763
96025W        W60845  14.046  41.523   1.476
96026W        W60846  18.303  17.779  13.311
96027W        W60847  29.076  30.943   0.543
96028W        W60848  18.494  32.045   0.118
96029W        W60849  23.509  29.833  13.513
96030W        W60850  21.640   3.871   3.109
96031W        W60851   1.918  25.711  12.268
96032W        W60852   7.740  36.098   2.694
96033W        W60853  23.465  14.351  13.421
96034W        W60854  23.104  31.016  12.483
96035W        W60855   2.826  29.651  11.815
96036W        W60856  17.771  11.875  11.966
96037W        W60857  11.915  10.293  13.983
96038W        W60858  19.267   6.429  13.818
96039W        W60859  42.241   1.874   3.523
96040W        W60860   8.396  20.391  13.420
96041W        W60861  20.297  34.290   3.691
96042W        W60862  21.581   5.483   5.415
96043W        W60863   6.701  28.332   3.546
96044W        W60864   4.753   0.049  11.028
96045W        W60865  43.043  37.431  10.606
96046W        W60866  30.590   4.960   3.595
96047W        W60867  14.496  31.458   2.595
96048W        W60868  18.010   9.169   2.429
96049W        W60869   7.773   8.939  11.458
96050W        W60870   8.239  22.124  12.351
96051W        W60871   8.825   3.378   0.363
96052W        W60872  41.769  37.979   4.784
96053W        W60873  13.560  12.809   4.051
96054W        W60874   6.778  33.221  12.914
96055W        W60875  31.012  12.684   4.829
96056W        W60876  41.378   4.934   3.742
96057W        W60877  35.096  22.989   3.995
96058W        W60878  22.829  12.957   1.829
96059W        W60879  10.334  28.115   1.786
96060W        W60880  22.913   5.332   2.465
96061W        W60881   4.801  33.666   2.491
96062W        W60882  27.567  43.042  12.608
96063W        W60883  40.044  42.507  12.547
96064W        W60884  37.264  39.991   4.009
96065W        W60885  41.812  38.936   4.320
96066W        W60886  30.952   0.238  13.537
96067W        W60887  26.894  35.249   4.120
96068W        W60888  16.155   7.418  14.233
96069W        W60889  23.814  26.676  14.066
96070W        W60890  32.070   1.495   2.829
96071W        W60891  16.710  17.836  10.775
96072W        W60892  11.284   9.785  14.515
96073W        W60893  37.366   1.370  10.997
96074W        W60894  22.512  34.435   4.590
96075W        W60895  12.250  10.230  10.565
96076W        W60896  43.340  12.915   2.694
96077W        W60897  15.625   3.524  13.819
96078W        W60898   0.874  28.166   3.862
96079W        W60899   1.244  25.491   1.824
96080W        W60900   8.744  27.149  12.974
96081W        W60901  22.002  41.211   4.865
96082W        W60902   4.688  10.837   0.842
96083W        W60903   9.698  32.259  13.490
96084W        W60904   7.413  15.331  11.230
96085W        W60905  37.546   6.194   0.356
96086W        W60906  11.317  29.586  12.113
96087W        W60907  20.066  20.130  10.923
96088W        W60908  29.474  37.959  11.725
96089W        W60909  25.290   2.806   0.740
96090W        W60910  44.922  10.835  10.297
96091W        W60911   0.230   5.717   3.762
96092W        W60912  34.494  39.473   1.339
96093W        W60913  37.956  40.432  12.139
96094W        W60914  12.930   3.988  13.702
96095W        W60915  40.562  11.667   4.691
96096W        W60916  22.219   5.133   0.419
96097W        W60917  17.733  42.980   1.833
96098W        W60918  12.645  43.745   0.835
96099W        W60919  36.795  40.643   2.799
96100W        W60920  20.131  41.479  10.608
96101W        W60921  38.092  28.933   3.376
96102W        W60922  14.774   2.648  12.026
96103W        W60923  29.085  30.261  12.908
96104W        W60924   1.829  33.353   4.093
96105W        W60925  10.275  33.582   3.838
96106W        W60926  31.630  15.486   1.421
96107W        W60927  41.889  14.041   3.086
96108W        W60928   3.261   4.757  12.056
96109W        W60929  32.817  33.217  11.103
96110W        W60930   6.997  42.760   0.365
96111W        W60931   5.910  27.232   1.296
96112W        W60932  33.322  10.824   1.741
96113W        W60933   4.374  34.478   1.826
96114W        W60934  25.506  14.083   0.755
96115W        W60935  19.647  43.222  14.020
96116W        W60936   2.476  39.966  14.379
96117W        W60937  23.050  14.338   0.829
96118W        W60938  22.876   1.893   1.043
96119W        W60939  31.262  18.692  11.980
96120W        W60940   6.349  24.530   4.511
96121W        W60941   5.049  20.252   1.810
96122W        W60942   6.789  34.583  14.196
96123W        W60943  36.442  36.072   4.662
96124W        W60944   4.058  29.221  11.709
96125W        W60945   0.183  10.978   2.616
96126W        W60946   6.778  42.539   2.725
96127W        W60947  27.608  20.989  10.524
96128W        W60948  44.482  36.076   3.692
96129W        W60949   9.639  44.856   2.184
96130W        W60950   6.078  12.916   0.333
96131W        W60951  22.284   4.736  14.483
96132W        W60952   8.872   5.408   2.690
96133W        W60953   7.384  40.429  13.436
96134W        W60954  22.486  28.713  12.546
96135W        W60955  44.725  15.137  11.922
96136W        W60956  44.371  12.764   3.683
96137W        W60957  31.616   7.345  14.075
96138W        W60958  22.550  16.382   1.430
96139W        W60959   1.424  36.642   2.824
96140W        W60960  30.476  44.020  11.939
96141W        W60961  29.870  42.177  11.153
96142W        W60962  33.905  42.186  14.868
96143W        W60963  19.736   3.166  14.815
96144W        W60964  16.158  24.516  12.950
96145W        W60965   2.468   8.045   0.709
96146W        W60966  16.040   5.052  13.798
96147W        W60967  13.637  34.935  13.579
96148W        W60968  22.154   1.857  14.800
96149W        W60969  33.612  43.956   0.267
96150W        W60970   0.870  10.097  14.446
96151W        W60971  23.114  19.694  12.286
96152W        W60972  29.062  12.275   4.517
96153W        W60973  11.004  18.925   4.143
96154W        W60974  32.596   6.172  13.367
96155W        W60975   0.561  19.620  13.102
96156W        W60976  39.013  30.472  12.834
96157W        W60977  24.940  38.003  13.352
96158W        W60978   4.239  13.403   1.735
96159W        W60979  33.735  13.751  11.536
96160W        W60980  13.094  34.058  14.907
96161W        W60981  42.131  16.189  14.809
96162W        W60982  16.716  10.190   2.251
96163W        W60983  43.427  18.076  10.795
96164W        W60984   9.619  27.089   3.882
96165W        W60985  10.007  22.321  14.772
96166W        W60986   1.401  31.929  12.383
96167W        W60987   8.364  32.355   0.707
96168W        W60988  23.809  10.265  14.433
96169W        W60989  28.671  30.407  11.059
96170W        W60990  43.881  20.112   0.424
96171W        W60991  15.028  36.073  14.848
96172W        W60992  43.767  34.054   2.388
96173W        W60993   8.317  41.539   2.007
96174W        W60994  35.155   6.317   4.369
96175W        W60995  15.178  43.997   3.520
96176W        W60996  31.000  19.306   0.470
96177W        W60997  40.519  37.117   1.027
96178W        W60998  22.783   4.430   1.515
96179W        W60999   5.146  11.362  10.608
96180W        W61000  23.518  12.045  14.809
96181W        W61001  38.533  28.178  11.151
96182W        W61002  37.854  24.529   0.783
96183W        W61003   4.218  36.991  10.849
96184W        W61004  25.042   2.366   2.637
96185W        W61005   9.897  20.656   2.133
96186W        W61006   1.973  39.805   1.778
96187W        W61007  29.856  37.944  10.197
96188W        W61008  22.123   1.796   4.075
96189W        W61009  42.054  34.895   3.336
96190W        W61010  33.547  42.520  11.852
96191W        W61011  16.139  24.783   5.086
96192W        W61012  18.464   3.807   2.769
96193W        W61013  22.943  38.706  13.808
96194W        W61014   6.470  40.763   2.641
96195W        W61015  33.016  43.266   3.161
96196W        W61016  32.541  38.777   0.726
96197W        W61017  25.093  29.949  10.912
96198W        W61018  43.853   8.757   3.299
96199W        W61019   2.751   2.464  13.900
96200W        W61020  11.334  21.668   2.278
96201W        W61021   8.288   4.220   2.728
96202W        W61022  25.301  38.259  13.962
96203W        W61023   6.512  18.252  10.763
96204W        W61024  34.974  19.494   1.265
96205W        W61025  36.658  34.503  13.903
96206W        W61026  14.076  17.633   3.085
96207W        W61027  13.841  20.043   0.483
96208W        W61028  31.381   9.704  14.561
96209W        W61029  34.288  40.332  11.077
96210W        W61030  20.589  29.857   2.094
96211W        W61031  22.970  25.450  11.149
96212W        W61032  35.031  31.008   2.715
96213W        W61033   6.472  39.276   0.063
96214W        W61034  12.813  19.238   0.367
96215W        W61035  38.904   4.743  12.071
96216W        W61036  36.345   9.588   0.381
96217W        W61037   2.662   6.534  14.763
96218W        W61038  18.236  24.047   3.857
96219W        W61039   8.264  19.187  14.239
96220W        W61040  26.220  35.736   2.888
96221W        W61041  36.838  14.310  11.018
96222W        W61042  12.667  41.072  13.428
96223W        W61043  11.679  15.372   0.460
96224W        W61044  42.812  11.477  12.332
96225W        W61045  31.220   9.327  12.533
96226W        W61046  10.594   3.144   3.727
96227W        W61047   4.713  10.394  14.520
96228W        W61048  12.392  28.384  12.459
96229W        W61049  41.436  37.845  12.028
96230W        W61050  17.858  15.683   0.372
96231W        W61051  13.996   4.873  12.506
96232W        W61052  40.586  44.495  14.316
96233W        W61053  38.930  38.846   3.603
96234W        W61054  19.195  43.443   4.838
96235W        W61055   4.722  15.639  13.862
96236W        W61056  26.701  10.423   3.602
96237W        W61057  19.836   2.964   1.020
96238W        W61058  16.632  23.180   3.303
96239W        W61059  37.897  44.030  13.020
96240W        W61060  30.418   5.184   4.449
96241W        W61061  10.326  30.333  12.966
96242W        W61062   5.268   3.936  14.905
96243W        W61063  29.233  18.281  10.646
96244W        W61064  16.026  23.562   2.380
96245W        W61065  25.086   7.401  11.481
96246W        W61066  37.639  12.151  13.040
96247W        W61067  32.885  22.971   2.280
96248W        W61068  33.150  25.483  12.449
96249W        W61069   1.299  23.547  12.282
96250W        W61070  42.000  11.867  10.739
96251W        W61071  14.645  34.975  13.331
96252W        W61072   0.073   2.863  10.565
96253W        W61073  41.977   7.371   4.720
96254W        W61074  19.206  42.984   0.563
96255W        W61075  30.682  34.447   2.396
96256W        W61076  21.013  41.366   4.051
96257W        W61077  21.086  37.938  11.377
96258W        W61078  41.661  14.665   4.444
96259W        W61079  29.149   5.921  12.813
96260W        W61080  37.955  41.792   0.665
96261W        W61081  11.134   9.348   2.848
96262W        W61082   5.993  10.140  11.724
96263W        W61083  44.722  29.981   0.345
96264W        W61084  38.815  31.917   0.663
96265W        W61085  34.091  31.581   0.898
96266W        W61086  35.948  20.387  12.935
96267W        W61087  33.633   0.968  12.090
96268W        W61088   5.968  34.852   2.759
96269W        W61089   1.474  10.222  12.511
96270W        W61090  16.293  19.904  13.925
96271W        W61091  42.277  35.821   0.928
96272W        W61092   8.958   7.346  12.995
96273W        W61093   3.033  17.114   0.978
96274W        W61094  24.109   9.086   2.599
96275W        W61095  12.502  19.650   0.345
96276W        W61096  39.262  16.425   1.346
96277W        W61097  26.098  34.852  14.896
96278W        W61098  31.409   9.755   4.027
96279W        W61099  30.515   1.877   0.376
96280W        W61100   0.834  13.112  11.952
96281W        W61101  42.060  16.572  11.964
96282W        W61102   7.696  34.880   0.536
96283W        W61103  40.222   4.958   2.136
96284W        W61104  27.243  21.616   4.202
96285W        W61105  37.599  17.203   2.257
96286W        W61106  28.062  43.412   3.215
96287W        W61107  38.764   1.428  12.874
96288W        W61108   9.890  42.560   1.760
96289W        W61109  29.127   1.265   2.475
96290W        W61110   0.187  42.330  10.907
96291W        W61111  41.319  31.342   0.893
96292W        W61112  38.274  29.639  11.264
96293W        W61113  39.013   5.395  14.482
96294W        W61114  34.542  29.572  14.883
96295W        W61115   8.195  14.210   0.247
96296W        W61116  31.864   2.711  11.964
96297W        W61117   1.491  22.977   4.798
96298W        W61118  13.690  42.430   0.299
96299W        W61119  18.995  42.034  11.606
96300W        W61120   4.841  24.989  12.905
96301W        W61121  15.008  20.139  11.168
96302W        W61122  28.419   5.439   2.749
96303W        W61123  11.285  10.631   3.732
96304W        W61124   2.069  44.093  12.913
96305W        W61125  32.145  38.509   4.917
96306W        W61126   7.442   4.829  14.416
96307W        W61127  35.817   2.689   0.402
96308W        W61128  22.463  33.151  12.426
96309W        W61129  33.006  12.943   0.365
96310W        W61130  33.420   1.945  12.931
96311W        W61131  42.247  42.566  10.759
96312W        W61132  41.788   4.657   0.352
96313W        W61133   8.437  29.934   1.831
96314W        W61134  20.766  35.836   3.298
96315W        W61135  27.754  21.779  14.479
96316W        W61136  22.225  17.708   2.270
96317W        W61137  14.560  29.142  12.983
96318W        W61138  26.052  28.579   0.358
96319W        W61139  31.563   6.279  13.810
96320W        W61140  27.588  18.691  11.647
96321W        W61141   3.408  15.890   0.508
96322W        W61142  32.701   7.782   3.520
96323W        W61143   7.250   5.963  11.524
96324W        W61144  16.249  42.575  12.985
96325W        W61145   3.283  41.089   0.498
96326W        W61146  41.825  16.588  14.046
96327W        W61147  42.731  34.063   0.472
96328W        W61148  42.303   6.209   2.713
96329W        W61149  10.589   7.276   0.781
96330W        W61150  14.365  11.579   3.982
96331W        W61151   9.798  11.427   3.676
96332W        W61152   3.813  17.847   4.013
96333W        W61153  29.376   6.361   3.646
96334W        W61154   4.310  30.038  14.927
96335W        W61155  10.711  18.093  11.893
96336W        W61156  11.747  33.188  14.822
96337W        W61157  40.582   2.731  11.018
96338W        W61158  15.289  26.154   3.662
96339W        W61159  32.767  35.087  12.959
96340W        W61160  40.492  29.778   1.274
96341W        W61161  18.860  41.415  14.962
96342W        W61162  29.202  18.767  14.029
96343W        W61163  42.629  18.983   2.185
96344W        W61164   9.653  32.369  12.128
96345W        W61165   5.297  10.933  14.170
96346W        W61166  23.445  12.551  13.992
96347W        W61167   5.236  37.365  12.547
96348W        W61168  18.206  14.000   4.782
96349W        W61169  22.270  12.027   3.667
96350W        W61170  24.030   6.316  14.331
96351W        W61171  12.773  36.774   3.735
96352W        W61172  13.251   6.707   0.335
96353W        W61173  22.584  44.311  10.738
96354W        W61174  14.755   1.869   4.281
96355W        W61175  43.358   9.933   2.881
96356W        W61176  40.715  24.048   0.776
96357W        W61177   3.779  40.552  13.563
96358W        W61178   8.807  25.474  13.737
96359W        W61179  23.479  13.841  12.049
96360W        W61180  10.287  34.620   4.534
96361W        W61181  29.356   4.532  13.443
96362W        W61182  11.892   4.809   4.182
96363W        W61183  29.054  37.385  14.134
96364W        W61184  19.233  28.929   3.614
96365W        W61185   5.868  23.371   5.358
96366W        W61186  38.241   7.596  13.905
96367W        W61187   9.897   6.219  10.508
96368W        W61188   9.679  17.256  12.494
96369W        W61189  41.509  19.197  11.734
96370W        W61190  13.941   9.758   4.945
96371W        W61191   6.180  14.674  11.164
96372W        W61192  39.873  29.972   4.186
96373W        W61193   5.355   3.145   0.352
96374W        W61194   9.150   0.334   0.461
96375W        W61195  40.347  27.777   0.320
96376W        W61196  28.660   3.713  13.016
96377W        W61197  27.957  17.322  13.038
96378W        W61198  32.191  32.934  12.091
96379W        W61199  19.744   3.221  10.877
96380W        W61200  36.890  39.787  14.800
96381W        W61201   4.719   0.154   0.326
96382W        W61202  39.217  18.624  13.847
96383W        W61203  43.389  35.949   4.511
96384W        W61204   1.229  21.820  13.861
96385W        W61205  17.498  20.210   2.167
96386W        W61206  10.558  17.611   0.957
96387W        W61207  43.262  12.260   0.114
96388W        W61208  42.742  38.828   0.995
96389W        W61209  21.785  17.200  13.899
96390W        W61210  33.052  41.402  11.078
96391W        W61211   4.982  43.266  11.930
96392W        W61212  24.678   2.931   1.354
96393W        W61213   6.857  22.782   3.755
96394W        W61214  33.206  38.959   0.288
96395W        W61215  32.917  33.924  13.899
96396W        W61216  36.315  42.338  12.029
96397W        W61217  36.443  28.030   3.207
96398W        W61218  43.804  41.989  14.162
96399W        W61219  29.186   4.863  11.566
96400W        W61220  39.520  25.544  13.939
96401W        W61221  39.820   2.579  14.912
96402W        W61222  32.951  31.430   3.224
96403W        W61223  24.624  20.704  12.510
96404W        W61224  42.935  30.191   3.657
96405W        W61225  16.757  40.777  11.971
96406W        W61226  35.817  26.585   2.770
96407W        W61227  12.674  18.607   1.105
96408W        W61228  39.231  12.511   3.562
96409W        W61229  24.265  32.068  10.808
96410W        W61230  27.094  10.205  13.351
96411W        W61231  22.086  44.483  10.704
96412W        W61232   5.551   4.779  10.819
96413W        W61233  10.360   5.038  10.736
96414W        W61234  28.953  15.705  10.690
96415W        W61235   4.441  34.859  12.107
96416W        W61236  27.414   3.535   1.694
96417W        W61237  35.674  30.563   2.156
96418W        W61238  13.657  12.321  11.322
96419W        W61239  40.265  32.118   0.681
96420W        W61240  16.962  43.455   1.716
96421W        W61241  10.313  25.687   1.686
96422W        W61242  39.645  23.675   3.077
96423W        W61243  28.223  38.981  10.970
96424W        W61244  31.130  37.341  12.063
96425W        W61245  36.080  26.719   3.208
96426W        W61246  11.066  33.103   1.631
96427W        W61247  22.925  44.412  14.763
96428W        W61248   4.333   1.996  11.230
96429W        W61249  39.048  19.035   3.435
96430W        W61250   9.706  19.264   1.993
96431W        W61251  33.674  37.090   2.938
96432W        W61252  32.117  21.524  11.705
96433W        W61253  10.745  41.239   0.513
96434W        W61254  18.822   2.417   2.279
96435W        W61255  41.864  30.246  14.457
96436W        W61256  35.420  39.524   4.594
96437W        W61257  26.721  25.716   3.294
96438W        W61258  22.657  31.616  12.443
96439W        W61259  38.739  44.417   2.745
96440W        W61260  14.080  35.919   2.404
96441W        W61261   1.292  28.883  10.720
96442W        W61262  35.464   1.044  11.503
96443W        W61263   3.256   5.330  13.791
96444W        W61264  10.818  25.673   3.470
96445W        W61265  39.582  38.072  14.891
96446W        W61266  28.463  10.617  10.734
96447W        W61267   2.963  29.182   2.845
96448W        W61268  44.692  10.262   3.603
96449W        W61269  25.995  41.070  13.068
96450W        W61270  36.256  22.129  11.550
96451W        W61271  25.675  19.339  12.047
96452W        W61272  26.583  18.949  14.324
96453W        W61273  37.916  14.363  10.676
96454W        W61274   8.605  38.307   4.870
96455W        W61275  21.751  16.296   0.197
96456W        W61276  44.429  38.458   2.816
96457W        W61277  15.852  41.248  14.298
96458W        W61278  11.922   0.038   1.802
96459W        W61279  36.067  12.099  12.010
96460W        W61280   8.728  17.560   0.807
96461W        W61281  26.239  22.562   4.999
96462W        W61282   9.288  29.756  12.412
96463W        W61283  21.682  23.308   0.676
96464W        W61284  44.361  13.616  12.093
96465W        W61285  16.111  38.027  12.886
96466W        W61286  35.686  22.454  13.943
96467W        W61287  23.794  43.267   3.699
96468W        W61288  10.296  15.291  11.861
96469W        W61289  38.377  20.063  11.570
96470W        W61290   2.889  19.748   0.698
96471W        W61291  39.968  28.651   3.829
96472W        W61292  35.151  37.347   0.412
96473W        W61293   9.397  31.809   9.851
96474W        W61294   5.739   5.673   3.083
96475W        W61295   2.895  34.071   0.361
96476W        W61296  23.835   6.689   1.765
96477W        W61297  29.880  30.418  12.437
96478W        W61298   5.565   7.260   3.337
96479W        W61299  41.394   1.682   0.330
96480W        W61300  43.951  23.812   0.824
96481W        W61301  21.689  41.333   1.313
96482W        W61302  21.624  43.469   3.558
96483W        W61303  28.900   7.304   2.466
96484W        W61304   1.817   5.207  14.000
96485W        W61305   2.709  35.099  14.006
96486W        W61306  27.702  43.008  13.135
96487W        W61307  36.214  23.448   4.580
96488W        W61308  33.930   5.107   0.888
96489W        W61309  21.094  20.800   3.140
96490W        W61310  23.002  18.198  14.572
96491W        W61311  30.154   4.649   4.860
96492W        W61312  37.598  15.555   1.168
96493W        W61313  38.339  36.154  14.935
96494W        W61314  28.660  40.983   0.389
96495W        W61315  16.596   9.210   3.657
96496W        W61316  44.043  22.033   4.142
96497W        W61317  29.950  44.844   4.627
96498W        W61318   9.775   2.154  14.882
96499W        W61319  24.189  27.529   1.228
96500W        W61320  34.917  25.113   0.214
96501W        W61321  40.470  28.101   4.676
96502W        W61322  30.230  24.479  14.743
96503W        W61323  43.524  26.943   2.160
96504W        W61324   4.444  43.319  11.526
96505W        W61325  26.664   2.432  10.990
96506W        W61326  21.669  34.613  11.659
96507W        W61327   6.337  30.390  12.994
96508W        W61328  39.396  42.352   3.885
96509W        W61329   1.161  12.796   1.885
96510W        W61330  20.328   2.421  14.340
96511W        W61331  31.045   1.970   0.343
96512W        W61332  24.949  44.788  14.986
96513W        W61333   6.783  44.382  14.726
96514W        W61334   6.450  31.563  10.757
96515W        W61335  20.710   8.849   0.022
96516W        W61336  13.759   3.268  11.735
96517W        W61337  32.596  31.932  10.641
96518W        W61338  24.511   7.576   1.938
96519W        W61339  29.460  38.936  12.091
96520W        W61340  22.324  28.528   1.657
96521W        W61341  31.715  15.184  12.061
96522W        W61342  25.381   1.951  12.024
96523W        W61343  10.102   7.329   1.969
96524W        W61344  29.686   6.613  10.874
96525W        W61345  36.930  24.689  10.854
96526W        W61346  28.069  29.006  13.929
96527W        W61347  18.036  34.226   3.404
96528W        W61348   8.324  36.784  14.949
96529W        W61349  21.134   4.034  12.540
96530W        W61350  33.359  19.798   0.581
96531W        W61351  23.008  32.432  12.381
96532W        W61352  19.334  41.433   3.284
96533W        W61353  15.128  37.484   2.068
96534W        W61354   7.486  30.860  11.999
96535W        W61355  16.357   9.143  11.954
96536W        W61356  16.555  15.758   0.805
96537W        W61357  39.461  40.997  11.088
96538W        W61358   6.239   1.869  12.431
96539W        W61359  41.264  29.435   2.773
96540W        W61360  15.713  28.486   4.326
96541W        W61361  25.964  34.948   1.308
96542W        W61362  19.781   1.735  11.565
96543W        W61363   1.756  39.279  10.775
96544W        W61364   9.231  11.896  10.508
96545W        W61365   9.927   1.768  13.512
96546W        W61366   5.369  10.657   4.442
96547W        W61367  21.723  36.601   2.801
96548W        W61368  16.366  34.753   2.395
96549W        W61369   7.498   7.706  12.149
96550W        W61370  31.016   5.948   2.281
96551W        W61371  13.871  38.976  11.256
96552W        W61372  13.138  20.121  14.035
96553W        W61373  35.211  12.806   4.138
96554W        W61374  13.704  32.410   5.084
96555W        W61375  27.948  40.927   1.203
96556W        W61376   7.234  41.502   0.234
96557W        W61377  33.084  16.737   2.683
96558W        W61378  24.508  27.554   1.657
96559W        W61379  27.692   3.341  10.832
96560W        W61380  37.028   2.336  12.901
96561W        W61381  39.872  16.504  11.174
96562W        W61382   5.768   3.850  10.409
96563W        W61383  36.492  33.986   4.587
96564W        W61384  22.891  35.456  14.762
96565W        W61385  24.234   0.234   0.745
96566W        W61386  42.225  41.042   0.457
96567W        W61387  29.266   7.288  10.324
96568W        W61388  24.537   8.786   1.222
96569W        W61389   4.867   2.281  10.572
96570W        W61390  11.393  42.792  10.762
96571W        W61391  13.865  32.119   0.332
96572W        W61392  15.443  34.068  11.554
96573W        W61393  29.669  21.144  10.942
96574W        W61394  19.265  42.137  12.434
96575W        W61395   0.971  23.267   2.642
96576W        W61396  19.968  36.052  11.665
96577W        W61397   6.141  17.545   2.263
96578W        W61398   6.711  12.574   1.360
96579W        W61399  38.065   9.420  13.837
96580W        W61400  25.475  24.263   3.738
96581W        W61401   6.593   0.811  12.901
96582W        W61402  28.980  16.934   1.769
96583W        W61403  39.782  23.421  14.703
96584W        W61404  33.521  22.657   0.072
96585W        W61405  38.807  41.643   3.621
96586W        W61406  13.945  15.481   3.157
96587W        W61407  11.658   8.439  11.200
96588W        W61408   2.053  26.394  14.230
96589W        W61409  39.272   3.786   2.677
96590W        W61410  33.123  25.000   0.980
96591W        W61411  38.892  42.837  12.414
96592W        W61412  36.391  39.858  14.962
96593W        W61413  41.377   8.152   3.170
96594W        W61414  26.600  12.386   0.898
96595W        W61415  40.406   9.350  13.111
96596W        W61416  13.370  21.604   0.941
96597W        W61417  33.903   4.300  11.495
96598W        W61418  34.170  15.132  10.778
96599W        W61419   7.893  22.159  11.319
96600W        W61420  11.218  16.692   4.343
96601W        W61421  35.044  35.561  11.082
96602W        W61422   8.471  22.243   2.523
96603W        W61423  21.704  33.903   4.977
96604W        W61424   1.224  33.412   0.398
96605W        W61425  18.686   8.456  14.077
96606W        W61426  16.865   6.756  12.104
96607W        W61427  44.416  22.749   4.087
96608W        W61428   2.728  27.424   4.486
96609W        W61429   4.920  21.858   3.801
96610W        W61430  10.861  14.296  10.812
96611W        W61431  38.900  11.987   4.817
96612W        W61432  38.959  11.750  12.639
96613W        W61433   5.656  11.613   2.649
96614W        W61434  18.844  37.439  13.035
96615W        W61435  18.583  43.731  11.176
96616W        W61436   6.187  35.750   3.759
96617W        W61437  19.942  33.579  13.556
96618W        W61438  35.949   4.213  11.932
96619W        W61439  21.275  40.268  10.693
96620W        W61440   7.443  44.763   1.320
96621W        W61441   0.534   5.904  11.687
96622W        W61442  24.664  22.568   4.167
96623W        W61443  14.179   6.805  11.956
96624W        W61444   2.188  43.110   1.365
96625W        W61445  40.412  10.786   2.981
96626W        W61446  19.106  37.136  14.816
96627W        W61447   6.789  23.283   0.367
96628W        W61448  40.489   6.679  14.427
96629W        W61449   6.159   6.256  12.074
96630W        W61450  42.938  31.684   3.627
96631W        W61451  11.236  36.904   0.806
96632W        W61452   3.734  10.124   2.596
96633W        W61453  34.567  23.540   1.245
96634W        W61454  19.713  43.002  13.281
96635W        W61455   2.442   9.409   2.296
96636W        W61456  40.244  21.143   3.664
96637W        W61457   1.535  20.524  13.467
96638W        W61458   4.882  17.548   0.871
96639W        W61459  15.143  27.643   1.708
96640W        W61460  14.446  36.106   2.022
96641W        W61461  44.190  40.491   0.538
96642W        W61462  41.360  22.789   1.363
96643W        W61463  39.185  36.356  10.687
96644W        W61464  26.275  43.836  12.440
96645W        W61465   4.467  17.601   3.364
96646W        W61466  35.945   6.685   3.199
96647W        W61467  18.748  42.322   3.666
96648W        W61468  32.877  30.581  14.983
96649W        W61469  24.897  29.565  13.520
96650W        W61470  29.218  43.036   2.472
96651W        W61471  34.685  44.330  11.813
96652W        W61472  25.728  23.821   3.737
96653W        W61473  35.325  43.478   3.233
96654W        W61474  23.751  28.522  14.067
96655W        W61475   6.688  20.762   2.648
96656W        W61476  28.574  35.614  14.955
96657W        W61477   1.704  35.596   2.240
96658W        W61478   2.252  41.140   3.189
96659W        W61479  41.281  24.194   3.382
96660W        W61480   6.725   3.198   0.032
96661W        W61481   3.753  14.804  13.132
96662W        W61482  25.835  22.090  13.270
96663W        W61483  27.190  26.400  11.489
96664W        W61484  33.526  43.257   1.344
96665W        W61485   4.534   7.990   1.935
96666W        W61486  10.703   1.896  13.831
96667W        W61487   9.829  19.062  11.981
96668W        W61488  30.330  13.198   3.803
96669W        W61489  44.808   0.433  14.927
96670W        W61490   4.334   7.616   2.326
96671W        W61491  36.036   1.188  12.584
96672W        W61492  29.991   6.244  10.678
96673W        W61493  38.269   0.346   2.758
96674W        W61494  24.074  29.843   5.058
96675W        W61495   6.267  12.372  11.170
96676W        W61496  44.948   0.386  13.537
96677W        W61497  18.608  24.058  12.171
96678W        W61498   7.645  41.765  10.828
96679W        W61499  39.661  33.019   0.900
96680W        W61500  24.717  22.600  13.426
96681W        W61501  24.026  24.014   2.826
96682W        W61502   6.422   8.697  12.608
96683W        W61503   8.267  43.028  11.662
96684W        W61504  13.766  41.336  13.071
96685W        W61505  40.552   5.306  11.586
96686W        W61506  31.149  21.533   2.184
96687W        W61507  20.250  13.212   2.915
96688W        W61508  17.990  30.687  12.987
96689W        W61509  40.349  29.629   4.528
96690W        W61510  36.928  27.040   4.691
96691W        W61511  34.845  29.249   2.599
96692W        W61512  21.177   4.271   0.865
96693W        W61513  18.555  38.468   1.711
96694W        W61514  20.708  18.477   3.824
96695W        W61515   2.662  10.269  11.655
96696W        W61516   4.979  28.168   3.197
96697W        W61517  19.162  44.481   2.828
96698W        W61518  13.462  22.724  12.387
96699W        W61519  14.681  41.137  10.263
96700W        W61520   5.733  37.029   0.462
96701W        W61521  29.548  31.673   0.158
96702W        W61522  21.250  15.290   3.831
96703W        W61523   3.878  24.056   2.955
96704W        W61524   3.497   8.931   4.501
96705W        W61525  11.765  19.829   3.573
96706W        W61526   6.863  38.172   3.809
96707W        W61527  17.142  24.995   2.817
96708W        W61528   4.337  42.823  14.344
96709W        W61529  15.708  24.000   2.237
96710W        W61530   4.726  14.106  11.151
96711W        W61531  12.428  11.898   1.750
96712W        W61532   7.448  31.116   0.513
96713W        W61533   1.452   7.618   1.885
96714W        W61534  40.408  32.247  14.282
96715W        W61535  11.699  36.565   3.887
96716W        W61536  34.021  36.929  11.275
96717W        W61537  24.770   6.032  11.817
96718W        W61538  44.449  37.333   3.331
96719W        W61539  28.679  20.205  12.839
96720W        W61540   4.376  32.362  10.738
96721W        W61541  25.649  38.647  14.850
96722W        W61542  20.599  10.115   2.366
96723W        W61543   5.337  13.634   4.476
96724W        W61544  21.471  26.147  11.206
96725W        W61545   1.027  37.444   0.783
96726W        W61546  21.215  33.451  14.427
96727W        W61547  22.807  43.963  11.942
96728W        W61548  40.610  26.735   1.332
96729W        W61549  15.712  21.307  12.436
96730W        W61550   5.377  16.239   4.943
96731W        W61551  20.473   4.198   3.278
96732W        W61552  40.199  39.960  13.550
96733W        W61553  10.417   1.718   1.307
96734W        W61554   4.339  32.867  10.705
96735W        W61555   2.100  13.344   4.188
96736W        W61556   0.955  25.241  14.780
96737W        W61557  31.820   0.871   1.122
96738W        W61558  42.451   4.740   5.130
96739W        W61559  17.047  25.122   1.814
96740W        W61560  26.268  19.966  14.980
96741W        W61561  19.605  25.906   5.019
96742W        W61562  40.857  43.910   3.357
96743W        W61563  30.477  31.546   3.164
96744W        W61564   8.050  15.706  13.273
96745W        W61565  19.718  24.654  14.405
96746W        W61566  33.174  42.938  14.002
96747W        W61567  35.525  26.106  13.127
96748W        W61568  24.501  44.990   3.653
96749W        W61569   9.164  20.510   3.683
96750W        W61570   1.999  39.285   2.696
96751W        W61571  28.182   1.390   2.424
96752W        W61572   9.063  44.774  12.250
96753W        W61573   4.750  19.395   4.481
96754W        W61574  24.950  41.010   0.745
96755W        W61575  14.643  13.474  12.542
96756W        W61576   9.256  42.173  13.574
96757W        W61577  15.862  43.431   3.835
96758W        W61578   9.862   0.548   3.204
96759W        W61579   1.350  23.126  13.748
96760W        W61580   7.876  34.511   4.777
96761W        W61581  31.701  13.500  11.997
96762W        W61582  31.503  29.350   3.130
96763W        W61583  23.737   6.749  11.533
96764W        W61584  12.431   0.201   1.764
96765W        W61585   3.337  17.371   4.141
96766W        W61586  18.885  33.938  10.281
96767W        W61587  16.590  10.202  13.455
96768W        W61588   6.139  13.637   2.805
96769W        W61589  35.019  43.821  14.403
96770W        W61590  19.346  20.025   5.021
96771W        W61591   5.354  17.249  10.655
96772W        W61592  30.047  10.828  12.486
96773W        W61593  29.690  13.419  14.332
96774W        W61594  31.316  23.988   2.559
96775W        W61595  20.580   4.987  14.854
96776W        W61596  33.610  29.054   4.029
96777W        W61597  21.722   1.335   0.974
96778W        W61598  44.551  21.663  11.516
96779W        W61599  23.172  21.597  14.380
96780W        W61600  26.955   1.320   0.783
96781W        W61601   4.972  43.551   1.827
96782W        W61602  27.048  18.992   1.898
96783W        W61603  14.070  10.487  11.592
96784W        W61604  35.450  40.297   0.930
96785W        W61605   9.569  31.430   4.593
96786W        W61606  32.936  22.698   5.008
96787W        W61607  21.613  16.686  14.865
96788W        W61608  29.002  14.182   0.785
96789W        W61609  15.807   3.816   2.750
96790W        W61610  33.554  28.916  11.519
96791W        W61611  30.574  40.823  13.898
96792W        W61612   3.337  41.309  11.567
96793W        W61613  15.591  18.107   4.008
96794W        W61614  33.394  21.581   1.729
96795W        W61615   2.889   6.395  12.321
96796W        W61616  23.078  24.658   0.926
96797W        W61617  22.712  12.864   5.155
96798W        W61618  14.789   7.445   1.370
96799W        W61619  44.006   5.931  14.347
96800W        W61620  21.137  40.521  11.591
96801W        W61621  42.620  37.030   4.058
96802W        W61622  44.738  29.990  11.066
96803W        W61623  10.866  30.211   4.977
96804W        W61624  39.244  16.235   3.457
96805W        W61625  43.408   7.393   4.536
96806W        W61626  14.187   6.308   1.644
96807W        W61627  37.941  23.793   1.302
96808W        W61628  10.341  23.775  11.670
96809W        W61629  17.661  10.880  14.811
96810W        W61630  37.651  16.510  13.550
96811W        W61631   4.374  15.130  10.690
96812W        W61632  36.383  44.241  14.328
96813W        W61633  28.433  43.987  11.144
96814W        W61634  30.566  42.101   4.319
96815W        W61635   4.640  23.912   5.508
96816W        W61636  17.961  29.064  10.674
96817W        W61637  41.809  17.558   1.799
96818W        W61638  19.304   1.836  12.944
96819W        W61639  21.278   4.627  13.434
96820W        W61640   0.467   5.296  13.518
96821W        W61641  30.736  19.878   3.237
96822W        W61642  15.569  13.665   3.271
96823W        W61643  21.390   7.411   0.370
96824W        W61644  17.167   4.766   1.488
96825W        W61645  42.427  16.123  10.663
96826W        W61646  15.561  16.082   2.161
96827W        W61647  40.108  32.396   4.028
96828W        W61648  20.735  11.692   4.189
96829W        W61649  44.233   7.798   1.209
96830W        W61650  26.443  16.797  12.179
96831W        W61651  23.980  40.450  13.120
96832W        W61652  38.534   1.297   4.103
96833W        W61653  28.523  39.273  14.319
96834W        W61654  25.601   4.392  13.517
96835W        W61655  36.472  25.488  13.533
96836W        W61656  22.198  11.698   0.905
96837W        W61657   6.216   1.709  13.389
96838W        W61658   5.774  12.701   2.844
96839W        W61659  44.226  17.070  13.911
96840W        W61660  11.945   7.243   0.348
96841W        W61661  12.230  13.620   4.704
96842W        W61662   2.508  38.278  11.548
96843W        W61663  28.674  26.195   0.744
96844W        W61664  16.663  42.874  10.379
96845W        W61665  21.152  21.882   1.304
96846W        W61666  14.050   3.899  11.582
96847W        W61667  12.187   4.226  14.387
96848W        W61668   9.244   3.934  13.727
96849W        W61669   8.810  14.706  11.977
96850W        W61670  30.065  17.018   0.831
96851W        W61671  36.928  10.252  14.428
96852W        W61672   0.897  19.109   2.402
96853W        W61673  22.277  26.428  14.964
96854W        W61674  15.047   5.369  10.645
96855W        W61675  37.461  41.868  12.145
96856W        W61676  32.984  27.669   2.442
96857W        W61677   2.509  36.807   0.379
96858W        W61678  32.617  15.052   0.272
96859W        W61679  42.491  36.866  14.466
96860W        W61680   8.855  42.240  12.641
96861W        W61681  21.764  19.296   3.656
96862W        W61682  12.762  32.204  11.083
96863W        W61683   3.148  33.118   3.160
96864W        W61684  42.041  30.730  14.533
96865W        W61685  24.966   3.921   3.694
96866W        W61686   1.245  21.488   0.759
96867W        W61687  38.073  41.830   4.323
96868W        W61688  16.842  23.522  11.174
96869W        W61689  24.729  11.205  11.057
96870W        W61690  43.444  37.409   5.003
96871W        W61691  25.146   4.730   4.092
96872W        W61692   2.898  24.222   4.460
96873W        W61693  13.383  36.655  13.792
96874W        W61694  23.253  36.508   1.281
96875W        W61695   8.934  17.353  13.115
96876W        W61696  35.767  40.358   2.793
96877W        W61697  33.185   2.402  12.862
96878W        W61698   6.934   1.585   4.825
96879W        W61699  37.481  19.882  13.266
96880W        W61700  38.988  26.618   0.555
96881W        W61701  42.900  17.556   4.779
96882W        W61702  43.736  16.131  14.393
96883W        W61703  23.550  26.364   1.464
96884W        W61704  30.392   1.802  13.355
96885W        W61705  31.207  31.667  14.838
96886W        W61706  25.167  18.610  10.720
96887W        W61707  42.309  17.302   1.533
96888W        W61708  11.808  17.377   1.865
96889W        W61709  20.275  41.279   4.715
96890W        W61710  25.190  17.138  10.531
96891W        W61711  10.903  23.618   2.315
96892W        W61712   2.845  20.496   0.280
96893W        W61713   5.701  32.478  11.706
96894W        W61714  28.709   3.194  13.018
96895W        W61715   0.725  25.844  11.685
96896W        W61716  37.553  24.748  12.817
96897W        W61717  36.385  21.720   4.677
96898W        W61718  10.621  34.147  12.187
96899W        W61719  43.981  41.417   2.795
96900W        W61720  11.632   5.676   1.404
96901W        W61721  19.046  21.035   0.934
96902W        W61722  31.880  37.103  14.963
96903W        W61723  17.979   5.468   0.247
96904W        W61724  44.786  19.971  10.722
96905W        W61725   9.296  11.718  14.809
96906W        W61726   4.152  40.136  14.835
96907W        W61727  41.494   3.894   0.767
96908W        W61728  40.739  25.250  14.303
96909W        W61729  42.935   2.925   1.301
96910W        W61730  14.741  20.174   2.653
96911W        W61731   8.147  11.692  11.229
96912W        W61732   1.787  16.683   0.522
96913W        W61733  34.362  23.949  13.438
96914W        W61734  19.479  25.305  11.148
96915W        W61735  15.979  19.804  12.940
96916W        W61736  10.481  12.270  11.275
96917W        W61737  30.266  16.231  10.651
96918W        W61738  23.009  10.317   2.308
96919W        W61739  13.290  41.479   1.011
96920W        W61740  20.612  10.762   5.106
96921W        W61741   5.194   8.579  12.410
96922W        W61742  41.431  12.259  11.387
96923W        W61743  33.578   7.973  13.971
96924W        W61744  17.508  25.126  13.360
96925W        W61745  26.602  15.117   3.451
96926W        W61746  41.271  26.716   3.129
96927W        W61747  44.953  33.240   4.673
96928W        W61748  35.033  31.066  11.002
96929W        W61749  43.053   1.963   0.465
96930W        W61750  19.652  28.004   3.566
96931W        W61751   7.665  36.661   1.909
96932W        W61752  12.090   0.564  11.152
96933W        W61753  18.611  30.067   4.050
96934W        W61754  30.861  31.291   3.991
96935W        W61755  30.055  34.777  13.289
96936W        W61756  31.407  27.993  11.208
96937W        W61757  23.258  27.901   3.201
96938W        W61758  12.663  23.588  12.589
96939W        W61759   8.368   5.797   4.679
96940W        W61760  43.685  20.814  14.795
96941W        W61761   4.381   4.318   0.938
96942W        W61762  37.826  12.385   0.449
96943W        W61763   7.140   5.895  12.869
96944W        W61764   1.874  39.320  12.165
96945W        W61765  25.859  22.746   0.698
96946W        W61766   3.325  12.671  14.502
96947W        W61767  43.493  36.021   1.921
96948W        W61768  18.566  22.385   4.087
96949W        W61769   8.163  20.532   4.780
96950W        W61770  29.141  14.711   1.703
96951W        W61771  10.595  41.496   3.272
96952W        W61772  44.665  18.688  14.842
96953W        W61773   4.418   8.721  14.306
96954W        W61774  18.392  15.420   9.837
96955W        W61775   2.415   9.500   4.053
96956W        W61776   3.430   5.110  10.206
96957W        W61777  40.546   5.230  10.734
96958W        W61778  43.106   7.201  14.419
96959W        W61779  17.765  43.090   1.317
96960W        W61780  30.982  44.534   0.600
96961W        W61781  40.941   6.220  12.096
96962W        W61782  14.377  41.816  13.425
96963W        W61783  22.511  38.548  14.067
96964W        W61784   4.037   6.711   3.674
96965W        W61785  14.828  11.415   2.255
96966W        W61786  21.657  36.017  12.356
96967W        W61787   3.768   5.646   0.191
96968W        W61788  16.975  25.154  12.436
96969W        W61789  25.899  14.811   0.419
96970W        W61790  31.461  29.967   2.385
96971W        W61791  38.020  23.376  12.116
96972W        W61792  34.523  31.870  13.866
96973W        W61793  28.985  18.317  13.928
96974W        W61794  10.733  13.693   1.836
96975W        W61795  17.244  10.212   3.200
96976W        W61796  11.796   3.914  10.669
96977W        W61797   7.936  41.883  14.957
96978W        W61798  35.300  42.358  11.940
96979W        W61799  12.247  14.109   0.462
96980W        W61800  24.398   3.930  10.433
96981W        W61801  25.128  15.316   0.053
96982W        W61802  41.565   1.811   2.103
96983W        W61803  27.044  10.570   4.116
96984W        W61804  11.218  32.638  14.185
96985W        W61805  22.227  23.014   4.681
96986W        W61806  17.212   2.998  13.442
96987W        W61807  14.622  30.660   2.594
96988W        W61808  42.093  31.879  13.364
96989W        W61809   8.299  22.139   3.873
96990W        W61810  38.518   6.766   5.069
96991W        W61811  12.417  39.326  13.166
96992W        W61812  26.431  24.010  11.115
96993W        W61813   7.918  30.503  12.406
96994W        W61814  30.542   0.219   0.851
96995W        W61815  28.295   5.260  13.509
96996W        W61816  33.430  40.913   3.746
96997W        W61817  43.814  36.488  12.093
96998W        W61818   7.663   0.937   3.223
96999W        W61819  37.491  30.426   4.508
97000W        W61820  29.149  24.003  10.224
97001W        W61821  15.696   4.399   3.184
97002W        W61822  10.108  32.252   2.329
97003W        W61823  44.848  36.498   3.899
97004W        W61824  26.605  21.964  11.272
97005W        W61825  27.285  26.705  11.087
97006W        W61826   4.894   4.768  13.017
97007W        W61827  32.894  44.279  11.866
97008W        W61828  30.797  11.058  10.761
97009W        W61829   3.462  36.065  10.673
97010W        W61830  15.543  33.043  14.040
97011W        W61831  20.072  26.024  12.668
97012W        W61832   3.130  23.572  12.556
97013W        W61833  28.907  42.931   2.894
97014W        W61834  24.561  26.952  11.954
97015W        W61835  31.987  11.190  12.456
97016W        W61836  37.272   9.337   4.528
97017W        W61837  11.127   0.658   3.305
97018W        W61838  35.134  35.985  10.750
97019W        W61839  23.587   0.859   2.376
97020W        W61840  13.128   0.219   0.980
97021W        W61841   5.739  11.257   3.042
97022W        W61842  19.527  40.015   4.091
97023W        W61843  21.570  36.963   3.267
97024W        W61844   5.324   4.229  12.967
97025W        W61845   5.390  34.151  11.167
97026W        W61846  37.667  16.002  13.601
97027W        W61847  33.909  31.677   2.352
97028W        W61848   8.780  16.326  13.845
97029W        W61849  10.100  13.934  12.008
97030W        W61850  15.669  33.081   1.813
97031W        W61851  21.473  26.728   0.033
97032W        W61852  29.921   5.150   1.770
97033W        W61853  22.272  32.904  12.012
97034W        W61854   8.132  12.681  13.404
97035W        W61855   5.435  16.426  13.021
97036W        W61856  34.104  18.440   4.955
97037W        W61857   3.747  22.320  14.233
97038W        W61858  23.698  30.552   0.831
97039W        W61859  42.257   5.884  11.144
97040W        W61860  19.975  40.879   4.546
97041W        W61861  36.949  13.695   2.009
97042W        W61862  18.091   2.377   3.673
97043W        W61863  23.299  13.088   1.982
97044W        W61864  40.041  22.797   1.453
97045W        W61865  34.159  29.085  10.674
97046W        W61866  28.494  40.060   1.720
97047W        W61867  37.408  36.593  14.014
97048W        W61868  29.488   3.396   1.391
97049W        W61869  16.539   9.291  10.107
97050W        W61870   1.167  43.588   4.128
97051W        W61871   0.786   3.418   2.237
97052W        W61872   5.069  22.141   4.945
97053W        W61873  15.702   4.965   2.248
97054W        W61874  32.007  16.553   3.007
97055W        W61875  12.108  33.806  14.285
97056W        W61876   9.388  35.489  14.440
97057W        W61877  21.119  44.462   2.558
97058W        W61878   9.532  40.114   0.753
97059W        W61879  39.140  38.955  11.942
97060W        W61880   6.668  25.783  14.628
97061W        W61881  44.017  40.405   1.086
97062W        W61882  30.383  34.538   0.726
97063W        W61883  36.138   2.204  11.084
97064W        W61884  21.858  42.117   1.817
97065W        W61885   4.673  36.958   3.421
97066W        W61886   2.485  28.838   4.930
97067W        W61887  12.542  41.505  10.979
97068W        W61888   2.186   4.551   4.509
97069W        W61889  43.442  25.238  11.215
97070W        W61890   5.322  34.977  13.108
97071W        W61891   0.707   9.307  14.802
97072W        W61892  39.385  43.489  13.275
97073W        W61893  11.386  39.786  14.532
97074W        W61894   8.442  23.060   1.723
97075W        W61895  18.575  10.602   4.674
97076W        W61896  42.008  26.483  11.991
97077W        W61897  32.986   9.698   0.272
97078W        W61898  33.108  24.863   1.465
97079W        W61899   1.468  27.188   2.646
97080W        W61900  24.066  12.403  12.839
97081W        W61901  38.738   0.463  11.225
97082W        W61902  30.975  27.236  14.214
97083W        W61903  35.058  16.368  13.859
97084W        W61904  30.017   1.835   3.354
97085W        W61905  40.243  10.846   9.919
97086W        W61906   7.294  31.934  14.718
97087W        W61907  35.252   3.455  10.274
97088W        W61908  27.853  35.830  13.810
97089W        W61909  11.697  33.926   0.538
97090W        W61910  14.476   8.701   4.272
97091W        W61911  43.762   8.284  11.627
97092W        W61912   7.197  37.344   3.842
97093W        W61913  23.991  35.090  13.220
97094W        W61914   7.727  36.067  11.587
97095W        W61915  43.420  21.725   1.192
97096W        W61916  20.667  15.409  11.106
97097W        W61917   4.244  35.019   3.590
97098W        W61918  12.308  11.893   3.318
97099W        W61919   3.960   8.980  13.458
97100W        W61920  15.084  18.006  11.111
97101W        W61921  38.404  35.531   2.267
97102W        W61922  39.780  37.948  13.532
97103W        W61923  13.050   3.688  11.532
97104W        W61924  17.019  39.382  11.483
97105W        W61925  41.072  24.125  12.835
97106W        W61926  35.701  35.373  12.039
97107W        W61927   3.648  24.068  12.918
97108W        W61928  16.797   8.751   3.592
97109W        W61929  27.229  38.393  11.540
97110W        W61930   3.200  19.862  14.844
97111W        W61931  38.481  13.065   1.251
97112W        W61932  35.571  24.828  12.537
97113W        W61933  18.013  23.692   4.162
97114W        W61934   0.879  27.945  14.496
97115W        W61935  32.341  42.970   2.848
97116W        W61936   1.975  12.601  11.109
97117W        W61937   2.796  29.983  12.656
97118W        W61938  17.367   4.006  12.533
97119W        W61939   6.964  26.210  13.746
97120W        W61940  31.185  23.048  12.516
97121W        W61941   4.479  28.752   0.974
97122W        W61942  33.352   2.062  13.951
97123W        W61943  16.701  22.646  12.544
97124W        W61944  41.807  25.436  11.698
97125W        W61945  38.155  27.207  13.085
97126W        W61946   1.020  22.709   1.817
97127W        W61947   3.712  20.309  10.743
97128W        W61948  37.252   6.745   4.913
97129W        W61949  39.277   6.854   4.682
97130W        W61950  42.706  34.707  12.016
97131W        W61951  22.310   6.865   1.723
97132W        W61952   6.566  33.033  10.680
97133W        W61953   9.153  44.518   2.001
97134W        W61954  43.800  38.540   2.308
97135W        W61955  30.018   4.974   0.769
97136W        W61956  35.988   0.244  11.129
97137W        W61957   2.140  44.810   2.670
97138W        W61958  19.310  12.125  14.060
97139W        W61959  18.385   3.977  13.307
97140W        W61960  19.086  13.345  10.647
97141W        W61961  11.128  41.464   3.562
97142W        W61962   9.934  27.186   0.421
97143W        W61963  44.957  19.149  14.809
97144W        W61964   8.672   4.880  13.049
97145W        W61965  11.267   2.728   1.004
97146W        W61966  43.035   5.639  14.359
97147W        W61967   8.067  17.295   2.930
97148W        W61968  40.466  35.006  12.795
97149W        W61969  22.042  42.857  12.996
97150W        W61970   5.623  40.852   1.336
97151W        W61971   5.937   0.528  12.933
97152W        W61972  38.072  29.430  14.055
97153W        W61973  31.064  29.092  10.749
97154W        W61974   7.725   0.552  14.814
97155W        W61975  40.917  27.363  14.482
97156W        W61976  29.877  31.590   2.484
97157W        W61977   2.452  11.312   2.776
97158W        W61978  33.020   1.265  14.525
97159W        W61979  22.536  37.067   1.232
97160W        W61980  21.712  40.370   4.678
97161W        W61981  29.889  35.406   5.019
97162W        W61982   9.658   4.232  11.966
97163W        W61983  35.422   3.179  14.085
97164W        W61984  20.144  24.668   3.565
97165W        W61985  19.467  44.918   1.091
97166W        W61986  19.170  14.813   0.758
97167W        W61987  24.150   1.493   1.342
97168W        W61988  44.905  28.165  10.995
97169W        W61989   4.207  21.649   3.702
97170W        W61990  16.335  42.460  14.310
97171W        W61991  26.800  21.606  12.490
97172W        W61992  37.830   4.338   4.878
97173W        W61993  32.127  12.541   0.554
97174W        W61994  17.769   3.398   3.460
97175W        W61995   5.621  37.567  14.461
97176W        W61996  30.631  31.026  14.109
97177W        W61997  27.312  21.898  14.219
97178W        W61998  37.932   0.783   1.366
97179W        W61999  35.345  31.870  10.512
97180W        W62000   2.637  24.719   5.125
97181W        W62001  39.574   9.791   3.089
97182W        W62002   0.778  10.760  11.593
97183W        W62003  21.853  12.168   4.958
97184W        W62004  40.381  18.195  13.577
97185W        W62005   4.784  11.652   2.106
97186W        W62006  41.295   2.145   4.530
97187W        W62007  30.717  30.274   0.794
97188W        W62008  43.954  43.640  11.110
97189W        W62009  26.937  38.056   3.639
97190W        W62010   9.467  18.659   2.316
97191W        W62011  40.705   0.402   0.220
97192W        W62012  31.071  15.673  11.603
97193W        W62013  15.133  43.968  14.503
97194W        W62014   7.190   7.657  10.790
97195W        W62015   6.214  42.476  12.601
97196W        W62016  13.958  34.038  12.464
97197W        W62017  30.186  44.353   3.225
97198W        W62018  14.769   1.397  12.520
97199W        W62019  24.149  42.084   0.005
97200W        W62020  42.370   5.341   0.459
97201W        W62021  20.766   7.474  14.905
97202W        W62022   0.418  29.075   4.116
97203W        W62023  12.931   8.878   3.406
97204W        W62024  23.179   8.130   0.743
97205W        W62025  28.694  42.492  14.390
97206W        W62026  11.224  17.894  11.392
97207W        W62027  39.940  10.158   0.839
97208W        W62028  17.753  18.445   1.128
97209W        W62029   5.996  21.108   2.371
97210W        W62030  10.933  41.041   4.201
97211W        W62031  13.982   5.378   4.147
97212W        W62032   8.540  37.404  13.819
97213W        W62033  13.657  19.989  13.926
97214W        W62034  13.162   5.393   0.788
97215W        W62035  28.163  19.514  11.654
97216W        W62036  17.305  16.604   0.402
97217W        W62037  36.679  41.083   3.325
97218W        W62038  12.222  29.640  14.269
97219W        W62039  31.628  14.570   2.381
97220W        W62040   3.780   5.496  12.124
97221W        W62041  29.671   1.064   1.512
97222W        W62042  22.517   3.777   2.665
97223W        W62043  21.688  38.766   0.869
97224W        W62044  13.178  19.749   4.279
97225W        W62045   8.640  15.575  10.648
97226W        W62046  16.183  15.112  12.689
97227W        W62047   6.637   5.298  14.439
97228W        W62048  18.176  12.616  11.389
97229W        W62049   3.172  37.925  14.870
97230W        W62050  33.630  35.566  13.846
97231W        W62051  10.243   0.944   4.127
97232W        W62052   7.270  22.019   4.888
97233W        W62053  34.415  16.130  11.309
97234W        W62054  11.630  42.995  11.175
97235W        W62055  25.905  40.520   4.895
97236W        W62056   5.677  30.616  11.187
97237W        W62057  32.872   1.502  13.935
97238W        W62058  34.491  43.447   0.034
97239W        W62059  31.188  28.343  12.598
97240W        W62060   5.538  17.291   3.693
97241W        W62061  17.516  10.675   5.564
97242W        W62062  26.566  14.649  10.674
97243W        W62063  36.861  18.257  13.065
97244W        W62064  23.408   1.586   0.356
97245W        W62065   2.814  16.891   4.965
97246W        W62066  35.926   3.216  11.908
97247W        W62067  16.083   5.306  13.330
97248W        W62068  31.947  11.268   2.135
97249W        W62069   6.826  31.979  12.714
97250W        W62070  28.101  40.318   4.675
97251W        W62071   4.627   2.848   0.780
97252W        W62072   3.466   3.934  14.190
97253W        W62073   1.109  40.529  12.565
97254W        W62074  17.016  40.891   3.102
97255W        W62075  34.190  21.163   2.820
97256W        W62076  39.554  42.543  10.756
97257W        W62077  14.414   5.191  14.511
97258W        W62078  44.324   4.489   1.488
97259W        W62079  41.050  21.671  12.516
97260W        W62080  33.964  41.058  12.086
97261W        W62081  10.080  38.556   0.178
97262W        W62082  44.742  43.708   0.379
97263W        W62083  32.583   6.470   2.394
97264W        W62084   0.446   4.454  12.934
97265W        W62085   5.754  29.019   4.189
97266W        W62086  28.227   8.962   3.774
97267W        W62087  14.555  41.398   1.384
97268W        W62088  39.920  20.544   0.937
97269W        W62089  36.417  41.222   4.165
97270W        W62090  39.192  38.876   5.022
97271W        W62091  32.075  30.373  12.981
97272W        W62092  35.983  17.207  13.864
97273W        W62093  34.099   6.707   1.826
97274W        W62094  13.092  29.932  10.342
97275W        W62095  26.628  12.361  11.822
97276W        W62096  27.137  24.989   0.304
97277W        W62097  24.082   0.925  13.446
97278W        W62098  36.198  13.568  12.490
97279W        W62099  37.095   0.403  12.983
97280W        W62100   3.932  23.548   2.237
97281W        W62101   2.163   7.678  11.100
97282W        W62102  35.867  15.168   4.060
97283W        W62103  14.527  20.696   0.722
97284W        W62104  27.643  19.490   3.510
97285W        W62105  30.984  25.649  12.363
97286W        W62106  15.921  12.043  11.014
97287W        W62107  43.548   9.701   4.149
97288W        W62108  27.465  24.521   3.678
97289W        W62109   2.162  23.658   3.456
97290W        W62110   1.632  11.681   2.074
97291W        W62111  11.283  32.463   2.882
97292W        W62112  31.776  28.061   3.915
97293W        W62113  38.853  24.391   4.115
97294W        W62114  39.080  20.202  13.863
97295W        W62115  43.950  36.062   1.642
97296W        W62116  35.559  33.899  13.374
97297W        W62117  27.619  33.046  14.972
97298W        W62118  23.149  22.580  11.012
97299W        W62119  36.489   6.731  10.668
97300W        W62120  41.847  11.807  12.498
97301W        W62121   0.971  38.907   1.321
97302W        W62122  27.672   2.565  11.103
97303W        W62123  43.457  21.439  12.490
97304W        W62124  43.931  37.981  11.382
97305W        W62125  24.660  32.763  14.920
97306W        W62126  28.521  33.934   1.834
97307W        W62127  20.689  33.559  12.337
97308W        W62128  23.732  22.595   2.552
97309W        W62129   0.378  40.691  14.347
97310W        W62130  15.283  17.307   5.727
97311W        W62131   7.353  36.415  10.527
97312W        W62132  27.983  13.818   0.441
97313W        W62133  41.182  27.458   4.537
97314W        W62134  34.203  13.338   4.253
97315W        W62135   5.341  43.023  12.242
97316W        W62136  10.555  25.743   0.791
97317W        W62137  24.441  41.998  10.934
97318W        W62138  30.022   4.491  13.955
97319W        W62139   1.068  15.116   2.841
97320W        W62140   3.724   2.989  14.717
97321W        W62141  14.890  40.371  14.784
97322W        W62142   2.964  15.318   3.818
97323W        W62143  31.506  17.321   2.724
97324W        W62144  23.712   6.181   3.881
97325W        W62145   6.210  40.493   3.372
97326W        W62146   0.427  26.628  11.156
97327W        W62147  35.293   2.879   4.232
97328W        W62148  16.714  22.290   2.289
97329W        W62149  41.452  29.972   0.165
97330W        W62150  32.962  37.468  13.551
97331W        W62151  28.913  35.694   3.154
97332W        W62152   1.223  26.111  12.389
97333W        W62153  36.944   5.549   2.560
97334W        W62154   2.293  34.019   4.815
97335W        W62155  44.327  20.265   2.446
97336W        W62156  20.556  27.853  11.968
97337W        W62157  27.647  21.857  12.653
97338W        W62158   2.258   9.859   3.417
97339W        W62159  26.557  23.297  11.569
97340W        W62160  34.937  19.022   2.700
97341W        W62161  21.079  44.737   4.578
97342W        W62162   3.249   6.055  14.424
97343W        W62163  36.051  26.883   9.737
97344W        W62164  13.740  40.467   1.622
97345W        W62165  30.607  12.120  12.569
97346W        W62166   3.802  15.628   4.708
97347W        W62167  40.401  21.556   0.218
97348W        W62168  28.946  20.661  11.932
97349W        W62169  33.064  37.822  14.938
97350W        W62170  43.360  31.968  12.743
97351W        W62171  43.709  18.212   1.241
97352W        W62172  36.565  30.051  11.658
97353W        W62173  11.540  16.298   4.503
97354W        W62174  36.306  27.862  10.972
97355W        W62175   2.452  25.294  13.461
97356W        W62176  28.657  44.510  11.141
97357W        W62177  29.436  25.580  11.123
97358W        W62178  19.004   4.270   4.209
97359W        W62179  39.021  36.064  12.139
97360W        W62180   5.169  36.313   1.463
97361W        W62181   7.677   6.292   1.461
97362W        W62182   2.679   2.744   3.174
97363W        W62183  33.789  31.759   4.117
97364W        W62184  32.542   4.196   0.207
97365W        W62185  22.785  17.218  13.734
97366W        W62186  23.761  36.598   2.303
97367W        W62187  27.036  30.759  12.096
97368W        W62188   5.023   1.707  10.239
97369W        W62189   9.325   5.053   1.825
97370W        W62190  35.557  25.263  13.438
97371W        W62191  30.970   4.470  14.772
97372W        W62192  15.615  32.031  11.748
97373W        W62193  21.710  11.893   0.769
97374W        W62194   2.756  35.805  13.396
97375W        W62195   2.809  16.358  14.408
97376W        W62196  22.794  25.575   9.561
97377W        W62197  33.605  10.754  11.075
97378W        W62198  38.306  25.399  12.002
97379W        W62199  15.424  35.275  12.933
97380W        W62200  26.489  38.025   1.770
97381W        W62201  40.089  35.963  11.134
97382W        W62202   5.341   1.030  10.757
97383W        W62203   8.148  13.191   4.938
97384W        W62204   5.705   4.817  13.525
97385W        W62205   1.879  24.679  12.613
97386W        W62206  13.639  13.066  12.470
97387W        W62207  18.008  41.792  13.186
97388W        W62208  44.432  15.101  11.038
97389W        W62209  27.613  17.664  11.573
97390W        W62210   0.530  37.621  11.590
97391W        W62211   4.178   0.706  13.030
97392W        W62212  38.959  28.665  10.720
97393W        W62213  15.748   4.486  11.416
97394W        W62214  44.357  41.628  14.068
97395W        W62215  21.045  40.586  13.412
97396W        W62216  43.259  12.498   4.028
97397W        W62217  40.073  43.244  12.056
97398W        W62218  29.568   7.747   1.473
97399W        W62219  10.053   2.687   4.134
97400W        W62220  29.587   1.265  11.593
97401W        W62221  43.639  13.338  11.996
97402W        W62222  36.900   3.689  12.456
97403W        W62223  25.493  40.467   0.809
97404W        W62224  10.093  28.244   1.153
97405W        W62225   6.681  41.793   3.268
97406W        W62226  19.414  15.458  10.456
97407W        W62227  23.961  33.170   3.729
97408W        W62228  26.244  13.179  13.947
97409W        W62229  11.830  41.103   4.084
97410W        W62230   4.616  40.294   2.845
97411W        W62231  39.873  31.056  10.692
97412W        W62232  31.984   2.461   1.347
97413W        W62233  30.109  17.756  13.903
97414W        W62234  21.199  40.833  12.065
97415W        W62235  13.178  27.120   0.892
97416W        W62236  16.574  13.657   3.269
97417W        W62237   7.138  11.272   3.693
97418W        W62238  34.948  16.009   2.222
97419W        W62239  21.682  24.368   2.490
97420W        W62240  29.172  28.689  10.714
97421W        W62241  42.096  40.113   1.209
97422W        W62242   0.224  41.274  13.666
97423W        W62243   3.418  15.242  13.171
97424W        W62244  36.272  44.394   2.407
97425W        W62245  24.613  44.600  10.847
97426W        W62246  32.101  30.872  12.809
97427W        W62247   9.753   8.970   5.071
97428W        W62248  35.945  22.613   2.835
97429W        W62249  26.452  34.305   1.625
97430W        W62250  20.511  40.884   3.218
97431W        W62251  30.139  18.591  14.003
97432W        W62252  18.040  33.424  14.572
97433W        W62253  17.192  35.250   5.432
97434W        W62254   9.895   4.897  14.507
97435W        W62255  30.527  36.048  13.989
97436W        W62256  27.431   6.266  10.543
97437W        W62257  35.273  10.243  11.889
97438W        W62258  26.274  33.586  12.395
97439W        W62259  27.199  25.796   2.336
97440W        W62260  10.269  25.183  10.984
97441W        W62261  15.594  43.022  12.455
97442W        W62262  44.511   5.908  10.678
97443W        W62263  16.321   6.561  13.838
97444W        W62264  38.395  34.510  12.796
97445W        W62265  38.416  23.689  13.017
97446W        W62266  24.629  25.471   0.751
97447W        W62267  12.090  22.893   2.573
97448W        W62268  44.004  15.779   3.898
97449W        W62269   9.276   9.558  12.202
97450W        W62270  29.644  41.311  10.691
97451W        W62271  10.384  11.903   0.697
97452W        W62272   5.184  19.130  10.587
97453W        W62273  43.966  29.560   4.086
97454W        W62274  33.690  43.418  11.961
97455W        W62275  20.241  40.533   0.430
97456W        W62276   5.507  32.995   3.301
97457W        W62277  43.726   0.199   2.210
97458W        W62278  27.715  16.693   3.541
97459W        W62279   7.696  26.105   1.454
97460W        W62280  11.597  32.489  12.367
97461W        W62281   2.539  15.519  12.963
97462W        W62282  19.110  42.336   4.237
97463W        W62283  28.779   9.395  13.031
97464W        W62284  28.859  38.160   3.912
97465W        W62285  19.716  44.390   3.746
97466W        W62286  15.166  13.586   2.409
97467W        W62287   5.269  42.865  10.889
97468W        W62288   8.829  31.221   1.632
97469W        W62289  12.755  43.547  12.916
97470W        W62290  35.862  20.844  13.856
97471W        W62291  25.235   2.427   2.091
97472W        W62292   1.290  18.766   2.472
97473W        W62293  14.167  42.225   3.431
97474W        W62294  11.343  39.918  14.026
97475W        W62295  36.460   6.607   4.589
97476W        W62296  43.764  27.350   2.948
97477W        W62297   0.777   1.021   4.268
97478W        W62298  29.764  38.420  14.462
97479W        W62299  10.849  25.229  14.202
97480W        W62300  32.450  31.415   2.980
97481W        W62301  25.131   3.373  10.614
97482W        W62302  16.465  40.944  10.695
97483W        W62303  35.098  20.045   4.073
97484W        W62304   3.158   3.034   1.237
97485W        W62305   8.539  30.320   2.678
97486W        W62306  21.522   3.249  11.592
97487W        W62307  42.544  43.224   3.287
97488W        W62308  34.508  10.907  11.135
97489W        W62309  25.177   8.602   4.498
97490W        W62310  21.714  13.430  11.669
97491W        W62311  14.279  35.905   4.162
97492W        W62312  12.703  36.384  11.147
97493W        W62313   9.750   9.567   4.412
97494W        W62314  36.417  20.183   4.262
97495W        W62315   9.778  34.498   4.525
97496W        W62316  37.507  15.424  10.275
97497W        W62317  13.232  26.738  11.940
97498W        W62318   6.283  22.509  13.273
97499W        W62319  43.786   3.494   1.709
97500W        W62320   4.689  37.399   3.672
97501W        W62321  44.936  40.821   1.957
97502W        W62322  20.407  15.708  14.511
97503W        W62323  14.563   0.887   1.050
97504W        W62324  29.422   7.211   3.818
97505W        W62325  18.124  11.778  13.769
97506W        W62326  38.972  17.568   1.498
97507W        W62327  23.807   5.264   3.664
97508W        W62328  36.511  34.575  12.418
97509W        W62329  17.643  11.135   3.134
97510W        W62330  36.358  30.952   1.282
97511W        W62331  31.078  35.389   0.914
97512W        W62332   7.170  17.055  11.038
97513W        W62333   3.247  15.470   3.105
97514W        W62334  44.634  34.367  13.999
97515W        W62335   6.353  25.639   3.583
97516W        W62336   2.024  42.596   0.075
97517W        W62337   9.849   9.986  13.722
97518W        W62338  41.971  32.908  12.166
97519W        W62339  34.835  30.159  14.046
97520W        W62340  38.536  36.865  14.452
97521W        W62341  22.941  43.791   2.814
97522W        W62342  26.894  26.349  14.307
97523W        W62343   2.094  38.889  10.751
97524W        W62344  32.058   9.899   3.823
97525W        W62345   9.942  37.464  13.673
97526W        W62346  11.588  43.767  13.348
97527W        W62347  10.112  12.692   5.281
97528W        W62348  17.736  28.217  13.531
97529W        W62349   9.345  20.689  14.874
97530W        W62350  14.204  32.963   4.296
97531W        W62351   3.881   7.408  13.339
97532W        W62352  10.192  14.011  14.994
97533W        W62353  18.512  15.985  14.347
97534W        W62354  29.623  19.262   1.364
97535W        W62355  17.682   5.880  12.003
97536W        W62356  31.100  28.928   3.209
97537W        W62357  11.298  23.476   1.311
97538W        W62358  29.017  21.191  13.953
97539W        W62359   3.437  17.744  14.721
97540W        W62360  19.568  32.611  14.776
97541W        W62361   7.253  12.658   1.248
97542W        W62362   3.373  33.077   0.759
97543W        W62363  28.207   5.976  12.027
97544W        W62364  16.607  34.301  13.365
97545W        W62365  23.297  16.901   4.998
97546W        W62366   4.442  25.418  12.943
97547W        W62367  16.825   3.742  11.640
97548W        W62368  26.511  42.648   5.072
97549W        W62369  22.512  42.863   3.137
97550W        W62370  27.171  32.637  12.072
97551W        W62371   9.799   8.565   3.539
97552W        W62372   0.043  40.377   0.789
97553W        W62373  40.592  36.147  11.318
97554W        W62374  14.624  37.512   3.904
97555W        W62375  18.236  36.148   3.067
97556W        W62376  17.665  17.748   4.445
97557W        W62377  28.602  28.672  13.352
97558W        W62378  15.980  17.115  12.489
97559W        W62379  29.990  20.010   2.414
97560W        W62380  21.055  36.514   9.404
97561W        W62381  12.832  39.443  10.544
97562W        W62382  30.321  25.648   3.400
97563W        W62383  29.411  24.049   0.779
97564W        W62384  24.670  18.670   0.784
97565W        W62385  40.161  38.964  12.695
97566W        W62386  32.492  19.854  11.795
97567W        W62387  26.950  42.819  14.397
97568W        W62388   2.496   5.821   4.400
97569W        W62389  14.236  34.956  11.904
97570W        W62390  17.614  25.364   2.130
97571W        W62391   3.754  29.368  14.316
97572W        W62392  17.142   3.302   9.636
97573W        W62393  13.968  43.336   4.272
97574W        W62394  21.569  38.090   2.404
97575W        W62395  30.014  36.051   0.921
97576W        W62396   7.423  29.586  13.868
97577W        W62397   3.903  34.861  13.448
97578W        W62398  29.889  30.423   2.593
97579W        W62399  21.542   1.988   3.206
97580W        W62400  38.634  12.073   1.405
97581W        W62401  33.356   2.054   1.697
97582W        W62402  39.344   9.852  14.807
97583W        W62403  38.479  10.950   1.396
97584W        W62404  40.094  15.927  12.027
97585W        W62405  35.200  25.699  14.313
97586W        W62406  18.207   7.066   4.226
97587W        W62407  17.603  33.875  11.001
97588W        W62408  40.575  14.190   3.268
97589W        W62409  31.700  28.158   1.753
97590W        W62410   5.375  17.642  14.557
97591W        W62411  21.031  16.818  10.232
97592W        W62412  22.116   4.898   0.882
97593W        W62413  43.097  29.558   3.145
97594W        W62414  15.145  24.322   4.678
97595W        W62415  20.321   2.170  12.072
97596W        W62416  39.279  41.375  13.072
97597W        W62417  22.287   8.910  12.595
97598W        W62418  35.996  11.044  10.532
97599W        W62419   8.435   2.363  12.791
97600W        W62420  23.830  22.549   1.603
97601W        W62421  12.295  33.252   3.174
97602W        W62422   3.072  34.708  13.992
97603W        W62423  28.387   1.438  12.901
97604W        W62424   8.815  44.263   4.593
97605W        W62425  33.480  41.408   1.724
97606W        W62426  33.771  15.534  14.489
97607W        W62427  16.198  36.065   9.777
97608W        W62428  26.518   0.524  10.682
97609W        W62429  31.464   8.913  13.902
97610W        W62430  23.747  28.500   4.527
97611W        W62431   3.575  37.309   0.227
97612W        W62432   9.211  14.702  10.763
97613W        W62433   1.809  44.406   3.924
97614W        W62434  34.797  24.484   2.818
97615W        W62435  44.846  39.098  13.596
97616W        W62436  27.989  17.346  14.584
97617W        W62437  37.369   6.650   0.651
97618W        W62438   2.419   5.117   4.668
97619W        W62439  17.719  37.513  12.442
97620W        W62440  21.837  44.296   0.162
97621W        W62441  25.124  44.003   1.700
97622W        W62442  23.879  37.943   4.218
97623W        W62443   3.267  31.014  14.785
97624W        W62444   1.331  21.638   4.368
97625W        W62445  36.129  20.738   1.676
97626W        W62446  33.963  33.841   0.803
97627W        W62447  13.378  15.695   5.410
97628W        W62448  25.673  27.212   0.405
97629W        W62449  41.972  44.025  13.506
97630W        W62450  13.351  39.304  14.688
97631W        W62451   9.764  34.006  11.284
97632W        W62452  20.480  36.570   1.843
97633W        W62453  40.061  36.679   3.534
97634W        W62454  12.467  35.088   3.790
97635W        W62455  21.117  32.382   2.267
97636W        W62456  26.287  26.098  13.534
97637W        W62457  32.120   6.983   0.235
97638W        W62458  18.653   8.147  11.224
97639W        W62459  41.041  36.302  11.926
97640W        W62460  36.726  18.904  12.616
97641W        W62461   6.533  12.828  11.174
97642W        W62462  30.356  30.379   2.791
97643W        W62463  36.604   4.296   2.700
97644W        W62464  36.639  27.906   2.677
97645W        W62465  15.212  39.904   0.269
97646W        W62466  24.518  30.480   1.043
97647W        W62467   0.930   8.931   0.072
97648W        W62468   5.393  24.185  12.634
97649W        W62469  32.620   6.116  10.926
97650W        W62470   3.169  18.116   3.826
97651W        W62471  36.401  14.769  14.280
97652W        W62472   3.369   0.388  11.488
97653W        W62473  28.492  15.848  14.975
97654W        W62474  40.493  16.588   1.222
97655W        W62475  32.136   4.961   3.661
97656W        W62476   9.543   8.959  14.854
97657W        W62477  41.976  28.628  10.302
97658W        W62478  24.897  40.411  12.989
97659W        W62479  24.158  35.881  10.194
97660W        W62480  33.649  29.531  13.933
97661W        W62481   2.464  37.378   0.442
97662W        W62482  40.851  36.004  14.362
97663W        W62483  14.863   6.998   3.315
97664W        W62484  30.671  22.652   3.174
97665W        W62485   9.263   5.208   0.399
97666W        W62486  16.145  12.739  10.991
97667W        W62487   9.107  38.976   2.181
97668W        W62488  16.138   6.405   4.560
97669W        W62489   9.106   5.467   4.485
97670W        W62490  38.298  38.273  13.334
97671W        W62491  29.940  42.570  13.989
97672W        W62492  44.908  26.099   1.325
97673W        W62493  12.744  13.462  13.442
97674W        W62494  22.978   1.304   3.191
97675W        W62495  44.395  24.144  12.460
97676W        W62496  18.003   1.370   1.400
97677W        W62497  39.117  41.936   0.902
97678W        W62498  36.164  32.648   2.002
97679W        W62499  43.648   3.099  13.807
97680W        W62500   4.722  32.900   4.994
97681W        W62501  15.762  20.987  11.892
97682W        W62502   3.110  27.051   9.893
97683W        W62503   4.774  39.355  11.749
97684W        W62504  12.719  11.916   3.707
97685W        W62505  38.441  24.969   4.259
97686W        W62506  26.708   5.022   3.714
97687W        W62507   5.214  43.950  14.085
97688W        W62508  43.296  13.087   3.177
97689W        W62509  20.748   0.728   2.626
97690W        W62510   1.272  21.312  12.470
97691W        W62511  10.076  10.165  13.285
97692W        W62512  30.221  36.079   1.389
97693W        W62513  13.923  33.571  10.629
97694W        W62514  10.837  33.823  14.290
97695W        W62515  14.447  32.416   1.826
97696W        W62516   5.897   0.397  12.053
97697W        W62517  26.190  26.550  14.938
97698W        W62518  25.222  37.672   9.653
97699W        W62519  13.653  26.994   0.689
97700W        W62520  31.321  19.669  13.041
97701W        W62521   1.286  16.003  10.681
97702W        W62522  40.975  10.155   3.846
97703W        W62523  12.809  21.751   4.153
97704W        W62524  18.842  30.379   4.614
97705W        W62525  36.641   2.686  13.108
97706W        W62526  12.218  42.776   0.061
97707W        W62527   8.156  28.841   2.383
97708W        W62528  26.896  32.449  11.673
97709W        W62529  27.514  32.626   1.179
97710W        W62530  30.462  43.236  12.438
97711W        W62531  35.502  43.959  14.521
97712W        W62532   1.820   6.628   1.583
97713W        W62533  29.412  13.074  11.044
97714W        W62534  19.820  41.989  11.077
97715W        W62535  44.885   4.868   0.392
97716W        W62536  44.528  42.833   3.242
97717W        W62537  33.616  21.634  14.151
97718W        W62538  19.432  13.587   2.804
97719W        W62539  11.039   7.210   1.693
97720W        W62540  10.863  41.354   5.061
97721W        W62541  39.925  13.834   2.360
97722W        W62542   5.137  32.399  14.549
97723W        W62543  13.557  24.551   0.779
97724W        W62544   5.930  31.216  12.928
97725W        W62545  31.400   4.286   4.195
97726W        W62546  17.336  20.556   0.431
97727W        W62547  43.564  31.540  13.302
97728W        W62548  39.964  36.793  10.622
97729W        W62549  34.438  13.811   2.905
97730W        W62550  25.963  22.509  14.030
97731W        W62551   2.031  27.638   0.941
97732W        W62552  16.148  42.881  10.209
97733W        W62553  34.647  15.827  11.990
97734W        W62554  44.739  20.417   4.133
97735W        W62555   2.837  15.370  10.485
97736W        W62556  36.365  44.772  12.070
97737W        W62557  30.898  16.845   1.888
97738W        W62558   8.717  40.388  14.334
97739W        W62559  32.574  21.575   2.203
97740W        W62560  25.481   8.985   2.632
97741W        W62561  31.654  27.866  14.054
97742W        W62562  42.056  18.101   2.124
97743W        W62563  16.772  19.769  10.742
97744W        W62564  22.779   1.197  13.517
97745W        W62565   6.724   9.975   1.747
97746W        W62566  44.916  19.800   1.768
97747W        W62567  36.120  35.083  14.383
97748W        W62568  33.426   8.328  13.563
97749W        W62569  37.667  15.749   3.451
97750W        W62570  40.319  41.365  13.376
97751W        W62571  18.054   2.659   0.841
97752W        W62572  37.300  42.519  11.060
97753W        W62573   5.217  38.415   4.866
97754W        W62574  12.285  44.345  11.453
97755W        W62575   6.107  42.299   3.807
97756W        W62576   8.192   7.613   4.467
97757W        W62577  33.714  43.895  13.519
97758W        W62578   2.454   7.537  14.812
97759W        W62579  17.082  28.235   1.334
97760W        W62580   7.612  19.196   4.609
97761W        W62581   5.378   7.302  10.853
97762W        W62582   1.845  27.188  13.961
97763W        W62583  40.558  32.450   1.985
97764W        W62584  16.561  22.508   3.692
97765W        W62585  38.895  25.343  14.394
97766W        W62586  13.028  30.431  11.063
97767W        W62587  42.242   0.040   1.391
97768W        W62588  31.222  41.289   1.826
97769W        W62589  12.680   5.768   2.634
97770W        W62590  33.018  22.823  12.160
97771W        W62591   7.530  33.123   1.496
97772W        W62592   5.277   2.867  12.582
97773W        W62593  17.078  25.944  11.192
97774W        W62594  27.033  23.289   3.388
97775W        W62595  24.148  37.780   1.840
97776W        W62596   5.444  21.643   0.838
97777W        W62597  29.681   1.531   1.840
97778W        W62598  34.166   0.812   4.110
97779W        W62599  28.192  43.506  11.079
97780W        W62600   5.153   1.319  13.948
97781W        W62601  23.460  22.579   3.349
97782W        W62602  23.225  33.485  14.529
97783W        W62603  37.155  14.661   1.264
97784W        W62604  13.552   0.825   1.245
97785W        W62605  14.943  43.096   5.053
97786W        W62606   4.717  25.716   5.490
97787W        W62607  24.478  12.695   4.990
97788W        W62608   6.278  38.940   2.735
97789W        W62609   3.478  13.240   0.730
97790W        W62610  22.387  42.440  11.262
97791W        W62611   7.936  10.245  12.949
97792W        W62612  19.211  23.631  10.685
97793W        W62613  38.634  35.887  10.564
97794W        W62614   8.121  15.097   1.826
97795W        W62615  37.570  26.583   3.272
97796W        W62616  19.188  32.318   1.026
97797W        W62617   0.764  18.370   1.729
97798W        W62618  23.017   0.022  13.976
97799W        W62619   7.975  20.638  12.517
97800W        W62620  42.708  30.185   0.711
97801W        W62621  15.641  18.482  14.167
97802W        W62622  17.070   5.074   1.894
97803W        W62623  19.907  33.491  14.902
97804W        W62624   0.928   3.921  11.549
97805W        W62625  37.602  43.519   0.217
97806W        W62626  11.851  34.237   2.815
97807W        W62627  26.610  43.479   4.611
97808W        W62628  37.623  41.985  14.132
97809W        W62629  35.233  13.682   1.927
97810W        W62630   6.174   3.143  13.074
97811W        W62631  21.650  23.951  13.417
97812W        W62632  19.152  27.682  14.673
97813W        W62633   9.261   3.660   0.457
97814W        W62634  31.503  43.248   0.947
97815W        W62635  31.352  26.289  12.102
97816W        W62636  34.414  19.558   3.732
97817W        W62637  14.375  41.830   0.469
97818W        W62638  24.607  44.234  11.638
97819W        W62639   4.296   3.141  14.864
97820W        W62640  33.807   8.423   0.420
97821W        W62641  29.166   2.970  12.975
97822W        W62642   4.798  28.609  11.994
97823W        W62643  24.425  26.681   3.267
97824W        W62644   9.269  35.315  13.001
97825W        W62645  37.997  42.375   3.593
97826W        W62646   2.219   2.865   1.221
97827W        W62647  43.994  29.431  13.948
97828W        W62648   7.736  23.214   0.978
97829W        W62649   1.898   6.926   0.627
97830W        W62650  24.786  34.761   2.888
97831W        W62651  39.187  27.386  12.447
97832W        W62652  21.257  31.587  12.966
97833W        W62653  14.145  28.487   4.982
97834W        W62654  44.540  36.297  13.447
97835W        W62655  15.218  26.627  10.181
97836W        W62656   5.762  43.934   2.733
97837W        W62657  27.722  43.501   4.688
97838W        W62658  33.837  19.705   0.045
97839W        W62659  36.512  22.898   4.056
97840W        W62660  14.093  38.800  12.423
97841W        W62661  11.895   6.829  13.798
97842W        W62662   7.971   5.438   2.795
97843W        W62663  40.057  44.489   3.274
97844W        W62664  22.231   9.322  14.343
97845W        W62665  22.204  27.701   4.097
97846W        W62666  28.190  39.537  14.615
97847W        W62667  31.110  29.886   4.239
97848W        W62668  12.670  22.697  13.549
97849W        W62669  11.818  31.600  14.767
97850W        W62670  44.229  40.015   0.800
97851W        W62671   2.750  15.045   4.231
97852W        W62672  22.012   8.156  13.446
97853W        W62673  25.092  33.129   1.651
97854W        W62674  35.451  23.777   0.017
97855W        W62675  27.127  43.296  14.373
97856W        W62676  23.208   5.692  12.557
97857W        W62677  32.346  27.064  11.193
97858W        W62678  34.107  12.583   0.824
97859W        W62679  13.901  27.602  12.856
97860W        W62680   8.690  20.793   0.370
97861W        W62681  27.897  21.241   0.473
97862W        W62682  30.990  29.083   0.767
97863W        W62683  31.170  26.143   4.836
97864W        W62684   2.867  37.651   2.618
97865W        W62685   5.860   6.629   3.606
97866W        W62686  37.879   0.430  13.589
97867W        W62687  32.962  23.281  11.954
97868W        W62688  39.282   7.717   0.392
97869W        W62689  25.893  17.824   0.509
97870W        W62690   5.437   0.388  13.575
97871W        W62691  10.778  42.487   2.186
97872W        W62692  37.324  37.415   1.925
97873W        W62693  17.127   4.437  12.356
97874W        W62694  33.565   9.328  11.241
97875W        W62695  14.535  42.352  11.087
97876W        W62696   5.663  12.267  12.354
97877W        W62697  36.508  28.533  13.386
97878W        W62698  13.402   7.302  11.650
97879W        W62699  28.135  35.397   2.720
97880W        W62700  19.330  20.534   3.690
97881W        W62701  21.537  31.476  14.786
97882W        W62702  35.306  30.947   0.517
97883W        W62703  34.737  18.935   5.466
97884W        W62704  25.174  16.046   3.199
97885W        W62705  21.736   0.673   0.552
97886W        W62706  30.176   1.747  12.450
97887W        W62707  35.328  41.677  12.076
97888W        W62708  26.501  16.368   0.881
97889W        W62709  35.280  39.560   1.741
97890W        W62710   0.988  42.525  14.036
97891W        W62711  19.605  22.033  11.882
97892W        W62712  42.475  33.918   4.647
97893W        W62713   3.682  39.201   1.708
97894W        W62714  20.250  40.389  12.179
97895W        W62715  14.581  25.487  14.426
97896W        W62716  39.146  24.347  11.463
97897W        W62717  25.272  15.003   1.838
97898W        W62718  12.681  22.052  11.541
97899W        W62719  42.343  22.276  13.832
97900W        W62720  23.530  21.020   0.920
97901W        W62721  12.562  17.728  13.405
97902W        W62722  16.717   8.832  10.311
97903W        W62723  11.344  20.177   3.450
97904W        W62724  40.628  33.851   1.267
97905W        W62725  25.855  21.120  13.318
97906W        W62726   6.854  17.352  13.378
97907W        W62727  25.572  37.944  14.313
97908W        W62728  14.761  43.414  10.788
97909W        W62729   4.413  43.506   1.725
97910W        W62730  37.258  37.930  10.530
97911W        W62731  36.127   8.413  13.388
97912W        W62732  36.047   9.768   0.004
97913W        W62733   6.325  25.500   2.672
97914W        W62734  42.834  12.608  11.553
97915W        W62735  33.115   8.827  12.498
97916W        W62736  32.980  36.609   4.554
97917W        W62737  34.334  30.113  13.482
97918W        W62738  40.495  25.571  13.052
97919W        W62739  41.740  12.714  13.964
97920W        W62740   6.662   4.417  11.399
97921W        W62741  20.806  17.612   3.943
97922W        W62742  13.899  19.639   5.053
97923W        W62743  12.296  12.919   4.199
97924W        W62744  42.510  23.318  11.276
97925W        W62745   5.356  34.434   4.027
97926W        W62746  11.367  27.167  10.644
97927W        W62747   2.547  17.839   2.306
97928W        W62748   5.471  18.545   1.370
97929W        W62749  30.450  35.664   3.901
97930W        W62750  24.739  30.908   3.924
97931W        W62751  10.468   0.267  14.478
97932W        W62752  21.912  28.464   2.371
97933W        W62753   7.910  38.052  14.827
97934W        W62754  20.592  14.774   2.356
97935W        W62755  28.236  34.272  14.789
97936W        W62756  36.264  11.849   1.246
97937W        W62757  25.719  14.666  14.950
97938W        W62758  26.013   2.911   3.452
97939W        W62759  33.987  10.958  14.196
97940W        W62760  41.913  17.278   0.332
97941W        W62761  27.178  14.646   0.930
97942W        W62762  40.337  16.245   3.621
97943W        W62763   2.191  30.617  11.625
97944W        W62764  14.455   5.846   0.715
97945W        W62765   8.329  42.221   1.003
97946W        W62766   2.904  37.880  13.977
97947W        W62767  28.527  14.232  11.645
97948W        W62768   8.619   5.455   3.149
97949W        W62769  31.412  22.944   1.269
97950W        W62770  34.642  31.056  13.953
97951W        W62771  34.200  27.929   9.975
97952W        W62772  42.322  28.335   0.328
97953W        W62773   9.065  43.387  10.373
97954W        W62774   6.327  42.947  10.765
97955W        W62775   5.290  22.366   3.310
97956W        W62776   8.888  26.871  13.788
97957W        W62777  15.732  43.871   4.100
97958W        W62778  30.022  22.400  12.922
97959W        W62779  33.051  16.616   1.100
97960W        W62780  37.007   4.023   2.860
97961W        W62781  24.506   7.211   0.301
97962W        W62782  18.628  21.656   1.906
97963W        W62783  37.895  34.747  14.787
97964W        W62784   2.486   7.650  11.493
97965W        W62785  31.132  15.131  11.499
97966W        W62786  29.571  10.534   0.882
97967W        W62787   6.286  31.694   4.867
97968W        W62788  36.843  20.694   3.633
97969W        W62789  21.216  10.609   2.688
97970W        W62790  39.602  13.622  10.655
97971W        W62791  11.636  41.958  10.689
97972W        W62792  41.424  39.584  12.564
97973W        W62793  16.319  13.182   4.913
97974W        W62794   2.378   9.568   0.913
97975W        W62795  15.379  43.826  12.203
97976W        W62796  14.214  15.663   3.795
97977W        W62797  10.728  42.116  10.720
97978W        W62798   0.729   3.340  13.410
97979W        W62799  15.585  22.700   0.551
97980W        W62800   9.378  34.076   1.271
97981W        W62801  10.240  21.468  14.191
97982W        W62802  35.119  22.188   2.757
97983W        W62803  35.409   7.129   0.085
97984W        W62804  20.346  37.520  14.850
97985W        W62805  11.948  10.359   0.444
97986W        W62806  12.058  41.717   3.652
97987W        W62807   1.470  34.710   4.260
97988W        W62808  41.914  28.085   2.898
97989W        W62809   3.719  17.505  11.116
97990W        W62810  26.414  37.953   3.569
97991W        W62811  16.705  39.282  11.086
97992W        W62812  26.211  14.121   1.476
97993W        W62813  43.332  29.480   3.826
97994W        W62814  12.438   1.147   3.541
97995W        W62815   5.670  16.138   2.092
97996W        W62816  28.580   8.184   4.625
97997W        W62817  10.099   6.621   0.269
97998W        W62818  38.984  37.723  14.111
97999W        W62819  11.483  23.284  12.976
98000W        W62820  21.416  43.029  11.954
98001W        W62821  22.627   2.756  14.375
98002W        W62822   2.419  21.693   3.853
98003W        W62823  20.507  14.317   4.127
98004W        W62824  31.085  32.630   2.379
98005W        W62825  25.744   1.163  12.416
98006W        W62826  30.716  28.594  12.614
98007W        W62827  36.615   8.782  12.159
98008W        W62828  21.708  40.608  10.777
98009W        W62829  38.094  18.691   1.248
98010W        W62830  42.891  19.594  14.042
98011W        W62831  29.734   6.626  12.802
98012W        W62832  25.561  37.398  13.531
98013W        W62833  38.155  33.029   2.541
98014W        W62834  15.814  15.654  11.466
98015W        W62835  21.058  13.106   0.366
98016W        W62836  34.073  16.816  13.875
98017W        W62837  29.534  28.295   4.532
98018W        W62838  38.445   7.694  13.034
98019W        W62839  23.222   7.132  10.327
98020W        W62840  39.016   3.665  11.021
98021W        W62841  36.158   1.311  11.754
98022W        W62842  25.430  20.061   2.272
98023W        W62843   1.771  30.008   2.809
98024W        W62844  43.501   2.831  12.873
98025W        W62845  29.202  24.977   3.578
98026W        W62846  16.017  38.920   3.640
98027W        W62847  40.880  44.946   4.778
98028W        W62848  32.099  36.169   1.240
98029W        W62849  17.004   0.253  12.923
98030W        W62850  19.495   1.788  14.863
98031W        W62851  36.291  17.168  14.305
98032W        W62852  44.235  33.325  11.112
98033W        W62853   4.358   7.426  12.552
98034W        W62854   0.273   2.662  13.855
98035W        W62855  14.654   3.218  13.786
98036W        W62856  33.028  18.213   2.622
98037W        W62857  36.689   6.146   0.404
98038W        W62858  44.448  24.862   1.067
98039W        W62859  16.530  19.034   2.600
98040W        W62860   2.931  17.627   0.003
98041W        W62861   3.162  19.325   4.402
98042W        W62862  20.240  20.247  11.667
98043W        W62863   4.172  17.156   1.673
98044W        W62864   4.211  11.146   0.401
98045W        W62865  24.225  40.717   1.882
98046W        W62866  38.518  25.559  14.752
98047W        W62867  10.659  35.452   1.112
98048W        W62868   3.437   6.086   0.927
98049W        W62869  30.566  18.283   0.887
98050W        W62870   8.803  17.190  14.007
98051W        W62871  27.875  42.988   4.623
98052W        W62872  35.209  25.685   1.191
98053W        W62873   5.258  16.177   2.910
98054W        W62874  21.694  32.479  14.987
98055W        W62875  16.194   2.886   4.577
98056W        W62876   9.353  35.525  10.501
98057W        W62877  28.593  24.948   1.873
98058W        W62878   0.398  14.873   1.851
98059W        W62879  21.021  10.964  13.754
98060W        W62880   4.265  17.718  11.674
98061W        W62881  14.252  35.127   2.765
98062W        W62882  32.142   9.381  13.881
98063W        W62883  30.050  19.459  12.029
98064W        W62884   4.962  27.029  12.309
98065W        W62885  29.752  26.993   2.272
98066W        W62886  21.276  15.047  11.592
98067W        W62887  32.195  41.099   0.628
98068W        W62888  21.445   6.791   0.735
98069W        W62889  43.699  34.335   0.322
98070W        W62890  12.634  26.962  14.401
98071W        W62891  13.218  35.626  14.050
98072W        W62892  18.534  39.091  14.241
98073W        W62893   2.806  15.591  14.868
98074W        W62894  36.045  17.139  11.658
98075W        W62895   1.401  24.706   0.419
98076W        W62896   5.997  32.036   0.396
98077W        W62897  30.505   8.479   3.349
98078W        W62898  43.526  18.471  11.149
98079W        W62899  33.862  10.863  11.526
98080W        W62900  35.036  31.541  10.781
98081W        W62901  19.012  25.597  12.698
98082W        W62902  23.526  25.265   0.164
98083W        W62903   8.699  26.640   3.411
98084W        W62904  36.344  37.928   3.246
98085W        W62905  40.707  12.887  13.287
98086W        W62906  34.371  27.580  13.920
98087W        W62907   1.591  32.227  11.203
98088W        W62908  31.967  20.499   4.961
98089W        W62909  28.384  24.491  12.408
98090W        W62910   6.194  27.704  14.294
98091W        W62911  38.351   5.202   3.646
98092W        W62912  29.489  11.381   3.755
98093W        W62913  19.759  16.542   2.712
98094W        W62914  44.893  34.924   1.432
98095W        W62915  25.299   7.857  11.630
98096W        W62916  35.605  32.571   4.138
98097W        W62917  21.645  16.643  10.809
98098W        W62918  17.060   3.959   1.223
98099W        W62919  18.145  44.701   0.313
98100W        W62920  14.082   3.910  12.457
98101W        W62921  40.437  25.011  11.854
98102W        W62922  23.873   4.639  12.233
98103W        W62923  38.900   2.422  12.897
98104W        W62924  44.746  29.650  10.697
98105W        W62925  25.119  13.703  10.862
98106W        W62926  25.001  12.455   2.702
98107W        W62927  27.317  28.583  12.027
98108W        W62928   8.909  14.315   3.629
98109W        W62929  42.543  18.093   0.763
98110W        W62930  36.973  23.850   3.163
98111W        W62931  38.357  44.461   3.095
98112W        W62932  10.733  11.587   4.293
98113W        W62933  14.268   1.887   4.055
98114W        W62934   9.638   5.882  11.780
98115W        W62935  32.608  36.586   2.367
98116W        W62936  29.972  14.881  12.398
98117W        W62937  39.561  18.356  12.435
98118W        W62938  19.787   8.224   2.286
98119W        W62939  36.566  22.242  14.017
98120W        W62940  38.860  31.961  10.653
98121W        W62941  10.151  35.045   0.301
98122W        W62942  37.110  22.885  11.507
98123W        W62943  18.492  25.570  12.857
98124W        W62944  15.246   6.677  13.043
98125W        W62945  23.136  32.130   3.319
98126W        W62946  40.173  13.323   4.559
98127W        W62947  34.463  35.045   4.594
98128W        W62948   5.323  17.237  11.672
98129W        W62949  12.661  30.188   1.903
98130W        W62950   3.893   9.199  10.793
98131W        W62951  30.621  33.492   0.435
98132W        W62952  36.005  42.167   2.872
98133W        W62953  29.408   4.103  12.484
98134W        W62954  38.494  11.786   3.171
98135W        W62955  29.398  13.145  11.567
98136W        W62956  32.027  42.714  14.427
98137W        W62957  22.560  30.144  12.547
98138W        W62958  17.697  40.138   0.847
98139W        W62959   3.692  18.115  13.556
98140W        W62960  37.557   4.483  11.951
98141W        W62961  32.213   8.305   2.918
98142W        W62962  44.944  24.580   0.334
98143W        W62963  22.533  26.502  13.101
98144W        W62964  23.232  30.556  12.201
98145W        W62965  31.100  16.845   2.382
98146W        W62966  19.603  16.229   2.196
98147W        W62967  32.847  34.892   3.287
98148W        W62968  36.392  36.323  14.826
98149W        W62969  27.514  17.150  12.874
98150W        W62970   6.532  24.771   0.196
98151W        W62971  12.356   6.476   3.827
98152W        W62972   4.261   9.146  12.116
98153W        W62973   0.870  16.578  12.737
98154W        W62974  11.651   8.719   2.354
98155W        W62975  27.419  10.185   4.186
98156W        W62976  24.514  29.069   0.794
98157W        W62977  14.400  38.511   2.699
98158W        W62978  37.867   0.992  12.131
98159W        W62979  36.106  21.869  10.264
98160W        W62980  19.112   6.371   4.537
98161W        W62981  44.261   3.698   1.736
98162W        W62982  17.672   0.426   1.652
98163W        W62983  23.538  39.549  14.284
98164W        W62984  28.920  10.352  10.735
98165W        W62985   1.873  37.842   3.701
98166W        W62986  36.594  15.710   1.352
98167W        W62987  44.322  15.936  12.449
98168W        W62988   4.467  16.310   4.965
98169W        W62989  10.974  43.258   1.783
98170W        W62990  42.015   7.396   2.238
98171W        W62991  15.342  12.328   2.955
98172W        W62992  39.617  41.819   0.834
98173W        W62993  36.718  23.792   1.921
98174W        W62994  17.598  10.307   0.412
98175W        W62995  13.514  23.546   0.971
98176W        W62996  21.475  33.850   0.684
98177W        W62997  16.578  26.033  11.189
98178W        W62998  14.512   0.543  14.380
98179W        W62999  21.245  42.520   3.599
98180W        W63000  17.639  40.367   1.321
98181W        W63001   9.236  26.213   2.461
98182W        W63002  24.921  21.709   3.318
98183W        W63003  39.294   4.954   3.335
98184W        W63004  23.147  31.871   0.834
98185W        W63005  19.208  29.474   1.120
98186W        W63006  24.700  19.422   0.226
98187W        W63007   7.327  30.122   0.516
98188W        W63008  36.549   2.961   2.235
98189W        W63009  38.116   2.228  11.530
98190W        W63010  13.549   6.174  13.508
98191W        W63011  31.657  38.092  11.660
98192W        W63012   1.745  36.877   1.830
98193W        W63013  16.960  22.985  13.420
98194W        W63014  25.984  14.508  12.507
98195W        W63015  25.967   5.882   0.884
98196W        W63016  31.438  11.893  13.044
98197W        W63017  14.496  44.463   2.806
98198W        W63018  27.642  36.452   1.990
98199W        W63019  22.021  42.194   3.589
98200W        W63020   3.884  12.363  12.076
98201W        W63021   6.416  27.379   0.418
98202W        W63022  35.329  24.633   5.306
98203W        W63023  17.300  43.387  14.136
98204W        W63024  34.174  13.379   0.447
98205W        W63025  27.730  42.882   0.824
98206W        W63026  24.658  25.449   2.265
98207W        W63027   0.250   0.225   3.302
98208W        W63028  22.350   4.837  10.023
98209W        W63029  17.649  40.881  13.856
98210W        W63030   9.651  24.240   0.571
98211W        W63031  33.673  44.604  11.603
98212W        W63032   2.316  30.711   1.411
98213W        W63033  12.091  17.679   2.652
98214W        W63034  33.453   3.328  10.494
98215W        W63035  15.691  40.740   0.331
98216W        W63036  10.856   8.702  14.279
98217W        W63037  21.514  24.473  13.278
98218W        W63038  14.151  23.593   3.962
98219W        W63039  17.406  34.520  12.064
98220W        W63040  23.723  22.116  12.123
98221W        W63041   2.400  19.793   4.068
98222W        W63042  29.679  36.469   0.946
98223W        W63043   0.141  25.487  14.711
98224W        W63044  40.034  28.224   0.389
98225W        W63045  19.861  40.462  11.852
98226W        W63046  23.603   1.678   1.292
98227W        W63047   1.915   1.562   3.440
98228W        W63048   3.478  42.095  12.218
98229W        W63049  44.524  23.546   3.579
98230W        W63050  23.716  16.682   2.718
98231W        W63051  42.743  32.493   1.745
98232W        W63052  36.601  43.560   2.878
98233W        W63053  38.268  18.224  11.955
98234W        W63054  36.398  18.804  11.123
98235W        W63055  12.145  21.810   4.677
98236W        W63056  24.690  15.547  14.872
98237W        W63057   5.816  19.792   4.639
98238W        W63058  12.609  15.209   3.374
98239W        W63059   0.281  27.036   2.095
98240W        W63060  21.322   4.844  14.393
98241W        W63061  30.851  39.990  14.786
98242W        W63062  21.712  11.021  11.219
98243W        W63063   8.448   2.237   2.281
98244W        W63064  40.282   6.027   4.096
98245W        W63065  25.132   4.482  12.351
98246W        W63066   4.436   6.413   3.880
98247W        W63067  24.540  11.910  14.492
98248W        W63068   9.382  25.846   0.814
98249W        W63069   0.912   2.700  11.994
98250W        W63070  38.514  26.301  10.466
98251W        W63071  33.423   1.399   3.246
98252W        W63072  37.108  34.822  13.631
98253W        W63073  38.413  18.856  13.198
98254W        W63074  20.599  13.303  12.906
98255W        W63075  29.907   7.786   1.072
98256W        W63076  25.161  20.729   1.202
98257W        W63077  32.555  26.516  14.703
98258W        W63078  18.047  11.844  14.781
98259W        W63079  10.349  26.825   0.323
98260W        W63080  17.572  42.091   0.408
98261W        W63081  10.762  14.768   9.585
98262W        W63082  44.997  14.302  14.975
98263W        W63083  17.678  43.212   3.254
98264W        W63084  10.805  34.680   0.705
98265W        W63085  16.537  10.184  14.422
98266W        W63086  14.358   6.771  12.851
98267W        W63087  14.552  26.892   1.738
98268W        W63088  33.700  26.522  13.014
98269W        W63089   2.718  18.553   4.634
98270W        W63090   9.512  23.787   4.118
98271W        W63091  39.140  44.018   0.869
98272W        W63092   6.278  28.151  13.542
98273W        W63093  23.443  16.213  13.443
98274W        W63094   5.694  32.486  12.601
98275W        W63095  10.681  32.497  14.195
98276W        W63096  18.653  42.237  14.709
98277W        W63097  38.841  44.967   0.905
98278W        W63098  19.855   0.431  13.756
98279W        W63099  12.776   8.367   4.817
98280W        W63100  15.726  30.080   1.714
98281W        W63101  23.273  20.681  14.248
98282W        W63102  11.284  13.325   1.891
98283W        W63103  14.800  27.985   3.296
98284W        W63104   6.180  20.986  12.374
98285W        W63105   6.263  10.251   0.473
98286W        W63106  43.822   7.666  14.762
98287W        W63107  15.945   3.295   0.576
98288W        W63108  44.535  38.645  13.702
98289W        W63109  18.142  10.235  12.207
98290W        W63110  22.486  26.094  11.876
98291W        W63111  10.302  43.821  13.771
98292W        W63112  39.940   8.835  11.779
98293W        W63113  28.099   9.947  11.996
98294W        W63114  15.706  19.981  13.336
98295W        W63115   5.679  21.157  10.698
98296W        W63116  29.595   7.696   3.806
98297W        W63117  28.490  21.698  13.446
98298W        W63118   3.554  18.793   5.130
98299W        W63119  25.721   1.127  14.371
98300W        W63120  29.192  42.885  11.996
98301W        W63121  29.473  11.184  13.844
98302W        W63122  21.483   4.015  11.981
98303W        W63123   1.197  13.232  14.249
98304W        W63124   6.410  33.887   1.332
98305W        W63125  22.795  33.370   4.533
98306W        W63126  32.579   3.477   1.781
98307W        W63127  28.460   1.749   1.252
98308W        W63128  29.815   0.286   0.345
98309W        W63129   4.004   4.180   0.195
98310W        W63130  32.618   8.687  14.366
98311W        W63131  10.981  35.345  11.562
98312W        W63132   7.141  28.017  11.948
98313W        W63133  14.528   0.806  14.889
98314W        W63134  33.518  12.305  10.753
98315W        W63135  37.127  12.701   3.734
98316W        W63136  15.645  22.170   2.219
98317W        W63137   7.393  41.200   4.545
98318W        W63138  12.365  25.605  11.208
98319W        W63139   0.744  35.844  12.904
98320W        W63140  14.893   3.064  13.323
98321W        W63141  31.461  12.325  14.179
98322W        W63142  32.829  40.329  14.523
98323W        W63143  23.657  14.548  11.701
98324W        W63144  43.483  34.679  12.414
98325W        W63145  22.612   7.446   4.608
98326W        W63146  13.379  20.513   2.690
98327W        W63147  29.309  39.504  14.868
98328W        W63148  12.214  38.175   1.940
98329W        W63149  39.086  34.958   0.330
98330W        W63150   0.711  22.957   2.290
98331W        W63151  23.607  36.091  10.572
98332W        W63152  20.255   4.885   2.827
98333W        W63153  31.890  31.780  14.444
98334W        W63154  20.237  34.939  10.488
98335W        W63155  29.655  35.997  13.322
98336W        W63156  36.190  37.935   4.344
98337W        W63157  39.223   0.602  12.637
98338W        W63158  13.879  18.199   1.735
98339W        W63159  34.492  15.430  13.477
98340W        W63160  36.310  23.277   2.706
98341W        W63161   7.133   8.612   3.712
98342W        W63162  42.524  44.618   1.176
98343W        W63163  16.799   4.255  13.864
98344W        W63164  15.649  13.280  13.970
98345W        W63165  17.648  29.193  12.037
98346W        W63166   7.651  23.859  11.707
98347W        W63167  28.587  30.539   1.951
98348W        W63168  17.587  26.022   4.657
98349W        W63169  38.888  43.532  13.069
98350W        W63170  20.520   0.807   4.065
98351W        W63171   3.931  30.178  10.799
98352W        W63172  29.389  37.076   2.069
98353W        W63173   8.201   9.650  13.909
98354W        W63174   9.099   1.533  11.181
98355W        W63175  17.322  10.795   0.524
98356W        W63176  15.539  10.375  14.421
98357W        W63177  32.465  33.590  13.840
98358W        W63178   2.835   6.174  13.796
98359W        W63179  44.964  34.331  12.894
98360W        W63180  42.803  18.095  13.113
98361W        W63181  34.183  42.795   1.707
98362W        W63182  17.336  24.806  12.621
98363W        W63183  16.669  33.647   2.313
98364W        W63184  11.847   1.760  13.454
98365W        W63185  19.490  36.887   2.983
98366W        W63186   9.406  34.470   2.683
98367W        W63187  17.835  13.055  14.733
98368W        W63188  24.797  24.188   2.254
98369W        W63189  33.569  39.928   0.271
98370W        W63190  29.064  40.077  13.381
98371W        W63191  34.394   3.217  13.020
98372W        W63192  30.111  19.589   1.875
98373W        W63193  38.923   2.417   1.480
98374W        W63194  34.397  36.454  10.656
98375W        W63195  18.340  36.597  13.475
98376W        W63196   3.427  33.949   1.288
98377W        W63197  10.736  14.998   3.504
98378W        W63198  15.480  36.256   4.915
98379W        W63199  31.329  26.476   0.405
98380W        W63200  31.445  42.169   0.103
98381W        W63201  38.793   6.381   3.381
98382W        W63202   6.186  31.041  11.581
98383W        W63203  30.900  37.830   0.180
98384W        W63204  15.296   4.819  13.389
98385W        W63205  15.325   5.957   0.770
98386W        W63206   9.631  44.987  14.421
98387W        W63207  33.840  27.534   9.868
98388W        W63208  35.173   6.937   4.918
98389W        W63209  41.483  34.077  12.168
98390W        W63210  15.402  43.061   1.296
98391W        W63211   5.721   5.146   0.405
98392W        W63212   2.582  11.558   0.181
98393W        W63213  30.197  30.392  11.081
98394W        W63214  27.513  14.317  11.568
98395W        W63215  19.208  22.086   3.167
98396W        W63216  38.395  13.821  11.931
98397W        W63217  36.387   7.799   1.703
98398W        W63218   6.775  44.245  11.587
98399W        W63219  34.423  10.568  14.234
98400W        W63220  26.739  20.516   2.249
98401W        W63221   8.746   8.267  12.219
98402W        W63222  38.091  10.216  13.077
98403W        W63223  19.113  41.089  13.819
98404W        W63224   7.525  39.893   0.659
98405W        W63225  31.831  27.267   2.755
98406W        W63226  17.672   0.308  14.157
98407W        W63227   9.781  17.890  11.044
98408W        W63228  16.379  43.374   3.697
98409W        W63229   2.841  25.531  10.631
98410W        W63230  44.879  30.980   0.648
98411W        W63231  33.245  19.021   2.329
98412W        W63232  15.902  37.779  11.484
98413W        W63233  28.699  26.681  14.150
98414W        W63234  40.873  20.091   3.681
98415W        W63235  17.759  33.899  13.952
98416W        W63236  15.447  30.051   0.123
98417W        W63237  28.905  38.046  13.361
98418W        W63238  13.769  27.418  14.935
98419W        W63239  21.157  15.183   2.902
98420W        W63240  37.044  15.821   4.204
98421W        W63241  25.451   7.740   0.882
98422W        W63242  24.245  17.309  11.025
98423W        W63243  42.592  42.171  12.432
98424W        W63244   0.814  26.209   4.037
98425W        W63245  21.251  32.465   4.290
98426W        W63246  15.201  28.545  11.549
98427W        W63247  30.056  35.500   3.584
98428W        W63248  34.438   1.269   2.144
98429W        W63249  15.835   9.073   2.312
98430W        W63250  30.342   5.921  13.986
98431W        W63251   5.207  41.297   2.117
98432W        W63252  14.164  13.799   3.391
98433W        W63253  23.043   2.418  14.435
98434W        W63254  27.423  35.853  12.316
98435W        W63255   0.859  33.796   0.386
98436W        W63256  34.397  23.173   4.456
98437W        W63257  30.126   7.522  12.540
98438W        W63258   9.425  38.851  14.836
98439W        W63259  11.595  25.236  14.752
98440W        W63260  32.500  12.870   3.609
98441W        W63261  22.617  17.566  10.622
98442W        W63262  20.383   6.715  11.336
98443W        W63263  35.872  28.774  11.399
98444W        W63264  44.278   7.826   2.631
98445W        W63265  21.501   4.075   0.321
98446W        W63266  20.613  31.924  10.863
98447W        W63267   0.400  39.886  12.689
98448W        W63268  42.624  19.037   1.017
98449W        W63269  34.808  19.789  10.804
98450W        W63270   0.711  11.930   1.810
98451W        W63271  18.774   7.967  12.682
98452W        W63272  11.895  26.097  11.086
98453W        W63273  14.712   9.390   4.858
98454W        W63274  34.451  31.430   2.200
98455W        W63275  30.283  12.762  10.875
98456W        W63276   5.907  42.971   3.626
98457W        W63277  19.288  44.901   3.104
98458W        W63278  26.779  33.790   3.258
98459W        W63279  30.234  15.746  12.211
98460W        W63280   3.870   7.716  12.496
98461W        W63281  18.236   7.800   3.237
98462W        W63282  23.125  18.357   4.601
98463W        W63283  31.723   0.426   2.291
98464W        W63284  34.074  21.680   2.459
98465W        W63285   0.323  16.811   3.318
98466W        W63286  15.686  25.123   4.865
98467W        W63287  13.621   8.829   4.051
98468W        W63288  38.294  31.772   2.186
98469W        W63289  15.643  24.301   2.661
98470W        W63290   9.152  21.075   2.226
98471W        W63291  16.359  33.600  11.055
98472W        W63292  35.985  25.181   4.088
98473W        W63293  36.036  33.638  11.494
98474W        W63294  39.387  16.471   2.262
98475W        W63295   6.565  18.657   0.724
98476W        W63296   3.309  22.966  11.298
98477W        W63297   6.200   9.653  11.643
98478W        W63298  36.386  30.905  11.118
98479W        W63299  40.435  14.228  13.486
98480W        W63300  19.722  32.126  14.757
98481W        W63301  43.781  40.087  14.470
98482W        W63302  25.986  12.851   2.900
98483W        W63303  41.655  37.353  13.701
98484W        W63304  28.645  12.952  14.745
98485W        W63305  22.325  27.691   3.135
98486W        W63306   6.003  13.768  11.281
98487W        W63307  28.134  32.905  13.919
98488W        W63308  23.592  16.675   4.172
98489W        W63309  33.610  36.822  11.001
98490W        W63310  39.797  24.430   4.522
98491W        W63311  18.137  30.996   1.203
98492W        W63312  24.000  33.819   3.066
98493W        W63313  30.707  37.975   4.202
98494W        W63314  10.560  44.924  10.567
98495W        W63315   2.865  13.368  12.106
98496W        W63316  30.184  28.830  14.248
98497W        W63317  23.783  41.704   2.858
98498W        W63318  39.304  44.899  14.412
98499W        W63319   8.801  31.358  13.008
98500W        W63320  11.307  42.588  12.487
98501W        W63321   8.925  38.384  13.474
98502W        W63322  34.578  18.603  10.950
98503W        W63323  29.431  26.577   1.744
98504W        W63324  27.956  40.488  14.434
98505W        W63325  17.132  27.559  13.510
98506W        W63326   1.355  24.238   1.567
98507W        W63327  38.092  16.228  13.440
98508W        W63328   7.839  31.996   1.428
98509W        W63329   5.391  19.829   1.157
98510W        W63330   3.507   1.288  11.597
98511W        W63331  39.421  15.981   3.883
98512W        W63332  26.166  20.014  14.023
98513W        W63333  43.274  36.534   4.484
98514W        W63334  34.043   0.279   1.274
98515W        W63335  33.877  12.671   3.762
98516W        W63336  25.373   4.689  11.655
98517W        W63337  25.784  18.708   1.103
98518W        W63338  11.809  14.545   2.204
98519W        W63339  15.171   0.212   1.666
98520W        W63340  44.684  26.983  13.592
98521W        W63341  14.359  21.854   4.097
98522W        W63342  44.928   3.485   3.692
98523W        W63343  27.969  23.270  11.656
98524W        W63344  11.118  43.438  14.516
98525W        W63345  44.357  32.440  12.473
98526W        W63346  26.374  13.757  12.626
98527W        W63347  28.259  28.097   0.184
98528W        W63348  40.370  20.475  11.959
98529W        W63349   0.152  31.655  12.181
98530W        W63350  24.902  39.251  10.110
98531W        W63351  42.948   8.340   4.764
98532W        W63352  11.653  28.972   9.856
98533W        W63353  42.343  12.190   4.150
98534W        W63354  28.728   7.170  14.404
98535W        W63355  43.703  33.636  13.431
98536W        W63356   8.983  43.919  12.509
98537W        W63357  11.337  19.459  12.472
98538W        W63358   9.307  11.508   3.231
98539W        W63359  43.358  30.384   4.145
98540W        W63360  39.265  23.144  11.217
98541W        W63361   5.281  13.457   1.393
98542W        W63362  43.881  21.984  13.865
98543W        W63363  44.452  10.210   1.879
98544W        W63364  13.274  21.588  11.703
98545W        W63365  37.503  31.058  13.137
98546W        W63366  29.599   4.160   2.243
98547W        W63367  35.657   0.307   2.282
98548W        W63368  14.080  42.349   2.132
98549W        W63369  17.719  14.732   2.629
98550W        W63370  23.311  37.439   3.701
98551W        W63371  26.937  23.488   2.927
98552W        W63372  19.331  37.580  13.175
98553W        W63373  41.098  30.877  12.958
98554W        W63374  31.877  44.767   4.300
98555W        W63375  33.394  32.787   2.328
98556W        W63376  13.541  27.670   4.074
98557W        W63377  43.383  24.152   2.850
98558W        W63378  42.231   8.703   4.663
98559W        W63379  33.882  22.583   4.759
98560W        W63380   9.631   8.454  11.548
98561W        W63381   9.709  18.022  12.884
98562W        W63382  40.636  26.703  13.832
98563W        W63383  33.608   7.713   2.362
98564W        W63384  30.861  44.330  12.096
98565W        W63385   9.153  18.728  14.482
98566W        W63386  26.626  19.735  14.070
98567W        W63387  35.038  35.525   1.266
98568W        W63388  42.424  28.593  10.704
98569W        W63389  21.687  30.359   3.778
98570W        W63390  33.201   3.291   5.034
98571W        W63391  25.506   6.931  13.034
98572W        W63392   1.286  39.548  10.723
98573W        W63393  22.886  37.195  13.682
98574W        W63394  18.003   8.871   0.434
98575W        W63395  36.393  27.634   4.560
98576W        W63396  26.711  37.873  11.581
98577W        W63397  27.711  40.842  11.969
98578W        W63398  37.839  24.117  13.847
98579W        W63399  43.444  32.304  10.429
98580W        W63400  20.517  43.364   2.823
98581W        W63401  15.527  10.110  12.635
98582W        W63402  15.443  15.551   3.326
98583W        W63403  13.575  36.065   4.363
98584W        W63404  28.753  12.384   3.503
98585W        W63405  41.514  33.389  12.912
98586W        W63406   2.485  15.700  11.702
98587W        W63407  44.038  25.600   0.379
98588W        W63408  24.007   2.438   0.810
98589W        W63409  32.307  34.498   1.979
98590W        W63410  16.498  19.239  14.279
98591W        W63411  10.966  12.803  14.944
98592W        W63412  36.646  26.584  11.304
98593W        W63413  21.753  34.526  14.119
98594W        W63414  17.760  14.045  14.838
98595W        W63415  21.682  17.039   2.606
98596W        W63416   3.901   6.246   3.043
98597W        W63417  40.704   3.904  13.597
98598W        W63418  11.344   2.678  11.535
98599W        W63419  24.852  39.633   2.603
98600W        W63420  29.186  23.246   1.909
98601W        W63421  30.742  24.731   9.760
98602W        W63422  12.565  12.642   0.646
98603W        W63423  10.319  31.521  14.397
98604W        W63424  27.759  38.785   3.136
98605W        W63425  24.971  41.286  13.990
98606W        W63426  23.942  42.147   0.495
98607W        W63427  12.202  33.751   4.783
98608W        W63428   5.488  11.877   4.209
98609W        W63429  34.077  40.139  12.113
98610W        W63430  30.288  29.090  14.898
98611W        W63431  18.239  39.019  10.677
98612W        W63432   2.707  26.594   1.323
98613W        W63433  20.055  13.748   0.881
98614W        W63434  13.068   1.413   2.237
98615W        W63435  12.646   1.731  10.449
98616W        W63436  26.158  39.645  13.011
98617W        W63437  19.360  15.592   0.291
98618W        W63438  20.290  29.649  14.296
98619W        W63439  22.820   5.665  11.644
98620W        W63440  31.185   7.024   2.877
98621W        W63441  33.622  21.333   1.302
98622W        W63442   2.946  11.875   0.422
98623W        W63443  42.690   4.920   4.167
98624W        W63444  26.261   6.158  11.021
98625W        W63445  19.123  26.747   1.344
98626W        W63446  19.920  42.721  14.425
98627W        W63447  38.794  34.373   0.375
98628W        W63448  33.155   6.023   3.339
98629W        W63449  30.528  16.551   2.767
98630W        W63450  31.362  33.330  10.719
98631W        W63451  26.671  27.055  10.691
98632W        W63452  36.818   4.365  12.083
98633W        W63453  38.592  26.954   1.516
98634W        W63454  13.291   9.365   0.699
98635W        W63455  44.233  40.295  11.942
98636W        W63456  14.228  10.662  13.335
98637W        W63457  18.314  43.216   3.709
98638W        W63458  30.009  29.390   1.942
98639W        W63459  20.786  35.011   4.065
98640W        W63460  23.471  21.635   4.150
98641W        W63461   1.293  10.751  11.706
98642W        W63462  24.789  38.028  12.109
98643W        W63463  20.816  10.739   0.538
98644W        W63464  39.593  10.720   2.147
98645W        W63465  36.012  21.759   1.375
98646W        W63466  25.962  25.865  14.440
98647W        W63467  26.399  14.655   3.571
98648W        W63468  21.807   1.752   2.674
98649W        W63469  27.312  10.792  13.088
98650W        W63470  23.062  18.969  11.560
98651W        W63471   5.593   8.890   2.833
98652W        W63472  30.691  44.411  14.031
98653W        W63473   7.679  40.601  13.881
98654W        W63474  38.586  16.095   4.440
98655W        W63475   4.476  24.076  11.648
98656W        W63476  44.543   3.627   4.346
98657W        W63477   0.513  44.982   1.029
98658W        W63478  33.007  42.878  11.965
98659W        W63479  25.700  17.467  14.605
98660W        W63480  30.067  21.703  14.760
98661W        W63481  25.565  23.589   1.439
98662W        W63482  44.992  40.541  13.967
98663W        W63483  13.708  18.831  12.419
98664W        W63484  42.823  26.480   1.649
98665W        W63485   3.895  15.960   2.899
98666W        W63486  12.319  27.932  14.484
98667W        W63487  36.058  23.146   4.181
98668W        W63488  12.201   5.134  12.691
98669W        W63489   7.950  10.789   2.612
98670W        W63490  24.291  30.345  11.077
98671W        W63491  31.921  16.056   9.885
98672W        W63492  37.885   3.951  13.329
98673W        W63493  13.287  40.052   4.651
98674W        W63494  43.845  35.846   4.279
98675W        W63495  34.403  25.086   0.240
98676W        W63496  31.867  37.431   4.654
98677W        W63497  20.090  26.652   5.142
98678W        W63498   2.869  42.013   1.134
98679W        W63499  20.707   7.687  14.323
98680W        W63500  30.115  41.743  11.981
98681W        W63501  43.826  41.898   3.145
98682W        W63502  24.954  23.953   0.417
98683W        W63503  29.153  11.309  14.498
98684W        W63504   5.962  13.642  12.155
98685W        W63505  25.422  23.068   0.352
98686W        W63506  39.883  42.294   3.650
98687W        W63507  38.068  12.840   1.861
98688W        W63508  10.699  13.628  11.053
98689W        W63509  31.112  32.009   3.384
98690W        W63510  26.095  13.117  13.458
98691W        W63511  28.038  14.700   3.550
98692W        W63512  32.462  32.867   2.450
98693W        W63513   5.215  35.773   1.478
98694W        W63514  33.925  27.572  14.495
98695W        W63515  17.873  34.162   1.270
98696W        W63516  10.769  22.695   2.773
98697W        W63517  35.422  11.333   1.223
98698W        W63518  19.152  24.074   0.546
98699W        W63519   9.390   9.554  11.700
98700W        W63520   0.378  24.964  14.555
98701W        W63521  44.709   0.990  13.392
98702W        W63522  40.377  40.780   3.339
98703W        W63523   0.829   9.054  12.115
98704W        W63524  30.578  11.070  12.543
98705W        W63525  10.659   8.620   1.740
98706W        W63526   4.430   1.477   2.099
98707W        W63527  32.507  22.543  14.840
98708W        W63528  28.335  41.957  11.765
98709W        W63529  17.083  36.345  11.924
98710W        W63530  34.126  27.030   4.070
98711W        W63531  32.586  42.252   1.373
98712W        W63532  28.905  31.702  10.663
98713W        W63533   4.276   8.638   2.398
98714W        W63534  24.203  25.091   3.637
98715W        W63535   3.840  43.076  11.308
98716W        W63536   1.870  42.137  12.056
98717W        W63537  34.882  11.202  13.438
98718W        W63538  26.662  10.901   3.397
98719W        W63539  20.616  10.794  14.023
98720W        W63540  29.888  21.555  10.654
98721W        W63541  42.041  38.575   2.242
98722W        W63542  17.407   8.794   9.712
98723W        W63543  18.106  30.855   0.303
98724W        W63544  44.507  29.683  14.984
98725W        W63545   4.642  14.647   4.317
98726W        W63546  18.105  18.300  12.573
98727W        W63547  37.105  40.988   1.810
98728W        W63548  37.372   1.736   1.527
98729W        W63549  28.609   7.915  13.054
98730W        W63550  39.509   3.752  14.319
98731W        W63551  15.172   4.647   2.513
98732W        W63552  40.338   2.124   2.974
98733W        W63553  37.530  25.972   0.869
98734W        W63554  31.102  32.645  12.512
98735W        W63555   3.446  40.713  14.866
98736W        W63556   5.660  14.731  11.098
98737W        W63557  42.442   7.652  14.921
98738W        W63558  26.091  22.915  13.304
98739W        W63559   8.155  12.145   1.211
98740W        W63560   2.641  42.469   0.918
98741W        W63561  22.502  18.299  14.598
98742W        W63562   3.475  12.852  11.612
98743W        W63563  42.849  16.903  11.645
98744W        W63564  41.367  14.533  13.926
98745W        W63565  10.442  41.153  12.010
98746W        W63566  26.839  44.306   0.003
98747W        W63567   7.512  24.591  14.109
98748W        W63568  37.170  16.299   4.052
98749W        W63569  42.811  42.854  11.153
98750W        W63570  14.356   4.196   2.588
98751W        W63571  10.334  42.160   0.411
98752W        W63572  24.967  33.056  12.609
98753W        W63573  28.147  33.453  14.393
98754W        W63574  10.790  36.314   4.045
98755W        W63575  26.193  11.567   2.233
98756W        W63576  15.155  44.739   1.862
98757W        W63577  37.105  23.111  13.420
98758W        W63578   7.864  27.668  13.642
98759W        W63579  16.627  36.553   0.326
98760W        W63580  15.136  15.065  14.563
98761W        W63581  36.007  36.795   1.836
98762W        W63582  35.845  38.977  14.995
98763W        W63583   7.419   3.091  13.043
98764W        W63584  29.419  24.010  14.822
98765W        W63585  41.555  19.588  12.406
98766W        W63586  25.194  25.470  12.915
98767W        W63587  33.715  32.587  13.377
98768W        W63588  34.966  41.821   3.511
98769W        W63589   1.700  32.056   2.393
98770W        W63590  33.188   5.902  12.003
98771W        W63591  33.821  36.039  10.302
98772W        W63592   6.308  12.271  10.071
98773W        W63593  27.584  22.949  12.504
98774W        W63594  11.606   6.399  13.836
98775W        W63595  23.261   9.863  13.687
98776W        W63596  40.626   4.631   4.209
98777W        W63597  27.435  42.532  10.393
98778W        W63598  23.488  40.277  12.957
98779W        W63599  14.115  38.683  11.622
98780W        W63600  11.992  14.125   5.002
98781W        W63601  20.831  38.527   1.290
98782W        W63602  36.684  24.116  14.689
98783W        W63603   4.326  26.191  11.170
98784W        W63604  17.201  36.021   0.338
98785W        W63605  39.838  11.626  14.878
98786W        W63606  17.348   2.855   1.555
98787W        W63607  20.861  36.630   2.746
98788W        W63608  41.854  35.087   2.236
98789W        W63609  38.792  32.923  13.587
98790W        W63610   4.695  26.099  10.812
98791W        W63611  29.609  25.789   3.123
98792W        W63612   1.049  13.788   3.696
98793W        W63613  27.180  36.972  13.866
98794W        W63614  28.458  36.424   1.266
98795W        W63615  25.088  42.401  14.431
98796W        W63616   5.156  19.320  12.934
98797W        W63617  22.713  26.736   2.791
98798W        W63618  14.832   7.767   0.935
98799W        W63619  34.360   4.543   2.621
98800W        W63620  20.225  15.753   2.831
98801W        W63621   9.004  22.433  13.918
98802W        W63622  35.077   7.439  10.772
98803W        W63623  29.553   8.975  11.197
98804W        W63624  19.112  43.007  10.719
98805W        W63625  27.371   7.488  11.174
98806W        W63626   1.834  12.171  12.023
98807W        W63627  17.105   3.985  12.039
98808W        W63628  39.946   9.584   2.706
98809W        W63629  19.223  30.206   3.645
98810W        W63630  20.655  21.228  13.778
98811W        W63631  21.001  40.316   5.013
98812W        W63632  16.594   9.567  12.006
98813W        W63633  12.865   5.255  13.495
98814W        W63634   7.209   9.877   1.951
98815W        W63635  21.152  16.810   3.708
98816W        W63636  20.301  44.927  11.466
98817W        W63637  26.970  41.775  10.632
98818W        W63638  13.383   5.868  13.905
98819W        W63639   8.163  16.023   2.521
98820W        W63640   9.728  30.048  12.297
98821W        W63641  28.050  36.953   3.098
98822W        W63642  24.390   0.792  14.324
98823W        W63643  17.608  21.844  12.914
98824W        W63644   4.626  25.657  10.013
98825W        W63645  23.279   2.887  14.376
98826W        W63646  11.370  35.909  12.726
98827W        W63647  28.788  14.834  13.011
98828W        W63648  27.998  24.818   0.915
98829W        W63649  25.878   3.851  14.288
98830W        W63650  34.088  13.077   0.970
98831W        W63651   3.155  18.891   2.285
98832W        W63652  19.933  43.443   1.094
98833W        W63653  42.422  13.406  11.564
98834W        W63654   5.401   0.929   2.154
98835W        W63655  44.698  17.111  14.843
98836W        W63656  40.430  36.509  12.328
98837W        W63657   2.974  43.795   3.230
98838W        W63658  18.192  33.356   4.696
98839W        W63659   3.233  39.425  12.969
98840W        W63660  23.126  25.085   4.416
98841W        W63661  12.679  18.786  11.153
98842W        W63662  38.534  20.005   0.827
98843W        W63663  43.367  32.104   4.694
98844W        W63664  16.310   1.784  10.705
98845W        W63665  43.846  39.914   1.892
98846W        W63666  17.365  37.453   2.190
98847W        W63667   7.426  11.759  12.343
98848W        W63668  25.438   0.994   1.829
98849W        W63669  23.902  31.185   0.782
98850W        W63670  18.559  20.171  10.529
98851W        W63671  44.486  10.585  11.828
98852W        W63672  39.901   9.379  12.658
98853W        W63673  15.194  28.698   1.340
98854W        W63674  33.627  39.027   1.975
98855W        W63675  19.037  10.717   3.087
98856W        W63676  30.748   4.227  11.105
98857W        W63677   3.288  10.296  13.088
98858W        W63678  27.040  40.119  12.178
98859W        W63679  19.748  31.127   4.637
98860W        W63680   8.400  33.570   3.378
98861W        W63681  40.158  26.333   1.800
98862W        W63682   3.191  12.426   4.571
98863W        W63683  26.921  13.821   4.553
98864W        W63684  12.712  26.555   3.309
98865W        W63685   8.305   7.962  12.753
98866W        W63686  19.571  24.621   3.875
98867W        W63687   2.741  21.708  14.833
98868W        W63688  34.932  28.916   4.832
98869W        W63689  16.253  34.173  12.362
98870W        W63690  29.286  28.146  12.539
98871W        W63691   7.665  37.013   0.897
98872W        W63692  41.930  14.286  13.464
98873W        W63693  38.105   4.746   1.943
98874W        W63694  13.674  12.757  12.020
98875W        W63695  38.978  43.183  11.107
98876W        W63696  32.843  18.060   3.114
98877W        W63697  38.406  44.815  13.441
98878W        W63698  33.797  30.013  13.923
98879W        W63699  11.899  23.925   2.190
98880W        W63700  25.211  41.893   0.717
98881W        W63701  43.067  14.326   3.692
98882W        W63702  28.447   9.174  10.600
98883W        W63703  15.313  26.049  14.320
98884W        W63704   4.319  34.696   0.380
98885W        W63705  14.887  35.785   3.378
98886W        W63706  44.004  41.938   2.155
98887W        W63707   3.898   9.755  12.698
98888W        W63708  39.962  38.077   1.784
98889W        W63709  35.125  35.583  13.884
98890W        W63710   7.475  27.490  13.957
98891W        W63711   7.366   1.327  12.504
98892W        W63712  40.762  20.596   3.581
98893W        W63713  23.743   9.104  11.505
98894W        W63714  29.909  41.787   1.257
98895W        W63715  31.676   0.539   3.301
98896W        W63716  32.451  11.815  14.405
98897W        W63717   0.944  16.497   2.700
98898W        W63718  24.552  26.413  13.603
98899W        W63719  39.517  22.759   3.774
98900W        W63720  34.514  19.786  14.773
98901W        W63721  13.862   5.837  14.608
98902W        W63722  33.017  37.540   0.381
98903W        W63723  29.982  33.433  11.227
98904W        W63724  41.418  30.643  12.594
98905W        W63725  29.651  33.108  10.667
98906W        W63726  18.317  28.008   2.607
98907W        W63727  43.842  35.634   1.902
98908W        W63728  35.418   4.772  11.456
98909W        W63729  37.075  44.560  10.785
98910W        W63730  18.539  41.253  10.739
98911W        W63731  16.682  38.869   0.188
98912W        W63732  30.514  21.652  13.696
98913W        W63733  23.738  43.286  13.392
98914W        W63734  12.884  23.204   4.279
98915W        W63735  13.267   5.930   1.925
98916W        W63736  30.495  24.176  11.976
98917W        W63737  37.973   8.595   4.203
98918W        W63738  33.891  32.477  14.973
98919W        W63739  27.428  16.653  11.301
98920W        W63740  39.558  39.637  10.712
98921W        W63741  31.449  23.180   3.201
98922W        W63742  26.500   7.351   1.422
98923W        W63743  17.668  35.777  10.826
98924W        W63744  21.113  31.153  14.797
98925W        W63745  22.716  16.618   1.900
98926W        W63746  14.561  33.837   1.959
98927W        W63747  37.431  41.433  13.524
98928W        W63748  15.126  13.881   1.444
98929W        W63749  22.248  16.852   2.042
98930W        W63750   9.743  30.948  14.806
98931W        W63751  41.533  27.592   2.201
98932W        W63752  29.129  13.109   0.179
98933W        W63753  15.135  42.665   2.926
98934W        W63754  35.006  44.167   0.326
98935W        W63755  30.868  21.137   2.345
98936W        W63756  10.000  11.647   0.473
98937W        W63757  17.706  18.287  13.326
98938W        W63758  22.866  35.748  14.285
98939W        W63759   9.410   2.099   4.174
98940W        W63760  28.727   5.408  10.856
98941W        W63761   6.256   1.328   3.304
98942W        W63762   0.483  17.939  11.141
98943W        W63763  30.451  39.589   1.967
98944W        W63764  43.291  16.201   4.026
98945W        W63765  39.349  40.240  11.606
98946W        W63766  19.153  10.769   2.236
98947W        W63767  14.082  23.724  12.975
98948W        W63768   3.282   9.299  13.956
98949W        W63769  27.444   2.640  13.972
98950W        W63770  31.911  35.261   3.818
98951W        W63771  33.410  27.934   3.256
98952W        W63772  28.366  40.933   1.840
98953W        W63773  22.255   4.109  13.690
98954W        W63774  29.021  18.755  14.969
98955W        W63775  21.943  17.202  11.054
98956W        W63776  35.932  26.497   1.871
98957W        W63777   4.400  15.823   4.152
98958W        W63778  44.271   1.884  11.108
98959W        W63779   7.535  30.619  10.760
98960W        W63780   3.820   4.964  12.036
98961W        W63781  19.285   1.656   1.864
98962W        W63782  14.535  33.756   0.217
98963W        W63783  44.319   1.576  12.015
98964W        W63784   5.670  32.337   0.640
98965W        W63785  20.255  36.849   1.197
98966W        W63786   9.286  14.211   2.939
98967W        W63787  33.078  38.313  11.051
98968W        W63788  27.174  17.743  14.309
98969W        W63789  19.583  26.077   1.519
98970W        W63790  34.533   6.287   2.700
98971W        W63791  10.628  36.218  14.964
98972W        W63792   5.668  37.630  12.673
98973W        W63793  27.026  37.799   2.213
98974W        W63794  13.455  42.022   2.430
98975W        W63795   8.413  31.713   2.470
98976W        W63796   6.025  44.400  12.805
98977W        W63797  21.596  31.000  14.543
98978W        W63798  14.392  37.346  12.427
98979W        W63799  31.379  15.163  14.634
98980W        W63800   2.310   2.858  13.777
98981W        W63801  17.843  23.170  14.069
98982W        W63802   5.357  32.456  13.523
98983W        W63803   8.322  33.077  12.540
98984W        W63804  31.565  42.190  14.590
98985W        W63805  16.967  22.536  10.944
98986W        W63806   5.440   9.214   0.581
98987W        W63807  37.831  10.269  14.394
98988W        W63808  39.188  25.701  10.197
98989W        W63809  34.372   4.205  13.037
98990W        W63810  26.108  26.552   2.493
98991W        W63811  21.866  42.464   2.331
98992W        W63812  43.699  28.826   0.493
98993W        W63813  41.159   6.746   2.720
98994W        W63814  27.982   9.672  11.574
98995W        W63815   4.485  39.409  10.683
98996W        W63816  23.776  27.486  12.016
98997W        W63817  18.759  40.716   2.282
98998W        W63818   0.316  41.812   1.856
98999W        W63819  19.057  38.820   3.134
99000W        W63820   2.268  24.515  14.286
99001W        W63821  24.965   7.325  10.474
99002W        W63822  42.912  28.552  10.408
99003W        W63823  24.490  28.396   1.418
99004W        W63824  29.977  36.272   0.450
99005W        W63825  34.460  18.846   0.798
99006W        W63826  44.732  23.007  13.219
99007W        W63827   2.144   9.371   3.643
99008W        W63828  31.819   9.472   4.168
99009W        W63829  31.867  14.247  11.467
99010W        W63830  43.076  37.515  12.528
99011W        W63831  15.753  15.962   3.485
99012W        W63832  18.875   1.328  11.781
99013W        W63833   2.820  39.386  13.513
99014W        W63834  34.080  20.507  11.117
99015W        W63835   5.269  13.158  11.838
99016W        W63836  20.132  38.380  13.000
99017W        W63837   6.964  41.327  11.352
99018W        W63838   6.340  20.805   1.220
99019W        W63839  42.336  13.542  13.454
99020W        W63840   6.886  35.264  12.412
99021W        W63841  12.763  40.113  11.205
99022W        W63842  35.202  23.150  13.294
99023W        W63843   8.243   8.870  14.366
99024W        W63844  18.036  39.492  13.370
99025W        W63845   3.334  13.106   3.335
99026W        W63846   4.475   9.904  13.571
99027W        W63847   5.679   1.772  12.486
99028W        W63848  43.853   6.737   2.135
99029W        W63849  28.809   7.221  13.456
99030W        W63850   2.188  20.828  14.834
99031W        W63851  32.279  43.414   1.697
99032W        W63852  31.498  28.725   0.737
99033W        W63853  29.686  38.310  10.611
99034W        W63854  14.820  40.580   4.636
99035W        W63855  32.394  38.194  14.203
99036W        W63856  11.194  21.624   1.368
99037W        W63857   2.025  42.480   2.572
99038W        W63858   1.680  37.878  14.274
99039W        W63859   5.793  10.597   2.297
99040W        W63860  43.986  13.941   2.847
99041W        W63861  18.541  21.497   0.299
99042W        W63862  21.984  44.819  13.924
99043W        W63863   5.329  28.565  12.959
99044W        W63864   1.080  21.143   3.712
99045W        W63865  19.272  36.357   2.189
99046W        W63866   9.132  29.749  13.710
99047W        W63867  34.962  33.829   4.798
99048W        W63868  25.457  34.353   1.132
99049W        W63869  17.302  42.244   1.276
99050W        W63870  11.468  25.495   0.233
99051W        W63871  11.783  25.691  13.430
99052W        W63872  10.680  17.223  10.423
99053W        W63873  41.529  37.117  12.432
99054W        W63874  17.731   0.770  14.460
99055W        W63875  26.628  25.315  10.496
99056W        W63876  43.059  29.708  14.845
99057W        W63877  42.904   6.841  13.414
99058W        W63878  35.044   9.613   1.417
99059W        W63879   7.296  12.559   2.759
99060W        W63880  31.404   0.252   1.888
99061W        W63881   8.404  19.724   2.967
99062W        W63882  44.298  34.156   2.273
99063W        W63883   1.385  37.457  11.975
99064W        W63884   8.340  25.517  12.461
99065W        W63885  12.932  23.517   4.708
99066W        W63886   6.963  29.124  11.562
99067W        W63887  27.046  14.802  11.733
99068W        W63888   5.926  27.463   0.271
99069W        W63889  30.392  10.918  13.840
99070W        W63890  10.110  36.512   3.590
99071W        W63891  26.677  34.335   3.163
99072W        W63892   1.753  17.882  10.659
99073W        W63893  10.121  12.615   4.763
99074W        W63894   9.362   7.908   2.333
99075W        W63895   8.819  42.718  12.739
99076W        W63896   8.858  17.769   4.123
99077W        W63897  25.569  20.355   3.173
99078W        W63898  33.807  17.831   1.310
99079W        W63899   2.774  35.271   0.666
99080W        W63900  34.401  31.055  11.525
99081W        W63901  28.855   2.753   2.264
99082W        W63902  11.553  22.759   1.659
99083W        W63903  42.460  31.050  12.853
99084W        W63904  12.810   1.016   3.911
99085W        W63905   8.960  20.617   3.223
99086W        W63906  25.466  12.019  13.039
99087W        W63907  10.982  44.497  11.797
99088W        W63908  14.086  37.544   3.680
99089W        W63909  20.442  13.643   3.715
99090W        W63910  16.888  19.598   2.784
99091W        W63911  24.560  13.279   3.116
99092W        W63912  30.393  38.122   3.726
99093W        W63913  43.728  30.142   1.737
99094W        W63914  39.490  15.159  11.679
99095W        W63915  30.438  17.062  12.931
99096W        W63916  42.924   5.934   1.511
99097W        W63917  27.922   8.199   0.278
99098W        W63918   1.278  16.153   3.646
99099W        W63919  31.422  23.261   0.414
99100W        W63920  19.594  11.671   1.282
99101W        W63921  32.946  16.157   1.325
99102W        W63922  17.738  32.857  10.995
99103W        W63923  20.592   9.238   2.154
99104W        W63924  21.928  13.234  13.303
99105W        W63925   1.827  22.030  13.587
99106W        W63926  24.121  31.475   1.547
99107W        W63927  44.849  29.132   2.381
99108W        W63928  11.619   2.034   0.048
99109W        W63929  40.894   1.505   1.928
99110W        W63930  23.632   3.711   4.083
99111W        W63931  44.094  33.018   3.714
99112W        W63932  25.056  36.508  14.943
99113W        W63933  44.729  15.656  13.784
99114W        W63934  23.362  30.024   2.853
99115W        W63935  16.844   3.895  13.396
99116W        W63936   0.031   4.939   2.518
99117W        W63937   8.740  19.551   3.900
99118W        W63938  27.167   9.307  13.837
99119W        W63939   2.824  41.837   2.655
99120W        W63940  26.425   6.220   9.991
99121W        W63941  22.729  33.001  14.065
99122W        W63942  11.680   1.023  14.936
99123W        W63943  31.682   2.168  11.224
99124W        W63944   1.316  18.364   4.746
99125W        W63945  22.324   7.017  14.352
99126W        W63946   8.442  24.732  14.434
99127W        W63947   0.747   7.410   3.403
99128W        W63948  31.916  23.820   1.415
99129W        W63949  12.628  20.229  14.752
99130W        W63950  30.418   0.716   0.843
99131W        W63951  27.042  24.132   0.815
99132W        W63952  22.006  34.420  12.005
99133W        W63953   5.940  21.272  14.564
99134W        W63954   8.668  28.374  13.965
99135W        W63955   4.920   4.147   1.872
99136W        W63956  38.527  42.490   4.615
99137W        W63957  28.016   6.350  11.661
99138W        W63958   5.714  19.970  10.841
99139W        W63959  41.017   8.650   9.675
99140W        W63960  37.772  10.374  11.675
99141W        W63961  44.270   0.304  12.939
99142W        W63962  43.372  12.430  11.545
99143W        W63963   0.991   2.232   1.266
99144W        W63964  27.970  31.322   1.296
99145W        W63965  13.663   4.875   3.530
99146W        W63966  18.761  16.183   4.427
99147W        W63967  22.625  11.177   1.187
99148W        W63968  18.292  14.209  14.836
99149W        W63969  22.143  10.653   1.812
99150W        W63970  18.442  33.324  13.405
99151W        W63971   0.760   3.408  12.482
99152W        W63972  30.662  27.416  12.082
99153W        W63973  35.436   9.961   1.578
99154W        W63974  21.558   5.385   2.918
99155W        W63975  36.029  17.119   1.089
99156W        W63976   2.849   1.563   1.731
99157W        W63977   8.218  16.963  12.973
99158W        W63978  15.711  30.573  12.094
99159W        W63979  21.312  29.636  13.030
99160W        W63980   4.820   3.789  10.894
99161W        W63981  18.121  41.365  14.038
99162W        W63982  40.816  31.539  14.278
99163W        W63983  39.442  34.790   1.255
99164W        W63984  35.870   3.983   1.614
99165W        W63985  25.299  12.081   0.396
99166W        W63986  30.818  15.678  10.224
99167W        W63987  14.539  13.257   0.417
99168W        W63988  14.769  39.131  11.587
99169W        W63989  21.019  12.887   2.354
99170W        W63990  42.936  19.151   2.851
99171W        W63991   1.801   2.875   3.768
99172W        W63992   2.281   3.149   3.796
99173W        W63993  25.077  35.701  12.631
99174W        W63994  16.818  23.197   0.992
99175W        W63995  12.987  22.867   4.698
99176W        W63996  33.578  27.478   0.811
99177W        W63997  13.949  29.781  11.797
99178W        W63998  32.707  21.390   0.394
99179W        W63999  12.512  32.662  11.064
99180W        W64000  40.474  14.717   1.350
99181W        W64001  10.754   8.764   2.308
99182W        W64002  13.399  22.174   0.949
99183W        W64003  11.128  39.356  13.333
99184W        W64004   2.793  37.798   2.133
99185W        W64005  23.991  11.096   1.218
99186W        W64006  33.498   6.283  11.530
99187W        W64007  17.618  29.098   0.311
99188W        W64008  25.004  14.221  12.099
99189W        W64009  37.665  22.712  10.633
99190W        W64010  29.107  10.784  11.528
99191W        W64011  26.472  33.804   4.139
99192W        W64012   2.460  43.813   1.768
99193W        W64013  44.042  43.627  11.861
99194W        W64014  15.782  43.536  12.480
99195W        W64015  38.352  35.422  13.026
99196W        W64016  26.766  17.098  12.451
99197W        W64017  12.790  22.431  14.033
99198W        W64018  18.266   4.323  14.572
99199W        W64019  33.848  20.171   4.511
99200W        W64020  22.517  27.431  13.102
99201W        W64021   7.296  14.766   1.603
99202W        W64022  31.011  21.061  13.026
99203W        W64023  30.165  21.012   0.535
99204W        W64024  34.823  27.171   1.330
99205W        W64025   3.679  12.025  12.481
99206W        W64026  12.301  41.403   0.046
99207W        W64027   6.392   0.052  11.628
99208W        W64028   9.402  22.789  14.059
99209W        W64029  22.746  16.529   2.864
99210W        W64030  22.719   6.761  13.522
99211W        W64031   2.442  38.436   0.884
99212W        W64032  11.874   5.473   2.564
99213W        W64033  14.710  40.942   1.593
99214W        W64034  10.133  20.980   0.045
99215W        W64035   9.737   0.052   3.204
99216W        W64036  15.647  15.115   2.296
99217W        W64037  35.474  44.394   0.296
99218W        W64038  17.825  44.832  13.363
99219W        W64039  17.256  33.941  12.450
99220W        W64040  22.289  29.353  11.945
99221W        W64041   4.396   4.434   1.442
99222W        W64042  11.319  28.070   3.774
99223W        W64043  15.170  18.603  14.410
99224W        W64044   5.304   1.399   3.636
99225W        W64045  26.758   2.509   3.189
99226W        W64046   9.307   2.243   3.666
99227W        W64047  38.382  26.128   3.219
99228W        W64048  42.579  10.283  13.006
99229W        W64049  14.645   5.296  14.979
99230W        W64050  22.970   2.487  12.144
99231W        W64051  41.440  41.089  13.441
99232W        W64052   8.858  13.868  13.868
99233W        W64053  12.763   8.637  12.981
99234W        W64054   2.853   1.651  11.520
99235W        W64055  29.440   8.820   0.805
99236W        W64056  10.156   8.742   1.726
99237W        W64057   5.926   3.267  12.627
99238W        W64058   3.287  26.443  14.747
99239W        W64059  34.602  32.195  11.930
99240W        W64060  31.684   0.440   4.082
99241W        W64061  17.166  29.010  12.066
99242W        W64062  31.128  17.375  12.577
99243W        W64063  11.045  19.574   0.325
99244W        W64064   8.213  16.432   2.832
99245W        W64065   7.463  27.942   3.696
99246W        W64066  34.401   5.827   3.390
99247W        W64067  12.461  25.074  11.960
99248W        W64068  36.099  24.800  10.506
99249W        W64069  20.093   3.930  13.157
99250W        W64070  35.095   1.365  11.710
99251W        W64071  18.792  35.904  13.902
99252W        W64072   9.612  17.819  14.743
99253W        W64073  44.825   3.630   0.341
99254W        W64074  33.199   0.317   4.377
99255W        W64075  30.723  18.634  11.953
99256W        W64076  15.258   0.498   3.105
99257W        W64077  10.364  28.111  11.565
99258W        W64078  25.287  11.934  12.117
99259W        W64079  37.998   6.825  13.263
99260W        W64080  35.080  12.538  11.214
99261W        W64081  15.388  18.363   3.564
99262W        W64082   1.953   8.881   3.673
99263W        W64083  39.905  15.555  13.799
99264W        W64084  15.316  37.983   3.342
99265W        W64085  14.062  43.149   3.196
99266W        W64086  13.054  22.669   2.703
99267W        W64087  13.363  11.153  14.582
99268W        W64088  36.815  32.432   1.394
99269W        W64089  37.905  35.317   3.522
99270W        W64090  12.720  29.833  14.256
99271W        W64091  14.334  26.687  11.956
99272W        W64092  18.323   1.720   3.124
99273W        W64093  44.759  27.313   2.107
99274W        W64094   0.317   1.796   0.813
99275W        W64095  38.770  13.919  12.906
99276W        W64096  22.525  10.673  10.608
99277W        W64097  42.322  17.136   0.011
99278W        W64098  32.197  31.803   1.786
99279W        W64099  39.990  19.092  12.574
99280W        W64100  26.058   0.754  10.703
99281W        W64101  21.226  31.827  11.609
99282W        W64102  30.701  43.564  12.119
99283W        W64103  40.363   3.773   2.775
99284W        W64104  37.401  34.204  11.612
99285W        W64105  26.541   3.267   0.947
99286W        W64106  17.276  39.376  14.465
99287W        W64107  26.941  16.046  12.793
99288W        W64108  36.477  24.964  13.567
99289W        W64109  10.750  29.087   1.886
99290W        W64110   4.925   1.449   4.383
99291W        W64111  11.073  19.298   3.737
99292W        W64112   1.327  33.470   3.312
99293W        W64113  10.893  44.718   2.732
99294W        W64114  18.050  34.084  13.329
99295W        W64115  22.400  30.438   1.346
99296W        W64116  40.931   5.400   2.713
99297W        W64117   0.278   5.824  10.838
99298W        W64118  39.640   0.056   0.318
99299W        W64119  18.180  14.536  13.467
99300W        W64120  13.174  38.622   0.681
99301W        W64121  15.255  24.349   3.406
99302W        W64122   8.235  15.042   3.315
99303W        W64123  13.339   2.065   1.418
99304W        W64124   3.818   3.184  12.424
99305W        W64125   6.149  13.647   0.514
99306W        W64126  17.705   4.727   1.422
99307W        W64127  33.031  27.592  14.519
99308W        W64128  43.066   2.885  12.071
99309W        W64129  23.009  34.359  11.638
99310W        W64130  15.518  29.055   2.680
99311W        W64131  31.447  28.104  12.190
99312W        W64132   9.926   3.124  13.864
99313W        W64133   4.250   7.337   1.330
99314W        W64134  15.245  42.027   3.683
99315W        W64135  14.736  31.998   1.856
99316W        W64136  16.518  34.157  11.923
99317W        W64137  35.356  37.934   2.281
99318W        W64138  39.360  15.528  10.569
99319W        W64139   4.731  19.163  12.596
99320W        W64140  22.992  17.834   3.741
99321W        W64141   2.784   5.812   3.074
99322W        W64142  23.488  27.009   3.465
99323W        W64143  40.223  33.875   2.901
99324W        W64144  22.153  38.484  14.454
99325W        W64145  23.719  36.868  11.118
99326W        W64146  14.325  23.788  12.445
99327W        W64147  39.961   0.714   4.145
99328W        W64148   7.983  19.745  12.495
99329W        W64149  37.367  11.082   0.430
99330W        W64150   4.172   3.343  12.831
99331W        W64151  42.424  32.588   1.357
99332W        W64152  36.833  32.852   4.609
99333W        W64153  34.694  20.357   2.768
99334W        W64154  28.897  31.059   3.678
99335W        W64155   8.921  40.067   4.174
99336W        W64156  43.851  31.375   4.949
99337W        W64157   0.603  24.947  14.085
99338W        W64158  11.860  24.043  13.470
99339W        W64159   3.622  27.007  14.322
99340W        W64160  23.121  10.430  11.719
99341W        W64161  14.587  12.231   3.659
99342W        W64162  13.078  14.509  11.563
99343W        W64163  31.733  37.922   0.345
99344W        W64164  28.168   6.842  10.564
99345W        W64165  33.572   7.022   4.168
99346W        W64166  21.235   2.446   0.441
99347W        W64167  23.049  15.673   4.852
99348W        W64168  19.480  18.847  11.644
99349W        W64169  24.543  42.850   4.166
99350W        W64170  23.190   9.366  11.402
99351W        W64171  22.988  30.128   0.812
99352W        W64172   8.289  28.432  11.177
99353W        W64173  27.418  17.696  13.859
99354W        W64174  24.229  38.062   2.271
99355W        W64175  40.533  31.478   0.384
99356W        W64176  23.636  25.489  14.437
99357W        W64177  16.083  25.957   2.374
99358W        W64178   9.150  42.958  10.689
99359W        W64179  14.067   5.341  11.133
99360W        W64180  16.190  43.831   3.845
99361W        W64181   0.371  18.391  12.700
99362W        W64182   8.883  39.642  13.887
99363W        W64183  20.511  42.492   1.896
99364W        W64184  36.767   4.496   0.327
99365W        W64185   5.453  10.823  12.577
99366W        W64186  13.738  39.334  14.329
99367W        W64187  34.465  14.282   1.585
99368W        W64188  36.162  22.632  11.463
99369W        W64189  41.586  24.427   2.214
99370W        W64190   2.914  10.698  11.440
99371W        W64191  38.295  23.605   2.631
99372W        W64192  21.722   2.171   0.476
99373W        W64193  13.306  41.179  10.409
99374W        W64194  19.178  34.849   2.305
99375W        W64195  44.817  18.646  13.570
99376W        W64196   5.301   4.455  11.394
99377W        W64197  38.645   5.887   3.216
99378W        W64198  26.084  43.276  10.380
99379W        W64199  14.656  10.103  14.560
99380W        W64200  13.639  40.774  12.141
99381W        W64201  29.673  10.315   0.436
99382W        W64202  41.700  19.734   0.418
99383W        W64203   4.540   0.890   4.946
99384W        W64204  19.548  25.464   2.779
99385W        W64205   0.366  37.017  11.216
99386W        W64206   1.855   6.448  12.830
99387W        W64207  37.714  17.919   3.782
99388W        W64208  34.788  11.101   0.726
99389W        W64209  26.039  34.189  13.203
99390W        W64210  23.664  29.548   2.786
99391W        W64211   9.395  28.599  14.414
99392W        W64212  15.026  18.776   4.976
99393W        W64213  43.081   8.267  12.926
99394W        W64214  20.246  19.018  12.529
99395W        W64215  13.774  13.631   0.749
99396W        W64216  14.138  35.944   5.080
99397W        W64217  16.621  25.953   4.503
99398W        W64218  18.183   6.170   0.712
99399W        W64219   0.021  36.647  11.153
99400W        W64220  13.689  37.632   2.308
99401W        W64221  18.515  17.520   3.593
99402W        W64222   1.459  34.423   0.342
99403W        W64223  35.690  14.097  14.166
99404W        W64224  24.562  37.931   1.265
99405W        W64225   9.729   3.727   4.738
99406W        W64226   5.271   4.983  10.314
99407W        W64227  35.005  36.196   4.722
99408W        W64228  18.639  16.295  11.670
99409W        W64229  30.670  27.649  14.291
99410W        W64230  44.562  10.947   1.336
99411W        W64231   7.824  14.331   3.056
99412W        W64232  30.908  16.221   5.538
99413W        W64233  12.926  23.558  14.902
99414W        W64234  11.243  20.265  12.962
99415W        W64235  15.695  41.495   2.278
99416W        W64236  31.966  40.823   4.338
99417W        W64237  44.915  24.212  12.561
99418W        W64238  41.909  25.993   2.566
99419W        W64239  36.107  34.339   4.483
99420W        W64240  30.550  43.209  14.332
99421W        W64241   6.589  10.244  11.111
99422W        W64242   9.920  16.290   2.159
99423W        W64243  28.117   8.250   3.362
99424W        W64244  27.636   9.308   4.088
99425W        W64245  15.745  12.885   2.214
99426W        W64246  26.377  39.334  10.584
99427W        W64247  23.428  25.525  10.955
99428W        W64248  29.031  22.504   4.054
99429W        W64249  22.961  12.443   0.961
99430W        W64250  21.347  15.566  14.293
99431W        W64251  21.694  23.232   3.379
99432W        W64252  32.519   2.693  13.803
99433W        W64253  24.226  41.032  11.092
99434W        W64254   1.597  26.471  14.756
99435W        W64255  43.497   3.458   2.298
99436W        W64256  41.058  33.073   3.676
99437W        W64257  21.530  28.622   0.929
99438W        W64258  42.434  32.624  10.813
99439W        W64259  30.912  30.417  11.170
99440W        W64260  27.688  37.227   2.490
99441W        W64261  36.890   1.839  11.250
99442W        W64262  31.189   2.187  14.374
99443W        W64263  18.339  24.736  14.329
99444W        W64264  43.910  14.664   0.300
99445W        W64265  22.559  37.771   4.819
99446W        W64266  15.654  39.866  10.462
99447W        W64267   2.634  41.891  14.661
99448W        W64268  22.727  10.689   4.492
99449W        W64269   3.263  36.533  13.434
99450W        W64270  36.082  24.443   4.623
99451W        W64271  41.615  30.415  10.653
99452W        W64272  35.786   1.032  13.426
99453W        W64273   5.198  20.684   2.714
99454W        W64274  44.711  41.124   1.539
99455W        W64275  27.419  40.957   2.311
99456W        W64276  31.449   3.318  13.977
99457W        W64277  25.864  28.912   2.785
99458W        W64278  35.099   8.331  11.590
99459W        W64279   1.039  40.479  14.553
99460W        W64280  39.865  13.856  13.011
99461W        W64281  22.242  20.041   0.965
99462W        W64282  39.864  15.178   4.028
99463W        W64283  10.733  29.514  14.799
99464W        W64284  10.151  14.715   3.127
99465W        W64285  13.345  36.549  10.431
99466W        W64286  24.535  25.605   1.246
99467W        W64287   3.496   3.534   1.748
99468W        W64288   7.154   4.762  12.543
99469W        W64289  34.889  10.257  10.477
99470W        W64290  15.061  26.416   4.488
99471W        W64291  14.202   6.283  12.121
99472W        W64292  18.497  19.082  11.482
99473W        W64293   2.065  13.615   3.727
99474W        W64294  43.326  27.118   1.390
99475W        W64295   6.417   6.190   2.467
99476W        W64296  32.106  43.530  12.148
99477W        W64297   3.203  33.495   1.396
99478W        W64298  23.632  29.126   4.540
99479W        W64299  12.868  20.326   0.206
99480W        W64300   5.725  30.094   2.248
99481W        W64301  20.174  35.117   0.287
99482W        W64302  40.480  33.163  11.217
99483W        W64303  10.163  42.555  13.933
99484W        W64304  40.463  26.969   0.521
99485W        W64305  22.677  44.041  12.879
99486W        W64306  33.654  23.022   4.926
99487W        W64307  22.098  27.956  13.990
99488W        W64308  27.040  42.296  10.666
99489W        W64309  23.099   6.918  13.897
99490W        W64310  35.944  26.898  14.339
99491W        W64311  35.617  42.550   1.340
99492W        W64312  36.457  35.591   0.826
99493W        W64313  37.927  12.082   0.859
99494W        W64314   9.761   4.977   2.828
99495W        W64315  12.744   2.154   2.307
99496W        W64316  38.246  36.153   1.694
99497W        W64317  29.972  28.185   2.716
99498W        W64318  27.666  22.182   3.792
99499W        W64319  15.806  44.176   9.929
99500W        W64320  10.844  22.928  11.253
99501W        W64321  44.104  44.393  13.772
99502W        W64322  11.727  18.577   1.501
99503W        W64323   7.800  24.572   1.872
99504W        W64324  44.681  22.823  11.902
99505W        W64325  39.948  17.573  12.300
99506W        W64326  19.522  33.126  14.825
99507W        W64327  11.588  33.057   1.772
99508W        W64328   7.836   1.160  12.567
99509W        W64329   2.872  37.586  11.655
99510W        W64330   3.236   6.444  14.816
99511W        W64331  11.915  16.097  13.039
99512W        W64332  18.706   3.926  12.894
99513W        W64333  10.212  26.162   3.947
99514W        W64334  28.448   8.149   0.233
99515W        W64335  43.482   6.862   3.135
99516W        W64336  44.165  40.316   1.884
99517W        W64337  30.499  30.113  13.061
99518W        W64338  33.681   3.693  13.453
99519W        W64339  25.124  25.747   4.594
99520W        W64340  12.276  34.379   0.248
99521W        W64341  36.101  33.470   3.290
99522W        W64342  40.713   0.924   4.520
99523W        W64343  21.068   2.050   1.849
99524W        W64344  35.094  15.145   1.591
99525W        W64345   1.459  19.714  10.576
99526W        W64346   7.687   1.961  10.623
99527W        W64347  30.321  35.101  12.740
99528W        W64348   4.303  34.503  13.376
99529W        W64349   8.179   6.831   3.130
99530W        W64350  16.580  18.257  13.621
99531W        W64351   9.781   2.398  14.416
99532W        W64352  14.294  37.664  13.780
99533W        W64353  10.865   4.341  14.086
99534W        W64354  10.494  31.740  12.006
99535W        W64355  30.372  15.718  13.030
99536W        W64356  13.076  27.697  14.716
99537W        W64357  38.083   5.084  12.522
99538W        W64358  25.244   8.271  14.291
99539W        W64359   1.950  14.164  13.241
99540W        W64360   3.725  25.146  10.399
99541W        W64361  27.552  25.582  11.467
99542W        W64362   1.684   9.783   2.623
99543W        W64363   6.805  39.937   0.822
99544W        W64364  24.270  23.620  10.835
99545W        W64365  29.917   9.146  13.727
99546W        W64366  13.590   4.688   0.373
99547W        W64367   4.918  19.774   3.520
99548W        W64368  13.734  20.362   2.330
99549W        W64369  29.578  11.576   2.235
99550W        W64370  10.142   7.941   2.420
99551W        W64371   6.434   4.554   4.044
99552W        W64372  14.764  20.770  12.435
99553W        W64373  35.362   3.030  11.640
99554W        W64374  40.874   7.963   1.266
99555W        W64375  34.110  15.328  13.799
99556W        W64376   2.553   4.306   4.153
99557W        W64377  12.958  29.854  10.889
99558W        W64378  34.757  11.638   4.228
99559W        W64379  42.776  34.057  14.940
99560W        W64380  24.602  23.077  12.564
99561W        W64381  34.817  33.734   1.739
99562W        W64382  14.106   7.200  13.545
99563W        W64383  22.718  10.320   1.268
99564W        W64384  24.390  44.061   3.878
99565W        W64385  13.691   6.439   4.350
99566W        W64386   8.781  32.511  10.580
99567W        W64387  17.812  38.820  12.143
99568W        W64388  15.984  13.005  12.983
99569W        W64389  21.786  31.347  14.186
99570W        W64390  42.069   0.304   4.617
99571W        W64391  18.013  16.081   4.125
99572W        W64392  36.568  42.456  11.578
99573W        W64393  10.355  36.600   0.767
99574W        W64394  33.324  43.998  12.523
99575W        W64395   9.626  23.172   3.229
99576W        W64396  42.459   5.914   3.691
99577W        W64397  15.997  23.924   4.089
99578W        W64398   5.725  24.805  12.647
99579W        W64399  18.566  32.113  11.436
99580W        W64400  24.038  10.332  12.195
99581W        W64401  24.538  32.238  14.818
99582W        W64402  34.390  28.157   3.195
99583W        W64403  19.431   6.279   0.258
99584W        W64404  14.809  32.867  14.512
99585W        W64405  33.935  28.904  13.743
99586W        W64406  35.879  36.002  12.470
99587W        W64407  43.319  32.561   4.958
99588W        W64408  41.032   2.940  14.318
99589W        W64409  16.654  43.762   4.049
99590W        W64410  19.477   9.970   3.172
99591W        W64411  20.680  42.910  10.501
99592W        W64412  38.051  36.580  13.493
99593W        W64413   5.847   4.123  13.122
99594W        W64414  26.427   8.842  10.709
99595W        W64415  18.844  31.240   1.472
99596W        W64416  30.456  18.099  14.418
99597W        W64417  29.351   9.469  11.655
99598W        W64418  44.028  21.735  11.535
99599W        W64419  33.875  15.769   2.299
99600W        W64420   2.003  37.562   4.150
99601W        W64421  28.829  18.351   9.477
99602W        W64422  13.801  30.979  13.347
99603W        W64423  42.622  43.349  11.172
99604W        W64424  17.285  23.396   1.748
99605W        W64425  27.281  44.989  11.520
99606W        W64426  34.162  14.699   0.883
99607W        W64427  41.851  36.180  14.385
99608W        W64428  36.511   0.403   2.473
99609W        W64429  33.463  23.126   2.931
99610W        W64430  29.084   6.276  12.075
99611W        W64431  27.221  12.392   3.282
99612W        W64432  10.855  16.072   2.132
99613W        W64433  41.427  10.657   0.016
99614W        W64434   4.903  43.093   3.854
99615W        W64435  40.017   1.926   5.044
99616W        W64436  21.106  36.574  13.793
99617W        W64437  39.484  20.769  12.129
99618W        W64438  40.804   6.097  13.384
99619W        W64439  15.383  35.174   3.784
99620W        W64440  30.005   4.489   3.961
99621W        W64441  39.917  28.872  12.031
99622W        W64442  17.328  10.971   2.193
99623W        W64443  12.857  28.145   1.747
99624W        W64444  32.305  35.323   4.145
99625W        W64445  32.264  40.441   4.169
99626W        W64446   5.319   5.238  14.233
99627W        W64447  20.045  17.109   3.125
99628W        W64448   3.925  33.160  12.961
99629W        W64449  41.284  28.741  12.435
99630W        W64450  16.993  23.030  11.125
99631W        W64451   1.942  26.527   0.150
99632W        W64452  23.795  18.810  13.454
99633W        W64453  30.145   2.215  11.551
99634W        W64454  11.290  25.968  11.495
99635W        W64455  44.487   9.737   1.350
99636W        W64456  15.346  29.921   3.388
99637W        W64457  10.178   0.286  14.031
99638W        W64458   7.429  35.674  10.507
99639W        W64459  16.620  42.312  12.058
99640W        W64460   9.755   6.706   1.210
99641W        W64461  20.545   7.849   0.233
99642W        W64462  15.605  19.210   2.419
99643W        W64463   8.162  18.996   1.776
99644W        W64464  10.830  25.069  11.158
99645W        W64465  28.931  12.269  12.483
99646W        W64466  22.862  19.220  14.414
99647W        W64467   2.882  37.853  13.452
99648W        W64468  27.064  20.327   3.254
99649W        W64469  40.477   5.174   3.586
99650W        W64470  10.139  37.415  12.000
99651W        W64471   5.445   3.654   1.264
99652W        W64472  24.059  43.788   4.782
99653W        W64473  32.942  12.201  12.835
99654W        W64474  37.720  21.568  12.930
99655W        W64475  38.507  16.044  13.198
99656W        W64476  10.528   9.703   1.685
99657W        W64477   3.537  17.102   0.873
99658W        W64478  22.969  20.077  13.105
99659W        W64479  24.165  40.053  12.865
99660W        W64480  35.097  31.945   3.816
99661W        W64481  36.519   2.502  14.553
99662W        W64482   0.039  34.993  12.236
99663W        W64483  12.524  20.183  12.416
99664W        W64484  14.849  33.718   4.790
99665W        W64485  11.643   3.120   1.107
99666W        W64486  30.366   5.837   2.841
99667W        W64487  31.828  12.329  14.563
99668W        W64488  43.971  30.555  12.546
99669W        W64489  29.365  23.060  13.887
99670W        W64490  38.570  30.885  10.667
99671W        W64491  18.678  23.033   1.222
99672W        W64492  29.656  15.386  14.511
99673W        W64493  30.397  18.634  14.972
99674W        W64494  34.601  17.250  11.515
99675W        W64495  34.038  15.129   5.491
99676W        W64496   9.736  33.899  11.784
99677W        W64497  43.490  33.253   4.234
99678W        W64498  37.186  29.304   4.212
99679W        W64499   6.459  38.039   0.275
99680W        W64500  42.769  19.276   4.535
99681W        W64501  12.507  36.911   0.312
99682W        W64502  23.301  37.455  10.626
99683W        W64503  33.805  21.999   3.221
99684W        W64504   7.960   3.194   5.043
99685W        W64505   2.349  33.483   4.135
99686W        W64506  13.282  19.715  12.528
99687W        W64507  31.566  17.399   3.661
99688W        W64508  28.181   1.423  11.564
99689W        W64509  23.647  27.919  12.979
99690W        W64510  27.059   6.881  13.151
99691W        W64511  36.663  12.779  12.397
99692W        W64512  33.971  41.569   2.368
99693W        W64513  28.658  44.841  12.377
99694W        W64514  39.691  25.497   1.679
99695W        W64515  15.476  19.359   4.261
99696W        W64516  15.740  22.059  10.718
99697W        W64517  35.537   4.512   4.276
99698W        W64518   3.220  17.560   1.719
99699W        W64519   9.681  22.068  14.468
99700W        W64520   7.441  27.507  13.091
99701W        W64521  13.317  28.652   1.135
99702W        W64522  40.908  17.764   0.677
99703W        W64523  21.240  16.343   0.916
99704W        W64524  32.949  33.369  11.565
99705W        W64525  16.333  16.380  11.575
99706W        W64526  43.192  40.957  12.913
99707W        W64527  38.275  39.563   3.104
99708W        W64528   6.623  18.133   1.974
99709W        W64529  24.516  17.918  12.288
99710W        W64530  26.430   8.937  13.063
99711W        W64531  17.715  14.945  11.947
99712W        W64532   0.204  37.886  10.475
99713W        W64533  18.594  33.368   3.272
99714W        W64534  22.988  41.947   4.454
99715W        W64535  36.368   6.721  12.413
99716W        W64536  16.515  17.263  13.456
99717W        W64537  36.869  44.433  14.252
99718W        W64538  30.745  44.083  11.452
99719W        W64539  14.844  12.294  14.062
99720W        W64540  42.497  11.300   0.440
99721W        W64541  26.147   8.456  10.498
99722W        W64542   0.431  19.500   3.906
99723W        W64543  34.265   9.198   2.618
99724W        W64544  26.656  22.051  12.265
99725W        W64545   0.340  44.514  13.150
99726W        W64546  17.188  11.533  12.157
99727W        W64547   0.745  26.623   4.730
99728W        W64548  12.662  16.376   3.064
99729W        W64549  25.758  26.123  13.555
99730W        W64550  34.967  40.551   1.694
99731W        W64551  22.059  24.006  12.561
99732W        W64552   0.910  24.801  14.478
99733W        W64553  30.638  11.792   5.113
99734W        W64554  37.423   7.365  11.153
99735W        W64555   2.695  13.586  10.808
99736W        W64556  36.276  22.984   0.954
99737W        W64557  27.682  30.715   1.908
99738W        W64558  36.165  15.348  10.609
99739W        W64559   6.015  43.511  13.199
99740W        W64560  14.574  27.613  12.063
99741W        W64561  18.133  24.688  10.792
99742W        W64562   8.325  20.579  13.895
99743W        W64563  36.371  25.268   3.751
99744W        W64564  11.187   0.641   0.771
99745W        W64565   4.607  34.941   1.808
99746W        W64566  11.778  19.979  14.210
99747W        W64567  29.351  23.363   2.382
99748W        W64568  38.272   0.658  11.137
99749W        W64569  42.935   0.819  10.670
99750W        W64570  17.326  43.517  11.526
99751W        W64571  44.993  38.069   3.583
99752W        W64572  24.971  28.562  11.170
99753W        W64573  18.232  10.646  14.886
99754W        W64574   1.833  32.162   3.290
99755W        W64575   3.361  33.374   2.285
99756W        W64576  39.238   5.208   3.773
99757W        W64577  30.724  35.146   5.111
99758W        W64578  34.141  33.517   2.282
99759W        W64579  30.105  39.515  10.656
99760W        W64580  13.215  30.742  10.684
99761W        W64581  18.849  21.912   4.909
99762W        W64582  34.844   1.678   0.404
99763W        W64583  28.838   9.708  14.351
99764W        W64584  11.861  10.182  11.862
99765W        W64585  33.844  35.916  11.185
99766W        W64586  37.576  29.504  13.945
99767W        W64587  25.199  36.555  14.423
99768W        W64588  30.240  31.468  14.788
99769W        W64589  32.483  21.271   3.219
99770W        W64590  20.769  18.011  14.023
99771W        W64591  16.048  30.005   2.132
99772W        W64592  15.663  27.155   0.960
99773W        W64593  35.567  24.597   1.691
99774W        W64594   6.992  13.320   2.622
99775W        W64595  13.762  17.575  10.849
99776W        W64596  43.253  35.613  12.103
99777W        W64597  21.179  25.980  13.575
99778W        W64598   8.481  13.324   3.815
99779W        W64599  20.175   7.837   4.183
99780W        W64600  24.464  34.541  10.368
99781W        W64601  29.918  31.490  10.607
99782W        W64602  43.879  26.757   1.835
99783W        W64603  36.969  41.409  13.246
99784W        W64604   0.672   8.260  11.690
99785W        W64605  26.958   0.886  11.528
99786W        W64606  15.834  18.136  10.955
99787W        W64607   5.651   4.917  14.912
99788W        W64608   7.726  17.137   4.587
99789W        W64609  26.653  24.263   0.214
99790W        W64610   9.488  23.127   0.717
99791W        W64611  16.214  40.533   3.244
99792W        W64612  17.775  27.945  14.624
99793W        W64613   3.977  28.175   1.689
99794W        W64614  21.395   9.787  12.448
99795W        W64615  13.241   2.283  11.584
99796W        W64616  42.040   5.212  12.570
99797W        W64617  27.463  19.564   3.043
99798W        W64618  31.904  12.151   0.848
99799W        W64619   3.507  41.691  13.041
99800W        W64620   3.308  40.405   4.078
99801W        W64621  10.259  11.038   1.216
99802W        W64622   9.279  14.535  11.250
99803W        W64623  31.877  23.748  14.901
99804W        W64624  40.905  22.791  14.740
99805W        W64625  18.806  24.649  14.629
99806W        W64626  33.515  27.190  12.506
99807W        W64627  34.448  18.655  11.942
99808W        W64628  12.375  17.946   0.895
99809W        W64629  10.350   6.197  12.207
99810W        W64630  20.164  22.967   0.877
99811W        W64631  11.141  39.881  12.495
99812W        W64632  19.203  39.449   1.933
99813W        W64633  12.761   0.422   3.799
99814W        W64634  44.179  21.551   4.898
99815W        W64635  42.374  43.162  11.595
99816W        W64636  40.106  15.505  11.101
99817W        W64637  30.723  44.717   1.987
99818W        W64638   4.130  28.354   4.636
99819W        W64639  18.590  13.125   3.810
99820W        W64640  37.356  40.295  12.890
99821W        W64641  37.485   8.404   3.620
99822W        W64642  37.624  28.644  11.544
99823W        W64643   7.303  18.545   3.286
99824W        W64644  35.597  31.895  12.788
99825W        W64645  38.165  13.968   4.360
99826W        W64646  32.925  36.073   0.286
99827W        W64647  31.908  27.852  10.932
99828W        W64648   4.689  25.783   1.694
99829W        W64649  11.885  17.844   5.368
99830W        W64650  36.926  29.706   3.307
99831W        W64651  35.607  33.460   1.768
99832W        W64652  42.162  41.751  11.584
99833W        W64653  40.048  31.597   2.890
99834W        W64654  30.546   1.538   1.903
99835W        W64655   7.340  34.766   5.058
99836W        W64656  18.939  13.749   2.847
99837W        W64657  40.846  24.592  14.992
99838W        W64658  20.531  42.929   0.955
99839W        W64659  31.072  24.844  12.131
99840W        W64660  20.043  38.765   0.947
99841W        W64661  23.113  35.478  13.384
99842W        W64662  43.030  27.323  10.728
99843W        W64663  21.984  12.102   0.326
99844W        W64664   8.278  36.064   3.906
99845W        W64665  32.531  13.157   0.823
99846W        W64666  24.978  43.036  13.552
99847W        W64667   9.156   6.676   2.879
99848W        W64668  34.368  14.435   3.787
99849W        W64669  37.783   1.853  11.546
99850W        W64670   3.642   8.916   0.338
99851W        W64671  25.972   6.321   1.156
99852W        W64672   4.594  15.616  12.059
99853W        W64673  11.131   0.294  11.254
99854W        W64674  41.948  37.898  11.873
99855W        W64675  27.472  32.135  14.442
99856W        W64676  19.971  21.827  13.240
99857W        W64677   7.390   8.286  14.210
99858W        W64678  18.508  41.223   3.651
99859W        W64679  32.325  34.820   3.209
99860W        W64680  13.314  22.247  13.309
99861W        W64681  41.518  42.439  12.236
99862W        W64682  22.072  40.042   0.762
99863W        W64683  27.510   2.441  12.052
99864W        W64684  27.131  29.715  13.086
99865W        W64685  25.502  25.190   0.904
99866W        W64686  18.730   4.510  11.020
99867W        W64687   5.193  13.137   1.785
99868W        W64688  35.356   8.314   4.182
99869W        W64689  19.680  24.297  11.283
99870W        W64690  27.216  43.158   1.505
99871W        W64691  32.200  11.045   1.167
99872W        W64692  18.831  31.219   3.149
99873W        W64693  15.291  41.428  14.988
99874W        W64694   0.424  21.254  10.572
99875W        W64695  12.879  37.961  14.956
99876W        W64696   2.681  20.522   1.146
99877W        W64697  36.902   9.780  12.860
99878W        W64698  26.331  18.804   1.330
99879W        W64699  25.544  39.025   0.243
99880W        W64700  26.135  34.198  10.665
99881W        W64701  39.375  28.402   1.066
99882W        W64702  32.448  13.871   3.293
99883W        W64703  16.796  39.780  11.228
99884W        W64704  41.746   8.248  11.604
99885W        W64705   9.839  25.960  13.780
99886W        W64706  15.540  14.784  14.862
99887W        W64707  17.326  25.923  12.875
99888W        W64708  33.909   7.999  14.422
99889W        W64709  42.401   6.623  11.458
99890W        W64710  14.181  18.474   4.047
99891W        W64711  21.521  37.025  14.517
99892W        W64712  17.353  13.927  11.108
99893W        W64713  18.477  12.633   0.391
99894W        W64714  27.536   5.172  14.867
99895W        W64715  23.955   3.930   3.738
99896W        W64716  18.029  43.276  12.113
99897W        W64717  12.278  33.584   3.925
99898W        W64718  30.932  44.370   2.817
99899W        W64719   4.932  23.519   2.240
99900W        W64720  28.857   6.579   4.172
99901W        W64721  37.898  28.307  11.256
99902W        W64722  37.439   8.577   9.803
99903W        W64723  35.929  33.285  11.134
99904W        W64724   7.846  42.428   1.900
99905W        W64725  26.280  37.308   2.187
99906W        W64726  18.564   3.147  14.371
99907W        W64727  29.917  25.207  11.538
99908W        W64728  23.610   9.665  12.508
99909W        W64729   1.506   6.713  11.502
99910W        W64730  22.730  36.860  14.879
99911W        W64731  40.007  17.304   0.549
99912W        W64732  29.680  22.184   2.831
99913W        W64733  44.986  30.593   1.987
99914W        W64734   4.193  29.086  14.418
99915W        W64735  22.186   3.391  14.804
99916W        W64736   0.968  22.086  14.979
99917W        W64737  23.057  39.813  12.056
99918W        W64738  38.524  27.655   2.137
99919W        W64739  30.478  20.240  13.303
99920W        W64740  21.992   8.035  10.912
99921W        W64741  22.618  11.562   4.156
99922W        W64742  34.455   9.004   0.758
99923W        W64743  24.155  33.701   0.007
99924W        W64744  25.244   9.795   4.543
99925W        W64745  14.580  29.573   1.360
99926W        W64746   2.172  20.183   1.839
99927W        W64747   1.224  43.075   0.938
99928W        W64748  42.778   0.657   2.431
99929W        W64749  12.040  28.646   1.992
99930W        W64750  11.188  20.692   1.804
99931W        W64751  18.704  12.680  12.522
99932W        W64752  21.323  37.361  12.128
99933W        W64753  26.044  18.356   4.468
99934W        W64754  44.588  35.563   3.685
99935W        W64755   3.900  28.349   3.854
99936W        W64756  19.123  25.043  11.412
99937W        W64757  17.852  25.958  10.853
99938W        W64758  14.613  30.139  13.013
99939W        W64759  39.237  21.519   1.450
99940W        W64760  30.854  10.294  13.424
99941W        W64761  29.214  22.665   1.302
99942W        W64762   0.857   2.867   1.490
99943W        W64763   1.224   9.763  12.403
99944W        W64764   5.849  29.355   2.736
99945W        W64765   4.466  37.412   1.888
99946W        W64766  30.436  36.580   3.577
99947W        W64767   8.081  43.207   2.749
99948W        W64768  24.115  26.771  11.004
99949W        W64769  27.172   4.904   0.874
99950W        W64770   3.424  34.173   1.931
99951W        W64771  34.664   9.893  12.030
99952W        W64772  24.618   7.148  11.258
99953W        W64773  37.155  25.437  13.394
99954W        W64774  14.328  26.670   2.344
99955W        W64775  39.950  39.141   4.046
99956W        W64776  40.670  26.060  14.560
99957W        W64777  21.529  25.565  10.688
99958W        W64778  16.615  39.527  12.469
99959W        W64779  43.043  14.701   4.522
99960W        W64780  14.887  16.258   3.724
99961W        W64781  23.552  17.272  11.477
99962W        W64782  23.646   4.786  14.602
99963W        W64783  43.452   8.624   3.623
99964W        W64784  39.881   5.449  11.980
99965W        W64785  10.305  40.306   0.256
99966W        W64786  38.953  15.104   3.598
99967W        W64787  39.953  44.150   4.265
99968W        W64788  27.891  20.101  11.594
99969W        W64789  38.132  11.292   4.487
99970W        W64790  20.760  34.588   2.865
99971W        W64791   4.882  15.938  10.383
99972W        W64792  36.324  25.938   0.248
99973W        W64793  15.977  13.996   2.902
99974W        W64794  40.584  21.553  13.890
99975W        W64795  33.051  22.444   4.596
99976W        W64796  42.977   7.639   4.337
99977W        W64797  10.193  44.979   2.183
99978W        W64798   2.695  30.441   4.605
99979W        W64799   0.885  28.032  10.114
99980W        W64800  42.257  14.582   0.533
99981W        W64801   2.793  10.631   1.527
99982W        W64802  30.102   1.206  11.693
99983W        W64803  22.392   1.999   1.252
99984W        W64804   8.981  27.877   3.566
99985W        W64805   3.966   0.225  14.591
99986W        W64806   4.189  31.000  13.358
99987W        W64807  19.407  40.127  13.806
99988W        W64808  10.503   3.859  12.931
99989W        W64809   1.045  12.211  14.410
99990W        W64810  29.127  13.847   1.331
99991W        W64811   9.130  34.150   0.335
99992W        W64812  25.573  18.784  12.911
99993W        W64813  24.743   3.503   2.225
99994W        W64814  19.066   7.803  14.884
99995W        W64815  29.171  38.126  12.102
99996W        W64816   1.896  23.382  11.017
99997W        W64817  42.040  12.674  14.373
99998W        W64818  32.952  13.268  11.648
99999W        W64819  17.760  34.430   0.835
    0W        W64820  18.203  42.250   1.457
    1W        W64821  36.643  13.115  13.874
    2W        W64822  43.441   2.150   1.732
    3W        W64823  22.320   6.693   4.157
    4W        W64824  40.776  19.168  14.435
    5W        W64825  21.962  44.112  11.592
    6W        W64826   0.719  15.702   2.020
    7W        W64827  34.774  30.650   5.062
    8W        W64828  27.889  30.834  11.099
    9W        W64829  19.121  14.792  14.885
   10W        W64830   9.361  31.040  12.208
   11W        W64831  23.769  15.281  11.218
   12W        W64832  10.606  23.125   2.983
   13W        W64833  28.421  19.488  14.226
   14W        W64834   8.240  43.569  14.151
   15W        W64835  27.542  32.208   4.573
   16W        W64836  31.124   8.481   0.872
   17W        W64837  34.321   9.598   5.032
   18W        W64838  18.826  28.357  11.168
   19W        W64839  42.457  25.492   4.296
   20W        W64840   3.227  31.124  12.454
   21W        W64841   4.260  35.768   2.407
   22W        W64842   5.408  23.106  10.710
   23W        W64843   8.833  25.383  12.453
   24W        W64844   5.169  10.793   3.987
   25W        W64845   6.414  16.757  14.872
   26W        W64846   0.718  27.057  11.179
   27W        W64847  30.844  26.737   3.794
   28W        W64848  27.255  37.092   0.156
   29W        W64849  33.028  41.287  12.078
   30W        W64850  19.274  33.855  12.539
   31W        W64851  27.517  28.063  13.097
   32W        W64852  13.853  38.473   1.248
   33W        W64853   4.998  26.229  12.021
   34W        W64854  35.660  12.719   0.075
   35W        W64855  26.544  31.995  10.749
   36W        W64856  31.976  11.329  14.745
   37W        W64857   1.682  17.286  14.364
   38W        W64858  23.176  24.199   3.847
   39W        W64859  29.621   5.466  11.216
   40W        W64860  18.380  37.367  12.858
   41W        W64861  30.762  43.497   4.505
   42W        W64862  30.385   9.536   2.348
   43W        W64863  38.313  31.910   0.789
   44W        W64864   9.285  31.125   1.867
   45W        W64865  11.181  19.072  11.606
   46W        W64866  21.272  33.132   1.798
   47W        W64867   4.676  37.908   1.760
   48W        W64868  26.325  19.174   3.111
   49W        W64869  25.913   8.103   3.196
   50W        W64870  26.162   5.865   0.391
   51W        W64871   1.922  37.404   2.564
   52W        W64872  12.705   6.728   0.391
   53W        W64873   6.286   5.302  12.840
   54W        W64874  19.824   1.767   0.794
   55W        W64875  26.432  29.610   4.318
   56W        W64876   8.848  38.748  11.626
   57W        W64877  42.808   4.984   1.149
   58W        W64878   5.831  18.513   4.476
   59W        W64879  37.879   4.398   0.909
   60W        W64880  32.551   2.117   4.112
   61W        W64881  10.661  31.944   3.686
   62W        W64882  37.908  40.371  14.022
   63W        W64883  26.367  24.084  14.796
   64W        W64884  20.470  40.101   4.133
   65W        W64885   2.191  24.501   2.663
   66W        W64886  42.449  42.560   4.875
   67W        W64887   2.612  34.527   9.983
   68W        W64888  30.326  25.895  13.859
   69W        W64889  32.589  18.717   0.860
   70W        W64890  32.658   9.248   2.867
   71W        W64891  12.671  37.648  13.704
   72W        W64892  43.911  38.437   0.798
   73W        W64893  30.164  33.012  11.433
   74W        W64894  35.317   3.139  12.913
   75W        W64895  22.377  11.582  12.470
   76W        W64896  29.359  14.104  12.530
   77W        W64897   3.979  16.418  10.601
   78W        W64898  30.451  19.179  10.693
   79W        W64899  36.758  37.873  11.996
   80W        W64900   1.924   7.818   0.073
   81W        W64901  38.903  16.833   2.283
   82W        W64902  43.746  22.075   1.451
   83W        W64903  43.516  13.495   4.128
   84W        W64904  34.705  21.616   0.115
   85W        W64905   2.641   5.306   1.482
   86W        W64906   4.464   6.386  10.668
   87W        W64907  36.923  36.784  14.034
   88W        W64908   0.809   6.186  11.232
   89W        W64909  32.383  15.601   4.948
   90W        W64910  36.998   1.222  11.402
   91W        W64911  17.814  31.162  13.101
   92W        W64912  11.685  19.126  11.768
   93W        W64913  42.183  36.918  14.907
   94W        W64914  15.118  33.790   3.999
   95W        W64915   7.390  22.147   3.855
   96W        W64916  19.704  24.242   1.395
   97W        W64917  23.024  29.241  14.318
   98W        W64918  33.962   0.260  13.526
   99W        W64919  28.997   6.008  13.286
  100W        W64920  12.825  19.775  13.810
  101W        W64921  36.015  34.795  12.514
  102W        W64922   4.802  14.793  12.464
  103W        W64923  25.945  20.467  10.264
  104W        W64924  13.899  17.947  13.496
  105W        W64925  15.651  36.423  13.826
  106W        W64926  18.414  35.069  14.232
  107W        W64927  44.388  37.736   2.129
  108W        W64928  12.910  39.731   2.334
  109W        W64929  27.171  11.388   4.648
  110W        W64930  21.645  37.110  11.812
  111W        W64931  15.847   0.414   1.257
  112W        W64932  41.401  10.898   0.935
  113W        W64933   1.918  34.175  14.368
  114W        W64934  16.215  10.305   3.144
  115W        W64935  25.015   6.067  12.352
  116W        W64936  43.042   1.831   1.829
  117W        W64937   5.882   1.052  12.918
  118W        W64938  42.281  40.394   1.719
  119W        W64939   0.971   8.912   5.037
  120W        W64940   1.838   1.361   0.336
  121W        W64941  21.981  39.106   9.564
  122W        W64942   1.384  28.660  11.183
  123W        W64943  19.421  34.327   0.175
  124W        W64944  11.232   9.342  13.250
  125W        W64945  20.124  33.687  12.791
  126W        W64946  33.494  44.627   3.297
  127W        W64947  30.126   3.036  10.833
  128W        W64948   4.644  13.543   4.104
  129W        W64949  25.070  10.837   0.393
  130W        W64950  27.225  15.575  11.939
  131W        W64951   4.259  23.731   2.678
  132W        W64952  20.256   0.815   1.440
  133W        W64953  20.219  15.100   4.675
  134W        W64954  20.759  11.773  13.980
  135W        W64955  14.691  38.825   0.896
  136W        W64956  42.859  40.371   3.110
  137W        W64957  24.972  14.121   1.261
  138W        W64958  16.033  24.262  12.111
  139W        W64959  19.000   7.355  11.427
  140W        W64960   9.171  38.668   0.313
  141W        W64961  37.021  13.780   1.505
  142W        W64962  33.701  42.654  12.787
  143W        W64963   0.408  40.575   3.259
  144W        W64964  19.185  11.373   1.332
  145W        W64965  15.877   3.334  12.450
  146W        W64966  19.289  38.775  11.829
  147W        W64967  19.740  41.813  12.538
  148W        W64968  41.352   3.085   0.020
  149W        W64969  38.543  15.062   0.454
  150W        W64970  20.768  35.083   3.574
  151W        W64971  34.509  25.231   3.261
  152W        W64972  20.028   7.484   2.742
  153W        W64973  43.729  27.122   0.712
  154W        W64974  10.214   0.209   3.404
  155W        W64975  16.711  24.119  14.955
  156W        W64976  30.691   2.674  12.519
  157W        W64977  27.447  41.749   0.149
  158W        W64978  16.142  20.202  14.864
  159W        W64979  25.922  44.942  11.996
  160W        W64980  21.724  16.245   3.304
  161W        W64981  37.226  15.777   2.478
  162W        W64982  28.466  28.089   2.767
  163W        W64983  33.590  39.276   4.691
  164W        W64984  35.946  30.614  11.089
  165W        W64985   3.612  16.242  13.859
  166W        W64986  22.643  14.800   3.051
  167W        W64987  18.522  24.946   2.356
  168W        W64988  11.603  15.205  13.068
  169W        W64989   1.782   9.660   4.066
  170W        W64990  11.676  13.893   2.835
  171W        W64991   3.567  25.706  13.809
  172W        W64992  18.315  22.670   2.480
  173W        W64993   9.784  32.194  10.543
  174W        W64994  35.842  40.053   1.195
  175W        W64995  33.478  26.418  12.114
  176W        W64996   8.414  22.554   4.615
  177W        W64997  17.264   0.861   3.667
  178W        W64998   3.857   1.965   3.092
  179W        W64999   6.182  20.525  13.066
  180W        W65000  44.850  34.429   3.627
  181W        W65001  22.087  38.796  11.814
  182W        W65002  19.182  34.051  13.039
  183W        W65003  15.550  13.296  13.005
  184W        W65004  24.007  18.266  13.043
  185W        W65005  35.509  33.717  14.571
  186W        W65006  20.629  34.133   1.836
  187W        W65007  42.956  41.622   1.999
  188W        W65008   0.509   2.190  12.504
  189W        W65009  30.019  18.019   1.929
  190W        W65010  33.148   7.400   1.487
  191W        W65011  20.573  38.560  14.905
  192W        W65012   3.260  22.512  14.093
  193W        W65013  43.883  21.116   0.191
  194W        W65014  26.206  39.558   1.802
  195W        W65015  10.312  15.260  12.883
  196W        W65016  22.284  29.196  13.831
  197W        W65017  37.587  21.588  11.529
  198W        W65018  42.937  23.628   1.361
  199W        W65019  29.731  35.041  14.862
  200W        W65020  11.696  42.051   3.196
  201W        W65021  21.281  26.051  13.073
  202W        W65022  36.968   2.246   3.190
  203W        W65023  41.812  20.473  12.820
  204W        W65024  43.964  12.992   1.848
  205W        W65025   2.942  29.846  13.129
  206W        W65026  33.883   3.843   1.415
  207W        W65027  16.803   1.679   3.736
  208W        W65028  38.214  14.519   4.083
  209W        W65029  38.085  28.970  10.690
  210W        W65030   4.676  11.173  10.507
  211W        W65031  42.630  43.575   1.859
  212W        W65032  14.217  32.454   4.485
  213W        W65033  36.595  30.102   4.090
  214W        W65034   5.749  33.052  14.891
  215W        W65035  10.718  21.367   1.453
  216W        W65036  13.447  43.022   5.109
  217W        W65037  28.141  17.558   0.724
  218W        W65038  40.596  39.870   2.875
  219W        W65039   4.623  30.599   1.070
  220W        W65040  37.670  33.060   0.861
  221W        W65041   8.233   8.362  14.348
  222W        W65042   5.450   9.266   4.164
  223W        W65043   6.344  26.199   3.357
  224W        W65044  13.232  15.845   2.674
  225W        W65045   7.044  34.976  14.398
  226W        W65046  41.531  28.757   0.872
  227W        W65047   5.876  25.673   3.354
  228W        W65048  39.748  35.736   3.793
  229W        W65049  18.324  24.450   0.604
  230W        W65050  37.494   2.439   4.146
  231W        W65051  11.762  23.964   3.552
  232W        W65052   4.500  44.830  11.946
  233W        W65053  13.635  21.610  11.344
  234W        W65054   1.929  42.437   2.059
  235W        W65055  23.455  35.933   4.902
  236W        W65056  30.392  26.350   1.343
  237W        W65057  19.600  27.137   4.633
  238W        W65058  25.095  20.998   0.753
  239W        W65059  15.021   1.327  12.040
  240W        W65060  26.943  15.191  12.905
  241W        W65061   3.913   0.181  11.134
  242W        W65062  28.822  11.074   3.361
  243W        W65063  13.580  19.684   3.337
  244W        W65064  13.234  23.502   2.774
  245W        W65065  14.959  38.089   0.022
  246W        W65066   9.123  13.675   0.907
  247W        W65067  34.643  36.494   0.468
  248W        W65068  21.655  15.195  11.205
  249W        W65069  25.683  38.084   2.393
  250W        W65070   2.231  27.648  12.089
  251W        W65071  41.923  29.442   4.540
  252W        W65072  21.764  28.017  13.260
  253W        W65073   4.688  37.833   3.391
  254W        W65074  31.922  24.799  13.862
  255W        W65075  11.698  12.088  13.387
  256W        W65076  31.913  30.932  11.944
  257W        W65077   6.231  14.874  10.293
  258W        W65078  28.572  38.741   3.778
  259W        W65079  40.614  14.637   2.993
  260W        W65080  36.849  33.348  12.408
  261W        W65081  11.813   3.624   1.214
  262W        W65082   8.377   3.653  12.435
  263W        W65083  43.813   9.822   4.764
  264W        W65084  33.144  19.023   1.418
  265W        W65085   1.313  29.763   4.875
  266W        W65086  23.267   0.407   0.245
  267W        W65087  38.494   2.477   4.355
  268W        W65088  16.998   3.286  14.124
  269W        W65089  17.805  44.483  12.015
  270W        W65090  24.705   2.284   0.244
  271W        W65091   2.941  19.315   3.248
  272W        W65092  18.600  14.385   1.507
  273W        W65093  30.050  29.954   2.867
  274W        W65094  17.248  26.709  11.668
  275W        W65095   0.747  35.531  10.694
  276W        W65096  32.042  40.525  14.030
  277W        W65097  20.531  23.501  11.787
  278W        W65098   5.857  38.470  12.118
  279W        W65099  33.620  36.406   2.247
  280W        W65100  19.647   1.763   4.705
  281W        W65101  31.112  27.910   3.262
  282W        W65102  44.084  29.018   4.166
  283W        W65103  29.259   3.677  11.172
  284W        W65104   9.186  18.163   0.908
  285W        W65105   1.823   2.302  12.052
  286W        W65106  31.915   2.073   9.874
  287W        W65107  40.945   8.160   2.800
  288W        W65108  18.581  13.884   0.744
  289W        W65109   6.373  42.931   3.398
  290W        W65110  34.155  38.760  10.359
  291W        W65111   6.475   5.343  11.581
  292W        W65112   1.861  40.811   4.367
  293W        W65113  13.229  24.371  11.745
  294W        W65114  21.264  39.768  12.087
  295W        W65115  32.997  21.706   5.088
  296W        W65116  13.016  22.796  14.504
  297W        W65117  34.625  38.651  13.405
  298W        W65118  33.386  14.826  13.388
  299W        W65119   8.878   6.717  10.680
  300W        W65120  34.540  23.108   0.966
  301W        W65121  44.747  12.336   1.364
  302W        W65122  13.968  10.130  11.218
  303W        W65123  29.982  15.771   2.948
  304W        W65124  10.143   6.754  11.142
  305W        W65125  23.211  32.629  11.950
  306W        W65126  35.119   8.379  12.508
  307W        W65127  26.619  16.692   1.365
  308W        W65128   9.399   0.266  10.983
  309W        W65129   2.725  40.057  10.593
  310W        W65130   2.138  14.152  14.189
  311W        W65131  27.705  31.627  13.002
  312W        W65132  40.990  34.959  12.655
  313W        W65133  10.277  21.790  11.811
  314W        W65134  27.511   0.827   2.347
  315W        W65135  25.748  16.071   1.400
  316W        W65136  38.448   3.718  14.793
  317W        W65137  13.414  17.969   0.001
  318W        W65138  22.783  21.506  12.857
  319W        W65139  35.556  14.253   0.645
  320W        W65140  16.861  26.935  14.521
  321W        W65141  28.600  28.965   3.109
  322W        W65142  34.204  28.493  12.023
  323W        W65143  32.675   7.717  13.591
  324W        W65144  38.806  30.843   4.054
  325W        W65145   4.752  28.025   0.014
  326W        W65146  20.177  44.908  13.454
  327W        W65147  18.218  14.838  12.002
  328W        W65148   7.782  35.984   0.785
  329W        W65149  26.091  42.426  11.922
  330W        W65150  20.691  16.765  11.228
  331W        W65151  21.284  29.979   1.727
  332W        W65152  19.959  17.898  11.049
  333W        W65153  24.626   1.637   1.985
  334W        W65154  21.040  41.985   0.236
  335W        W65155   4.592  18.697  12.351
  336W        W65156  32.302  31.351  11.944
  337W        W65157  25.049   8.168  13.432
  338W        W65158  29.543  44.332  12.140
  339W        W65159  34.146  25.193   2.337
  340W        W65160   4.054  41.619  13.088
  341W        W65161  43.242  10.691  14.509
  342W        W65162   7.080  41.044  11.819
  343W        W65163  22.232  33.761   2.787
  344W        W65164  28.949   8.658   0.955
  345W        W65165  14.686  28.980   1.274
  346W        W65166  21.224  40.318  14.079
  347W        W65167  17.634  23.906  14.448
  348W        W65168  32.580  40.648  14.860
  349W        W65169  12.265  34.506  13.039
  350W        W65170  29.713  40.801  13.399
  351W        W65171  26.647  41.031  14.809
  352W        W65172  40.842  20.982   4.695
  353W        W65173   2.916  17.497  11.137
  354W        W65174  27.756  36.834   1.457
  355W        W65175  35.824  41.151   1.223
  356W        W65176  27.429  40.338   4.619
  357W        W65177  15.034  22.303  13.527
  358W        W65178  42.280  43.576  12.089
  359W        W65179  38.534  29.316  14.290
  360W        W65180  26.530  31.127   4.544
  361W        W65181  30.438   4.322  12.105
  362W        W65182  43.911  33.629  14.875
  363W        W65183  42.395   9.041  14.443
  364W        W65184  40.464  17.525  12.932
  365W        W65185  30.708  19.311  11.670
  366W        W65186  23.032  39.215  13.917
  367W        W65187   9.669  36.936  10.661
  368W        W65188   3.763  25.263   1.298
  369W        W65189  23.071  17.596  13.937
  370W        W65190   0.533  27.702   0.204
  371W        W65191  38.657  37.413   1.244
  372W        W65192  19.139  20.502   0.866
  373W        W65193   9.629  35.713  14.050
  374W        W65194  13.054   3.420  11.072
  375W        W65195  41.846  41.027  14.574
  376W        W65196  21.348  20.192  10.207
  377W        W65197  24.706  39.370   2.162
  378W        W65198  14.726  24.238   2.872
  379W        W65199  12.658   9.967  11.170
  380W        W65200  41.009  23.605  11.550
  381W        W65201  17.554  19.097   0.837
  382W        W65202  25.776  38.494  13.994
  383W        W65203  44.758   0.136   3.536
  384W        W65204  17.823  43.473   3.715
  385W        W65205  12.131  32.803   3.604
  386W        W65206  21.661  23.622   1.947
  387W        W65207  19.840  29.793   1.658
  388W        W65208  34.271  24.144  12.559
  389W        W65209  23.586  18.318  11.365
  390W        W65210   9.369  10.825   0.588
  391W        W65211  43.942  13.085  11.065
  392W        W65212   5.452  30.848   3.791
  393W        W65213   1.868  24.974   0.284
  394W        W65214  44.012  40.940  10.752
  395W        W65215  43.021  29.053  13.994
  396W        W65216  44.764  25.427   2.012
  397W        W65217  16.677  22.593   1.870
  398W        W65218  44.258  36.292  10.773
  399W        W65219  33.874  20.747  14.312
  400W        W65220  33.573  29.902   3.583
  401W        W65221  26.508  29.687  14.401
  402W        W65222  29.203  11.822   0.685
  403W        W65223   1.235   1.798  13.462
  404W        W65224  22.243   6.157   9.968
  405W        W65225   0.720  26.699   4.182
  406W        W65226   0.247  44.568   0.022
  407W        W65227  36.062  33.108  12.991
  408W        W65228  33.805  37.799  14.254
  409W        W65229  19.402  30.313   2.319
  410W        W65230   0.250  33.634  14.752
  411W        W65231  42.801   6.041   2.668
  412W        W65232   6.757  33.991   2.931
  413W        W65233  30.266   2.930   0.842
  414W        W65234  29.563  14.610  14.094
  415W        W65235  37.779  13.021   4.156
  416W        W65236  19.048  32.211   3.389
  417W        W65237  40.363  24.942  13.841
  418W        W65238  36.898  23.967   5.002
  419W        W65239  34.412  18.708  14.880
  420W        W65240  40.382  26.193  12.062
  421W        W65241  35.169  15.082   3.251
  422W        W65242  31.682   1.898  14.326
  423W        W65243   0.709  38.800   4.122
  424W        W65244   7.825  27.580  11.408
  425W        W65245  31.356  41.500  13.361
  426W        W65246  12.172   5.178   3.546
  427W        W65247  14.218  44.448  11.525
  428W        W65248   8.628  38.804   4.711
  429W        W65249   8.164  31.878   0.638
  430W        W65250   3.656  12.572  12.500
  431W        W65251  30.020  31.376   2.935
  432W        W65252  18.996  38.028   3.363
  433W        W65253  21.254  17.409  11.518
  434W        W65254  32.165  34.458   0.975
  435W        W65255   1.786  31.412   3.754
  436W        W65256  39.025   6.662   2.930
  437W        W65257  26.924  31.411  12.481
  438W        W65258  10.212  12.488  10.565
  439W        W65259  17.556  28.549   1.334
  440W        W65260   5.630   6.311  11.241
  441W        W65261  42.502  19.596  10.934
  442W        W65262   0.460  14.110  12.494
  443W        W65263  22.258  35.365  12.058
  444W        W65264  21.074  23.994   4.449
  445W        W65265  39.591   8.550   3.727
  446W        W65266   9.690  23.134   1.224
  447W        W65267   0.038  30.989  13.339
  448W        W65268  18.763  39.332  14.787
  449W        W65269   0.838  28.563   4.570
  450W        W65270   5.186  20.487  13.328
  451W        W65271  28.587  30.641  13.508
  452W        W65272   0.299  34.381   4.807
  453W        W65273  40.005  18.210  13.978
  454W        W65274  35.148  32.973   4.876
  455W        W65275   6.516  38.794  13.034
  456W        W65276  26.649   5.062  14.694
  457W        W65277  42.766  21.542  13.909
  458W        W65278  18.234  11.364  10.739
  459W        W65279  34.156  35.694   0.647
  460W        W65280  21.021  37.475   2.128
  461W        W65281  15.586   9.242   1.875
  462W        W65282   2.006   8.700   0.936
  463W        W65283   2.156  14.605   2.271
  464W        W65284  32.965  12.362  12.362
  465W        W65285  17.647  11.643   0.506
  466W        W65286  23.423  39.591   1.614
  467W        W65287  15.778  43.069   2.191
  468W        W65288   4.496  29.975  13.075
  469W        W65289  40.351  38.489   1.204
  470W        W65290   7.978  17.315   2.418
  471W        W65291  21.451  41.305   2.697
  472W        W65292  23.086  37.436  12.268
  473W        W65293  27.116  16.814   4.640
  474W        W65294  32.096  44.154  11.443
  475W        W65295  34.993   7.129   1.831
  476W        W65296  28.643  43.822  12.424
  477W        W65297   1.753  11.172   3.350
  478W        W65298  17.094  30.106   2.333
  479W        W65299  43.390  38.476   2.646
  480W        W65300  12.408  43.712  14.032
  481W        W65301  30.236  23.581   4.560
  482W        W65302   1.086  16.183  11.519
  483W        W65303  43.383   9.507  11.121
  484W        W65304  41.374  40.485   3.414
  485W        W65305  40.508  21.547   1.974
  486W        W65306  33.179  44.671  11.660
  487W        W65307   7.111  39.317   1.217
  488W        W65308  14.251  17.832  11.584
  489W        W65309  14.909  34.395  13.073
  490W        W65310  44.844  25.543  10.568
  491W        W65311  30.732  12.718   4.283
  492W        W65312  23.176  38.551   1.432
  493W        W65313  23.108   8.957  12.526
  494W        W65314  11.221   5.996   2.657
  495W        W65315  25.490   7.409  10.771
  496W        W65316  17.263  13.979   2.912
  497W        W65317   9.400  40.845   3.148
  498W        W65318  26.461  39.361   1.408
  499W        W65319  17.164   6.433   4.809
  500W        W65320  26.221   8.463  12.949
  501W        W65321  25.380  21.011  10.701
  502W        W65322   1.826  29.013   4.593
  503W        W65323   9.063  33.564  14.351
  504W        W65324  29.469  30.615  13.611
  505W        W65325  18.627  18.079   4.175
  506W        W65326  25.361  38.977  10.131
  507W        W65327  24.976  17.187  11.521
  508W        W65328   3.697  31.387   2.738
  509W        W65329  16.112   8.064   4.562
  510W        W65330   0.903  41.740  13.004
  511W        W65331   7.253  18.893   5.001
  512W        W65332  17.125  24.048   3.230
  513W        W65333   6.282  38.095  13.811
  514W        W65334  29.321   6.535  14.554
  515W        W65335  24.934  28.631   1.519
  516W        W65336   6.285  10.351   2.612
  517W        W65337  18.225   8.565   2.755
  518W        W65338  38.359  19.042  14.285
  519W        W65339  20.115  42.525  13.963
  520W        W65340   0.128  35.849   4.867
  521W        W65341  11.525  17.684   4.157
  522W        W65342  15.512  20.814   2.312
  523W        W65343  26.117   1.854   4.819
  524W        W65344  27.534  12.228   1.502
  525W        W65345  20.501  21.728  12.388
  526W        W65346   6.284  30.168  11.885
  527W        W65347  24.124   0.156  14.829
  528W        W65348  21.677   2.662   3.629
  529W        W65349  23.907  26.702   3.335
  530W        W65350   4.407   4.841   1.027
  531W        W65351  22.699  33.873  10.736
  532W        W65352  35.275  24.566   9.881
  533W        W65353   8.522  14.605   0.443
  534W        W65354  27.985   9.854  11.090
  535W        W65355  44.481  39.443   2.751
  536W        W65356  21.723   2.164  14.526
  537W        W65357  38.895  39.519   2.512
  538W        W65358  11.581   0.499  11.105
  539W        W65359  17.347  32.867   0.840
  540W        W65360  34.382  31.723   1.295
  541W        W65361  42.890  10.291   4.164
  542W        W65362  23.865  35.134   9.752
  543W        W65363  36.071   7.938  13.589
  544W        W65364   4.621  25.645   2.812
  545W        W65365  25.060  23.246   0.689
  546W        W65366  29.088  19.660   1.776
  547W        W65367  27.777  29.550   5.042
  548W        W65368  26.897  22.471   2.717
  549W        W65369  27.105  25.461   1.504
  550W        W65370  17.852  20.506   0.383
  551W        W65371  39.443  42.918   0.260
  552W        W65372  10.495  10.415   0.441
  553W        W65373  26.949  27.202   3.205
  554W        W65374  35.833  30.990   1.336
  555W        W65375  20.037  15.011  11.743
  556W        W65376  22.620  32.020   3.982
  557W        W65377  29.953  31.322  12.825
  558W        W65378  44.037  24.199   4.197
  559W        W65379  12.570  32.536   4.225
  560W        W65380  39.879  41.076  11.391
  561W        W65381  26.472   3.619  10.391
  562W        W65382  35.663  26.215   4.275
  563W        W65383  26.459  24.960  12.869
  564W        W65384  13.572  26.481  10.138
  565W        W65385  43.433   7.837   4.162
  566W        W65386  34.609  38.775   4.342
  567W        W65387  36.112  23.720  11.111
  568W        W65388  23.819  30.057   1.333
  569W        W65389  36.030  21.035   0.983
  570W        W65390   8.960  20.461  11.588
  571W        W65391  30.467  37.547   0.231
  572W        W65392   2.936   3.963  14.433
  573W        W65393  15.305   1.232   4.515
  574W        W65394  15.148  12.335  11.580
  575W        W65395  33.451  22.148  12.292
  576W        W65396  24.123  36.306  12.010
  577W        W65397  36.766  15.768   3.775
  578W        W65398  36.949  31.418   1.764
  579W        W65399  32.133  29.204  11.573
  580W        W65400  37.347  27.064  10.911
  581W        W65401  38.376  23.190   1.799
  582W        W65402  31.465  22.869  12.100
  583W        W65403  43.227   6.520  11.653
  584W        W65404  28.913   6.449  11.611
  585W        W65405   5.371  38.290  12.222
  586W        W65406  40.991   5.483   4.020
  587W        W65407   0.242  35.218   3.711
  588W        W65408  14.335  33.715  14.732
  589W        W65409  39.862  28.156  12.559
  590W        W65410  41.763  16.853   0.615
  591W        W65411  40.037  21.545  11.266
  592W        W65412  35.809   8.556   4.293
  593W        W65413  34.571   0.276  10.707
  594W        W65414  41.938   0.467   2.737
  595W        W65415  29.113  13.660  13.458
  596W        W65416  43.421  29.008  14.348
  597W        W65417  44.802  14.629  11.101
  598W        W65418  11.442  27.254   3.238
  599W        W65419  21.584  10.396  13.077
  600W        W65420  11.317  26.900   4.017
  601W        W65421  44.816   0.799   2.656
  602W        W65422  37.840  34.489   4.436
  603W        W65423  30.205  17.353  11.605
  604W        W65424  29.957   7.904   4.695
  605W        W65425  33.880  15.079  14.790
  606W        W65426  30.139  27.177  13.898
  607W        W65427  35.362  44.343   3.126
  608W        W65428  11.877  43.273   0.923
  609W        W65429  10.044  34.442  13.431
  610W        W65430   7.617  22.636  12.999
  611W        W65431  36.820  20.769   2.269
  612W        W65432   6.166  32.447   0.795
  613W        W65433   5.735  39.384  11.614
  614W        W65434  41.516  44.517  12.948
  615W        W65435  37.590  21.330   3.039
  616W        W65436  29.636  34.739  13.580
  617W        W65437  16.583  14.191  10.982
  618W        W65438  44.934  31.221  12.347
  619W        W65439  38.337  26.203  12.405
  620W        W65440  44.552  30.724  11.961
  621W        W65441  37.404   6.879   3.850
  622W        W65442  37.348  32.507   4.535
  623W        W65443   8.256  30.199   1.437
  624W        W65444   1.438   7.179  13.604
  625W        W65445  35.095  16.047  14.757
  626W        W65446   1.458   0.304  12.055
  627W        W65447   3.493  15.666  11.513
  628W        W65448  31.994  20.035  11.053
  629W        W65449   1.523  24.263   0.707
  630W        W65450  28.034  38.231   4.731
  631W        W65451  42.083  29.486   0.797
  632W        W65452  43.069  14.677   0.767
  633W        W65453  21.661  18.179  14.234
  634W        W65454  23.251  28.417  14.024
  635W        W65455  39.545  43.819   4.201
  636W        W65456  13.965  27.019   2.202
  637W        W65457  10.800   2.164   4.575
  638W        W65458   4.222  44.202   1.785
  639W        W65459  28.551  14.834   0.865
  640W        W65460  42.972  44.564  13.051
  641W        W65461  25.535   1.942  13.976
  642W        W65462   4.125   9.404   2.751
  643W        W65463   2.399   8.885  13.372
  644W        W65464   4.237  21.550   4.220
  645W        W65465  35.806  13.766   2.792
  646W        W65466  37.018  31.357  14.254
  647W        W65467  41.626  19.079   2.287
  648W        W65468  16.174   1.207   3.310
  649W        W65469  26.249   8.564   0.028
  650W        W65470   8.900  12.218   3.336
  651W        W65471  26.858  39.079  13.517
  652W        W65472   5.729   9.660   1.727
  653W        W65473   4.450  21.187   3.716
  654W        W65474  29.149  20.805   9.793
  655W        W65475  28.545  21.795  10.427
  656W        W65476  15.599  37.992   4.329
  657W        W65477  29.904  25.572   2.313
  658W        W65478  13.113  43.734  11.189
  659W        W65479   0.329  37.479  12.136
  660W        W65480  18.142  37.195  10.794
  661W        W65481  32.613   2.918   4.537
  662W        W65482  23.657  27.604   4.809
  663W        W65483  25.005  28.482   3.275
  664W        W65484  16.231  11.330  14.190
  665W        W65485  44.284  39.479  13.505
  666W        W65486  40.523   8.518   9.798
  667W        W65487  39.284  20.096  13.345
  668W        W65488  11.365  35.771  10.321
  669W        W65489  15.827   8.856   2.794
  670W        W65490   5.119  35.405  13.359
  671W        W65491  12.177  23.121  12.161
  672W        W65492  10.442  27.591  13.507
  673W        W65493  30.141   5.196  12.029
  674W        W65494  29.085  21.239  12.050
  675W        W65495  21.812   7.270  14.880
  676W        W65496   1.479   9.763  12.870
  677W        W65497   0.735  36.037   9.913
  678W        W65498  32.185  20.329   0.248
  679W        W65499  18.677  41.532   4.022
  680W        W65500  44.052   3.375  12.451
  681W        W65501  44.520  39.408   1.892
  682W        W65502  13.409  40.966  10.860
  683W        W65503  33.060  38.034   4.254
  684W        W65504  42.174  35.823  13.444
  685W        W65505  39.684  12.751   3.635
  686W        W65506  25.912  39.146   1.912
  687W        W65507  33.383   4.257  11.517
  688W        W65508   4.468   3.270  11.930
  689W        W65509  43.163  31.825  14.282
  690W        W65510  36.469  37.112   1.754
  691W        W65511  14.187  25.760  11.941
  692W        W65512  17.679   8.578   1.610
  693W        W65513  38.847  24.244  13.983
  694W        W65514  11.839  29.370   0.478
  695W        W65515  30.736   9.502  12.495
  696W        W65516  20.594  39.006  10.691
  697W        W65517  30.901   5.797   1.365
  698W        W65518  24.610  24.970   0.878
  699W        W65519  33.672  10.106  11.926
  700W        W65520  25.415  31.410  13.984
  701W        W65521  42.453   3.864   3.759
  702W        W65522  16.193  33.655  13.271
  703W        W65523  44.381  28.401  14.716
  704W        W65524  42.750  37.476   1.386
  705W        W65525  21.810   6.047  14.245
  706W        W65526  11.842   4.237  13.064
  707W        W65527  24.247  38.014   4.577
  708W        W65528  20.273  35.430   0.741
  709W        W65529   4.409  13.763  14.158
  710W        W65530  20.951  33.720   3.716
  711W        W65531  32.781   1.983  14.327
  712W        W65532  37.797  22.307   3.764
  713W        W65533  17.520  32.943  13.929
  714W        W65534  36.013  21.751  14.225
  715W        W65535  21.113  11.410  13.968
  716W        W65536   0.944  35.994  12.426
  717W        W65537   3.382   0.472  11.987
  718W        W65538  30.034  11.594  14.936
  719W        W65539   3.466   4.147   4.352
  720W        W65540  34.714  14.184   4.131
  721W        W65541  26.529  10.289  12.119
  722W        W65542   8.681  36.666   3.326
  723W        W65543   9.178  17.908  14.004
  724W        W65544  29.622  44.776   2.452
  725W        W65545  44.913   1.852   3.304
  726W        W65546   0.527  26.915   0.611
  727W        W65547   2.467  26.129  14.437
  728W        W65548  28.908   2.814   0.927
  729W        W65549   7.721  18.994  12.048
  730W        W65550  43.876   7.036   3.805
  731W        W65551  17.816  42.720  13.344
  732W        W65552  20.547  44.173   3.971
  733W        W65553   1.258  19.262   4.263
  734W        W65554  11.285   0.999  12.347
  735W        W65555  16.530  31.221   1.307
  736W        W65556  19.626  35.374   2.869
  737W        W65557  23.222  35.995  10.906
  738W        W65558   6.302  13.614  13.421
  739W        W65559  33.464  27.378  14.319
  740W        W65560  31.223  29.972  11.449
  741W        W65561   6.976  16.656  10.789
  742W        W65562   9.647  24.781   5.082
  743W        W65563  36.977   8.587   1.413
  744W        W65564  28.626  40.451   4.779
  745W        W65565  31.025   8.889  14.774
  746W        W65566  43.121   4.159   1.098
  747W        W65567  10.711  12.893   1.218
  748W        W65568  40.302  39.009  12.203
  749W        W65569  11.175  12.770  13.189
  750W        W65570   8.259  36.629   0.821
  751W        W65571   0.844  14.293  11.200
  752W        W65572  31.773  16.660  13.604
  753W        W65573   4.433  20.628   3.181
  754W        W65574  28.928   5.782   1.365
  755W        W65575  30.881  23.728   2.750
  756W        W65576  34.488  28.571  11.586
  757W        W65577  33.990  42.466  12.110
  758W        W65578  17.138  10.208   4.077
  759W        W65579  32.211  20.334   1.896
  760W        W65580   8.790  19.782  13.113
  761W        W65581  31.020   3.751   4.563
  762W        W65582  27.902  37.599  14.384
  763W        W65583   0.353  15.041   4.482
  764W        W65584  18.343  15.176   0.912
  765W        W65585  21.456  15.580  12.511
  766W        W65586  28.710  39.840   0.882
  767W        W65587  38.533  25.091  12.702
  768W        W65588   0.898  11.081   3.128
  769W        W65589  32.714  30.101  14.950
  770W        W65590  18.235  34.357   3.853
  771W        W65591  22.990  13.434  12.083
  772W        W65592  28.962  24.596   3.856
  773W        W65593  10.316  12.386  13.416
  774W        W65594  35.644  31.883   4.576
  775W        W65595  34.227  40.134  13.463
  776W        W65596   9.859  38.075  14.951
  777W        W65597  43.992   2.959   1.177
  778W        W65598   9.701  21.404   1.873
  779W        W65599   1.837  37.164   4.425
  780W        W65600  43.654  11.814   0.331
  781W        W65601  22.862  34.523  10.393
  782W        W65602  41.922   2.860   2.687
  783W        W65603  13.114  33.140  14.795
  784W        W65604  42.914   6.664  11.256
  785W        W65605  39.078  34.690   4.800
  786W        W65606  35.977  44.799   3.626
  787W        W65607  15.726   0.192   4.530
  788W        W65608  28.915  43.885   1.274
  789W        W65609  15.428   3.398   0.421
  790W        W65610  35.572  29.936   3.814
  791W        W65611  31.389  28.382   2.181
  792W        W65612  44.527  27.990   3.504
  793W        W65613  40.807  12.844   3.877
  794W        W65614  41.330  34.585   3.280
  795W        W65615  43.855  17.709  11.821
  796W        W65616  10.106  20.613   4.870
  797W        W65617   7.178  38.557  11.973
  798W        W65618  33.710  28.829   3.050
  799W        W65619  32.437   2.282  14.094
  800W        W65620  19.316  26.656  11.307
  801W        W65621  27.582  33.081   0.480
  802W        W65622  12.802  30.710  11.445
  803W        W65623   3.296  19.690   3.170
  804W        W65624  25.598  35.840   1.205
  805W        W65625   8.825  19.596  11.059
  806W        W65626  23.183  42.320   4.119
  807W        W65627  23.982  25.954   0.348
  808W        W65628   0.326  20.976   0.984
  809W        W65629  17.146  34.526   5.039
  810W        W65630  34.431  10.628  11.593
  811W        W65631   0.994   9.618   1.495
  812W        W65632   0.067  17.240   3.265
  813W        W65633  39.066  36.845  14.023
  814W        W65634  25.355  29.103   2.815
  815W        W65635  23.052  41.563   0.887
  816W        W65636  40.312  10.627   3.480
  817W        W65637  24.439   5.695   1.751
  818W        W65638  18.116  25.782  12.320
  819W        W65639  43.040  15.373  14.382
  820W        W65640  26.697   5.197   0.497
  821W        W65641   3.880  44.994   2.716
  822W        W65642   3.754  25.053  13.433
  823W        W65643   6.488  21.298  11.087
  824W        W65644   5.662  18.135   4.154
  825W        W65645  34.966  20.774   5.511
  826W        W65646  14.189   0.541   0.242
  827W        W65647  29.954   5.531  13.899
  828W        W65648  12.804  44.861  14.460
  829W        W65649  34.834   6.375   1.238
  830W        W65650  37.351  27.526   1.441
  831W        W65651  22.212  10.285  10.750
  832W        W65652   0.889  32.664  14.476
  833W        W65653  40.547  21.599  11.178
  834W        W65654  12.098  26.925  14.396
  835W        W65655  21.608  13.417   4.124
  836W        W65656  38.437   8.388  11.847
  837W        W65657  28.064  30.290   4.624
  838W        W65658  19.842  41.068  10.739
  839W        W65659  40.772  32.752  14.161
  840W        W65660  25.675  30.910   0.479
  841W        W65661   3.560  30.812  13.916
  842W        W65662  12.620  43.953  11.402
  843W        W65663   5.678  10.324  10.982
  844W        W65664  19.993  27.891  12.945
  845W        W65665  39.312  35.927   4.239
  846W        W65666   0.030   1.744   4.143
  847W        W65667  24.377  30.424  13.754
  848W        W65668  38.357  18.654   2.469
  849W        W65669  16.096   8.708   0.475
  850W        W65670   0.903   0.393  12.457
  851W        W65671   8.562  42.400  13.055
  852W        W65672  10.846  29.128  10.218
  853W        W65673   0.194  35.355   0.533
  854W        W65674  18.786  35.389  12.028
  855W        W65675  39.425  14.008  11.609
  856W        W65676  38.577  25.696   2.215
  857W        W65677  10.213  30.054   4.078
  858W        W65678  36.304  37.983  13.212
  859W        W65679  11.918  44.814   2.737
  860W        W65680   8.649  37.892  11.029
  861W        W65681   2.975  21.138   2.656
  862W        W65682  41.973  41.544  10.705
  863W        W65683  37.631   7.213   4.167
  864W        W65684  25.332  10.902   3.287
  865W        W65685  13.215  34.917   4.602
  866W        W65686  10.515  39.331   3.205
  867W        W65687  36.951  39.922  12.127
  868W        W65688  20.256  15.730  10.194
  869W        W65689  24.678  14.578   4.446
  870W        W65690   0.815  35.485   4.469
  871W        W65691  11.987   8.782  14.904
  872W        W65692  24.078  28.722   3.430
  873W        W65693  30.131  36.133  10.313
  874W        W65694   9.772  42.796  12.384
  875W        W65695   1.302   8.086  11.103
  876W        W65696  23.773  23.731  10.860
  877W        W65697  39.474  28.485  12.932
  878W        W65698  18.410  43.530   2.631
  879W        W65699  27.985   0.290  13.450
  880W        W65700  44.642  35.994   4.980
  881W        W65701  32.625  11.370   1.212
  882W        W65702  25.719  40.424   0.251
  883W        W65703   6.770   1.742  13.810
  884W        W65704  10.031  44.266  12.083
  885W        W65705   2.326  26.484  10.673
  886W        W65706  11.970  31.450  14.295
  887W        W65707  13.853   7.854  14.044
  888W        W65708  37.503  38.659   3.606
  889W        W65709  35.474  33.427  13.131
  890W        W65710  26.766  27.269   4.057
  891W        W65711  23.772  41.336  11.281
  892W        W65712  43.993   0.823  14.823
  893W        W65713  24.575  40.927  13.799
  894W        W65714  41.808  35.077  13.003
  895W        W65715   8.218  35.200   1.349
  896W        W65716  17.046  10.212   0.693
  897W        W65717   0.303  19.319   0.254
  898W        W65718   5.138  34.075   0.254
  899W        W65719  18.063  40.328  13.822
  900W        W65720  42.760  14.966  14.527
  901W        W65721  43.831  11.109   0.884
  902W        W65722  33.486   3.148   1.228
  903W        W65723  36.628  18.087  14.690
  904W        W65724   6.495   2.804  12.839
  905W        W65725  37.656  22.547   0.973
  906W        W65726   2.227  40.784  11.972
  907W        W65727  37.081  35.199  11.151
  908W        W65728   2.308  44.207  10.179
  909W        W65729   2.065  24.745   5.412
  910W        W65730  39.346  27.528  11.140
  911W        W65731  18.205   9.765   2.541
  912W        W65732  19.088  20.609  11.853
  913W        W65733  34.467  29.944   4.109
  914W        W65734  18.307  20.805   2.718
  915W        W65735  15.762  34.517   4.016
  916W        W65736  26.385  32.169  12.192
  917W        W65737  28.928  18.089   1.327
  918W        W65738  31.273  23.453   1.269
  919W        W65739   5.197  23.409  11.082
  920W        W65740  16.624  19.101  14.763
  921W        W65741  29.488  31.598  12.743
  922W        W65742  32.135   8.812  14.469
  923W        W65743  13.023  12.712  13.448
  924W        W65744   2.888   7.409  13.485
  925W        W65745  17.875   0.815   3.636
  926W        W65746  41.230  18.469  12.138
  927W        W65747  42.747  33.575   3.853
  928W        W65748  44.162  15.672  13.875
  929W        W65749  36.531  18.167   0.202
  930W        W65750  28.515  11.250  12.115
  931W        W65751   0.506  22.758   1.758
  932W        W65752  20.632  24.128   4.698
  933W        W65753  10.738   9.259   2.424
  934W        W65754   7.649   7.232   1.836
  935W        W65755  28.244   8.445  13.980
  936W        W65756   8.304  32.698   0.305
  937W        W65757   2.574   8.949   1.384
  938W        W65758  31.462  14.053  10.678
  939W        W65759  43.993  36.485   2.400
  940W        W65760  30.052  32.969  10.936
  941W        W65761  32.911   1.429   1.048
  942W        W65762  31.000  12.730   3.380
  943W        W65763   7.824  38.148   0.403
  944W        W65764  44.307  36.246   1.187
  945W        W65765  35.919   0.487   1.598
  946W        W65766   2.315   1.786  12.617
  947W        W65767  43.822  11.906  12.995
  948W        W65768   9.788  26.939  14.955
  949W        W65769  44.249  20.605  13.952
  950W        W65770  28.872  14.058   0.296
  951W        W65771  13.096  29.089  12.374
  952W        W65772   5.395   1.362   5.142
  953W        W65773  12.901  27.009  11.033
  954W        W65774   8.726   1.911   1.955
  955W        W65775   3.485  34.812  10.437
  956W        W65776  19.162  12.233   0.898
  957W        W65777  26.746   9.620   1.901
  958W        W65778  11.692   6.817   1.193
  959W        W65779   4.059  20.984   3.134
  960W        W65780  10.628   4.382   4.109
  961W        W65781  13.439  10.789  14.220
  962W        W65782  31.201  27.614   4.194
  963W        W65783  30.147  42.882  13.410
  964W        W65784  40.256   4.267   2.797
  965W        W65785  10.382  23.525   0.080
  966W        W65786   3.470  34.328   3.624
  967W        W65787  36.837   9.828   2.923
  968W        W65788  16.554  17.311   1.907
  969W        W65789  43.225  41.020  11.165
  970W        W65790   2.493  12.248   2.233
  971W        W65791  20.407  21.559   0.006
  972W        W65792  34.449  37.688  11.249
  973W        W65793  35.562  21.834   4.231
  974W        W65794  34.865  20.551  13.360
  975W        W65795  35.184  20.772  14.696
  976W        W65796  11.927   5.749   4.287
  977W        W65797  14.819  25.182  11.350
  978W        W65798  17.724  33.898   3.153
  979W        W65799   9.803  33.347  13.588
  980W        W65800  14.319  39.982   0.436
  981W        W65801  20.084  31.404  11.931
  982W        W65802  24.154  37.263   0.988
  983W        W65803   3.413  28.163   2.342
  984W        W65804   7.470  13.885   1.853
  985W        W65805  27.758  29.981   4.339
  986W        W65806  23.654  38.058   0.821
  987W        W65807  19.502  26.466   2.659
  988W        W65808  11.773  12.222  14.757
  989W        W65809  38.429   6.879   4.034
  990W        W65810  17.574  15.440  11.965
  991W        W65811  11.060  35.611   4.677
  992W        W65812  21.655  19.251   1.951
  993W        W65813  37.774  10.052   1.858
  994W        W65814   5.046  37.574   4.024
  995W        W65815   1.844  18.669   0.779
  996W        W65816  43.461  16.055  13.521
  997W        W65817  32.832   6.505  14.865
  998W        W65818   4.291   7.866  14.911
  999W        W65819  41.715   7.504   3.291
 1000W        W65820  17.605  30.601   1.816
 1001W        W65821  26.687  37.610   0.906
 1002W        W65822  24.977  20.027   2.009
 1003W        W65823   9.181  22.604  12.006
 1004W        W65824  37.525  34.940   5.354
 1005W        W65825  40.460   4.162  14.540
 1006W        W65826  35.340  44.408  11.186
 1007W        W65827   7.834  14.767   3.864
 1008W        W65828  10.666  26.964  14.900
 1009W        W65829  28.453  41.083  11.535
 1010W        W65830  16.863  25.067   0.932
 1011W        W65831   7.356  35.647  14.880
 1012W        W65832   3.656  28.121   4.990
 1013W        W65833  22.841  29.974   2.786
 1014W        W65834  35.061  27.639   3.011
 1015W        W65835  38.444   4.489  12.051
 1016W        W65836  41.758  31.546  14.903
 1017W        W65837  16.134  24.549  14.295
 1018W        W65838  16.398  22.706   2.359
 1019W        W65839  27.761   1.895  14.822
 1020W        W65840  32.249  41.623   0.393
 1021W        W65841  23.764  18.890   0.316
 1022W        W65842  14.815  20.617   4.196
 1023W        W65843  39.402  29.813   0.849
 1024W        W65844   2.066  25.526  13.161
 1025W        W65845  31.694   5.412  10.685
 1026W        W65846  23.131   2.949  12.569
 1027W        W65847  44.268  13.162   1.445
 1028W        W65848   5.813  18.493  12.010
 1029W        W65849  13.063  13.240   1.886
 1030W        W65850   2.986  22.380  10.710
 1031W        W65851  33.690  17.150  13.400
 1032W        W65852  17.052   4.294  14.299
 1033W        W65853  37.177  20.500   1.786
 1034W        W65854  15.348  21.276   0.874
 1035W        W65855  19.475  44.475   1.913
 1036W        W65856  41.993  39.731  12.068
 1037W        W65857  29.469  14.128   0.975
 1038W        W65858  44.832  21.214   2.202
 1039W        W65859  44.920  15.115   2.395
 1040W        W65860  24.927  33.205  14.826
 1041W        W65861  19.744  22.093  12.749
 1042W        W65862  17.567   9.255  12.925
 1043W        W65863  35.588   9.101  13.603
 1044W        W65864  37.597  17.601   1.427
 1045W        W65865   4.489  40.036   1.328
 1046W        W65866   8.341   1.850  12.099
 1047W        W65867   2.273  34.431   0.048
 1048W        W65868  10.327  32.354   3.694
 1049W        W65869  34.364   2.466  14.351
 1050W        W65870   6.845  28.450   3.063
 1051W        W65871  10.230  32.540   3.238
 1052W        W65872  13.029   3.529   2.429
 1053W        W65873  36.456   7.776   2.222
 1054W        W65874  21.560  27.587   0.996
 1055W        W65875  35.065   1.809   2.683
 1056W        W65876  38.453  19.662  12.002
 1057W        W65877  22.218  11.184   0.865
 1058W        W65878  41.939  36.278  13.451
 1059W        W65879  16.103   4.256  14.390
 1060W        W65880  18.093   3.264  12.598
 1061W        W65881   6.739  33.861   0.945
 1062W        W65882  21.607  12.811   1.130
 1063W        W65883  23.007  22.798  14.935
 1064W        W65884  13.300  20.457  12.040
 1065W        W65885   5.627  44.320  12.496
 1066W        W65886   9.927   2.133  11.124
 1067W        W65887   5.311  32.812  13.949
 1068W        W65888  28.514  34.030  13.615
 1069W        W65889  15.528  17.148   0.273
 1070W        W65890  37.401   2.006  12.601
 1071W        W65891  11.824  40.409   0.120
 1072W        W65892  41.870   4.815  11.537
 1073W        W65893  32.709  32.397  13.450
 1074W        W65894  21.509  29.862   3.740
 1075W        W65895  34.387  39.662  13.330
 1076W        W65896  10.311  32.847   0.364
 1077W        W65897  20.112  14.542  12.939
 1078W        W65898  32.193  42.626   0.273
 1079W        W65899  32.092  25.167   1.677
 1080W        W65900   8.644  39.342  11.096
 1081W        W65901   6.972  28.664   2.605
 1082W        W65902  24.199  40.916   2.836
 1083W        W65903   0.201  28.637   2.945
 1084W        W65904  20.229  23.240  12.640
 1085W        W65905  26.236   5.183  12.474
 1086W        W65906  28.660  41.969  12.151
 1087W        W65907   0.271  17.555   1.775
 1088W        W65908  26.487  38.979  14.814
 1089W        W65909  24.165  27.867   2.010
 1090W        W65910  30.155  24.767  13.839
 1091W        W65911  26.254  18.513   0.908
 1092W        W65912  11.701   0.562   0.860
 1093W        W65913  43.910   2.735   2.301
 1094W        W65914   1.770  27.247  12.060
 1095W        W65915  41.916   9.640   2.392
 1096W        W65916   6.215  23.147   2.701
 1097W        W65917   9.489  39.186   0.238
 1098W        W65918  15.588  18.992  12.023
 1099W        W65919  32.642  33.354  14.280
 1100W        W65920  38.983  30.746  11.536
 1101W        W65921  37.369   2.357   4.633
 1102W        W65922  12.236  10.644   1.089
 1103W        W65923   3.791  38.532  11.482
 1104W        W65924  12.307   4.146   0.845
 1105W        W65925   3.315  12.558   3.368
 1106W        W65926  44.904  43.004   2.461
 1107W        W65927  27.929  19.157   1.387
 1108W        W65928  30.180  34.093   0.898
 1109W        W65929  16.203   2.868  13.282
 1110W        W65930  21.144  29.913  10.958
 1111W        W65931  44.350  21.019   0.901
 1112W        W65932   6.721   0.345  10.762
 1113W        W65933  43.252  26.963  12.500
 1114W        W65934  40.063  33.475  12.108
 1115W        W65935   9.872  14.125   3.854
 1116W        W65936  18.727  33.130   2.277
 1117W        W65937  33.143  20.045   1.709
 1118W        W65938   9.632   4.588  14.819
 1119W        W65939   1.536  34.363   1.296
 1120W        W65940  18.341   3.768   4.157
 1121W        W65941  38.270  32.364  14.827
 1122W        W65942   1.747  12.409  14.919
 1123W        W65943   6.773   9.224   3.079
 1124W        W65944  42.282  35.653  11.690
 1125W        W65945  32.309  36.819   2.000
 1126W        W65946  24.993  42.986  12.693
 1127W        W65947  28.672   3.849   0.213
 1128W        W65948  26.205  15.452  12.659
 1129W        W65949  13.069  27.325  12.135
 1130W        W65950  42.523  30.152  10.791
 1131W        W65951  39.257   7.067  11.986
 1132W        W65952  17.680  43.502   0.416
 1133W        W65953  25.030  11.201   2.887
 1134W        W65954   8.380  36.050  11.122
 1135W        W65955  42.999  20.183   0.327
 1136W        W65956  34.338  19.134  12.577
 1137W        W65957   8.240  34.050   2.648
 1138W        W65958  43.620  18.033   3.640
 1139W        W65959  21.532   4.648   2.639
 1140W        W65960  22.686  31.212  13.312
 1141W        W65961  39.621  18.578  14.158
 1142W        W65962  44.377  11.102   0.814
 1143W        W65963  24.380  36.266   2.894
 1144W        W65964  30.436  28.591   2.160
 1145W        W65965  24.516  21.242   0.681
 1146W        W65966  20.506   1.108   4.518
 1147W        W65967  13.291   6.212   0.084
 1148W        W65968  12.637  26.170   0.311
 1149W        W65969  21.632   0.353   4.495
 1150W        W65970  24.899   8.376  13.893
 1151W        W65971  15.773   1.839  10.736
 1152W        W65972  29.132  33.795   0.056
 1153W        W65973  30.419  14.613  14.080
 1154W        W65974   1.157  16.548  11.889
 1155W        W65975  12.923  27.884   2.780
 1156W        W65976  31.641  34.692   0.828
 1157W        W65977  12.859   6.205   1.319
 1158W        W65978  12.306   4.422   3.669
 1159W        W65979  15.761  38.568  14.898
 1160W        W65980  29.125   6.485   2.224
 1161W        W65981  13.719   5.998  12.053
 1162W        W65982  36.094   6.878   3.659
 1163W        W65983  32.640  28.597   2.242
 1164W        W65984  33.940  31.146  14.359
 1165W        W65985  14.687  23.157   2.521
 1166W        W65986  44.052  25.419  13.938
 1167W        W65987  32.584   3.236  12.543
 1168W        W65988  22.355  11.468   2.921
 1169W        W65989  30.059   5.745  14.385
 1170W        W65990  25.215  41.639  12.420
 1171W        W65991   8.786  36.463  14.298
 1172W        W65992  16.076  36.444  14.115
 1173W        W65993  42.802  26.960   2.792
 1174W        W65994  14.645  10.880  13.575
 1175W        W65995  41.322  26.285  13.983
 1176W        W65996  35.982   0.746   4.391
 1177W        W65997   9.153  16.830  13.287
 1178W        W65998   5.165  19.395   0.054
 1179W        W65999  27.554   0.912   4.999
 1180W        W66000  43.017   8.976  12.092
 1181W        W66001  22.178   8.288   2.719
 1182W        W66002  36.881  20.115   3.420
 1183W        W66003  20.770  24.936  12.955
 1184W        W66004   4.869  26.405   0.847
 1185W        W66005  27.572  21.716   2.970
 1186W        W66006  38.628   0.469   1.479
 1187W        W66007  25.599   6.907   3.757
 1188W        W66008  30.408  12.801  11.370
 1189W        W66009  18.258  30.328  11.760
 1190W        W66010   5.216  26.122  12.481
 1191W        W66011   8.195  35.907   2.475
 1192W        W66012  19.673   9.174  12.971
 1193W        W66013  30.139   7.368  13.021
 1194W        W66014  34.996  34.027   1.346
 1195W        W66015  13.030   9.426   3.999
 1196W        W66016  23.546  40.063   1.435
 1197W        W66017   3.273   9.935  14.851
 1198W        W66018  10.857  10.180  12.267
 1199W        W66019  13.142  13.002   3.658
 1200W        W66020   9.177   0.604   2.857
 1201W        W66021  20.738  17.646  10.850
 1202W        W66022  30.959  42.415   2.277
 1203W        W66023  18.309  17.751  11.612
 1204W        W66024  19.181  20.527   3.153
 1205W        W66025   9.858  25.260  12.921
 1206W        W66026  25.962  10.819  13.405
 1207W        W66027  13.320  20.664   3.577
 1208W        W66028  40.555  31.592   1.431
 1209W        W66029  10.571  18.162  12.858
 1210W        W66030   4.188  42.767   3.702
 1211W        W66031  36.337  34.036   1.957
 1212W        W66032   5.887  37.051  13.583
 1213W        W66033   8.156  10.287  14.222
 1214W        W66034  28.506  12.512  14.968
 1215W        W66035  11.926  27.918   4.270
 1216W        W66036  41.047  43.147   2.074
 1217W        W66037   7.763  13.823   4.340
 1218W        W66038   3.220   7.814  12.121
 1219W        W66039  44.115   5.779  12.059
 1220W        W66040  42.845  36.561  10.733
 1221W        W66041  13.242  27.484  10.283
 1222W        W66042  35.251  35.141  12.057
 1223W        W66043  10.676  39.813   3.375
 1224W        W66044  35.268  10.824   5.005
 1225W        W66045  28.115  19.251   0.029
 1226W        W66046  31.603  33.795  10.618
 1227W        W66047  19.637  17.265   4.553
 1228W        W66048   3.038  32.543   3.141
 1229W        W66049  34.778   7.434   3.103
 1230W        W66050  23.539  10.733   1.628
 1231W        W66051  41.012  33.608  11.675
 1232W        W66052  11.758  18.054  12.104
 1233W        W66053  12.977  35.421   1.773
 1234W        W66054  15.183  31.346  11.960
 1235W        W66055  42.404   7.361  10.491
 1236W        W66056  35.930  41.547  13.930
 1237W        W66057   3.550  10.640   1.780
 1238W        W66058  16.875  20.937   3.669
 1239W        W66059  35.436  25.819  12.288
 1240W        W66060  17.999  39.417   2.638
 1241W        W66061  41.299   9.669  12.982
 1242W        W66062  41.322  27.600  13.302
 1243W        W66063  22.271  13.737  14.808
 1244W        W66064  41.655  26.831  13.895
 1245W        W66065  23.867  18.286  13.563
 1246W        W66066   9.214  19.693   4.172
 1247W        W66067  10.184  25.594  14.043
 1248W        W66068  27.387  41.804   1.457
 1249W        W66069  24.406   6.666   0.987
 1250W        W66070  24.802   6.636   4.290
 1251W        W66071   0.896  44.241  11.486
 1252W        W66072  38.916   4.370   2.232
 1253W        W66073  17.179  17.800   2.145
 1254W        W66074  23.070  29.807   4.601
 1255W        W66075  36.863  24.512  12.363
 1256W        W66076   3.333  23.489   3.963
 1257W        W66077  16.372  27.144   3.825
 1258W        W66078  28.526  28.519   4.469
 1259W        W66079  28.554  26.033  13.693
 1260W        W66080  44.809   2.195   4.346
 1261W        W66081   5.959   2.251   2.238
 1262W        W66082  27.621  38.024   4.092
 1263W        W66083  26.904  41.345  13.053
 1264W        W66084  29.212   8.175  14.769
 1265W        W66085  18.752  13.346  13.335
 1266W        W66086  30.578   4.152   0.834
 1267W        W66087  33.053  28.485  12.434
 1268W        W66088  21.294   2.966  11.171
 1269W        W66089   8.107  33.523  14.478
 1270W        W66090  12.240  31.475  13.023
 1271W        W66091  12.493   1.751   0.922
 1272W        W66092  35.777  25.491  13.018
 1273W        W66093   8.841  37.453  12.901
 1274W        W66094  32.663  16.814   0.375
 1275W        W66095  32.028   6.181  14.009
 1276W        W66096  42.755  20.189  10.654
 1277W        W66097  30.371  33.055   1.742
 1278W        W66098  10.204  17.522   3.713
 1279W        W66099  41.152  29.692   4.079
 1280W        W66100  39.059  40.031   3.668
 1281W        W66101  31.382  12.164   2.436
 1282W        W66102  13.895   0.401   1.269
 1283W        W66103  15.878   7.780   1.651
 1284W        W66104  42.336  24.541  14.966
 1285W        W66105  27.950  18.720   1.126
 1286W        W66106  40.435  42.385   2.900
 1287W        W66107   5.254  25.220   1.933
 1288W        W66108  31.100  32.105  13.986
 1289W        W66109  21.449  33.403   4.221
 1290W        W66110  32.509  15.278  13.656
 1291W        W66111  40.646  25.224   5.147
 1292W        W66112  14.692  39.587   1.334
 1293W        W66113  19.818  31.635  13.197
 1294W        W66114  18.080  17.051   0.513
 1295W        W66115  35.959  35.364  13.405
 1296W        W66116   4.191  24.190   3.888
 1297W        W66117  24.525  35.673   9.886
 1298W        W66118  34.376  34.908   2.471
 1299W        W66119  28.439  22.530   4.717
 1300W        W66120  16.002  15.335   4.090
 1301W        W66121  42.243  12.323  13.929
 1302W        W66122  32.915  32.692   3.634
 1303W        W66123   3.073   0.329  14.345
 1304W        W66124  35.855  23.953   0.803
 1305W        W66125   7.847  38.033  10.750
 1306W        W66126   3.390  24.426   4.570
 1307W        W66127  25.096  40.839   1.260
 1308W        W66128  23.208  23.651  11.601
 1309W        W66129   8.760  25.897  12.475
 1310W        W66130  44.564  31.460  12.658
 1311W        W66131  21.164   9.221   0.506
 1312W        W66132  10.844  13.190   1.638
 1313W        W66133  31.769  10.305  11.988
 1314W        W66134   4.449  21.950   4.473
 1315W        W66135   3.896  36.598   2.041
 1316W        W66136  12.188   4.414  10.906
 1317W        W66137  24.878  27.933  14.411
 1318W        W66138  27.506  30.663   1.416
 1319W        W66139  35.277   5.721  14.279
 1320W        W66140  39.378  28.707  11.017
 1321W        W66141  40.000  14.534  13.490
 1322W        W66142  13.292  31.463   1.842
 1323W        W66143  23.960  35.230   2.294
 1324W        W66144   1.237  36.321   0.015
 1325W        W66145  11.073  18.144  13.823
 1326W        W66146   7.365  32.024  14.183
 1327W        W66147   8.690   3.183   4.558
 1328W        W66148   5.940  36.045   1.940
 1329W        W66149  20.345   7.930   5.185
 1330W        W66150  43.610  22.503   0.523
 1331W        W66151   4.497  26.918  12.536
 1332W        W66152  19.103   5.400  13.853
 1333W        W66153  35.886  18.953  11.200
 1334W        W66154  17.202  44.543   2.471
 1335W        W66155   9.634  32.948   2.724
 1336W        W66156   2.138  14.387   4.926
 1337W        W66157  43.790  39.648   4.266
 1338W        W66158  41.506  41.283  10.727
 1339W        W66159   1.191  12.317   4.083
 1340W        W66160   3.722  30.500   4.558
 1341W        W66161  42.517  22.692   3.253
 1342W        W66162  19.525  11.441   2.815
 1343W        W66163   4.846  35.133   2.212
 1344W        W66164  40.566  33.937   0.428
 1345W        W66165  16.707  36.873  12.369
 1346W        W66166  33.099  23.778  11.907
 1347W        W66167   3.006  22.736  14.777
 1348W        W66168  42.047  41.343   0.855
 1349W        W66169   6.925  23.982  14.321
 1350W        W66170  21.191   6.379  10.657
 1351W        W66171  39.880  15.279   2.630
 1352W        W66172  29.659  23.746   2.268
 1353W        W66173   2.002  11.112  12.601
 1354W        W66174  22.772  39.214   4.073
 1355W        W66175   7.415  28.020  13.949
 1356W        W66176   2.263  17.015   3.392
 1357W        W66177  28.192  11.216  13.518
 1358W        W66178  22.230  42.123   2.162
 1359W        W66179  28.517  41.587   2.233
 1360W        W66180  30.457  31.456  12.068
 1361W        W66181  43.865   4.209   4.072
 1362W        W66182  19.591  44.409   4.254
 1363W        W66183   7.164   0.241  11.036
 1364W        W66184  41.734  14.654   3.766
 1365W        W66185   2.600  27.865   2.696
 1366W        W66186   7.255  33.178   2.316
 1367W        W66187  41.786  39.043   2.080
 1368W        W66188  32.530  14.116   4.872
 1369W        W66189  12.849  32.409   9.805
 1370W        W66190   7.269   0.972   1.836
 1371W        W66191  41.263  33.601   3.801
 1372W        W66192  41.085  26.564   1.498
 1373W        W66193   4.959  32.316   1.376
 1374W        W66194   2.394  19.474   0.881
 1375W        W66195  14.033  19.300  10.206
 1376W        W66196  44.106  34.489   1.801
 1377W        W66197  28.017  38.826  10.507
 1378W        W66198   3.878  23.258  10.488
 1379W        W66199  39.819  40.005  14.886
 1380W        W66200   5.393  19.501   4.877
 1381W        W66201  30.898   7.727   0.576
 1382W        W66202  14.609  14.576   2.717
 1383W        W66203  43.101  32.117   1.849
 1384W        W66204  18.085  36.162  14.897
 1385W        W66205  23.993   8.853   1.088
 1386W        W66206   9.075  26.083   5.067
 1387W        W66207  17.045  37.823   2.379
 1388W        W66208   2.209  37.984   4.381
 1389W        W66209   5.140  30.576   0.279
 1390W        W66210  41.725  17.546   0.777
 1391W        W66211  33.499  23.839   0.624
 1392W        W66212  24.817   4.785   3.090
 1393W        W66213  25.763   0.755  11.118
 1394W        W66214   4.318  17.928   3.739
 1395W        W66215  25.999  30.003   1.623
 1396W        W66216  13.081  41.897   3.373
 1397W        W66217   3.281  20.215   0.264
 1398W        W66218  34.035  34.658  12.909
 1399W        W66219  11.614  17.469  14.421
 1400W        W66220  15.613  20.853   3.242
 1401W        W66221   2.646   8.451  12.440
 1402W        W66222  39.910  38.067   4.122
 1403W        W66223  33.047  26.981   4.556
 1404W        W66224  19.287  20.026   3.192
 1405W        W66225  21.226  30.466   3.073
 1406W        W66226  35.512  29.889   1.456
 1407W        W66227  14.174  34.866   3.207
 1408W        W66228  30.124  24.980  11.121
 1409W        W66229  21.394  13.607   1.802
 1410W        W66230   9.264  35.911  13.735
 1411W        W66231   4.907  16.182   4.718
 1412W        W66232   6.930   3.856   0.306
 1413W        W66233  22.336  29.040  14.993
 1414W        W66234  33.676  42.870  14.083
 1415W        W66235  43.463   3.645   5.032
 1416W        W66236  36.095  26.027   4.705
 1417W        W66237  20.129  15.157   1.253
 1418W        W66238  16.192   4.173  12.569
 1419W        W66239  23.452  27.935  12.002
 1420W        W66240  32.901  32.940  13.509
 1421W        W66241  40.302  12.848   2.573
 1422W        W66242  43.677  21.515  13.982
 1423W        W66243   2.460   9.708  13.844
 1424W        W66244   7.457  13.996   3.170
 1425W        W66245   0.792  23.487  14.951
 1426W        W66246  44.564   9.328   1.825
 1427W        W66247  33.608   7.211   1.681
 1428W        W66248   4.184  18.160   0.384
 1429W        W66249  35.089   1.323   0.050
 1430W        W66250  28.891  15.840   3.753
 1431W        W66251  20.386  16.303   4.058
 1432W        W66252  23.266   4.410   2.265
 1433W        W66253  41.506  42.027   1.817
 1434W        W66254  14.243  34.994  11.028
 1435W        W66255  44.714  31.511   4.106
 1436W        W66256  34.436   9.350  10.076
 1437W        W66257  34.862  44.319   3.290
 1438W        W66258  30.463  13.105  12.213
 1439W        W66259   4.477  26.939   3.256
 1440W        W66260  24.479  20.940   4.948
 1441W        W66261   9.173  20.209   1.642
 1442W        W66262  21.666  34.855  10.840
 1443W        W66263  31.411  37.979   3.654
 1444W        W66264  10.591  29.526  12.605
 1445W        W66265   3.872  14.894   0.916
 1446W        W66266   3.411   6.114  11.547
 1447W        W66267  44.906  44.936   3.062
 1448W        W66268  13.543   8.880   0.646
 1449W        W66269   4.236   5.348   1.325
 1450W        W66270  19.821  36.578   0.459
 1451W        W66271  22.012  10.846  12.958
 1452W        W66272  15.194  37.010   3.574
 1453W        W66273   6.251   4.741  13.988
 1454W        W66274  44.436  27.721   1.956
 1455W        W66275  28.627  27.978  11.207
 1456W        W66276   5.254  30.368  13.616
 1457W        W66277  13.253  23.163  14.783
 1458W        W66278  44.100  10.229  11.990
 1459W        W66279  21.987   2.785  13.612
 1460W        W66280  38.801  35.726   2.618
 1461W        W66281  18.003  25.901  13.516
 1462W        W66282  31.376  41.873   4.111
 1463W        W66283   8.366  25.957   0.046
 1464W        W66284  35.105  19.025   4.098
 1465W        W66285  22.207  34.622   1.408
 1466W        W66286   3.952  14.219   0.826
 1467W        W66287  26.430  13.279  12.084
 1468W        W66288   6.817  36.671   1.905
 1469W        W66289  35.012  28.411   4.986
 1470W        W66290  23.090   3.022  11.087
 1471W        W66291   8.220  41.885  12.164
 1472W        W66292  26.654   3.187  14.421
 1473W        W66293  30.919  12.764  13.983
 1474W        W66294  42.960  14.640  13.121
 1475W        W66295  39.055   7.825   0.994
 1476W        W66296  27.412   0.231  10.545
 1477W        W66297  13.387  15.262   1.278
 1478W        W66298  36.080  37.134  11.706
 1479W        W66299  24.454  23.050   0.971
 1480W        W66300  44.244   5.770   1.800
 1481W        W66301  43.976  12.160   0.807
 1482W        W66302  15.038   8.294  14.554
 1483W        W66303  18.090   1.923   2.722
 1484W        W66304   5.732  18.392  14.755
 1485W        W66305   7.972   0.259  11.307
 1486W        W66306  38.841  32.156   2.847
 1487W        W66307   1.688   4.155   4.428
 1488W        W66308   6.701  42.009   0.876
 1489W        W66309  19.094   0.509  13.633
 1490W        W66310  29.244   7.207  12.100
 1491W        W66311   6.235   4.282  11.148
 1492W        W66312  17.756  13.125  10.926
 1493W        W66313   7.852  43.527   4.514
 1494W        W66314   4.913  37.605  11.998
 1495W        W66315   4.906  34.221   3.658
 1496W        W66316   5.224  23.592   0.025
 1497W        W66317  27.551   4.288   0.381
 1498W        W66318  13.859  31.928   2.999
 1499W        W66319  15.996  27.050   3.221
 1500W        W66320  20.597  41.311   2.952
 1501W        W66321  30.816   3.875   2.392
 1502W        W66322  23.567  14.848  12.093
 1503W        W66323  38.993  27.612  11.645
 1504W        W66324  27.115   3.937  11.241
 1505W        W66325   1.165  11.454   4.172
 1506W        W66326  27.921  33.152   2.639
 1507W        W66327   2.397   2.617  14.230
 1508W        W66328   2.850  44.354  11.985
 1509W        W66329  28.595  32.699   3.297
 1510W        W66330   9.712  33.943   0.901
 1511W        W66331  11.568  29.434   1.431
 1512W        W66332   5.324  20.015  13.842
 1513W        W66333  23.694  43.946   2.340
 1514W        W66334  38.368  21.280   1.381
 1515W        W66335  33.724  40.578  12.051
 1516W        W66336  29.221  36.549   2.272
 1517W        W66337  15.841  42.784   1.206
 1518W        W66338  38.130  44.057   3.315
 1519W        W66339  32.647  28.500   0.364
 1520W        W66340  43.872  11.632  14.481
 1521W        W66341  40.538  43.225  14.902
 1522W        W66342  24.164  29.890   0.433
 1523W        W66343  14.526  31.035   1.308
 1524W        W66344   8.203  31.829   3.735
 1525W        W66345  42.064  12.710  10.430
 1526W        W66346  13.206  10.406  10.596
 1527W        W66347  31.373  37.930   2.732
 1528W        W66348  18.938  33.649   0.796
 1529W        W66349  32.573  30.917   1.682
 1530W        W66350  32.671  26.419  12.323
 1531W        W66351  28.916  23.542   2.620
 1532W        W66352  35.305  22.191  10.533
 1533W        W66353  35.050  39.853   2.705
 1534W        W66354  14.894  20.001   1.925
 1535W        W66355  13.861  33.633  13.807
 1536W        W66356   2.413  20.555   2.144
 1537W        W66357  36.729  13.211  14.791
 1538W        W66358   4.510  32.423   5.019
 1539W        W66359  26.870  19.838  12.599
 1540W        W66360  16.059  26.775   3.661
 1541W        W66361  18.798   2.969   1.630
 1542W        W66362  14.692  41.768  11.586
 1543W        W66363  42.161  38.770   5.305
 1544W        W66364  10.074   3.510  13.514
 1545W        W66365  14.099  32.107  10.712
 1546W        W66366  25.128   8.817   0.379
 1547W        W66367  16.298  20.034  10.732
 1548W        W66368   6.980  35.744  13.500
 1549W        W66369  28.365  13.196   3.733
 1550W        W66370  17.141  19.687   2.332
 1551W        W66371  14.321  24.573   0.348
 1552W        W66372  21.436  20.354  11.006
 1553W        W66373   2.385  15.702  13.859
 1554W        W66374  30.294  11.199   0.186
 1555W        W66375   8.217  32.538   1.212
 1556W        W66376  32.374  24.642   0.974
 1557W        W66377   8.102  22.887  11.646
 1558W        W66378  37.472   6.652  11.114
 1559W        W66379  37.321  40.723   2.749
 1560W        W66380   9.668  44.417  13.878
 1561W        W66381   0.974   5.865  14.106
 1562W        W66382  26.704   6.335   4.215
 1563W        W66383  24.891  41.526   2.736
 1564W        W66384  14.077  24.643  14.876
 1565W        W66385  21.257  30.090  13.882
 1566W        W66386   9.496  15.223  12.319
 1567W        W66387  28.290  32.875  11.505
 1568W        W66388  36.603  23.064   2.271
 1569W        W66389  14.011   3.226   2.708
 1570W        W66390  44.268  32.797   1.759
 1571W        W66391  40.342   5.891   4.609
 1572W        W66392  16.687  38.810   1.612
 1573W        W66393  31.423  33.543   1.795
 1574W        W66394  35.286  16.889   0.920
 1575W        W66395  10.931  11.774   2.687
 1576W        W66396   6.979  15.347  14.312
 1577W        W66397  44.251   3.561  11.494
 1578W        W66398  38.103   8.351   2.359
 1579W        W66399  20.214  42.986  11.643
 1580W        W66400  21.461   9.617   0.391
 1581W        W66401   3.905  35.742   4.485
 1582W        W66402  39.482  36.483  11.096
 1583W        W66403  40.786   9.214   1.149
 1584W        W66404  18.309  15.015   3.574
 1585W        W66405  20.046  23.665  11.864
 1586W        W66406  35.639   3.679   4.667
 1587W        W66407   7.862  41.741   3.695
 1588W        W66408  39.912  18.719   0.762
 1589W        W66409  20.996  13.297   1.222
 1590W        W66410  12.424   3.474   4.268
 1591W        W66411  14.968  16.555   0.731
 1592W        W66412   2.981   4.797   4.026
 1593W        W66413   7.888  20.360  13.382
 1594W        W66414   1.891  38.898   4.085
 1595W        W66415  30.570   7.446   3.205
 1596W        W66416  43.926  26.141   0.575
 1597W        W66417  17.737  32.558   4.076
 1598W        W66418  13.513  12.629   4.535
 1599W        W66419  20.686  14.471   2.791
 1600W        W66420  23.750  43.956   1.826
 1601W        W66421  39.923  24.545   3.150
 1602W        W66422  34.795   1.668   4.470
 1603W        W66423  39.458  33.617  13.903
 1604W        W66424   2.272   8.659  11.582
 1605W        W66425  32.592  23.239  14.425
 1606W        W66426  12.933  32.190  13.870
 1607W        W66427  30.569  24.736  11.954
 1608W        W66428  27.570  24.069  10.681
 1609W        W66429  22.861  31.616   4.649
 1610W        W66430  11.176  41.845   2.743
 1611W        W66431  11.570  28.639   1.707
 1612W        W66432  33.893  11.598   1.384
 1613W        W66433  15.353  29.507   3.723
 1614W        W66434  35.828  17.836   3.669
 1615W        W66435  13.635  40.132  14.585
 1616W        W66436   1.223  42.415   1.327
 1617W        W66437  11.103  15.877  12.096
 1618W        W66438  38.253  38.180   3.283
 1619W        W66439  13.273  41.123   5.084
 1620W        W66440  37.893  22.173   3.255
 1621W        W66441  22.267  24.754  14.393
 1622W        W66442   7.798  15.783   0.066
 1623W        W66443   3.187   8.891  11.606
 1624W        W66444  27.225   1.914   2.806
 1625W        W66445  24.472   9.719   1.242
 1626W        W66446   9.025  11.256  14.774
 1627W        W66447  33.929  31.441   1.381
 1628W        W66448   3.982  10.227   2.134
 1629W        W66449  37.398   0.912   4.516
 1630W        W66450  16.655  37.858   2.061
 1631W        W66451  24.680  11.200   0.329
 1632W        W66452  14.703   9.954   0.050
 1633W        W66453  15.699  44.701  10.007
 1634W        W66454  31.486  22.177  14.498
 1635W        W66455  19.092  19.941   2.693
 1636W        W66456  16.897  12.317   1.434
 1637W        W66457  39.174  23.678  13.385
 1638W        W66458  17.044  27.455  11.126
 1639W        W66459  27.823  32.836   3.081
 1640W        W66460  41.355  11.389   3.866
 1641W        W66461  11.790  44.794  13.478
 1642W        W66462  25.510  10.509   3.592
 1643W        W66463  34.984  32.650  14.012
 1644W        W66464  44.609  15.066  14.919
 1645W        W66465  36.880  23.312  11.785
 1646W        W66466  24.090  28.072   3.689
 1647W        W66467  38.395  20.227   3.136
 1648W        W66468  35.373  26.204  11.458
 1649W        W66469  22.500  23.448  10.188
 1650W        W66470  40.054  30.576   0.153
 1651W        W66471  38.939  12.797   3.242
 1652W        W66472  22.773  29.903  10.647
 1653W        W66473  10.735  37.301   4.572
 1654W        W66474   8.891  43.943  13.740
 1655W        W66475  31.445  30.160   4.615
 1656W        W66476  23.452   4.885   2.738
 1657W        W66477  21.200  34.627  12.939
 1658W        W66478   6.110   1.254   5.147
 1659W        W66479   9.344   4.300  12.960
 1660W        W66480  22.069  14.104   1.334
 1661W        W66481  29.970  39.744  12.342
 1662W        W66482   4.484  31.401   0.994
 1663W        W66483   8.139  37.146  12.401
 1664W        W66484  16.730   6.665  10.499
 1665W        W66485  26.332   4.878   3.350
 1666W        W66486   4.405  43.875  11.463
 1667W        W66487  16.101  19.942   0.352
 1668W        W66488  26.946   8.322   3.475
 1669W        W66489  17.714   9.478   1.218
 1670W        W66490  23.093  41.048   4.374
 1671W        W66491  30.155  31.895   0.035
 1672W        W66492  18.323  12.433   2.679
 1673W        W66493  20.036  30.722  13.340
 1674W        W66494  29.498  30.095  14.411
 1675W        W66495  29.849   5.858   2.886
 1676W        W66496   6.517  31.634  12.497
 1677W        W66497  44.188  39.496   0.903
 1678W        W66498  27.751  19.637  10.110
 1679W        W66499   4.199  13.759  10.817
 1680W        W66500  12.733   4.661   0.273
 1681W        W66501  22.753  42.017  10.605
 1682W        W66502  42.931  26.327  13.368
 1683W        W66503  39.503  43.535   3.764
 1684W        W66504  36.255  40.694   4.129
 1685W        W66505   6.250   7.014   1.912
 1686W        W66506  43.321  21.160   2.463
 1687W        W66507   7.429  37.776   0.402
 1688W        W66508  24.011   4.122   4.705
 1689W        W66509  38.590  21.370   9.784
 1690W        W66510  38.355  26.740   3.740
 1691W        W66511  19.876  29.043  14.863
 1692W        W66512  36.377  28.104  12.828
 1693W        W66513  21.742   4.390  12.267
 1694W        W66514   5.333  36.644   4.136
 1695W        W66515  16.756  21.563  10.928
 1696W        W66516  40.184   1.014   1.797
 1697W        W66517   4.660  15.760  14.453
 1698W        W66518  24.440  27.719   0.802
 1699W        W66519  39.023  29.187  12.404
 1700W        W66520  29.654  19.448  14.748
 1701W        W66521  22.083  40.021   3.230
 1702W        W66522   9.236   7.471  14.825
 1703W        W66523  22.728  14.774  10.766
 1704W        W66524   7.275  31.441   0.916
 1705W        W66525  44.400  13.814  14.388
 1706W        W66526  43.470  39.704   0.398
 1707W        W66527  27.400  13.317  11.952
 1708W        W66528  39.527  35.405   4.123
 1709W        W66529  41.339  11.890   2.481
 1710W        W66530  22.958  24.001  12.507
 1711W        W66531   8.133  40.979  10.795
 1712W        W66532  37.594  40.991  12.967
 1713W        W66533  38.963  39.442  13.433
 1714W        W66534  13.855  20.580   3.696
 1715W        W66535   7.661  16.161  12.018
 1716W        W66536   0.899   4.856   0.253
 1717W        W66537  38.515  20.235   1.349
 1718W        W66538   0.808  41.293   0.454
 1719W        W66539   7.035   0.001  13.530
 1720W        W66540  20.566   1.526   4.828
 1721W        W66541   6.202  13.567  11.721
 1722W        W66542  23.456   8.154   3.220
 1723W        W66543  35.512   6.247  10.707
 1724W        W66544  22.866   3.184  12.172
 1725W        W66545  37.663  42.887   3.176
 1726W        W66546  18.015   4.757  11.943
 1727W        W66547  34.843  13.391  10.133
 1728W        W66548  37.327  34.531  12.874
 1729W        W66549  31.686   0.755   0.615
 1730W        W66550   9.542   2.808   0.806
 1731W        W66551  40.969   0.416   2.657
 1732W        W66552  36.737  21.989  11.436
 1733W        W66553  37.367  37.851   2.247
 1734W        W66554   9.133  34.298   2.237
 1735W        W66555   2.747   8.179   2.109
 1736W        W66556   1.506  17.496  13.085
 1737W        W66557  14.681  10.228   3.113
 1738W        W66558  24.681  27.925   1.286
 1739W        W66559  38.294  10.197   0.961
 1740W        W66560   0.360   4.919  14.888
 1741W        W66561  22.386  28.437   2.149
 1742W        W66562  14.698  31.479  14.205
 1743W        W66563  29.353  27.361   0.774
 1744W        W66564   1.577  30.441   0.140
 1745W        W66565  15.265  15.853   1.356
 1746W        W66566  27.466  32.619   0.680
 1747W        W66567  36.839  36.330   0.781
 1748W        W66568  44.013  11.400  12.960
 1749W        W66569  36.498   1.161   1.659
 1750W        W66570   9.925  30.436  13.890
 1751W        W66571  39.015  44.035   2.992
 1752W        W66572  23.042  25.527   4.115
 1753W        W66573  40.003  38.397  10.989
 1754W        W66574  21.595  10.510  14.892
 1755W        W66575  23.682  30.904  10.631
 1756W        W66576  24.554   2.216  11.553
 1757W        W66577  15.045  35.624  14.562
 1758W        W66578  43.223  12.657   0.704
 1759W        W66579  40.687  14.680   4.733
 1760W        W66580  39.556  36.437   4.946
 1761W        W66581  31.646  25.149   1.305
 1762W        W66582   1.473  36.426   1.933
 1763W        W66583  30.690  35.490   0.468
 1764W        W66584  44.882  21.122   4.618
 1765W        W66585  20.203  30.085   2.366
 1766W        W66586  14.033  32.409  12.431
 1767W        W66587  27.983  15.638  10.044
 1768W        W66588  13.131  38.836  14.396
 1769W        W66589  36.374  20.187  13.848
 1770W        W66590  19.980  12.237   0.477
 1771W        W66591   5.717  23.068   4.040
 1772W        W66592  33.029  29.029  14.348
 1773W        W66593  34.167   4.463  11.892
 1774W        W66594  27.120   1.418  13.523
 1775W        W66595  29.285  36.566  11.240
 1776W        W66596   6.244  35.528   1.399
 1777W        W66597  39.950  23.966   3.863
 1778W        W66598  15.596  35.009   2.842
 1779W        W66599   5.800   5.799  11.201
 1780W        W66600   7.669   6.848  13.723
 1781W        W66601   0.965  29.009  10.350
 1782W        W66602  38.778  18.170   3.279
 1783W        W66603  17.505  12.665  11.067
 1784W        W66604  34.060  15.452   2.664
 1785W        W66605  35.898   6.969  11.555
 1786W        W66606  13.451  23.902   1.889
 1787W        W66607   5.295  31.001   0.523
 1788W        W66608   1.252  18.160  14.521
 1789W        W66609  21.445  44.949  14.044
 1790W        W66610  29.408  30.424   2.408
 1791W        W66611  33.071  24.441   1.121
 1792W        W66612   9.640  41.950   0.896
 1793W        W66613  35.083  26.609  12.082
 1794W        W66614  21.105  41.787   4.842
 1795W        W66615  38.765  15.624   4.241
 1796W        W66616   7.726  20.181  12.479
 1797W        W66617   0.242   7.881  10.733
 1798W        W66618   2.867  42.446  12.897
 1799W        W66619  12.767   5.564  11.573
 1800W        W66620  39.385  27.306   2.752
 1801W        W66621  24.303  35.790   4.545
 1802W        W66622   8.687  14.003   2.631
 1803W        W66623  30.340  21.954   3.029
 1804W        W66624   0.743  38.408   1.369
 1805W        W66625  44.792   3.270  10.706
 1806W        W66626   8.235   7.460  12.544
 1807W        W66627  33.009  37.982  14.434
 1808W        W66628  44.475  19.198  12.461
 1809W        W66629  14.614  28.636  10.295
 1810W        W66630  22.957  16.686   3.659
 1811W        W66631  34.052  33.959   4.703
 1812W        W66632   5.440  33.409  10.717
 1813W        W66633  23.507  30.515   2.737
 1814W        W66634  40.409  40.696  12.246
 1815W        W66635   0.896   0.727  14.739
 1816W        W66636  14.304  25.640   3.201
 1817W        W66637  17.270  30.177  14.625
 1818W        W66638   8.840  13.222  12.181
 1819W        W66639  11.951  40.039   2.413
 1820W        W66640  11.870   9.905   3.579
 1821W        W66641  42.166  12.780   1.376
 1822W        W66642  13.833  30.104   2.618
 1823W        W66643  41.454  42.829   1.458
 1824W        W66644   4.012  24.123   0.523
 1825W        W66645  22.536  41.845   4.227
 1826W        W66646  11.505  18.201  12.555
 1827W        W66647   7.713  31.925  13.206
 1828W        W66648  12.705  32.704   0.476
 1829W        W66649   6.481  38.880   2.268
 1830W        W66650   6.663  17.698  12.644
 1831W        W66651  28.995  44.681   4.624
 1832W        W66652  42.225   2.324   1.285
 1833W        W66653  29.659   7.139  12.897
 1834W        W66654   9.191  29.124   0.907
 1835W        W66655   9.946   6.839  12.244
 1836W        W66656  35.081  30.585  11.224
 1837W        W66657  35.403  40.070   3.066
 1838W        W66658   5.380  26.486   2.815
 1839W        W66659   1.658   8.634  13.619
 1840W        W66660  15.356  32.517  12.588
 1841W        W66661  10.096   2.287   2.890
 1842W        W66662  34.199   1.521  11.527
 1843W        W66663  38.312  19.549  11.518
 1844W        W66664  19.641  15.029   0.465
 1845W        W66665  30.374   8.606  13.866
 1846W        W66666  16.681  11.578   4.060
 1847W        W66667  39.675  17.198   0.115
 1848W        W66668  23.658  12.676   3.976
 1849W        W66669  37.147  18.548  11.682
 1850W        W66670   7.948   5.416  11.701
 1851W        W66671  32.951  33.444  13.659
 1852W        W66672  40.544  44.841  12.926
 1853W        W66673  30.672  34.986   0.762
 1854W        W66674  30.943  32.376   2.812
 1855W        W66675  15.169   4.923   1.494
 1856W        W66676  40.310  10.288   1.841
 1857W        W66677  38.235  17.712   3.783
 1858W        W66678  24.487  23.678   0.436
 1859W        W66679  29.915  19.185   2.750
 1860W        W66680  30.862  27.594   2.927
 1861W        W66681   8.090  33.092   1.618
 1862W        W66682  42.407  28.860   0.281
 1863W        W66683  26.641  32.640  12.165
 1864W        W66684  19.030  35.324   4.946
 1865W        W66685  32.827   0.484   4.690
 1866W        W66686  10.681  16.717   0.466
 1867W        W66687  33.512  25.452  14.964
 1868W        W66688   7.449  43.801  12.032
 1869W        W66689  38.921  34.102  14.754
 1870W        W66690  36.528  37.453   2.439
 1871W        W66691  43.006  23.110  11.184
 1872W        W66692  24.942  34.743  10.402
 1873W        W66693   5.537  26.212  12.049
 1874W        W66694  42.398   7.409   4.364
 1875W        W66695  33.768   7.438   3.227
 1876W        W66696  34.724   1.715  11.940
 1877W        W66697  34.405  23.023  11.035
 1878W        W66698   3.415  31.134  11.142
 1879W        W66699  16.210   5.201   2.333
 1880W        W66700   4.880   2.406   0.840
 1881W        W66701  34.013  24.065  14.391
 1882W        W66702   9.469  28.480  11.072
 1883W        W66703  18.084  30.310   0.193
 1884W        W66704  12.748  17.227  13.319
 1885W        W66705  24.710  25.848  11.889
 1886W        W66706   8.607  42.877   1.775
 1887W        W66707  11.599   2.264  12.861
 1888W        W66708  18.259  30.563  13.850
 1889W        W66709  11.477   9.624   3.740
 1890W        W66710   9.679  13.187   2.626
 1891W        W66711   5.418  31.973   4.618
 1892W        W66712  44.480   2.547   4.530
 1893W        W66713  17.598  34.838   9.909
 1894W        W66714   3.457  23.213   3.498
 1895W        W66715  11.153  25.891   1.282
 1896W        W66716   8.949  31.554  10.572
 1897W        W66717  16.690  41.954   0.298
 1898W        W66718   0.797  33.801   4.271
 1899W        W66719  30.534   3.976   0.270
 1900W        W66720  31.592   1.763   2.671
 1901W        W66721  32.556  31.963  14.501
 1902W        W66722  32.006  26.005  14.385
 1903W        W66723  16.613   4.916   1.240
 1904W        W66724  27.593  44.750  10.674
 1905W        W66725  21.402  33.520  11.710
 1906W        W66726   8.232  29.304  11.021
 1907W        W66727  15.241   9.487  10.811
 1908W        W66728  38.189  39.449  14.884
 1909W        W66729  13.641  32.062  14.049
 1910W        W66730  31.415  10.758  13.626
 1911W        W66731  41.895   9.282   3.745
 1912W        W66732   1.859  21.071   1.485
 1913W        W66733  35.940  31.152  10.369
 1914W        W66734  14.576   7.263  12.644
 1915W        W66735  36.923  16.973   4.024
 1916W        W66736  15.642  21.272   1.307
 1917W        W66737  32.695  21.191   2.704
 1918W        W66738  19.383  27.569  11.211
 1919W        W66739  29.203  40.659   1.700
 1920W        W66740  28.486  27.402  11.582
 1921W        W66741  18.042   5.349   1.483
 1922W        W66742  10.156  20.589  14.377
 1923W        W66743   5.391  40.502   0.349
 1924W        W66744  12.669  40.527  12.008
 1925W        W66745  31.697  22.474   2.872
 1926W        W66746  21.737  29.916  13.997
 1927W        W66747  37.051  36.359   3.842
 1928W        W66748  39.444  22.582  11.898
 1929W        W66749  26.633  18.205   0.701
 1930W        W66750   9.828   4.333  13.864
 1931W        W66751  24.117  21.135   1.339
 1932W        W66752   5.418   7.841  13.452
 1933W        W66753  36.407  31.962   2.361
 1934W        W66754  17.083  32.562  11.957
 1935W        W66755  37.931  22.377  11.842
 1936W        W66756   4.262  23.676  14.831
 1937W        W66757   2.360  22.688   1.234
 1938W        W66758  28.629  28.642  10.691
 1939W        W66759  15.864  33.984   1.355
 1940W        W66760  35.867  17.192  12.145
 1941W        W66761  34.957  15.321   2.826
 1942W        W66762  32.402  10.111  14.383
 1943W        W66763  26.969  29.876   1.380
 1944W        W66764  15.975   8.578   2.329
 1945W        W66765  23.623   3.689  10.739
 1946W        W66766   6.198  20.127   3.299
 1947W        W66767  14.615  12.771  14.597
 1948W        W66768  28.951   8.423  11.612
 1949W        W66769   6.679  11.326  11.996
 1950W        W66770  22.485  35.357  11.120
 1951W        W66771  32.398  37.996   3.783
 1952W        W66772  39.768   3.346   1.655
 1953W        W66773  22.460   1.910  11.038
 1954W        W66774  12.152  20.849  11.511
 1955W        W66775  35.665  35.970   2.470
 1956W        W66776  19.262  43.449  14.748
 1957W        W66777   9.257  30.648   5.034
 1958W        W66778   9.986  25.538  11.751
 1959W        W66779  12.645   9.784   4.043
 1960W        W66780  19.037  40.763   1.420
 1961W        W66781  44.322  19.610  11.393
 1962W        W66782  16.302  15.335  14.892
 1963W        W66783  16.408  44.570   1.291
 1964W        W66784  30.148   3.401  10.427
 1965W        W66785  26.559  21.124  13.341
 1966W        W66786   0.609   6.953  11.608
 1967W        W66787  11.873  40.593   4.074
 1968W        W66788   3.442  15.373   0.540
 1969W        W66789  23.301  32.415  14.985
 1970W        W66790  41.240  39.315  12.981
 1971W        W66791   7.277   6.562  12.721
 1972W        W66792  34.050  39.319  12.493
 1973W        W66793  38.253  15.380  11.372
 1974W        W66794  21.086  28.042   1.641
 1975W        W66795   7.403  36.505   4.391
 1976W        W66796   8.877  25.641  14.304
 1977W        W66797   9.260  43.773   3.240
 1978W        W66798  42.017  18.634   1.205
 1979W        W66799  13.147  43.287   4.108
 1980W        W66800  20.587  26.202   0.049
 1981W        W66801  22.126  17.860  14.797
 1982W        W66802   0.228  42.172  11.949
 1983W        W66803  20.628  25.042   0.878
 1984W        W66804   4.599  37.721  14.458
 1985W        W66805   4.966   7.370  11.171
 1986W        W66806   0.374  43.448  10.533
 1987W        W66807   0.198  25.589   2.778
 1988W        W66808  15.352  41.832   1.285
 1989W        W66809   2.560  16.271  12.528
 1990W        W66810  14.894  19.411  13.338
 1991W        W66811  26.025  26.080   0.867
 1992W        W66812  14.751  36.059  12.126
 1993W        W66813  10.444  14.007  10.770
 1994W        W66814  18.740  23.158   0.227
 1995W        W66815  33.457   2.845   1.636
 1996W        W66816   7.474   0.296  13.114
 1997W        W66817   6.512  34.028   3.879
 1998W        W66818   8.181  38.219  12.656
 1999W        W66819  22.047  13.312  10.532
 2000W        W66820  27.941  41.609  11.068
 2001W        W66821  20.713  44.861   0.500
 2002W        W66822  41.704  40.261   4.297
 2003W        W66823  31.951  31.591   2.375
 2004W        W66824  12.410  26.482   2.814
 2005W        W66825  31.540  34.528  14.298
 2006W        W66826   2.407   6.413   3.943
 2007W        W66827   2.723   1.451   0.016
 2008W        W66828  15.370  22.108   1.756
 2009W        W66829  22.536  30.531   0.461
 2010W        W66830  42.095  21.448  11.065
 2011W        W66831  21.622  37.017   1.453
 2012W        W66832   0.233   5.415  13.073
 2013W        W66833  13.291  22.469   4.463
 2014W        W66834  17.477  10.593  12.661
 2015W        W66835  25.968  15.023  14.495
 2016W        W66836  32.890  24.087  14.966
 2017W        W66837   3.829  44.451   0.980
 2018W        W66838  37.994   4.930  13.420
 2019W        W66839  16.677   4.922  11.984
 2020W        W66840  24.127  41.064  12.553
 2021W        W66841   0.553   7.969  14.878
 2022W        W66842  15.241  15.738   4.158
 2023W        W66843  10.206  35.854  13.486
 2024W        W66844  38.982  19.863   0.260
 2025W        W66845  43.032   4.311  14.825
 2026W        W66846  26.719   0.476   2.655
 2027W        W66847  36.236  10.335   2.696
 2028W        W66848  35.363  13.283   3.978
 2029W        W66849   8.744  22.592   4.224
 2030W        W66850   6.135  36.902  12.422
 2031W        W66851   1.297  35.142  13.753
 2032W        W66852  25.118   0.164   0.758
 2033W        W66853  18.315   1.765   2.276
 2034W        W66854  23.259  19.792   0.407
 2035W        W66855  29.880  40.878   2.277
 2036W        W66856  41.577  31.047  11.764
 2037W        W66857  33.341   7.217   4.579
 2038W        W66858  28.309  26.047   4.232
 2039W        W66859  37.111  40.607   1.134
 2040W        W66860  13.162  27.717  12.496
 2041W        W66861  29.085  39.404  14.416
 2042W        W66862  37.175  44.288  11.784
 2043W        W66863   4.889  13.276  12.700
 2044W        W66864  26.685  25.747   2.361
 2045W        W66865  16.800  23.758   1.172
 2046W        W66866  12.353   1.521  13.534
 2047W        W66867  27.329  43.377  13.455
 2048W        W66868  14.685   6.873  11.484
 2049W        W66869  27.461   6.223   3.780
 2050W        W66870   5.372  22.082  10.872
 2051W        W66871  37.949  31.611   2.711
 2052W        W66872  23.154  18.306   0.522
 2053W        W66873  24.105   1.481  13.523
 2054W        W66874  39.645  38.853  12.729
 2055W        W66875  23.040  31.249   1.990
 2056W        W66876  43.987  32.530  14.471
 2057W        W66877   4.387  42.110  12.133
 2058W        W66878  15.688  29.219   2.231
 2059W        W66879  29.039  11.818  13.754
 2060W        W66880  14.362  36.538   3.723
 2061W        W66881  25.401  21.945  10.713
 2062W        W66882  30.940  20.070  12.517
 2063W        W66883  43.069  20.809  12.064
 2064W        W66884  16.791   3.824   3.594
 2065W        W66885  25.112  13.877   2.811
 2066W        W66886  24.001  31.605  12.020
 2067W        W66887  43.901  29.535  14.447
 2068W        W66888  16.556  23.669  11.576
 2069W        W66889  25.693  42.578  11.152
 2070W        W66890   4.859  26.056  14.282
 2071W        W66891  41.520  22.973   3.376
 2072W        W66892  42.695  23.515   1.842
 2073W        W66893   9.896  24.869   1.371
 2074W        W66894  14.183  39.777   1.372
 2075W        W66895  33.675   0.758   2.220
 2076W        W66896  36.053   8.219   1.020
 2077W        W66897  10.690  22.679   3.289
 2078W        W66898  38.878  37.198   4.675
 2079W        W66899  19.201  39.952   0.913
 2080W        W66900  41.002  39.365  14.263
 2081W        W66901  33.018  14.559   5.494
 2082W        W66902   8.617  39.889  13.481
 2083W        W66903  44.253  29.893  10.901
 2084W        W66904  33.045   6.922   0.103
 2085W        W66905  27.397   1.772   1.484
 2086W        W66906   9.126  31.610   3.316
 2087W        W66907  15.619  16.302  12.297
 2088W        W66908  26.525  23.143  14.369
 2089W        W66909   7.329   7.128   3.841
 2090W        W66910  22.537  13.723  14.350
 2091W        W66911  27.112  17.352  13.554
 2092W        W66912   4.161  22.501   1.420
 2093W        W66913  22.950   8.935   0.284
 2094W        W66914  32.413  10.782   2.709
 2095W        W66915  13.341  28.707  14.856
 2096W        W66916  27.540  31.646   1.438
 2097W        W66917  37.432  41.764  14.985
 2098W        W66918  20.791  22.519   0.038
 2099W        W66919  27.669   3.883   4.111
 2100W        W66920  17.523  33.067   3.075
 2101W        W66921  41.314  25.899   2.193
 2102W        W66922  17.089  15.909  10.439
 2103W        W66923  17.336  35.012   0.390
 2104W        W66924  10.225  17.628   2.820
 2105W        W66925   4.435  23.569  12.923
 2106W        W66926   5.326  36.001  14.816
 2107W        W66927   9.575  22.921  12.158
 2108W        W66928   4.860   4.259   1.197
 2109W        W66929  26.128  44.356   2.311
 2110W        W66930  23.017  33.906  14.973
 2111W        W66931  28.717   8.891  11.485
 2112W        W66932  20.787  15.336  14.523
 2113W        W66933  36.037  31.891  12.450
 2114W        W66934  34.375  20.915  11.994
 2115W        W66935  37.810   1.891  13.449
 2116W        W66936  22.697  10.183   4.507
 2117W        W66937  42.018   6.823  12.422
 2118W        W66938  20.770   5.083   1.711
 2119W        W66939  35.789  21.499  13.431
 2120W        W66940  43.334  19.230   3.310
 2121W        W66941  32.486  31.075   1.195
 2122W        W66942   7.170  21.635  12.063
 2123W        W66943   0.237  28.840  14.392
 2124W        W66944  39.614  19.089   2.608
 2125W        W66945   8.221   0.505   4.937
 2126W        W66946   6.355  32.352  14.843
 2127W        W66947   3.668  28.142  11.048
 2128W        W66948  12.748  15.151  13.816
 2129W        W66949  32.891  34.878   2.361
 2130W        W66950  29.480   8.174   2.319
 2131W        W66951  30.982   2.828   2.250
 2132W        W66952  16.667   9.846   4.709
 2133W        W66953  32.733  42.356  12.868
 2134W        W66954  16.371  23.518  12.461
 2135W        W66955  16.595  21.711  12.929
 2136W        W66956  44.505  13.710  11.581
 2137W        W66957  42.330  20.745   1.109
 2138W        W66958  38.252  44.604   2.626
 2139W        W66959  22.247  33.910  12.908
 2140W        W66960  14.636  25.478   3.675
 2141W        W66961  21.769  40.079   4.090
 2142W        W66962  26.248  13.269   2.410
 2143W        W66963  20.635  28.492   0.463
 2144W        W66964  23.846  10.785  11.944
 2145W        W66965   0.867  13.712  10.581
 2146W        W66966  32.582  29.025   1.952
 2147W        W66967   2.716  11.131   2.385
 2148W        W66968  16.701  41.434  10.670
 2149W        W66969  34.198  42.754   3.811
 2150W        W66970   0.084   3.538  13.997
 2151W        W66971   8.282  14.381  13.013
 2152W        W66972   6.504   9.256  11.765
 2153W        W66973  19.862   9.449   1.347
 2154W        W66974  26.626  28.450  11.099
 2155W        W66975  13.407  40.002  11.988
 2156W        W66976  44.211  25.728   0.846
 2157W        W66977  20.331   1.924  14.470
 2158W        W66978  42.900  38.099   1.877
 2159W        W66979   4.936  19.295   3.270
 2160W        W66980  28.332  36.412  14.755
 2161W        W66981  21.085  39.008  11.183
 2162W        W66982  20.051  23.346   1.190
 2163W        W66983  30.415   5.432   3.628
 2164W        W66984  39.386  29.591  14.901
 2165W        W66985  31.428   1.428   2.234
 2166W        W66986  19.130  13.291   0.029
 2167W        W66987  33.607  30.044   4.247
 2168W        W66988  16.044  40.366   4.177
 2169W        W66989  39.439  30.115   2.249
 2170W        W66990   4.654  15.607  10.748
 2171W        W66991  18.567   3.076   3.591
 2172W        W66992  44.039  14.768  13.991
 2173W        W66993   5.854  22.045  14.952
 2174W        W66994   6.255   1.806   3.115
 2175W        W66995  43.468   4.316   0.079
 2176W        W66996  25.232  37.975   0.208
 2177W        W66997  42.755  10.870  13.941
 2178W        W66998  30.597  21.142   2.789
 2179W        W66999   1.333   0.451  10.665
 2180W        W67000  18.299   5.321  14.875
 2181W        W67001  31.565  17.183   3.208
 2182W        W67002  25.053  34.215   3.717
 2183W        W67003  16.217  11.166   0.184
 2184W        W67004  39.727   0.524  12.516
 2185W        W67005  17.138  38.656   4.144
 2186W        W67006  37.026  36.869   3.845
 2187W        W67007  11.931  35.078  11.247
 2188W        W67008  14.652  32.666  13.779
 2189W        W67009   0.708  38.357  10.943
 2190W        W67010  31.991  24.515   3.226
 2191W        W67011  24.043  20.289   0.477
 2192W        W67012  13.536   3.176   3.166
 2193W        W67013   5.437  11.413  13.319
 2194W        W67014  28.669  43.828  11.556
 2195W        W67015  41.926  32.800   4.129
 2196W        W67016  13.035  24.714   3.327
 2197W        W67017  24.500  13.122  12.874
 2198W        W67018  14.089  34.644  14.389
 2199W        W67019  27.636  10.632   2.300
 2200W        W67020  42.440  24.442   0.474
 2201W        W67021  41.036   3.885  13.971
 2202W        W67022  27.543  10.531  11.166
 2203W        W67023  11.115  38.012  14.461
 2204W        W67024  30.596  41.816  12.398
 2205W        W67025  28.254  38.833   3.055
 2206W        W67026  43.918   8.910  14.004
 2207W        W67027  17.173  22.484   4.263
 2208W        W67028  14.826  19.717  14.729
 2209W        W67029  28.581  32.633   0.412
 2210W        W67030   8.889  34.605   0.338
 2211W        W67031  34.124  10.895  10.601
 2212W        W67032   4.399  35.578   1.212
 2213W        W67033  24.798  44.072   4.256
 2214W        W67034  25.116  17.811  10.259
 2215W        W67035  36.539  41.428   1.307
 2216W        W67036  36.450  21.005   1.280
 2217W        W67037   2.452  33.181  13.337
 2218W        W67038  35.365  25.944   2.245
 2219W        W67039  43.861  30.426   0.439
 2220W        W67040  35.782  29.990  12.296
 2221W        W67041   1.839  27.525   2.766
 2222W        W67042  24.785  21.573   2.834
 2223W        W67043  32.026  44.386   0.795
 2224W        W67044   9.703   1.145  13.291
 2225W        W67045  20.274  41.215  13.409
 2226W        W67046  44.665   9.945  10.656
 2227W        W67047  41.008  42.411  11.673
 2228W        W67048  38.258  35.005   0.710
 2229W        W67049  12.168  41.827  13.389
 2230W        W67050  43.974  34.877  13.594
 2231W        W67051  42.369  44.572  14.492
 2232W        W67052   4.539   1.864  11.681
 2233W        W67053  31.177  41.442   4.575
 2234W        W67054  22.814  36.682   2.135
 2235W        W67055   0.026   6.858   3.139
 2236W        W67056  11.639  37.122  10.928
 2237W        W67057  16.103   6.360  11.584
 2238W        W67058  34.706  12.555   4.063
 2239W        W67059  30.185  34.346   4.606
 2240W        W67060  10.827  35.077   3.185
 2241W        W67061   6.530  11.840  11.850
 2242W        W67062  15.139  38.274  11.472
 2243W        W67063  37.642  25.701  12.468
 2244W        W67064  39.955  32.994  13.489
 2245W        W67065  20.810  19.729  10.947
 2246W        W67066  34.058  40.364   3.299
 2247W        W67067  24.775  31.406  14.864
 2248W        W67068  26.973   1.925  13.544
 2249W        W67069   4.428  20.486  12.412
 2250W        W67070   3.762   1.460  14.879
 2251W        W67071  17.958  38.682   4.637
 2252W        W67072  18.571  34.880   0.902
 2253W        W67073  10.989  38.020  11.108
 2254W        W67074  41.446  33.000  13.472
 2255W        W67075  26.384  34.563  13.378
 2256W        W67076  32.918  43.196  12.435
 2257W        W67077  44.179  32.835  11.236
 2258W        W67078  42.154  29.728   4.181
 2259W        W67079  23.741  29.719  14.449
 2260W        W67080  37.050  19.500  13.937
 2261W        W67081  38.915  40.388   0.933
 2262W        W67082  10.230   0.900  10.749
 2263W        W67083  42.283  11.757  13.950
 2264W        W67084  26.362  25.749  10.649
 2265W        W67085  13.546   6.705   0.806
 2266W        W67086  19.139  30.172   2.729
 2267W        W67087  19.243  23.466  14.397
 2268W        W67088  13.921  37.289  11.569
 2269W        W67089   5.858   2.401   4.490
 2270W        W67090  22.953  26.218   2.555
 2271W        W67091   2.578  42.656  11.600
 2272W        W67092   8.788  30.520   2.234
 2273W        W67093  37.368  35.549  12.002
 2274W        W67094  21.716  32.075   3.561
 2275W        W67095  19.709   3.710  10.736
 2276W        W67096  11.678   4.318   2.144
 2277W        W67097  23.505  32.650   0.431
 2278W        W67098  38.968  11.122  13.991
 2279W        W67099  29.475  39.528   3.524
 2280W        W67100  32.595  16.645  12.112
 2281W        W67101  27.712   0.535  14.966
 2282W        W67102   1.673  42.397   2.944
 2283W        W67103  33.107  25.138  14.032
 2284W        W67104  41.113   8.908   3.586
 2285W        W67105  24.411  28.257  14.126
 2286W        W67106  39.957  17.141   1.802
 2287W        W67107  19.397  15.125   4.548
 2288W        W67108  21.980  41.392   2.608
 2289W        W67109  25.467  18.163  11.503
 2290W        W67110  43.873   4.911   0.195
 2291W        W67111  42.794  27.714   0.685
 2292W        W67112  42.067   9.867  12.040
 2293W        W67113   5.453  29.475   4.059
 2294W        W67114  33.051  30.018  14.562
 2295W        W67115  26.096  40.844  13.532
 2296W        W67116  40.159  29.028   0.001
 2297W        W67117  22.193  26.256  13.418
 2298W        W67118  44.088  42.365   4.460
 2299W        W67119   5.107  44.109   1.937
 2300W        W67120  11.877  37.065  13.973
 2301W        W67121   3.535  29.012  11.685
 2302W        W67122  24.244  12.346  11.515
 2303W        W67123  31.728   8.211  12.590
 2304W        W67124  38.989   3.228  13.348
 2305W        W67125  19.174  29.415   1.623
 2306W        W67126   4.803  13.863  11.600
 2307W        W67127  39.771  18.070   1.781
 2308W        W67128  29.480  40.538   4.541
 2309W        W67129  10.977  36.367  13.448
 2310W        W67130  12.352  42.054   3.930
 2311W        W67131  37.188  38.562   0.334
 2312W        W67132  24.585   4.444   3.398
 2313W        W67133   3.212  30.982  11.961
 2314W        W67134  17.245   7.107   4.164
 2315W        W67135  25.173  17.692   3.700
 2316W        W67136  22.920  37.178   2.178
 2317W        W67137  15.462   8.736   1.313
 2318W        W67138  15.515   0.389  14.728
 2319W        W67139  20.566  29.694   4.410
 2320W        W67140  37.956  40.221  11.671
 2321W        W67141  12.342  17.768   3.585
 2322W        W67142  11.429   8.474  12.453
 2323W        W67143  26.736  36.366  11.570
 2324W        W67144  26.599   2.541  11.493
 2325W        W67145  38.862   5.916   4.177
 2326W        W67146  27.206  28.188   3.206
 2327W        W67147  39.103   5.082   2.734
 2328W        W67148  26.606   4.618   1.868
 2329W        W67149  22.580   8.757   3.784
 2330W        W67150  28.018  39.801   4.631
 2331W        W67151  30.781  16.428  11.557
 2332W        W67152   0.526  10.238   1.792
 2333W        W67153  11.199   1.378  13.107
 2334W        W67154  44.217   8.198  11.410
 2335W        W67155  34.275  25.558   5.032
 2336W        W67156  30.282  44.399  13.115
 2337W        W67157  31.392  11.159  14.959
 2338W        W67158  30.569   7.437   2.317
 2339W        W67159  44.234   5.916  14.845
 2340W        W67160  38.225   9.582  11.716
 2341W        W67161  25.940  42.540   1.774
 2342W        W67162  27.981   1.360  11.089
 2343W        W67163  29.160  20.754  14.869
 2344W        W67164   2.872  33.699   0.001
 2345W        W67165  16.862  34.993   5.055
 2346W        W67166  20.701   1.424   3.266
 2347W        W67167  18.702  26.198   0.516
 2348W        W67168   0.246   3.494  14.502
 2349W        W67169  32.169  17.687  11.682
 2350W        W67170  39.932   0.512  11.649
 2351W        W67171  29.136  19.356   0.790
 2352W        W67172  20.485  29.025  12.588
 2353W        W67173  29.481  19.920  11.082
 2354W        W67174  23.879  21.614   4.478
 2355W        W67175  36.607  35.304   3.471
 2356W        W67176  12.402  28.961   3.748
 2357W        W67177   0.319  10.787   0.499
 2358W        W67178  31.157  41.410   4.049
 2359W        W67179  14.540  20.348   4.546
 2360W        W67180  21.738  16.758  11.288
 2361W        W67181  10.919  29.817  11.851
 2362W        W67182   2.712  36.162  13.027
 2363W        W67183  42.517   8.624  13.848
 2364W        W67184  10.992  14.929  13.708
 2365W        W67185   1.954   2.886   2.795
 2366W        W67186   4.450  24.403  13.809
 2367W        W67187  21.054  32.130  13.964
 2368W        W67188  38.966   3.963  11.441
 2369W        W67189  26.014   0.446   0.276
 2370W        W67190   8.612  36.812  11.651
 2371W        W67191  37.489  38.465   3.079
 2372W        W67192  12.860  25.621  14.417
 2373W        W67193  25.647   8.811   0.324
 2374W        W67194  30.738   6.265  11.162
 2375W        W67195  18.444  17.418   1.342
 2376W        W67196   1.265  33.522   4.335
 2377W        W67197   1.803  39.462  13.150
 2378W        W67198  15.608  37.063   9.881
 2379W        W67199  29.497  17.493   5.026
 2380W        W67200  35.946  43.343  12.859
 2381W        W67201  37.926  40.318   0.857
 2382W        W67202  37.529  21.722   4.549
 2383W        W67203  25.567  17.283   3.637
 2384W        W67204  29.493  18.683   4.645
 2385W        W67205  29.219  14.824  12.015
 2386W        W67206  37.787  20.276   0.936
 2387W        W67207  26.631  38.749  13.859
 2388W        W67208   4.208  23.685  11.417
 2389W        W67209  32.217  22.746   0.237
 2390W        W67210  43.763  25.310   3.072
 2391W        W67211  25.046   6.387  11.477
 2392W        W67212  10.235  24.813  13.644
 2393W        W67213  16.308  30.536  13.267
 2394W        W67214  35.745  17.135  10.630
 2395W        W67215   4.741  41.744  10.502
 2396W        W67216  16.464   1.367   0.641
 2397W        W67217  29.371  25.628  14.283
 2398W        W67218  44.333  19.238   4.730
 2399W        W67219  35.127  21.637  11.198
 2400W        W67220  21.535  38.184  12.850
 2401W        W67221  17.655  27.213   2.986
 2402W        W67222  24.595  37.572   3.249
 2403W        W67223  14.386  28.295  11.154
 2404W        W67224  36.358  38.916  12.063
 2405W        W67225  39.319  31.475   3.379
 2406W        W67226  25.414   4.779   4.966
 2407W        W67227  44.235  42.718   0.755
 2408W        W67228  32.424  24.721  13.845
 2409W        W67229  14.815  26.713   2.181
 2410W        W67230   3.588  25.985   0.741
 2411W        W67231  15.097  12.213   3.781
 2412W        W67232  28.227   4.499  10.152
 2413W        W67233  21.069   1.351  14.009
 2414W        W67234  14.136  15.830  12.131
 2415W        W67235  24.579  34.987   4.171
 2416W        W67236   4.402  44.331   4.507
 2417W        W67237   0.891  25.717  12.345
 2418W        W67238  12.686  35.863  14.991
 2419W        W67239  40.376  17.857   1.390
 2420W        W67240  32.912  10.670  14.810
 2421W        W67241  21.242  28.757  11.591
 2422W        W67242  30.084  17.292   4.622
 2423W        W67243  27.138  23.161  10.563
 2424W        W67244   8.879  13.183  12.677
 2425W        W67245  17.993  37.400  12.033
 2426W        W67246   0.866   4.751  12.972
 2427W        W67247  22.999  31.084   4.149
 2428W        W67248  25.453  27.624   2.659
 2429W        W67249  22.602  23.957  14.414
 2430W        W67250  25.782   2.573  10.821
 2431W        W67251  33.385  35.862  12.121
 2432W        W67252  40.956   2.031   3.221
 2433W        W67253   8.940  29.624   4.060
 2434W        W67254   8.696  43.852  14.211
 2435W        W67255  21.983  42.581  12.544
 2436W        W67256  38.283  29.119   2.918
 2437W        W67257  15.083  29.066  12.455
 2438W        W67258  10.268  26.915  14.319
 2439W        W67259  16.686  10.193   4.320
 2440W        W67260  37.430  12.403  12.048
 2441W        W67261  21.099  31.471   3.298
 2442W        W67262  26.699  33.566  13.375
 2443W        W67263   9.279  26.165  14.810
 2444W        W67264   1.768  21.844  13.126
 2445W        W67265  15.826  22.631  12.097
 2446W        W67266   9.833  44.133  10.428
 2447W        W67267  22.478  29.604  11.555
 2448W        W67268   4.371   3.480   0.270
 2449W        W67269  25.441   2.386  14.800
 2450W        W67270  13.799   3.809  10.702
 2451W        W67271  44.042   8.985   0.404
 2452W        W67272  25.960  42.946   1.411
 2453W        W67273  24.266  23.600   1.868
 2454W        W67274  31.214  24.922   1.572
 2455W        W67275  16.227  35.290   2.348
 2456W        W67276  29.435  36.654  12.118
 2457W        W67277   1.287   2.632  11.548
 2458W        W67278  41.359   0.640  12.240
 2459W        W67279  26.120  37.997   4.246
 2460W        W67280  43.055   5.718  12.104
 2461W        W67281  22.138  29.394  11.243
 2462W        W67282  10.659  11.905   1.394
 2463W        W67283  32.137  33.711  11.742
 2464W        W67284  21.646  24.770   2.178
 2465W        W67285  37.500  27.466   0.903
 2466W        W67286  31.648  42.249  11.899
 2467W        W67287  44.418  33.159   0.155
 2468W        W67288  40.510   2.818  14.222
 2469W        W67289   3.692  24.446   5.003
 2470W        W67290  43.086  40.003  10.905
 2471W        W67291  37.824  29.226   3.719
 2472W        W67292  20.801  16.294   0.156
 2473W        W67293  11.226   5.549  10.598
 2474W        W67294   2.992  15.616  11.635
 2475W        W67295  23.805  34.019   1.689
 2476W        W67296  13.768  30.929   2.864
 2477W        W67297   1.756  33.492   1.325
 2478W        W67298  13.625  31.339   2.217
 2479W        W67299  43.962   2.480   3.739
 2480W        W67300  43.156  18.320  12.792
 2481W        W67301   4.936  20.588  12.489
 2482W        W67302  37.463  35.448   4.125
 2483W        W67303  15.923  25.819   0.830
 2484W        W67304  32.968  15.087   2.711
 2485W        W67305  24.555  31.873   2.285
 2486W        W67306   0.809  30.044   1.380
 2487W        W67307  13.120  37.253   3.091
 2488W        W67308   2.691   2.077   3.849
 2489W        W67309  14.824   0.893  12.827
 2490W        W67310   9.587  28.448  13.970
 2491W        W67311   8.054   7.664  13.088
 2492W        W67312  25.276  16.730   4.616
 2493W        W67313  27.970   1.964  10.401
 2494W        W67314  19.732  36.143   2.276
 2495W        W67315  39.528  30.319  14.517
 2496W        W67316  31.144  12.324   1.343
 2497W        W67317   2.972  20.509   3.762
 2498W        W67318   6.873   9.388   3.542
 2499W        W67319  25.252  35.325  12.918
 2500W        W67320  32.224  34.944  12.170
 2501W        W67321  39.553  38.362  14.417
 2502W        W67322  30.530   0.989   3.236
 2503W        W67323  42.489  22.524  14.260
 2504W        W67324  16.232  36.778   2.753
 2505W        W67325  29.324  29.119  11.605
 2506W        W67326  32.149   7.213  12.526
 2507W        W67327  33.027  18.523  12.567
 2508W        W67328  27.144  17.682   3.708
 2509W        W67329   6.452  13.651  10.312
 2510W        W67330  42.872  23.104  14.761
 2511W        W67331  24.757  42.558   0.485
 2512W        W67332  39.804  44.500  11.632
 2513W        W67333  29.441  30.542  12.181
 2514W        W67334  16.552  40.038  11.607
 2515W        W67335  37.996  16.127   2.119
 2516W        W67336   3.923   2.363   3.421
 2517W        W67337  25.590  32.424  12.273
 2518W        W67338  39.548  30.060  12.197
 2519W        W67339  17.785   6.641  12.534
 2520W        W67340  24.571  26.015   4.876
 2521W        W67341  14.570   9.046  14.074
 2522W        W67342  17.540  25.853   4.150
 2523W        W67343  32.629  17.810   0.727
 2524W        W67344  10.494  39.542  11.961
 2525W        W67345  16.206   3.150  14.395
 2526W        W67346   8.584  17.131   5.065
 2527W        W67347  22.592  27.484   2.752
 2528W        W67348  18.568  18.325   4.617
 2529W        W67349  26.913   0.272  10.327
 2530W        W67350  30.089   7.774   1.547
 2531W        W67351  32.141  19.153  11.098
 2532W        W67352  21.948  15.794   3.139
 2533W        W67353  29.507   4.666  13.934
 2534W        W67354   6.831  24.710  12.962
 2535W        W67355  29.083  25.867   0.840
 2536W        W67356   4.306  19.138   0.017
 2537W        W67357   0.306   4.735  10.697
 2538W        W67358  11.908  19.798   1.773
 2539W        W67359  18.712  38.318  14.881
 2540W        W67360  28.773   4.689   0.654
 2541W        W67361  23.043   8.428  13.944
 2542W        W67362  20.574  28.821   4.082
 2543W        W67363   3.764  35.937   3.658
 2544W        W67364   3.361  27.469  13.552
 2545W        W67365  21.324  26.298  13.969
 2546W        W67366  27.571  18.338  12.053
 2547W        W67367  32.546  17.214   2.455
 2548W        W67368   3.893  44.771   1.372
 2549W        W67369  22.777  26.567  14.955
 2550W        W67370  29.592   6.295   4.654
 2551W        W67371  38.927  29.594  10.671
 2552W        W67372   2.251   1.214  14.033
 2553W        W67373  18.596  35.417   4.657
 2554W        W67374  10.285  38.641  10.571
 2555W        W67375  22.756  31.234   3.717
 2556W        W67376  31.894   8.396   0.341
 2557W        W67377  19.308   1.494  12.555
 2558W        W67378  38.530  36.973   2.007
 2559W        W67379  23.753  28.530  12.970
 2560W        W67380  18.959  13.094   3.464
 2561W        W67381  29.971   6.907   4.871
 2562W        W67382  22.516   1.647   3.150
 2563W        W67383  29.022  30.437  11.478
 2564W        W67384  36.956  18.529   0.904
 2565W        W67385  44.208   8.423  11.883
 2566W        W67386  40.769  39.603  12.964
 2567W        W67387  14.746  13.313   2.195
 2568W        W67388  20.258  13.400  13.302
 2569W        W67389  34.942  17.006  13.004
 2570W        W67390  11.911   0.423   4.028
 2571W        W67391  38.931  15.819   4.740
 2572W        W67392  22.020  36.148   4.640
 2573W        W67393  44.371  34.899   3.606
 2574W        W67394  26.057  14.585   1.710
 2575W        W67395  37.597   3.635   1.724
 2576W        W67396  43.034  43.924  11.971
 2577W        W67397  36.175  39.406   4.940
 2578W        W67398  11.421  13.560  11.662
 2579W        W67399  11.541   8.498   1.887
 2580W        W67400   3.309   1.990   0.411
 2581W        W67401  31.535  41.082  14.285
 2582W        W67402  34.486  33.990  10.498
 2583W        W67403  21.002  30.488  11.641
 2584W        W67404   9.205  44.897  11.301
 2585W        W67405  24.465  29.872   4.694
 2586W        W67406  16.094  17.228   4.033
 2587W        W67407   9.140  33.014   1.870
 2588W        W67408  21.467  16.645   2.362
 2589W        W67409  32.924  40.571   2.435
 2590W        W67410  22.171  15.000  14.519
 2591W        W67411   8.313  10.639   3.348
 2592W        W67412  42.072  15.305  11.510
 2593W        W67413   4.812   9.906  14.651
 2594W        W67414   5.406  27.381  13.995
 2595W        W67415  17.323  34.141  14.139
 2596W        W67416  28.780  22.886   4.886
 2597W        W67417  16.862   1.101  13.404
 2598W        W67418   8.173  24.657   5.004
 2599W        W67419  23.710  15.293   4.619
 2600W        W67420   7.626  32.452   4.333
 2601W        W67421  43.331  10.909  11.891
 2602W        W67422   6.996  38.616   4.069
 2603W        W67423   8.908  33.575  10.860
 2604W        W67424  37.774  19.138  12.871
 2605W        W67425  12.346   8.845  14.063
 2606W        W67426  39.467  34.510   3.153
 2607W        W67427  29.457  12.605  14.281
 2608W        W67428  44.402  18.047  14.075
 2609W        W67429  21.182   6.833  10.360
 2610W        W67430  29.683  40.122  12.835
 2611W        W67431  36.458  28.848  11.162
 2612W        W67432  22.441   1.814   0.769
 2613W        W67433   4.876  21.063  13.721
 2614W        W67434  22.502   2.148  13.290
 2615W        W67435  41.864  13.696  10.697
 2616W        W67436  30.236  11.562   3.280
 2617W        W67437  15.726  12.186  12.743
 2618W        W67438  44.207  12.354  13.972
 2619W        W67439  11.134  26.087  11.973
 2620W        W67440  21.281   2.463  14.457
 2621W        W67441  43.019   0.345  12.176
 2622W        W67442  12.579  20.498  14.304
 2623W        W67443  13.160  29.986   2.471
 2624W        W67444   1.304  12.851   4.774
 2625W        W67445  40.547   9.611   2.085
 2626W        W67446  41.432  43.494  12.853
 2627W        W67447  11.775  18.825   1.951
 2628W        W67448  43.581  35.561   1.426
 2629W        W67449   6.414   5.847   1.014
 2630W        W67450  30.071  10.717   3.592
 2631W        W67451  43.368   5.229   3.775
 2632W        W67452  37.531  36.541  13.497
 2633W        W67453   4.725  38.901  12.767
 2634W        W67454  29.639  17.147   0.019
 2635W        W67455  24.558  41.014   2.490
 2636W        W67456  34.365  33.531  11.791
 2637W        W67457  37.295   0.692   3.641
 2638W        W67458  22.594  33.576   0.711
 2639W        W67459  35.506  37.605  12.031
 2640W        W67460  17.018   1.598  13.594
 2641W        W67461  30.099   6.780   2.451
 2642W        W67462  30.002  25.470  14.968
 2643W        W67463  33.099  31.178   3.645
 2644W        W67464  43.556  29.636   2.189
 2645W        W67465   2.003  29.096  14.153
 2646W        W67466  17.028  36.615   1.932
 2647W        W67467  44.790  34.871   3.306
 2648W        W67468  38.728  14.519  10.274
 2649W        W67469  17.520  12.763   1.789
 2650W        W67470  23.611  37.656  13.497
 2651W        W67471  38.212  43.611   0.880
 2652W        W67472  11.215  42.315  10.663
 2653W        W67473  21.895  13.091   2.273
 2654W        W67474  32.227  22.179   4.241
 2655W        W67475  17.704  22.422  14.301
 2656W        W67476  35.556  24.472  10.688
 2657W        W67477   7.274  31.138   2.243
 2658W        W67478  15.634  16.465   1.824
 2659W        W67479  23.027  24.995   0.045
 2660W        W67480   9.482  23.283   4.233
 2661W        W67481  12.016  30.697   5.455
 2662W        W67482  10.169  34.028  12.011
 2663W        W67483   9.594  15.697  14.305
 2664W        W67484   1.928  23.685   4.552
 2665W        W67485  14.038  40.282  13.489
 2666W        W67486  31.039  44.596   2.366
 2667W        W67487  17.657   2.064   3.541
 2668W        W67488  41.938  40.068   0.397
 2669W        W67489  24.855  35.982  12.998
 2670W        W67490  42.055  19.612  10.708
 2671W        W67491   8.349  26.579   1.970
 2672W        W67492  20.126  15.829   0.675
 2673W        W67493  34.336  12.459   3.709
 2674W        W67494  42.643  29.615   4.183
 2675W        W67495  44.349  44.454  13.309
 2676W        W67496  35.525  22.589  12.632
 2677W        W67497  26.944  22.253   0.517
 2678W        W67498  27.485  26.268   0.181
 2679W        W67499   5.310  31.414  13.792
 2680W        W67500  18.611  26.471   0.065
 2681W        W67501  44.250  43.985  14.051
 2682W        W67502  20.841  37.961   1.956
 2683W        W67503  23.005  17.582   3.293
 2684W        W67504  32.460  43.729  14.870
 2685W        W67505  30.122  27.724   2.514
 2686W        W67506  18.179   2.488   1.703
 2687W        W67507   2.849   7.747  14.499
 2688W        W67508  44.738  17.012  13.801
 2689W        W67509  30.997  40.863  10.584
 2690W        W67510  37.600  12.374  14.355
 2691W        W67511  34.098  19.744   2.881
 2692W        W67512  19.649  26.681  13.534
 2693W        W67513  19.074  42.583   2.812
 2694W        W67514   0.722   3.719   3.072
 2695W        W67515  28.154  27.035  10.481
 2696W        W67516   8.709  43.120   4.934
 2697W        W67517  20.786  33.237  13.351
 2698W        W67518  12.807  28.189  11.491
 2699W        W67519  20.199  23.207   1.659
 2700W        W67520  22.608  30.392  10.653
 2701W        W67521  11.586  44.869  12.993
 2702W        W67522  32.374   6.904   2.135
 2703W        W67523  31.411  43.061  11.495
 2704W        W67524  11.219  26.986   2.468
 2705W        W67525   9.891   3.489  14.255
 2706W        W67526  44.797  17.610  11.984
 2707W        W67527  30.082  32.553  11.670
 2708W        W67528  11.115   9.378  14.212
 2709W        W67529  11.390  32.382   1.858
 2710W        W67530  43.897  32.826  12.924
 2711W        W67531  37.255  26.995  13.432
 2712W        W67532  41.019  26.813  12.592
 2713W        W67533   7.666  32.372   3.293
 2714W        W67534  41.561  12.294  11.893
 2715W        W67535  31.537  18.038   4.134
 2716W        W67536  23.823  30.884   2.293
 2717W        W67537  44.044   0.029   1.277
 2718W        W67538  20.667   9.235  12.807
 2719W        W67539  41.610  21.191   0.412
 2720W        W67540  10.396  35.056   4.241
 2721W        W67541  16.871  11.889   1.107
 2722W        W67542  26.573  11.367  10.720
 2723W        W67543  39.491  17.281   0.596
 2724W        W67544  14.744  36.091   0.743
 2725W        W67545  23.909  38.557  10.546
 2726W        W67546  41.067  11.330   0.263
 2727W        W67547  31.607  37.296  12.782
 2728W        W67548  10.866  38.314   4.602
 2729W        W67549  22.410   2.499  12.879
 2730W        W67550  27.488   9.129  10.586
 2731W        W67551  40.452  32.373  10.554
 2732W        W67552  22.091   0.428   2.761
 2733W        W67553  20.753  31.986  11.804
 2734W        W67554  37.919  32.480  13.033
 2735W        W67555  37.060  35.793  12.889
 2736W        W67556  12.828  26.532  12.250
 2737W        W67557  17.067   9.655  11.337
 2738W        W67558  11.088  35.522   0.785
 2739W        W67559  28.927  20.508   5.514
 2740W        W67560  37.083  42.324   2.397
 2741W        W67561  39.808   1.464  13.984
 2742W        W67562  20.819   8.505  13.838
 2743W        W67563  10.807  44.881  13.467
 2744W        W67564  13.032  12.157   1.388
 2745W        W67565   4.377   1.928  13.496
 2746W        W67566   1.415  34.942   2.445
 2747W        W67567  33.944  34.622  10.739
 2748W        W67568  38.908  19.857  12.992
 2749W        W67569  17.624  16.764   1.681
 2750W        W67570  44.285  40.108  12.412
 2751W        W67571  11.681  18.618   2.395
 2752W        W67572  27.271  20.675   1.306
 2753W        W67573   9.309  41.569   4.857
 2754W        W67574  44.824  31.897   0.744
 2755W        W67575  14.239  28.967  10.454
 2756W        W67576  30.100  39.179   0.275
 2757W        W67577   3.480  14.048  14.375
 2758W        W67578  19.202  19.736   4.083
 2759W        W67579  19.754  31.839  11.869
 2760W        W67580  40.035  31.312  11.171
 2761W        W67581  32.012  29.116  10.712
 2762W        W67582  27.259  19.619   2.162
 2763W        W67583  33.438  22.477   3.768
 2764W        W67584  43.744  10.130  14.785
 2765W        W67585  33.421  17.394   3.094
 2766W        W67586  12.641  35.135   3.295
 2767W        W67587   2.584  37.806  12.494
 2768W        W67588  33.188   2.262   0.798
 2769W        W67589  22.400  41.262  10.565
 2770W        W67590  42.415  12.024   3.652
 2771W        W67591   9.848  24.480  10.889
 2772W        W67592  19.812  39.604  10.634
 2773W        W67593  29.048  24.640   4.881
 2774W        W67594  21.601  29.826  12.639
 2775W        W67595  22.604   2.872  10.915
 2776W        W67596  36.770  27.420   2.463
 2777W        W67597  27.526  42.952  10.708
 2778W        W67598  42.517  25.054  10.775
 2779W        W67599  28.184  12.232  12.036
 2780W        W67600  30.659  12.472  10.655
 2781W        W67601   4.419  31.197  11.179
 2782W        W67602  39.156  41.064  12.653
 2783W        W67603  29.417  39.023   3.729
 2784W        W67604  23.298  18.386   1.980
 2785W        W67605  18.503   1.235   1.261
 2786W        W67606  39.786   4.547   1.511
 2787W        W67607  20.781   7.487  13.871
 2788W        W67608  28.348   2.370   4.079
 2789W        W67609  24.657   4.359  12.192
 2790W        W67610  24.515  17.995  14.456
 2791W        W67611  31.838  38.567  11.553
 2792W        W67612  28.737  26.817   3.431
 2793W        W67613  18.076   4.802   2.714
 2794W        W67614  17.700  38.576   5.507
 2795W        W67615  35.986  35.937   2.063
 2796W        W67616  42.451  35.372   0.391
 2797W        W67617  14.070  32.394   2.615
 2798W        W67618  32.144  21.599  13.091
 2799W        W67619   2.475   4.409  12.559
 2800W        W67620  29.635  10.466  10.356
 2801W        W67621   6.644  15.854   4.069
 2802W        W67622   8.948  29.184  13.834
 2803W        W67623   4.924  26.296   3.743
 2804W        W67624  41.265   4.006  11.175
 2805W        W67625  36.369  18.619   0.428
 2806W        W67626  38.561  14.810   0.970
 2807W        W67627  23.584  13.776  14.275
 2808W        W67628  15.140  19.239  12.916
 2809W        W67629  14.742  31.081   2.865
 2810W        W67630   0.449   5.445   1.346
 2811W        W67631  39.363  26.544  12.800
 2812W        W67632  42.277  25.966   2.163
 2813W        W67633  38.792  44.845  14.325
 2814W        W67634   8.492  29.585  14.927
 2815W        W67635  34.818  31.211   1.352
 2816W        W67636  18.572  18.308   2.738
 2817W        W67637  39.672  15.248  11.222
 2818W        W67638   8.299   3.213   1.717
 2819W        W67639   1.888   3.678  13.952
 2820W        W67640  25.205  10.332   0.427
 2821W        W67641  43.916   9.948  13.960
 2822W        W67642  37.462   4.656   3.656
 2823W        W67643   3.729  22.662  12.725
 2824W        W67644   5.799  18.848  13.001
 2825W        W67645  21.794  14.284   4.449
 2826W        W67646  31.428  43.810  14.086
 2827W        W67647  23.240  14.597  11.418
 2828W        W67648  35.957  15.258   0.973
 2829W        W67649  42.017   6.172  12.926
 2830W        W67650  32.071   1.164  11.742
 2831W        W67651   2.382  16.002   9.958
 2832W        W67652  16.666  22.474   0.088
 2833W        W67653  35.071  20.861   0.203
 2834W        W67654   6.573   7.478  14.833
 2835W        W67655  10.382   5.723   1.704
 2836W        W67656  42.533  17.400   2.818
 2837W        W67657  24.560  35.328   4.569
 2838W        W67658  41.782  19.078   1.773
 2839W        W67659  30.452  25.486  12.568
 2840W        W67660  28.448  10.371  11.970
 2841W        W67661   1.711  12.295   4.117
 2842W        W67662  23.435  17.997   3.360
 2843W        W67663  15.137  23.672  10.882
 2844W        W67664  29.543   0.982   0.249
 2845W        W67665   6.344  21.732  11.585
 2846W        W67666  33.420  22.565   4.980
 2847W        W67667   1.800   7.912  12.054
 2848W        W67668   8.784  26.920   1.357
 2849W        W67669   5.203   6.619  14.618
 2850W        W67670  18.613  31.140   2.364
 2851W        W67671  33.835  43.712   1.493
 2852W        W67672   7.846  22.780  13.465
 2853W        W67673  33.809  28.146   3.697
 2854W        W67674  37.617  11.778  12.680
 2855W        W67675  20.733  29.595   3.395
 2856W        W67676  41.254  41.535  11.650
 2857W        W67677  41.718  27.485  11.096
 2858W        W67678  35.539  33.110   4.115
 2859W        W67679   1.947  28.608   2.700
 2860W        W67680  21.654  16.696  13.793
 2861W        W67681   6.533  43.781   3.076
 2862W        W67682   4.171  24.665   0.462
 2863W        W67683  10.594   8.881   3.255
 2864W        W67684  25.141  32.933   2.365
 2865W        W67685  21.691   9.599   1.252
 2866W        W67686  32.240  11.091  13.386
 2867W        W67687   5.413  29.984   4.850
 2868W        W67688  12.215  40.152   3.382
 2869W        W67689  11.274   5.510  12.160
 2870W        W67690  29.383  17.320   3.789
 2871W        W67691  10.806  10.755  12.981
 2872W        W67692  34.448  26.565   2.272
 2873W        W67693   0.876   6.874  13.062
 2874W        W67694  41.887  35.236  10.627
 2875W        W67695  43.577  23.896   3.303
 2876W        W67696   0.438   2.623  12.226
 2877W        W67697  37.385  24.570  13.244
 2878W        W67698  33.160  17.056  12.557
 2879W        W67699  30.138  36.664  14.519
 2880W        W67700  33.051  25.830  13.382
 2881W        W67701  25.039  15.449  12.906
 2882W        W67702   3.905  15.544   3.845
 2883W        W67703  31.136  39.895  12.884
 2884W        W67704   3.327  38.837  13.841
 2885W        W67705  11.151  15.888  13.414
 2886W        W67706  19.116  16.198   0.412
 2887W        W67707  36.376  23.329   9.854
 2888W        W67708  14.116  44.383   3.196
 2889W        W67709  24.025  36.046   3.210
 2890W        W67710  42.933  12.737  11.064
 2891W        W67711  26.594  20.084  13.628
 2892W        W67712  31.127   5.822   3.476
 2893W        W67713   3.838  29.641   3.305
 2894W        W67714  31.112  32.745  10.653
 2895W        W67715  44.886  37.561  14.423
 2896W        W67716   0.815  28.124   4.882
 2897W        W67717  23.422  22.046  14.486
 2898W        W67718  29.726  41.791   4.149
 2899W        W67719  34.064  34.155   0.382
 2900W        W67720  20.185  41.531  11.542
 2901W        W67721  44.850  27.564  11.523
 2902W        W67722   4.275  44.366   0.729
 2903W        W67723  26.123  16.023   4.624
 2904W        W67724  18.821  44.788   4.776
 2905W        W67725  12.301  24.242  11.621
 2906W        W67726  14.335  32.597  12.838
 2907W        W67727  38.926  11.409  12.189
 2908W        W67728  11.601   5.233  11.056
 2909W        W67729  33.034  19.603  13.524
 2910W        W67730  44.432   0.152   3.119
 2911W        W67731  30.654  23.108  13.505
 2912W        W67732  10.758  21.358  14.834
 2913W        W67733  38.561  43.761  14.879
 2914W        W67734  34.095  44.665   2.782
 2915W        W67735  15.715   4.351   1.830
 2916W        W67736  30.972  23.791   9.787
 2917W        W67737  12.897  35.215  12.038
 2918W        W67738  33.491   9.993  14.869
 2919W        W67739  32.505  36.430   4.629
 2920W        W67740  34.426  16.827   0.952
 2921W        W67741  41.051   1.827   4.095
 2922W        W67742  19.227  15.688   2.806
 2923W        W67743   3.883  24.527   5.480
 2924W        W67744  26.090   6.565  12.367
 2925W        W67745  34.289  40.766   2.672
 2926W        W67746  15.694  18.595  13.161
 2927W        W67747  12.707  27.531  10.239
 2928W        W67748   2.341  37.955   4.889
 2929W        W67749   1.934   0.499   4.522
 2930W        W67750   9.290   2.984  14.629
 2931W        W67751  18.307  40.574  11.556
 2932W        W67752   2.741  22.187   4.829
 2933W        W67753   6.792  35.950  12.948
 2934W        W67754   1.763  16.866  10.719
 2935W        W67755  10.691  25.017  14.791
 2936W        W67756  19.308  22.676   2.405
 2937W        W67757   4.801  18.105   0.871
 2938W        W67758  18.488  34.696   2.209
 2939W        W67759  26.733  26.640  11.606
 2940W        W67760  15.321  27.938  10.716
 2941W        W67761  21.527  11.764  10.908
 2942W        W67762  21.004  39.589  13.485
 2943W        W67763  29.467  42.922   5.280
 2944W        W67764  24.493   0.307  14.118
 2945W        W67765  35.682   9.799  12.053
 2946W        W67766   5.833   5.952   0.220
 2947W        W67767   1.966  12.685  14.344
 2948W        W67768   8.371  15.203  14.084
 2949W        W67769  44.551   6.425  12.916
 2950W        W67770  34.356  21.240  12.385
 2951W        W67771  24.229   7.944   2.176
 2952W        W67772  17.477   9.015  10.544
 2953W        W67773   1.079  32.341  11.680
 2954W        W67774  21.520   1.480   2.332
 2955W        W67775  40.584  38.485  11.533
 2956W        W67776  22.752  42.483  12.979
 2957W        W67777   4.316  11.160   1.460
 2958W        W67778   0.008  44.492   1.422
 2959W        W67779  35.157  28.928  12.160
 2960W        W67780  10.252  24.560  14.094
 2961W        W67781  26.608  17.984   2.596
 2962W        W67782  24.241  17.196   3.674
 2963W        W67783  12.044  25.514   0.963
 2964W        W67784   2.116  25.461  14.949
 2965W        W67785  34.674  20.756  14.692
 2966W        W67786  14.926  43.805  12.493
 2967W        W67787  23.498  28.965  14.968
 2968W        W67788  19.443  33.513  11.279
 2969W        W67789  31.178  19.037  11.078
 2970W        W67790  38.349   9.847  13.358
 2971W        W67791  27.521  39.876  12.263
 2972W        W67792   3.819  42.937   5.041
 2973W        W67793  42.013   2.447  11.457
 2974W        W67794  24.166  15.418   1.471
 2975W        W67795  40.747  12.546  13.661
 2976W        W67796  10.700  32.668   4.429
 2977W        W67797  21.498  23.056  10.777
 2978W        W67798  40.944  31.243   2.595
 2979W        W67799  43.763   5.924   0.181
 2980W        W67800  14.860  23.123   3.547
 2981W        W67801  15.382   8.226  11.205
 2982W        W67802  35.098   9.558   4.539
 2983W        W67803  42.007  37.608   2.444
 2984W        W67804  12.092  14.882  12.344
 2985W        W67805  26.944  27.104  13.599
 2986W        W67806  21.507   6.481  13.078
 2987W        W67807  44.562  10.250  12.206
 2988W        W67808  20.700  42.398   0.948
 2989W        W67809  41.427  16.102  14.541
 2990W        W67810  38.430  33.087   0.350
 2991W        W67811  16.061   0.910  13.847
 2992W        W67812  33.006  16.173  12.479
 2993W        W67813  30.948  29.895   2.351
 2994W        W67814  18.126  34.831   3.663
 2995W        W67815  22.488  25.653   1.017
 2996W        W67816  14.782  23.144   3.044
 2997W        W67817  10.527  29.522  10.288
 2998W        W67818  15.410   5.335  13.074
 2999W        W67819   7.679  12.285   3.715
 3000W        W67820  24.860  26.786   1.746
 3001W        W67821   5.370  27.896  13.934
 3002W        W67822  38.599   0.008  13.886
 3003W        W67823  17.404  17.166  14.909
 3004W        W67824   8.004   3.528  14.400
 3005W        W67825  36.866  26.925   1.662
 3006W        W67826   1.790   8.365   1.369
 3007W        W67827  41.658  20.264  14.492
 3008W        W67828  17.390  34.600  12.858
 3009W        W67829  23.246  39.806   3.785
 3010W        W67830  11.637  23.117  12.061
 3011W        W67831  10.157  36.529  13.745
 3012W        W67832   9.341  37.815   0.848
 3013W        W67833   6.949   9.717   4.399
 3014W        W67834  39.758  12.219  11.102
 3015W        W67835  26.055  37.587  12.042
 3016W        W67836  35.347  28.934   3.468
 3017W        W67837  41.042  13.566   0.643
 3018W        W67838  37.028  36.394  10.923
 3019W        W67839  15.724  38.833   4.057
 3020W        W67840  33.337   4.131  10.661
 3021W        W67841   3.720  41.215  13.010
 3022W        W67842  12.133  16.509   3.397
 3023W        W67843  29.841  44.298  14.404
 3024W        W67844  12.396  42.331  12.109
 3025W        W67845  29.482  26.645  14.887
 3026W        W67846   9.363   2.398  13.799
 3027W        W67847   7.635  25.105  12.111
 3028W        W67848  23.940  24.242   4.613
 3029W        W67849  13.572  32.234   2.100
 3030W        W67850  26.438   9.535  10.026
 3031W        W67851  12.636  16.635   1.176
 3032W        W67852  35.126  23.495  10.797
 3033W        W67853  35.953  32.235  14.903
 3034W        W67854   0.053  18.954   3.284
 3035W        W67855  17.162   5.311  12.476
 3036W        W67856  42.819   0.464   0.722
 3037W        W67857  23.182   5.242   3.768
 3038W        W67858  35.500  42.355  10.687
 3039W        W67859   1.881  35.327  13.564
 3040W        W67860  34.386  31.710  12.079
 3041W        W67861  26.882  34.903   1.496
 3042W        W67862  17.452  34.690   4.604
 3043W        W67863  24.151  22.498  12.019
 3044W        W67864  43.831  22.752  11.398
 3045W        W67865  28.677  36.118  14.990
 3046W        W67866   5.061   1.181  11.624
 3047W        W67867   4.015  15.704  13.279
 3048W        W67868   4.322  28.022   0.367
 3049W        W67869  15.993  16.688   0.907
 3050W        W67870  36.759  40.830   4.152
 3051W        W67871  11.222  15.539   0.270
 3052W        W67872  28.939  32.981   1.754
 3053W        W67873  15.658  22.704  12.594
 3054W        W67874  39.797  42.409   1.305
 3055W        W67875   6.484  13.167   2.602
 3056W        W67876  24.106   0.412  12.013
 3057W        W67877   4.285  24.517   3.093
 3058W        W67878  38.426   8.846  10.378
 3059W        W67879  28.990  40.448   2.368
 3060W        W67880  16.317  13.783  11.167
 3061W        W67881  36.478  36.873  14.831
 3062W        W67882  43.333  34.443  13.163
 3063W        W67883  15.357  35.995  10.102
 3064W        W67884  38.495  34.374   1.442
 3065W        W67885  36.886  14.726  13.443
 3066W        W67886  25.782   4.602  11.945
 3067W        W67887   7.866  41.914  12.873
 3068W        W67888  31.081  32.825   3.728
 3069W        W67889   6.020   2.629  12.900
 3070W        W67890  32.659  13.829  12.195
 3071W        W67891  41.261  22.548   4.117
 3072W        W67892  20.318   5.728   4.487
 3073W        W67893  20.224   9.076   1.357
 3074W        W67894  21.355  37.770   9.577
 3075W        W67895  43.460  24.876  10.853
 3076W        W67896   2.522  29.712   1.323
 3077W        W67897  33.922  21.695  13.385
 3078W        W67898  21.308   9.136   3.535
 3079W        W67899   8.616  21.107  14.538
 3080W        W67900  40.221  19.553  10.694
 3081W        W67901  26.128  15.610  13.666
 3082W        W67902  43.794  23.118  12.964
 3083W        W67903  21.458   3.566  14.215
 3084W        W67904  21.740  24.774  12.321
 3085W        W67905  24.787  33.408   4.626
 3086W        W67906  40.515   9.804  13.376
 3087W        W67907   3.842   8.753  12.841
 3088W        W67908  40.805   5.828  14.890
 3089W        W67909  19.525   7.140  10.574
 3090W        W67910  14.243   5.425  13.625
 3091W        W67911  32.447  10.118   0.897
 3092W        W67912  25.308  41.418   1.395
 3093W        W67913  38.087  15.284   1.765
 3094W        W67914  26.057  14.353   2.603
 3095W        W67915  25.765  40.020  12.971
 3096W        W67916   5.686   5.515  14.011
 3097W        W67917  13.572  10.682  12.582
 3098W        W67918  31.205  27.158  14.675
 3099W        W67919  32.059   3.560   4.985
 3100W        W67920  41.585  32.635  12.445
 3101W        W67921  43.257   2.430  10.813
 3102W        W67922  25.434  41.804   0.234
 3103W        W67923  42.003  25.425   2.820
 3104W        W67924  37.726  13.177  14.782
 3105W        W67925  35.131  37.957  11.907
 3106W        W67926  10.763  14.863   1.050
 3107W        W67927  31.549  24.009  13.364
 3108W        W67928  29.426  24.176  11.990
 3109W        W67929  12.163  11.270  14.377
 3110W        W67930  27.666  27.085   1.718
 3111W        W67931   7.660  28.166   0.914
 3112W        W67932  14.884  33.590   3.563
 3113W        W67933   7.639  28.102  14.540
 3114W        W67934   2.522  24.629   9.872
 3115W        W67935  23.643  24.253   0.462
 3116W        W67936  25.621   8.085  13.428
 3117W        W67937  41.657   4.188   1.167
 3118W        W67938  10.988  40.268   0.258
 3119W        W67939  19.210  12.313   2.860
 3120W        W67940  10.835   7.705   3.906
 3121W        W67941  10.223  22.671   0.702
 3122W        W67942   7.777   0.368  12.314
 3123W        W67943   3.675   0.906  12.040
 3124W        W67944  24.111  42.465  11.123
 3125W        W67945  22.964  21.261  11.120
 3126W        W67946  31.171  11.796  11.013
 3127W        W67947   2.842  31.944  11.120
 3128W        W67948  25.155  18.541   4.524
 3129W        W67949  37.987  32.951  12.285
 3130W        W67950  11.095  38.532   0.207
 3131W        W67951  10.545   6.845   0.440
 3132W        W67952  29.650  30.204  14.940
 3133W        W67953   4.940  15.608  11.197
 3134W        W67954  22.959  18.584  13.585
 3135W        W67955  40.810  39.149  13.244
 3136W        W67956  24.731  21.535   0.335
 3137W        W67957  42.509  12.863   0.215
 3138W        W67958  36.817  27.345   0.277
 3139W        W67959  13.783  17.251  10.436
 3140W        W67960  21.669  34.595  13.146
 3141W        W67961  11.274  44.533   1.450
 3142W        W67962  16.660  33.868   0.954
 3143W        W67963  12.380   8.122   0.389
 3144W        W67964   5.439  32.974   2.425
 3145W        W67965  35.547   1.043   2.581
 3146W        W67966  29.246   2.390  11.607
 3147W        W67967  12.061   5.026  10.305
 3148W        W67968  17.136   2.898   2.818
 3149W        W67969  42.480  19.730   4.582
 3150W        W67970   0.503   1.832   2.308
 3151W        W67971  24.869  16.125  13.446
 3152W        W67972  32.977  43.474  13.199
 3153W        W67973  36.142  41.824   4.757
 3154W        W67974  28.143   6.203   2.181
 3155W        W67975  44.420  22.756  12.402
 3156W        W67976  21.568  44.808  11.145
 3157W        W67977  31.352  13.458   0.193
 3158W        W67978   1.713  38.358  11.247
 3159W        W67979  11.269   0.746  14.306
 3160W        W67980  41.327  18.359  12.957
 3161W        W67981  19.734   1.333  14.926
 3162W        W67982  33.500  13.433   3.838
 3163W        W67983  20.266  36.276   3.713
 3164W        W67984  23.103  38.992  13.404
 3165W        W67985  16.724   1.365   1.608
 3166W        W67986   3.333  26.328   5.019
 3167W        W67987   9.327  26.331   0.973
 3168W        W67988   9.732  21.795  14.049
 3169W        W67989  37.259  13.377  11.133
 3170W        W67990   8.180   8.223   0.329
 3171W        W67991  39.220  11.685   3.349
 3172W        W67992  10.227   4.243  12.613
 3173W        W67993  12.831  12.954   5.030
 3174W        W67994   3.209  22.208  13.293
 3175W        W67995  23.192   1.492   3.659
 3176W        W67996   5.924  25.773  14.396
 3177W        W67997  17.607  20.295  10.673
 3178W        W67998  20.257  18.282   2.386
 3179W        W67999  42.395   6.614  14.764
 3180W        W68000  43.558  30.712   1.783
 3181W        W68001   6.347  30.528   2.968
 3182W        W68002  40.399  13.699  11.236
 3183W        W68003  43.754  30.632  13.540
 3184W        W68004  44.090  36.007  12.211
 3185W        W68005  15.500  31.366   0.404
 3186W        W68006  44.642  13.342  14.397
 3187W        W68007  34.021   5.663   3.675
 3188W        W68008  24.284  26.372  12.433
 3189W        W68009  18.134   7.631   0.676
 3190W        W68010  34.461  26.811  14.428
 3191W        W68011  35.505  33.249   0.813
 3192W        W68012  25.599  35.116   2.874
 3193W        W68013  22.538   4.424   4.503
 3194W        W68014  44.680  15.362  10.643
 3195W        W68015  38.208  26.254   0.325
 3196W        W68016  23.996  39.772  12.089
 3197W        W68017  43.184  40.933  12.012
 3198W        W68018  19.745   5.291   0.880
 3199W        W68019  22.149  39.017   0.806
 3200W        W68020  23.967   1.491  10.473
 3201W        W68021   6.368  20.089  13.981
 3202W        W68022  37.787  13.656   2.451
 3203W        W68023  37.383   5.324  11.564
 3204W        W68024  24.630  11.043  14.836
 3205W        W68025  29.936  38.064   4.677
 3206W        W68026  37.427  37.130   3.607
 3207W        W68027  24.098   8.623  11.530
 3208W        W68028  44.712  10.672   1.771
 3209W        W68029  26.530   0.284  12.082
 3210W        W68030  29.444   2.249  14.388
 3211W        W68031  42.230  42.846  12.897
 3212W        W68032  30.248  32.978  13.459
 3213W        W68033   8.434  31.145   2.997
 3214W        W68034   2.841   3.496  13.057
 3215W        W68035  31.844  30.557   2.892
 3216W        W68036  13.220  18.372  13.037
 3217W        W68037  35.023  30.504  12.211
 3218W        W68038  18.713   4.710   4.195
 3219W        W68039   3.935  33.899   1.160
 3220W        W68040  36.425  25.728   1.969
 3221W        W68041  22.947  43.062  13.138
 3222W        W68042  19.521  43.038  14.520
 3223W        W68043  21.501  18.376  11.114
 3224W        W68044  35.649  26.441   3.604
 3225W        W68045   5.444  39.337  13.335
 3226W        W68046  24.218  35.037   3.207
 3227W        W68047   1.704  11.626   0.607
 3228W        W68048  16.089   3.984   4.478
 3229W        W68049  13.599  33.029  14.926
 3230W        W68050  39.210   8.264   3.930
 3231W        W68051  31.972  36.783   3.336
 3232W        W68052   7.040  40.422   3.739
 3233W        W68053  30.246  34.321  11.127
 3234W        W68054  38.105  14.190   3.381
 3235W        W68055  38.795  18.895   3.885
 3236W        W68056  25.753  15.319   0.397
 3237W        W68057  30.531  14.706   3.629
 3238W        W68058   3.971  44.091  12.358
 3239W        W68059  29.191  42.624   2.176
 3240W        W68060  13.767   6.038   2.815
 3241W        W68061  21.687  12.398   0.776
 3242W        W68062  19.084  19.729   1.397
 3243W        W68063  30.420  35.160  12.231
 3244W        W68064  22.828  10.173   9.983
 3245W        W68065  43.946  42.737   4.085
 3246W        W68066  39.659   4.709  10.453
 3247W        W68067  17.844  42.562  14.502
 3248W        W68068   6.407  31.898  14.614
 3249W        W68069  25.316  18.015   4.085
 3250W        W68070  22.399  22.679  12.847
 3251W        W68071  42.173  25.841  13.036
 3252W        W68072  11.974  35.201   1.653
 3253W        W68073  17.737  32.631   0.509
 3254W        W68074  11.636  41.253   1.886
 3255W        W68075  31.175  38.868   2.256
 3256W        W68076  40.584  35.547   4.273
 3257W        W68077   7.959  33.361  10.741
 3258W        W68078   0.986  25.134  10.698
 3259W        W68079  22.695  11.565  12.881
 3260W        W68080  23.929  44.510   2.581
 3261W        W68081  22.420  18.738  13.969
 3262W        W68082  16.073   8.910  10.604
 3263W        W68083  20.896  33.509  11.792
 3264W        W68084   4.917  28.448   0.935
 3265W        W68085  23.201  17.853  12.057
 3266W        W68086  11.233  44.750  12.159
 3267W        W68087   9.645   8.588   0.830
 3268W        W68088   6.458   6.332  12.485
 3269W        W68089  12.299  10.773   2.085
 3270W        W68090  29.047   6.114   1.855
 3271W        W68091  38.911  35.706   4.838
 3272W        W68092   7.648  33.588   1.161
 3273W        W68093  12.318  35.353   4.199
 3274W        W68094  12.272   6.645   3.361
 3275W        W68095   8.546  23.868   4.101
 3276W        W68096  33.508  41.376   2.236
 3277W        W68097  34.660  16.256   2.879
 3278W        W68098  17.483  13.735   2.073
 3279W        W68099  23.190  33.980   4.100
 3280W        W68100  29.761  26.589  14.448
 3281W        W68101   2.966   6.747  13.002
 3282W        W68102  26.341  16.891   0.463
 3283W        W68103  28.879  27.789  11.600
 3284W        W68104   4.911   9.154  10.721
 3285W        W68105  13.966  21.844  13.952
 3286W        W68106   3.311  14.282  14.818
 3287W        W68107  32.912  31.499   4.258
 3288W        W68108   2.914  29.326  10.982
 3289W        W68109  20.022  33.984  11.083
 3290W        W68110  21.321  24.878  11.561
 3291W        W68111  31.953   1.973   0.423
 3292W        W68112  14.280  36.026  14.495
 3293W        W68113  43.368  29.284  14.782
 3294W        W68114  30.654   1.423  14.349
 3295W        W68115   6.264  25.520  10.136
 3296W        W68116  29.961  39.416   2.340
 3297W        W68117   6.257  27.134  14.286
 3298W        W68118  19.867   4.420  13.352
 3299W        W68119   4.911  34.272  12.764
 3300W        W68120  15.271  38.616   2.163
 3301W        W68121  22.536  40.085  13.881
 3302W        W68122  31.162   6.008   3.979
 3303W        W68123  38.252   7.870   3.134
 3304W        W68124  27.389  32.926   4.146
 3305W        W68125  15.156  11.019   4.308
 3306W        W68126  14.371  12.727  11.442
 3307W        W68127   5.153  21.673  11.080
 3308W        W68128  18.654  18.555   3.616
 3309W        W68129   9.472  15.507   1.016
 3310W        W68130   1.714  27.750  12.067
 3311W        W68131  40.277  11.858   2.879
 3312W        W68132  37.705  30.742  11.187
 3313W        W68133  40.009  21.508  12.607
 3314W        W68134  19.105  12.459   1.365
 3315W        W68135   2.380  35.328  11.104
 3316W        W68136  10.431  22.863   3.744
 3317W        W68137  19.571  13.595   0.010
 3318W        W68138   9.216  20.502  10.570
 3319W        W68139   4.277  43.926   3.715
 3320W        W68140  12.547  34.056   2.109
 3321W        W68141   1.793  33.422  14.055
 3322W        W68142  11.252  12.091  10.753
 3323W        W68143  18.030  33.113  13.841
 3324W        W68144  34.576  22.653   3.207
 3325W        W68145  16.613   5.903  13.143
 3326W        W68146  15.648  18.071  11.865
 3327W        W68147  22.248  16.691   2.909
 3328W        W68148   1.790  36.248  13.396
 3329W        W68149  25.714  30.471   3.688
 3330W        W68150  16.589  19.666  11.627
 3331W        W68151  28.778  12.667  10.441
 3332W        W68152  29.717  32.647   3.778
 3333W        W68153  34.371   4.513  14.477
 3334W        W68154  32.346   1.713   0.215
 3335W        W68155  43.454   8.551   0.936
 3336W        W68156  40.527  16.321   4.114
 3337W        W68157  10.993  16.399  12.863
 3338W        W68158  24.282  18.538  13.438
 3339W        W68159  20.682  44.953   1.806
 3340W        W68160  22.132  26.681   2.169
 3341W        W68161  16.836  37.991   1.595
 3342W        W68162  32.070  17.745  14.810
 3343W        W68163  19.682  41.305   0.012
 3344W        W68164   6.510  11.308   2.375
 3345W        W68165  34.502   8.515   0.906
 3346W        W68166  21.656   3.131   2.772
 3347W        W68167  10.333   5.022   3.184
 3348W        W68168   2.425  23.602   3.890
 3349W        W68169  13.358  14.298  12.332
 3350W        W68170   3.334  10.413   2.566
 3351W        W68171  22.195  22.771   0.476
 3352W        W68172  39.616   2.832   1.627
 3353W        W68173  40.383  20.799   0.725
 3354W        W68174  40.619  25.789  11.247
 3355W        W68175  39.601  18.774  14.645
 3356W        W68176  29.034   3.674   4.647
 3357W        W68177   4.054  24.647   4.090
 3358W        W68178  10.159   0.981   3.176
 3359W        W68179  21.537  44.326  14.724
 3360W        W68180  40.911   3.935  10.642
 3361W        W68181  38.500  17.507   1.739
 3362W        W68182  41.515  33.645   0.443
 3363W        W68183   2.178  18.652   3.217
 3364W        W68184   3.954  42.736  10.333
 3365W        W68185  42.841  42.030  12.920
 3366W        W68186  37.081  21.754   3.632
 3367W        W68187  44.383  37.811  13.389
 3368W        W68188  42.507  39.457  13.935
 3369W        W68189  35.963  19.639  13.320
 3370W        W68190  20.539   0.287   0.277
 3371W        W68191  43.346  36.892  14.036
 3372W        W68192   6.827  17.135  14.365
 3373W        W68193  40.100  23.295   2.249
 3374W        W68194   5.414  41.836   0.972
 3375W        W68195  41.483  10.884   3.866
 3376W        W68196  41.054  35.034  14.307
 3377W        W68197  37.658  12.807  12.481
 3378W        W68198  17.458  23.918   0.413
 3379W        W68199  32.544  12.317  12.017
 3380W        W68200   7.312  36.951   2.687
 3381W        W68201   2.544  17.222   1.090
 3382W        W68202   2.790  19.815   3.270
 3383W        W68203   4.905  37.395   3.214
 3384W        W68204  18.168   1.268   3.297
 3385W        W68205  24.142  40.033  13.874
 3386W        W68206  12.060  39.220   0.140
 3387W        W68207  31.051  43.462  13.487
 3388W        W68208  20.866  18.155   0.467
 3389W        W68209   1.497  13.021  11.582
 3390W        W68210  35.780   8.215   2.736
 3391W        W68211  16.163   0.869   0.215
 3392W        W68212   5.326  24.008  12.122
 3393W        W68213  16.547  30.547  11.165
 3394W        W68214  37.251  37.985  12.127
 3395W        W68215  22.406   9.853   2.175
 3396W        W68216  31.939  17.338   0.915
 3397W        W68217  35.583   6.742   1.240
 3398W        W68218  37.620   0.363   1.415
 3399W        W68219   6.736  40.097  13.070
 3400W        W68220  39.786  35.552  11.122
 3401W        W68221  34.738  44.197  10.101
 3402W        W68222  37.473   7.771   1.284
 3403W        W68223  22.755  31.209  10.072
 3404W        W68224   2.335   9.118  14.972
 3405W        W68225   5.225  16.153   1.379
 3406W        W68226  16.805   2.866   4.654
 3407W        W68227  10.825  33.168  13.460
 3408W        W68228   5.048  25.916   2.676
 3409W        W68229  19.778   0.781   1.242
 3410W        W68230  10.230  20.836  11.955
 3411W        W68231   3.951   2.813   0.179
 3412W        W68232  20.162  43.817   3.258
 3413W        W68233   7.650  43.106   2.448
 3414W        W68234  29.227  23.310  13.454
 3415W        W68235  24.615   4.746   4.182
 3416W        W68236  10.629  16.531  14.566
 3417W        W68237  19.748  26.736   2.220
 3418W        W68238  34.435  37.926  14.850
 3419W        W68239  19.391  13.133   2.536
 3420W        W68240   8.963  42.737   3.689
 3421W        W68241  41.591   7.206   0.903
 3422W        W68242  10.431  26.725   2.777
 3423W        W68243   8.847  17.063   1.871
 3424W        W68244   6.224   4.522  10.688
 3425W        W68245  40.344   9.252  11.118
 3426W        W68246   9.426  20.014   4.616
 3427W        W68247   7.869  42.767  14.424
 3428W        W68248  16.641  31.419  14.299
 3429W        W68249  15.897  21.177   4.504
 3430W        W68250  22.522   6.538  14.674
 3431W        W68251  42.237  40.563  11.989
 3432W        W68252  35.420  39.442   1.039
 3433W        W68253  16.115  42.758   3.177
 3434W        W68254  38.676   9.233  11.650
 3435W        W68255  31.193  38.914  14.430
 3436W        W68256  23.681  13.325   3.341
 3437W        W68257   0.506  18.248   1.112
 3438W        W68258  37.033  16.537  10.137
 3439W        W68259  16.652   0.936  12.907
 3440W        W68260   4.696   8.223  13.577
 3441W        W68261  15.998  21.191  14.490
 3442W        W68262  35.573  31.914   3.574
 3443W        W68263  33.221  42.463  12.805
 3444W        W68264   8.296  16.558  12.324
 3445W        W68265  38.346  11.336   3.399
 3446W        W68266  29.954  22.257  11.106
 3447W        W68267  36.876  14.201   2.817
 3448W        W68268   8.232  37.042   1.783
 3449W        W68269  42.765  35.617  11.867
 3450W        W68270  18.182   8.314  11.032
 3451W        W68271  36.310  37.108   4.552
 3452W        W68272  28.445   7.612  13.509
 3453W        W68273   4.762   5.997   3.688
 3454W        W68274  30.707  25.731   4.554
 3455W        W68275   0.844  14.596   2.169
 3456W        W68276  18.081  16.609  12.994
 3457W        W68277  16.008  23.766  11.975
 3458W        W68278  39.329  33.580  11.506
 3459W        W68279  30.894  17.494   4.353
 3460W        W68280  22.531  23.442  14.310
 3461W        W68281   2.981  37.447   1.738
 3462W        W68282  31.464  42.006  12.540
 3463W        W68283  17.345   3.518  13.409
 3464W        W68284  43.585  23.956   4.223
 3465W        W68285   4.945  37.057   4.931
 3466W        W68286  27.964   4.834   4.518
 3467W        W68287  17.286  16.164   1.703
 3468W        W68288   1.756   5.388   1.829
 3469W        W68289  36.672  33.751   1.013
 3470W        W68290  16.318  37.472   0.483
 3471W        W68291  32.420  17.741  12.153
 3472W        W68292  32.661  38.139   3.361
 3473W        W68293  41.409   5.932  12.463
 3474W        W68294  24.712  44.998   4.744
 3475W        W68295  10.378  43.487  10.983
 3476W        W68296  10.403   7.760   1.968
 3477W        W68297  19.807  37.564   3.583
 3478W        W68298  16.343  35.001   0.316
 3479W        W68299  44.991  35.459  14.673
 3480W        W68300  44.406  16.342   2.591
 3481W        W68301  43.324  18.089   2.693
 3482W        W68302  23.174  22.036  14.044
 3483W        W68303  13.138  36.391   3.197
 3484W        W68304  36.913  37.818  14.797
 3485W        W68305  26.906   3.994  12.508
 3486W        W68306   0.024  40.473   2.365
 3487W        W68307  23.543  24.251  14.014
 3488W        W68308  37.003  13.608  12.092
 3489W        W68309  29.168  11.233   4.181
 3490W        W68310  30.362  17.683   1.739
 3491W        W68311  36.059  14.210   0.510
 3492W        W68312  16.292  16.787  13.383
 3493W        W68313  40.719  16.918  12.532
 3494W        W68314   8.331  30.768  10.281
 3495W        W68315  17.339  20.774   3.663
 3496W        W68316   9.545  26.278  11.457
 3497W        W68317  25.307  33.893  11.574
 3498W        W68318   9.648  36.020  14.527
 3499W        W68319  26.560   6.783   4.423
 3500W        W68320  27.607  33.365   2.225
 3501W        W68321   9.021  29.003   0.421
 3502W        W68322  24.719   3.919  11.897
 3503W        W68323  32.111   4.988   0.292
 3504W        W68324  21.098  42.284   4.060
 3505W        W68325  21.307   6.620   2.629
 3506W        W68326  29.708  36.277   3.161
 3507W        W68327  33.384  28.662  12.879
 3508W        W68328   1.259  25.160   1.296
 3509W        W68329  12.496  18.530  10.742
 3510W        W68330  16.237   2.761  11.627
 3511W        W68331  26.783  24.979  11.084
 3512W        W68332  40.727  18.811   4.071
 3513W        W68333  34.584  30.716  10.569
 3514W        W68334  36.970  38.322   2.016
 3515W        W68335   7.221  30.927   0.945
 3516W        W68336  43.951   9.880  12.996
 3517W        W68337   0.425  36.282  13.347
 3518W        W68338  18.224  44.005  10.939
 3519W        W68339  11.652  40.493  12.104
 3520W        W68340  35.979  33.214   0.067
 3521W        W68341   5.677  34.245  11.587
 3522W        W68342  23.274  39.985   2.398
 3523W        W68343   5.848  41.087   3.435
 3524W        W68344   8.444   8.344  10.583
 3525W        W68345  39.517  43.329   3.312
 3526W        W68346  29.520  22.636  14.821
 3527W        W68347  29.134  15.370   3.787
 3528W        W68348   3.227  43.307  11.210
 3529W        W68349  23.057  31.431   2.815
 3530W        W68350  21.378  21.780  13.909
 3531W        W68351  19.434  19.364  14.310
 3532W        W68352  25.018  30.796  11.990
 3533W        W68353  13.238  15.089  10.716
 3534W        W68354  29.256  43.388   2.863
 3535W        W68355  21.165   8.690   0.283
 3536W        W68356  23.686  10.753   2.600
 3537W        W68357  33.587  25.093  14.248
 3538W        W68358  23.594  12.235  12.153
 3539W        W68359  20.785  19.804   4.211
 3540W        W68360  14.209   2.763   2.770
 3541W        W68361  41.431  30.453   0.465
 3542W        W68362   4.234   3.244   4.260
 3543W        W68363  35.866  27.926  14.425
 3544W        W68364  41.029  42.211  14.002
 3545W        W68365  37.586  23.453   1.528
 3546W        W68366  17.653  12.331   3.185
 3547W        W68367  23.728  35.402  12.014
 3548W        W68368  14.327  44.158  11.096
 3549W        W68369  37.319  27.242   0.343
 3550W        W68370  34.568  24.920  14.774
 3551W        W68371  25.094  37.547  10.663
 3552W        W68372  30.757   9.199   0.150
 3553W        W68373   4.133  12.923  12.471
 3554W        W68374   4.381  34.995  13.598
 3555W        W68375   0.470  41.863  11.615
 3556W        W68376  37.914  37.976  12.870
 3557W        W68377  39.242  10.872   0.884
 3558W        W68378  14.584  22.948  10.481
 3559W        W68379  39.805  19.758  11.987
 3560W        W68380  10.735  31.574   4.024
 3561W        W68381  24.240  41.899   2.933
 3562W        W68382  25.781  11.257  11.016
 3563W        W68383  23.421  12.364  13.527
 3564W        W68384  29.411  16.702   2.049
 3565W        W68385  21.494  36.433   4.073
 3566W        W68386  44.474  24.292   0.326
 3567W        W68387  40.974  41.927   4.351
 3568W        W68388   8.546  28.130  12.985
 3569W        W68389  15.937  15.844  11.014
 3570W        W68390   8.688   8.846  11.513
 3571W        W68391  22.604  16.294   3.762
 3572W        W68392  43.015  41.611   2.962
 3573W        W68393  39.367  19.781   1.869
 3574W        W68394   7.601  35.579  11.439
 3575W        W68395  13.690   5.342   0.842
 3576W        W68396  41.805  39.280  11.945
 3577W        W68397  34.450  21.425  11.883
 3578W        W68398   7.005  13.393  13.797
 3579W        W68399   1.879  17.667   1.848
 3580W        W68400  10.084  39.307   1.718
 3581W        W68401   7.323  16.988   1.321
 3582W        W68402   6.455   3.732   3.314
 3583W        W68403  40.359   7.566  11.962
 3584W        W68404   9.241  30.114   0.221
 3585W        W68405  26.709  18.101  13.397
 3586W        W68406  33.301  10.733  12.485
 3587W        W68407  44.832  41.420   2.211
 3588W        W68408  43.039  12.762  10.568
 3589W        W68409  18.732  30.085   3.523
 3590W        W68410  27.957  11.133  11.615
 3591W        W68411  37.332  26.228  11.216
 3592W        W68412   8.866  37.277   4.167
 3593W        W68413  23.617  27.907   3.900
 3594W        W68414  42.529   6.469   3.380
 3595W        W68415  24.436   9.629   4.170
 3596W        W68416  38.320   7.873  12.463
 3597W        W68417  11.168  22.935  14.401
 3598W        W68418  22.624   8.582   0.404
 3599W        W68419  14.457  30.689   0.918
 3600W        W68420   4.524  40.564   3.337
 3601W        W68421  14.594  22.186  12.551
 3602W        W68422   9.227  38.057   2.352
 3603W        W68423  43.761  22.773   3.758
 3604W        W68424   5.258  41.002  12.911
 3605W        W68425   6.114  14.779  14.949
 3606W        W68426   9.101  15.564   4.198
 3607W        W68427  20.152  31.409  13.887
 3608W        W68428  11.944  11.489  11.397
 3609W        W68429   8.467   3.228  10.690
 3610W        W68430   1.253   5.738   3.540
 3611W        W68431   6.421   1.272  12.178
 3612W        W68432  43.457  14.380   4.621
 3613W        W68433   4.297  34.567   4.014
 3614W        W68434  16.182  42.551  12.061
 3615W        W68435  15.255  41.769   1.821
 3616W        W68436   5.664  14.741   2.665
 3617W        W68437   6.444  33.006   3.409
 3618W        W68438  38.475  40.080  13.839
 3619W        W68439  29.955  31.818  11.004
 3620W        W68440   9.266  32.054  12.184
 3621W        W68441  11.104  28.991   0.615
 3622W        W68442  35.584  43.514   1.396
 3623W        W68443  13.368  34.442   4.661
 3624W        W68444  22.997  27.162   2.767
 3625W        W68445  33.393   7.801   3.320
 3626W        W68446  32.523  44.544  14.482
 3627W        W68447  22.194  32.112   3.724
 3628W        W68448  13.198  34.677  11.005
 3629W        W68449   9.364   6.126  12.496
 3630W        W68450  18.169  40.804   4.916
 3631W        W68451   7.380  10.240   2.290
 3632W        W68452  32.646  41.745  10.558
 3633W        W68453  32.949  27.047  14.447
 3634W        W68454  13.365  10.152  13.219
 3635W        W68455  31.447  18.304  14.279
 3636W        W68456  43.257  17.218  13.958
 3637W        W68457  13.567  13.108   1.821
 3638W        W68458  21.629  41.627  10.922
 3639W        W68459  20.588  15.604   4.541
 3640W        W68460  33.959  38.894   4.825
 3641W        W68461  44.145  39.372  11.065
 3642W        W68462  38.315   1.619  12.620
 3643W        W68463   9.875  39.520  11.403
 3644W        W68464  13.176  20.965  13.322
 3645W        W68465  42.488  37.349  14.247
 3646W        W68466  23.327  40.750   1.172
 3647W        W68467  14.617  17.213  12.296
 3648W        W68468  43.996  27.482   0.409
 3649W        W68469  20.664  36.809   3.201
 3650W        W68470  28.353  23.221  10.030
 3651W        W68471  34.999  25.692   4.585
 3652W        W68472   2.092  26.732   4.239
 3653W        W68473  15.927  37.908   3.657
 3654W        W68474  18.358  13.898   0.274
 3655W        W68475   2.814  34.668   3.655
 3656W        W68476  23.793  35.444   1.825
 3657W        W68477  15.401  33.214   3.281
 3658W        W68478  33.060   8.239  14.841
 3659W        W68479  34.929  37.284  14.907
 3660W        W68480  30.183  32.596   4.172
 3661W        W68481  43.776   2.513   1.380
 3662W        W68482  29.812  19.778  12.343
 3663W        W68483   3.713   5.302   1.327
 3664W        W68484  13.347  17.759   4.610
 3665W        W68485   0.262  31.820  13.779
 3666W        W68486  31.653  31.946   2.640
 3667W        W68487  12.204  35.321  12.629
 3668W        W68488  26.683   9.763  13.568
 3669W        W68489  42.316  22.640  10.800
 3670W        W68490  38.937   9.372   0.474
 3671W        W68491   3.113  21.631  13.946
 3672W        W68492  31.839  16.528  11.748
 3673W        W68493  36.363  13.215  11.494
 3674W        W68494  16.282   6.537   0.743
 3675W        W68495  15.613  25.996   1.199
 3676W        W68496  40.699  13.181   2.647
 3677W        W68497  15.835  15.207  10.199
 3678W        W68498   6.866  21.993   3.282
 3679W        W68499   7.148   8.202   2.720
 3680W        W68500  44.060  18.535  12.912
 3681W        W68501   2.885   4.998   2.273
 3682W        W68502   5.870  28.120   3.873
 3683W        W68503   7.265  35.915   4.831
 3684W        W68504  30.683   9.195  12.930
 3685W        W68505  29.907  26.513   1.579
 3686W        W68506  17.541  23.966   1.826
 3687W        W68507  11.809  39.411  12.552
 3688W        W68508  34.086  39.862  11.187
 3689W        W68509  43.562   3.545   4.479
 3690W        W68510  24.746  16.341  12.986
 3691W        W68511   0.135  40.340  12.536
 3692W        W68512  18.652  25.428  10.462
 3693W        W68513  39.100  41.606   1.299
 3694W        W68514   3.341  32.867   2.253
 3695W        W68515  44.351  24.199   2.874
 3696W        W68516  33.920  30.975  11.710
 3697W        W68517  28.229  20.027  10.719
 3698W        W68518  29.261  26.469   4.157
 3699W        W68519  44.388   3.008  12.299
 3700W        W68520  27.786  13.170   0.001
 3701W        W68521  27.239   7.656   4.220
 3702W        W68522  24.051  20.309  14.612
 3703W        W68523   4.374   4.758   3.271
 3704W        W68524  11.211  26.388   4.795
 3705W        W68525   5.722  20.752   2.703
 3706W        W68526   8.601   4.282   0.811
 3707W        W68527  25.701  12.402   4.511
 3708W        W68528  21.338  20.574   1.750
 3709W        W68529  23.259  41.331  12.156
 3710W        W68530  24.263  27.465  11.880
 3711W        W68531   8.907   1.997  11.079
 3712W        W68532  12.329  10.702   3.870
 3713W        W68533  44.411   6.972  11.465
 3714W        W68534   9.896  40.104   1.095
 3715W        W68535  30.156   7.698   2.544
 3716W        W68536   8.632   2.272  13.425
 3717W        W68537  13.929  36.850   3.196
 3718W        W68538  15.641  31.993  10.700
 3719W        W68539  17.623   4.596  12.236
 3720W        W68540  22.208  41.412   0.670
 3721W        W68541  13.525  26.579  12.899
 3722W        W68542   7.295   7.164  11.482
 3723W        W68543  24.100  26.887   2.882
 3724W        W68544   8.944  13.388  14.009
 3725W        W68545  26.680  21.310   1.794
 3726W        W68546  34.828  37.492  12.670
 3727W        W68547  15.716  15.329  13.966
 3728W        W68548  38.300  15.822   0.410
 3729W        W68549  21.537   7.233  11.647
 3730W        W68550  14.621  31.386   0.396
 3731W        W68551   0.823  19.791   1.837
 3732W        W68552  41.554   7.643  14.989
 3733W        W68553  29.096   1.657  12.547
 3734W        W68554   6.358   0.795  12.448
 3735W        W68555   1.455   4.461  11.144
 3736W        W68556   5.221   4.409   2.374
 3737W        W68557  37.527  24.707   1.391
 3738W        W68558  16.986  17.008  11.674
 3739W        W68559  15.649  17.624  14.106
 3740W        W68560   7.939  20.102   0.307
 3741W        W68561  22.142   7.122  11.180
 3742W        W68562  16.254  41.806  11.592
 3743W        W68563  12.769   8.600  13.848
 3744W        W68564  30.116  27.578  10.946
 3745W        W68565   7.191  37.609  13.443
 3746W        W68566  44.197  25.660   3.205
 3747W        W68567   0.214  41.593   4.801
 3748W        W68568  10.147  21.934   0.413
 3749W        W68569  16.349  18.770  13.606
 3750W        W68570  29.134   9.402   0.376
 3751W        W68571  13.146  27.749   5.448
 3752W        W68572  10.058  34.856   3.355
 3753W        W68573   1.805  15.406   1.098
 3754W        W68574  22.746  37.457   0.951
 3755W        W68575  28.090  34.596  14.367
 3756W        W68576  14.175  33.374   4.002
 3757W        W68577   8.978  12.418  13.852
 3758W        W68578  25.492  10.173  13.657
 3759W        W68579  13.690  39.973   1.420
 3760W        W68580   3.783  13.640   3.619
 3761W        W68581   7.691  41.127  13.894
 3762W        W68582   7.109  26.461   1.329
 3763W        W68583  27.012   4.876   4.139
 3764W        W68584  33.338  43.900  14.471
 3765W        W68585  27.728  10.110   2.436
 3766W        W68586  20.752  34.482  12.603
 3767W        W68587  31.625  39.719   1.347
 3768W        W68588  40.460  33.832  12.073
 3769W        W68589  20.403  15.528   0.323
 3770W        W68590   2.556  20.587  14.443
 3771W        W68591   0.919  10.125   1.428
 3772W        W68592  13.328   5.499  13.555
 3773W        W68593  35.634  24.607   4.425
 3774W        W68594  13.200  30.446   0.383
 3775W        W68595  28.279  38.967   2.016
 3776W        W68596  42.746   0.175   0.289
 3777W        W68597  24.668  39.987  12.843
 3778W        W68598   7.369  12.307  14.723
 3779W        W68599  26.154  27.488   1.303
 3780W        W68600  33.202  41.001  10.788
 3781W        W68601  13.794  10.465  13.996
 3782W        W68602  14.458  20.607  10.644
 3783W        W68603   4.679  11.490   1.217
 3784W        W68604  36.001  31.461  11.662
 3785W        W68605  10.308  24.810   3.597
 3786W        W68606  31.527   2.273   2.888
 3787W        W68607  29.030  33.644  14.576
 3788W        W68608  28.841  28.899  11.080
 3789W        W68609   1.855  26.362   1.393
 3790W        W68610  14.277  31.159   0.873
 3791W        W68611  32.440   6.938  12.893
 3792W        W68612  42.707  22.248  10.751
 3793W        W68613  34.975  37.932  13.270
 3794W        W68614  19.191  31.192   0.252
 3795W        W68615  44.385  35.231   4.048
 3796W        W68616  17.616  16.055   3.227
 3797W        W68617  35.019  37.831   0.583
 3798W        W68618  17.272  23.747   4.626
 3799W        W68619   0.711   4.383   0.373
 3800W        W68620  39.245  29.072  11.906
 3801W        W68621  10.138  23.253  13.591
 3802W        W68622  38.373   4.151   3.840
 3803W        W68623  42.557  26.130  11.622
 3804W        W68624   3.415  20.135   1.743
 3805W        W68625  20.383   3.867   4.158
 3806W        W68626  25.671  30.868   4.015
 3807W        W68627  30.510  36.193   0.860
 3808W        W68628  22.100   4.251  13.217
 3809W        W68629  27.021   6.290  11.922
 3810W        W68630  34.401   4.668   2.138
 3811W        W68631   0.998  43.492   1.987
 3812W        W68632   6.781  39.308   2.112
 3813W        W68633  44.302   8.335   0.987
 3814W        W68634   7.498  10.239   0.670
 3815W        W68635  13.284  26.602   4.610
 3816W        W68636  26.752   0.728  14.486
 3817W        W68637  37.563   1.367  13.451
 3818W        W68638  44.047   6.236  13.899
 3819W        W68639   4.436  20.600  11.541
 3820W        W68640   6.807  10.853  12.560
 3821W        W68641   7.741  19.508   1.199
 3822W        W68642  28.044   7.885   5.064
 3823W        W68643  23.593  10.220   1.839
 3824W        W68644  26.004   2.918   1.445
 3825W        W68645  23.666  33.344  13.799
 3826W        W68646  39.217  17.686   2.909
 3827W        W68647  13.647  34.768   4.313
 3828W        W68648  39.107   7.944  11.158
 3829W        W68649  37.139   9.341  12.703
 3830W        W68650  43.482  10.688  14.040
 3831W        W68651  21.143  23.575   3.539
 3832W        W68652  26.496  14.773  13.558
 3833W        W68653  28.987   9.123   4.618
 3834W        W68654   7.600   8.718   3.159
 3835W        W68655  15.616   1.299   1.230
 3836W        W68656  23.509  18.730  14.845
 3837W        W68657  33.552  40.795  11.122
 3838W        W68658  39.909   2.218   3.743
 3839W        W68659  39.193  18.819  14.321
 3840W        W68660   7.108  35.608  12.100
 3841W        W68661  32.410  26.015   2.799
 3842W        W68662   5.787  32.955   4.553
 3843W        W68663  41.539  29.192  12.495
 3844W        W68664   3.940  19.205  12.102
 3845W        W68665  19.100  41.026   3.062
 3846W        W68666  13.238  39.543  14.236
 3847W        W68667  29.950   7.251   2.289
 3848W        W68668  33.015  36.442  14.927
 3849W        W68669  12.582  11.844  13.642
 3850W        W68670  20.104  19.533  14.703
 3851W        W68671   7.735   8.330   0.093
 3852W        W68672  40.868  38.854   0.646
 3853W        W68673  19.528  21.055   1.823
 3854W        W68674  32.559  25.944  14.939
 3855W        W68675  33.089  33.885  14.417
 3856W        W68676   5.255   7.947  12.983
 3857W        W68677  23.954  34.144  14.809
 3858W        W68678  22.103   4.768   3.225
 3859W        W68679  11.615  43.635  14.970
 3860W        W68680   5.377  28.653  11.417
 3861W        W68681  34.240  32.876   0.786
 3862W        W68682  37.770   9.347  13.397
 3863W        W68683  10.503  39.971  12.963
 3864W        W68684  16.389  29.604   4.670
 3865W        W68685  28.436  17.263  10.372
 3866W        W68686  13.113  25.753  12.351
 3867W        W68687  22.573  29.884   3.214
 3868W        W68688  22.709  19.693  11.975
 3869W        W68689  23.723  26.606   0.505
 3870W        W68690  17.161  32.311  11.492
 3871W        W68691  42.698  39.060   1.897
 3872W        W68692  36.431  14.745  10.726
 3873W        W68693  19.147   2.167  13.912
 3874W        W68694   0.186  30.075   3.107
 3875W        W68695  33.474  17.179  12.948
 3876W        W68696  36.860  29.809   2.158
 3877W        W68697  22.534   7.304   1.944
 3878W        W68698  39.360  25.521   3.541
 3879W        W68699  33.387  38.469   0.270
 3880W        W68700  22.983   9.974   4.884
 3881W        W68701  39.577   6.311   4.092
 3882W        W68702  10.789  23.435  12.497
 3883W        W68703  11.270  33.397  14.922
 3884W        W68704   1.344  39.876   2.460
 3885W        W68705   7.177  31.906   2.699
 3886W        W68706  36.561  42.652   0.899
 3887W        W68707   5.845  24.362   2.061
 3888W        W68708  41.464  37.016   2.928
 3889W        W68709  41.585   3.910  12.090
 3890W        W68710  13.615  36.590   2.151
 3891W        W68711  21.734  33.659   2.275
 3892W        W68712  15.141  15.015   2.476
 3893W        W68713   7.936  18.031   3.690
 3894W        W68714  22.088  10.310  13.010
 3895W        W68715  37.756   7.051   0.487
 3896W        W68716  33.225  24.269  14.619
 3897W        W68717  16.759   1.643  14.910
 3898W        W68718  31.212  13.143   5.004
 3899W        W68719  11.141  17.377  11.565
 3900W        W68720  15.145  38.928   4.210
 3901W        W68721  38.496  29.770  13.961
 3902W        W68722  36.896  15.988   1.686
 3903W        W68723   8.883  41.455  14.737
 3904W        W68724   8.748   1.228   4.779
 3905W        W68725  13.863  39.653   4.491
 3906W        W68726  36.784  36.488   2.216
 3907W        W68727  26.668   8.657  11.773
 3908W        W68728  38.138  36.593  14.621
 3909W        W68729   8.972  19.141   0.884
 3910W        W68730  33.853  43.087   0.869
 3911W        W68731   2.225  11.900  12.278
 3912W        W68732  14.059  38.345   0.445
 3913W        W68733  11.196  21.253  11.511
 3914W        W68734  29.217  37.602  12.034
 3915W        W68735  31.495  27.278   1.802
 3916W        W68736  41.282  14.765  11.522
 3917W        W68737  26.054   5.603  13.894
 3918W        W68738  43.472  13.876   1.665
 3919W        W68739  19.625   6.734   5.301
 3920W        W68740  26.504  36.541  13.583
 3921W        W68741  12.707  25.227   4.512
 3922W        W68742  21.707   0.891   0.067
 3923W        W68743  15.459  38.381   0.325
 3924W        W68744  11.160   5.505   2.787
 3925W        W68745   5.251   9.827   1.806
 3926W        W68746  29.602   3.249   2.444
 3927W        W68747   0.782  29.158  12.726
 3928W        W68748  23.066  29.198   2.055
 3929W        W68749  28.750  38.828   2.837
 3930W        W68750  36.709  16.497   4.072
 3931W        W68751   3.715  37.119   2.631
 3932W        W68752  25.385  33.289   0.303
 3933W        W68753  19.165  33.366  12.455
 3934W        W68754  22.237   3.463   0.681
 3935W        W68755  37.439  32.810  13.464
 3936W        W68756  23.720  28.441   3.690
 3937W        W68757  34.842   2.823  10.724
 3938W        W68758  38.540  43.267  12.027
 3939W        W68759  10.369  20.563   9.896
 3940W        W68760   6.743  10.699  13.080
 3941W        W68761  12.615  21.937   3.725
 3942W        W68762   9.660  11.615   1.786
 3943W        W68763  30.512  37.454   5.129
 3944W        W68764  19.254  19.014  14.717
 3945W        W68765   8.869  33.587   3.648
 3946W        W68766  35.861  44.338  11.190
 3947W        W68767  18.770   2.746  12.077
 3948W        W68768  14.243  35.911   0.545
 3949W        W68769   4.917   5.147  14.561
 3950W        W68770  35.726   9.744   3.807
 3951W        W68771  32.822   0.785  14.683
 3952W        W68772   6.338  34.744   1.373
 3953W        W68773  36.122  30.830   1.755
 3954W        W68774  38.602  40.397  14.419
 3955W        W68775  11.649  11.828   3.982
 3956W        W68776   4.371  28.389  12.206
 3957W        W68777   3.387  35.964  12.769
 3958W        W68778  32.707  36.180  11.616
 3959W        W68779  15.059  23.516   3.264
 3960W        W68780   7.891  16.979   1.736
 3961W        W68781  32.645  40.863   0.786
 3962W        W68782  23.347   7.376   5.023
 3963W        W68783  12.156  27.123   2.021
 3964W        W68784  19.519  43.475  11.993
 3965W        W68785  19.083   1.410   2.431
 3966W        W68786  35.599   3.260   4.938
 3967W        W68787  16.695  35.971  11.883
 3968W        W68788  19.931  33.478  11.082
 3969W        W68789  21.416   3.590   0.416
 3970W        W68790  39.446  35.951  14.205
 3971W        W68791  25.426  19.258   2.249
 3972W        W68792   2.044  28.172   0.938
 3973W        W68793  11.327  31.904   5.143
 3974W        W68794  40.852  24.572  11.522
 3975W        W68795   1.765  16.323   1.340
 3976W        W68796  30.483  39.865   1.534
 3977W        W68797  11.383  33.502   2.708
 3978W        W68798   1.953   2.682   2.315
 3979W        W68799  19.092  44.271  14.117
 3980W        W68800  30.864  37.041   2.387
 3981W        W68801  41.278  16.008   1.161
 3982W        W68802  38.375  21.789   1.270
 3983W        W68803  34.968  13.542   4.183
 3984W        W68804   7.820  37.776  14.362
 3985W        W68805  41.811  22.221   1.746
 3986W        W68806  34.840  18.773   3.701
 3987W        W68807  15.790  10.559  10.987
 3988W        W68808  34.970  22.418  12.539
 3989W        W68809  27.068  21.819  13.302
 3990W        W68810  15.738  34.894  13.594
 3991W        W68811  15.174  39.167   0.010
 3992W        W68812  16.264  40.260  13.360
 3993W        W68813  15.725   9.335  12.502
 3994W        W68814  26.256  15.669   2.341
 3995W        W68815  25.361  24.732   0.163
 3996W        W68816  31.667  39.150  12.234
 3997W        W68817  17.136   7.686  11.153
 3998W        W68818   8.157  23.997  11.632
 3999W        W68819  39.447  25.249  10.597
 4000W        W68820  41.893  24.047  11.539
 4001W        W68821   6.851  19.753  12.895
 4002W        W68822  17.264  16.884   3.192
 4003W        W68823  39.778  14.573   3.211
 4004W        W68824   2.774   1.175   0.460
 4005W        W68825  13.331  43.012  14.532
 4006W        W68826  20.277  41.969  10.620
 4007W        W68827  21.728  36.483  12.581
 4008W        W68828  22.108  40.779   1.789
 4009W        W68829  11.457   9.527   0.936
 4010W        W68830  13.639   7.880   3.215
 4011W        W68831   4.939   9.834   3.173
 4012W        W68832  37.526  31.930  10.749
 4013W        W68833  27.531   2.418  13.119
 4014W        W68834  32.994  37.100   1.774
 4015W        W68835   4.329  13.293  13.871
 4016W        W68836  20.063  18.120   0.435
 4017W        W68837  18.773  17.132  12.190
 4018W        W68838   0.244  13.863   1.714
 4019W        W68839   0.234   4.355  14.402
 4020W        W68840   2.732  39.051  12.124
 4021W        W68841  18.057  28.604  13.362
 4022W        W68842  21.694  38.479  14.031
 4023W        W68843  11.831  19.638  11.879
 4024W        W68844   2.571  16.800  12.519
 4025W        W68845  12.948  16.535   9.787
 4026W        W68846   1.007  41.006   1.863
 4027W        W68847  33.926  43.667   1.986
 4028W        W68848  27.596  10.100  14.248
 4029W        W68849  40.947   7.127  14.558
 4030W        W68850  38.395  11.317   2.846
 4031W        W68851  36.889  23.299  11.256
 4032W        W68852  39.321  42.795   4.150
 4033W        W68853  11.888  20.635   3.643
 4034W        W68854  22.751  37.565   1.816
 4035W        W68855  13.891  22.616   2.307
 4036W        W68856  41.047  12.610   0.404
 4037W        W68857  24.135  16.178   2.159
 4038W        W68858  18.120  20.981   0.967
 4039W        W68859  34.717  26.991   2.152
 4040W        W68860  43.147  17.249   1.125
 4041W        W68861  40.398  25.418  11.538
 4042W        W68862  22.030  36.156  11.589
 4043W        W68863  10.244  15.792  11.971
 4044W        W68864  35.115   7.414  11.683
 4045W        W68865  18.773  39.850  14.857
 4046W        W68866  43.830  29.145  12.681
 4047W        W68867  33.083  31.403  12.027
 4048W        W68868  38.688   8.171  11.449
 4049W        W68869  28.908  16.825   4.387
 4050W        W68870  28.330  17.069   3.755
 4051W        W68871  19.513  31.859  11.421
 4052W        W68872  23.895  36.590  14.089
 4053W        W68873  16.665  34.572   0.355
 4054W        W68874  27.059  10.418  14.814
 4055W        W68875  25.998  42.835  12.666
 4056W        W68876  43.522  27.686  14.048
 4057W        W68877  22.936   5.904   0.227
 4058W        W68878  24.999  43.503  14.434
 4059W        W68879  13.505   0.541  14.845
 4060W        W68880  42.767  18.061   4.531
 4061W        W68881   2.075  10.183   0.391
 4062W        W68882   2.385   8.321  12.005
 4063W        W68883   6.971   6.780  13.077
 4064W        W68884  40.975  11.861   3.669
 4065W        W68885  35.358  37.956   3.681
 4066W        W68886  32.318  37.271   4.956
 4067W        W68887  37.450  14.643   4.473
 4068W        W68888  22.698  28.778   1.904
 4069W        W68889  28.199   8.852   4.700
 4070W        W68890  18.690   1.257  13.489
 4071W        W68891  39.298  25.301  13.256
 4072W        W68892  17.631  33.578  11.412
 4073W        W68893  40.817   0.560  14.730
 4074W        W68894  24.960  32.872   0.650
 4075W        W68895   9.151  44.386  12.568
 4076W        W68896  23.178  29.352   3.610
 4077W        W68897  10.309  23.279  12.569
 4078W        W68898  29.041  25.253  10.477
 4079W        W68899   5.721   2.011  13.921
 4080W        W68900  14.834  16.095  10.689
 4081W        W68901   2.351  44.213  11.604
 4082W        W68902   9.175  12.884  12.016
 4083W        W68903  28.864  31.776  12.689
 4084W        W68904  36.906  17.856  12.141
 4085W        W68905  14.920   5.095  13.017
 4086W        W68906   2.840  20.071  11.983
 4087W        W68907  24.969  18.090  11.529
 4088W        W68908  11.698  41.942  14.141
 4089W        W68909  18.927  26.669   1.818
 4090W        W68910  29.119  36.844   0.401
 4091W        W68911  22.679  30.133  10.169
 4092W        W68912  28.446  11.118   2.973
 4093W        W68913  38.636   1.258   2.120
 4094W        W68914  33.910  30.131   2.566
 4095W        W68915  24.084  30.184   0.898
 4096W        W68916  11.420  25.353   1.084
 4097W        W68917  38.627   7.171  13.925
 4098W        W68918   0.403  16.958   4.198
 4099W        W68919  43.993  42.778   2.717
 4100W        W68920  12.657  33.315   0.895
 4101W        W68921  13.206   8.144  14.943
 4102W        W68922   5.289   7.308  10.340
 4103W        W68923  27.389  24.588  10.776
 4104W        W68924  31.514  20.995  14.719
 4105W        W68925  35.504  28.467  11.242
 4106W        W68926  18.765  18.294  14.957
 4107W        W68927  42.952  14.185   4.549
 4108W        W68928  15.658  20.078   0.084
 4109W        W68929  37.911   9.091  11.010
 4110W        W68930  26.443  25.978  12.581
 4111W        W68931  28.149   4.434   3.788
 4112W        W68932  39.031  19.008   1.400
 4113W        W68933  25.147  38.610  12.615
 4114W        W68934  24.261  44.712  12.501
 4115W        W68935  37.027  18.553  13.482
 4116W        W68936  12.530  37.911  13.185
 4117W        W68937   3.315  41.525  10.682
 4118W        W68938  38.516  22.752   1.542
 4119W        W68939  26.769  19.132  14.763
 4120W        W68940  43.288   5.306  10.727
 4121W        W68941  36.271   3.924  14.840
 4122W        W68942  34.152  18.511  12.431
 4123W        W68943   9.822  33.199  10.675
 4124W        W68944  16.270  23.259  14.149
 4125W        W68945   8.656  14.229   4.091
 4126W        W68946  13.370  41.067   0.657
 4127W        W68947  19.789   1.311  12.232
 4128W        W68948   6.348  24.954  13.023
 4129W        W68949  29.225  19.134  10.747
 4130W        W68950   6.227  24.778   0.666
 4131W        W68951  39.379  43.575   2.450
 4132W        W68952  44.524  36.137  12.471
 4133W        W68953   6.412  21.465  12.393
 4134W        W68954  18.514  17.474   5.162
 4135W        W68955  23.888   9.650   4.990
 4136W        W68956  29.520  19.936  14.872
 4137W        W68957  20.587   4.204  10.620
 4138W        W68958  22.621  14.654  14.459
 4139W        W68959  28.092  22.291  11.301
 4140W        W68960  34.933  25.907   3.100
 4141W        W68961  10.222  30.846   0.009
 4142W        W68962  30.883  26.194   2.814
 4143W        W68963  42.919  11.149  10.638
 4144W        W68964  33.157   3.905  14.393
 4145W        W68965  38.523  38.046  14.898
 4146W        W68966   8.306  22.743   1.183
 4147W        W68967  41.786  30.377   5.010
 4148W        W68968  25.800   0.569  13.727
 4149W        W68969   0.248  38.131  10.921
 4150W        W68970   9.299   9.200  11.018
 4151W        W68971  36.423  26.704  12.585
 4152W        W68972  19.120  28.772  11.158
 4153W        W68973   0.190  27.160  13.514
 4154W        W68974  27.529  24.496   0.728
 4155W        W68975  16.126  19.223   2.347
 4156W        W68976  42.792  26.115   3.571
 4157W        W68977  19.614  28.932   2.803
 4158W        W68978  32.622  40.277   0.872
 4159W        W68979   6.934   1.816  12.958
 4160W        W68980  24.298  43.426  11.241
 4161W        W68981  12.128  29.101  12.019
 4162W        W68982  16.272  30.202   1.716
 4163W        W68983  39.450  40.071  13.873
 4164W        W68984  43.283  24.019  11.194
 4165W        W68985  36.504  23.131   0.498
 4166W        W68986  35.207   6.468   0.335
 4167W        W68987   1.300  12.247  12.649
 4168W        W68988  39.401  20.576  14.466
 4169W        W68989  35.301  43.831  14.986
 4170W        W68990  41.656  41.848  11.599
 4171W        W68991  29.706  42.846  12.006
 4172W        W68992  14.336  41.533   0.053
 4173W        W68993  18.257  17.063   3.425
 4174W        W68994  43.820  12.343   4.496
 4175W        W68995  10.539  34.738  14.374
 4176W        W68996  16.816   5.268  12.945
 4177W        W68997  23.043  40.074  14.788
 4178W        W68998  13.714  44.984  12.942
 4179W        W68999   8.292  43.196   4.574
 4180W        W69000  35.560  15.064   1.317
 4181W        W69001  25.414  25.745   1.760
 4182W        W69002  16.603  17.314  14.431
 4183W        W69003  43.906  33.650   0.771
 4184W        W69004  11.655  29.564   1.943
 4185W        W69005  28.317  32.750   5.641
 4186W        W69006  15.876  31.838   0.501
 4187W        W69007  20.095  32.628  14.509
 4188W        W69008  38.238  24.094  10.598
 4189W        W69009  20.046  19.070   0.738
 4190W        W69010  44.273  15.823   0.481
 4191W        W69011  11.808  21.599   4.342
 4192W        W69012  24.915  28.096  10.955
 4193W        W69013   1.674  11.814  14.329
 4194W        W69014  35.342   2.364   1.549
 4195W        W69015  36.417  22.263  11.083
 4196W        W69016  44.175  15.654   0.946
 4197W        W69017   3.294   4.916   3.225
 4198W        W69018  37.400  31.486   0.524
 4199W        W69019   3.918  22.359  11.947
 4200W        W69020  14.998   5.215   4.222
 4201W        W69021   1.734  34.336   1.780
 4202W        W69022  21.687  28.901   2.210
 4203W        W69023  12.400  22.668   0.228
 4204W        W69024  21.488  38.184  11.120
 4205W        W69025   6.203  16.066  11.251
 4206W        W69026  26.595  20.515  11.948
 4207W        W69027  32.093  30.637  14.388
 4208W        W69028  20.726  30.611   4.346
 4209W        W69029   5.664  21.604  14.033
 4210W        W69030  43.311  20.197   3.248
 4211W        W69031  44.803  16.999   3.727
 4212W        W69032  35.948   4.321  14.997
 4213W        W69033   9.906  44.842   3.649
 4214W        W69034  14.375  11.452  14.335
 4215W        W69035  25.217  11.370  12.579
 4216W        W69036  37.912  35.372  11.093
 4217W        W69037  35.531  20.159  11.905
 4218W        W69038  38.478  32.911   2.928
 4219W        W69039   5.445  27.672  10.898
 4220W        W69040  24.536  15.580  10.981
 4221W        W69041  39.955  18.238  11.812
 4222W        W69042  14.309   8.893  11.549
 4223W        W69043  11.181   2.508   1.879
 4224W        W69044  23.725   3.148  11.908
 4225W        W69045  29.932  23.277  12.078
 4226W        W69046  10.365  31.106  12.571
 4227W        W69047  15.028   0.197  13.431
 4228W        W69048  34.326  38.845   1.309
 4229W        W69049  26.986  26.991   3.684
 4230W        W69050   2.688  39.405   3.830
 4231W        W69051  19.758  16.694  12.414
 4232W        W69052  40.463  35.957   1.692
 4233W        W69053   3.536  25.017   0.781
 4234W        W69054  44.962   8.232  13.462
 4235W        W69055  34.956  32.960  12.524
 4236W        W69056  19.853   2.724  12.611
 4237W        W69057  40.476   6.760  13.914
 4238W        W69058  32.068  10.784  11.136
 4239W        W69059  29.273  32.075  12.583
 4240W        W69060   9.079  29.637   3.390
 4241W        W69061  16.749  21.756   4.101
 4242W        W69062  22.940   4.416   0.218
 4243W        W69063  42.757   0.657   0.091
 4244W        W69064  26.077  23.559   4.047
 4245W        W69065  26.564  40.671  11.666
 4246W        W69066  42.390  25.619  13.917
 4247W        W69067  32.416  28.332  10.658
 4248W        W69068  25.384  25.165   2.726
 4249W        W69069  24.121  25.385   3.136
 4250W        W69070  34.483   7.267   3.900
 4251W        W69071   2.203  17.310  14.293
 4252W        W69072  24.605  42.624  14.466
 4253W        W69073  40.435  41.378   1.263
 4254W        W69074  21.900  10.343   5.040
 4255W        W69075  44.017  41.943   0.658
 4256W        W69076   6.795   2.518   3.826
 4257W        W69077   0.875  11.506   0.209
 4258W        W69078  25.976  19.231  14.342
 4259W        W69079  39.803  31.928   0.428
 4260W        W69080  22.784  33.163   3.059
 4261W        W69081  35.922  32.618   3.741
 4262W        W69082  12.816  38.728   2.240
 4263W        W69083  19.662  10.248  12.083
 4264W        W69084  12.667  42.843   0.930
 4265W        W69085  13.394  33.894   4.672
 4266W        W69086  20.534  30.591  10.731
 4267W        W69087  15.241  42.453  13.122
 4268W        W69088  26.626  24.365   2.895
 4269W        W69089  13.694  17.026   1.517
 4270W        W69090  20.156   3.944  12.649
 4271W        W69091  13.149   1.728   1.807
 4272W        W69092  38.816  28.178  11.601
 4273W        W69093   5.872   8.023   3.757
 4274W        W69094  44.481  18.613  13.194
 4275W        W69095   8.340   0.944   5.152
 4276W        W69096  30.373   6.929   2.041
 4277W        W69097  35.855  11.326   2.327
 4278W        W69098  12.376   9.844  13.459
 4279W        W69099  33.881  20.574   1.718
 4280W        W69100   4.667   8.831  11.590
 4281W        W69101  36.997  28.699   0.002
 4282W        W69102  29.680  39.892   2.246
 4283W        W69103  11.828  14.217  11.632
 4284W        W69104  13.821   9.377  13.405
 4285W        W69105   4.279   1.927  14.501
 4286W        W69106   3.687  30.837  12.472
 4287W        W69107   5.577   2.672   3.592
 4288W        W69108   7.635  41.405   2.761
 4289W        W69109  14.602  29.958   3.087
 4290W        W69110  11.206   0.406   3.753
 4291W        W69111  26.659  15.163   2.247
 4292W        W69112  39.110  43.702   4.488
 4293W        W69113  25.227  31.579   3.874
 4294W        W69114   5.692  32.014   1.410
 4295W        W69115  26.161  34.613   0.391
 4296W        W69116   3.373  15.807   2.269
 4297W        W69117  33.868  24.175  11.650
 4298W        W69118  36.734  35.984  10.893
 4299W        W69119  24.746  42.960   3.632
 4300W        W69120  28.548  39.934  14.547
 4301W        W69121  16.897   9.337   1.572
 4302W        W69122  31.988  41.029  14.023
 4303W        W69123  32.483  44.756  11.192
 4304W        W69124  18.960  40.488   1.863
 4305W        W69125  17.103  35.599  11.014
 4306W        W69126  26.036  22.028  14.193
 4307W        W69127   6.966   8.400   4.615
 4308W        W69128   2.067  16.765  12.473
 4309W        W69129   6.301  38.115   1.233
 4310W        W69130   2.019  44.902  13.771
 4311W        W69131   4.663  14.372  10.266
 4312W        W69132  37.351   4.180  14.044
 4313W        W69133  41.462  16.245  12.350
 4314W        W69134  38.245   5.532  11.762
 4315W        W69135  11.593  24.243   1.663
 4316W        W69136   6.264  19.086  12.877
 4317W        W69137  36.520  23.408   4.179
 4318W        W69138   5.200  31.871   1.408
 4319W        W69139  18.347  30.479   4.788
 4320W        W69140   8.218  22.568   4.140
 4321W        W69141   4.733  13.718   0.200
 4322W        W69142  23.572   5.895  14.380
 4323W        W69143  29.404   3.195   4.213
 4324W        W69144  19.785   1.468   1.913
 4325W        W69145  21.593  38.317   4.621
 4326W        W69146  18.076  38.102  13.754
 4327W        W69147  30.713  31.077   0.530
 4328W        W69148  34.434  36.553  12.884
 4329W        W69149  43.727  19.464  11.101
 4330W        W69150  42.606  33.082   1.250
 4331W        W69151  35.923   4.741   2.301
 4332W        W69152   3.259  26.507   0.723
 4333W        W69153   4.328   4.433  10.950
 4334W        W69154  16.157   7.272   0.125
 4335W        W69155  37.336  31.713   1.903
 4336W        W69156  20.720  23.219   3.427
 4337W        W69157  13.550  22.439   4.016
 4338W        W69158  40.868  37.824   0.975
 4339W        W69159  15.983  39.840  13.527
 4340W        W69160   8.536  38.048  12.145
 4341W        W69161   9.217  33.090  13.095
 4342W        W69162  25.118   5.189   2.901
 4343W        W69163   4.403   5.320  11.390
 4344W        W69164  35.602   7.085   3.115
 4345W        W69165   6.326   2.258   3.756
 4346W        W69166  16.517  20.183  13.531
 4347W        W69167   8.984  25.179  12.001
 4348W        W69168  32.902  20.498   4.172
 4349W        W69169  38.370  38.553   0.841
 4350W        W69170  29.739  32.482  14.547
 4351W        W69171   0.900  10.054  12.088
 4352W        W69172  43.916  23.459  14.453
 4353W        W69173   9.360  13.121   4.728
 4354W        W69174  20.632  14.605   0.704
 4355W        W69175  36.150  38.302  11.124
 4356W        W69176  15.273  39.945   4.461
 4357W        W69177  43.578  37.531  12.525
 4358W        W69178  17.087  18.200   0.934
 4359W        W69179   3.436  23.594   2.479
 4360W        W69180   9.176  17.999   1.858
 4361W        W69181  39.480  35.874  12.274
 4362W        W69182  15.360  17.066   4.736
 4363W        W69183  40.016   7.942  13.450
 4364W        W69184   2.355  30.390   9.987
 4365W        W69185  21.983  29.631   3.853
 4366W        W69186  19.896  15.634  10.559
 4367W        W69187  44.366  11.632   0.820
 4368W        W69188  28.101  14.571   0.879
 4369W        W69189  33.454  13.170  10.879
 4370W        W69190  36.107  15.863  10.376
 4371W        W69191  20.198  42.267  14.385
 4372W        W69192  23.662  29.833  10.768
 4373W        W69193  31.424  13.874   4.079
 4374W        W69194  21.967  37.048   0.416
 4375W        W69195  26.982  33.829   5.012
 4376W        W69196  26.033   7.826   3.627
 4377W        W69197   0.013  21.569   1.278
 4378W        W69198  30.176   8.548   3.865
 4379W        W69199   9.107  38.687  13.923
 4380W        W69200  36.388  43.876  13.586
 4381W        W69201  14.027  27.790  14.129
 4382W        W69202  26.184  25.253   3.401
 4383W        W69203  11.871   0.377  10.693
 4384W        W69204   7.175  23.181  13.744
 4385W        W69205  41.624  17.531  11.974
 4386W        W69206   8.909  42.270   3.146
 4387W        W69207   3.904  14.555  13.560
 4388W        W69208  44.453  10.724   3.649
 4389W        W69209  31.657  15.732  13.861
 4390W        W69210  23.558  26.870   1.380
 4391W        W69211  13.874  15.367   1.450
 4392W        W69212  22.664  20.754   1.710
 4393W        W69213   6.210   3.443   1.389
 4394W        W69214  41.879  28.131   9.734
 4395W        W69215  11.526   9.841   2.575
 4396W        W69216  17.281  16.283  12.970
 4397W        W69217   4.894   1.019   5.320
 4398W        W69218   0.364  25.889  13.548
 4399W        W69219  37.801   5.435   3.253
 4400W        W69220  17.816  30.429   4.914
 4401W        W69221  13.726  20.586   4.220
 4402W        W69222  35.576  17.024   1.319
 4403W        W69223  27.437  15.464   3.932
 4404W        W69224  14.123  34.463  13.549
 4405W        W69225  31.536  37.624  11.826
 4406W        W69226  13.440  34.912  11.369
 4407W        W69227  29.312  40.275  12.493
 4408W        W69228  39.890  25.520  10.412
 4409W        W69229  26.252  24.606  13.190
 4410W        W69230  20.786  44.734   1.337
 4411W        W69231  22.682  30.013   1.379
 4412W        W69232   0.934  30.029  14.745
 4413W        W69233  14.291  40.556  12.325
 4414W        W69234   7.456  21.755  12.968
 4415W        W69235  20.353  29.155  11.628
 4416W        W69236  20.576   0.191  14.766
 4417W        W69237  38.427  26.437   2.807
 4418W        W69238  44.256  38.326  13.395
 4419W        W69239  12.571  39.150   0.205
 4420W        W69240  14.570  30.759  10.640
 4421W        W69241  12.824  14.671  14.899
 4422W        W69242  26.913  29.186   0.195
 4423W        W69243  43.340  37.398  12.061
 4424W        W69244  27.939   1.858   2.246
 4425W        W69245  40.994   7.707   3.860
 4426W        W69246  16.217  29.471  14.949
 4427W        W69247  30.647  23.649   4.058
 4428W        W69248  20.662  30.347   0.930
 4429W        W69249  28.456  16.098  11.880
 4430W        W69250   4.141  19.982   3.212
 4431W        W69251  21.603  19.393   4.152
 4432W        W69252  22.999   8.563   4.027
 4433W        W69253   5.579  26.803   1.305
 4434W        W69254  10.738  17.160  10.927
 4435W        W69255   0.882  40.051  11.916
 4436W        W69256  16.514   9.373   2.715
 4437W        W69257   8.623   1.313   0.227
 4438W        W69258  42.975  33.391   3.108
 4439W        W69259   8.690  29.400   3.632
 4440W        W69260   1.794  31.529   1.462
 4441W        W69261  13.222  16.174   2.228
 4442W        W69262   8.266  40.305   3.382
 4443W        W69263  17.733  27.534   1.363
 4444W        W69264  34.010  15.031   9.829
 4445W        W69265  26.811  36.382   4.066
 4446W        W69266  23.787  26.590  14.984
 4447W        W69267  35.020  21.368  12.714
 4448W        W69268  18.822  42.531  12.475
 4449W        W69269  10.298  23.211   1.805
 4450W        W69270  28.657   4.410  10.460
 4451W        W69271  20.150  39.803  13.512
 4452W        W69272  23.644  14.865   2.189
 4453W        W69273  14.391  29.419   1.819
 4454W        W69274  21.528  30.903  14.044
 4455W        W69275   5.154  12.564   4.818
 4456W        W69276  31.456  42.859  12.771
 4457W        W69277  38.209   8.719   5.484
 4458W        W69278  13.392  23.726   4.798
 4459W        W69279   6.289  14.109  10.530
 4460W        W69280  42.379  26.458  12.431
 4461W        W69281  42.922   0.888   4.709
 4462W        W69282  31.565   6.391   1.149
 4463W        W69283  19.734  11.302   0.302
 4464W        W69284  27.610   7.824   2.730
 4465W        W69285   7.355  33.199   3.227
 4466W        W69286  28.899  29.642  13.324
 4467W        W69287  11.409  42.297  12.032
 4468W        W69288  41.831   0.382  14.267
 4469W        W69289  18.460   8.568  10.673
 4470W        W69290  41.888  41.916  14.720
 4471W        W69291  35.841  43.355  10.565
 4472W        W69292  39.952   5.611   4.786
 4473W        W69293  19.986  24.081   1.794
 4474W        W69294  23.217   3.297   4.170
 4475W        W69295  40.110  16.947   1.358
 4476W        W69296  27.089  22.574  12.806
 4477W        W69297  28.614  13.603  13.560
 4478W        W69298  31.477  39.226   4.694
 4479W        W69299  43.276  10.876  10.937
 4480W        W69300  14.060  33.499  14.331
 4481W        W69301   4.343  15.331  14.461
 4482W        W69302  20.315  10.025   4.678
 4483W        W69303   5.743  39.780  11.129
 4484W        W69304   7.011  15.047   4.081
 4485W        W69305  24.086  10.735  10.564
 4486W        W69306  34.448  36.429  14.064
 4487W        W69307  32.952  32.918   1.767
 4488W        W69308  28.906  19.393   4.659
 4489W        W69309  37.822  23.735   3.743
 4490W        W69310  34.021  35.947  12.605
 4491W        W69311  22.221  25.267   4.750
 4492W        W69312  37.808   8.252  14.671
 4493W        W69313  21.492  29.079   1.204
 4494W        W69314  20.642  22.312   3.866
 4495W        W69315  11.098  29.304   2.821
 4496W        W69316  41.859  40.960   0.087
 4497W        W69317  29.735  40.410  14.946
 4498W        W69318  15.322  28.878  12.011
 4499W        W69319   5.632  34.002   1.697
 4500W        W69320  42.854   5.369   0.790
 4501W        W69321   3.009  28.183  12.509
 4502W        W69322  28.420   6.171   0.738
 4503W        W69323  25.652  35.021   0.906
 4504W        W69324  29.666   2.596  12.422
 4505W        W69325  17.288   8.471   1.259
 4506W        W69326  30.606   9.668  14.965
 4507W        W69327  31.611  30.418  14.527
 4508W        W69328  43.340  35.531  14.027
 4509W        W69329  30.842  17.200  13.844
 4510W        W69330  17.563  42.010  11.812
 4511W        W69331  18.485  15.785  12.104
 4512W        W69332  18.552  34.065   5.009
 4513W        W69333  42.448  23.961   1.963
 4514W        W69334  11.859  41.066   3.216
 4515W        W69335  15.382  33.575  10.239
 4516W        W69336  39.921  37.591   1.532
 4517W        W69337  44.443  20.629   3.270
 4518W        W69338  13.719  20.946  11.046
 4519W        W69339  25.223   1.936   3.674
 4520W        W69340  32.432   4.303   3.154
 4521W        W69341  38.465  14.073   1.299
 4522W        W69342  39.176  36.391  14.236
 4523W        W69343  25.056  26.374  10.652
 4524W        W69344  14.867  36.575   3.718
 4525W        W69345  30.726  21.209   1.358
 4526W        W69346   0.575  22.740  10.683
 4527W        W69347   6.726  42.307  14.879
 4528W        W69348  19.197  32.566   1.493
 4529W        W69349   9.892  22.117   2.414
 4530W        W69350  37.547  33.584  13.901
 4531W        W69351  23.185   4.243   1.216
 4532W        W69352  42.944  44.067  12.934
 4533W        W69353  33.186  18.324  12.089
 4534W        W69354  44.518  24.155  12.963
 4535W        W69355  43.654   0.313   2.706
 4536W        W69356   0.324  29.869  13.387
 4537W        W69357   9.222  40.876   4.147
 4538W        W69358  24.614  44.732  13.411
 4539W        W69359  25.635  44.845  11.094
 4540W        W69360  17.081  35.516   0.344
 4541W        W69361   7.154  25.496   0.488
 4542W        W69362   8.349  34.331  10.754
 4543W        W69363  10.579  19.240   0.027
 4544W        W69364  44.691  35.029  14.836
 4545W        W69365   2.793  36.305  13.503
 4546W        W69366  27.963  33.113  10.668
 4547W        W69367  24.670  40.959   4.844
 4548W        W69368  14.083  42.677  12.618
 4549W        W69369  26.967   9.937  11.486
 4550W        W69370  20.477  15.286  12.378
 4551W        W69371  22.756  30.524  14.974
 4552W        W69372  19.969  33.971   2.732
 4553W        W69373  31.434  31.474  13.890
 4554W        W69374  22.451  10.237  13.998
 4555W        W69375  30.441  14.533   4.127
 4556W        W69376   0.381  15.172   4.978
 4557W        W69377  35.818  18.095   2.813
 4558W        W69378  27.171  40.338  13.300
 4559W        W69379  42.725  15.242   3.827
 4560W        W69380  36.823  29.598   2.812
 4561W        W69381  12.849  17.678   2.267
 4562W        W69382  15.630  26.608   1.230
 4563W        W69383   7.755  25.568  13.520
 4564W        W69384   9.411   3.662  12.420
 4565W        W69385   4.836  24.245   3.119
 4566W        W69386  29.623  33.321   2.168
 4567W        W69387  13.482  29.611  13.571
 4568W        W69388   7.222  25.357   2.857
 4569W        W69389  29.767  11.742   2.722
 4570W        W69390   6.901  27.429   0.306
 4571W        W69391  16.725  19.796   4.294
 4572W        W69392   2.321   3.036   4.731
 4573W        W69393  27.210   7.892  10.846
 4574W        W69394  14.190  19.572   1.930
 4575W        W69395  23.137  31.642   0.233
 4576W        W69396  27.475   7.138  12.173
 4577W        W69397  29.962  19.064  14.027
 4578W        W69398  34.012  38.600   2.306
 4579W        W69399  17.748  11.846   0.966
 4580W        W69400  43.352  29.481   2.687
 4581W        W69401  27.456   4.820   2.766
 4582W        W69402  27.212   4.816   3.666
 4583W        W69403  17.302  26.385   1.688
 4584W        W69404  22.721  21.296   4.487
 4585W        W69405   2.447  16.112   4.920
 4586W        W69406  13.597  21.666  10.492
 4587W        W69407  38.956  18.083   1.336
 4588W        W69408  19.833  10.744  12.089
 4589W        W69409  24.079  27.961  13.302
 4590W        W69410   5.837  26.877  14.453
 4591W        W69411  11.383  33.537   1.795
 4592W        W69412  17.000  22.029   4.501
 4593W        W69413  35.816   6.653  10.719
 4594W        W69414  42.934  11.340  13.791
 4595W        W69415   9.165  39.342  10.973
 4596W        W69416  30.629  13.581  13.104
 4597W        W69417   5.431  42.876   4.167
 4598W        W69418  33.971  16.768   2.231
 4599W        W69419  31.069  21.489  13.329
 4600W        W69420  32.713  13.613  11.205
 4601W        W69421  39.543  31.661  14.157
 4602W        W69422  31.334  13.298  11.586
 4603W        W69423  38.235   8.100  13.851
 4604W        W69424  15.612  43.940   1.261
 4605W        W69425  26.067  18.610   4.030
 4606W        W69426  27.108  12.671   3.691
 4607W        W69427  20.979   7.045  12.410
 4608W        W69428  43.922  26.567  11.113
 4609W        W69429  22.562  34.516   2.747
 4610W        W69430  40.073  25.731   4.909
 4611W        W69431  16.286  11.079  13.764
 4612W        W69432  12.294  43.246   3.711
 4613W        W69433   9.288  36.396  14.527
 4614W        W69434   6.874  32.939   4.185
 4615W        W69435  21.182  16.738  13.084
 4616W        W69436  22.571  33.847   1.306
 4617W        W69437  28.210  18.704  12.385
 4618W        W69438  30.462  33.105  12.963
 4619W        W69439  41.329  25.328  11.609
 4620W        W69440  32.987   5.308  11.733
 4621W        W69441  14.130  35.034  13.441
 4622W        W69442   0.826  20.325   3.439
 4623W        W69443  42.566  30.451   2.768
 4624W        W69444  24.726  27.336  14.311
 4625W        W69445  30.281  33.111   0.298
 4626W        W69446  43.989   4.966  12.443
 4627W        W69447  34.329  36.092   0.338
 4628W        W69448  13.889  28.730  10.125
 4629W        W69449   6.830   2.407   0.259
 4630W        W69450  23.768  34.711   2.194
 4631W        W69451  27.583  14.590   2.768
 4632W        W69452   5.358  15.407   5.039
 4633W        W69453  36.029  38.526  11.950
 4634W        W69454  12.750  28.756   2.364
 4635W        W69455   3.354  30.299   1.443
 4636W        W69456  25.115  35.819   3.242
 4637W        W69457   0.019   9.667   2.217
 4638W        W69458  18.248  43.027   1.902
 4639W        W69459   5.514  37.811  13.145
 4640W        W69460  27.588  38.389  14.949
 4641W        W69461   7.917  25.082   0.326
 4642W        W69462  44.978  19.130  12.367
 4643W        W69463  27.114  36.536  12.862
 4644W        W69464  22.300  37.193   0.791
 4645W        W69465  17.684  31.585  12.212
 4646W        W69466  35.883  28.398   0.344
 4647W        W69467  14.246  26.078   4.126
 4648W        W69468  36.837   5.927  14.390
 4649W        W69469  40.631  35.285   0.558
 4650W        W69470   2.886  41.542  14.350
 4651W        W69471  18.197  15.893  11.245
 4652W        W69472  25.645  22.623   1.199
 4653W        W69473  35.310  11.552  10.997
 4654W        W69474  10.891  20.519   2.804
 4655W        W69475  10.391  12.963   2.374
 4656W        W69476  42.877  27.935  11.752
 4657W        W69477  22.534  43.401  13.976
 4658W        W69478  23.219   1.356  13.776
 4659W        W69479  41.417  17.347  12.981
 4660W        W69480  41.969  32.437  14.032
 4661W        W69481  10.831  11.068  13.429
 4662W        W69482  38.033   5.425   2.376
 4663W        W69483  22.283   8.565   1.858
 4664W        W69484  36.452  11.730  12.915
 4665W        W69485  34.992  36.622   1.204
 4666W        W69486   6.215  40.026  11.084
 4667W        W69487  21.174  36.753  14.774
 4668W        W69488   4.922   6.744   1.263
 4669W        W69489  35.698   2.770  12.039
 4670W        W69490  39.687  41.274  12.390
 4671W        W69491  20.693  33.257   3.732
 4672W        W69492  31.967  15.447   0.909
 4673W        W69493  24.454  24.821   2.940
 4674W        W69494  23.210  11.499   3.010
 4675W        W69495  28.383  43.357  12.426
 4676W        W69496  15.036  33.548   3.070
 4677W        W69497   3.730   7.831  12.019
 4678W        W69498  33.404  33.523   0.226
 4679W        W69499  18.128  10.490   1.666
 4680W        W69500  41.233  11.651  11.908
 4681W        W69501  23.550  24.308   3.476
 4682W        W69502  38.939  44.753  13.400
 4683W        W69503  17.031  28.029  10.502
 4684W        W69504  20.012  17.553  14.067
 4685W        W69505  43.438  10.070   2.263
 4686W        W69506  34.590  23.707   0.369
 4687W        W69507  35.042   0.557  14.366
 4688W        W69508  32.508  35.982  12.060
 4689W        W69509   1.423   0.892   2.053
 4690W        W69510  43.434  14.374   3.303
 4691W        W69511  44.775  18.260  11.387
 4692W        W69512   9.661  11.094   2.457
 4693W        W69513  13.852   6.761   3.378
 4694W        W69514  22.738  41.049   3.732
 4695W        W69515  39.877  17.249  11.534
 4696W        W69516  13.237  34.066  12.993
 4697W        W69517  19.965   0.518  12.025
 4698W        W69518  39.569  43.567  14.716
 4699W        W69519  44.786  10.835   2.900
 4700W        W69520  11.284  18.614   1.199
 4701W        W69521  42.056  36.388   1.808
 4702W        W69522   2.969   3.310  12.102
 4703W        W69523  33.449  19.846   4.572
 4704W        W69524   4.236  14.432   2.721
 4705W        W69525  15.758  40.614   3.631
 4706W        W69526  39.506  16.485   3.844
 4707W        W69527  15.800  29.255  13.573
 4708W        W69528  24.436  26.509   1.448
 4709W        W69529  29.559  34.213  12.071
 4710W        W69530   1.386  15.714   3.378
 4711W        W69531   1.073   2.249  10.815
 4712W        W69532  26.087  44.885   3.630
 4713W        W69533   1.062  26.975   4.450
 4714W        W69534  42.736  32.947   3.118
 4715W        W69535   0.215   0.395   0.893
 4716W        W69536   2.143  28.465  11.610
 4717W        W69537  34.949  30.593  10.200
 4718W        W69538  32.749  32.959  12.118
 4719W        W69539  26.441  26.584  10.847
 4720W        W69540   3.215   4.965   2.695
 4721W        W69541   6.732   1.696   0.915
 4722W        W69542  16.842  36.021  13.983
 4723W        W69543  31.815  14.629   4.427
 4724W        W69544  21.314   9.025   1.899
 4725W        W69545  36.430  17.318   3.208
 4726W        W69546   5.862   8.116  13.360
 4727W        W69547  32.173   3.437  14.998
 4728W        W69548   1.127  10.648   2.777
 4729W        W69549  38.796   8.678   1.020
 4730W        W69550   6.768  11.695   4.397
 4731W        W69551   1.671  38.261  13.509
 4732W        W69552  21.054  31.515   2.001
 4733W        W69553  28.440  15.727  11.426
 4734W        W69554  23.727  37.142  13.433
 4735W        W69555  41.757   3.930   0.057
 4736W        W69556   6.363  35.052  11.620
 4737W        W69557  39.340  27.331  13.580
 4738W        W69558  39.003  34.154  13.658
 4739W        W69559  35.946  40.748   3.573
 4740W        W69560   9.061  12.182  14.803
 4741W        W69561  26.143  38.922  10.782
 4742W        W69562  25.145  18.559   9.926
 4743W        W69563  36.973   8.302  12.932
 4744W        W69564   6.798  44.234   1.988
 4745W        W69565  32.045  23.010   2.930
 4746W        W69566  27.579  28.210   1.784
 4747W        W69567  18.138  14.157   0.758
 4748W        W69568  33.784  24.343  12.623
 4749W        W69569  32.914  39.487  14.459
 4750W        W69570  38.033  18.681   3.488
 4751W        W69571  31.074   2.234  13.389
 4752W        W69572  17.183  39.021   2.756
 4753W        W69573  15.896  15.876   2.490
 4754W        W69574  24.697   9.184   4.144
 4755W        W69575  21.297  27.743  11.447
 4756W        W69576   4.938  34.005   4.644
 4757W        W69577   9.218  31.051  13.107
 4758W        W69578  17.633  11.345   1.138
 4759W        W69579  11.215   2.287  14.234
 4760W        W69580  30.678  38.804   2.198
 4761W        W69581   3.345  24.925   4.669
 4762W        W69582  17.750  27.561   4.316
 4763W        W69583  28.124  37.368   4.343
 4764W        W69584  44.270  43.982  11.331
 4765W        W69585  42.969  38.611   1.929
 4766W        W69586  43.780  10.808   3.863
 4767W        W69587  13.329  42.385   3.278
 4768W        W69588  36.414  12.115   2.677
 4769W        W69589  19.947   4.223   0.432
 4770W        W69590  25.694  21.090   5.319
 4771W        W69591  16.360  36.090  14.353
 4772W        W69592   4.484  41.824   1.836
 4773W        W69593  17.529  38.037   3.663
 4774W        W69594   0.768  16.116  12.465
 4775W        W69595   8.860   1.160   1.670
 4776W        W69596  41.385  38.965   4.634
 4777W        W69597   6.327  28.030   4.116
 4778W        W69598  17.681  10.578   4.616
 4779W        W69599  26.447  38.042  14.411
 4780W        W69600  20.579   4.705   3.190
 4781W        W69601  37.602  20.973   0.960
 4782W        W69602  42.761  41.262  13.386
 4783W        W69603  11.784  30.950  13.629
 4784W        W69604  16.234   6.289  10.718
 4785W        W69605   7.589  37.349   1.312
 4786W        W69606  28.225   3.840   1.637
 4787W        W69607  26.080  19.482   1.741
 4788W        W69608  10.605  41.487  11.189
 4789W        W69609   9.789  30.110   0.315
 4790W        W69610   6.627  22.503   4.166
 4791W        W69611  41.430   7.403   3.906
 4792W        W69612  17.222  43.763  11.058
 4793W        W69613  29.139  14.724   0.761
 4794W        W69614  34.820  22.034   4.052
 4795W        W69615  39.679  24.770   4.040
 4796W        W69616  18.018   4.721  13.436
 4797W        W69617  15.254  12.955  14.867
 4798W        W69618  29.552   2.813   0.259
 4799W        W69619  15.502  43.032   3.767
 4800W        W69620  14.153   5.850   1.958
 4801W        W69621  28.511  30.652  11.499
 4802W        W69622  35.940  23.049   3.659
 4803W        W69623  32.677   0.423  11.623
 4804W        W69624   1.923   9.689   3.064
 4805W        W69625  20.976  39.550  10.209
 4806W        W69626   4.180  25.728   9.751
 4807W        W69627  32.539  17.603  14.241
 4808W        W69628  31.219  35.893   1.178
 4809W        W69629  12.146  32.849  14.828
 4810W        W69630  40.113  18.198   2.186
 4811W        W69631  39.446  22.281   1.299
 4812W        W69632  29.374   1.261   4.415
 4813W        W69633  27.018  39.569   2.257
 4814W        W69634  29.129  33.780  10.758
 4815W        W69635  32.052  28.406   3.482
 4816W        W69636  41.607   5.465  12.446
 4817W        W69637   8.375  44.801  13.847
 4818W        W69638  32.850  27.148  11.231
 4819W        W69639  19.316  35.553   3.235
 4820W        W69640  28.507  22.175   3.174
 4821W        W69641  39.788  44.493  12.496
 4822W        W69642   4.403   2.644  14.872
 4823W        W69643  41.923  32.159   0.297
 4824W        W69644  41.899  43.051   4.120
 4825W        W69645  28.542  17.690  11.486
 4826W        W69646   4.168   4.367  12.031
 4827W        W69647  13.273  14.129  13.164
 4828W        W69648   9.633  26.728   0.821
 4829W        W69649  13.656  35.469   1.242
 4830W        W69650  18.502   4.860  12.537
 4831W        W69651  38.285  24.414  13.394
 4832W        W69652   1.862  35.059  11.679
 4833W        W69653  11.274  23.480  11.053
 4834W        W69654  13.447  17.927   3.608
 4835W        W69655  26.349  43.866   2.252
 4836W        W69656  26.722  44.466  12.557
 4837W        W69657  20.969  36.386  12.433
 4838W        W69658  22.500  18.126   3.047
 4839W        W69659   9.931  34.447   0.160
 4840W        W69660  15.063  31.518   0.160
 4841W        W69661   8.714   7.646   1.795
 4842W        W69662  15.260  42.328   3.282
 4843W        W69663  13.787  35.824  10.530
 4844W        W69664  23.473  37.334  11.107
 4845W        W69665  20.622   5.209   3.109
 4846W        W69666  32.767  34.398  11.074
 4847W        W69667  31.873  14.138   3.682
 4848W        W69668  35.886   0.020  11.939
 4849W        W69669  37.712  33.017   2.220
 4850W        W69670  35.872  28.833   2.553
 4851W        W69671  14.903   6.135  12.686
 4852W        W69672   5.406  44.030   2.356
 4853W        W69673  37.445  19.070  14.301
 4854W        W69674  39.999  13.371  12.432
 4855W        W69675  14.572  37.985  12.594
 4856W        W69676  40.507  18.370  14.069
 4857W        W69677  25.653  18.499   2.692
 4858W        W69678   7.211   9.760  11.657
 4859W        W69679  18.005  13.205   2.344
 4860W        W69680   1.896  19.591   1.252
 4861W        W69681  28.944  13.795   2.775
 4862W        W69682  33.953  27.179   0.370
 4863W        W69683  12.406   1.442   4.844
 4864W        W69684  27.053  35.495  14.839
 4865W        W69685   7.812   6.189   1.965
 4866W        W69686  29.516   7.788  13.323
 4867W        W69687   9.374  23.749  10.422
 4868W        W69688  21.227  40.303  12.068
 4869W        W69689  36.111  31.880  11.928
 4870W        W69690   3.732  10.498  14.404
 4871W        W69691  37.554   1.736  14.492
 4872W        W69692  26.874  26.893   1.298
 4873W        W69693  35.779   8.873  11.102
 4874W        W69694  37.097   3.481   1.737
 4875W        W69695  35.398  43.078  13.653
 4876W        W69696  18.029   0.369   3.956
 4877W        W69697   9.572   3.173  12.004
 4878W        W69698  15.804  32.830   0.620
 4879W        W69699  31.326  41.578   2.854
 4880W        W69700  39.292   5.448   1.720
 4881W        W69701  21.796  37.385   0.777
 4882W        W69702   0.412  30.474  12.057
 4883W        W69703   9.428  40.323   1.947
 4884W        W69704  22.176  16.425   0.906
 4885W        W69705  27.877  20.576   4.744
 4886W        W69706   8.121  33.914   1.764
 4887W        W69707  21.672   2.567  14.125
 4888W        W69708  21.782  32.542   3.366
 4889W        W69709  32.689   2.443   0.877
 4890W        W69710  34.782  12.906  12.959
 4891W        W69711  36.866  34.077  14.934
 4892W        W69712  26.030  20.659  13.165
 4893W        W69713  24.179   7.767   3.588
 4894W        W69714   5.974  29.839   2.629
 4895W        W69715  44.736   8.202  11.427
 4896W        W69716  25.679  31.094  11.213
 4897W        W69717  40.052  14.596  12.131
 4898W        W69718  32.390  15.723  12.031
 4899W        W69719  15.842  34.928   2.390
 4900W        W69720  17.054  15.746  11.830
 4901W        W69721  40.366  13.214   1.389
 4902W        W69722   9.456  30.582  14.000
 4903W        W69723  39.528  27.427   1.378
 4904W        W69724  21.540   7.696  11.433
 4905W        W69725   4.932  27.836  11.566
 4906W        W69726   8.118   2.915   2.391
 4907W        W69727  11.533  39.974  10.135
 4908W        W69728  10.083  15.787   2.274
 4909W        W69729  43.766   1.441   4.391
 4910W        W69730  34.467  20.174   3.211
 4911W        W69731  25.651  10.183  13.176
 4912W        W69732  34.257  40.913   1.205
 4913W        W69733  42.896  31.649  10.607
 4914W        W69734  34.068  42.609  10.748
 4915W        W69735   5.433  25.969   3.147
 4916W        W69736  27.497  31.025  12.102
 4917W        W69737  35.088  35.274   0.813
 4918W        W69738   9.314  12.545  11.669
 4919W        W69739  34.377   5.148   4.755
 4920W        W69740   9.801   2.483   3.666
 4921W        W69741  15.237  17.910  12.534
 4922W        W69742  28.678  13.684  10.669
 4923W        W69743  15.341  42.680   0.939
 4924W        W69744  10.650  27.730   4.042
 4925W        W69745  38.545  12.255  13.363
 4926W        W69746  43.966  33.403   0.319
 4927W        W69747   0.547  13.686   0.356
 4928W        W69748  30.878  34.642   5.073
 4929W        W69749  19.143  11.220   4.343
 4930W        W69750  31.487   0.904  11.939
 4931W        W69751  11.811   1.610   2.738
 4932W        W69752  44.530  21.281  12.107
 4933W        W69753   3.346  39.936  10.166
 4934W        W69754  33.977  39.909   2.729
 4935W        W69755  26.187  30.496  14.720
 4936W        W69756  44.268  14.252   0.149
 4937W        W69757   4.295  43.132  11.055
 4938W        W69758  34.754  22.800   0.199
 4939W        W69759  17.215   0.245  12.058
 4940W        W69760   0.114  18.270   2.471
 4941W        W69761  14.508  33.220   1.335
 4942W        W69762  33.574  29.067   2.128
 4943W        W69763  25.848   3.844  10.900
 4944W        W69764   7.861  17.101  14.033
 4945W        W69765  14.631  24.015  13.588
 4946W        W69766  32.573  32.462   0.938
 4947W        W69767  27.471  12.357  11.491
 4948W        W69768   5.838  15.072   3.010
 4949W        W69769  25.551   5.510   4.369
 4950W        W69770  32.058  12.409   4.596
 4951W        W69771  21.222  43.134  13.378
 4952W        W69772   1.366  22.246   0.289
 4953W        W69773  36.051  30.578  11.587
 4954W        W69774  44.395  32.173   0.717
 4955W        W69775   4.008  22.338  10.637
 4956W        W69776  20.140  35.143  12.380
 4957W        W69777  19.091   5.951   0.728
 4958W        W69778   3.407  40.884  13.294
 4959W        W69779   0.876   6.252   2.870
 4960W        W69780   8.635   1.291  11.223
 4961W        W69781  41.276  32.259  14.487
 4962W        W69782  35.888  29.926  14.438
 4963W        W69783   4.197   1.869  12.088
 4964W        W69784  17.356  22.286   0.931
 4965W        W69785  36.064  17.277   0.609
 4966W        W69786  17.295  29.474  12.903
 4967W        W69787  33.836  38.417   0.031
 4968W        W69788  18.477   5.311   0.387
 4969W        W69789  10.325   2.439  13.329
 4970W        W69790   3.450   5.433   2.832
 4971W        W69791  18.757  12.230  13.734
 4972W        W69792  13.744  30.492   2.238
 4973W        W69793  25.456  40.004  11.706
 4974W        W69794  30.354   8.172   2.716
 4975W        W69795  36.062  29.653   0.812
 4976W        W69796  43.438  18.268   3.198
 4977W        W69797   9.212  43.921  11.034
 4978W        W69798  36.985  26.050   4.584
 4979W        W69799  43.751   6.651  11.665
 4980W        W69800  26.568  23.513   0.528
 4981W        W69801  33.952   0.531   1.720
 4982W        W69802  19.718   1.025   0.333
 4983W        W69803  28.970   2.445  11.181
 4984W        W69804  32.133  22.047   2.730
 4985W        W69805  43.379  25.690  13.357
 4986W        W69806  35.623  37.349  11.468
 4987W        W69807  31.449  28.151  11.687
 4988W        W69808  27.906  32.122   1.827
 4989W        W69809  40.994  11.946  11.043
 4990W        W69810  18.621  20.193   3.883
 4991W        W69811  26.274   2.259   5.070
 4992W        W69812   2.419  21.036   0.787
 4993W        W69813  17.310  30.104   4.519
 4994W        W69814  13.156   6.911  10.585
 4995W        W69815  19.985   4.892  13.809
 4996W        W69816  20.660   3.530  13.873
 4997W        W69817   7.304  27.167  12.052
 4998W        W69818  23.121  34.292   3.667
 4999W        W69819   8.854   8.403   4.939
 5000W        W69820  13.478  36.500  12.870
 5001W        W69821  12.719  10.497   1.845
 5002W        W69822  26.689  21.026  11.788
 5003W        W69823   7.110  40.476  13.002
 5004W        W69824  29.248  29.531   2.767
 5005W        W69825  25.832   5.247  11.163
 5006W        W69826  35.313  16.921   2.138
 5007W        W69827  19.292  43.838   1.664
 5008W        W69828  36.142  41.528  14.995
 5009W        W69829  33.987  37.350  10.483
 5010W        W69830  15.591  43.382  12.957
 5011W        W69831   5.710   3.784  12.469
 5012W        W69832  42.561  20.273   3.855
 5013W        W69833  42.405  27.546   4.059
 5014W        W69834  21.083   7.860   2.739
 5015W        W69835  31.007  31.033  13.340
 5016W        W69836  18.224  20.156   1.367
 5017W        W69837  30.538  25.332  10.319
 5018W        W69838  31.582  39.746   4.865
 5019W        W69839  18.039  40.018  13.362
 5020W        W69840  11.195  26.734  13.970
 5021W        W69841  29.060   2.233   2.285
 5022W        W69842   0.075  14.743   0.833
 5023W        W69843  20.477  11.305   2.689
 5024W        W69844  22.116   8.690   1.326
 5025W        W69845  12.903  12.063   4.182
 5026W        W69846  28.706  24.151  13.023
 5027W        W69847  29.423  10.618   2.465
 5028W        W69848  19.931  31.531   1.099
 5029W        W69849   1.142  32.682  10.436
 5030W        W69850  23.411  20.719  13.711
 5031W        W69851  10.170   8.220  10.368
 5032W        W69852  12.276  37.454   1.455
 5033W        W69853  39.376  21.163   3.172
 5034W        W69854  30.532  31.036  13.084
 5035W        W69855  44.102   7.875  13.979
 5036W        W69856   0.466  42.523  14.812
 5037W        W69857  22.225  15.800  12.140
 5038W        W69858  36.572  34.505  14.840
 5039W        W69859  20.196   9.504  14.330
 5040W        W69860  27.011  37.471  13.875
 5041W        W69861  36.044  32.461  10.706
 5042W        W69862  28.510  35.743  13.149
 5043W        W69863  18.080   5.221  13.413
 5044W        W69864   5.734  15.136  13.025
 5045W        W69865   6.311  31.881   5.406
 5046W        W69866  20.585  12.803  11.135
 5047W        W69867   3.936   4.847  10.171
 5048W        W69868  31.508  17.031  11.491
 5049W        W69869  17.822  21.083  12.559
 5050W        W69870  11.009  21.780   0.372
 5051W        W69871  13.696  34.896  10.423
 5052W        W69872  14.923  35.251  12.988
 5053W        W69873  11.392  44.896   3.723
 5054W        W69874   9.390   7.242  11.266
 5055W        W69875   0.449   0.796   2.304
 5056W        W69876   6.022  34.342   4.875
 5057W        W69877   7.263  23.590  10.668
 5058W        W69878  20.277   2.319   4.416
 5059W        W69879  24.999  30.424   0.445
 5060W        W69880  21.572   9.865   0.817
 5061W        W69881  24.117  32.860   3.171
 5062W        W69882   1.591  18.637  11.152
 5063W        W69883  22.718  10.739  12.722
 5064W        W69884  34.946  29.634  10.625
 5065W        W69885   9.453  40.574   0.962
 5066W        W69886   5.769  37.822  10.455
 5067W        W69887  30.583   2.252  13.176
 5068W        W69888  23.077  23.991  12.002
 5069W        W69889  28.002  13.822   4.473
 5070W        W69890  34.953   6.230  12.387
 5071W        W69891  35.061  29.845   3.334
 5072W        W69892  14.671   2.155   3.868
 5073W        W69893   4.862   2.221  13.395
 5074W        W69894   3.884   4.392   4.206
 5075W        W69895  24.455  11.665  14.024
 5076W        W69896  44.432  25.964   2.227
 5077W        W69897  18.587  23.750  11.482
 5078W        W69898  20.811  33.600  14.777
 5079W        W69899  42.086   8.919  14.000
 5080W        W69900  18.361  38.797   2.594
 5081W        W69901  41.047  15.219  11.552
 5082W        W69902  30.973  29.124  13.735
 5083W        W69903  29.890  38.050  13.500
 5084W        W69904   6.998  16.516  13.822
 5085W        W69905  43.865  15.078   4.616
 5086W        W69906  20.674  24.283  13.433
 5087W        W69907  17.180  10.152   1.712
 5088W        W69908  34.944  20.008   3.174
 5089W        W69909  38.903  36.848   0.547
 5090W        W69910  14.987  43.079   3.718
 5091W        W69911   1.711  15.059   4.129
 5092W        W69912   2.055  25.196  13.802
 5093W        W69913  12.155   3.995   2.784
 5094W        W69914  35.026  24.563   2.378
 5095W        W69915  12.851  25.391  12.962
 5096W        W69916   4.333  17.016  11.858
 5097W        W69917  25.510  37.119   0.528
 5098W        W69918  14.126  19.106   2.222
 5099W        W69919  11.118  21.906   2.687
 5100W        W69920  20.745   8.735  10.526
 5101W        W69921  43.966  25.199  10.638
 5102W        W69922  38.570   2.858   3.342
 5103W        W69923  24.607   3.175  11.717
 5104W        W69924   7.357  12.714  14.099
 5105W        W69925  32.497  24.326  12.268
 5106W        W69926  18.094  29.357  11.451
 5107W        W69927  36.120  19.154   4.085
 5108W        W69928  27.109   5.729   4.741
 5109W        W69929  32.380  38.316   0.522
 5110W        W69930   3.146  13.860  10.782
 5111W        W69931  40.848  11.848   1.669
 5112W        W69932  31.214  27.829  12.565
 5113W        W69933  35.400  14.090   2.636
 5114W        W69934  22.425  23.438  11.134
 5115W        W69935  10.897  16.172   1.214
 5116W        W69936  35.096  44.795   1.333
 5117W        W69937  38.943  23.565  10.662
 5118W        W69938   4.333  33.970  13.467
 5119W        W69939  29.002  40.352   0.809
 5120W        W69940  10.093  18.798  14.428
 5121W        W69941  18.737  19.172   4.831
 5122W        W69942   8.468  43.528   2.702
 5123W        W69943  28.703   6.782   2.323
 5124W        W69944  43.865  19.330   1.743
 5125W        W69945   1.689  11.820   3.484
 5126W        W69946  34.704   6.562   0.392
 5127W        W69947  16.283  11.091   0.689
 5128W        W69948   0.335   0.907   1.359
 5129W        W69949  39.586  24.778   0.266
 5130W        W69950   3.402  34.387   1.000
 5131W        W69951   6.758  43.725  11.579
 5132W        W69952   2.950  36.532   3.801
 5133W        W69953  12.054  11.535  11.889
 5134W        W69954  22.782  23.023  14.090
 5135W        W69955  27.667  20.920   3.155
 5136W        W69956   0.315  31.056   0.899
 5137W        W69957  32.333  37.402  14.050
 5138W        W69958   8.481  22.134   4.332
 5139W        W69959  22.416  40.718  13.188
 5140W        W69960  35.437  22.668   1.659
 5141W        W69961  23.221  28.549  11.186
 5142W        W69962  12.541  17.053   2.241
 5143W        W69963   7.707   9.764  10.412
 5144W        W69964  31.950  43.434   1.295
 5145W        W69965  35.539  40.996  14.547
 5146W        W69966  33.411  15.591   2.127
 5147W        W69967  17.589  13.094   0.224
 5148W        W69968  22.575  44.850   1.664
 5149W        W69969   3.890   9.543  11.678
 5150W        W69970  25.130  42.013   2.824
 5151W        W69971  20.948  26.468  12.398
 5152W        W69972  10.695  31.090   3.799
 5153W        W69973  44.478  26.570  14.553
 5154W        W69974  33.139  41.903   2.721
 5155W        W69975  19.618  37.122   2.548
 5156W        W69976  31.717  25.708   4.769
 5157W        W69977  21.102  31.593   1.501
 5158W        W69978  14.074  22.013  13.456
 5159W        W69979  34.426  21.579  10.579
 5160W        W69980   1.314   1.240   4.563
 5161W        W69981   5.584   1.551  13.793
 5162W        W69982  39.549   4.906  12.513
 5163W        W69983  13.633   2.251   1.831
 5164W        W69984  35.066   4.939  13.884
 5165W        W69985   3.195  10.930   1.456
 5166W        W69986  31.856  41.530  13.191
 5167W        W69987  41.709  43.763   2.277
 5168W        W69988  29.526  27.011  11.967
 5169W        W69989  24.252   9.795   2.176
 5170W        W69990   5.394  16.857   0.553
 5171W        W69991  22.103   0.946  12.010
 5172W        W69992  38.455  20.943   0.674
 5173W        W69993  26.054  31.375  14.465
 5174W        W69994  31.293  10.568   4.806
 5175W        W69995   5.874  42.744  11.667
 5176W        W69996  28.238  26.977   2.591
 5177W        W69997  40.365  44.703   1.327
 5178W        W69998   6.685  42.246  10.738
 5179W        W69999   7.644  30.464   0.240
 5180W        W70000  32.697  44.820   1.723
 5181W        W70001  40.442  26.138   3.234
 5182W        W70002  39.902  13.174  14.949
 5183W        W70003  35.514  35.576   0.753
 5184W        W70004  35.951   4.225   3.431
 5185W        W70005   9.448  22.725  11.569
 5186W        W70006  28.477  28.096   4.793
 5187W        W70007   3.780  42.919  12.994
 5188W        W70008   0.161  15.343   3.388
 5189W        W70009   0.336  34.011   4.447
 5190W        W70010   8.354  13.857  12.922
 5191W        W70011  33.707  39.237  11.668
 5192W        W70012  18.211  43.262  13.866
 5193W        W70013  32.080  32.824   1.793
 5194W        W70014  37.483   0.291   0.191
 5195W        W70015  29.937  33.924  11.105
 5196W        W70016  39.955  16.914   2.807
 5197W        W70017   3.710  33.023   3.618
 5198W        W70018   1.056   6.347  13.958
 5199W        W70019  24.062  39.599  12.567
 5200W        W70020  20.692  41.505  11.708
 5201W        W70021  37.392  30.473  13.383
 5202W        W70022  36.005  27.483  12.554
 5203W        W70023  21.273  23.017   2.125
 5204W        W70024   3.735  28.121   1.240
 5205W        W70025  33.744   6.920  10.389
 5206W        W70026  10.609  24.232  10.925
 5207W        W70027   3.940  14.276  11.595
 5208W        W70028   7.866   9.347  11.177
 5209W        W70029   0.946  20.513   4.832
 5210W        W70030  11.735  18.110   1.319
 5211W        W70031  35.528  32.965  13.348
 5212W        W70032  27.611  17.302   2.091
 5213W        W70033  15.288  10.381   0.731
 5214W        W70034  42.276  22.014   1.769
 5215W        W70035  31.764  41.488   1.482
 5216W        W70036  12.717  20.002  11.567
 5217W        W70037  35.024  34.773   1.766
 5218W        W70038   2.220  22.296  13.309
 5219W        W70039   1.142  40.420   4.572
 5220W        W70040  38.107  25.740  13.239
 5221W        W70041  35.059  31.325  14.871
 5222W        W70042  32.142  38.535   2.740
 5223W        W70043   2.220  28.555   1.720
 5224W        W70044  23.178  29.635   2.605
 5225W        W70045   5.477  36.904   3.719
 5226W        W70046  26.890  43.919   4.522
 5227W        W70047  13.684  41.259   0.289
 5228W        W70048  12.346  20.981   3.656
 5229W        W70049   5.237   2.760   2.146
 5230W        W70050  10.557   8.906  10.703
 5231W        W70051  29.530   4.326  10.988
 5232W        W70052  20.024  44.733  10.529
 5233W        W70053  11.496  15.699   3.350
 5234W        W70054  24.499  33.195  13.513
 5235W        W70055  40.828   2.411   1.794
 5236W        W70056   1.816  32.862  11.099
 5237W        W70057  14.846  15.348  13.778
 5238W        W70058  38.303  43.937  14.442
 5239W        W70059  27.711  27.352  10.431
 5240W        W70060  33.066  10.642  13.794
 5241W        W70061   3.246  28.025  14.972
 5242W        W70062  27.747  23.813   3.181
 5243W        W70063  23.956  43.459   1.906
 5244W        W70064  26.937  28.644   3.118
 5245W        W70065  28.483  41.729   0.873
 5246W        W70066   5.919   2.228   1.366
 5247W        W70067  14.551  44.158  12.436
 5248W        W70068  40.852  15.937   5.062
 5249W        W70069  42.951   1.124  11.707
 5250W        W70070  23.205  43.813  14.487
 5251W        W70071  34.977  18.053  12.927
 5252W        W70072   5.759   9.973  14.488
 5253W        W70073  20.962  11.506   0.267
 5254W        W70074  43.451  14.133   0.209
 5255W        W70075  21.509  40.768  14.360
 5256W        W70076  29.327  18.696   4.162
 5257W        W70077  11.310   9.335   1.411
 5258W        W70078  36.471  33.113   2.241
 5259W        W70079  19.554  15.377   1.952
 5260W        W70080  42.566   1.889   1.618
 5261W        W70081  28.177  35.963  14.961
 5262W        W70082  34.189   1.561   3.797
 5263W        W70083  17.555   8.397  14.809
 5264W        W70084  12.342  24.944   2.766
 5265W        W70085  24.068  30.432   0.432
 5266W        W70086  10.723  33.254  14.256
 5267W        W70087  38.044  12.938  11.554
 5268W        W70088  30.967  11.524  10.637
 5269W        W70089   4.640  39.796   2.624
 5270W        W70090  13.191  26.795   3.722
 5271W        W70091  39.541  29.541   4.263
 5272W        W70092  22.712  26.022  13.315
 5273W        W70093  26.071   4.803  11.049
 5274W        W70094  18.844  28.143  10.695
 5275W        W70095  30.194   2.830   1.887
 5276W        W70096   5.410  37.850   2.729
 5277W        W70097  44.057  42.414  14.341
 5278W        W70098  14.671   0.473   4.369
 5279W        W70099  24.092  21.841   2.222
 5280W        W70100  44.289  43.325  14.878
 5281W        W70101  30.643  27.694   3.360
 5282W        W70102   5.398  42.096  12.099
 5283W        W70103  40.512  19.117   0.939
 5284W        W70104   7.013  20.475  11.539
 5285W        W70105  11.167  21.510  14.529
 5286W        W70106  25.539   8.954   1.325
 5287W        W70107  20.164  37.568  11.033
 5288W        W70108  19.952  21.574   2.911
 5289W        W70109  37.940   0.165  14.982
 5290W        W70110  42.519  28.099  10.848
 5291W        W70111   3.770   7.111  14.813
 5292W        W70112   9.745  29.584   4.604
 5293W        W70113   3.036   3.858  10.803
 5294W        W70114  37.818  13.515   3.825
 5295W        W70115  22.753  28.392  13.941
 5296W        W70116  17.177  34.471   0.499
 5297W        W70117  27.233   1.257   0.236
 5298W        W70118  36.667   7.898  14.856
 5299W        W70119  12.544  21.294  12.096
 5300W        W70120  10.450   0.364   0.932
 5301W        W70121  39.773   4.714  14.459
 5302W        W70122   7.317  36.012   4.292
 5303W        W70123   4.364  25.262   2.460
 5304W        W70124   8.201  12.647  12.478
 5305W        W70125  40.566  24.778   4.523
 5306W        W70126  33.627  19.287  14.789
 5307W        W70127  34.199   7.926  13.349
 5308W        W70128  21.164  11.844  11.252
 5309W        W70129   2.941  27.968   1.698
 5310W        W70130  12.819  42.915  13.634
 5311W        W70131   6.140  12.342   3.634
 5312W        W70132  13.413   3.252  10.757
 5313W        W70133  27.948  10.435  12.062
 5314W        W70134   9.662  27.505   1.243
 5315W        W70135  16.323   7.018   0.913
 5316W        W70136   9.305  26.099   3.715
 5317W        W70137  30.057   2.697   3.984
 5318W        W70138  18.824  17.091  11.093
 5319W        W70139  35.000  13.856   0.520
 5320W        W70140  22.761  42.026  12.377
 5321W        W70141  21.662   5.935   0.589
 5322W        W70142  24.549   8.207  14.896
 5323W        W70143  21.925  34.617   3.261
 5324W        W70144  44.243  10.117   3.803
 5325W        W70145  31.200   3.410   1.182
 5326W        W70146  39.413  25.275   2.613
 5327W        W70147  32.882   9.804  11.489
 5328W        W70148  24.441  16.346  13.781
 5329W        W70149   6.477  21.558   5.105
 5330W        W70150  16.178  24.232   0.087
 5331W        W70151  15.048   7.653  13.475
 5332W        W70152  32.843  30.092  14.098
 5333W        W70153  38.076   0.416  14.442
 5334W        W70154   8.092   4.338   0.788
 5335W        W70155   9.998  43.015  12.919
 5336W        W70156   8.664  25.972  11.602
 5337W        W70157  20.752  25.649  13.548
 5338W        W70158  37.895  27.975  10.364
 5339W        W70159   5.626  26.095  13.651
 5340W        W70160  32.031   6.932  10.769
 5341W        W70161  23.147  29.757   2.112
 5342W        W70162   1.412  29.891  13.872
 5343W        W70163  15.945  29.992   0.316
 5344W        W70164  24.648  26.596   2.209
 5345W        W70165  19.799  21.035  12.843
 5346W        W70166  38.597  14.781  13.494
 5347W        W70167  20.119  28.235  12.591
 5348W        W70168   9.165  19.155  11.697
 5349W        W70169  29.656  13.172  12.434
 5350W        W70170  12.892  35.952   1.804
 5351W        W70171   7.766  15.339  12.473
 5352W        W70172  24.688  18.997  14.301
 5353W        W70173  20.110   0.483  14.197
 5354W        W70174   6.723  31.330  11.126
 5355W        W70175   7.918   3.367   3.653
 5356W        W70176   9.323  27.976  10.720
 5357W        W70177  20.545   9.167  11.833
 5358W        W70178  30.062  23.631  14.746
 5359W        W70179  16.836  29.441  13.933
 5360W        W70180  14.661   9.621  11.200
 5361W        W70181  21.545  19.811  12.365
 5362W        W70182  10.810  19.671   4.547
 5363W        W70183   5.170  15.650  10.719
 5364W        W70184  44.332  26.917  11.059
 5365W        W70185  32.847   5.203  12.665
 5366W        W70186  21.218   0.064   1.713
 5367W        W70187  37.432  44.338   3.561
 5368W        W70188  43.341  18.312   1.856
 5369W        W70189  28.935  22.692   0.866
 5370W        W70190  13.852  12.818  11.498
 5371W        W70191  40.799  35.167  13.864
 5372W        W70192  30.678  26.583   1.710
 5373W        W70193  12.022  41.540   0.460
 5374W        W70194  23.344   2.697  10.595
 5375W        W70195  38.711  14.604   4.232
 5376W        W70196   6.593  17.695  10.707
 5377W        W70197   6.700   5.829   3.798
 5378W        W70198   5.170   3.417  13.083
 5379W        W70199  30.741  41.053  13.463
 5380W        W70200   3.183  39.318  11.428
 5381W        W70201  41.765  10.137   1.750
 5382W        W70202  24.669  20.612   1.306
 5383W        W70203  28.565   2.391  14.607
 5384W        W70204  38.848   7.701   4.047
 5385W        W70205  29.370  17.273  10.483
 5386W        W70206  43.315  38.487  11.422
 5387W        W70207   3.915  33.661   2.894
 5388W        W70208   9.157  17.604  10.494
 5389W        W70209  20.484  44.310  11.668
 5390W        W70210  34.210  23.073  12.402
 5391W        W70211  14.306  30.085  12.052
 5392W        W70212  25.902  37.072   0.887
 5393W        W70213   5.073  42.951   3.323
 5394W        W70214  28.907  26.504   4.551
 5395W        W70215  28.087  39.906  10.229
 5396W        W70216  22.595  16.511  13.242
 5397W        W70217  22.259  18.410  10.395
 5398W        W70218  25.594  13.716  10.578
 5399W        W70219  18.107  30.658   3.892
 5400W        W70220  40.376  26.606   2.988
 5401W        W70221   2.229  33.414   0.394
 5402W        W70222  36.700  19.134  10.204
 5403W        W70223  37.616  39.535   4.702
 5404W        W70224  32.382  30.607  14.870
 5405W        W70225   4.702  19.295  14.404
 5406W        W70226  27.796   7.975   1.786
 5407W        W70227  10.851  43.966   0.340
 5408W        W70228  44.811  31.035  14.653
 5409W        W70229  44.824  28.901  13.992
 5410W        W70230  30.636  21.777  13.204
 5411W        W70231  29.931  39.959  10.883
 5412W        W70232   7.476  16.092   4.554
 5413W        W70233  25.763   1.484  14.002
 5414W        W70234  29.086  21.546   4.265
 5415W        W70235  10.471  43.360   4.542
 5416W        W70236   0.879  34.906  13.525
 5417W        W70237  36.501   0.281  13.563
 5418W        W70238   1.085  31.140  11.070
 5419W        W70239  22.315  37.665  11.525
 5420W        W70240  29.032  30.791  14.275
 5421W        W70241  32.965  33.020  14.044
 5422W        W70242  22.440  19.123   4.712
 5423W        W70243   6.899  32.832  14.068
 5424W        W70244   8.015  34.589  11.083
 5425W        W70245   1.784  23.311   3.461
 5426W        W70246  16.528  44.230  10.536
 5427W        W70247  44.368  14.180   2.211
 5428W        W70248  43.794  29.737   3.118
 5429W        W70249   6.285  25.966  13.070
 5430W        W70250  28.988  42.630   1.701
 5431W        W70251  36.257   3.959   0.809
 5432W        W70252  21.087  44.509  14.913
 5433W        W70253   6.911  21.490  12.523
 5434W        W70254  31.915  20.811  13.202
 5435W        W70255  27.067  27.391   1.408
 5436W        W70256  37.549  10.155  13.027
 5437W        W70257  40.277  11.347  14.884
 5438W        W70258  29.105   9.964   1.975
 5439W        W70259  43.829  15.148  13.351
 5440W        W70260  22.486  19.777  12.844
 5441W        W70261   8.100  28.931   2.921
 5442W        W70262   8.457  37.616   4.210
 5443W        W70263  28.292  33.998   4.475
 5444W        W70264   1.326  32.594   3.902
 5445W        W70265  12.106   9.911   4.073
 5446W        W70266  21.353  13.230   5.170
 5447W        W70267  41.887   8.310   3.659
 5448W        W70268  44.730   7.796  10.700
 5449W        W70269  37.047  23.710  12.077
 5450W        W70270  22.082  24.526   0.715
 5451W        W70271   4.286   4.923   3.772
 5452W        W70272   5.168  23.487   0.529
 5453W        W70273  24.226  43.485  14.492
 5454W        W70274   6.276  41.436   3.185
 5455W        W70275  32.645   4.514  12.077
 5456W        W70276  43.766  11.710   3.965
 5457W        W70277  14.611  25.515   1.937
 5458W        W70278  43.497  37.539  13.406
 5459W        W70279  22.593   5.109   0.810
 5460W        W70280  26.646  25.783   0.961
 5461W        W70281  35.827  35.926   4.341
 5462W        W70282  37.923  38.274  13.735
 5463W        W70283  30.022  44.000  12.847
 5464W        W70284  41.367  23.611   3.055
 5465W        W70285  27.360   0.879   1.377
 5466W        W70286  15.121   5.724   1.830
 5467W        W70287  39.041   7.164  12.438
 5468W        W70288   3.154  39.312  13.894
 5469W        W70289  25.535  14.569   3.141
 5470W        W70290  39.036  14.373  12.898
 5471W        W70291  37.097  12.380   3.183
 5472W        W70292   7.705  32.015   0.484
 5473W        W70293  26.003  30.612   2.385
 5474W        W70294  22.696  37.458   2.726
 5475W        W70295   2.268  18.343   0.035
 5476W        W70296   4.811   4.410   0.144
 5477W        W70297  28.074  18.273   0.048
 5478W        W70298   8.187  33.508   4.338
 5479W        W70299  21.293  42.939   0.513
 5480W        W70300  43.395  41.872   0.942
 5481W        W70301  15.363  14.146  12.410
 5482W        W70302   8.915  37.480  10.697
 5483W        W70303  30.007  32.695   0.417
 5484W        W70304  16.285  32.993  13.483
 5485W        W70305  20.102  19.715  11.261
 5486W        W70306  23.185   4.930  14.437
 5487W        W70307  22.744  44.051   2.427
 5488W        W70308  43.827   6.711  10.800
 5489W        W70309   4.441  18.608  12.834
 5490W        W70310  24.691   0.883   0.860
 5491W        W70311   1.517  27.761   2.461
 5492W        W70312  27.884  27.102   1.255
 5493W        W70313   2.439  43.406  11.957
 5494W        W70314  28.487  24.197   0.733
 5495W        W70315  36.646  33.580   3.233
 5496W        W70316  18.375  38.040   1.968
 5497W        W70317   6.332  30.629   2.477
 5498W        W70318   3.881  34.002  10.760
 5499W        W70319  32.597  38.826  11.218
 5500W        W70320  32.401  32.997  12.611
 5501W        W70321  19.170  14.775  13.796
 5502W        W70322  36.983  40.043   1.714
 5503W        W70323  19.032  33.003  14.066
 5504W        W70324  22.598  13.203  11.068
 5505W        W70325  17.589   6.580  10.404
 5506W        W70326   9.171  37.856  10.958
 5507W        W70327  30.895  38.099  11.700
 5508W        W70328  12.400  12.699   4.999
 5509W        W70329  18.054  33.073  14.992
 5510W        W70330  43.429  32.948  13.110
 5511W        W70331  18.857   7.995   2.670
 5512W        W70332  27.076  44.821  10.620
 5513W        W70333  44.764   9.262   3.510
 5514W        W70334  20.670  11.241  11.973
 5515W        W70335  10.074  13.741   0.694
 5516W        W70336  28.466  27.603  12.417
 5517W        W70337  33.782  10.136  10.230
 5518W        W70338   3.893   2.723   1.402
 5519W        W70339  34.185  10.058  11.970
 5520W        W70340  21.917  40.790   3.819
 5521W        W70341  21.201  20.329  13.060
 5522W        W70342  27.429   5.363   0.931
 5523W        W70343  28.971  27.014   4.599
 5524W        W70344  21.091  23.222  11.131
 5525W        W70345  43.969  21.073  13.841
 5526W        W70346   0.983   6.833   4.146
 5527W        W70347  35.833  11.007   0.255
 5528W        W70348   1.201  44.516  12.505
 5529W        W70349  23.058  36.058  10.413
 5530W        W70350  21.953   6.828   0.825
 5531W        W70351  21.741  29.910  10.467
 5532W        W70352  14.493   1.285  12.111
 5533W        W70353  26.281  10.250   1.316
 5534W        W70354  15.859   3.347  13.372
 5535W        W70355  33.821  27.045   1.237
 5536W        W70356  40.213   3.149  13.000
 5537W        W70357   8.034  26.674   4.814
 5538W        W70358  21.139  34.209   2.832
 5539W        W70359  38.784  25.243   2.940
 5540W        W70360  21.704  31.370  10.830
 5541W        W70361  19.481   7.317  13.295
 5542W        W70362  28.663  27.022  10.328
 5543W        W70363  17.760  29.483  13.847
 5544W        W70364  22.251  37.613  14.854
 5545W        W70365  25.466  10.635  13.350
 5546W        W70366  24.304  44.468   1.316
 5547W        W70367   4.959  17.991   2.629
 5548W        W70368  10.939  43.114  10.734
 5549W        W70369  11.117  20.797   0.277
 5550W        W70370   1.494   5.735  11.725
 5551W        W70371  22.122   5.313   4.174
 5552W        W70372  26.753   1.943  14.644
 5553W        W70373  34.681   3.079   5.018
 5554W        W70374  25.926  18.178  14.304
 5555W        W70375  28.274  34.581   2.495
 5556W        W70376  38.871  43.042  14.415
 5557W        W70377  13.544  37.589  13.636
 5558W        W70378   9.731  43.027   4.076
 5559W        W70379  20.238  22.282   3.105
 5560W        W70380  14.761   2.884   4.890
 5561W        W70381  20.045  41.039  11.328
 5562W        W70382  22.732  21.632  10.867
 5563W        W70383   8.971  37.477  13.395
 5564W        W70384  14.344  41.897   1.328
 5565W        W70385  24.764   6.670  12.557
 5566W        W70386  35.672   0.357   4.605
 5567W        W70387  17.064  17.377   1.844
 5568W        W70388  25.043  31.084   4.934
 5569W        W70389  16.760  11.295  12.885
 5570W        W70390  38.133  41.040   1.819
 5571W        W70391   5.427  20.245   2.635
 5572W        W70392   8.920  11.109   2.202
 5573W        W70393   4.758  44.749   2.236
 5574W        W70394  18.849   4.532   4.666
 5575W        W70395  20.306  14.714  10.459
 5576W        W70396   5.324  18.103  13.211
 5577W        W70397  34.707   7.130   4.701
 5578W        W70398  26.124  14.032  13.022
 5579W        W70399  12.473  29.526  13.393
 5580W        W70400  44.457   7.145   3.737
 5581W        W70401  26.133   1.376  13.312
 5582W        W70402  44.614   5.655  11.960
 5583W        W70403  14.351  28.069  14.448
 5584W        W70404  38.776  32.663  12.874
 5585W        W70405  11.176  20.634  13.891
 5586W        W70406  41.029  39.819  11.638
 5587W        W70407  25.438  38.447  14.420
 5588W        W70408  31.067  32.359   4.683
 5589W        W70409  34.355  38.831  14.883
 5590W        W70410   9.105  43.571  14.702
 5591W        W70411  36.121  33.030  10.668
 5592W        W70412  22.757  38.436   0.687
 5593W        W70413  13.852  16.670   9.571
 5594W        W70414   3.452   6.630   0.678
 5595W        W70415  34.176  24.959  13.417
 5596W        W70416   1.873  21.327  14.179
 5597W        W70417  13.785  37.022  11.167
 5598W        W70418  21.406  18.795  14.844
 5599W        W70419  20.204  21.172  10.706
 5600W        W70420  31.459  33.470  12.364
 5601W        W70421  13.727   5.052   1.310
 5602W        W70422  32.335  17.400  10.913
 5603W        W70423   2.110  41.546  11.093
 5604W        W70424  24.702  19.380   2.663
 5605W        W70425  43.418  41.311   3.678
 5606W        W70426  16.302  36.788  14.960
 5607W        W70427  27.949  25.001  12.148
 5608W        W70428  40.929  40.947   1.789
 5609W        W70429   4.534  18.714   1.350
 5610W        W70430   9.408  37.291   4.083
 5611W        W70431   0.027  38.579  10.787
 5612W        W70432  41.237   8.147  12.919
 5613W        W70433  33.696  43.818  14.067
 5614W        W70434  33.820  29.196   0.606
 5615W        W70435  40.329   8.690   4.055
 5616W        W70436  30.205  13.797   0.575
 5617W        W70437  11.869  20.958  10.660
 5618W        W70438  43.244   8.910  13.961
 5619W        W70439   9.268   8.920   0.708
 5620W        W70440   3.054  16.746  12.367
 5621W        W70441  32.546  32.601   1.877
 5622W        W70442  11.313  37.943  14.940
 5623W        W70443  32.978  13.903   4.722
 5624W        W70444   8.425  35.405   3.752
 5625W        W70445   4.518  28.529   2.249
 5626W        W70446  24.172  12.195   2.295
 5627W        W70447  19.769  23.583  14.300
 5628W        W70448  24.126  37.504  11.624
 5629W        W70449   5.438   2.292   3.915
 5630W        W70450  15.260  20.605  11.210
 5631W        W70451   7.815   2.202   4.560
 5632W        W70452  20.445  31.452   1.254
 5633W        W70453  15.059   5.638   2.336
 5634W        W70454  43.795  39.779   3.728
 5635W        W70455  22.745   0.255   0.249
 5636W        W70456   6.307  33.379   2.212
 5637W        W70457   5.499  18.587  14.341
 5638W        W70458  10.394  42.082  13.906
 5639W        W70459   3.357   4.276  14.559
 5640W        W70460   6.886   3.027   4.783
 5641W        W70461  28.873   0.668  11.538
 5642W        W70462   2.418   5.851   3.893
 5643W        W70463  43.258  39.467  13.439
 5644W        W70464  21.095  13.166   1.909
 5645W        W70465  42.859  38.560   0.152
 5646W        W70466   4.727  44.889  13.164
 5647W        W70467  38.113   2.660   2.520
 5648W        W70468  35.048  32.928  13.569
 5649W        W70469  29.545   7.226  14.049
 5650W        W70470  37.629   0.084  11.659
 5651W        W70471  42.469  27.569  14.011
 5652W        W70472  42.878  36.186  12.846
 5653W        W70473  20.469   7.121   3.275
 5654W        W70474  42.748  39.424  13.380
 5655W        W70475  37.626  41.411   2.157
 5656W        W70476  27.181  11.975   2.390
 5657W        W70477  38.442  34.000   3.712
 5658W        W70478  26.615  43.931  13.770
 5659W        W70479   9.770  12.598  12.774
 5660W        W70480  42.543  17.994  12.153
 5661W        W70481   7.222  29.421   2.820
 5662W        W70482  42.416  19.862   0.863
 5663W        W70483   7.431  41.962   3.901
 5664W        W70484  33.568  38.858   5.210
 5665W        W70485  38.151  12.891  12.468
 5666W        W70486  31.879  23.609   2.835
 5667W        W70487  28.400  43.779   2.386
 5668W        W70488  19.578  19.305  10.818
 5669W        W70489  14.751  23.041   4.919
 5670W        W70490  33.338  15.101   2.368
 5671W        W70491  19.093  25.480   3.037
 5672W        W70492  28.647  13.138   2.414
 5673W        W70493   1.882  14.359   2.672
 5674W        W70494  22.200  18.554  13.448
 5675W        W70495  38.464  14.309   4.579
 5676W        W70496   4.924   0.724   0.182
 5677W        W70497  44.304  30.410  12.892
 5678W        W70498   9.559  43.155  12.668
 5679W        W70499  26.034  33.207   4.235
 5680W        W70500  35.938  27.890   4.579
 5681W        W70501  43.888  24.066   1.275
 5682W        W70502  31.510  29.681  12.401
 5683W        W70503  27.286  40.725  13.013
 5684W        W70504   5.349  32.190   1.817
 5685W        W70505  41.905  30.651  10.275
 5686W        W70506  30.206  13.218  14.396
 5687W        W70507  33.635  43.428   2.342
 5688W        W70508  27.431  31.170   0.399
 5689W        W70509  41.260  10.451   5.081
 5690W        W70510  16.623  22.914   2.847
 5691W        W70511  26.152  20.535  14.084
 5692W        W70512  26.617   6.931  13.998
 5693W        W70513  22.166  39.785  11.932
 5694W        W70514  26.596  44.904   3.394
 5695W        W70515  25.736   5.088  12.506
 5696W        W70516  44.984   5.965   2.342
 5697W        W70517  10.377  15.239  12.363
 5698W        W70518  18.917  10.450  10.714
 5699W        W70519  11.259   0.405   1.638
 5700W        W70520  12.349  14.712  10.569
 5701W        W70521  41.836   1.471   1.293
 5702W        W70522  27.922  32.227   2.760
 5703W        W70523  42.251  39.011  10.691
 5704W        W70524  18.004  34.812  14.389
 5705W        W70525  25.683   9.764   3.173
 5706W        W70526  15.042  29.257   2.745
 5707W        W70527  27.013   4.669  10.732
 5708W        W70528  31.288   9.551   0.061
 5709W        W70529  14.753   2.909   1.131
 5710W        W70530   0.500   5.282   3.786
 5711W        W70531  22.677  22.045  14.015
 5712W        W70532  15.780  32.857   3.255
 5713W        W70533   1.733  28.674   3.173
 5714W        W70534   9.857   2.940  14.350
 5715W        W70535  36.596   0.960   0.766
 5716W        W70536  23.968   4.745  13.291
 5717W        W70537  25.988  14.075   3.071
 5718W        W70538   7.387  12.822   1.841
 5719W        W70539   1.971  19.580   3.842
 5720W        W70540  25.150  36.337   3.180
 5721W        W70541  11.720  31.029  14.126
 5722W        W70542  43.726  27.615  11.169
 5723W        W70543  27.641  19.068   0.917
 5724W        W70544  38.239  32.017   4.238
 5725W        W70545  40.311  22.580   0.292
 5726W        W70546   9.256  15.783  11.635
 5727W        W70547   4.962  25.453   1.300
 5728W        W70548  26.325  25.338  11.447
 5729W        W70549  29.525   4.107   0.028
 5730W        W70550  25.688   4.693   4.135
 5731W        W70551  21.121  10.056  10.337
 5732W        W70552  30.868  38.701   1.700
 5733W        W70553  36.600  14.529   4.123
 5734W        W70554  16.568  10.442   0.806
 5735W        W70555   7.763  18.160   1.490
 5736W        W70556  38.456   4.389  13.077
 5737W        W70557  34.932  29.798  12.406
 5738W        W70558  25.272   5.248  14.454
 5739W        W70559  38.988  30.542  10.744
 5740W        W70560  22.085   1.423  14.524
 5741W        W70561  18.199  14.782   2.457
 5742W        W70562  20.927  18.574  13.826
 5743W        W70563  29.670  18.476  13.321
 5744W        W70564  12.565  29.202  11.697
 5745W        W70565  29.814  15.748   4.216
 5746W        W70566   9.495  21.514  14.946
 5747W        W70567  28.660  29.604   1.852
 5748W        W70568  44.313  22.992  12.910
 5749W        W70569  16.167  27.545  10.246
 5750W        W70570  28.538  43.181   3.162
 5751W        W70571  21.523  43.327   0.158
 5752W        W70572  39.676  31.208   4.088
 5753W        W70573   4.445   5.242  14.783
 5754W        W70574  36.508   5.344   2.797
 5755W        W70575   9.788  15.974  12.208
 5756W        W70576  25.716  18.604  11.591
 5757W        W70577  24.990  21.192  14.378
 5758W        W70578  35.329   2.654  10.760
 5759W        W70579  42.266  15.205   2.249
 5760W        W70580  36.093   6.185  11.181
 5761W        W70581  35.495  18.793   0.969
 5762W        W70582  26.179  29.242  13.861
 5763W        W70583  14.912  11.952  14.893
 5764W        W70584  42.796  21.876  11.979
 5765W        W70585  12.426  27.703  10.658
 5766W        W70586  14.859  15.266   4.752
 5767W        W70587  32.419  40.748   2.326
 5768W        W70588   7.662  43.592   2.148
 5769W        W70589  41.352   4.188  10.569
 5770W        W70590   4.073   5.913  14.433
 5771W        W70591  13.591  38.595  13.942
 5772W        W70592  34.152   6.828  12.609
 5773W        W70593  15.379  33.462  14.835
 5774W        W70594  31.373   4.126  14.680
 5775W        W70595   0.847  16.477   1.517
 5776W        W70596  11.179  43.495  13.533
 5777W        W70597  18.295  37.649   4.157
 5778W        W70598   7.322  23.021   3.918
 5779W        W70599   1.232   8.695  13.318
 5780W        W70600  11.217   4.999  12.096
 5781W        W70601  28.469  13.033   4.232
 5782W        W70602  37.812  36.433  10.728
 5783W        W70603   9.123  36.806  13.536
 5784W        W70604  31.597  24.777  12.154
 5785W        W70605  13.159  41.921   4.543
 5786W        W70606   2.411  14.808  14.956
 5787W        W70607  17.401  31.992  12.386
 5788W        W70608  39.082   5.066  13.434
 5789W        W70609  17.765  14.112   2.305
 5790W        W70610   8.880  28.160  12.553
 5791W        W70611  17.974  11.985  12.450
 5792W        W70612  18.262  40.238  11.985
 5793W        W70613  33.541  42.033   0.216
 5794W        W70614   9.720  14.431  13.025
 5795W        W70615  11.275  14.987  10.302
 5796W        W70616  19.061   7.507  14.015
 5797W        W70617   6.194  31.534  12.126
 5798W        W70618   0.973  39.437  14.385
 5799W        W70619  38.154   5.872   1.393
 5800W        W70620  14.318  39.348   0.465
 5801W        W70621   9.887   0.274  11.610
 5802W        W70622  37.070  32.414  13.333
 5803W        W70623   1.501  25.884  11.999
 5804W        W70624  43.819   2.574   0.827
 5805W        W70625  18.792  19.753  14.724
 5806W        W70626  21.750  38.871   1.372
 5807W        W70627   8.710  38.860  12.546
 5808W        W70628  21.167  39.680   1.931
 5809W        W70629   8.874  39.841   1.347
 5810W        W70630   0.966   9.286  10.761
 5811W        W70631  17.530   0.807   3.188
 5812W        W70632  20.997  39.012   3.125
 5813W        W70633  24.936  22.982   3.913
 5814W        W70634   4.947  33.922  11.270
 5815W        W70635   0.466  30.195   4.791
 5816W        W70636  26.990  40.032   4.610
 5817W        W70637  25.015  14.120  11.136
 5818W        W70638  16.290  39.062   4.053
 5819W        W70639   9.903  42.422   0.258
 5820W        W70640  24.673  39.416   1.247
 5821W        W70641  33.971  21.929   1.416
 5822W        W70642  31.388  30.412  14.070
 5823W        W70643  21.933  11.717   2.696
 5824W        W70644  26.413  39.586   4.062
 5825W        W70645  43.338  31.662   1.782
 5826W        W70646  39.101  19.506  11.175
 5827W        W70647   2.198  15.893   0.670
 5828W        W70648  12.763  19.131   4.221
 5829W        W70649  35.163  26.395  13.883
 5830W        W70650  16.176  40.801  12.478
 5831W        W70651  44.818  34.962   3.837
 5832W        W70652  19.703   6.397  14.364
 5833W        W70653   3.132  32.609  14.377
 5834W        W70654  33.936  21.763  12.879
 5835W        W70655  28.795   5.057  12.959
 5836W        W70656   3.756  29.173   1.303
 5837W        W70657  12.371  28.619   4.166
 5838W        W70658  18.449   3.249  10.672
 5839W        W70659  11.267  11.326  13.371
 5840W        W70660   3.498  37.438  12.988
 5841W        W70661  35.685   8.727   2.684
 5842W        W70662   1.662  17.541  13.578
 5843W        W70663  39.589  24.214   4.105
 5844W        W70664  26.863  37.999  11.103
 5845W        W70665  17.718  36.570  14.124
 5846W        W70666  43.793  34.446   3.660
 5847W        W70667  37.074  17.532  12.501
 5848W        W70668  23.027   6.443  14.576
 5849W        W70669  38.413  34.277   3.241
 5850W        W70670  36.401   2.320  10.612
 5851W        W70671  41.603  37.584  11.613
 5852W        W70672  11.321  38.288  10.766
 5853W        W70673  42.430   8.903   1.225
 5854W        W70674  30.437  41.458   0.502
 5855W        W70675  33.203  29.719   4.186
 5856W        W70676  21.159  22.684   2.919
 5857W        W70677  23.762  19.208  14.901
 5858W        W70678  40.477  25.926   1.650
 5859W        W70679  43.007   0.377  13.435
 5860W        W70680  25.825   1.259   2.820
 5861W        W70681  13.544  24.531   2.341
 5862W        W70682  28.024  13.880   2.603
 5863W        W70683  40.858  26.947  14.833
 5864W        W70684   4.534   2.777  12.062
 5865W        W70685  28.716  25.752   4.125
 5866W        W70686  11.400  24.887  10.755
 5867W        W70687  26.040  27.202  13.857
 5868W        W70688  16.966  39.100  14.819
 5869W        W70689  13.375   5.770  14.805
 5870W        W70690  24.087  40.712   0.847
 5871W        W70691  35.784  10.210   0.001
 5872W        W70692  18.929   9.211   2.225
 5873W        W70693  35.824  34.133   1.908
 5874W        W70694   8.926  24.491  13.995
 5875W        W70695   9.349   3.173  10.617
 5876W        W70696  15.625  24.592  12.144
 5877W        W70697  42.330  15.967  12.554
 5878W        W70698  16.116  28.732  14.483
 5879W        W70699  31.964   2.016  13.895
 5880W        W70700   2.534  37.678   4.111
 5881W        W70701  24.599  39.079   0.368
 5882W        W70702  19.675  26.933  14.359
 5883W        W70703  29.158  39.414  10.989
 5884W        W70704  21.314   3.072  12.441
 5885W        W70705  29.395  14.201  13.343
 5886W        W70706   6.788  27.523  13.538
 5887W        W70707  14.426   1.861   0.415
 5888W        W70708   3.744  19.099  10.808
 5889W        W70709  23.690   0.617   0.562
 5890W        W70710  28.735  41.949  13.636
 5891W        W70711   8.124  40.557  12.980
 5892W        W70712  30.174   8.477  11.889
 5893W        W70713  30.894  18.714   2.333
 5894W        W70714  44.843   9.087   1.448
 5895W        W70715  16.311  21.768   3.175
 5896W        W70716  32.570  13.653   0.677
 5897W        W70717  38.585  20.568  10.686
 5898W        W70718  30.987   7.172   3.342
 5899W        W70719  11.298  11.683   3.609
 5900W        W70720  44.002  36.437  11.613
 5901W        W70721   7.020   0.534   1.706
 5902W        W70722  30.180  35.082   2.625
 5903W        W70723   8.766   4.474   2.726
 5904W        W70724   7.457   0.506   2.037
 5905W        W70725  40.449  35.235   1.115
 5906W        W70726  27.352  36.201   5.001
 5907W        W70727  28.149  28.881  12.071
 5908W        W70728  37.385  39.930   2.460
 5909W        W70729  34.227   5.212  10.527
 5910W        W70730  16.679  14.151  10.484
 5911W        W70731   2.995   0.554   2.799
 5912W        W70732   2.349  34.021  13.419
 5913W        W70733  35.084  42.299  11.457
 5914W        W70734  33.421  29.993   0.560
 5915W        W70735  42.566  39.085  12.517
 5916W        W70736  19.800  17.072   1.299
 5917W        W70737  28.668  10.451   4.561
 5918W        W70738  25.331   3.606   1.216
 5919W        W70739  25.146  31.021  14.210
 5920W        W70740  33.923  12.911   0.483
 5921W        W70741   4.742  15.081   2.323
 5922W        W70742  14.782  29.515  12.426
 5923W        W70743  31.826   7.772   2.314
 5924W        W70744   9.967  12.841   3.820
 5925W        W70745  21.620   6.641   3.068
 5926W        W70746  21.191   3.357   2.697
 5927W        W70747  40.342  28.161   1.274
 5928W        W70748  21.203   8.344   2.587
 5929W        W70749  16.310  16.028  10.716
 5930W        W70750  17.257   3.196   0.603
 5931W        W70751  37.070  23.553   0.235
 5932W        W70752  30.727  36.876   1.477
 5933W        W70753  37.625   2.953   1.377
 5934W        W70754  35.224  19.209  13.338
 5935W        W70755  30.855  20.540  12.740
 5936W        W70756  19.981  33.858   3.716
 5937W        W70757  19.601  14.782  13.474
 5938W        W70758  12.738  29.245   2.175
 5939W        W70759  10.826  30.757   0.437
 5940W        W70760  21.171   7.954   2.239
 5941W        W70761  15.158  16.773   2.598
 5942W        W70762  25.597  19.234   4.435
 5943W        W70763  22.696   9.140  12.141
 5944W        W70764  21.948   9.821   0.433
 5945W        W70765  33.310   2.635   1.168
 5946W        W70766  28.981  23.777  10.726
 5947W        W70767  32.857   3.420  13.519
 5948W        W70768  36.663  32.537   1.886
 5949W        W70769  36.579  27.835   0.803
 5950W        W70770  17.150   3.067   2.329
 5951W        W70771  36.089  31.923   0.349
 5952W        W70772   7.890   8.316  11.687
 5953W        W70773   9.789  44.395  12.709
 5954W        W70774  39.045  44.397   2.333
 5955W        W70775  17.174  43.570  14.607
 5956W        W70776  20.473   6.484   0.859
 5957W        W70777  38.921  43.477   2.165
 5958W        W70778  21.994   6.466   1.834
 5959W        W70779  23.797  29.053  14.010
 5960W        W70780   9.657   4.734   4.698
 5961W        W70781   4.615  12.289   1.733
 5962W        W70782  39.035  35.599   1.330
 5963W        W70783  39.169   3.959  10.015
 5964W        W70784  44.346  36.585   3.735
 5965W        W70785  28.577  37.303   3.628
 5966W        W70786  29.147  44.091   4.705
 5967W        W70787  23.414  38.926  14.875
 5968W        W70788  39.878  33.994   4.143
 5969W        W70789  23.244  17.669  12.535
 5970W        W70790   3.239   9.450   4.466
 5971W        W70791  16.786   7.812  11.540
 5972W        W70792   3.829  29.383   3.743
 5973W        W70793  26.097   0.268  12.351
 5974W        W70794  36.025  36.654   2.651
 5975W        W70795  20.980   8.595   1.861
 5976W        W70796  15.239  44.189   2.513
 5977W        W70797  41.920  37.152   0.328
 5978W        W70798  41.573   7.562   1.902
 5979W        W70799   5.197  16.148   0.833
 5980W        W70800  21.284  15.295   1.479
 5981W        W70801   3.571   8.174   1.431
 5982W        W70802  25.183  42.560  12.947
 5983W        W70803  33.390  17.362   2.563
 5984W        W70804   8.492  39.891  12.113
 5985W        W70805  17.525  20.274   4.131
 5986W        W70806  12.630  41.616   3.884
 5987W        W70807  13.606  11.373   2.306
 5988W        W70808  22.126   4.669   2.283
 5989W        W70809   9.927  35.336  13.210
 5990W        W70810  13.089  28.905  10.932
 5991W        W70811   3.348   7.155  11.711
 5992W        W70812  34.055  19.284  10.754
 5993W        W70813   9.310  42.459   4.471
 5994W        W70814   9.802  37.501   3.703
 5995W        W70815  34.749   7.374  12.030
 5996W        W70816  40.574  10.222  11.960
 5997W        W70817  28.403  44.154   4.262
 5998W        W70818  44.374  25.031  12.927
 5999W        W70819  32.425  12.174  13.444
 6000W        W70820  28.623  20.103   4.794
 6001W        W70821  15.744  31.111  11.939
 6002W        W70822   5.337   7.460  13.090
 6003W        W70823   6.381  19.718   0.794
 6004W        W70824  15.494  29.281   0.964
 6005W        W70825  22.999  44.308   2.813
 6006W        W70826  22.348  10.465   5.268
 6007W        W70827  21.997  36.453  14.294
 6008W        W70828   8.910   2.495  12.972
 6009W        W70829  26.053  16.358   3.708
 6010W        W70830  12.770  25.395  14.938
 6011W        W70831  38.905   4.984   1.285
 6012W        W70832  38.529  41.481   2.673
 6013W        W70833  32.484  37.109  11.962
 6014W        W70834  17.205  32.863   3.834
 6015W        W70835  19.454  35.912  10.691
 6016W        W70836  11.834  29.656   0.918
 6017W        W70837  22.173  10.645  14.231
 6018W        W70838  27.165   5.286  14.511
 6019W        W70839  16.790   1.971   2.243
 6020W        W70840  22.234  27.883  13.037
 6021W        W70841  17.257   6.149  12.013
 6022W        W70842  18.342   0.738   2.697
 6023W        W70843   7.854  23.013  14.510
 6024W        W70844   0.889   0.830   3.769
 6025W        W70845  31.609  37.168   0.904
 6026W        W70846  36.437   7.376   2.885
 6027W        W70847  24.618   6.358   2.746
 6028W        W70848   8.437  25.793  12.882
 6029W        W70849  32.141  29.205   2.200
 6030W        W70850  29.571  31.587   3.703
 6031W        W70851  36.983   8.362   4.151
 6032W        W70852  24.130  37.416  14.999
 6033W        W70853   9.223  41.153   4.573
 6034W        W70854   9.210  32.279  13.685
 6035W        W70855  11.323  13.799  13.433
 6036W        W70856   2.499  15.703   0.286
 6037W        W70857   2.056  36.376   1.025
 6038W        W70858  22.843  20.534   4.194
 6039W        W70859   1.703  34.923  12.580
 6040W        W70860  29.683  25.264   1.928
 6041W        W70861  38.932   9.328  12.400
 6042W        W70862  18.115  35.168   5.409
 6043W        W70863  20.874  11.415  12.419
 6044W        W70864  40.856   1.803  10.609
 6045W        W70865  42.500  33.457   2.909
 6046W        W70866   7.597  32.970  10.717
 6047W        W70867   9.648  14.382  13.536
 6048W        W70868  35.101  41.081  14.810
 6049W        W70869   1.332  33.004   3.562
 6050W        W70870  23.757  42.513   3.288
 6051W        W70871  42.837  15.241   4.374
 6052W        W70872  30.678  25.520  11.693
 6053W        W70873  24.635  22.645   1.212
 6054W        W70874  10.790  41.398  14.053
 6055W        W70875  11.971  44.069  11.112
 6056W        W70876  38.619  41.320  11.106
 6057W        W70877  30.126  10.612  11.078
 6058W        W70878  16.340  41.234   4.071
 6059W        W70879  14.174  40.268   5.067
 6060W        W70880   3.005  42.739   4.862
 6061W        W70881   9.405  14.547   3.514
 6062W        W70882  26.206  40.834  14.582
 6063W        W70883  34.978   0.697   4.061
 6064W        W70884  25.389  15.302  12.084
 6065W        W70885  33.557  25.809   5.732
 6066W        W70886  35.517  41.913   0.756
 6067W        W70887  28.178  24.761  13.880
 6068W        W70888  11.966  14.180   3.701
 6069W        W70889   1.920  34.026   1.410
 6070W        W70890  24.753   9.603  12.026
 6071W        W70891  28.187  31.437  11.144
 6072W        W70892  31.747  14.819  14.761
 6073W        W70893  30.431   7.871  12.742
 6074W        W70894  30.477  11.848   1.250
 6075W        W70895  14.606  27.907  10.877
 6076W        W70896  10.092   8.790  12.407
 6077W        W70897  37.324  41.187  14.457
 6078W        W70898   7.253  44.000  11.590
 6079W        W70899  13.670  38.391  10.764
 6080W        W70900  22.314  20.265  11.442
 6081W        W70901  15.378  11.834  11.526
 6082W        W70902  17.890  19.798  11.575
 6083W        W70903  10.400  24.474   0.944
 6084W        W70904  15.318   1.969  10.947
 6085W        W70905   3.841   3.322   3.813
 6086W        W70906   9.352  39.512  11.524
 6087W        W70907  29.179  20.680   4.225
 6088W        W70908   8.609   9.311   3.623
 6089W        W70909  41.405  40.820  14.874
 6090W        W70910  30.457  14.711  13.591
 6091W        W70911  18.601  21.301  11.245
 6092W        W70912  23.184  21.056  14.963
 6093W        W70913  21.724  38.880   4.633
 6094W        W70914   9.581  14.289   4.337
 6095W        W70915  23.451  26.561   0.959
 6096W        W70916   1.213  39.421  13.909
 6097W        W70917  16.977  10.563  13.567
 6098W        W70918  28.666  23.984  11.577
 6099W        W70919  20.536  22.157   4.342
 6100W        W70920  26.487  38.950   2.795
 6101W        W70921  41.367   5.222  11.996
 6102W        W70922  18.017   6.400   0.278
 6103W        W70923   8.220   6.363  10.619
 6104W        W70924  27.578  14.807   3.297
 6105W        W70925  17.730  32.082  10.587
 6106W        W70926  15.128  22.135   2.194
 6107W        W70927   1.740   3.634  11.189
 6108W        W70928  14.743   7.177   2.813
 6109W        W70929  23.255   0.485  13.276
 6110W        W70930   4.898   8.974  12.545
 6111W        W70931  34.338  14.658   2.773
 6112W        W70932  22.025  20.741  14.919
 6113W        W70933  15.354  11.448   0.229
 6114W        W70934  36.185  29.188  11.576
 6115W        W70935  20.492   8.099  11.878
 6116W        W70936  35.546  40.132  11.015
 6117W        W70937  36.933  39.900   2.208
 6118W        W70938  25.875  39.739  13.407
 6119W        W70939   3.985  32.866  11.224
 6120W        W70940  41.076  26.437  12.254
 6121W        W70941  20.300  30.619   5.178
 6122W        W70942   0.252  41.822  11.158
 6123W        W70943  33.889  35.431  13.418
 6124W        W70944  43.866  38.123   4.099
 6125W        W70945  11.358  29.022  10.291
 6126W        W70946   0.336  12.073  12.570
 6127W        W70947  19.677  31.787   4.179
 6128W        W70948  44.343  40.615  12.388
 6129W        W70949  29.673  23.405   1.849
 6130W        W70950  13.181   3.976   3.328
 6131W        W70951  31.078  33.622   4.134
 6132W        W70952  28.025  13.584  12.444
 6133W        W70953  31.079   1.850   3.568
 6134W        W70954  32.063  40.493  14.878
 6135W        W70955  30.450   8.597  12.360
 6136W        W70956  30.785  37.348   3.107
 6137W        W70957  15.454  32.607   1.949
 6138W        W70958  23.341   8.198   1.682
 6139W        W70959  35.396  39.377  13.575
 6140W        W70960   5.833  20.312  11.818
 6141W        W70961  11.096   1.928   3.730
 6142W        W70962  17.253  31.889  10.559
 6143W        W70963  29.117  41.378   4.875
 6144W        W70964   4.925  31.270   0.245
 6145W        W70965  25.192  43.191   2.163
 6146W        W70966   4.554   7.252  14.344
 6147W        W70967   4.659  36.628  14.708
 6148W        W70968   0.797   6.288   1.192
 6149W        W70969  16.203  28.276   2.825
 6150W        W70970   4.461   8.216  14.560
 6151W        W70971  17.847  33.612   2.734
 6152W        W70972  25.542  24.512  12.795
 6153W        W70973  27.137  38.595   1.835
 6154W        W70974  11.110  16.788  14.525
 6155W        W70975  13.020   1.507  10.135
 6156W        W70976  19.573  16.653  11.946
 6157W        W70977  41.083  44.082   4.640
 6158W        W70978  24.863   8.679  12.060
 6159W        W70979  14.261  41.577  10.609
 6160W        W70980  23.209  37.899  12.466
 6161W        W70981  17.604  26.391   2.872
 6162W        W70982  10.385  22.023  14.948
 6163W        W70983  32.622  44.518   4.549
 6164W        W70984  42.881  18.544  12.401
 6165W        W70985  26.522  29.574   4.822
 6166W        W70986  18.034   6.205  11.691
 6167W        W70987  31.698  31.916  13.961
 6168W        W70988  38.845  26.155   2.715
 6169W        W70989   4.836  33.009  11.374
 6170W        W70990  12.367   1.783  12.624
 6171W        W70991   0.613   1.465   2.671
 6172W        W70992  44.686   5.395   4.136
 6173W        W70993  24.706  15.389   0.369
 6174W        W70994  27.691  43.394  11.020
 6175W        W70995  14.329  28.456   2.708
 6176W        W70996  12.852  30.133  11.444
 6177W        W70997  25.574  19.473   2.801
 6178W        W70998  14.717   3.967   0.370
 6179W        W70999   1.939  38.413  13.104
 6180W        W71000  31.394  19.185  14.392
 6181W        W71001  36.934  28.431  14.551
 6182W        W71002  22.020  37.794   2.309
 6183W        W71003   5.691  28.840  10.242
 6184W        W71004  12.111   8.353  13.970
 6185W        W71005   2.437  26.157   0.521
 6186W        W71006  25.514  11.181  10.582
 6187W        W71007  22.049  17.966   2.752
 6188W        W71008  10.294   0.594  11.679
 6189W        W71009  30.656  15.588   1.076
 6190W        W71010   3.587  15.874   0.999
 6191W        W71011  40.559   1.701   3.224
 6192W        W71012   3.125  27.515  14.920
 6193W        W71013  13.302  17.565  11.097
 6194W        W71014  24.018   3.752   1.427
 6195W        W71015  42.958  19.888  13.306
 6196W        W71016   5.706   9.671  11.813
 6197W        W71017  30.068  19.613   0.983
 6198W        W71018   6.803   0.466   3.218
 6199W        W71019  41.284   4.321  11.992
 6200W        W71020  10.568  33.794  11.799
 6201W        W71021  36.537  40.562   4.548
 6202W        W71022  42.933  26.322   3.113
 6203W        W71023  15.050   4.742   2.996
 6204W        W71024  37.878  41.028  12.530
 6205W        W71025  13.148  30.684  14.802
 6206W        W71026   2.466  10.807   4.359
 6207W        W71027  35.735  37.252  14.525
 6208W        W71028   0.902   9.595   2.269
 6209W        W71029  31.424  25.460  13.530
 6210W        W71030  15.045  15.085   4.297
 6211W        W71031  10.168  19.097   1.862
 6212W        W71032  39.065  44.295  10.057
 6213W        W71033  44.864   1.841   0.546
 6214W        W71034  14.372  39.686   4.248
 6215W        W71035  44.328  19.764   2.636
 6216W        W71036  34.877  28.026   4.639
 6217W        W71037  42.082  24.566   2.349
 6218W        W71038   9.221  31.944   2.158
 6219W        W71039  17.690  18.020  11.164
 6220W        W71040  22.403  23.761   2.275
 6221W        W71041  27.571  43.713  13.798
 6222W        W71042  20.622  17.203  12.575
 6223W        W71043  36.094   5.154   2.546
 6224W        W71044  40.901   2.918  14.840
 6225W        W71045  38.737  40.322   2.754
 6226W        W71046   9.232  24.275  10.522
 6227W        W71047  32.357  42.092   1.812
 6228W        W71048   9.833   0.341   2.235
 6229W        W71049  22.078  21.504   2.287
 6230W        W71050  41.351  15.268   2.965
 6231W        W71051  22.400  38.986  11.000
 6232W        W71052   2.362   8.626   4.504
 6233W        W71053   2.466   7.069  12.612
 6234W        W71054  16.814  31.651   1.394
 6235W        W71055   8.418  40.375  14.842
 6236W        W71056  43.734  26.446  10.652
 6237W        W71057  12.329   4.873   3.925
 6238W        W71058  16.372  17.787   1.246
 6239W        W71059  33.020   1.769  12.622
 6240W        W71060   0.551   8.313   3.195
 6241W        W71061   1.717  15.471  13.368
 6242W        W71062  44.005  44.785  12.900
 6243W        W71063  24.531  28.142  10.605
 6244W        W71064   1.489  20.495   1.813
 6245W        W71065  42.578  22.498  13.424
 6246W        W71066  26.339  30.265  13.959
 6247W        W71067   7.599  23.099   3.062
 6248W        W71068   9.317  17.694  12.984
 6249W        W71069  43.872   3.905  12.498
 6250W        W71070  18.048  23.603   1.041
 6251W        W71071  22.256  14.037   0.444
 6252W        W71072  32.477  14.712   3.397
 6253W        W71073  28.250   7.632   2.472
 6254W        W71074   1.788  30.795  13.927
 6255W        W71075   2.819  38.530  14.455
 6256W        W71076  27.909  13.389   1.304
 6257W        W71077   0.479   1.212   3.105
 6258W        W71078  17.593  11.740   0.010
 6259W        W71079   3.206  10.276  11.439
 6260W        W71080  10.337  33.648   1.907
 6261W        W71081  38.555  16.710  13.255
 6262W        W71082  34.480   0.636  13.683
 6263W        W71083  25.622  18.407   5.383
 6264W        W71084  15.879   2.732  14.850
 6265W        W71085  12.463  39.049  10.725
 6266W        W71086  23.558  18.061  12.378
 6267W        W71087  44.281  42.792   2.245
 6268W        W71088  11.594   9.322   4.590
 6269W        W71089  26.216  36.901   1.257
 6270W        W71090  14.617  38.533  13.761
 6271W        W71091  32.478  40.003   4.012
 6272W        W71092  36.197  33.334   0.945
 6273W        W71093   6.107  33.109  14.513
 6274W        W71094  14.956   7.634  12.633
 6275W        W71095  33.258   8.398   3.786
 6276W        W71096   4.716  10.582  11.860
 6277W        W71097  24.562  40.633  11.019
 6278W        W71098   9.641  28.134  14.391
 6279W        W71099  26.469  27.116  14.481
 6280W        W71100   6.962  11.812  12.612
 6281W        W71101  26.001  33.877   3.708
 6282W        W71102  33.000  34.665   0.939
 6283W        W71103  32.853  10.234  13.545
 6284W        W71104  30.526  18.801   0.911
 6285W        W71105  26.266  17.582   3.162
 6286W        W71106  38.717  39.894   1.768
 6287W        W71107   8.089  31.671   4.205
 6288W        W71108  11.338  18.886   1.640
 6289W        W71109   3.716  37.827  10.674
 6290W        W71110   4.997  41.500   1.680
 6291W        W71111  26.415  14.733   0.412
 6292W        W71112  44.745  22.723  14.882
 6293W        W71113  14.797  31.075   1.754
 6294W        W71114  22.586  27.235   1.895
 6295W        W71115  25.542  16.696  11.020
 6296W        W71116  22.065  25.483  14.757
 6297W        W71117   8.836  37.899   4.464
 6298W        W71118  36.314   5.669   1.389
 6299W        W71119  30.211  15.387   0.318
 6300W        W71120  17.230  42.357  13.327
 6301W        W71121  16.854  10.827  11.769
 6302W        W71122  11.887  33.591   5.193
 6303W        W71123   0.980  26.244  10.185
 6304W        W71124  36.574   1.915   5.106
 6305W        W71125  33.507   1.056   1.451
 6306W        W71126  21.195  36.892  11.969
 6307W        W71127  18.683   0.393  10.703
 6308W        W71128  15.472   1.752   4.482
 6309W        W71129  16.138  34.548  14.437
 6310W        W71130  33.568  35.379  11.334
 6311W        W71131  34.630  19.269  14.869
 6312W        W71132  42.254  35.405  14.537
 6313W        W71133  34.864   6.843  13.361
 6314W        W71134  27.675  33.978   1.394
 6315W        W71135   6.982   9.063  14.059
 6316W        W71136  41.873  19.073  13.060
 6317W        W71137  12.282  22.687   3.541
 6318W        W71138   7.824  37.490  12.652
 6319W        W71139  40.292  28.011   3.316
 6320W        W71140  32.955  40.351   0.026
 6321W        W71141  19.667  16.628   3.585
 6322W        W71142   2.826  27.357   2.741
 6323W        W71143   3.385  42.338   3.143
 6324W        W71144  32.959  28.716  13.900
 6325W        W71145  39.431  40.362   0.787
 6326W        W71146  25.112  11.705   3.648
 6327W        W71147  29.832  25.683  11.452
 6328W        W71148  33.930  11.658   3.800
 6329W        W71149  33.519  20.047  14.786
 6330W        W71150  23.273   5.841   4.201
 6331W        W71151  31.645  20.917   5.017
 6332W        W71152  17.791  40.395   3.229
 6333W        W71153  21.780   6.881   2.630
 6334W        W71154  14.204   3.194  12.026
 6335W        W71155  18.157  33.336   2.395
 6336W        W71156  11.253  14.170   1.975
 6337W        W71157  13.669  12.229  13.536
 6338W        W71158  26.035  37.270   0.411
 6339W        W71159   2.284   0.215  14.867
 6340W        W71160  32.464  17.243   3.463
 6341W        W71161  32.960  29.632   4.631
 6342W        W71162   6.703  30.196   0.893
 6343W        W71163   8.322  32.519   4.053
 6344W        W71164  34.226  16.043   3.137
 6345W        W71165  24.657  18.556  10.725
 6346W        W71166  30.165   1.449  13.029
 6347W        W71167  40.243  13.090  13.402
 6348W        W71168  39.915   6.967  11.594
 6349W        W71169  15.008  43.493  12.076
 6350W        W71170  13.709  18.793   2.364
 6351W        W71171  38.612  19.140  11.679
 6352W        W71172  40.114  21.418  11.978
 6353W        W71173  17.518  24.545   1.239
 6354W        W71174  43.915  18.098   3.155
 6355W        W71175  26.550  21.699   1.392
 6356W        W71176   3.285  24.182   0.208
 6357W        W71177  44.324  17.415  11.842
 6358W        W71178   2.465  26.216   1.939
 6359W        W71179   7.150   7.654  13.070
 6360W        W71180  11.116   7.141   0.833
 6361W        W71181   6.737  35.093  10.685
 6362W        W71182   6.255  14.630  14.375
 6363W        W71183   7.248  21.347   2.092
 6364W        W71184  37.592  18.825  11.580
 6365W        W71185  22.056  40.617  11.615
 6366W        W71186  30.806  39.835  13.905
 6367W        W71187  37.327  24.469  11.541
 6368W        W71188   1.464  30.175   2.432
 6369W        W71189  15.329  18.245   4.846
 6370W        W71190   0.219  25.305  13.305
 6371W        W71191  14.376  33.666   3.648
 6372W        W71192  42.508  23.596  12.536
 6373W        W71193  26.512  29.442   0.390
 6374W        W71194  30.433  25.631   0.219
 6375W        W71195  11.659  12.734  11.177
 6376W        W71196  44.465  13.263   0.935
 6377W        W71197  36.488  16.233  14.392
 6378W        W71198  37.443  17.063  13.375
 6379W        W71199   1.892  21.456  13.623
 6380W        W71200   9.936   8.843   2.612
 6381W        W71201  44.103  44.372   1.385
 6382W        W71202   1.065  13.233   5.061
 6383W        W71203  42.023  34.991  11.093
 6384W        W71204  18.136  25.495   3.186
 6385W        W71205  27.773  44.289  10.811
 6386W        W71206  33.394   4.381   0.801
 6387W        W71207  13.392  31.192   3.798
 6388W        W71208  18.195  31.614  12.871
 6389W        W71209   7.209  30.184   4.139
 6390W        W71210   4.868   8.632  12.030
 6391W        W71211  31.689  23.072  13.424
 6392W        W71212  40.014  26.417   2.299
 6393W        W71213  29.876  21.194   4.832
 6394W        W71214  42.744  31.935   2.206
 6395W        W71215  26.856  30.202   0.217
 6396W        W71216  28.637   2.413   2.589
 6397W        W71217  12.957  44.408  13.189
 6398W        W71218  19.252   0.455  10.847
 6399W        W71219  27.565   1.024  14.883
 6400W        W71220  24.939   4.337  14.983
 6401W        W71221  17.101  10.116   0.203
 6402W        W71222  44.287   6.896   0.862
 6403W        W71223  35.889   9.613   1.809
 6404W        W71224  11.444  37.219   2.478
 6405W        W71225  38.537  32.391   0.738
 6406W        W71226   3.265  37.450   1.230
 6407W        W71227  21.047  18.136   5.033
 6408W        W71228  39.583   7.216  11.071
 6409W        W71229  43.868  15.612   2.910
 6410W        W71230   0.316  10.514  11.575
 6411W        W71231  22.749  16.147   3.263
 6412W        W71232  22.676   0.529  11.111
 6413W        W71233  26.740  29.005   0.656
 6414W        W71234   1.702  17.705  12.669
 6415W        W71235  34.635  35.134  14.359
 6416W        W71236  21.577  35.861   4.674
 6417W        W71237  39.557   6.815   3.080
 6418W        W71238  28.824  30.141  13.372
 6419W        W71239  23.562  41.496   3.274
 6420W        W71240  27.478  26.256   4.081
 6421W        W71241  31.500  16.553  14.562
 6422W        W71242   7.992  31.155  13.342
 6423W        W71243   7.365   1.155  12.014
 6424W        W71244  38.775  41.886  10.638
 6425W        W71245  26.399   2.279   2.714
 6426W        W71246  37.537  12.173   1.262
 6427W        W71247  39.021  42.057  14.277
 6428W        W71248   9.817  40.617   1.776
 6429W        W71249  15.525  16.141  11.087
 6430W        W71250  21.657  33.879  10.542
 6431W        W71251  32.157  44.498   1.393
 6432W        W71252  13.035  16.357   2.678
 6433W        W71253  14.221  17.941   3.998
 6434W        W71254  41.103  28.927   1.643
 6435W        W71255  30.509  27.903  12.015
 6436W        W71256  37.852  26.185  11.163
 6437W        W71257   5.708  22.837  13.365
 6438W        W71258  19.224  41.647  12.538
 6439W        W71259  32.457  13.793  13.811
 6440W        W71260  28.612  21.656   0.762
 6441W        W71261  16.275  40.779   1.904
 6442W        W71262   8.671   2.323   2.764
 6443W        W71263  26.122  29.375   2.778
 6444W        W71264  28.398  13.298  13.065
 6445W        W71265  44.417  26.715   1.823
 6446W        W71266  22.309  17.473  13.487
 6447W        W71267  19.289  17.894  10.798
 6448W        W71268  32.528  31.138  12.585
 6449W        W71269  27.181  36.366   2.334
 6450W        W71270   6.307   5.490   3.738
 6451W        W71271  39.942  14.128   4.189
 6452W        W71272  33.699  41.776   4.648
 6453W        W71273   0.836  17.533  10.457
 6454W        W71274  44.378   5.849  13.468
 6455W        W71275  28.469   5.765   1.107
 6456W        W71276  25.496  24.194  14.509
 6457W        W71277  16.519   8.943  12.394
 6458W        W71278  17.054  35.608   3.600
 6459W        W71279  26.684   3.283   4.693
 6460W        W71280   6.762  27.649  11.323
 6461W        W71281  26.155  38.758   3.298
 6462W        W71282  23.715  27.462   2.164
 6463W        W71283  38.561  24.417   2.819
 6464W        W71284  17.873  27.232  12.038
 6465W        W71285   4.479  30.155   1.829
 6466W        W71286  42.610  22.158  11.608
 6467W        W71287   0.010  27.706   1.279
 6468W        W71288  10.238  17.776   4.636
 6469W        W71289  17.249  17.692  13.320
 6470W        W71290   1.592  15.305  11.618
 6471W        W71291  11.367  12.179   3.374
 6472W        W71292  12.857  34.436   1.947
 6473W        W71293  21.113  41.739  10.835
 6474W        W71294  27.493  34.116  13.501
 6475W        W71295   5.959  14.368   0.909
 6476W        W71296   0.257  25.241  11.162
 6477W        W71297  21.670  30.435   0.725
 6478W        W71298  19.174   3.325  13.540
 6479W        W71299  38.427  41.247   3.431
 6480W        W71300   0.691  30.872  11.332
 6481W        W71301  27.027  16.683   2.394
 6482W        W71302  44.301  30.202   0.547
 6483W        W71303  21.171  19.221  13.011
 6484W        W71304  44.875  13.338  13.374
 6485W        W71305  26.523  29.786  11.555
 6486W        W71306  28.558   0.815  13.845
 6487W        W71307  33.515  39.990  12.941
 6488W        W71308  18.505  22.105   4.542
 6489W        W71309  15.384  31.955  13.950
 6490W        W71310  23.822  37.440  10.679
 6491W        W71311  23.264  41.992   2.846
 6492W        W71312  23.069  16.629  13.840
 6493W        W71313  32.454   1.186   2.368
 6494W        W71314  40.500  43.709   1.654
 6495W        W71315   3.172   2.417   1.734
 6496W        W71316   2.362  26.212   1.429
 6497W        W71317  13.625   1.948  11.290
 6498W        W71318  42.252  39.365  13.501
 6499W        W71319  12.400  30.842   2.650
 6500W        W71320  34.641  42.078   2.713
 6501W        W71321  26.409  40.466   3.970
 6502W        W71322  38.187  18.127   2.342
 6503W        W71323   3.875  22.143   2.333
 6504W        W71324  40.251  30.245  12.958
 6505W        W71325  17.296   6.346   3.080
 6506W        W71326   0.292  10.781  14.590
 6507W        W71327  11.642  41.589  14.544
 6508W        W71328  11.206  30.483   5.272
 6509W        W71329  38.189  28.491   0.351
 6510W        W71330   3.786  11.685   4.738
 6511W        W71331   4.007  23.663  14.348
 6512W        W71332  37.961   4.959   3.890
 6513W        W71333   5.778   0.848  14.468
 6514W        W71334   4.848  32.566   0.867
 6515W        W71335   4.315   7.671  13.458
 6516W        W71336  24.514  27.206  13.868
 6517W        W71337  44.789   0.733  14.410
 6518W        W71338  15.464  17.105  12.563
 6519W        W71339   5.661  39.927  12.426
 6520W        W71340  42.567   1.041  12.844
 6521W        W71341  11.819  14.842  14.937
 6522W        W71342  25.638  21.037   0.279
 6523W        W71343  16.528  39.526  11.574
 6524W        W71344  17.041  30.168   3.181
 6525W        W71345  10.635  16.702  13.638
 6526W        W71346  41.803  25.540  12.869
 6527W        W71347  10.296  23.651  11.168
 6528W        W71348  28.634  13.702  11.189
 6529W        W71349  20.850  16.916   4.116
 6530W        W71350  43.557  21.633   3.687
 6531W        W71351  36.440  29.531   3.351
 6532W        W71352  40.351  34.541   1.892
 6533W        W71353  17.661  21.549   1.883
 6534W        W71354  13.214  40.521  13.842
 6535W        W71355  19.637   8.734   1.947
 6536W        W71356  20.376  14.763   1.468
 6537W        W71357   3.721  31.103   4.331
 6538W        W71358  29.676  17.777   0.844
 6539W        W71359  30.360  18.148   4.755
 6540W        W71360  29.374   6.096   5.070
 6541W        W71361  29.456   8.554   4.181
 6542W        W71362   4.441  38.827   1.859
 6543W        W71363  18.596  17.655   4.509
 6544W        W71364  27.416  12.247   2.005
 6545W        W71365  38.567  23.872   3.391
 6546W        W71366  25.812  40.603   3.240
 6547W        W71367  19.824  15.304  13.375
 6548W        W71368  18.018  34.503   9.804
 6549W        W71369  27.670  30.741   0.536
 6550W        W71370   5.263  16.848   4.150
 6551W        W71371  40.558  27.202  11.967
 6552W        W71372  24.026  11.971  14.677
 6553W        W71373   9.691  37.553  12.680
 6554W        W71374  34.487  44.719  12.078
 6555W        W71375  17.275  35.423  11.612
 6556W        W71376  24.179  43.522   0.409
 6557W        W71377  42.927  32.190   2.680
 6558W        W71378  17.504  23.887   2.803
 6559W        W71379  11.124  14.394   5.021
 6560W        W71380  17.931  19.501  11.992
 6561W        W71381  29.076  19.988  10.683
 6562W        W71382   4.875  19.009  13.456
 6563W        W71383  35.675  41.697   0.316
 6564W        W71384  10.698  37.870  13.533
 6565W        W71385   8.887  34.430   2.681
 6566W        W71386  43.925  23.182  10.490
 6567W        W71387  34.691  37.662  13.612
 6568W        W71388  22.893   1.746   0.495
 6569W        W71389  17.595  34.779  14.063
 6570W        W71390  22.714  40.563  11.822
 6571W        W71391  23.423  36.949   3.551
 6572W        W71392  13.851  41.786   4.704
 6573W        W71393  25.950  29.449   4.158
 6574W        W71394  34.451   1.990   1.387
 6575W        W71395  38.730  27.945   1.745
 6576W        W71396  35.533  43.592   2.333
 6577W        W71397   1.302  13.653  10.839
 6578W        W71398  16.927  23.878   0.362
 6579W        W71399  44.536  12.479   5.054
 6580W        W71400  34.193  29.004  11.537
 6581W        W71401  10.627  23.716   1.881
 6582W        W71402   2.861  44.798  11.067
 6583W        W71403  37.559  27.519  10.680
 6584W        W71404  28.322  30.186   0.457
 6585W        W71405   5.826   7.423  14.129
 6586W        W71406   6.382   6.584   4.954
 6587W        W71407  20.056  20.114   2.450
 6588W        W71408  16.075  10.637   0.782
 6589W        W71409  22.153  16.747  11.598
 6590W        W71410   9.301  43.202   2.260
 6591W        W71411  43.541  20.436  13.218
 6592W        W71412  40.442  18.812   3.608
 6593W        W71413   4.873   2.221  12.468
 6594W        W71414  37.095  42.994  11.879
 6595W        W71415   7.838  42.303   0.257
 6596W        W71416  19.135  22.598  12.528
 6597W        W71417   5.444   9.248  11.423
 6598W        W71418  43.129  31.135   1.786
 6599W        W71419  17.266  38.890   0.905
 6600W        W71420  42.258   1.521  13.502
 6601W        W71421  15.180  10.895  12.964
 6602W        W71422  27.499  36.072  11.125
 6603W        W71423   4.536  23.462   1.373
 6604W        W71424  36.717  11.505  11.134
 6605W        W71425   7.891  40.438  14.795
 6606W        W71426  25.662  32.900  11.398
 6607W        W71427  25.567  15.771   0.568
 6608W        W71428  34.994  16.117  13.313
 6609W        W71429  24.206   6.222   3.662
 6610W        W71430  11.427   2.178  11.587
 6611W        W71431  24.206   2.379   3.679
 6612W        W71432  17.655  23.033   1.709
 6613W        W71433  15.387  27.140  10.199
 6614W        W71434  25.940  40.490  12.015
 6615W        W71435  25.800  23.544  12.706
 6616W        W71436  42.350   7.346  14.455
 6617W        W71437  19.446   0.800   0.811
 6618W        W71438  12.311  13.277   0.030
 6619W        W71439  31.014  18.022   0.934
 6620W        W71440  38.737  11.617   3.601
 6621W        W71441   9.402  17.547  10.996
 6622W        W71442  44.986   9.559   1.296
 6623W        W71443  41.006   9.194   2.835
 6624W        W71444  39.619   1.295   1.254
 6625W        W71445  31.937  23.228   2.481
 6626W        W71446  36.063  28.393  13.116
 6627W        W71447  13.827  36.366  12.421
 6628W        W71448  13.428   5.826   0.939
 6629W        W71449  37.151   9.395   0.492
 6630W        W71450  30.808  21.291  12.097
 6631W        W71451  37.586  24.656   3.366
 6632W        W71452  17.634  11.612  12.400
 6633W        W71453  32.501   1.858   3.646
 6634W        W71454  12.522   2.805   0.997
 6635W        W71455  30.263   8.132  12.271
 6636W        W71456  27.094  43.855  14.975
 6637W        W71457  19.208  24.990  12.865
 6638W        W71458  35.227  19.229  11.408
 6639W        W71459  42.765  29.031  12.134
 6640W        W71460  27.127  12.293  13.834
 6641W        W71461   2.028  42.931   2.863
 6642W        W71462  20.898  42.405  11.344
 6643W        W71463   6.932   3.141  12.470
 6644W        W71464   4.379  22.752  13.336
 6645W        W71465  15.660  40.888   1.146
 6646W        W71466  36.209  28.507   2.205
 6647W        W71467  43.886  36.694   2.855
 6648W        W71468  32.992  32.903   4.520
 6649W        W71469   5.000  31.484   1.136
 6650W        W71470  38.020  23.180   0.405
 6651W        W71471  38.030  36.468   1.331
 6652W        W71472   3.428  36.379  12.018
 6653W        W71473  23.164  11.390  13.620
 6654W        W71474  17.959  34.602   4.649
 6655W        W71475  34.864  18.550  12.890
 6656W        W71476   4.206   0.179   0.507
 6657W        W71477  28.656  24.700  12.895
 6658W        W71478  13.586  13.345   0.363
 6659W        W71479  28.248  40.096  11.730
 6660W        W71480  11.235   6.921   4.181
 6661W        W71481  10.866  33.523   1.867
 6662W        W71482  28.809  19.633   0.443
 6663W        W71483  32.678  15.145   3.199
 6664W        W71484  24.577  23.427   3.198
 6665W        W71485  21.249  43.754   0.345
 6666W        W71486  40.975  19.732  14.853
 6667W        W71487  12.660  42.493   4.144
 6668W        W71488  38.475   2.135   3.236
 6669W        W71489   2.772  40.806  13.956
 6670W        W71490  11.916  26.952   1.137
 6671W        W71491  33.460  18.771   4.577
 6672W        W71492  14.193   0.309   0.744
 6673W        W71493  32.625  37.169  14.451
 6674W        W71494  21.155  21.349   0.608
 6675W        W71495  18.346  42.414  11.633
 6676W        W71496  33.812  19.021  11.174
 6677W        W71497  24.281  28.202  11.558
 6678W        W71498  16.662  20.470   3.625
 6679W        W71499  30.180  14.191   1.592
 6680W        W71500   4.257  10.125   0.801
 6681W        W71501  33.151  22.762   2.686
 6682W        W71502   9.094   0.057  14.326
 6683W        W71503  15.751  40.165   4.599
 6684W        W71504  42.294   7.901  11.162
 6685W        W71505  10.768  40.813   3.753
 6686W        W71506   5.959  22.799  12.454
 6687W        W71507  42.115  31.922  14.900
 6688W        W71508   9.685  11.005   1.463
 6689W        W71509  29.612   2.955   3.786
 6690W        W71510   5.382  25.804  12.869
 6691W        W71511  39.943  42.036  12.707
 6692W        W71512  15.753   0.550   0.165
 6693W        W71513  26.156  42.862   3.306
 6694W        W71514   6.905  10.212   1.323
 6695W        W71515  29.492  15.478   0.739
 6696W        W71516  24.162   2.912   2.034
 6697W        W71517  37.992  20.607  14.269
 6698W        W71518  10.259  27.251  10.132
 6699W        W71519  14.091   5.808   3.854
 6700W        W71520  15.182  39.395  13.657
 6701W        W71521  21.564  28.528   4.867
 6702W        W71522  16.129  22.492   0.314
 6703W        W71523  10.973  19.282   2.337
 6704W        W71524  10.255  22.766  13.456
 6705W        W71525  14.440  11.196   1.941
 6706W        W71526  38.319  37.515  13.941
 6707W        W71527  16.793  24.720   3.148
 6708W        W71528  37.399  37.078  14.197
 6709W        W71529   2.300  35.926   1.872
 6710W        W71530  36.820  33.881   1.890
 6711W        W71531  44.198  14.292  14.552
 6712W        W71532   8.429  27.079  14.110
 6713W        W71533  27.063  21.762   3.184
 6714W        W71534  27.010  15.632  14.733
 6715W        W71535  23.001   9.574  13.335
 6716W        W71536  22.029   5.770   3.235
 6717W        W71537  30.663  24.185   1.600
 6718W        W71538  21.649   2.132  12.583
 6719W        W71539  43.332  10.851  12.412
 6720W        W71540  26.595  10.886   2.824
 6721W        W71541  25.797  30.054  13.949
 6722W        W71542   6.919  40.406  11.559
 6723W        W71543  23.327   8.352  11.950
 6724W        W71544  25.231  23.757   3.608
 6725W        W71545  17.549  29.715  12.076
 6726W        W71546   1.586  27.279  11.458
 6727W        W71547  24.903   8.729   4.055
 6728W        W71548  39.021  12.287   3.985
 6729W        W71549  24.556  28.996   2.189
 6730W        W71550  31.444   7.395   3.198
 6731W        W71551  25.802  15.594   1.600
 6732W        W71552  29.956  20.496   2.265
 6733W        W71553   2.314   1.835   0.873
 6734W        W71554  40.326  18.972  14.618
 6735W        W71555   0.262  18.878  12.690
 6736W        W71556  17.043  44.418  14.918
 6737W        W71557  14.167  44.969   1.177
 6738W        W71558  31.539  32.323   0.252
 6739W        W71559   1.670  28.548  10.733
 6740W        W71560  29.438  10.358  10.824
 6741W        W71561   9.222  31.086  11.220
 6742W        W71562  39.831  11.938   2.561
 6743W        W71563  15.629  16.759   2.808
 6744W        W71564   6.728  22.211   0.390
 6745W        W71565  25.086  15.980   4.034
 6746W        W71566  26.522  40.907   4.202
 6747W        W71567  36.822  30.139   2.663
 6748W        W71568   0.853  39.066   0.836
 6749W        W71569   4.527  32.957   4.153
 6750W        W71570  28.219  10.126   2.550
 6751W        W71571  25.493  32.397   1.935
 6752W        W71572  20.094  25.292  13.251
 6753W        W71573  30.699  11.515   0.237
 6754W        W71574   2.972   4.301  14.937
 6755W        W71575  28.556  37.517   4.118
 6756W        W71576   3.405  19.097  14.239
 6757W        W71577  30.010  42.685   2.572
 6758W        W71578  41.792  24.954   4.814
 6759W        W71579  36.407  31.039  14.841
 6760W        W71580  44.886  16.506   2.797
 6761W        W71581  11.961  39.782   3.634
 6762W        W71582  19.122   3.857   3.611
 6763W        W71583  32.461  15.304   0.874
 6764W        W71584   2.800  21.482  13.134
 6765W        W71585  15.693   8.019  12.469
 6766W        W71586   3.118  25.436   4.724
 6767W        W71587  32.920  28.717   4.093
 6768W        W71588   6.941  19.073   1.776
 6769W        W71589  28.113  17.618  11.013
 6770W        W71590   8.870  44.767  10.500
 6771W        W71591  32.931  21.754  13.589
 6772W        W71592  38.786  35.863   3.600
 6773W        W71593  14.207  30.117  13.404
 6774W        W71594  30.024  32.549  14.058
 6775W        W71595  16.947  36.705  14.363
 6776W        W71596  17.244  30.490  10.673
 6777W        W71597  34.715  43.053  14.732
 6778W        W71598  24.172  42.956   1.934
 6779W        W71599   0.259  28.559   3.456
 6780W        W71600  29.083  10.676   3.147
 6781W        W71601  35.579   0.484  12.872
 6782W        W71602   4.656  30.479  14.444
 6783W        W71603   0.070  24.116  11.635
 6784W        W71604  16.198  14.302  11.293
 6785W        W71605  29.979  24.452   3.418
 6786W        W71606  31.879  11.503  13.831
 6787W        W71607  26.616   5.863   2.869
 6788W        W71608   1.703  29.112   1.133
 6789W        W71609   8.738  41.832   3.339
 6790W        W71610  30.676  40.006   0.334
 6791W        W71611   9.695  25.004  11.579
 6792W        W71612  14.961  39.894  12.026
 6793W        W71613  20.044  26.182   4.902
 6794W        W71614  29.818  37.451  14.754
 6795W        W71615  16.057  19.080  11.085
 6796W        W71616   5.738  36.582  12.472
 6797W        W71617  42.936   1.520   1.396
 6798W        W71618   9.389  42.561   1.810
 6799W        W71619  33.666  30.641  14.903
 6800W        W71620  40.088   9.101  13.911
 6801W        W71621  23.703  13.629   2.919
 6802W        W71622  11.388  33.299   1.256
 6803W        W71623  40.077  40.920   4.702
 6804W        W71624  36.530  23.587   2.354
 6805W        W71625   7.139  17.596   3.584
 6806W        W71626   5.811  13.801  14.558
 6807W        W71627  40.570  37.545   0.638
 6808W        W71628  28.872  26.533   2.422
 6809W        W71629  36.905  33.445   2.169
 6810W        W71630   1.230   6.252   3.598
 6811W        W71631  35.855  18.222   1.988
 6812W        W71632   1.080  25.714  14.941
 6813W        W71633   3.302  20.004  10.705
 6814W        W71634  24.387  19.574  12.930
 6815W        W71635  44.560  19.713   3.113
 6816W        W71636  32.604   7.821   1.664
 6817W        W71637  43.432  42.713   0.423
 6818W        W71638  16.866  27.138   3.753
 6819W        W71639   3.156  28.107   4.212
 6820W        W71640  36.961   9.667  12.336
 6821W        W71641  28.478  11.713   1.370
 6822W        W71642  20.299  30.917  13.749
 6823W        W71643  30.552  10.582  10.732
 6824W        W71644  44.392  39.667  10.371
 6825W        W71645   3.907  26.075   2.180
 6826W        W71646  14.110  16.625   0.991
 6827W        W71647  13.212  25.955   2.826
 6828W        W71648  29.275   8.706   1.352
 6829W        W71649   6.724  13.663  12.545
 6830W        W71650  18.586  25.701  13.380
 6831W        W71651  28.067  43.370   2.680
 6832W        W71652   8.480  44.542  10.753
 6833W        W71653   5.386  40.852   2.857
 6834W        W71654  16.857  24.246  11.048
 6835W        W71655   0.810  27.895   2.870
 6836W        W71656   6.443  44.961   1.234
 6837W        W71657  14.643  39.620  11.453
 6838W        W71658  30.457   7.765  13.773
 6839W        W71659  40.433  19.938  13.916
 6840W        W71660  16.021  39.476   0.876
 6841W        W71661  38.474   0.703   0.276
 6842W        W71662   6.208  15.053  13.231
 6843W        W71663  27.045   6.285  13.294
 6844W        W71664   6.420  30.681   3.894
 6845W        W71665  25.091  16.017  10.704
 6846W        W71666  40.213  16.713   2.007
 6847W        W71667  34.600  38.097   2.764
 6848W        W71668  24.074  30.687   4.659
 6849W        W71669   7.150   2.387   3.162
 6850W        W71670   8.749  28.084  14.854
 6851W        W71671  11.223  25.175  13.828
 6852W        W71672  44.765  32.862  14.742
 6853W        W71673  19.175  44.773  14.319
 6854W        W71674  13.596   3.318   4.958
 6855W        W71675  13.594  13.723  13.305
 6856W        W71676   7.093  21.453   9.470
 6857W        W71677  32.045  35.871   0.815
 6858W        W71678  44.455  38.064   3.651
 6859W        W71679  25.674  23.176  11.963
 6860W        W71680  29.604  11.394   1.689
 6861W        W71681  16.296  36.520  13.595
 6862W        W71682  31.053  10.825  12.616
 6863W        W71683  15.730   6.330   0.667
 6864W        W71684   6.423  44.889  10.793
 6865W        W71685  40.996  15.625   3.744
 6866W        W71686   0.746  29.986  11.126
 6867W        W71687   5.215  20.027  14.370
 6868W        W71688  42.891  24.171  11.508
 6869W        W71689  41.382  39.486   2.609
 6870W        W71690  14.143  32.152  11.634
 6871W        W71691   9.399  32.970  14.570
 6872W        W71692   6.792  40.443  14.462
 6873W        W71693  19.649  41.472   1.384
 6874W        W71694   6.489  22.062   4.428
 6875W        W71695  13.064   5.396   0.008
 6876W        W71696   6.868  19.187  14.115
 6877W        W71697   2.221  16.597   3.711
 6878W        W71698   0.470  18.077   0.598
 6879W        W71699  40.834  28.884  13.899
 6880W        W71700  42.439  23.029   1.889
 6881W        W71701  44.980  28.050   4.858
 6882W        W71702  26.176  43.298  10.904
 6883W        W71703  39.915  15.181   3.138
 6884W        W71704  35.270  25.919  10.596
 6885W        W71705  11.142  26.425  14.390
 6886W        W71706  38.276  18.273  10.096
 6887W        W71707   1.585  42.799  13.434
 6888W        W71708  29.541  17.597   0.296
 6889W        W71709  12.880  31.130   4.623
 6890W        W71710   3.667  20.660  12.871
 6891W        W71711  15.629  22.708   5.332
 6892W        W71712  23.087  24.001   2.801
 6893W        W71713  25.992  15.892  11.848
 6894W        W71714  44.732   8.427  14.190
 6895W        W71715  15.178  44.710   0.371
 6896W        W71716  39.440   7.637  14.362
 6897W        W71717  34.194   3.159   0.589
 6898W        W71718  39.862  41.379   3.627
 6899W        W71719  14.040  21.340  11.102
 6900W        W71720   5.247  39.007   0.252
 6901W        W71721   9.880  21.734   1.464
 6902W        W71722  30.414  21.445  12.850
 6903W        W71723   7.615   7.030  10.754
 6904W        W71724  13.283   7.940  12.448
 6905W        W71725  13.111   1.730  14.040
 6906W        W71726  24.975  32.994   1.139
 6907W        W71727  13.193  19.838  14.474
 6908W        W71728  24.605  30.170   3.215
 6909W        W71729   2.820  20.018  10.519
 6910W        W71730   5.861  36.430  10.520
 6911W        W71731  21.691  15.733  11.175
 6912W        W71732  34.893  38.889  12.241
 6913W        W71733  44.342   8.650  10.613
 6914W        W71734  15.169  24.648  14.360
 6915W        W71735  31.137  28.414   3.328
 6916W        W71736  18.514  28.917  14.887
 6917W        W71737  31.634  20.200  11.745
 6918W        W71738  42.340   2.197   2.780
 6919W        W71739   8.343  25.420  14.839
 6920W        W71740  32.631   1.206   1.447
 6921W        W71741  42.827   0.221  14.779
 6922W        W71742  44.819  29.957  13.263
 6923W        W71743   5.757  40.812  11.134
 6924W        W71744  42.711  35.272  11.493
 6925W        W71745   6.014  11.600  12.476
 6926W        W71746  38.780  15.294   0.009
 6927W        W71747   7.635  19.067  12.992
 6928W        W71748  38.685  20.290   0.379
 6929W        W71749  14.364  39.996  10.553
 6930W        W71750  12.167  40.419   1.721
 6931W        W71751  25.630  15.873   4.484
 6932W        W71752  29.626   2.468  13.449
 6933W        W71753  21.679   3.770  11.543
 6934W        W71754   6.066   9.410  12.086
 6935W        W71755  16.577  19.347  10.514
 6936W        W71756  18.259  26.254  10.743
 6937W        W71757   2.523   1.297   0.885
 6938W        W71758  38.863  38.557   1.008
 6939W        W71759  10.249   3.846   4.617
 6940W        W71760  36.982  27.121   3.680
 6941W        W71761  23.219  43.270   3.276
 6942W        W71762  19.692  11.511   3.324
 6943W        W71763  22.530   0.135  10.236
 6944W        W71764  21.699  41.107   1.797
 6945W        W71765  21.698  16.539  13.299
 6946W        W71766  36.475  26.268  12.250
 6947W        W71767  22.826  40.461   0.266
 6948W        W71768  10.448   2.366   4.234
 6949W        W71769  37.519   3.990   0.396
 6950W        W71770  39.455  16.366   0.431
 6951W        W71771  38.047  32.452   3.235
 6952W        W71772   2.843  35.154  11.161
 6953W        W71773  26.194  37.613   1.712
 6954W        W71774  19.752  40.799   2.110
 6955W        W71775  21.810  12.655  12.065
 6956W        W71776  44.218  25.959   3.646
 6957W        W71777   9.288   2.873   4.859
 6958W        W71778   1.963  35.233  14.501
 6959W        W71779  19.711   6.193  11.900
 6960W        W71780   3.511  13.099  14.273
 6961W        W71781   0.438  42.559   1.770
 6962W        W71782  22.692  15.135   4.379
 6963W        W71783  38.828   4.908   3.621
 6964W        W71784  32.896  13.517   5.646
 6965W        W71785   7.716  17.667   2.735
 6966W        W71786  19.227   2.484  10.730
 6967W        W71787  44.022  27.896   4.243
 6968W        W71788   0.988   1.297   0.485
 6969W        W71789  31.482  41.329   4.994
 6970W        W71790  17.543  15.531   2.212
 6971W        W71791  42.022  43.729   2.673
 6972W        W71792  32.974  35.787   5.006
 6973W        W71793  27.206  34.826   4.052
 6974W        W71794   3.016  24.804  12.940
 6975W        W71795  16.975  29.769   0.543
 6976W        W71796  23.254  35.141  11.958
 6977W        W71797  26.441  14.320  13.331
 6978W        W71798  22.063  11.809   4.083
 6979W        W71799  21.203   4.928   0.272
 6980W        W71800   9.272  20.744   2.804
 6981W        W71801   2.748  38.362  13.482
 6982W        W71802  16.136  31.712  12.346
 6983W        W71803   5.056  42.573   0.425
 6984W        W71804   2.821  43.777   0.277
 6985W        W71805  22.116  44.871   0.991
 6986W        W71806   9.394  36.778   3.141
 6987W        W71807  40.253   9.540   0.033
 6988W        W71808   6.178   0.394   1.363
 6989W        W71809  37.649  15.492   9.775
 6990W        W71810  20.500  17.136  14.282
 6991W        W71811   2.529  17.330   2.416
 6992W        W71812  29.527   9.923   1.661
 6993W        W71813  30.529  43.517  13.349
 6994W        W71814  36.952   5.364   3.059
 6995W        W71815   3.780  20.970   0.400
 6996W        W71816  14.249  15.958  13.873
 6997W        W71817  12.247   4.699  12.445
 6998W        W71818   9.465  29.026  13.945
 6999W        W71819  16.812  17.275  12.098
 7000W        W71820  44.246  36.482  13.897
 7001W        W71821  38.159  13.904  14.499
 7002W        W71822  33.791  43.585   0.996
 7003W        W71823  21.321  27.671  10.391
 7004W        W71824  27.524  11.083   3.174
 7005W        W71825  36.790  28.376   1.682
 7006W        W71826  42.057   6.578   1.412
 7007W        W71827  16.771   4.792   3.733
 7008W        W71828  33.538  20.675  11.002
 7009W        W71829  26.640  17.606   3.531
 7010W        W71830  15.738  26.768  13.830
 7011W        W71831  38.388  41.046   2.284
 7012W        W71832   2.765   7.741  11.053
 7013W        W71833  36.602  44.740   3.278
 7014W        W71834  41.924  36.784  12.550
 7015W        W71835  26.303  16.633   2.883
 7016W        W71836  19.131  40.297  12.313
 7017W        W71837  39.478  43.959   1.677
 7018W        W71838  13.330   6.325  11.861
 7019W        W71839  23.858  24.118   3.844
 7020W        W71840  41.851  11.724   4.986
 7021W        W71841  15.075  14.125  14.398
 7022W        W71842  28.470   6.101  11.595
 7023W        W71843   3.385  16.669   2.711
 7024W        W71844  42.603  28.442   1.224
 7025W        W71845  41.377  26.038   2.717
 7026W        W71846  24.693  24.567  11.088
 7027W        W71847   3.407  16.308  13.392
 7028W        W71848  29.686   9.118   3.398
 7029W        W71849   7.798  35.669   1.588
 7030W        W71850   7.195  15.929  12.040
 7031W        W71851  35.427  35.886  12.955
 7032W        W71852  15.110  27.239  11.930
 7033W        W71853  22.195  43.755   4.240
 7034W        W71854   9.387  13.909   2.009
 7035W        W71855  44.877  11.979   1.827
 7036W        W71856   9.855  24.486   2.805
 7037W        W71857   2.266  22.110   0.412
 7038W        W71858  12.721  27.811   1.339
 7039W        W71859   1.831   0.522  14.736
 7040W        W71860   8.247  35.512   2.912
 7041W        W71861  15.858  17.136   4.893
 7042W        W71862  36.087  43.561   1.980
 7043W        W71863  24.288  38.727  14.833
 7044W        W71864  33.975   2.970  11.884
 7045W        W71865   7.909  20.128   1.723
 7046W        W71866   3.341  36.124  14.233
 7047W        W71867   6.789  26.783   4.758
 7048W        W71868  28.539  20.304   5.260
 7049W        W71869  13.392  22.671   2.271
 7050W        W71870  37.641  25.950   3.765
 7051W        W71871  43.487  30.621  11.364
 7052W        W71872  44.599   5.450   1.464
 7053W        W71873  16.732  25.233  12.929
 7054W        W71874  38.071  15.013   3.833
 7055W        W71875   8.416  31.529  11.538
 7056W        W71876   4.858  43.996  12.662
 7057W        W71877  11.160  36.953  13.381
 7058W        W71878  26.280   1.510  11.168
 7059W        W71879  24.661   5.745   4.433
 7060W        W71880  20.518  26.642  12.628
 7061W        W71881   1.993   9.172  14.422
 7062W        W71882  42.348  26.764   3.027
 7063W        W71883   7.157   0.106  14.376
 7064W        W71884  17.677  40.817   4.092
 7065W        W71885   8.804  44.815   4.591
 7066W        W71886  25.621  33.465   1.021
 7067W        W71887  20.072  29.168   1.914
 7068W        W71888  14.146  19.290  14.253
 7069W        W71889  44.258  26.529  10.720
 7070W        W71890  44.834  18.763   1.663
 7071W        W71891  42.739   0.175   1.246
 7072W        W71892  33.271  36.543   2.613
 7073W        W71893  29.862  34.538   0.714
 7074W        W71894   2.038  11.303   0.836
 7075W        W71895  33.046  13.608  13.003
 7076W        W71896   5.909   9.648   1.243
 7077W        W71897   2.669  17.822  12.421
 7078W        W71898  17.108  33.953   1.857
 7079W        W71899   0.601  10.120   3.361
 7080W        W71900   9.287  24.143  12.058
 7081W        W71901  18.926  21.049  13.312
 7082W        W71902   8.608   4.947  14.023
 7083W        W71903   0.000  21.149  13.070
 7084W        W71904  24.573   4.912   0.472
 7085W        W71905  26.217  20.708   1.338
 7086W        W71906  12.145  13.866  12.543
 7087W        W71907  17.130  22.303   1.875
 7088W        W71908   4.616  36.772   0.587
 7089W        W71909  31.262  17.367  14.222
 7090W        W71910  39.570  26.453  11.080
 7091W        W71911   5.660   8.797   0.781
 7092W        W71912  41.892  38.540   3.581
 7093W        W71913  14.960   1.851  13.745
 7094W        W71914  42.989  29.616  12.584
 7095W        W71915  34.529  17.614  14.118
 7096W        W71916  29.096  43.574  10.826
 7097W        W71917   6.995  43.466  11.995
 7098W        W71918  22.096  23.982   3.231
 7099W        W71919  11.364  34.943  12.832
 7100W        W71920  10.135   3.725  12.604
 7101W        W71921   8.440  24.797   0.825
 7102W        W71922   8.918  38.186  11.785
 7103W        W71923   7.914  36.939   1.360
 7104W        W71924   7.608   5.977  11.888
 7105W        W71925  42.798  24.488  12.999
 7106W        W71926  37.087   1.261   2.238
 7107W        W71927   8.542   0.364   0.735
 7108W        W71928  40.584  32.482   3.876
 7109W        W71929  15.842  17.623  14.577
 7110W        W71930  26.562  29.933   3.412
 7111W        W71931   1.952   3.534  12.472
 7112W        W71932  11.879  34.741   5.074
 7113W        W71933  18.592  16.258   4.899
 7114W        W71934  30.580  18.729  13.770
 7115W        W71935  43.282   8.997  11.180
 7116W        W71936  38.761  20.342  12.089
 7117W        W71937  21.864  29.576  12.123
 7118W        W71938  36.884  40.395  14.268
 7119W        W71939  32.483  43.762   3.857
 7120W        W71940  17.632  15.806   0.815
 7121W        W71941  39.864  12.854   2.837
 7122W        W71942  34.520  26.637  14.945
 7123W        W71943  41.188  16.221   0.019
 7124W        W71944  12.792  32.713  10.644
 7125W        W71945  28.431  23.200  14.201
 7126W        W71946  32.303  18.959   4.049
 7127W        W71947  44.706   5.753  13.934
 7128W        W71948  15.338  14.990   4.715
 7129W        W71949  29.091   4.872   1.445
 7130W        W71950   6.222   1.238   2.771
 7131W        W71951  19.013  19.610   3.105
 7132W        W71952  36.051  30.505   1.340
 7133W        W71953  17.688   0.489  11.985
 7134W        W71954  23.745  31.974   2.802
 7135W        W71955  34.108  31.451  11.690
 7136W        W71956  18.203   0.663   0.373
 7137W        W71957  13.651  28.744   4.119
 7138W        W71958  33.936   8.675  12.985
 7139W        W71959  14.604  24.023  14.096
 7140W        W71960  29.411  18.321   2.834
 7141W        W71961   1.432  16.204  11.143
 7142W        W71962  18.748  43.975  12.080
 7143W        W71963  13.257  32.108  11.047
 7144W        W71964  21.065  38.027   0.597
 7145W        W71965  17.957  18.007  12.976
 7146W        W71966  39.155  18.306   0.327
 7147W        W71967  14.773   0.461  11.890
 7148W        W71968  33.481   0.369  10.890
 7149W        W71969  38.938  10.904   2.241
 7150W        W71970   2.386   9.526  11.069
 7151W        W71971   8.478   1.754  14.997
 7152W        W71972   0.391  14.920  12.256
 7153W        W71973  36.570   6.256  13.609
 7154W        W71974  42.777  36.534   3.191
 7155W        W71975  41.316  38.994  14.401
 7156W        W71976  38.855  31.547  14.337
 7157W        W71977  22.478   0.904   3.642
 7158W        W71978  25.576  19.081  12.498
 7159W        W71979  32.557   3.657   0.251
 7160W        W71980  38.041  13.425  11.729
 7161W        W71981  24.508   8.207   0.856
 7162W        W71982  13.849   8.385   4.750
 7163W        W71983   2.861  32.918   0.812
 7164W        W71984  19.639  11.857  11.847
 7165W        W71985  18.283  18.796  11.107
 7166W        W71986   2.249  43.574   1.121
 7167W        W71987  36.885  13.610  14.488
 7168W        W71988  33.671  32.573   4.124
 7169W        W71989  17.712  44.704  10.364
 7170W        W71990  25.859  22.169   4.128
 7171W        W71991   3.193  33.273   3.673
 7172W        W71992  24.872  11.225   1.120
 7173W        W71993  18.972  16.551   1.229
 7174W        W71994  25.721   3.673   4.104
 7175W        W71995  33.570  29.978  13.019
 7176W        W71996   2.484  40.389  14.783
 7177W        W71997  14.331  43.601   3.285
 7178W        W71998  44.401  24.978   2.455
 7179W        W71999  18.815   6.463  10.558
 7180W        W72000  38.003  19.973   4.142
 7181W        W72001  35.930   2.694   3.346
 7182W        W72002   5.107  24.703   1.745
 7183W        W72003   0.977  36.231  14.538
 7184W        W72004   2.223  36.660  13.519
 7185W        W72005  34.393  38.603   2.673
 7186W        W72006   0.593  17.251   0.177
 7187W        W72007  41.924  28.025  12.952
 7188W        W72008  12.382  36.053   1.806
 7189W        W72009  38.752  10.753  14.284
 7190W        W72010  15.097   7.722   0.452
 7191W        W72011  43.577  35.019  10.451
 7192W        W72012  31.662  20.080   5.058
 7193W        W72013  10.642  36.585  12.106
 7194W        W72014  14.927  23.006  11.949
 7195W        W72015  32.962  27.568  13.973
 7196W        W72016   4.858   6.849   2.465
 7197W        W72017   2.754  42.333  10.774
 7198W        W72018  27.898   4.880  14.013
 7199W        W72019  43.860   9.970  10.720
 7200W        W72020  26.764  10.850   1.813
 7201W        W72021  14.675   8.761  11.877
 7202W        W72022  18.024  23.663  14.766
 7203W        W72023  24.222  41.469   0.457
 7204W        W72024  12.708  43.059  10.721
 7205W        W72025  44.392  23.715  10.811
 7206W        W72026  21.004  10.397  11.731
 7207W        W72027  23.614  16.622  10.688
 7208W        W72028  19.029  22.333  13.448
 7209W        W72029  39.390  35.537   5.098
 7210W        W72030  16.648  33.674  12.067
 7211W        W72031  14.353  39.637   1.950
 7212W        W72032  18.742  32.048   9.993
 7213W        W72033  40.792   6.624  13.452
 7214W        W72034   7.954  30.195   1.871
 7215W        W72035   0.571   3.278   5.061
 7216W        W72036  16.580  44.964  12.889
 7217W        W72037  37.295  10.351   0.858
 7218W        W72038  13.241   2.244  14.156
 7219W        W72039  16.139  19.520  10.771
 7220W        W72040  23.238  28.075   1.758
 7221W        W72041  37.907  19.233  12.235
 7222W        W72042  23.123  14.829   1.724
 7223W        W72043  29.406  18.212  13.685
 7224W        W72044  37.119  25.012   1.180
 7225W        W72045  11.171  16.119   2.639
 7226W        W72046  22.717  41.961  14.175
 7227W        W72047  17.195  41.804  11.545
 7228W        W72048  26.422  28.952   3.637
 7229W        W72049  38.098   8.686  10.741
 7230W        W72050  15.838  26.170  13.004
 7231W        W72051  19.557  40.113  12.066
 7232W        W72052  35.307  26.660   0.785
 7233W        W72053  15.582  16.303   4.491
 7234W        W72054  32.099   2.959   1.371
 7235W        W72055  10.933   1.889   0.494
 7236W        W72056  34.391  18.833   5.090
 7237W        W72057  22.601  30.536  11.496
 7238W        W72058  15.329  30.235  12.250
 7239W        W72059  31.303  33.143  11.199
 7240W        W72060  14.731   3.163  10.994
 7241W        W72061  25.250  15.749  14.243
 7242W        W72062  40.529  23.027  11.175
 7243W        W72063  42.891  32.706   3.602
 7244W        W72064  12.559  10.927   3.166
 7245W        W72065  32.345  17.810   3.074
 7246W        W72066  25.727  41.023  14.804
 7247W        W72067  29.612  39.748   0.758
 7248W        W72068   0.799  44.776  13.490
 7249W        W72069  36.092  24.974  11.859
 7250W        W72070  18.266  31.925   3.689
 7251W        W72071   0.555  13.866   2.619
 7252W        W72072  44.291  25.524  11.236
 7253W        W72073  10.018  23.154  10.192
 7254W        W72074  38.410  19.761  12.873
 7255W        W72075  34.065  23.109   0.734
 7256W        W72076   0.431  15.413  13.037
 7257W        W72077  24.624  21.090  12.127
 7258W        W72078  31.420   5.743   0.444
 7259W        W72079  19.797  21.138   1.357
 7260W        W72080   5.626   0.846   3.462
 7261W        W72081   3.795  22.599   0.064
 7262W        W72082   8.120  21.347   1.199
 7263W        W72083   8.936  41.832  11.476
 7264W        W72084  28.075  30.388   1.812
 7265W        W72085  15.639  43.824   4.948
 7266W        W72086   3.443  24.142  13.839
 7267W        W72087  24.927   5.176  10.999
 7268W        W72088  16.995   0.773  11.080
 7269W        W72089  23.305  35.546  10.650
 7270W        W72090   3.730  22.424   2.796
 7271W        W72091  12.739  10.318   3.687
 7272W        W72092  39.090  19.060   2.908
 7273W        W72093  30.988   1.988  12.954
 7274W        W72094   1.859   4.219  12.000
 7275W        W72095   8.587  11.868   0.307
 7276W        W72096   3.758  30.211  11.279
 7277W        W72097  23.541  39.032   2.832
 7278W        W72098   0.205  18.027   2.023
 7279W        W72099   1.807   5.855   2.030
 7280W        W72100  44.331  40.346   4.857
 7281W        W72101  34.839  12.126  12.474
 7282W        W72102  24.440  40.507   3.709
 7283W        W72103  16.711  43.235   4.088
 7284W        W72104  29.054  19.843   4.853
 7285W        W72105  38.115  18.845  12.610
 7286W        W72106  40.481  18.795   0.087
 7287W        W72107  35.819  44.403  12.561
 7288W        W72108  20.191   9.371   0.931
 7289W        W72109  16.349  27.288  12.197
 7290W        W72110  19.345   4.485  12.445
 7291W        W72111  14.172  41.245   2.236
 7292W        W72112  34.167   2.404  13.090
 7293W        W72113  39.856  39.661   2.346
 7294W        W72114  37.648  26.462   2.352
 7295W        W72115  41.920   1.027   5.069
 7296W        W72116  33.223  34.608   4.835
 7297W        W72117   4.752  10.802  10.846
 7298W        W72118  24.781  32.123  10.902
 7299W        W72119  42.818  42.815   4.564
 7300W        W72120  18.291  12.254   4.096
 7301W        W72121  35.158  12.061   0.646
 7302W        W72122  43.819  26.079  14.536
 7303W        W72123  31.921   3.776   3.523
 7304W        W72124  29.459   3.377   0.468
 7305W        W72125  22.633  28.015  10.253
 7306W        W72126  21.483  37.523  14.380
 7307W        W72127   0.701  19.797  13.959
 7308W        W72128  35.065  44.392  10.552
 7309W        W72129  23.227   6.869   5.001
 7310W        W72130  29.706  24.067  12.407
 7311W        W72131  22.187  37.958   3.225
 7312W        W72132   3.326  13.590  14.193
 7313W        W72133  21.553  39.903  10.421
 7314W        W72134  18.329   4.508   4.532
 7315W        W72135   1.649   0.005   4.543
 7316W        W72136  42.727  44.282   2.888
 7317W        W72137  44.731  18.736  12.766
 7318W        W72138   7.369  24.793   3.328
 7319W        W72139   3.359  10.739  10.594
 7320W        W72140   4.460  14.265  11.603
 7321W        W72141  24.073   6.719   4.583
 7322W        W72142  26.571  21.186   0.811
 7323W        W72143  17.111   5.644  14.533
 7324W        W72144  26.576  19.243   1.816
 7325W        W72145   0.190  13.178   2.757
 7326W        W72146  19.538  34.548   3.306
 7327W        W72147  19.733  23.526   1.615
 7328W        W72148  20.246  38.360   0.272
 7329W        W72149  32.424   3.865  11.545
 7330W        W72150   4.579  44.487  14.413
 7331W        W72151  36.910   2.185  12.426
 7332W        W72152  13.092  19.360  12.873
 7333W        W72153  13.628   3.260   0.930
 7334W        W72154  20.729   9.852  13.473
 7335W        W72155  28.454  13.068  13.536
 7336W        W72156  29.662  32.645   4.316
 7337W        W72157  27.207  19.597  11.279
 7338W        W72158  16.762  37.542   1.332
 7339W        W72159   2.863  23.417   0.568
 7340W        W72160  18.222   5.982  11.280
 7341W        W72161  33.558  21.762   4.624
 7342W        W72162  18.523  13.818  11.200
 7343W        W72163  11.073  16.864  12.558
 7344W        W72164  22.150   2.244   4.342
 7345W        W72165  35.495   1.471  14.361
 7346W        W72166  20.168  30.085   3.887
 7347W        W72167  14.860  35.164  14.332
 7348W        W72168  42.597  44.392  14.061
 7349W        W72169   7.581  12.500  10.158
 7350W        W72170   9.457  23.589   1.320
 7351W        W72171   8.405  30.425  12.606
 7352W        W72172  36.016   0.543  10.165
 7353W        W72173   5.669  37.064   3.262
 7354W        W72174  17.872  37.273  12.868
 7355W        W72175  19.513  34.157  11.934
 7356W        W72176   3.468  11.573  12.729
 7357W        W72177  12.035  14.407  12.543
 7358W        W72178   3.014  26.169  12.101
 7359W        W72179   4.238  29.638  14.556
 7360W        W72180   4.980  40.051  11.501
 7361W        W72181   7.511  34.344  11.089
 7362W        W72182  34.362  42.502   3.413
 7363W        W72183  34.965  43.659   0.376
 7364W        W72184  21.480  36.460   9.738
 7365W        W72185  20.272   2.886  12.897
 7366W        W72186  41.343  27.197  12.447
 7367W        W72187  42.375  27.740  13.076
 7368W        W72188  15.191  23.531  14.403
 7369W        W72189  34.472  18.025   1.880
 7370W        W72190  17.033  23.444  13.065
 7371W        W72191   5.921  19.744   3.741
 7372W        W72192  37.934  21.984  10.977
 7373W        W72193   2.968  32.681  12.394
 7374W        W72194  15.320   2.553   2.339
 7375W        W72195  40.223  43.387  12.619
 7376W        W72196  11.325   2.233   4.653
 7377W        W72197  30.823  10.121  10.817
 7378W        W72198  20.669  16.755   1.863
 7379W        W72199  42.402  22.648  12.966
 7380W        W72200  11.640  12.624  13.394
 7381W        W72201  26.084   1.750  11.593
 7382W        W72202  43.942  25.267  13.071
 7383W        W72203  25.180  29.381  11.642
 7384W        W72204  33.950  26.656   5.317
 7385W        W72205  38.387  43.822   0.363
 7386W        W72206  17.167  38.256   3.230
 7387W        W72207  20.601  28.898   1.246
 7388W        W72208  29.481  32.509   2.404
 7389W        W72209  27.232   9.004  14.681
 7390W        W72210  18.513  33.527  11.613
 7391W        W72211   1.981   9.189   4.105
 7392W        W72212  26.259  22.432  14.437
 7393W        W72213   4.648   6.200   5.008
 7394W        W72214  28.229  39.206   0.608
 7395W        W72215  10.277   5.994   3.393
 7396W        W72216  35.964   7.561   4.051
 7397W        W72217  31.164  29.629  13.659
 7398W        W72218  33.395   3.485  13.862
 7399W        W72219  38.785  11.909  13.649
 7400W        W72220   0.911  20.954   0.319
 7401W        W72221  28.702  40.269  14.926
 7402W        W72222  15.289  12.647  10.863
 7403W        W72223  11.762   1.812   3.219
 7404W        W72224  38.036  25.416  14.445
 7405W        W72225   5.128  17.059   2.794
 7406W        W72226  11.599  24.620  11.749
 7407W        W72227  40.318  16.750  11.264
 7408W        W72228  23.036  13.827   0.769
 7409W        W72229  40.168  33.456  13.385
 7410W        W72230  38.941  14.985   2.208
 7411W        W72231  17.024  17.551  14.190
 7412W        W72232  19.044  42.480  13.803
 7413W        W72233  39.470  37.754   3.292
 7414W        W72234  34.090  24.441   1.850
 7415W        W72235  21.878  26.132   2.480
 7416W        W72236  23.680   0.893  14.830
 7417W        W72237  29.681  33.834   2.325
 7418W        W72238   5.987  14.703  12.890
 7419W        W72239   6.838  44.388   4.298
 7420W        W72240  13.995  17.440   0.449
 7421W        W72241   6.370  42.738  13.508
 7422W        W72242  16.261   8.200  14.918
 7423W        W72243   2.281  25.410   4.429
 7424W        W72244  44.944   7.369   3.621
 7425W        W72245   8.459  28.013  10.959
 7426W        W72246  19.533   6.008  13.324
 7427W        W72247  23.032  37.008   3.916
 7428W        W72248  14.786  42.801   4.599
 7429W        W72249  32.069  27.518   0.909
 7430W        W72250   0.445  27.130   1.064
 7431W        W72251  27.092  31.907   1.329
 7432W        W72252  11.383  25.156  11.262
 7433W        W72253   7.388  24.313   2.610
 7434W        W72254  25.042  38.798   0.527
 7435W        W72255  38.504  34.521   4.519
 7436W        W72256  22.188  12.526  14.920
 7437W        W72257  22.313   8.201   1.132
 7438W        W72258  25.690  43.417  12.174
 7439W        W72259  36.275  34.228  14.220
 7440W        W72260   3.777  21.576  13.404
 7441W        W72261  25.761  27.895  11.171
 7442W        W72262  19.395  35.718   4.664
 7443W        W72263  41.444  37.012   4.783
 7444W        W72264   7.591  24.689   2.324
 7445W        W72265  40.830  36.424   1.394
 7446W        W72266  20.690  40.527   3.558
 7447W        W72267  25.392  34.546   3.481
 7448W        W72268  32.431  10.827   4.285
 7449W        W72269   5.210  42.408   4.262
 7450W        W72270  27.005   4.156  10.767
 7451W        W72271  41.605  22.922  11.180
 7452W        W72272  34.342  41.284   3.967
 7453W        W72273  24.022  42.883  10.809
 7454W        W72274  14.635  41.035   4.488
 7455W        W72275   7.063  25.676   1.895
 7456W        W72276  12.247  28.619  13.889
 7457W        W72277  23.682   6.861   2.711
 7458W        W72278   6.277  28.513   4.551
 7459W        W72279  31.470  18.374  12.993
 7460W        W72280  34.579   0.436   2.688
 7461W        W72281  23.425  44.000   2.785
 7462W        W72282   7.199   1.693  10.700
 7463W        W72283  29.932  17.464  13.481
 7464W        W72284  32.230  27.509   4.335
 7465W        W72285  35.110   2.562   3.780
 7466W        W72286  33.719  27.097   2.232
 7467W        W72287   5.212  11.788   2.398
 7468W        W72288  43.794   6.661   0.792
 7469W        W72289  33.165  39.540   2.128
 7470W        W72290   8.022   6.273  12.451
 7471W        W72291  20.995  34.998   0.587
 7472W        W72292  22.074  20.253  10.973
 7473W        W72293  17.578  22.565   1.921
 7474W        W72294  35.877  35.450   3.194
 7475W        W72295  34.962  28.763   2.471
 7476W        W72296   5.625  38.358  11.151
 7477W        W72297  40.154  25.993  11.139
 7478W        W72298  24.647  18.455  14.287
 7479W        W72299  33.719  39.313   4.168
 7480W        W72300  28.417  41.387  11.107
 7481W        W72301  43.974  37.175   3.088
 7482W        W72302  44.201   5.690  13.936
 7483W        W72303  18.170  22.775  13.029
 7484W        W72304   2.477  19.640  10.716
 7485W        W72305  33.031  20.620   4.679
 7486W        W72306  29.182   2.723  12.511
 7487W        W72307  32.619  40.823  12.096
 7488W        W72308  33.495  42.056  13.927
 7489W        W72309  41.590  17.541  13.446
 7490W        W72310  34.906  21.405  11.614
 7491W        W72311  33.809   2.951  13.790
 7492W        W72312  10.362   1.773  14.898
 7493W        W72313  34.975  39.343   4.135
 7494W        W72314  16.623   2.976   2.252
 7495W        W72315  43.384  19.182   0.271
 7496W        W72316   3.857  15.816   3.399
 7497W        W72317  40.230  35.911  14.926
 7498W        W72318  37.958  43.500  13.023
 7499W        W72319  13.096  44.018   2.786
 7500W        W72320  15.251   7.893  11.623
 7501W        W72321  16.265  27.551  10.749
 7502W        W72322  21.135  26.772  13.766
 7503W        W72323  13.092  18.726   1.706
 7504W        W72324   0.488  24.141   3.448
 7505W        W72325   0.323   3.255  10.846
 7506W        W72326  32.118  35.868  10.626
 7507W        W72327  24.244  16.515  11.097
 7508W        W72328  41.416  12.984   4.548
 7509W        W72329  18.289  23.021  13.477
 7510W        W72330  19.647   5.716  12.895
 7511W        W72331  19.433  26.547   1.752
 7512W        W72332  37.081  36.286  12.129
 7513W        W72333   9.870  34.381  11.652
 7514W        W72334  33.370   7.686  11.486
 7515W        W72335  27.055  32.856  12.518
 7516W        W72336  11.545  43.311   1.807
 7517W        W72337   4.223  11.257  13.396
 7518W        W72338   8.242  12.334   2.721
 7519W        W72339   6.259  12.062   0.212
 7520W        W72340  33.367  27.294   4.296
 7521W        W72341  17.145  43.014   2.254
 7522W        W72342  28.636  29.045  12.074
 7523W        W72343  32.764  15.815  13.036
 7524W        W72344  20.028  20.589   2.243
 7525W        W72345   4.577   8.390   4.874
 7526W        W72346   6.753   6.137   1.549
 7527W        W72347   0.807  37.121  13.370
 7528W        W72348  31.562   7.021  13.138
 7529W        W72349  23.081  21.177   3.180
 7530W        W72350  31.838  21.094  11.896
 7531W        W72351   6.665  21.014  12.512
 7532W        W72352  41.836   2.231   4.412
 7533W        W72353  22.658  35.020   4.555
 7534W        W72354   0.263  39.776   3.719
 7535W        W72355   5.684   4.758   3.611
 7536W        W72356  29.580  36.533   1.896
 7537W        W72357  42.432  21.801   1.337
 7538W        W72358   1.313  22.563   0.703
 7539W        W72359  26.100  33.555  11.894
 7540W        W72360  16.262  22.450   4.137
 7541W        W72361  17.754  25.966   2.358
 7542W        W72362   9.645  28.603   4.743
 7543W        W72363  27.975   0.814   0.836
 7544W        W72364   5.999  27.048   1.786
 7545W        W72365  30.825  22.009  12.098
 7546W        W72366  38.875  21.175  11.554
 7547W        W72367  26.686  20.667  10.324
 7548W        W72368  41.026  14.807  10.751
 7549W        W72369  38.716  42.970   2.450
 7550W        W72370   3.904   7.173   4.340
 7551W        W72371  12.047  43.836  12.672
 7552W        W72372  29.496  14.043   4.151
 7553W        W72373  43.018   5.950   9.793
 7554W        W72374  44.289  21.770  11.080
 7555W        W72375   6.575  15.155   1.423
 7556W        W72376  39.823  10.084  14.864
 7557W        W72377  13.160  32.172   3.196
 7558W        W72378  28.909  27.592  13.349
 7559W        W72379  35.389  37.765  14.792
 7560W        W72380   8.185  29.820  13.482
 7561W        W72381  39.977   3.956  10.754
 7562W        W72382  27.193  31.970  12.529
 7563W        W72383  22.356  21.901  11.677
 7564W        W72384  42.882  11.782   3.598
 7565W        W72385  17.208  40.816  11.701
 7566W        W72386  16.218  15.293   3.222
 7567W        W72387   5.808  30.121  11.177
 7568W        W72388  10.608  31.547   3.084
 7569W        W72389  43.262  43.837   1.292
 7570W        W72390   1.025   6.242   1.657
 7571W        W72391  20.497  12.180   0.464
 7572W        W72392   7.709  26.195  12.863
 7573W        W72393  14.841  23.578  14.786
 7574W        W72394  17.026  40.545   4.422
 7575W        W72395  22.729  12.180  12.890
 7576W        W72396  14.753   1.780   3.170
 7577W        W72397   1.304  10.863   4.445
 7578W        W72398  21.658  35.604   0.963
 7579W        W72399   0.691  28.636   4.073
 7580W        W72400  22.220  15.813  14.062
 7581W        W72401  11.883  39.411  11.855
 7582W        W72402   9.706  20.882   5.130
 7583W        W72403  32.858  10.333  12.984
 7584W        W72404  23.562  23.208   0.449
 7585W        W72405  34.098  41.276  13.921
 7586W        W72406  30.051  20.397   0.431
 7587W        W72407  38.495  42.518   3.725
 7588W        W72408  35.601   8.516   3.153
 7589W        W72409   4.268  17.165  12.797
 7590W        W72410   8.428  38.850   2.869
 7591W        W72411  19.798  24.662  11.653
 7592W        W72412  18.212  18.013   3.269
 7593W        W72413   0.511  21.341   3.653
 7594W        W72414   4.680  22.011   2.700
 7595W        W72415  15.676  28.124  10.354
 7596W        W72416  24.960  21.630  13.084
 7597W        W72417  44.038   9.806   4.141
 7598W        W72418   0.372   0.946   4.594
 7599W        W72419  11.300   0.349   4.651
 7600W        W72420  15.320  24.136  11.174
 7601W        W72421  12.642  44.868   1.407
 7602W        W72422   8.653   2.366   1.724
 7603W        W72423  17.466  35.943   3.488
 7604W        W72424  20.593   1.560  14.766
 7605W        W72425  30.625  16.219   3.295
 7606W        W72426  40.106   8.113   4.309
 7607W        W72427  14.776   9.793   3.401
 7608W        W72428  10.287   0.883  14.738
 7609W        W72429   9.690  42.838   2.272
 7610W        W72430  40.886  43.946   1.371
 7611W        W72431  29.700  31.852  10.276
 7612W        W72432  33.122  23.637   1.362
 7613W        W72433   2.815  19.978   0.176
 7614W        W72434  20.576  18.809   1.474
 7615W        W72435  11.342  37.423  14.930
 7616W        W72436  25.100  44.302  12.408
 7617W        W72437  29.125   9.208   1.410
 7618W        W72438  25.680  29.944   3.841
 7619W        W72439  21.234  20.320   0.833
 7620W        W72440  27.063  29.722  12.144
 7621W        W72441  13.677  20.847   2.211
 7622W        W72442  22.811  11.395   2.698
 7623W        W72443   7.040  21.099  10.304
 7624W        W72444  10.701  28.681  14.132
 7625W        W72445  11.776   2.278  13.346
 7626W        W72446  19.312  27.576   4.763
 7627W        W72447  35.299   2.299   3.364
 7628W        W72448   0.791   1.331  11.416
 7629W        W72449  39.362  20.615   0.859
 7630W        W72450  32.237   9.178   1.075
 7631W        W72451  10.360   8.451  12.689
 7632W        W72452  12.704  28.031   9.718
 7633W        W72453   6.767  36.184   2.835
 7634W        W72454   4.452  30.884  12.021
 7635W        W72455  27.886  16.688  10.963
 7636W        W72456  35.332  19.081   3.635
 7637W        W72457  21.741  31.855  12.558
 7638W        W72458  32.111   2.747   3.623
 7639W        W72459   3.766  11.765  14.629
 7640W        W72460   7.355  42.684  14.559
 7641W        W72461   1.833  43.731   3.781
 7642W        W72462  21.063  32.926  14.472
 7643W        W72463  25.471  27.428  11.195
 7644W        W72464   9.904   1.913   1.280
 7645W        W72465   4.112  31.049   2.691
 7646W        W72466  21.347  37.846   1.935
 7647W        W72467  25.074   4.877   4.597
 7648W        W72468  28.440  42.986   2.659
 7649W        W72469  15.973  12.211  10.494
 7650W        W72470  27.879  28.423  12.886
 7651W        W72471  33.239  22.986   3.710
 7652W        W72472  27.242  10.206   2.362
 7653W        W72473   5.155  13.514  13.055
 7654W        W72474  44.038   8.694  11.068
 7655W        W72475  16.784  20.702  14.312
 7656W        W72476  39.979  28.754   1.661
 7657W        W72477   5.891   0.844   1.287
 7658W        W72478   7.990  15.876  11.708
 7659W        W72479  34.006   5.235   0.222
 7660W        W72480   8.445   2.318   1.226
 7661W        W72481  43.026  24.575   3.120
 7662W        W72482   5.315   8.442  12.868
 7663W        W72483  43.923  42.955   0.416
 7664W        W72484  21.651  35.450   1.453
 7665W        W72485  13.587  25.226   0.358
 7666W        W72486  33.981  41.845  13.044
 7667W        W72487  29.962  23.536  11.610
 7668W        W72488  28.039  43.299   0.803
 7669W        W72489  25.063  41.811   2.349
 7670W        W72490  31.628   7.734   1.819
 7671W        W72491  19.902  42.325  10.648
 7672W        W72492  20.196  12.147   1.814
 7673W        W72493  42.908  40.930  13.926
 7674W        W72494  15.796  20.132  10.724
 7675W        W72495  11.020  10.512  13.914
 7676W        W72496  13.357  24.828   1.795
 7677W        W72497  20.154  20.375  12.175
 7678W        W72498  26.725   9.828  12.202
 7679W        W72499  20.709  30.551   0.449
 7680W        W72500   9.247   8.845  10.635
 7681W        W72501  23.768   9.730   9.691
 7682W        W72502   5.693  24.416  14.323
 7683W        W72503   1.899  10.792   0.852
 7684W        W72504  13.927  15.894  10.049
 7685W        W72505  16.908  20.971  14.906
 7686W        W72506  28.805  28.129   0.900
 7687W        W72507  27.657  43.805  11.827
 7688W        W72508  17.861  28.016  13.045
 7689W        W72509  11.286  31.588  12.566
 7690W        W72510  37.550  33.970   0.616
 7691W        W72511  12.566   7.598   4.693
 7692W        W72512  26.432  32.952   4.020
 7693W        W72513  21.394  32.119  11.168
 7694W        W72514   3.301  33.844   3.717
 7695W        W72515   9.698  38.130   2.114
 7696W        W72516  23.764  15.806  13.541
 7697W        W72517  33.107   6.531   2.737
 7698W        W72518  34.049  43.252   1.481
 7699W        W72519  32.960  26.891  12.459
 7700W        W72520  29.945  21.108   0.986
 7701W        W72521  21.883   1.002   3.142
 7702W        W72522  17.928   6.737  10.045
 7703W        W72523  10.611   1.665  14.277
 7704W        W72524  41.903  25.877  11.941
 7705W        W72525  43.539  30.850   3.761
 7706W        W72526  26.522  43.888  11.402
 7707W        W72527  35.555   7.436  12.505
 7708W        W72528  10.765  23.217   1.992
 7709W        W72529  23.714  16.570  14.871
 7710W        W72530  37.882  42.119  10.378
 7711W        W72531  15.333  19.680  14.963
 7712W        W72532  43.936  22.597  10.536
 7713W        W72533   9.183  22.996   1.266
 7714W        W72534  28.073  42.513   4.250
 7715W        W72535  26.626  27.702   1.247
 7716W        W72536  10.820  12.848  14.035
 7717W        W72537   8.393  37.480   3.488
 7718W        W72538  26.999  37.481   0.367
 7719W        W72539  43.513  42.208   0.557
 7720W        W72540  41.579  35.856   4.224
 7721W        W72541   7.290  26.644   4.575
 7722W        W72542  39.751  23.253  11.101
 7723W        W72543  16.043  42.348   1.415
 7724W        W72544  23.057  15.710   0.290
 7725W        W72545  27.179  21.473   2.722
 7726W        W72546  38.290  18.512   0.714
 7727W        W72547  40.912   0.745  11.972
 7728W        W72548   5.816   8.972  14.372
 7729W        W72549  24.124  37.493   3.023
 7730W        W72550  28.978   3.293   3.199
 7731W        W72551  29.913  22.498   4.168
 7732W        W72552  20.697  39.612  12.854
 7733W        W72553  18.641   8.136   3.483
 7734W        W72554  13.817  30.029  12.224
 7735W        W72555   7.827  29.461  10.752
 7736W        W72556  37.465  20.573   0.655
 7737W        W72557  14.612   2.597   3.609
 7738W        W72558  15.824  27.242   2.753
 7739W        W72559  36.012  21.973  13.365
 7740W        W72560  22.654  29.047  12.166
 7741W        W72561  42.839  39.107  12.946
 7742W        W72562  22.198  35.375  13.307
 7743W        W72563  39.931  15.181  12.580
 7744W        W72564  27.421  16.211   2.225
 7745W        W72565   8.839  38.295  11.294
 7746W        W72566  38.547  44.411  10.048
 7747W        W72567  42.288  41.964  11.130
 7748W        W72568  19.961  31.212  13.470
 7749W        W72569  15.527   6.486  11.513
 7750W        W72570  20.213  29.452  14.791
 7751W        W72571  32.415  31.851   2.274
 7752W        W72572  37.052  34.030   2.851
 7753W        W72573  12.093   0.793   0.267
 7754W        W72574   6.321   8.840  14.454
 7755W        W72575  12.745   7.599   2.113
 7756W        W72576   7.075  27.613   9.836
 7757W        W72577  34.172   7.580  14.259
 7758W        W72578  31.218  37.938   4.145
 7759W        W72579  14.373  28.542  11.941
 7760W        W72580  16.000   7.069  13.799
 7761W        W72581  43.361  27.255  11.118
 7762W        W72582   5.385  16.746  11.487
 7763W        W72583  19.647  13.645   3.289
 7764W        W72584  15.263  30.450  10.049
 7765W        W72585   3.315  26.689   0.240
 7766W        W72586  37.858  26.946   1.955
 7767W        W72587  12.282  25.707  13.103
 7768W        W72588  41.801  29.504  13.405
 7769W        W72589   8.323   9.824   4.526
 7770W        W72590  25.650  29.210   2.419
 7771W        W72591  37.621  25.389  13.735
 7772W        W72592  32.463   2.575  13.298
 7773W        W72593  27.145  20.952   4.967
 7774W        W72594  25.400   3.321  11.752
 7775W        W72595  29.339  16.247   2.816
 7776W        W72596  37.353  39.405   0.688
 7777W        W72597  28.621  40.035   3.928
 7778W        W72598   8.868  21.506  13.794
 7779W        W72599  10.383  25.891   4.397
 7780W        W72600  26.583  32.015   4.586
 7781W        W72601  12.671   5.503   0.857
 7782W        W72602  28.013  36.461  12.178
 7783W        W72603   4.322   7.643  11.176
 7784W        W72604  38.969  44.545  12.072
 7785W        W72605  31.270   5.174   4.257
 7786W        W72606  29.681  35.911   3.550
 7787W        W72607  20.421  28.503  11.271
 7788W        W72608   2.868   0.904   4.593
 7789W        W72609  41.277   2.307   5.029
 7790W        W72610  24.222   8.170   4.555
 7791W        W72611  11.706  10.579   4.687
 7792W        W72612   3.073  40.492  12.138
 7793W        W72613  34.164   8.851  13.478
 7794W        W72614   3.939  43.756   1.737
 7795W        W72615  22.914  23.091   1.665
 7796W        W72616   3.475  11.686   4.305
 7797W        W72617  11.865  28.563  14.735
 7798W        W72618   4.978  19.219   1.007
 7799W        W72619   7.497  35.984   1.230
 7800W        W72620   4.362   9.748   0.443
 7801W        W72621   7.248  32.864  13.652
 7802W        W72622  22.242  44.577   0.559
 7803W        W72623  42.387  36.536  13.431
 7804W        W72624  31.473  42.247   0.632
 7805W        W72625  24.685  26.463   3.646
 7806W        W72626   8.629  32.551   3.591
 7807W        W72627  39.063  33.109  14.018
 7808W        W72628  38.635  42.565   2.833
 7809W        W72629  21.285  19.167   3.800
 7810W        W72630   9.842  36.832  11.581
 7811W        W72631  32.714   3.454  14.365
 7812W        W72632   0.443  42.434   3.874
 7813W        W72633   8.310  36.987   0.428
 7814W        W72634   6.954  29.818  10.301
 7815W        W72635  42.165   7.023  12.923
 7816W        W72636   7.305   6.689   4.662
 7817W        W72637  40.672  34.775   0.675
 7818W        W72638  23.295  10.316   5.108
 7819W        W72639  44.937  11.772  14.973
 7820W        W72640  15.261   5.948  14.890
 7821W        W72641  37.362  35.388  12.964
 7822W        W72642   9.081  15.953   9.816
 7823W        W72643  28.496  21.020   3.753
 7824W        W72644  35.666  20.203   0.345
 7825W        W72645  23.503  41.520  12.595
 7826W        W72646  32.131   2.756   4.412
 7827W        W72647  14.355  16.777  11.564
 7828W        W72648  39.979  34.469   4.351
 7829W        W72649  16.106  30.496  14.923
 7830W        W72650   7.443   5.264  11.054
 7831W        W72651  30.154   6.657   3.438
 7832W        W72652  15.798  43.557   0.989
 7833W        W72653  30.597  29.162  11.654
 7834W        W72654  32.067  44.524  11.006
 7835W        W72655  38.277  27.677   1.661
 7836W        W72656  12.118   6.396   4.835
 7837W        W72657  17.879   1.884   1.358
 7838W        W72658   5.807  10.648  10.611
 7839W        W72659   4.857  26.120   0.369
 7840W        W72660   8.570  42.365   2.771
 7841W        W72661   3.120   5.582  14.626
 7842W        W72662  14.648  23.423  10.768
 7843W        W72663  22.176  32.581  11.469
 7844W        W72664  21.495  13.269   4.659
 7845W        W72665  24.034  40.782  12.063
 7846W        W72666  38.562   9.626  13.779
 7847W        W72667   8.165  40.406  13.857
 7848W        W72668  24.592  38.140  10.535
 7849W        W72669   8.244  23.046  14.877
 7850W        W72670  15.338  38.568   0.842
 7851W        W72671  24.531  42.767   0.927
 7852W        W72672  36.034  13.683  14.043
 7853W        W72673  27.123   7.908   4.657
 7854W        W72674   8.874   6.844  11.707
 7855W        W72675  20.414  25.123   4.274
 7856W        W72676  29.529   1.690  11.856
 7857W        W72677  43.633  32.706  13.919
 7858W        W72678  17.606  22.161  11.982
 7859W        W72679   4.233  17.287   2.583
 7860W        W72680  21.990   0.437  10.363
 7861W        W72681  37.436  37.127   4.506
 7862W        W72682  11.121  12.572   0.394
 7863W        W72683   6.249   6.963   2.790
 7864W        W72684  15.142  37.106  13.268
 7865W        W72685  24.399  35.891  12.758
 7866W        W72686   5.579  35.740   0.209
 7867W        W72687   1.530  11.181   0.837
 7868W        W72688  33.200  34.098  11.149
 7869W        W72689  42.806  10.133   1.150
 7870W        W72690  17.932  41.466   0.905
 7871W        W72691  23.229  26.668   2.703
 7872W        W72692  39.971  37.349  11.875
 7873W        W72693   5.434  31.395   1.433
 7874W        W72694  39.347   3.550  12.475
 7875W        W72695  42.437  16.458  12.457
 7876W        W72696  37.532  24.522  13.734
 7877W        W72697  14.769  43.314   4.585
 7878W        W72698   4.111  39.910  12.450
 7879W        W72699  33.510  42.924   2.303
 7880W        W72700  33.663  11.619   3.068
 7881W        W72701  35.342  11.528   2.277
 7882W        W72702   2.522  17.579   0.337
 7883W        W72703  36.869  28.993   1.776
 7884W        W72704  16.808  35.957   2.745
 7885W        W72705  35.158  34.874  13.376
 7886W        W72706   4.714  20.096  10.746
 7887W        W72707  12.623  27.466  14.544
 7888W        W72708  21.096  15.788   1.703
 7889W        W72709  22.694  30.043   2.302
 7890W        W72710  35.461  28.660  11.729
 7891W        W72711   6.417  29.086   0.961
 7892W        W72712   7.267  42.457   0.042
 7893W        W72713   4.943  21.563  12.449
 7894W        W72714  37.173  39.924  10.691
 7895W        W72715  13.162  12.995  14.475
 7896W        W72716  23.506  43.054   4.552
 7897W        W72717  18.974  36.126   2.527
 7898W        W72718  11.383  36.111   0.338
 7899W        W72719   2.253  32.794  13.612
 7900W        W72720   0.759  37.295   2.407
 7901W        W72721   4.980  34.045   2.799
 7902W        W72722  44.598   0.604  12.185
 7903W        W72723   6.209  40.014  14.561
 7904W        W72724  19.024  40.422   1.031
 7905W        W72725  38.541  26.945  11.227
 7906W        W72726  13.380  26.029  13.526
 7907W        W72727   8.899   3.775  12.371
 7908W        W72728  35.665  33.962  12.413
 7909W        W72729  18.449  37.860  12.966
 7910W        W72730  17.511   6.651   3.803
 7911W        W72731   9.233  31.425  10.173
 7912W        W72732  20.071  17.111  13.356
 7913W        W72733  15.540   4.292  13.482
 7914W        W72734  10.374   4.425   4.603
 7915W        W72735  27.270  40.964  12.182
 7916W        W72736  25.682  31.834  13.786
 7917W        W72737  19.184  16.647  13.680
 7918W        W72738  26.430   5.885   4.363
 7919W        W72739  38.858  20.991  13.392
 7920W        W72740  14.130  18.735  12.698
 7921W        W72741  23.652  21.816  13.195
 7922W        W72742  41.833  43.744  12.594
 7923W        W72743  37.790   0.867   3.753
 7924W        W72744  27.198   6.462   3.282
 7925W        W72745  33.190  24.026   3.119
 7926W        W72746  25.989   0.425   2.205
 7927W        W72747   8.571  40.045  13.971
 7928W        W72748  17.099   5.761   0.039
 7929W        W72749  33.409  38.772  14.841
 7930W        W72750  17.654  35.358   5.232
 7931W        W72751  21.198  15.197  13.619
 7932W        W72752  18.577  26.923  11.634
 7933W        W72753  22.182   1.316   3.866
 7934W        W72754  32.995   9.724  13.808
 7935W        W72755  37.081  16.759   2.753
 7936W        W72756   4.386  13.291  10.747
 7937W        W72757   3.898   2.992   2.939
 7938W        W72758  38.425  20.237  13.049
 7939W        W72759   9.913  12.924  14.018
 7940W        W72760  26.513  28.453   2.743
 7941W        W72761  23.332  43.468   2.798
 7942W        W72762   8.872  15.433   2.245
 7943W        W72763  13.311   5.780   2.878
 7944W        W72764  27.615   6.677   3.541
 7945W        W72765  21.951  42.285   0.380
 7946W        W72766  31.067  30.646  10.735
 7947W        W72767  32.576  23.013   2.774
 7948W        W72768   3.953  12.825  10.651
 7949W        W72769  26.953  31.381   0.441
 7950W        W72770  36.839   7.629  12.434
 7951W        W72771  10.381  24.683   0.072
 7952W        W72772  40.826  39.385   2.716
 7953W        W72773  38.705   8.407  13.284
 7954W        W72774  20.302  15.302   4.201
 7955W        W72775   8.377  33.669   0.463
 7956W        W72776   4.254  16.790   2.823
 7957W        W72777   4.205  28.010  11.905
 7958W        W72778   5.937   4.776   3.145
 7959W        W72779  16.589  38.964  14.428
 7960W        W72780  15.140  27.562   3.592
 7961W        W72781   2.535  11.174   0.933
 7962W        W72782  38.352  43.924   1.322
 7963W        W72783  37.521  38.168   0.410
 7964W        W72784  20.290  16.802   4.070
 7965W        W72785  38.086  32.213   1.903
 7966W        W72786  34.663  32.385  14.374
 7967W        W72787   9.954  22.090  13.048
 7968W        W72788  44.146   4.648   4.993
 7969W        W72789  43.629  31.985  11.591
 7970W        W72790  22.929  15.206  11.994
 7971W        W72791   6.817   4.424  11.937
 7972W        W72792  15.763  40.288   2.261
 7973W        W72793  40.799  10.652   3.335
 7974W        W72794  24.614   0.911  12.466
 7975W        W72795  20.717  30.736  14.928
 7976W        W72796   4.293  37.849  11.420
 7977W        W72797   3.670  10.310   3.108
 7978W        W72798  14.094  32.944   3.717
 7979W        W72799  36.169   2.876  12.903
 7980W        W72800  26.730  36.922  11.564
 7981W        W72801  38.354  38.522  13.883
 7982W        W72802  33.991   5.174   1.811
 7983W        W72803  16.726  20.970   1.658
 7984W        W72804  17.743  16.305  14.694
 7985W        W72805  10.737   1.401   2.228
 7986W        W72806  23.566  41.969   4.563
 7987W        W72807   4.628  10.728   3.231
 7988W        W72808  37.320  11.604   0.388
 7989W        W72809  39.453  28.625  12.092
 7990W        W72810  32.686   7.363  13.155
 7991W        W72811  34.182   8.285   3.595
 7992W        W72812  20.354  24.413   2.242
 7993W        W72813  19.378   2.440  12.094
 7994W        W72814   9.965  30.105  11.825
 7995W        W72815   1.468  24.807  13.039
 7996W        W72816   8.155  10.794  12.636
 7997W        W72817  18.105  22.535  13.574
 7998W        W72818  37.040  32.680   3.344
 7999W        W72819  31.901  13.585   2.755
 8000W        W72820   3.100  10.848   2.571
 8001W        W72821   2.922  37.093   0.461
 8002W        W72822  28.527  13.132   1.335
 8003W        W72823  35.230   1.816  11.047
 8004W        W72824  30.349  29.962   1.008
 8005W        W72825  39.912  37.374  13.126
 8006W        W72826  44.068  21.461  11.972
 8007W        W72827  17.889  11.733  13.307
 8008W        W72828  32.002  43.867   4.063
 8009W        W72829  14.829  10.173  12.028
 8010W        W72830  24.520  21.753   3.662
 8011W        W72831   7.562  27.871   2.324
 8012W        W72832  42.905  20.287  12.133
 8013W        W72833  10.337  22.210   3.877
 8014W        W72834  35.893  22.306   2.413
 8015W        W72835  21.059  15.690   1.197
 8016W        W72836   2.666  41.555   0.340
 8017W        W72837   8.005   4.859   3.966
 8018W        W72838  35.599   9.708  12.939
 8019W        W72839  25.213   7.684   1.362
 8020W        W72840  17.503  14.407  13.890
 8021W        W72841  41.572   2.719   2.311
 8022W        W72842  18.674   1.831  10.716
 8023W        W72843   4.802  30.395  14.945
 8024W        W72844  18.112  20.892  12.092
 8025W        W72845  28.187   2.533   3.391
 8026W        W72846  20.145  18.094   1.932
 8027W        W72847  23.558  30.489   4.550
 8028W        W72848  32.422   2.654   0.416
 8029W        W72849  27.729  11.958  14.503
 8030W        W72850   3.860  22.634  13.221
 8031W        W72851  34.272  18.398  10.017
 8032W        W72852  10.365   1.205   4.559
 8033W        W72853  14.551   4.294  13.570
 8034W        W72854  40.251  18.330   4.784
 8035W        W72855  15.775  33.298   4.564
 8036W        W72856  35.354  19.243  12.312
 8037W        W72857   6.165  16.158   1.249
 8038W        W72858  30.470  20.681  14.007
 8039W        W72859   6.168  17.960   4.651
 8040W        W72860   1.428  22.450   3.657
 8041W        W72861  14.786  41.354   3.381
 8042W        W72862   7.744  30.420   1.161
 8043W        W72863  13.167   5.374   4.539
 8044W        W72864  19.551  39.989   3.109
 8045W        W72865  35.068  36.935   2.165
 8046W        W72866  42.814  39.455   3.664
 8047W        W72867  36.364   7.198  13.154
 8048W        W72868  20.004  43.560  11.850
 8049W        W72869  12.388  39.178   3.052
 8050W        W72870  11.563  31.231   4.212
 8051W        W72871   1.270  33.976  12.529
 8052W        W72872  34.338   7.359   4.382
 8053W        W72873  44.979  42.430  14.988
 8054W        W72874  42.854  27.059   0.362
 8055W        W72875  20.108  33.730   0.332
 8056W        W72876  39.116  25.862   4.513
 8057W        W72877  40.404  14.657   1.988
 8058W        W72878  16.504  13.567   0.794
 8059W        W72879   0.300  32.452   1.014
 8060W        W72880  16.109  15.140   1.525
 8061W        W72881  19.256  18.764   0.165
 8062W        W72882   0.948  24.232  14.236
 8063W        W72883  16.981  24.752   1.425
 8064W        W72884  30.897  39.823  10.634
 8065W        W72885  40.897  18.726  13.012
 8066W        W72886  37.383  16.633   2.354
 8067W        W72887  12.658   9.767  11.654
 8068W        W72888  38.738  35.136  12.048
 8069W        W72889  17.188  42.135  14.216
 8070W        W72890  40.896  22.735  11.841
 8071W        W72891  37.952   4.142   2.917
 8072W        W72892  25.033   8.435   5.013
 8073W        W72893  36.130  33.655   4.109
 8074W        W72894  29.650  12.387   1.706
 8075W        W72895  29.685   0.963  11.999
 8076W        W72896  11.142  16.517   0.416
 8077W        W72897  40.248  40.018  11.140
 8078W        W72898  18.045  24.097   0.872
 8079W        W72899  13.289  27.936  11.502
 8080W        W72900  15.613  26.192  12.030
 8081W        W72901  41.916   3.860  14.084
 8082W        W72902  33.910  36.162   3.963
 8083W        W72903  14.261  27.798   1.637
 8084W        W72904  15.160  30.680  14.273
 8085W        W72905  22.289  35.009  14.586
 8086W        W72906  11.452   0.166   4.174
 8087W        W72907   8.338   3.066  11.721
 8088W        W72908  12.135  40.947   0.260
 8089W        W72909   1.770  32.867  14.066
 8090W        W72910  37.413   8.570  14.791
 8091W        W72911  42.338  40.525  13.964
 8092W        W72912  29.389  36.825  13.544
 8093W        W72913  15.590  24.224   1.757
 8094W        W72914  29.956  41.296  11.092
 8095W        W72915  34.086  32.958   4.730
 8096W        W72916  33.089   1.324  11.618
 8097W        W72917   3.424  26.584  13.722
 8098W        W72918   2.444  36.602  13.069
 8099W        W72919  28.655  25.935   2.557
 8100W        W72920   0.647  28.233  11.638
 8101W        W72921  23.154  32.575   3.061
 8102W        W72922   2.122  22.081   3.716
 8103W        W72923  21.122  35.435   4.025
 8104W        W72924   6.924  25.682   0.058
 8105W        W72925   0.765  40.553   4.963
 8106W        W72926  33.498  35.904   4.301
 8107W        W72927  15.330  19.658  13.435
 8108W        W72928  17.833  19.513   0.913
 8109W        W72929   8.819  43.545   3.365
 8110W        W72930  44.963  17.245   2.305
 8111W        W72931  23.178   4.861   3.199
 8112W        W72932  43.220   6.399  13.374
 8113W        W72933  39.510  40.923   2.849
 8114W        W72934  44.860   7.393   2.616
 8115W        W72935  43.260  26.077   2.342
 8116W        W72936  30.765  17.699   5.509
 8117W        W72937  43.963  32.138  12.033
 8118W        W72938   9.774   8.125   2.130
 8119W        W72939  18.224  21.107  10.889
 8120W        W72940  15.042  34.114  11.015
 8121W        W72941   4.461  18.851  11.280
 8122W        W72942  37.626  43.339  11.646
 8123W        W72943  29.138  26.968  14.033
 8124W        W72944  38.525  33.045   3.840
 8125W        W72945  42.533   1.687  11.566
 8126W        W72946  12.420   6.431  12.062
 8127W        W72947  26.218  21.154   2.007
 8128W        W72948  30.986  16.113  12.390
 8129W        W72949  19.803   7.249  14.704
 8130W        W72950   2.437   0.744   1.767
 8131W        W72951  20.894  15.278  12.057
 8132W        W72952  33.154  33.375  13.184
 8133W        W72953  30.056  28.029  14.892
 8134W        W72954  39.899  35.661  14.339
 8135W        W72955  17.275  11.316   4.863
 8136W        W72956  11.022  14.314  14.907
 8137W        W72957  13.585  12.210   2.782
 8138W        W72958  40.520  23.047  12.057
 8139W        W72959   1.956  41.240  10.677
 8140W        W72960   1.349  15.311  12.488
 8141W        W72961  29.363  42.948  10.515
 8142W        W72962   8.829   0.824   3.845
 8143W        W72963  16.624  26.203   3.009
 8144W        W72964  25.500  31.938   2.330
 8145W        W72965  22.156  31.638  10.928
 8146W        W72966   9.936  14.958  11.684
 8147W        W72967  33.954   8.954  12.555
 8148W        W72968  12.657  13.169   2.444
 8149W        W72969  31.720  38.102   4.076
 8150W        W72970  18.235   9.261  10.481
 8151W        W72971   4.302  35.448   4.738
 8152W        W72972   0.591  13.253  12.903
 8153W        W72973  39.782   7.688  12.632
 8154W        W72974   2.536  29.106   3.221
 8155W        W72975  30.869  25.436   0.434
 8156W        W72976   2.712  14.591   2.393
 8157W        W72977  41.422  33.249   0.755
 8158W        W72978  32.129   7.370   2.246
 8159W        W72979  22.605  12.644   3.323
 8160W        W72980  41.872  42.328  13.592
 8161W        W72981   4.264  28.968  10.999
 8162W        W72982  35.912  36.740  14.053
 8163W        W72983  24.670  29.177  10.697
 8164W        W72984  26.738   1.249   0.320
 8165W        W72985   2.865  24.716   4.652
 8166W        W72986  15.709  32.930  11.707
 8167W        W72987  30.895  18.735   3.635
 8168W        W72988  29.410   6.192  10.729
 8169W        W72989  17.237  30.122   3.642
 8170W        W72990  30.731  20.556  11.523
 8171W        W72991  32.275  22.549  12.920
 8172W        W72992  19.338  20.763  13.583
 8173W        W72993  26.223  12.389  12.326
 8174W        W72994  29.088  38.381   3.119
 8175W        W72995  20.110   7.647   0.406
 8176W        W72996  24.583  35.294   2.917
 8177W        W72997  38.759   0.709   9.888
 8178W        W72998  26.712   6.682  11.652
 8179W        W72999   5.673   1.247  12.485
 8180W        W73000   6.308  32.876  14.939
 8181W        W73001  36.871  11.294   1.735
 8182W        W73002  16.880  14.661  11.664
 8183W        W73003  37.129  11.475   4.517
 8184W        W73004  17.747   0.069   2.718
 8185W        W73005  15.851  23.044   3.853
 8186W        W73006  42.883  24.423   1.705
 8187W        W73007   2.236  29.919   1.701
 8188W        W73008  16.762  28.379  12.467
 8189W        W73009  14.305  36.919  11.006
 8190W        W73010  23.103  42.321  12.139
 8191W        W73011  23.173  25.805   2.316
 8192W        W73012  25.041  11.857  11.656
 8193W        W73013  37.787  31.473  10.674
 8194W        W73014   5.710  12.431   3.887
 8195W        W73015  12.486   2.284  11.079
 8196W        W73016   3.099  22.903  10.824
 8197W        W73017   3.649  19.577   4.584
 8198W        W73018   5.604  29.228  11.120
 8199W        W73019  23.244   0.728  10.621
 8200W        W73020  11.519   9.322  13.849
 8201W        W73021  10.715   8.267  14.906
 8202W        W73022  28.515  10.700   1.312
 8203W        W73023  38.315   3.289   2.748
 8204W        W73024  17.220   2.013  10.829
 8205W        W73025  37.395  32.630  12.958
 8206W        W73026  21.787   6.474   3.559
 8207W        W73027  15.450  33.271  11.004
 8208W        W73028  25.681   6.868  12.521
 8209W        W73029  32.643   1.073   0.804
 8210W        W73030  30.374  14.063   2.856
 8211W        W73031  17.983  20.487   4.078
 8212W        W73032  34.782  36.109  14.369
 8213W        W73033  27.552  38.148   4.968
 8214W        W73034   1.008  21.072  10.242
 8215W        W73035  19.335  30.701  11.215
 8216W        W73036  19.351  16.185  14.954
 8217W        W73037  25.523  25.052   4.985
 8218W        W73038   9.715  29.486  12.413
 8219W        W73039  38.852  44.813  10.135
 8220W        W73040  27.020  19.985   1.788
 8221W        W73041  25.019  28.521   0.148
 8222W        W73042  12.889  38.802   1.159
 8223W        W73043  43.521  18.132  12.482
 8224W        W73044  13.461  41.972  11.010
 8225W        W73045  38.824   7.988  12.560
 8226W        W73046   5.205  14.140   1.581
 8227W        W73047  25.581  17.136  12.344
 8228W        W73048   0.315  30.073   1.183
 8229W        W73049  39.420  44.341  14.750
 8230W        W73050  42.718  19.729   0.425
 8231W        W73051  43.053  20.988  11.105
 8232W        W73052  22.744  38.786   3.248
 8233W        W73053   8.887  17.846  12.251
 8234W        W73054  13.751  28.816  13.990
 8235W        W73055  15.734  13.592  11.724
 8236W        W73056  30.655  13.798  11.681
 8237W        W73057   7.727  15.159   0.763
 8238W        W73058  20.005  32.130  11.455
 8239W        W73059  15.176  16.055  13.471
 8240W        W73060   4.264  14.665   4.740
 8241W        W73061   1.157   7.251   2.617
 8242W        W73062  43.176  36.451  13.831
 8243W        W73063  37.379  11.692  13.129
 8244W        W73064  20.293   4.500  14.841
 8245W        W73065  34.953   9.052   4.571
 8246W        W73066  39.044  41.608   0.036
 8247W        W73067   7.841  35.949  13.166
 8248W        W73068  28.356  34.094   0.415
 8249W        W73069   2.434   0.215  11.111
 8250W        W73070  13.802  41.043  11.180
 8251W        W73071   9.600  35.096   3.244
 8252W        W73072  22.685  35.063   0.331
 8253W        W73073  35.782   3.199   3.300
 8254W        W73074  22.165  36.632  13.443
 8255W        W73075  10.364   4.458   1.246
 8256W        W73076  28.198  23.651  10.259
 8257W        W73077  36.678  44.154   1.725
 8258W        W73078   5.078  11.141  11.089
 8259W        W73079   6.633  36.994  12.434
 8260W        W73080  37.861  13.208  12.177
 8261W        W73081  16.391  16.015   1.231
 8262W        W73082  38.312  40.925   4.158
 8263W        W73083  19.102   3.835   4.523
 8264W        W73084  23.150  14.860  12.390
 8265W        W73085  16.885  23.600  12.575
 8266W        W73086  12.122  19.661  11.104
 8267W        W73087  11.536  39.212  12.990
 8268W        W73088  24.247  39.318  12.082
 8269W        W73089  14.644  21.799   3.657
 8270W        W73090  28.562  22.086  11.153
 8271W        W73091  18.641  42.521   1.216
 8272W        W73092  19.135  41.303   4.099
 8273W        W73093  31.933  17.055   1.873
 8274W        W73094   8.402  29.325  13.859
 8275W        W73095   5.754  30.178   0.566
 8276W        W73096  30.990  41.361  13.041
 8277W        W73097  11.097  40.250   0.868
 8278W        W73098  22.798  43.778   4.151
 8279W        W73099  12.144  33.215   4.889
 8280W        W73100  42.551   3.424   2.264
 8281W        W73101   8.405   1.728   3.260
 8282W        W73102  20.461  40.593   2.183
 8283W        W73103  11.890  33.439  12.061
 8284W        W73104  42.817   3.483   3.684
 8285W        W73105  26.500   8.558   0.476
 8286W        W73106  16.440  11.016   2.496
 8287W        W73107   6.557  20.561  13.416
 8288W        W73108   4.306  21.068   1.307
 8289W        W73109  20.264   9.078  12.505
 8290W        W73110  38.345  10.358   1.733
 8291W        W73111  38.827  38.997   0.294
 8292W        W73112  16.685  19.538   1.806
 8293W        W73113  26.342  44.429  14.988
 8294W        W73114  12.118  34.360  12.547
 8295W        W73115  44.415   7.789   3.133
 8296W        W73116  38.906  16.076   1.199
 8297W        W73117  29.510  28.698   0.855
 8298W        W73118   9.583  42.915   4.549
 8299W        W73119  12.338  36.533  14.357
 8300W        W73120   4.675  30.756  11.113
 8301W        W73121   0.493  39.020   1.213
 8302W        W73122   8.569  21.691   4.025
 8303W        W73123  37.491  19.300  14.819
 8304W        W73124   5.469  10.547  10.241
 8305W        W73125  13.238   8.699  14.038
 8306W        W73126   8.204  18.622  10.883
 8307W        W73127   5.407  19.756   3.679
 8308W        W73128  44.830   9.996  14.591
 8309W        W73129  35.968  24.277   1.685
 8310W        W73130  44.538  10.618   0.905
 8311W        W73131   2.672   7.476   4.109
 8312W        W73132  12.777  34.316  12.986
 8313W        W73133  37.033  19.301  10.585
 8314W        W73134  31.482  44.747   3.493
 8315W        W73135  30.521  43.986  12.943
 8316W        W73136  32.556  42.761  13.441
 8317W        W73137  24.899  39.561   1.706
 8318W        W73138  44.816  11.091   3.788
 8319W        W73139  23.070   1.531  12.007
 8320W        W73140  27.110  10.054   1.373
 8321W        W73141  42.799  17.653   0.895
 8322W        W73142   9.874  41.942   0.439
 8323W        W73143   3.777   0.214   3.182
 8324W        W73144  21.648   7.975   2.085
 8325W        W73145  41.946  44.766  12.942
 8326W        W73146  28.514  31.577   0.376
 8327W        W73147  40.799  22.633   2.908
 8328W        W73148  25.229  10.100  11.461
 8329W        W73149  14.188  18.358  13.052
 8330W        W73150   1.195  44.934  10.730
 8331W        W73151   8.596  34.398  14.534
 8332W        W73152  41.217  41.022  12.020
 8333W        W73153  40.066  32.664   3.579
 8334W        W73154  13.382  25.630  11.162
 8335W        W73155  29.334  36.722  14.933
 8336W        W73156  32.209  14.049   2.826
 8337W        W73157   1.246  26.053   0.755
 8338W        W73158  18.616  15.677   4.615
 8339W        W73159  16.190  22.058   2.686
 8340W        W73160   9.213  12.338  10.763
 8341W        W73161  31.934  27.029  14.375
 8342W        W73162  31.866   4.268   4.382
 8343W        W73163   2.122  33.647   1.735
 8344W        W73164  18.126  28.147   3.130
 8345W        W73165   6.808  12.339   1.852
 8346W        W73166  21.692  30.305   1.834
 8347W        W73167  29.186  17.148   2.213
 8348W        W73168   8.376  32.949  14.401
 8349W        W73169  10.826  40.307   3.758
 8350W        W73170  20.638  41.035  14.023
 8351W        W73171   2.873  13.346   1.785
 8352W        W73172  28.399  42.804   4.541
 8353W        W73173  22.733   2.559   3.680
 8354W        W73174   3.323   1.299   1.739
 8355W        W73175  25.964   8.760   2.727
 8356W        W73176  18.549  15.732  14.823
 8357W        W73177  13.722  22.389   1.853
 8358W        W73178  44.375  28.876  10.982
 8359W        W73179  14.118  19.290  12.827
 8360W        W73180  26.956   7.316   4.604
 8361W        W73181  42.921  40.284  12.420
 8362W        W73182   5.775   5.246  14.499
 8363W        W73183  32.345  36.571  11.653
 8364W        W73184  33.893  27.396  12.976
 8365W        W73185  25.832  22.377  11.486
 8366W        W73186  43.067  10.548  11.594
 8367W        W73187  35.821  11.619   1.390
 8368W        W73188  22.670  42.353   3.202
 8369W        W73189  19.405  13.114  13.191
 8370W        W73190  18.117  24.166  14.400
 8371W        W73191  24.031  29.882   1.767
 8372W        W73192  42.774  26.644   3.792
 8373W        W73193  25.902  17.114   4.028
 8374W        W73194   9.290  32.858   0.982
 8375W        W73195  36.374  27.035   1.519
 8376W        W73196  28.705   7.744   2.233
 8377W        W73197   5.386   4.953   1.664
 8378W        W73198  37.066  43.775  12.844
 8379W        W73199  33.464  40.339   4.594
 8380W        W73200  15.334   7.645  12.981
 8381W        W73201  28.611   8.416   4.166
 8382W        W73202   3.699   7.953   0.336
 8383W        W73203   0.589   5.098   3.322
 8384W        W73204  10.384  28.456  12.037
 8385W        W73205  27.184  36.468   5.420
 8386W        W73206  42.017  36.468   2.865
 8387W        W73207  25.497  31.488   1.477
 8388W        W73208  35.932   5.215   4.375
 8389W        W73209  30.024  21.964   0.756
 8390W        W73210  43.488  34.906  11.443
 8391W        W73211   0.215   5.823  13.921
 8392W        W73212  15.979  35.813   2.431
 8393W        W73213   9.788  11.723   0.016
 8394W        W73214   3.034  12.515  11.603
 8395W        W73215  29.997  25.080   0.330
 8396W        W73216  11.831  41.577   2.269
 8397W        W73217   9.774  41.121   1.878
 8398W        W73218   0.775  41.884   3.644
 8399W        W73219  33.555  27.705   0.320
 8400W        W73220   1.420  22.567  14.385
 8401W        W73221  38.914  16.145   3.846
 8402W        W73222  33.042  10.678  14.306
 8403W        W73223  36.193   9.188  12.432
 8404W        W73224  41.450  24.638   1.767
 8405W        W73225  13.506  30.477   2.714
 8406W        W73226  40.866  26.395  14.219
 8407W        W73227  22.312  24.814   2.874
 8408W        W73228  42.927  22.308   2.280
 8409W        W73229  14.539  31.180  13.020
 8410W        W73230   5.571   0.189   2.766
 8411W        W73231  21.110  43.038  11.129
 8412W        W73232   3.795   7.194   4.856
 8413W        W73233  44.341   5.406   4.528
 8414W        W73234  11.817  25.059  11.544
 8415W        W73235  36.138   6.191  13.296
 8416W        W73236  14.727  42.659  14.377
 8417W        W73237   0.758  44.818  12.436
 8418W        W73238  19.473  32.469   3.595
 8419W        W73239   4.257  26.138   3.833
 8420W        W73240  16.291  37.605  12.627
 8421W        W73241   1.397  38.453   4.890
 8422W        W73242  11.869  25.971  13.915
 8423W        W73243   5.834  34.799  12.021
 8424W        W73244  17.868  31.897   1.828
 8425W        W73245  35.927   3.246  14.217
 8426W        W73246   8.339  16.833  11.881
 8427W        W73247  26.998   8.364  13.960
 8428W        W73248  31.717  33.549  14.289
 8429W        W73249   8.449  21.726   1.332
 8430W        W73250  11.411  37.550  12.383
 8431W        W73251  36.906  22.692  13.211
 8432W        W73252  10.236  43.790   1.917
 8433W        W73253  44.536  34.622  10.417
 8434W        W73254   0.420  41.449  11.918
 8435W        W73255  34.535  13.859  12.169
 8436W        W73256   6.607  32.025  13.597
 8437W        W73257   1.891  33.639  14.540
 8438W        W73258  31.793  32.006  12.058
 8439W        W73259  21.696   8.702  13.937
 8440W        W73260  33.683  12.717  11.101
 8441W        W73261  43.097  22.768  12.556
 8442W        W73262   2.384  25.777  12.085
 8443W        W73263   5.778  13.580   1.435
 8444W        W73264  13.775  10.412  14.998
 8445W        W73265   2.356  36.424   4.627
 8446W        W73266  19.791  35.815  10.286
 8447W        W73267  35.589  19.206  11.803
 8448W        W73268  38.362  27.096  10.762
 8449W        W73269  42.365  33.043  11.110
 8450W        W73270  11.857  40.879  12.388
 8451W        W73271  24.591  36.116  11.863
 8452W        W73272  40.451  15.171  12.400
 8453W        W73273  29.809  39.405  14.912
 8454W        W73274  15.534  27.203  12.451
 8455W        W73275  42.120  40.064   3.682
 8456W        W73276   8.343  42.020   1.489
 8457W        W73277  10.368  20.090   3.708
 8458W        W73278  42.477   6.307   4.893
 8459W        W73279  31.033  33.075   1.137
 8460W        W73280  11.356  17.742  12.850
 8461W        W73281  25.248  36.982  13.418
 8462W        W73282  25.905  28.536   3.237
 8463W        W73283  20.813  26.987   2.844
 8464W        W73284  40.306  31.999   2.700
 8465W        W73285  37.469  23.562  10.650
 8466W        W73286  20.119   2.380  12.953
 8467W        W73287  25.596   4.614  12.519
 8468W        W73288   5.132  34.021   1.620
 8469W        W73289  44.931  21.924   4.197
 8470W        W73290  13.561  43.381  11.151
 8471W        W73291   7.625  16.069   1.325
 8472W        W73292  27.873   6.985  10.947
 8473W        W73293   5.684  31.089  11.588
 8474W        W73294  24.401  41.196   0.046
 8475W        W73295  11.573  26.503  10.355
 8476W        W73296  42.216  33.405  14.339
 8477W        W73297  38.705  33.246  14.387
 8478W        W73298   3.332  26.151   0.295
 8479W        W73299  37.706   8.326  10.165
 8480W        W73300  21.686  31.695  13.439
 8481W        W73301  27.672  17.892   3.567
 8482W        W73302   0.505  40.066   3.300
 8483W        W73303  26.055  42.030   3.909
 8484W        W73304  41.490  29.849  10.842
 8485W        W73305   1.084  31.650   0.860
 8486W        W73306   1.907  37.899   0.180
 8487W        W73307  17.541   4.274   3.732
 8488W        W73308  17.550   1.824  11.644
 8489W        W73309  36.532  23.002   1.413
 8490W        W73310  32.511  12.247   4.895
 8491W        W73311  19.347  23.754   0.170
 8492W        W73312  43.520  34.277  12.711
 8493W        W73313  37.532  40.583  13.744
 8494W        W73314  28.682  43.893   4.640
 8495W        W73315  28.592  15.148  13.484
 8496W        W73316   7.307  15.801   3.694
 8497W        W73317   8.157  10.614   2.129
 8498W        W73318  42.916  12.110  11.702
 8499W        W73319  23.563  40.118  14.891
 8500W        W73320   4.875  16.538   0.739
 8501W        W73321  35.810  23.032   0.746
 8502W        W73322  20.046  31.205  14.364
 8503W        W73323  37.438   8.565   1.676
 8504W        W73324  35.758   1.519   2.688
 8505W        W73325  40.826  18.782  13.773
 8506W        W73326   1.776  42.497  12.457
 8507W        W73327  17.592  32.325  14.561
 8508W        W73328  33.939  13.184   1.998
 8509W        W73329  37.570   1.353   3.653
 8510W        W73330  37.799  21.153   2.490
 8511W        W73331  15.564  13.883  10.790
 8512W        W73332  31.052   3.529   2.722
 8513W        W73333  39.953  34.190   1.624
 8514W        W73334  42.438  26.199   2.603
 8515W        W73335  42.669  32.999   0.346
 8516W        W73336  36.848   2.266  13.824
 8517W        W73337  16.770  22.835   1.401
 8518W        W73338  27.447  14.830  14.383
 8519W        W73339   5.523  31.564  12.884
 8520W        W73340  39.770  17.463  10.707
 8521W        W73341   5.601  43.812   4.127
 8522W        W73342  27.534  15.559  14.790
 8523W        W73343  40.869  13.289   3.621
 8524W        W73344  24.579  21.180   2.078
 8525W        W73345  30.290  44.433   4.550
 8526W        W73346  36.865  25.841  13.559
 8527W        W73347  27.290  20.118   3.691
 8528W        W73348  22.156   7.877  13.863
 8529W        W73349  39.053  12.995   3.706
 8530W        W73350  44.562  37.515  12.562
 8531W        W73351  19.270  19.074   4.883
 8532W        W73352  31.593  14.364   4.058
 8533W        W73353  36.088  43.587   1.431
 8534W        W73354   3.383   4.534  12.511
 8535W        W73355  25.372   5.687   3.568
 8536W        W73356   7.847  44.642  12.997
 8537W        W73357  39.961   7.325   5.639
 8538W        W73358  22.419  12.643  13.736
 8539W        W73359  25.726  30.677  11.574
 8540W        W73360  27.424  35.327  10.594
 8541W        W73361  23.638  39.766   4.856
 8542W        W73362  10.239  10.317   0.912
 8543W        W73363  27.050  12.690   4.188
 8544W        W73364  42.875   5.843   0.501
 8545W        W73365   9.694  13.228   0.176
 8546W        W73366   2.756   6.129  10.410
 8547W        W73367  35.279  24.749  10.364
 8548W        W73368  36.526  15.834  10.046
 8549W        W73369   9.079  11.580  11.438
 8550W        W73370  32.348  20.398  14.320
 8551W        W73371  20.257  20.329   4.697
 8552W        W73372  39.114  22.443   3.213
 8553W        W73373  40.493  32.707  10.961
 8554W        W73374  44.760  27.224  12.513
 8555W        W73375  13.723  23.505  13.946
 8556W        W73376  35.647   4.735   0.783
 8557W        W73377  21.203  13.115   2.786
 8558W        W73378   1.562   1.343  10.601
 8559W        W73379  33.321  18.251   3.801
 8560W        W73380   6.755  24.366   0.427
 8561W        W73381  28.713   2.674  12.874
 8562W        W73382  18.185  25.292  12.471
 8563W        W73383   0.411  20.089  12.077
 8564W        W73384   0.745  34.308  11.071
 8565W        W73385  30.083  28.087  11.122
 8566W        W73386  21.193  21.671  10.723
 8567W        W73387  44.744  12.851   4.516
 8568W        W73388   3.879  20.744   0.838
 8569W        W73389  19.269  16.821  13.187
 8570W        W73390  44.458  38.890   5.058
 8571W        W73391  39.266   8.626   0.377
 8572W        W73392   4.142   4.584  13.294
 8573W        W73393  30.835  25.654   4.063
 8574W        W73394  16.596   2.806  14.274
 8575W        W73395  34.001  17.968  11.543
 8576W        W73396  15.257  31.979   0.914
 8577W        W73397  35.301  13.561   2.763
 8578W        W73398  25.688  29.996   4.906
 8579W        W73399  23.570  31.311   0.375
 8580W        W73400   8.876  15.745   3.769
 8581W        W73401  14.555  22.693   3.700
 8582W        W73402   6.501   6.596  11.236
 8583W        W73403   3.906   9.894  11.268
 8584W        W73404   4.761  26.916   3.805
 8585W        W73405  13.102  35.416   4.596
 8586W        W73406  30.912  43.966  10.795
 8587W        W73407  37.832  35.284   0.852
 8588W        W73408  27.794  10.904   3.577
 8589W        W73409  39.559   8.210  11.178
 8590W        W73410  26.140  11.548   3.198
 8591W        W73411  29.369   0.209  14.346
 8592W        W73412   0.411   4.912   1.262
 8593W        W73413  24.464   2.236   4.083
 8594W        W73414  15.300  27.230   1.355
 8595W        W73415   9.689  38.914   4.699
 8596W        W73416  40.697  26.690  12.982
 8597W        W73417  27.877  40.488   0.371
 8598W        W73418  28.769  24.638  11.134
 8599W        W73419  36.938  20.846  10.688
 8600W        W73420  29.229  39.687  14.017
 8601W        W73421   4.994  35.985  11.622
 8602W        W73422  19.266  30.489  10.329
 8603W        W73423  32.409  32.828  13.384
 8604W        W73424  30.447   2.226  12.693
 8605W        W73425  33.125  43.745   3.316
 8606W        W73426  29.734  32.885   4.968
 8607W        W73427  21.211   0.934   2.698
 8608W        W73428   9.017  18.689   1.267
 8609W        W73429   4.246   9.626   0.950
 8610W        W73430  43.968  29.447  11.636
 8611W        W73431  25.709   5.845   1.337
 8612W        W73432  35.786  44.043   1.409
 8613W        W73433  28.100  34.587   0.214
 8614W        W73434  30.567  25.231  12.100
 8615W        W73435   9.881  15.475  12.118
 8616W        W73436  26.401  25.483  14.084
 8617W        W73437  26.086  31.081   4.285
 8618W        W73438  13.684  30.235  11.771
 8619W        W73439  24.602  42.838  14.988
 8620W        W73440  14.678  22.711   1.591
 8621W        W73441   1.468  26.222  10.585
 8622W        W73442  13.237  28.695  13.887
 8623W        W73443  41.481  20.721  13.153
 8624W        W73444  12.179  33.874   0.362
 8625W        W73445   1.297  35.132   1.624
 8626W        W73446  28.424  22.605   2.655
 8627W        W73447  39.408  14.721  12.030
 8628W        W73448   7.734  26.199   3.440
 8629W        W73449  44.904   7.666  13.480
 8630W        W73450  26.563  11.873  10.636
 8631W        W73451  28.272  14.810  13.011
 8632W        W73452  28.486  42.584   1.740
 8633W        W73453  11.825  39.535   3.132
 8634W        W73454   4.630  22.983   2.437
 8635W        W73455   5.835  43.182   2.177
 8636W        W73456  26.185  30.690   3.591
 8637W        W73457  30.550  25.927   1.566
 8638W        W73458  29.110  21.746   4.759
 8639W        W73459  11.078  44.360  14.552
 8640W        W73460  24.171   7.702  10.738
 8641W        W73461  30.498  15.092   1.254
 8642W        W73462  28.566  11.772   3.737
 8643W        W73463  32.526  19.685  13.470
 8644W        W73464  13.375   9.907  10.662
 8645W        W73465  16.106   7.371   0.611
 8646W        W73466  25.588  26.994   0.875
 8647W        W73467  31.417  40.971   2.203
 8648W        W73468  18.732  37.117  14.332
 8649W        W73469  36.407  16.382  13.481
 8650W        W73470   4.673  30.876   4.584
 8651W        W73471  27.073  19.578   2.678
 8652W        W73472  38.845   7.946   2.397
 8653W        W73473  34.917   4.554   3.772
 8654W        W73474  14.295  44.152   1.736
 8655W        W73475   5.901  44.894   3.558
 8656W        W73476  29.087  34.862   4.995
 8657W        W73477  31.462   1.034   3.256
 8658W        W73478  24.359   9.818  11.024
 8659W        W73479  25.393  25.685   2.881
 8660W        W73480  11.643  40.348  10.514
 8661W        W73481  11.589  27.609  12.833
 8662W        W73482  13.765  20.586  14.717
 8663W        W73483  17.229  12.598  13.283
 8664W        W73484  27.474  38.819   2.159
 8665W        W73485  21.556  25.022  14.552
 8666W        W73486  25.657  22.596  13.124
 8667W        W73487  29.555  32.663   1.433
 8668W        W73488  22.735  36.547   0.355
 8669W        W73489  19.433  14.004  13.080
 8670W        W73490   4.809   6.162  10.996
 8671W        W73491  27.209   2.192   2.348
 8672W        W73492  34.802  21.803   1.873
 8673W        W73493  38.371  30.228   3.697
 8674W        W73494  24.269   8.416  11.080
 8675W        W73495   6.125  14.326   1.873
 8676W        W73496   3.633  17.339  11.810
 8677W        W73497  10.275   3.956   3.430
 8678W        W73498  23.506  44.357  10.655
 8679W        W73499  43.227  25.877  13.856
 8680W        W73500  30.694  44.313   3.305
 8681W        W73501  38.432  44.475  10.575
 8682W        W73502  34.069   4.159   4.925
 8683W        W73503  21.209  32.084  12.073
 8684W        W73504  18.947   6.437   0.098
 8685W        W73505  17.807  20.806  11.623
 8686W        W73506  34.791  32.881  14.450
 8687W        W73507  35.627  30.953   1.826
 8688W        W73508   1.790  28.049   2.818
 8689W        W73509  44.738  39.565  11.666
 8690W        W73510  38.318  36.628   3.724
 8691W        W73511  27.619  23.158   1.891
 8692W        W73512  17.521  17.252  13.330
 8693W        W73513  11.190  17.518   1.517
 8694W        W73514  40.081  24.861   4.376
 8695W        W73515   1.815  22.103  12.511
 8696W        W73516  36.887  39.086  13.607
 8697W        W73517   3.457  10.191   2.111
 8698W        W73518  28.094  36.523   2.708
 8699W        W73519  27.291   2.264   1.429
 8700W        W73520   4.162  33.735   4.569
 8701W        W73521  32.828  12.328  11.509
 8702W        W73522   9.087   5.738   1.380
 8703W        W73523  44.881  37.704   1.390
 8704W        W73524  37.586  31.382   3.687
 8705W        W73525   9.622  43.347   1.180
 8706W        W73526   4.754   7.193   1.462
 8707W        W73527  39.399  11.898  14.896
 8708W        W73528  38.679  17.275   5.000
 8709W        W73529  30.517  27.194   3.108
 8710W        W73530   1.980  20.249  12.010
 8711W        W73531  21.758  21.437  10.111
 8712W        W73532   3.187  42.956  12.094
 8713W        W73533   2.389  30.023  12.981
 8714W        W73534  33.014   0.743   2.114
 8715W        W73535  29.554  17.398  10.951
 8716W        W73536  34.199  14.861  13.155
 8717W        W73537  27.419  20.396  10.269
 8718W        W73538  41.950   5.942   1.865
 8719W        W73539  34.309  15.509   1.209
 8720W        W73540  37.852  10.570   4.014
 8721W        W73541  25.525   3.797   1.668
 8722W        W73542  27.122  34.193   0.259
 8723W        W73543  10.341   7.301   0.286
 8724W        W73544  19.205  30.983   1.194
 8725W        W73545  40.886  21.880   4.404
 8726W        W73546  20.642  41.080   2.212
 8727W        W73547  30.370  33.474  13.448
 8728W        W73548  17.383  19.124   4.706
 8729W        W73549  30.120  29.522  10.789
 8730W        W73550  22.464  10.474   4.110
 8731W        W73551  18.553   0.422   0.713
 8732W        W73552  38.138  12.542  13.615
 8733W        W73553  40.732  34.035  11.680
 8734W        W73554   8.996  14.344   1.258
 8735W        W73555  41.414  27.818   4.882
 8736W        W73556  28.525  11.325   0.698
 8737W        W73557  16.344  14.295  12.363
 8738W        W73558  18.166  33.369   0.455
 8739W        W73559  12.775  18.100  13.099
 8740W        W73560  11.891  32.615  13.984
 8741W        W73561  16.440  28.395   5.545
 8742W        W73562   9.359  23.730  13.364
 8743W        W73563   1.823  43.244   1.002
 8744W        W73564  28.224  10.785  14.255
 8745W        W73565  26.233   1.406   4.605
 8746W        W73566  17.064  12.289   1.978
 8747W        W73567  11.352   6.919   4.717
 8748W        W73568  44.213  23.277   4.369
 8749W        W73569  17.065  41.925   3.300
 8750W        W73570  41.119  32.898   1.446
 8751W        W73571  11.383  12.369  12.613
 8752W        W73572  39.979   3.053  14.821
 8753W        W73573   3.056  33.943   1.666
 8754W        W73574  21.575   0.183  14.496
 8755W        W73575  19.721  33.022   0.734
 8756W        W73576  16.908  40.487   0.051
 8757W        W73577  15.097  19.150  12.085
 8758W        W73578   6.815   2.481  14.331
 8759W        W73579   2.994  42.121   3.702
 8760W        W73580  36.153  44.848   4.117
 8761W        W73581  11.141  10.004   2.888
 8762W        W73582   7.358  14.098  14.251
 8763W        W73583  21.802   0.305  13.886
 8764W        W73584  39.678   5.306   3.496
 8765W        W73585  10.012  31.555  10.711
 8766W        W73586  14.102  25.718   0.973
 8767W        W73587  39.861  31.065  13.027
 8768W        W73588  14.593  20.498  11.974
 8769W        W73589  29.587   2.365   4.642
 8770W        W73590  10.269  32.777   1.742
 8771W        W73591  39.362  39.906   0.473
 8772W        W73592   7.647   6.314   5.103
 8773W        W73593  41.571  21.114  13.509
 8774W        W73594  19.509  41.845   2.545
 8775W        W73595  27.391  34.919  11.703
 8776W        W73596   2.853  39.911   4.127
 8777W        W73597  10.125  33.920   2.865
 8778W        W73598  26.192  28.022   1.333
 8779W        W73599  34.524   9.634  14.807
 8780W        W73600  40.864  41.919   0.459
 8781W        W73601   4.825   0.616   1.209
 8782W        W73602  39.090  10.031   1.217
 8783W        W73603  32.866  44.404  11.356
 8784W        W73604  30.094   2.583  10.581
 8785W        W73605  32.769  27.662   2.953
 8786W        W73606  14.937  13.201  13.367
 8787W        W73607   1.210  22.035  10.635
 8788W        W73608  11.101  17.305   3.670
 8789W        W73609  35.445   4.922   1.791
 8790W        W73610   2.252  26.771   5.068
 8791W        W73611   1.895  37.074  12.698
 8792W        W73612  25.459  13.313  13.020
 8793W        W73613   8.302  26.114   2.180
 8794W        W73614  27.091  10.592  14.309
 8795W        W73615   0.800  23.780   0.962
 8796W        W73616  21.594  39.555   0.291
 8797W        W73617  11.615  39.384   3.596
 8798W        W73618  13.239  44.535   2.800
 8799W        W73619  44.318  34.401   3.649
 8800W        W73620   8.093   5.775   1.769
 8801W        W73621  30.615  11.685  11.621
 8802W        W73622  30.404  32.645  11.158
 8803W        W73623  44.228   1.568   3.663
 8804W        W73624  26.682  37.070  12.481
 8805W        W73625  20.129  39.869   1.924
 8806W        W73626  23.008  22.169   1.738
 8807W        W73627   1.618  26.586   4.350
 8808W        W73628  10.835  41.832  13.759
 8809W        W73629  22.069  28.287  13.577
 8810W        W73630  26.240  31.158  13.639
 8811W        W73631   6.329   7.868   2.399
 8812W        W73632   0.669  44.834  10.685
 8813W        W73633  26.148  12.046  14.127
 8814W        W73634  36.164   3.566   0.230
 8815W        W73635  29.963  30.743  11.991
 8816W        W73636  12.128  30.895   0.042
 8817W        W73637   2.262  30.568  10.496
 8818W        W73638  14.049  28.373   2.275
 8819W        W73639  23.038   0.984  11.947
 8820W        W73640  39.443   8.081  12.588
 8821W        W73641  35.374  30.521   0.241
 8822W        W73642  25.034  37.187  12.989
 8823W        W73643  19.099  37.219  11.349
 8824W        W73644  36.805  29.201  12.074
 8825W        W73645  18.675  15.170  10.891
 8826W        W73646   5.986  20.635  11.465
 8827W        W73647  12.086  12.747   0.421
 8828W        W73648  17.278  36.771   3.601
 8829W        W73649  37.125  18.997   2.330
 8830W        W73650  43.295   5.197  11.218
 8831W        W73651  14.734  14.341  10.803
 8832W        W73652  22.761  43.348  10.518
 8833W        W73653   2.952  35.878  10.656
 8834W        W73654  41.301  36.439   4.840
 8835W        W73655   0.189  30.649  12.955
 8836W        W73656  16.102  21.917  12.854
 8837W        W73657  34.736   7.099   3.487
 8838W        W73658  16.308   6.341   1.512
 8839W        W73659  35.022   9.428  14.116
 8840W        W73660  32.390  10.966   2.143
 8841W        W73661   2.862  13.606  13.932
 8842W        W73662  28.212  23.365   3.721
 8843W        W73663  43.032  10.288   3.111
 8844W        W73664  29.182  16.252  13.044
 8845W        W73665  10.560  39.493   3.847
 8846W        W73666  38.408  43.254  13.066
 8847W        W73667  17.044   7.163   1.217
 8848W        W73668   1.516  11.397   3.762
 8849W        W73669  10.759  41.214  11.575
 8850W        W73670  30.313  17.346   9.897
 8851W        W73671  27.134  28.876   1.417
 8852W        W73672   5.824  36.209   0.260
 8853W        W73673  22.283  43.822  11.971
 8854W        W73674  43.281  42.707   4.283
 8855W        W73675  13.107  31.938   9.820
 8856W        W73676   5.506  25.466   1.306
 8857W        W73677  42.404   2.877   1.340
 8858W        W73678  35.975  20.536   4.343
 8859W        W73679   5.645  20.794  11.975
 8860W        W73680   1.444  19.467   0.823
 8861W        W73681  34.941  15.592  13.295
 8862W        W73682  43.260  23.113   3.920
 8863W        W73683  24.773  23.123   2.840
 8864W        W73684  41.431  43.827   2.720
 8865W        W73685  19.746  35.517  12.111
 8866W        W73686  40.342  38.355   4.214
 8867W        W73687  15.854  24.155  11.164
 8868W        W73688  36.592  25.535   0.557
 8869W        W73689  21.829   8.242   1.269
 8870W        W73690   0.416  41.898  10.684
 8871W        W73691  29.029  28.955  14.899
 8872W        W73692  32.943  26.189  12.944
 8873W        W73693   7.760  24.168  12.125
 8874W        W73694   1.149  14.868  13.253
 8875W        W73695  13.080   9.727  11.034
 8876W        W73696  21.533  44.896   4.763
 8877W        W73697  32.475  27.420  13.788
 8878W        W73698  37.280  34.214   0.252
 8879W        W73699  27.118  17.382  12.677
 8880W        W73700  14.244  35.110   3.670
 8881W        W73701  29.150  21.482  14.363
 8882W        W73702   5.368   5.426  11.341
 8883W        W73703  24.974  10.980  14.425
 8884W        W73704  26.283  33.134  10.139
 8885W        W73705  25.356  11.396   1.086
 8886W        W73706   2.920   7.135  10.747
 8887W        W73707  13.572  25.693   1.835
 8888W        W73708  40.386  18.658  11.207
 8889W        W73709  28.096   6.433  14.031
 8890W        W73710   8.068  11.938  14.034
 8891W        W73711  44.557  17.119   1.960
 8892W        W73712  17.803  11.417  13.975
 8893W        W73713   4.181  16.671   1.843
 8894W        W73714  30.295  29.030   4.154
 8895W        W73715  39.858  30.853  13.915
 8896W        W73716  35.522  38.314   2.704
 8897W        W73717  26.642  12.480  13.066
 8898W        W73718  31.933  10.388   4.000
 8899W        W73719  29.018  29.146  14.020
 8900W        W73720  32.652  10.085   3.638
 8901W        W73721  29.217   2.908  13.858
 8902W        W73722   2.718  17.276   3.249
 8903W        W73723   3.835  14.728   2.802
 8904W        W73724  16.503   9.842   3.352
 8905W        W73725   7.073  25.571   2.400
 8906W        W73726   0.241  22.758  11.071
 8907W        W73727   8.592   2.531   3.232
 8908W        W73728  32.416   1.767  13.932
 8909W        W73729  42.980  20.741   0.326
 8910W        W73730  20.080  22.621  14.315
 8911W        W73731  41.853   5.430   0.568
 8912W        W73732  29.212  17.894   1.714
 8913W        W73733  34.948  13.938   2.876
 8914W        W73734  16.100  17.549   2.825
 8915W        W73735  13.195  32.654   1.121
 8916W        W73736  32.144   1.163   0.858
 8917W        W73737  16.136   2.627  14.403
 8918W        W73738  13.744  35.907   2.808
 8919W        W73739  24.160  25.232   2.158
 8920W        W73740  43.504   1.869  13.238
 8921W        W73741  12.263  17.291  12.216
 8922W        W73742  32.095  27.613  10.313
 8923W        W73743  26.783  34.524  13.714
 8924W        W73744   7.249  40.476   1.790
 8925W        W73745  39.155  16.158  11.634
 8926W        W73746  24.111  42.378  14.335
 8927W        W73747  34.985  33.853   3.847
 8928W        W73748   7.203  27.079   4.822
 8929W        W73749  31.314  19.456  13.938
 8930W        W73750  21.893  36.908   0.993
 8931W        W73751  37.373   3.560   2.196
 8932W        W73752   4.858  28.425  10.701
 8933W        W73753  28.348  40.942  13.324
 8934W        W73754  43.452  25.752  11.146
 8935W        W73755   3.493   3.880  11.047
 8936W        W73756  11.564  31.037   2.347
 8937W        W73757  17.049  34.117  12.016
 8938W        W73758   7.524  19.800   1.585
 8939W        W73759   9.234  35.376   4.197
 8940W        W73760  18.749  34.620  10.606
 8941W        W73761  22.154  23.510  12.448
 8942W        W73762  19.252  38.609   4.122
 8943W        W73763  17.261  23.894  12.027
 8944W        W73764  44.876   2.620  12.905
 8945W        W73765  25.517  10.186  14.999
 8946W        W73766  11.189  19.496  13.530
 8947W        W73767  13.042  10.765  10.929
 8948W        W73768  41.917  14.977   3.286
 8949W        W73769  22.644  40.456  14.764
 8950W        W73770  12.092  20.651  12.388
 8951W        W73771  40.491  12.156  14.455
 8952W        W73772  17.195  40.297  14.357
 8953W        W73773  16.305  13.621   2.811
 8954W        W73774  30.921  34.411  12.887
 8955W        W73775  19.462  44.365  11.909
 8956W        W73776  36.455   8.167   3.071
 8957W        W73777   9.997  44.827   1.171
 8958W        W73778  38.512  34.848   1.244
 8959W        W73779  15.262  13.383   1.776
 8960W        W73780   7.402  36.177   2.290
 8961W        W73781  20.625  44.388  11.104
 8962W        W73782  28.119  20.895   2.443
 8963W        W73783   2.510  32.941   2.400
 8964W        W73784  42.001   7.334   1.719
 8965W        W73785  42.374  14.540  12.594
 8966W        W73786  38.017   7.807  14.462
 8967W        W73787  36.078  40.188  12.649
 8968W        W73788  33.585   9.442   1.485
 8969W        W73789   8.626   5.402  14.330
 8970W        W73790  11.162   9.114  11.945
 8971W        W73791  40.945   5.658   1.806
 8972W        W73792  40.939  25.005  11.742
 8973W        W73793  16.491  12.790   0.710
 8974W        W73794  17.231  11.193  13.139
 8975W        W73795  37.767  35.928   0.305
 8976W        W73796   1.800  34.544   4.608
 8977W        W73797  34.078   5.291   4.352
 8978W        W73798  27.834  25.268   0.745
 8979W        W73799  35.659  43.954   1.985
 8980W        W73800  43.015   9.715  14.975
 8981W        W73801  35.526  16.701   0.052
 8982W        W73802   3.378  31.979   4.121
 8983W        W73803   3.533  27.440  13.041
 8984W        W73804   7.147  39.511   0.721
 8985W        W73805   3.919  35.433   3.571
 8986W        W73806  41.853  34.060   0.961
 8987W        W73807  27.125  22.542   1.333
 8988W        W73808   0.194  34.865   0.734
 8989W        W73809  11.088   3.319   3.700
 8990W        W73810   2.050  12.333  10.672
 8991W        W73811  39.431  27.817   2.805
 8992W        W73812   2.215  43.951   4.722
 8993W        W73813  42.965  41.052   0.816
 8994W        W73814   5.196  40.254   1.725
 8995W        W73815  16.862   1.694   0.429
 8996W        W73816  25.788  16.882   4.647
 8997W        W73817  40.712  42.702   0.783
 8998W        W73818  26.046  18.074  12.800
 8999W        W73819  38.373  10.359  13.491
 9000W        W73820   6.002  12.796  11.162
 9001W        W73821  35.031  31.235   3.826
 9002W        W73822  33.691  29.825  11.226
 9003W        W73823  35.175  10.544   4.582
 9004W        W73824  31.370  42.807  13.923
 9005W        W73825  41.369  36.458   3.637
 9006W        W73826  24.286  33.492   2.744
 9007W        W73827  10.251  25.872  14.498
 9008W        W73828   1.235  44.439   0.880
 9009W        W73829   8.502   6.616   1.394
 9010W        W73830  13.739  42.569  11.594
 9011W        W73831   5.385  44.459  14.877
 9012W        W73832  23.396  11.624  10.208
 9013W        W73833  34.300  37.396   0.904
 9014W        W73834  44.943  39.902   1.657
 9015W        W73835   2.405  39.701   0.306
 9016W        W73836  39.907   1.153   2.218
 9017W        W73837  34.955  28.910   0.305
 9018W        W73838  14.377   1.028  12.562
 9019W        W73839  11.740   2.447  14.746
 9020W        W73840  42.008  31.894  10.715
 9021W        W73841   1.783   4.756  13.025
 9022W        W73842   0.236  42.381  13.466
 9023W        W73843  24.915   3.509  12.508
 9024W        W73844  35.510  26.087  14.107
 9025W        W73845  26.911  25.224   4.885
 9026W        W73846   2.368   6.591   3.436
 9027W        W73847  10.737  40.878   1.361
 9028W        W73848  34.507  14.843  11.044
 9029W        W73849  19.842  37.399   0.007
 9030W        W73850  18.737  41.729  11.315
 9031W        W73851  36.248  24.696  13.138
 9032W        W73852  39.590  32.546   1.638
 9033W        W73853  22.383  44.015   5.066
 9034W        W73854  29.633  10.883   3.811
 9035W        W73855  37.675  26.485  12.932
 9036W        W73856  43.470  18.691  13.609
 9037W        W73857  15.193  35.260   1.346
 9038W        W73858  11.725  27.382   1.984
 9039W        W73859  41.513  33.610   2.776
 9040W        W73860  40.211   5.731  11.557
 9041W        W73861  40.007  40.948  13.526
 9042W        W73862  33.414  11.784   4.572
 9043W        W73863  17.747  43.520  13.867
 9044W        W73864  23.524  20.701  11.550
 9045W        W73865   2.682   0.326  13.985
 9046W        W73866  41.829   7.260  14.328
 9047W        W73867   6.542  43.673  11.089
 9048W        W73868   6.328   4.721   0.402
 9049W        W73869   1.087  41.545   1.783
 9050W        W73870   7.135  40.906   2.353
 9051W        W73871   0.971  40.016   4.907
 9052W        W73872  37.070   1.066   4.895
 9053W        W73873  42.441  39.755   3.445
 9054W        W73874  21.172  11.417  10.684
 9055W        W73875  40.386   5.420  14.023
 9056W        W73876   5.626  36.100   1.533
 9057W        W73877  11.903  35.085  14.497
 9058W        W73878  37.270  20.736  13.769
 9059W        W73879  23.648   9.443  13.125
 9060W        W73880  21.666  26.679  13.931
 9061W        W73881  30.863  39.442   3.297
 9062W        W73882   6.215  13.105  14.202
 9063W        W73883  29.078   4.618   0.241
 9064W        W73884  43.461   6.657  11.208
 9065W        W73885  30.225  37.700  11.125
 9066W        W73886  36.392  15.030   4.107
 9067W        W73887  17.355  42.020  10.582
 9068W        W73888   8.838  13.653   3.349
 9069W        W73889  33.051  38.841   0.766
 9070W        W73890  38.145  39.069   3.011
 9071W        W73891  26.896  39.252  14.539
 9072W        W73892  25.186  39.540  12.681
 9073W        W73893  12.300  12.186  13.033
 9074W        W73894   2.746   1.181  14.101
 9075W        W73895   7.484  34.670   0.960
 9076W        W73896  10.146  15.723  12.508
 9077W        W73897  41.901  36.344  12.227
 9078W        W73898   6.811  29.163   2.676
 9079W        W73899  13.289  25.608   3.212
 9080W        W73900  16.908   0.755  14.087
 9081W        W73901  42.962  44.748   2.104
 9082W        W73902  42.809  36.472  14.247
 9083W        W73903   3.663  23.550   4.793
 9084W        W73904  28.100  26.776  13.935
 9085W        W73905  36.522  31.581   1.496
 9086W        W73906  40.062  10.688  10.381
 9087W        W73907  11.527  24.671   4.147
 9088W        W73908  30.525   2.147   2.442
 9089W        W73909  44.485  33.119  13.346
 9090W        W73910   4.825  41.089  13.359
 9091W        W73911  30.390  27.676  10.507
 9092W        W73912  40.808   9.755  14.290
 9093W        W73913  13.250   1.751  12.489
 9094W        W73914  16.108   2.329  13.872
 9095W        W73915  16.848  11.291  10.447
 9096W        W73916  31.405  37.308  15.000
 9097W        W73917   4.974  22.542   0.929
 9098W        W73918   3.753  15.239  11.609
 9099W        W73919  37.951  26.023  12.043
 9100W        W73920  28.626  23.710   2.224
 9101W        W73921  26.404   1.783   1.516
 9102W        W73922  13.113  30.417   1.769
 9103W        W73923   0.719  16.055  14.088
 9104W        W73924  24.970   9.856  12.443
 9105W        W73925   9.288  39.261  13.883
 9106W        W73926  10.568  25.730  12.541
 9107W        W73927   1.261  17.129   3.753
 9108W        W73928  30.123  21.683   2.228
 9109W        W73929  15.740   6.209  11.904
 9110W        W73930   8.280  11.076   4.677
 9111W        W73931  23.693  37.044   0.878
 9112W        W73932  10.305  31.173   0.981
 9113W        W73933  11.764  18.069  13.002
 9114W        W73934  21.151  32.580  11.106
 9115W        W73935   6.306  40.293   0.800
 9116W        W73936  34.357  43.225  12.376
 9117W        W73937   6.730  33.317  13.880
 9118W        W73938  26.776  36.365  14.474
 9119W        W73939  21.493  18.932   5.082
 9120W        W73940  23.652  15.704  10.944
 9121W        W73941   2.891  12.746  14.243
 9122W        W73942  19.710  43.017   0.399
 9123W        W73943  14.186   4.693   2.915
 9124W        W73944  26.399  29.192  14.317
 9125W        W73945  17.165  11.905  11.148
 9126W        W73946  13.756  23.828  14.388
 9127W        W73947  14.643  34.831  13.842
 9128W        W73948  16.445  30.802   3.140
 9129W        W73949  23.045  30.320   4.500
 9130W        W73950   3.110  27.809   2.653
 9131W        W73951  12.377  37.103   3.928
 9132W        W73952  44.021  37.743   0.006
 9133W        W73953  35.334  39.469  14.409
 9134W        W73954  26.402  12.792   2.573
 9135W        W73955  44.869  33.457   1.968
 9136W        W73956  44.491  14.262  13.541
 9137W        W73957  31.037  15.433  10.618
 9138W        W73958  33.787  26.246   0.297
 9139W        W73959  44.364  39.948   2.773
 9140W        W73960  10.868  17.122  12.096
 9141W        W73961   1.428   5.189  14.407
 9142W        W73962  17.051  14.887  11.213
 9143W        W73963  11.268   6.148   0.793
 9144W        W73964  16.570  25.525  14.272
 9145W        W73965   1.429  37.941   1.389
 9146W        W73966  29.040   8.271   4.397
 9147W        W73967  38.360  41.731  12.960
 9148W        W73968  30.545  12.589  12.357
 9149W        W73969   0.741  12.605   4.633
 9150W        W73970  35.182  27.137   4.142
 9151W        W73971  14.090  12.064  11.173
 9152W        W73972  18.816  44.698  14.960
 9153W        W73973  44.251  44.965  13.350
 9154W        W73974  23.961  39.816   2.817
 9155W        W73975  28.972  40.433   3.871
 9156W        W73976   5.122  21.525   1.226
 9157W        W73977  30.802  22.001   3.768
 9158W        W73978  20.786   2.373   4.263
 9159W        W73979   1.920  22.318   3.310
 9160W        W73980  28.378  30.382   4.125
 9161W        W73981  41.838  18.919  11.421
 9162W        W73982  35.457   1.142   4.438
 9163W        W73983  32.298  15.131   5.129
 9164W        W73984  44.404  35.817   1.477
 9165W        W73985  29.638   3.091  12.559
 9166W        W73986  28.344  29.877   4.834
 9167W        W73987   6.437  44.280   2.870
 9168W        W73988  38.481  27.759  12.423
 9169W        W73989  39.879  29.836   4.684
 9170W        W73990  20.988  35.945  13.065
 9171W        W73991  36.566  28.681   4.536
 9172W        W73992  35.085  14.603  13.534
 9173W        W73993  11.341  13.553   4.703
 9174W        W73994  11.386  23.238  10.603
 9175W        W73995  36.336  27.417  11.223
 9176W        W73996  43.107  28.343   1.194
 9177W        W73997  42.935  20.052   4.209
 9178W        W73998  17.821   5.745  11.530
 9179W        W73999  32.118  36.456   2.398
 9180W        W74000  31.768  12.678   0.911
 9181W        W74001  22.939   0.341  12.907
 9182W        W74002   0.877  25.939  11.202
 9183W        W74003  19.840  42.061   4.569
 9184W        W74004  34.588  13.755   4.934
 9185W        W74005  38.784   1.497   4.659
 9186W        W74006  30.027  21.134  14.660
 9187W        W74007  17.832  18.507  14.825
 9188W        W74008   5.762   3.841  10.928
 9189W        W74009  23.759  27.103  14.908
 9190W        W74010   9.355   0.482   2.352
 9191W        W74011  33.981  11.219   0.997
 9192W        W74012  26.689  24.779   3.239
 9193W        W74013  10.841  31.926  14.843
 9194W        W74014  26.166  13.067  12.564
 9195W        W74015  16.387  15.592  11.034
 9196W        W74016  15.061   3.212   0.721
 9197W        W74017   4.486  28.499  14.113
 9198W        W74018  36.372  17.818   2.371
 9199W        W74019  11.775  18.544   0.979
 9200W        W74020  25.908  29.763  13.483
 9201W        W74021   2.378  40.301   1.300
 9202W        W74022  13.289  17.391  13.968
 9203W        W74023  39.360   4.920   0.824
 9204W        W74024  40.964  27.222  11.667
 9205W        W74025   0.960  20.442   0.302
 9206W        W74026  29.371   6.940  11.127
 9207W        W74027  24.469  20.923   1.666
 9208W        W74028  26.535  28.199  10.646
 9209W        W74029  11.654  21.472  11.792
 9210W        W74030  12.194  11.174  10.613
 9211W        W74031  43.370   4.193  13.456
 9212W        W74032   6.877  41.488   3.764
 9213W        W74033  37.630  17.241   0.459
 9214W        W74034  39.443  10.928  13.878
 9215W        W74035  25.773   7.781  12.518
 9216W        W74036   0.949  33.495  14.089
 9217W        W74037  26.457  26.572  13.416
 9218W        W74038  32.143  18.678   9.748
 9219W        W74039  18.747  28.515   2.777
 9220W        W74040  34.679  41.868   2.204
 9221W        W74041  35.180   5.457  14.793
 9222W        W74042   7.450  36.479  11.026
 9223W        W74043  39.001  15.204  10.739
 9224W        W74044  12.102  18.232   3.543
 9225W        W74045  35.281  38.066  11.097
 9226W        W74046  20.959  25.805   0.657
 9227W        W74047  14.724  39.973  14.390
 9228W        W74048  37.273  29.970   2.430
 9229W        W74049  34.578  17.599   2.618
 9230W        W74050  16.982  17.063  12.527
 9231W        W74051   4.452  37.550  13.981
 9232W        W74052  11.169  35.668   2.313
 9233W        W74053  26.021  35.470   1.278
 9234W        W74054   1.924   6.939   0.124
 9235W        W74055  32.060  31.139  13.453
 9236W        W74056  16.300   0.518   1.500
 9237W        W74057  32.836   0.029   1.271
 9238W        W74058   8.382  10.609   4.896
 9239W        W74059  12.631   9.400   4.796
 9240W        W74060  33.602  10.581   2.207
 9241W        W74061  12.886  21.183  12.509
 9242W        W74062  18.551   5.203   1.350
 9243W        W74063  22.493  33.881  14.024
 9244W        W74064   4.951  30.100   5.081
 9245W        W74065  31.089  38.834  11.206
 9246W        W74066  26.197   3.326   1.737
 9247W        W74067  35.640   0.786  12.462
 9248W        W74068  40.409   0.494   0.655
 9249W        W74069  22.996  13.543  11.180
 9250W        W74070  13.130  27.910   2.176
 9251W        W74071  26.040   8.185   2.285
 9252W        W74072  42.026  16.267  11.532
 9253W        W74073  42.889  10.272   3.626
 9254W        W74074  12.798  16.867   2.963
 9255W        W74075  33.965  28.608  10.762
 9256W        W74076  17.479  18.803  11.430
 9257W        W74077   7.728  44.058  12.390
 9258W        W74078  36.523   3.171  13.284
 9259W        W74079  24.646  19.129  12.901
 9260W        W74080  33.358  24.424  11.262
 9261W        W74081  12.612  12.413  13.386
 9262W        W74082  16.166  27.986   2.310
 9263W        W74083  34.605   6.353   1.728
 9264W        W74084  37.555  19.638   0.725
 9265W        W74085  12.015   1.411  11.289
 9266W        W74086  37.470  36.931  14.675
 9267W        W74087  11.830   2.057  11.920
 9268W        W74088  29.173  18.369   0.973
 9269W        W74089  41.542  41.757  10.516
 9270W        W74090  20.547  15.792  13.277
 9271W        W74091   7.958  39.056  14.587
 9272W        W74092  19.029  17.995   2.889
 9273W        W74093  11.625  31.982  12.504
 9274W        W74094  30.940  10.758   3.015
 9275W        W74095  31.699  39.897  11.704
 9276W        W74096   5.821  33.397   4.844
 9277W        W74097   5.571  22.057   5.115
 9278W        W74098  21.944  22.056  12.507
 9279W        W74099  35.093  20.540  12.531
 9280W        W74100  41.387  11.543   2.857
 9281W        W74101  27.761  22.576  11.580
 9282W        W74102  35.903  28.757   0.809
 9283W        W74103  43.541   6.841  12.555
 9284W        W74104  41.379  12.239   3.833
 9285W        W74105  34.904  37.763   0.079
 9286W        W74106   4.774  33.731   3.869
 9287W        W74107   6.372  12.687   0.910
 9288W        W74108   7.644   8.968  10.592
 9289W        W74109  13.074   2.762  11.589
 9290W        W74110  25.972  38.114  12.033
 9291W        W74111   0.520  38.498  14.587
 9292W        W74112  34.932   4.828  11.655
 9293W        W74113   4.625   0.017   4.145
 9294W        W74114  42.489  37.551   3.203
 9295W        W74115  21.629   7.332   3.985
 9296W        W74116  40.576   2.803   3.621
 9297W        W74117  12.207  42.191  13.921
 9298W        W74118   8.879  35.645  10.660
 9299W        W74119  13.145  10.878  10.416
 9300W        W74120  42.081  27.958   3.774
 9301W        W74121  25.693  43.269   2.268
 9302W        W74122  29.384  24.884  10.627
 9303W        W74123  31.407  23.124   3.716
 9304W        W74124  35.624   3.508  10.647
 9305W        W74125  31.932  27.710  13.098
 9306W        W74126  44.237  31.616   0.139
 9307W        W74127  41.497  11.568   4.378
 9308W        W74128  12.274  17.524   3.117
 9309W        W74129   1.855  22.367   2.201
 9310W        W74130  28.397  30.717   4.526
 9311W        W74131   4.791  38.925   5.248
 9312W        W74132  32.793  15.296   5.011
 9313W        W74133   6.126  18.630  13.707
 9314W        W74134  23.596  38.112   1.715
 9315W        W74135  34.258  29.479   0.316
 9316W        W74136  17.296   5.151   0.694
 9317W        W74137   7.253  43.446   1.863
 9318W        W74138  43.821  40.113   0.463
 9319W        W74139  14.918   4.304   0.788
 9320W        W74140   7.858  18.602  13.037
 9321W        W74141  20.823  20.522  13.995
 9322W        W74142  15.077  23.489  12.826
 9323W        W74143  16.445  39.518   1.886
 9324W        W74144  44.540  27.901   1.348
 9325W        W74145  35.881  14.763  13.103
 9326W        W74146  35.929  43.507  12.354
 9327W        W74147   3.825  14.839  10.710
 9328W        W74148  23.049  35.388   2.901
 9329W        W74149  11.097  23.566   1.772
 9330W        W74150  21.503  26.547  14.443
 9331W        W74151  39.699  33.203  11.501
 9332W        W74152  18.622  16.719  11.938
 9333W        W74153  18.295   4.689   0.839
 9334W        W74154  18.016  19.081  14.063
 9335W        W74155   3.158  17.758  12.397
 9336W        W74156   0.447  25.398  14.289
 9337W        W74157   0.489  22.411   0.459
 9338W        W74158   3.906  32.389   2.939
 9339W        W74159  31.443  15.462  13.022
 9340W        W74160  33.399  38.188  14.171
 9341W        W74161  26.377   7.523   4.924
 9342W        W74162  15.068  44.000  13.153
 9343W        W74163  27.751  41.904   4.564
 9344W        W74164  13.335  21.062   1.852
 9345W        W74165  24.565  29.987   0.817
 9346W        W74166  31.647  35.831  13.087
 9347W        W74167   2.860  33.621   2.427
 9348W        W74168   9.859  17.391   1.141
 9349W        W74169  26.865  13.203   0.186
 9350W        W74170   7.334   4.328  10.747
 9351W        W74171  25.095  18.733  14.473
 9352W        W74172  34.036  26.105   2.592
 9353W        W74173  12.133  30.634  12.114
 9354W        W74174  41.799  22.726  10.758
 9355W        W74175  19.891  35.607   3.262
 9356W        W74176  37.351   9.873  12.632
 9357W        W74177  27.408   1.520   0.649
 9358W        W74178  30.049  13.546   4.641
 9359W        W74179  34.573  27.606   4.586
 9360W        W74180  37.381  17.542   0.812
 9361W        W74181  25.092  38.425   3.246
 9362W        W74182  26.100  20.982  12.743
 9363W        W74183  22.703   0.857   5.102
 9364W        W74184  36.377  34.612  11.477
 9365W        W74185  23.421  24.717   1.360
 9366W        W74186  15.130  37.112  12.744
 9367W        W74187  38.964  43.234   1.659
 9368W        W74188  17.046  27.427   1.891
 9369W        W74189  21.082  24.471   0.291
 9370W        W74190  42.926  18.606   3.783
 9371W        W74191  10.746  31.994   2.809
 9372W        W74192  31.170   5.694   1.840
 9373W        W74193  36.217  38.817   4.683
 9374W        W74194  14.850  21.562   0.931
 9375W        W74195  40.100  36.969  12.842
 9376W        W74196  36.138  18.265   1.547
 9377W        W74197  17.815  13.958   1.363
 9378W        W74198   5.898  44.398   2.922
 9379W        W74199   4.777  35.385   3.024
 9380W        W74200   6.734  21.040  13.527
 9381W        W74201  32.150  31.987  11.141
 9382W        W74202  33.231  19.029  12.634
 9383W        W74203   6.001  23.971  14.285
 9384W        W74204  43.521  13.712   1.176
 9385W        W74205  19.927  15.600   1.118
 9386W        W74206  33.507   9.496  14.976
 9387W        W74207  21.669  27.171   2.409
 9388W        W74208   7.201  34.091   4.450
 9389W        W74209   5.888  38.848   4.542
 9390W        W74210  11.262  37.145  11.542
 9391W        W74211  37.680   2.778   4.829
 9392W        W74212  31.964   7.817   2.805
 9393W        W74213  44.013  40.829  13.527
 9394W        W74214  23.567  39.059  11.632
 9395W        W74215  33.302   6.420   2.229
 9396W        W74216  31.924  15.132  12.556
 9397W        W74217  30.907  25.296   2.366
 9398W        W74218  40.627  10.471   1.422
 9399W        W74219  38.468   6.329   0.284
 9400W        W74220  23.729  13.139   2.678
 9401W        W74221  20.249  42.802  11.167
 9402W        W74222  20.948  15.488  10.661
 9403W        W74223  33.443  10.166  12.392
 9404W        W74224   3.628  27.892   4.029
 9405W        W74225  27.113  40.529   3.283
 9406W        W74226  10.477  28.938   1.420
 9407W        W74227   8.418  24.990   2.118
 9408W        W74228   7.485  23.110  12.864
 9409W        W74229  14.283  19.510   1.402
 9410W        W74230  42.775  10.849   0.398
 9411W        W74231  19.292  13.558  11.907
 9412W        W74232  12.663  23.107   1.326
 9413W        W74233  32.119   2.918  11.575
 9414W        W74234  24.187   5.842   0.011
 9415W        W74235  10.185   3.126  10.487
 9416W        W74236  44.410  21.559  14.496
 9417W        W74237   0.805  33.323   4.032
 9418W        W74238  28.519  38.547   4.261
 9419W        W74239  25.132  32.855   0.163
 9420W        W74240  40.929  28.971   3.689
 9421W        W74241  22.680  41.340  14.923
 9422W        W74242  41.397  35.512   0.695
 9423W        W74243  27.964  38.582  12.754
 9424W        W74244   7.411  32.415  11.206
 9425W        W74245   0.006  25.447   4.458
 9426W        W74246  32.908   0.955   0.153
 9427W        W74247   2.526  17.322  12.408
 9428W        W74248  15.182  10.505   4.321
 9429W        W74249  32.639  14.186   0.411
 9430W        W74250  43.953  18.105  14.335
 9431W        W74251  19.972   0.924  13.318
 9432W        W74252  40.020   6.387   3.773
 9433W        W74253  40.894   4.805  14.794
 9434W        W74254  34.893  16.253   0.478
 9435W        W74255   4.932  21.212  11.180
 9436W        W74256   4.840  29.293   2.309
 9437W        W74257  10.131   9.157  10.548
 9438W        W74258  12.227   7.183  14.341
 9439W        W74259  39.597  18.977  13.831
 9440W        W74260   1.380   3.436   1.184
 9441W        W74261  44.906  11.107   0.461
 9442W        W74262  29.186  40.493  14.912
 9443W        W74263   6.273   8.076   3.423
 9444W        W74264  37.941  21.121   3.357
 9445W        W74265  12.157  36.410   3.164
 9446W        W74266  23.168  32.381   0.859
 9447W        W74267  40.347  41.286   0.746
 9448W        W74268  30.887  12.393  11.993
 9449W        W74269  41.821  34.047   1.897
 9450W        W74270  21.623  35.586   3.774
 9451W        W74271   1.514  11.163  14.460
 9452W        W74272  32.393  36.305   1.930
 9453W        W74273  17.971  34.921   1.786
 9454W        W74274  21.999   3.667  13.511
 9455W        W74275  14.406  25.289  11.990
 9456W        W74276  43.763  13.117  11.533
 9457W        W74277  21.717   0.623  12.080
 9458W        W74278  20.146  18.642   1.193
 9459W        W74279  27.177   5.762  11.257
 9460W        W74280  38.518   6.223   2.512
 9461W        W74281   4.211   9.799   4.459
 9462W        W74282  41.263  37.881  12.941
 9463W        W74283  20.700  20.962  12.803
 9464W        W74284   6.959  18.336  13.954
 9465W        W74285   1.075  23.032  12.926
 9466W        W74286   2.692  37.419  14.067
 9467W        W74287   0.237  10.857  13.538
 9468W        W74288   1.468  37.502   2.235
 9469W        W74289  23.627  22.754   2.052
 9470W        W74290  25.901  32.324  14.772
 9471W        W74291   5.889  34.076  14.731
 9472W        W74292  32.541   6.268  13.869
 9473W        W74293  28.432   0.224  14.526
 9474W        W74294   1.494  42.588  13.905
 9475W        W74295  23.442  29.594   4.305
 9476W        W74296   8.060  35.343  11.540
 9477W        W74297  15.192  35.134  10.562
 9478W        W74298  40.999  31.145   4.085
 9479W        W74299  14.620   0.914   4.641
 9480W        W74300  43.031  32.125  13.627
 9481W        W74301  19.727  28.918   3.753
 9482W        W74302   3.904  29.039  12.174
 9483W        W74303   6.809  38.963  12.425
 9484W        W74304  13.794  14.117   3.832
 9485W        W74305  39.482  12.000  10.713
 9486W        W74306  28.124  13.715  11.064
 9487W        W74307  21.968  18.600  12.116
 9488W        W74308  10.871   1.996   1.384
 9489W        W74309   8.918  37.586  14.753
 9490W        W74310   6.370  22.541   3.715
 9491W        W74311  11.749  22.064   0.260
 9492W        W74312  38.672  29.682  13.469
 9493W        W74313  22.512  16.596   2.407
 9494W        W74314  38.088  27.805   2.432
 9495W        W74315  30.903  13.192   0.229
 9496W        W74316  42.861  37.921   4.402
 9497W        W74317   5.302  32.508   0.299
 9498W        W74318  33.421   2.639   2.477
 9499W        W74319  26.083  32.737  13.440
 9500W        W74320   1.061  31.525  14.130
 9501W        W74321  40.189  14.217  11.158
 9502W        W74322   0.024  39.639  12.961
 9503W        W74323  26.942   4.518   1.176
 9504W        W74324  33.723  38.061   4.643
 9505W        W74325   5.773   9.259  12.472
 9506W        W74326   1.279  16.616  10.829
 9507W        W74327  19.248   7.213   1.514
 9508W        W74328  14.140  19.780  13.018
 9509W        W74329  43.006  29.525   0.452
 9510W        W74330  40.960  19.808  11.625
 9511W        W74331  40.515  18.244  10.524
 9512W        W74332  41.419  42.144   5.015
 9513W        W74333  21.086  25.306   0.742
 9514W        W74334  42.715  13.002   4.109
 9515W        W74335  39.002  27.595   2.597
 9516W        W74336  19.721  11.750  13.055
 9517W        W74337  16.989   7.614  14.820
 9518W        W74338  25.991  41.059   4.216
 9519W        W74339   9.352  16.675   0.036
 9520W        W74340  20.392  23.648   3.355
 9521W        W74341   0.916  10.623   2.301
 9522W        W74342  15.363  36.091  11.642
 9523W        W74343  27.222  29.082   3.225
 9524W        W74344  11.813  38.942  10.291
 9525W        W74345  39.996  23.637  13.940
 9526W        W74346  34.488  33.375  13.975
 9527W        W74347  19.064   8.332  14.990
 9528W        W74348  32.121  35.011   4.942
 9529W        W74349   0.557   3.292   9.947
 9530W        W74350  22.232  14.048  13.913
 9531W        W74351  14.273  20.668   3.363
 9532W        W74352  22.154  24.818  12.013
 9533W        W74353   8.665  38.348  12.564
 9534W        W74354   5.757  25.050  12.197
 9535W        W74355  22.483   0.082   0.683
 9536W        W74356  24.086   3.832   1.944
 9537W        W74357   8.742  33.531  14.748
 9538W        W74358  25.581  24.234   2.795
 9539W        W74359  30.284  31.513  11.599
 9540W        W74360  16.082  33.074  12.513
 9541W        W74361  30.244  19.306  10.143
 9542W        W74362  23.261  27.711   2.241
 9543W        W74363  44.746  28.503  12.570
 9544W        W74364  16.502  23.596   2.091
 9545W        W74365  14.784   9.237  11.610
 9546W        W74366  21.667  33.564   1.727
 9547W        W74367  36.603  40.476  13.373
 9548W        W74368  25.199   4.208   0.796
 9549W        W74369  13.036  14.470  13.473
 9550W        W74370  12.836  31.921   5.348
 9551W        W74371  38.115   4.014  14.477
 9552W        W74372  33.076  17.091   1.313
 9553W        W74373  20.922  14.626  13.877
 9554W        W74374  43.949   4.111  14.828
 9555W        W74375  30.117  41.048   0.509
 9556W        W74376  43.356  43.736   0.261
 9557W        W74377  21.772   7.450  11.052
 9558W        W74378   6.907  37.244   2.799
 9559W        W74379  15.560  15.118   0.457
 9560W        W74380  42.995  41.258  11.595
 9561W        W74381  23.625  31.824   0.288
 9562W        W74382   0.904  20.222   2.896
 9563W        W74383  19.747  34.870  12.691
 9564W        W74384  19.445  11.818  13.505
 9565W        W74385  25.351   3.231  12.267
 9566W        W74386   4.571  43.994   4.150
 9567W        W74387  25.955  23.669  13.880
 9568W        W74388  28.656   0.257   4.258
 9569W        W74389   5.061  14.564  14.925
 9570W        W74390  38.043  14.775  14.725
 9571W        W74391  10.681  24.500   0.481
 9572W        W74392  28.060  21.241  13.987
 9573W        W74393   5.724  43.765   1.384
 9574W        W74394  37.151  30.777   4.317
 9575W        W74395   8.423   1.878   4.171
 9576W        W74396  25.970  27.481   4.550
 9577W        W74397  20.281  34.460   0.891
 9578W        W74398  33.325  16.571  12.658
 9579W        W74399  23.023  32.910   2.207
 9580W        W74400  15.341   9.646  12.532
 9581W        W74401  26.875   6.192  10.588
 9582W        W74402  30.071  30.322   0.774
 9583W        W74403  14.853  28.858  13.327
 9584W        W74404  28.463  14.001   4.248
 9585W        W74405  11.294  37.330  12.882
 9586W        W74406  40.918  20.607  11.961
 9587W        W74407  14.164  26.852   0.721
 9588W        W74408  41.298  40.015   0.831
 9589W        W74409   3.926  26.180   1.650
 9590W        W74410  22.705  18.644   4.828
 9591W        W74411  27.457  35.849  10.654
 9592W        W74412  24.102  17.391  12.227
 9593W        W74413  15.273  22.006   2.945
 9594W        W74414  28.470   5.450  13.035
 9595W        W74415   7.880  31.070   3.764
 9596W        W74416   8.000   8.157   4.322
 9597W        W74417  25.241   0.669   3.275
 9598W        W74418  28.792  15.559   4.194
 9599W        W74419  35.677  20.103  13.393
 9600W        W74420  15.988  37.542  10.100
 9601W        W74421  20.789  11.115   2.327
 9602W        W74422  18.816   2.821  10.662
 9603W        W74423   2.383  35.031  11.596
 9604W        W74424  13.330   5.026  13.116
 9605W        W74425  25.933  20.084   0.356
 9606W        W74426  41.989   7.403  14.818
 9607W        W74427  33.188   9.574   4.830
 9608W        W74428  40.963  13.611  12.845
 9609W        W74429   2.729  19.441  13.894
 9610W        W74430   0.330  25.820  12.063
 9611W        W74431  31.946  32.688  11.573
 9612W        W74432  33.813  12.958   3.333
 9613W        W74433  17.634  10.757   1.838
 9614W        W74434  37.787  33.772  14.436
 9615W        W74435   2.910  37.970  11.308
 9616W        W74436   1.781  32.604   4.622
 9617W        W74437   0.026   2.373  12.476
 9618W        W74438   9.184   1.943   4.644
 9619W        W74439   2.921   1.443  12.003
 9620W        W74440   1.283   4.927   1.466
 9621W        W74441  21.155  38.026   1.099
 9622W        W74442   9.156   6.037  11.056
 9623W        W74443  27.221  16.733   3.726
 9624W        W74444  34.536  38.351  12.966
 9625W        W74445  26.669   7.220   0.751
 9626W        W74446   6.905  39.620  12.918
 9627W        W74447  43.062  42.400  11.064
 9628W        W74448   6.296  29.981  11.407
 9629W        W74449   9.917  35.894   3.691
 9630W        W74450  30.482  38.986  12.646
 9631W        W74451  44.700  22.722  10.968
 9632W        W74452  44.619  42.108  13.059
 9633W        W74453  34.043   6.760  12.107
 9634W        W74454   3.655   4.453  12.055
 9635W        W74455  20.486  37.196  14.287
 9636W        W74456  10.163  32.251   9.782
 9637W        W74457   9.804  37.537   0.036
 9638W        W74458  21.708   7.130   3.181
 9639W        W74459  37.574  37.446   3.196
 9640W        W74460  40.144   5.450   3.239
 9641W        W74461   6.868   0.777   4.155
 9642W        W74462   6.196  27.728   1.319
 9643W        W74463  18.145  17.536  12.878
 9644W        W74464  18.065  43.813   0.466
 9645W        W74465  36.514  16.359  10.208
 9646W        W74466   3.466  32.300  14.106
 9647W        W74467  10.200  41.575  12.498
 9648W        W74468   8.167   7.461   1.939
 9649W        W74469  18.869  21.211   3.150
 9650W        W74470  44.968   8.505  12.180
 9651W        W74471  36.349  16.397   0.320
 9652W        W74472  33.557   9.897   3.532
 9653W        W74473  21.648   6.492  10.465
 9654W        W74474   4.248  43.838  14.337
 9655W        W74475   8.870  20.686   4.059
 9656W        W74476   0.406  25.413  13.778
 9657W        W74477  30.443  28.102   1.354
 9658W        W74478  18.158  21.721   2.838
 9659W        W74479  27.235  28.141   4.221
 9660W        W74480  42.198  28.629   4.972
 9661W        W74481  39.939  40.606  11.608
 9662W        W74482  26.392   9.364  13.378
 9663W        W74483  23.759   4.297  13.127
 9664W        W74484  39.124  18.845   0.395
 9665W        W74485  25.983  40.772   2.772
 9666W        W74486   0.282  40.433  13.518
 9667W        W74487  15.017  35.480  12.492
 9668W        W74488  27.616  28.664   1.360
 9669W        W74489  14.765  42.380  10.626
 9670W        W74490   0.730  16.145  11.936
 9671W        W74491  40.898  44.886   3.428
 9672W        W74492  14.671  32.895   1.866
 9673W        W74493  11.641   0.224   2.544
 9674W        W74494  17.762  10.428  13.084
 9675W        W74495  21.985  20.638  11.600
 9676W        W74496  18.786  10.906  11.208
 9677W        W74497   4.770  28.370  14.517
 9678W        W74498   1.964  11.383  11.607
 9679W        W74499  38.067  43.477  12.150
 9680W        W74500  31.675  11.388   4.082
 9681W        W74501  19.036  29.513   4.167
 9682W        W74502  13.765  15.783   0.256
 9683W        W74503  16.389  10.637   4.274
 9684W        W74504  41.490  24.362  14.027
 9685W        W74505  17.685  17.783   1.948
 9686W        W74506  29.914  23.685   3.590
 9687W        W74507   5.906  22.803   3.659
 9688W        W74508   6.684  12.783   4.171
 9689W        W74509   4.461   0.375  14.398
 9690W        W74510  14.263  31.037  11.951
 9691W        W74511  13.082  38.742   4.234
 9692W        W74512  25.723  13.202  14.015
 9693W        W74513  31.414  21.747  11.217
 9694W        W74514  30.898  41.079   4.343
 9695W        W74515  31.317  29.676   0.725
 9696W        W74516   5.385   9.817  13.924
 9697W        W74517  26.929  32.987   2.791
 9698W        W74518  33.477  31.633  10.392
 9699W        W74519   7.397  43.295  12.897
 9700W        W74520   7.659  32.629  13.967
 9701W        W74521   4.875   0.534   0.657
 9702W        W74522  44.299  30.871   1.336
 9703W        W74523   8.801  10.578   4.090
 9704W        W74524  13.152  33.576   0.110
 9705W        W74525   7.895  44.461   5.204
 9706W        W74526  12.249   4.758   3.257
 9707W        W74527   5.009  33.023   3.150
 9708W        W74528   9.856   4.388   1.246
 9709W        W74529  42.476  14.768  11.927
 9710W        W74530   5.686  10.149   0.022
 9711W        W74531  35.952  44.175   2.818
 9712W        W74532  16.280  40.908   2.880
 9713W        W74533   8.732  44.071  11.107
 9714W        W74534  23.971   5.723   1.998
 9715W        W74535  37.638  40.531   0.311
 9716W        W74536  31.858  13.406   0.285
 9717W        W74537  32.619  24.073   3.123
 9718W        W74538  29.408  11.326   1.215
 9719W        W74539  28.033   4.438  12.511
 9720W        W74540   7.611  28.152  12.137
 9721W        W74541  33.324  31.137   2.950
 9722W        W74542  44.273  28.139   1.696
 9723W        W74543  40.480   9.231  10.624
 9724W        W74544  43.024  35.517  14.728
 9725W        W74545  13.672   5.753   0.498
 9726W        W74546   9.348  18.425   2.780
 9727W        W74547  11.070  11.026  13.884
 9728W        W74548  40.553  33.596  10.944
 9729W        W74549   8.251   6.923  14.418
 9730W        W74550  23.451  35.144  12.429
 9731W        W74551  21.283  10.644   1.837
 9732W        W74552  26.513  28.827  13.263
 9733W        W74553  24.462  37.382  10.908
 9734W        W74554   2.075   3.778   4.025
 9735W        W74555  24.424   7.407  13.791
 9736W        W74556  29.474  12.764   1.339
 9737W        W74557  38.834  25.195  11.949
 9738W        W74558  29.520  11.583  10.302
 9739W        W74559  39.357  34.056  12.334
 9740W        W74560  41.880  23.659  11.146
 9741W        W74561  15.118  15.546  13.393
 9742W        W74562  34.629  11.886  14.754
 9743W        W74563  36.137  40.298  13.536
 9744W        W74564  35.147  34.764   0.886
 9745W        W74565  17.071  38.886  11.596
 9746W        W74566  42.794   9.077  10.642
 9747W        W74567   6.368  35.224   3.838
 9748W        W74568  23.347  35.944  12.889
 9749W        W74569   4.207  33.591  13.082
 9750W        W74570   1.945  13.274  12.979
 9751W        W74571  10.603  31.177  11.209
 9752W        W74572  20.737  28.844  14.426
 9753W        W74573  43.821  41.850  11.098
 9754W        W74574  15.809  37.590  12.928
 9755W        W74575  16.590   4.433  14.808
 9756W        W74576   9.383  12.903   4.193
 9757W        W74577  34.185  32.495  14.542
 9758W        W74578   4.219  37.865   2.061
 9759W        W74579  28.947  28.207  13.399
 9760W        W74580  22.449  30.205  13.406
 9761W        W74581  42.601   5.567   1.325
 9762W        W74582  19.324  21.505  11.102
 9763W        W74583   7.484  12.881   4.583
 9764W        W74584   0.774  26.117   4.572
 9765W        W74585  25.642  20.289  12.950
 9766W        W74586   6.310   2.704  10.799
 9767W        W74587  36.893   3.335   0.270
 9768W        W74588   3.111  29.630   0.158
 9769W        W74589  42.902  13.698  10.706
 9770W        W74590  23.507   5.727   1.226
 9771W        W74591  30.501  38.846   2.691
 9772W        W74592  32.580  15.876  14.946
 9773W        W74593  22.574  31.285   2.852
 9774W        W74594   3.036  27.519  12.929
 9775W        W74595  30.494  10.723   3.288
 9776W        W74596  25.095  26.455  14.331
 9777W        W74597  25.564  26.940  14.952
 9778W        W74598  41.892  39.440  10.959
 9779W        W74599  39.169  36.902  10.683
 9780W        W74600  27.982  15.946   4.274
 9781W        W74601  12.164  10.311  13.542
 9782W        W74602  38.909  21.483  13.461
 9783W        W74603  18.045  23.671  14.248
 9784W        W74604  20.470  42.795   3.738
 9785W        W74605  40.972  32.025  11.603
 9786W        W74606  27.169  39.565   3.351
 9787W        W74607   9.809  10.236  12.841
 9788W        W74608  11.384  44.346  11.213
 9789W        W74609  20.110  34.348   4.538
 9790W        W74610  23.317   3.196  14.850
 9791W        W74611  35.785  21.296   3.347
 9792W        W74612  17.508  26.214  11.177
 9793W        W74613  30.448  15.294  12.265
 9794W        W74614  21.404   7.814  10.435
 9795W        W74615  39.216  36.794   0.985
 9796W        W74616  20.360  28.783  10.136
 9797W        W74617  30.325  22.195  12.028
 9798W        W74618  36.331   6.590   9.810
 9799W        W74619  29.867  34.843  14.029
 9800W        W74620  35.502   8.924   4.086
 9801W        W74621  37.410  25.151   2.899
 9802W        W74622  11.827  26.978  12.315
 9803W        W74623  17.107  29.966  13.560
 9804W        W74624  40.456   6.804  10.756
 9805W        W74625  23.223   0.948   4.574
 9806W        W74626  11.122   8.874  12.423
 9807W        W74627   6.536  29.678   0.839
 9808W        W74628  10.411  21.677   3.261
 9809W        W74629  29.322  31.903  11.586
 9810W        W74630  21.774  11.521  11.343
 9811W        W74631  10.923  15.582   1.941
 9812W        W74632  24.013  36.742   4.568
 9813W        W74633  17.999   5.430   3.729
 9814W        W74634  21.197  40.331  12.988
 9815W        W74635  16.538   1.808   1.811
 9816W        W74636  30.576   2.187  13.679
 9817W        W74637  18.004  41.873  14.821
 9818W        W74638  17.774  32.597  14.988
 9819W        W74639  11.309  43.097   1.394
 9820W        W74640   7.246   2.785  11.671
 9821W        W74641  32.584  39.898  14.368
 9822W        W74642  12.795   0.424  12.894
 9823W        W74643  44.667  23.306   0.641
 9824W        W74644  38.303   4.278   1.813
 9825W        W74645  44.009  30.674   3.679
 9826W        W74646  43.753  28.448  12.435
 9827W        W74647   5.190  11.363   1.240
 9828W        W74648  39.660  31.067  14.365
 9829W        W74649  18.094   2.171   3.203
 9830W        W74650  33.577  31.183  10.654
 9831W        W74651  44.901  19.930  12.110
 9832W        W74652  24.227  43.757   0.856
 9833W        W74653  22.328  19.604   3.253
 9834W        W74654   1.876  26.227   4.616
 9835W        W74655  43.973  34.874   3.952
 9836W        W74656  33.664  26.173   4.530
 9837W        W74657  32.496  39.958   0.334
 9838W        W74658  34.981  15.358  12.769
 9839W        W74659  25.958  13.715   1.233
 9840W        W74660  11.213  36.601  11.465
 9841W        W74661  34.609  21.277   1.371
 9842W        W74662  22.077  33.089  11.567
 9843W        W74663  12.088  37.070  14.459
 9844W        W74664   2.397  12.719  14.040
 9845W        W74665  12.806  29.966  12.024
 9846W        W74666  34.425  23.142  14.304
 9847W        W74667  34.562  26.170   1.719
 9848W        W74668  36.759  19.731   2.784
 9849W        W74669   6.589  37.630   2.966
 9850W        W74670  41.444  27.534  14.562
 9851W        W74671  20.805   4.818  14.388
 9852W        W74672  34.423   4.372   1.722
 9853W        W74673   1.276  35.456   4.693
 9854W        W74674  33.903  26.596   4.300
 9855W        W74675  30.061  26.175   4.334
 9856W        W74676   5.482  31.867   0.951
 9857W        W74677   6.784  41.256   3.296
 9858W        W74678  31.427  25.976   0.318
 9859W        W74679  29.273  24.611  11.064
 9860W        W74680  32.518  30.126   3.334
 9861W        W74681  42.369  16.327  12.954
 9862W        W74682   4.615  20.798  12.022
 9863W        W74683  20.619   8.136   2.767
 9864W        W74684  36.052  42.456   1.016
 9865W        W74685   0.805  30.919   4.285
 9866W        W74686  13.159  44.975  11.163
 9867W        W74687   0.242  10.381   0.184
 9868W        W74688  12.190  14.368   1.858
 9869W        W74689  31.377   1.752  13.930
 9870W        W74690   6.226  37.956   3.174
 9871W        W74691  39.809  32.070   2.875
 9872W        W74692  38.119  43.308   4.611
 9873W        W74693  30.996   6.672  12.509
 9874W        W74694   1.282   0.757  14.324
 9875W        W74695  24.217  36.537  14.494
 9876W        W74696  19.323  24.658  14.768
 9877W        W74697   8.794  16.554   0.937
 9878W        W74698  11.766  22.142   1.309
 9879W        W74699  43.788  12.665  11.771
 9880W        W74700  42.561  31.209  12.048
 9881W        W74701  11.156  20.041   0.014
 9882W        W74702  38.248  34.462   0.385
 9883W        W74703  18.931  26.405  14.632
 9884W        W74704  29.530   0.271   2.558
 9885W        W74705  35.122   4.244   2.300
 9886W        W74706  37.914   3.817  12.423
 9887W        W74707   9.444  19.197  11.271
 9888W        W74708  17.473   4.936   4.794
 9889W        W74709  12.919   7.262  11.932
 9890W        W74710  34.457  12.607   0.433
 9891W        W74711   0.663  25.682   2.452
 9892W        W74712  39.612  18.852   3.754
 9893W        W74713  20.177  16.784  11.128
 9894W        W74714  41.785  24.249   2.672
 9895W        W74715  10.725  30.950   1.361
 9896W        W74716  18.104  26.529  14.904
 9897W        W74717  31.224   4.994   3.761
 9898W        W74718   6.173  14.310  11.571
 9899W        W74719   2.913  20.137  11.030
 9900W        W74720  13.200  11.387   0.033
 9901W        W74721  32.407   5.661  10.779
 9902W        W74722  22.298  29.921  11.980
 9903W        W74723  40.400  32.180   9.875
 9904W        W74724  26.024  17.188  12.079
 9905W        W74725  10.550  13.715  10.318
 9906W        W74726  41.373  43.181   1.087
 9907W        W74727   3.354  16.333   2.190
 9908W        W74728  10.792  13.221   3.649
 9909W        W74729  19.658  13.540   2.323
 9910W        W74730  29.106  37.873   3.008
 9911W        W74731  36.861  34.519   0.263
 9912W        W74732  21.028   3.855  13.018
 9913W        W74733  37.954   0.189   4.109
 9914W        W74734  23.290  24.559   3.066
 9915W        W74735   6.928  29.653  13.769
 9916W        W74736  32.436  14.691  11.068
 9917W        W74737  13.360  13.914   2.408
 9918W        W74738   7.851  39.496   3.262
 9919W        W74739  15.135   9.690   0.259
 9920W        W74740  32.035   1.790  13.430
 9921W        W74741  15.046  23.207   0.440
 9922W        W74742  41.852  28.481  12.021
 9923W        W74743  35.069  39.920  11.009
 9924W        W74744  42.967   0.652  11.522
 9925W        W74745  29.236   5.209  10.927
 9926W        W74746  37.658  21.600   0.348
 9927W        W74747  41.994  22.955  12.959
 9928W        W74748   8.367  15.566   1.783
 9929W        W74749  32.196  44.778  11.964
 9930W        W74750   7.671  27.951  13.260
 9931W        W74751   3.409  22.293  11.990
 9932W        W74752  22.739  37.370  14.925
 9933W        W74753  32.946  21.431   3.122
 9934W        W74754   0.427  15.606  10.632
 9935W        W74755  43.935  25.353   1.688
 9936W        W74756   3.666  22.806  14.096
 9937W        W74757  22.544  24.537   0.982
 9938W        W74758  22.497   1.151  14.423
 9939W        W74759  18.744  17.068   2.170
 9940W        W74760   6.269  41.490  12.119
 9941W        W74761  27.597  32.620   2.661
 9942W        W74762  29.638  38.319  11.387
 9943W        W74763  24.784   9.247   1.306
 9944W        W74764  10.366  33.058  11.590
 9945W        W74765   7.790  29.031  11.104
 9946W        W74766  21.815  13.936   1.765
 9947W        W74767   0.899  33.594   3.598
 9948W        W74768  12.420  30.503   0.864
 9949W        W74769  11.149  11.546  13.816
 9950W        W74770  35.169  10.285  14.049
 9951W        W74771   3.247   9.957  13.473
 9952W        W74772  18.579  26.646  10.794
 9953W        W74773  20.346   5.970   0.839
 9954W        W74774  18.634  12.236  12.788
 9955W        W74775  14.394  34.396  14.012
 9956W        W74776  11.970  28.771   0.958
 9957W        W74777  28.018  27.074   3.636
 9958W        W74778  15.736  40.640   4.966
 9959W        W74779  27.576  32.613   1.694
 9960W        W74780  28.042  30.850  11.972
 9961W        W74781   2.443  41.520   4.642
 9962W        W74782   0.842  36.588  13.417
 9963W        W74783  38.676  22.419   3.987
 9964W        W74784  22.077  32.482   2.963
 9965W        W74785  23.716  34.159  10.726
 9966W        W74786   6.774  21.856   4.793
 9967W        W74787  16.755  32.827  12.412
 9968W        W74788  25.247   9.360   1.498
 9969W        W74789  27.164  26.945  11.548
 9970W        W74790  43.923  34.522   2.272
 9971W        W74791   2.250  22.756  10.392
 9972W        W74792  24.614   4.483   2.303
 9973W        W74793  28.047  32.403  13.867
 9974W        W74794  26.579  34.922   0.502
 9975W        W74795  25.593  40.835  12.342
 9976W        W74796  42.580  20.688  12.186
 9977W        W74797  41.770   7.547   1.293
 9978W        W74798  10.917   1.187   2.677
 9979W        W74799  37.093  34.915   1.308
 9980W        W74800   7.760  12.823   2.688
 9981W        W74801  42.768  37.519  13.869
 9982W        W74802  35.403  24.248  11.171
 9983W        W74803  22.960   1.296   0.227
 9984W        W74804  12.155   5.168  14.011
 9985W        W74805  39.793  25.007   2.932
 9986W        W74806  10.660  22.203  14.560
 9987W        W74807  22.995  10.224  13.989
 9988W        W74808   1.402  14.106   1.436
 9989W        W74809   3.726  44.415   3.994
 9990W        W74810  21.026  21.717   5.074
 9991W        W74811  21.720  22.727  12.605
 9992W        W74812  34.301  33.771   1.852
 9993W        W74813  41.758  35.550   2.016
 9994W        W74814  29.116  20.044   0.389
 9995W        W74815  14.251  42.726   1.836
 9996W        W74816  18.523   5.187   4.058
 9997W        W74817  18.970  25.365   9.977
 9998W        W74818  19.756  20.614  13.907
 9999W        W74819  19.545  37.442   0.913
10000W        W74820   2.811  35.864   4.086
10001W        W74821  32.897  18.661   1.742
10002W        W74822   9.782   8.112  13.587
10003W        W74823  38.962   1.238  11.537
10004W        W74824  15.180  23.943   2.952
10005W        W74825  17.044  37.576   1.815
10006W        W74826  31.616  12.627  12.494
10007W        W74827  40.848  41.095  14.405
10008W        W74828  42.149   5.659  11.609
10009W        W74829  13.304  22.903  11.600
10010W        W74830  41.844   3.382   2.870
10011W        W74831  18.999   7.200  13.574
10012W        W74832  29.175  19.533   1.288
10013W        W74833  32.110  41.083  13.169
10014W        W74834  16.787  27.575  10.685
10015W        W74835   3.939  26.555   1.998
10016W        W74836  30.064  20.961   4.323
10017W        W74837  37.514  28.192   1.797
10018W        W74838  27.118   4.362   4.156
10019W        W74839   8.672  32.443  13.952
10020W        W74840  18.456   5.009   4.536
10021W        W74841  27.938   2.782   2.071
10022W        W74842   7.138   3.457   4.062
10023W        W74843  29.659  39.300   4.322
10024W        W74844  29.401   4.399  11.473
10025W        W74845   9.732  30.378   2.243
10026W        W74846   0.904  18.322  12.079
10027W        W74847  10.629  14.842  14.081
10028W        W74848  37.245  31.225   2.442
10029W        W74849   7.966  37.507  13.155
10030W        W74850  28.463  39.693  11.457
10031W        W74851   5.304  19.022  13.750
10032W        W74852  27.213   7.875  14.011
10033W        W74853   4.763  35.141  11.831
10034W        W74854   6.052  29.006   3.563
10035W        W74855  35.349  25.104   2.841
10036W        W74856   1.493   4.981  11.267
10037W        W74857  44.583  30.201  11.493
10038W        W74858  18.810  37.360   0.218
10039W        W74859  34.267  36.598  11.604
10040W        W74860  24.223  34.087   4.929
10041W        W74861  44.958  11.186   1.578
10042W        W74862  41.756  41.345   0.419
10043W        W74863  16.216  43.791   3.338
10044W        W74864  44.850  27.916   1.755
10045W        W74865  37.380  33.177   1.860
10046W        W74866   7.816   3.623   4.759
10047W        W74867  23.165   6.999   2.667
10048W        W74868   3.196   4.157   3.447
10049W        W74869  21.526  22.822   4.726
10050W        W74870  39.164   5.882   3.259
10051W        W74871  21.548  38.944  13.819
10052W        W74872  44.789   6.883  13.049
10053W        W74873  22.153   3.478  11.468
10054W        W74874  14.870  38.327   0.881
10055W        W74875  23.148  39.539   4.249
10056W        W74876   4.847  40.158   3.296
10057W        W74877  20.544  28.168  10.406
10058W        W74878  29.876  35.761   0.299
10059W        W74879  15.630   8.647  10.503
10060W        W74880  14.518   0.215  13.503
10061W        W74881  20.965   3.337  14.277
10062W        W74882   9.208   4.938  12.177
10063W        W74883  29.900   6.163  12.973
10064W        W74884   5.285  27.704  12.879
10065W        W74885  37.576  35.429  12.477
10066W        W74886  24.504  44.491   4.123
10067W        W74887  37.048   4.659  13.988
10068W        W74888  19.495  14.081   0.227
10069W        W74889  43.914  13.576  11.268
10070W        W74890  38.855  36.440  13.202
10071W        W74891   6.400  41.399   1.212
10072W        W74892  22.147  28.985  10.938
10073W        W74893  27.067  41.429  14.408
10074W        W74894  32.967  24.939  10.618
10075W        W74895  22.734  42.909  12.703
10076W        W74896  11.769  34.145  14.535
10077W        W74897  28.463   4.643  14.812
10078W        W74898   1.952  33.545   2.228
10079W        W74899  10.958   4.470   0.316
10080W        W74900  19.265  29.490  10.637
10081W        W74901   5.557  15.762   0.772
10082W        W74902   7.908   0.801   5.345
10083W        W74903   6.170  44.456   1.915
10084W        W74904  44.322  21.545   2.851
10085W        W74905  13.052  24.553   0.776
10086W        W74906  27.002  17.047   1.427
10087W        W74907  41.334  20.449   1.808
10088W        W74908  25.731   1.255   3.706
10089W        W74909  16.065   2.957   2.816
10090W        W74910  38.353  18.544  14.395
10091W        W74911  25.920  23.434   4.526
10092W        W74912  35.571   6.412   1.836
10093W        W74913  37.549  19.748   3.945
10094W        W74914   3.700  41.720  12.558
10095W        W74915   1.493   2.712  13.353
10096W        W74916  12.649  36.539   3.234
10097W        W74917  30.547  19.624  10.459
10098W        W74918  40.971   8.167  13.393
10099W        W74919   9.040  38.049   3.696
10100W        W74920  27.925  27.704   1.915
10101W        W74921  23.239   7.921   1.239
10102W        W74922  38.908   3.832   2.235
10103W        W74923  42.349  18.817   4.211
10104W        W74924  29.891  30.106   4.902
10105W        W74925   8.360  29.505  12.022
10106W        W74926  27.673  32.893  11.561
10107W        W74927  42.296  19.877  12.798
10108W        W74928  14.011  23.539  11.668
10109W        W74929  24.641  18.594   5.620
10110W        W74930  24.439  39.250  14.853
10111W        W74931  14.369   7.144  10.609
10112W        W74932  12.404  13.850   3.292
10113W        W74933   0.715  12.578   0.744
10114W        W74934  40.550  16.075  11.783
10115W        W74935  33.418   6.001   4.114
10116W        W74936  29.600  12.686  11.548
10117W        W74937  17.659   3.842   0.264
10118W        W74938  14.196   3.034   4.105
10119W        W74939   3.694   5.387   4.594
10120W        W74940   7.435  29.138  10.693
10121W        W74941  41.283  31.117  13.380
10122W        W74942  27.493  20.657   1.798
10123W        W74943  42.460  19.312   4.127
10124W        W74944  22.113  35.158   2.495
10125W        W74945  29.094  16.302   3.658
10126W        W74946  11.320   6.551  12.987
10127W        W74947  22.357   3.293   2.354
10128W        W74948  40.227  19.687   0.345
10129W        W74949  27.171  43.836   0.951
10130W        W74950  35.950  38.118  11.569
10131W        W74951  22.300  22.785   4.041
10132W        W74952   5.833  34.346   2.772
10133W        W74953  42.455  38.751   1.408
10134W        W74954  35.923  19.004   0.323
10135W        W74955  35.411  30.251  11.975
10136W        W74956  39.082  28.428   0.027
10137W        W74957  22.638  43.070  14.803
10138W        W74958  37.337  25.757  12.066
10139W        W74959   2.861  14.049  14.878
10140W        W74960  38.291  12.182   5.371
10141W        W74961   4.390  41.284   1.884
10142W        W74962  30.896  29.910  11.018
10143W        W74963  34.549   3.362   1.800
10144W        W74964  16.705  13.133   3.939
10145W        W74965  38.029  29.092  12.478
10146W        W74966  29.482  14.108   2.427
10147W        W74967  26.056  39.926   2.098
10148W        W74968   4.422   1.020   1.259
10149W        W74969  15.809  36.993  14.539
10150W        W74970  38.967  32.214   1.883
10151W        W74971  29.084  22.110   4.395
10152W        W74972  40.930  39.503   4.707
10153W        W74973  33.105  13.847  10.941
10154W        W74974  42.816   1.669  14.879
10155W        W74975   7.641  40.905  14.821
10156W        W74976  37.810  32.338  13.906
10157W        W74977  16.622  10.798   3.608
10158W        W74978  44.769   6.437   2.208
10159W        W74979  21.076  33.422   4.662
10160W        W74980  20.663  28.415  14.102
10161W        W74981  41.788  19.479   3.435
10162W        W74982  41.326  43.460   3.766
10163W        W74983  24.450  32.356  11.215
10164W        W74984  29.551   2.245   2.850
10165W        W74985  16.169  15.968  10.219
10166W        W74986  24.728  19.936  12.782
10167W        W74987   4.364  42.891   1.167
10168W        W74988  10.477  42.430   3.037
10169W        W74989  13.356  17.742  11.590
10170W        W74990   3.423  29.346   3.207
10171W        W74991  20.510  17.567  13.947
10172W        W74992  26.985   2.811  13.808
10173W        W74993  25.206  37.512   1.886
10174W        W74994  40.888  37.100   1.754
10175W        W74995  14.774  30.674  13.015
10176W        W74996  15.660  39.761  14.571
10177W        W74997  44.615   8.425   4.149
10178W        W74998  23.243  37.326  13.327
10179W        W74999  29.174  40.239   4.826
10180W        W75000  39.583  33.684   4.427
10181W        W75001  40.871  41.377   3.897
10182W        W75002  21.233  43.248  10.672
10183W        W75003  42.884  13.764   0.397
10184W        W75004  27.720   2.319   0.434
10185W        W75005  17.127  14.198  14.172
10186W        W75006   6.389   7.576  11.180
10187W        W75007  21.512  19.744   3.667
10188W        W75008  30.689  28.091  13.352
10189W        W75009  17.194  24.350   1.702
10190W        W75010  40.524  13.783   2.612
10191W        W75011  31.594  40.765  13.818
10192W        W75012  19.305  13.277   1.764
10193W        W75013  11.394   6.391   1.529
10194W        W75014  11.149  10.705   3.235
10195W        W75015   1.906  19.258  12.883
10196W        W75016  23.259   4.430  13.211
10197W        W75017   7.000  40.973  13.009
10198W        W75018   6.932  14.812   4.548
10199W        W75019   1.034  29.577  11.153
10200W        W75020  35.413   2.811   3.326
10201W        W75021  42.902   1.525   3.678
10202W        W75022  42.900  25.971   2.705
10203W        W75023  13.058  11.360   1.907
10204W        W75024  41.822  24.883   2.047
10205W        W75025  34.659  26.125  11.979
10206W        W75026  15.627  25.518   3.655
10207W        W75027  23.636   2.322   3.656
10208W        W75028  14.831  41.721   3.772
10209W        W75029  29.602   9.175  12.005
10210W        W75030  39.080  41.884  13.802
10211W        W75031  21.679  12.148   1.889
10212W        W75032  43.385  33.641   3.298
10213W        W75033   9.348  22.507   1.322
10214W        W75034   3.754  31.762   0.341
10215W        W75035  41.543  37.510   4.650
10216W        W75036   0.449   4.159   3.166
10217W        W75037   3.474  28.802   3.337
10218W        W75038  15.678  25.112   4.355
10219W        W75039   3.249  42.547  10.820
10220W        W75040  40.053   8.265   9.937
10221W        W75041  37.474  19.066  12.007
10222W        W75042   2.799   4.939   3.017
10223W        W75043   1.450  31.718   3.422
10224W        W75044  28.164  41.302  10.681
10225W        W75045   6.387  34.474  11.168
10226W        W75046  22.039  19.737   3.658
10227W        W75047  29.046   4.132  11.215
10228W        W75048  33.171  37.988   3.305
10229W        W75049  42.685  44.793  13.456
10230W        W75050   2.334   3.692   2.351
10231W        W75051  20.463  19.246   3.161
10232W        W75052   5.755  15.774  14.302
10233W        W75053   1.926  14.148   3.482
10234W        W75054  21.605  36.098  11.313
10235W        W75055  27.472  18.874  10.758
10236W        W75056  37.003  44.326   4.382
10237W        W75057  27.794  14.360   3.826
10238W        W75058  14.247  20.569  14.362
10239W        W75059   6.730  43.715  12.391
10240W        W75060  14.799   4.882   2.247
10241W        W75061  20.745   3.628   2.657
10242W        W75062  28.154  27.221  14.157
10243W        W75063  25.498  34.672  14.320
10244W        W75064  35.581  33.487  12.116
10245W        W75065   1.735  25.695  14.051
10246W        W75066   5.445   5.886  11.562
10247W        W75067  11.002   4.858  14.959
10248W        W75068  28.081  23.712   0.019
10249W        W75069  40.345  18.685   2.082
10250W        W75070  33.547   4.137  12.335
10251W        W75071  23.621  11.584  11.541
10252W        W75072   8.119   2.963  11.278
10253W        W75073   9.903  13.827   1.290
10254W        W75074   0.067  18.607  14.011
10255W        W75075   0.754  14.371   0.224
10256W        W75076  31.708  35.827   1.363
10257W        W75077   0.089  33.964   1.300
10258W        W75078  11.768  38.123   1.155
10259W        W75079   6.702  23.254  12.893
10260W        W75080  14.846   1.845   1.362
10261W        W75081  17.100   1.268  11.200
10262W        W75082  25.639  20.760  12.605
10263W        W75083  31.705  38.226  14.911
10264W        W75084  43.953  44.042  12.192
10265W        W75085   2.370   2.098  13.994
10266W        W75086  18.840   7.562  14.488
10267W        W75087  26.154  14.652   0.844
10268W        W75088  13.870   9.316   3.803
10269W        W75089  39.264  22.665   0.969
10270W        W75090  31.047  14.055   4.570
10271W        W75091   2.461  44.878  14.009
10272W        W75092  38.251  31.388  14.918
10273W        W75093  32.305   5.934  13.002
10274W        W75094  23.816  21.540   2.553
10275W        W75095  43.858  14.514  11.551
10276W        W75096   8.029  30.921  12.102
10277W        W75097  10.334  24.666  11.100
10278W        W75098  36.309   8.370  13.893
10279W        W75099   0.933  15.786  13.153
10280W        W75100   6.222  41.010  11.927
10281W        W75101  41.267  39.070   0.945
10282W        W75102  42.767  30.560  12.964
10283W        W75103  38.767  14.692   3.329
10284W        W75104  16.615  42.962  13.012
10285W        W75105  28.857  10.021   1.150
10286W        W75106   7.964  26.742   3.861
10287W        W75107  28.705  43.501  11.147
10288W        W75108  34.952  34.086  13.033
10289W        W75109  20.679  13.014  13.348
10290W        W75110  39.306  15.720   3.328
10291W        W75111  15.760   9.211   0.312
10292W        W75112  33.776  28.142  10.864
10293W        W75113  31.584   0.939   2.370
10294W        W75114  33.010  27.897   4.554
10295W        W75115  42.774  38.104  11.148
10296W        W75116  38.391  33.840  12.272
10297W        W75117   9.665  15.053   3.671
10298W        W75118  33.122  20.011  11.460
10299W        W75119  20.155  22.737  12.781
10300W        W75120  30.001  15.388  12.515
10301W        W75121  42.499   2.008  12.434
10302W        W75122  37.417  33.017   1.331
10303W        W75123  33.386  17.046  12.062
10304W        W75124  22.041  23.019  12.339
10305W        W75125  41.156  17.121  12.437
10306W        W75126  15.194  18.628   4.517
10307W        W75127   6.973   7.106   2.273
10308W        W75128  31.159  21.963   1.910
10309W        W75129  30.559  37.377   2.636
10310W        W75130  34.799  36.950  11.936
10311W        W75131   4.698  22.619  13.945
10312W        W75132  12.192   4.624  11.934
10313W        W75133  28.099   5.377   3.907
10314W        W75134   6.826  32.664   3.741
10315W        W75135   7.410  40.333   1.324
10316W        W75136  31.351   7.950   0.409
10317W        W75137  30.462  12.570   2.176
10318W        W75138  24.257  28.413  12.852
10319W        W75139  31.399  18.292   0.731
10320W        W75140  14.042  33.578   4.465
10321W        W75141  38.005  31.221  12.462
10322W        W75142  44.697  22.534  14.042
10323W        W75143  12.176  29.829  14.808
10324W        W75144  11.570  28.405   4.078
10325W        W75145  11.179  15.721   1.225
10326W        W75146  18.953   3.072  12.828
10327W        W75147  33.976  27.156   5.483
10328W        W75148  11.490  22.446  14.939
10329W        W75149  22.010  25.677   2.186
10330W        W75150   1.377  17.895   2.708
10331W        W75151  11.207  12.061   0.448
10332W        W75152   3.887  40.333  12.741
10333W        W75153  24.940  41.983   5.007
10334W        W75154  44.014  24.998   1.318
10335W        W75155   8.417  37.809  14.806
10336W        W75156   9.881  24.063  14.130
10337W        W75157   6.400  25.140   2.325
10338W        W75158  14.284  37.637   1.832
10339W        W75159   8.196   6.792  11.973
10340W        W75160  33.283  30.611   1.663
10341W        W75161  13.290  30.820   5.363
10342W        W75162  40.633  23.445   3.203
10343W        W75163  41.417  16.806   1.401
10344W        W75164   5.813  13.610   3.264
10345W        W75165  28.257  37.764   4.634
10346W        W75166  15.598  25.949  13.390
10347W        W75167  41.563  24.312  12.655
10348W        W75168  19.910  44.424   5.072
10349W        W75169  22.024  17.619  13.084
10350W        W75170   6.283  40.491   0.293
10351W        W75171  21.540  38.010   1.464
10352W        W75172  42.445  26.131   3.127
10353W        W75173  17.689  35.998   0.191
10354W        W75174  15.649  11.941   2.735
10355W        W75175  22.575   7.365   0.941
10356W        W75176  22.452  29.244   4.173
10357W        W75177  26.667  30.359  11.349
10358W        W75178  16.795   9.228  11.551
10359W        W75179  36.969  44.463   0.699
10360W        W75180  26.757  19.653   2.234
10361W        W75181   6.714  25.431  11.728
10362W        W75182  14.817  16.880   2.049
10363W        W75183  36.350  12.196  11.577
10364W        W75184  33.878  43.388  13.217
10365W        W75185  39.718  30.817   4.418
10366W        W75186  16.201  18.772  12.581
10367W        W75187  34.898  33.103   1.425
10368W        W75188  44.126  43.091  13.876
10369W        W75189  30.425  10.189  13.089
10370W        W75190  38.233  22.759  14.043
10371W        W75191  18.270  35.883  13.974
10372W        W75192  10.752   2.369   2.162
10373W        W75193  19.464   2.868   2.326
10374W        W75194  41.863  39.427   2.810
10375W        W75195  14.259  18.148  12.474
10376W        W75196   6.230  38.195   0.726
10377W        W75197  44.387  43.047  13.412
10378W        W75198  22.801   0.593  10.233
10379W        W75199  11.794  36.477   4.390
10380W        W75200  38.441  31.407   2.522
10381W        W75201   8.932  12.280  11.209
10382W        W75202  32.831  37.959   2.916
10383W        W75203  42.379  24.989  12.553
10384W        W75204  42.905  27.092   4.721
10385W        W75205  32.762  36.062   3.718
10386W        W75206   3.737  40.174   0.961
10387W        W75207  13.317  14.709  11.979
10388W        W75208  16.573   2.656   0.294
10389W        W75209  38.426  41.567   0.697
10390W        W75210  21.991   6.660   1.335
10391W        W75211   1.546  17.363   4.599
10392W        W75212  33.458  21.747  11.520
10393W        W75213  32.492   9.846  13.928
10394W        W75214  18.077  18.147   2.800
10395W        W75215  32.398   0.236   0.450
10396W        W75216  26.079  15.686   4.231
10397W        W75217  15.606  29.445  10.627
10398W        W75218  37.515  30.824   2.763
10399W        W75219  29.038  33.878   1.720
10400W        W75220   5.235  13.541   0.063
10401W        W75221  11.209   2.315   0.338
10402W        W75222  29.435   8.891  12.407
10403W        W75223  13.274  31.130   2.848
10404W        W75224  23.311   8.649  12.892
10405W        W75225  17.510   9.446   3.709
10406W        W75226  38.079  39.444   4.973
10407W        W75227  23.709  23.445   3.748
10408W        W75228  12.007  15.745   3.403
10409W        W75229  27.504  10.872   1.398
10410W        W75230  13.219   7.760   2.302
10411W        W75231  13.319   1.856   0.365
10412W        W75232  24.033  35.335   0.388
10413W        W75233  12.793  20.824  11.218
10414W        W75234  15.805  19.040  11.557
10415W        W75235  33.082  21.135   1.687
10416W        W75236  44.781  27.994   0.896
10417W        W75237  44.197  25.979   4.555
10418W        W75238  27.026   0.715   4.853
10419W        W75239  16.900   9.671   4.217
10420W        W75240  10.227  19.536  12.531
10421W        W75241  16.304  35.857  12.977
10422W        W75242   3.162  29.234  13.398
10423W        W75243  19.021   4.688   5.262
10424W        W75244   7.645  20.539   0.295
10425W        W75245   3.171  16.635   3.612
10426W        W75246  39.787  26.724  11.472
10427W        W75247  38.141  37.459   1.271
10428W        W75248  11.711  32.913   0.268
10429W        W75249  36.518   4.497   2.200
10430W        W75250  24.508  20.658  14.926
10431W        W75251  28.412  42.655  12.072
10432W        W75252  39.404  43.474   1.925
10433W        W75253  17.305  31.470   1.416
10434W        W75254  12.789   6.730  13.102
10435W        W75255  31.432  11.294   2.135
10436W        W75256  30.763  14.299  12.505
10437W        W75257  42.854  19.125  11.543
10438W        W75258  18.969  15.652  13.445
10439W        W75259  38.920  14.229  14.718
10440W        W75260  37.856  21.193   1.946
10441W        W75261   4.290  18.478   3.679
10442W        W75262   0.477  12.714  14.404
10443W        W75263  36.800   7.810   0.784
10444W        W75264   3.780  14.666   4.900
10445W        W75265  18.971  13.701   1.786
10446W        W75266  13.395  36.153  13.983
10447W        W75267   2.172  13.067  13.396
10448W        W75268  24.352  43.810   4.336
10449W        W75269  38.579  10.794  12.516
10450W        W75270  44.621  17.769  14.466
10451W        W75271  40.834  33.094  10.832
10452W        W75272   0.358  17.079  14.280
10453W        W75273   1.899   5.272  12.132
10454W        W75274   3.518   9.115  12.497
10455W        W75275  26.806  13.352  14.660
10456W        W75276   0.246  33.581  13.424
10457W        W75277  25.645  21.250   2.140
10458W        W75278   9.892  11.248  14.553
10459W        W75279  32.651  29.175   4.491
10460W        W75280  35.914  29.464   1.882
10461W        W75281  16.203  29.399  11.867
10462W        W75282  28.729  11.287  12.577
10463W        W75283  18.748  42.029  12.438
10464W        W75284  12.135  34.855  13.537
10465W        W75285   3.536  44.368  14.524
10466W        W75286  32.342  11.109   0.300
10467W        W75287  27.545   7.226  12.919
10468W        W75288  22.721  43.942  14.791
10469W        W75289  17.548  20.762   0.018
10470W        W75290  24.954   3.885   2.908
10471W        W75291  23.956  23.995   3.349
10472W        W75292   5.140  36.496  14.808
10473W        W75293   6.349  16.753  12.477
10474W        W75294  19.994  33.081  11.976
10475W        W75295  40.275  33.402   2.638
10476W        W75296  20.758  43.790  13.036
10477W        W75297  27.229   8.421   4.734
10478W        W75298   5.287  13.261   0.495
10479W        W75299  24.564  14.334   3.190
10480W        W75300  20.928  31.151  13.111
10481W        W75301  38.806   1.735  13.307
10482W        W75302  28.345  38.613  13.518
10483W        W75303  21.476  27.635  14.427
10484W        W75304  21.243  23.613   1.225
10485W        W75305   2.754  30.485  12.441
10486W        W75306  18.623  16.210   1.426
10487W        W75307  38.306   1.525  10.947
10488W        W75308   6.350  25.173  10.551
10489W        W75309  17.663  31.894  10.111
10490W        W75310   6.859  41.936   4.675
10491W        W75311  33.812  43.065   3.611
10492W        W75312  37.895   5.930   2.335
10493W        W75313  16.421  27.059   1.241
10494W        W75314   1.888   8.791   1.904
10495W        W75315  31.188  18.323   3.684
10496W        W75316  30.518  32.174   4.070
10497W        W75317   2.438  35.437   2.712
10498W        W75318  28.512  41.774   2.806
10499W        W75319  12.788  27.696  11.488
10500W        W75320   2.388   9.688  11.576
10501W        W75321  24.174   1.465  11.707
10502W        W75322  35.396  44.774   0.901
10503W        W75323  36.990  28.382   4.389
10504W        W75324  37.579  32.321  13.417
10505W        W75325  18.573  33.970   0.951
10506W        W75326  38.611  14.291  12.004
10507W        W75327  15.203   4.933   3.855
10508W        W75328   9.231   2.310  14.507
10509W        W75329  11.372  19.009  12.145
10510W        W75330   4.425   8.237   0.449
10511W        W75331  11.222   1.977   1.959
10512W        W75332  16.025  21.456   0.447
10513W        W75333   1.270   2.411   4.130
10514W        W75334  14.180  26.987   2.737
10515W        W75335  32.848  37.442  14.048
10516W        W75336  24.521  29.100  12.475
10517W        W75337  20.874  42.956  14.586
10518W        W75338  27.868  21.198  11.845
10519W        W75339  25.182  43.990   2.762
10520W        W75340   7.980  32.954  11.068
10521W        W75341  18.698   5.010   3.194
10522W        W75342  34.098  38.996  11.310
10523W        W75343  24.457  28.206   2.275
10524W        W75344  33.530  23.254  14.494
10525W        W75345  26.876  15.051   4.144
10526W        W75346  44.289  10.157   2.398
10527W        W75347  29.652  33.991  10.694
10528W        W75348  29.978   6.342   2.212
10529W        W75349   7.890  26.246   4.549
10530W        W75350   1.437   8.782   3.638
10531W        W75351  29.504   3.885  14.562
10532W        W75352  12.362  21.255   0.359
10533W        W75353  14.826  41.573   0.337
10534W        W75354  41.127  10.194  14.069
10535W        W75355  21.591   6.944   1.211
10536W        W75356  20.933  17.174  11.002
10537W        W75357  38.460  27.901  13.425
10538W        W75358  26.722  23.032   4.557
10539W        W75359  24.474   6.840  12.025
10540W        W75360   5.436  41.787   0.046
10541W        W75361  22.186  33.929  11.962
10542W        W75362  20.772  30.252  13.834
10543W        W75363  41.393  31.363  12.111
10544W        W75364   5.663  31.088   2.370
10545W        W75365  13.256  17.383   1.644
10546W        W75366  31.873   0.253   0.727
10547W        W75367   9.793   6.334  13.457
10548W        W75368  31.659  16.063  14.710
10549W        W75369   4.662  26.687   0.450
10550W        W75370  30.461   6.584   4.993
10551W        W75371   0.742   2.739  14.725
10552W        W75372   1.792  43.781   1.044
10553W        W75373  15.714  15.736   4.388
10554W        W75374  25.525  39.609   3.227
10555W        W75375  15.138  21.581   0.480
10556W        W75376  25.201   3.633   4.107
10557W        W75377  10.632  32.024  10.739
10558W        W75378  41.452  24.541  13.522
10559W        W75379  39.223  41.306   3.664
10560W        W75380  26.301  36.278   2.293
10561W        W75381  16.922   6.500  14.502
10562W        W75382   7.122  27.666   5.491
10563W        W75383  18.562  30.966  14.979
10564W        W75384   1.636   4.660  14.919
10565W        W75385  33.602  34.346   0.089
10566W        W75386   0.421  33.121   2.583
10567W        W75387  42.748  16.729   3.212
10568W        W75388  17.769   5.494  11.073
10569W        W75389  29.681  42.460   2.912
10570W        W75390  21.912  26.966   3.638
10571W        W75391  14.217  14.527   0.323
10572W        W75392   5.016  22.016   0.963
10573W        W75393  32.231  14.980  12.938
10574W        W75394  32.534   2.714   2.237
10575W        W75395  30.043  16.098  14.340
10576W        W75396  27.714  25.796   2.368
10577W        W75397  10.347  19.348  11.620
10578W        W75398  40.882  14.268  12.150
10579W        W75399   7.924   0.961   2.727
10580W        W75400  10.470  14.537   0.746
10581W        W75401   6.870  16.127  12.920
10582W        W75402   7.343  11.339   0.003
10583W        W75403  14.014  37.389  13.418
10584W        W75404  13.272  33.938  12.070
10585W        W75405  13.796   2.968   2.197
10586W        W75406  23.408  22.452  13.827
10587W        W75407  32.496  17.765   3.551
10588W        W75408  34.381  14.341  12.049
10589W        W75409  28.693   1.915  12.017
10590W        W75410  41.815  29.016  14.879
10591W        W75411  27.968  11.322   3.079
10592W        W75412  37.729  11.316  14.575
10593W        W75413  13.743  42.896  13.301
10594W        W75414  29.187  22.804  10.254
10595W        W75415  38.410  39.033   4.369
10596W        W75416  19.216  34.642   2.794
10597W        W75417  12.687  11.858   2.245
10598W        W75418   4.801  29.783   0.634
10599W        W75419   4.310  12.578   1.399
10600W        W75420  32.696  14.156  11.115
10601W        W75421  25.055  32.678   1.934
10602W        W75422  30.611   6.808  13.523
10603W        W75423  37.097  41.652   2.803
10604W        W75424  17.128  11.191   3.074
10605W        W75425  28.118   7.360  12.641
10606W        W75426  36.174  19.781  11.074
10607W        W75427  10.939  32.527  13.744
10608W        W75428  14.739  36.405  10.441
10609W        W75429  14.121  32.192   1.267
10610W        W75430  22.810  10.783   2.482
10611W        W75431  25.105   1.387   1.936
10612W        W75432  37.135  37.476  10.793
10613W        W75433  41.686  21.678   4.931
10614W        W75434  14.720  26.050  12.525
10615W        W75435  11.820  20.232   2.406
10616W        W75436  40.352  12.643  11.964
10617W        W75437  36.424   7.175  10.304
10618W        W75438  40.289  11.180  11.966
10619W        W75439  26.597   6.261   0.461
10620W        W75440   1.974   1.412  10.945
10621W        W75441  17.754  43.904   1.842
10622W        W75442   1.029  38.495  11.888
10623W        W75443   1.568  16.133   1.812
10624W        W75444   7.011  21.533   0.909
10625W        W75445  10.399  29.036  13.842
10626W        W75446  32.666   2.696  14.874
10627W        W75447  43.357  25.166   2.760
10628W        W75448  38.435   4.783   0.479
10629W        W75449  20.568  32.945   4.163
10630W        W75450   2.384  37.895   0.337
10631W        W75451  22.535  20.174  10.724
10632W        W75452  25.207  26.087   1.400
10633W        W75453  27.605   5.670   4.589
10634W        W75454   7.486   4.362   2.862
10635W        W75455  29.460   8.201   3.615
10636W        W75456  12.438  20.553   1.773
10637W        W75457  12.666  29.271   0.443
10638W        W75458   3.950   8.141   0.737
10639W        W75459  34.145  23.480   3.109
10640W        W75460   6.018  28.057  13.129
10641W        W75461   4.983  41.550   4.578
10642W        W75462  24.466  42.985  11.023
10643W        W75463  37.935  11.805   5.430
10644W        W75464   2.708  43.253  13.041
10645W        W75465  17.709  25.430  14.536
10646W        W75466  44.489   9.411  11.855
10647W        W75467  34.949  13.258   3.640
10648W        W75468  41.142  33.195   4.164
10649W        W75469  16.231  38.725  12.396
10650W        W75470  39.046  35.976   2.227
10651W        W75471  30.970  33.403   4.607
10652W        W75472  23.131  15.348   1.729
10653W        W75473  30.590  40.433   3.770
10654W        W75474  31.685  43.433   0.042
10655W        W75475  34.097  22.103   2.773
10656W        W75476  24.055  34.913  10.970
10657W        W75477  44.504   1.763  11.571
10658W        W75478   9.615  25.088   3.113
10659W        W75479  29.189  25.553  11.997
10660W        W75480   8.446  43.935  13.257
10661W        W75481  16.132   1.034  11.151
10662W        W75482  37.927  37.107  11.603
10663W        W75483  20.512  35.801  10.755
10664W        W75484  44.165  20.978  11.177
10665W        W75485  28.597  42.504   4.915
10666W        W75486  16.880   1.870  12.844
10667W        W75487   9.715  20.264  12.127
10668W        W75488  16.058  24.793   4.579
10669W        W75489   8.652   4.196   3.526
10670W        W75490  35.388   8.706  12.830
10671W        W75491  27.304  28.232   0.402
10672W        W75492  16.442  32.134   3.211
10673W        W75493  41.204   7.157   1.816
10674W        W75494  24.965  33.943   4.150
10675W        W75495  30.515  30.999  13.591
10676W        W75496  31.655  31.818   4.177
10677W        W75497   0.989   1.359   3.637
10678W        W75498   9.961  25.235   0.425
10679W        W75499  30.691   6.164   4.101
10680W        W75500  14.706  24.252   1.505
10681W        W75501  26.862  32.000   4.142
10682W        W75502  37.468   0.049   1.027
10683W        W75503  21.785  43.770  14.429
10684W        W75504   3.241   4.395  14.051
10685W        W75505   6.383  26.383   2.353
10686W        W75506  16.521  19.297  11.032
10687W        W75507  34.129  21.792   0.867
10688W        W75508  14.947  13.452   1.229
10689W        W75509  23.982  31.566  14.112
10690W        W75510   8.044  10.739  13.137
10691W        W75511   0.376  42.702   1.244
10692W        W75512  43.520  43.788  12.096
10693W        W75513  22.769  41.484  12.325
10694W        W75514  35.240   3.372   0.469
10695W        W75515  42.364   3.866   0.372
10696W        W75516   8.811  42.898  13.726
10697W        W75517  10.198  13.706  11.219
10698W        W75518  13.354  35.893   3.152
10699W        W75519  24.711  29.143  11.522
10700W        W75520   8.258  16.873   4.080
10701W        W75521  41.300   9.714  13.995
10702W        W75522   5.201  25.704  14.499
10703W        W75523  33.889  25.600   5.385
10704W        W75524  10.689   4.155   3.642
10705W        W75525   5.056   4.410  14.695
10706W        W75526  44.805  32.938  10.659
10707W        W75527  14.440  37.919   3.668
10708W        W75528  26.929  19.522  14.442
10709W        W75529  33.071  16.505   2.197
10710W        W75530  27.938  26.490  14.375
10711W        W75531   7.870   6.614   2.290
10712W        W75532   9.684  31.770  13.341
10713W        W75533  36.840   6.212   1.248
10714W        W75534  16.171   4.912  10.839
10715W        W75535   2.499  30.438   3.816
10716W        W75536  28.989  39.373   0.229
10717W        W75537  25.273  19.765   1.104
10718W        W75538   2.837  25.048   3.693
10719W        W75539  40.310  33.310   1.223
10720W        W75540  23.497  35.190   0.550
10721W        W75541  21.880   9.686  12.559
10722W        W75542  25.409  25.444  13.838
10723W        W75543  34.393  13.366  10.779
10724W        W75544   7.279  28.191   5.446
10725W        W75545  44.862  35.464  12.162
10726W        W75546  33.377  18.207  14.022
10727W        W75547  38.993   1.654  13.785
10728W        W75548   7.872  10.063  13.839
10729W        W75549  14.669   7.956   1.411
10730W        W75550  12.418  20.134   0.543
10731W        W75551  31.463  22.699   1.913
10732W        W75552  15.254  38.393  11.971
10733W        W75553  19.192  10.088   5.310
10734W        W75554  34.046  37.097   4.415
10735W        W75555   1.197   1.030  12.473
10736W        W75556  17.868  23.180  14.914
10737W        W75557  38.306   0.232   4.547
10738W        W75558  21.206  20.598  14.380
10739W        W75559  25.662  32.647   5.009
10740W        W75560  30.866  42.002  11.542
10741W        W75561  16.996  27.141   4.481
10742W        W75562  35.121  20.549   4.981
10743W        W75563  21.717  43.984  13.948
10744W        W75564  25.661  38.811   5.051
10745W        W75565  16.219   2.726  12.483
10746W        W75566   2.832  11.149  12.230
10747W        W75567  30.911  23.113   1.206
10748W        W75568   1.835   1.979   1.775
10749W        W75569  44.726   8.341   2.239
10750W        W75570  11.925  29.402   3.230
10751W        W75571  42.842  38.950   0.503
10752W        W75572  38.539   5.903   4.725
10753W        W75573  16.464   7.828  14.211
10754W        W75574  16.703   0.843   1.472
10755W        W75575   3.671  43.401  10.942
10756W        W75576   0.199   2.813  14.746
10757W        W75577  20.580   5.147  12.998
10758W        W75578  25.995  37.925  13.025
10759W        W75579  37.136  34.315  13.683
10760W        W75580  38.140  37.829   0.908
10761W        W75581  23.179  12.583   1.874
10762W        W75582  44.878  27.051  13.051
10763W        W75583  38.628  20.850  11.150
10764W        W75584   2.557  40.396  12.092
10765W        W75585  25.591  29.682  10.740
10766W        W75586  17.191  40.254  12.521
10767W        W75587  15.089  35.617   0.082
10768W        W75588   4.484  34.862   3.144
10769W        W75589   8.702  32.256  12.472
10770W        W75590  39.064  29.437   0.763
10771W        W75591  26.731  18.761   2.247
10772W        W75592  10.230  12.674   1.413
10773W        W75593  15.280  29.938  14.471
10774W        W75594  26.259   2.430   2.182
10775W        W75595  15.501  35.582   2.690
10776W        W75596  24.285  30.894  11.130
10777W        W75597  44.173  31.991  11.548
10778W        W75598  41.889  32.149  12.934
10779W        W75599  18.277  15.619   2.836
10780W        W75600   1.054  38.151   1.697
10781W        W75601   8.774  43.254  11.581
10782W        W75602  31.820  26.423  11.981
10783W        W75603  39.499  10.989   1.333
10784W        W75604  24.015  29.901  12.427
10785W        W75605  20.592  27.427   3.796
10786W        W75606  33.043  22.674  14.871
10787W        W75607   0.366  13.878  14.878
10788W        W75608  35.061   6.579   1.845
10789W        W75609  31.766   3.747   2.194
10790W        W75610  21.673  32.169   1.301
10791W        W75611  29.456   4.193   1.762
10792W        W75612  32.443  44.263  13.065
10793W        W75613  24.412  27.206   3.131
10794W        W75614  26.627  27.901  11.063
10795W        W75615  31.377   8.693  11.014
10796W        W75616  24.028  29.063   2.128
10797W        W75617  30.825  28.965   4.119
10798W        W75618  22.690  10.285  10.986
10799W        W75619  30.410  13.324   1.922
10800W        W75620  28.321   7.365  14.938
10801W        W75621  29.656  31.365  11.036
10802W        W75622  39.098  43.510  14.436
10803W        W75623  14.484  11.939  10.425
10804W        W75624  28.264   7.733   4.159
10805W        W75625   0.471   9.982   5.035
10806W        W75626   8.489  18.155  11.593
10807W        W75627  40.675  22.951   0.475
10808W        W75628  27.216  15.615  12.802
10809W        W75629  18.161  24.000   3.360
10810W        W75630  34.336  39.248   3.641
10811W        W75631  39.788  15.271  13.058
10812W        W75632  28.828  29.685   4.883
10813W        W75633  30.561  30.808  12.631
10814W        W75634   6.945  16.642   1.141
10815W        W75635  11.870  22.964  13.904
10816W        W75636  36.312   8.863  14.008
10817W        W75637  30.332  41.356  13.684
10818W        W75638  10.851  12.169   3.499
10819W        W75639  32.421  29.215  12.360
10820W        W75640   2.450  43.871  11.042
10821W        W75641   9.383   8.602   5.055
10822W        W75642   0.200  21.885   3.385
10823W        W75643  19.240  18.938  10.969
10824W        W75644  41.653  11.281  11.846
10825W        W75645  13.238  12.233   3.201
10826W        W75646   3.833  34.770   2.258
10827W        W75647  14.263  23.106   0.774
10828W        W75648  12.165  35.556   3.739
10829W        W75649  42.952  41.407   3.430
10830W        W75650  16.723  32.860   1.860
10831W        W75651  40.437   0.045  10.675
10832W        W75652  13.567   3.504   2.736
10833W        W75653  35.445  28.671   0.268
10834W        W75654  35.189   8.880   2.664
10835W        W75655   5.459  36.315   1.953
10836W        W75656  44.938  13.842  10.739
10837W        W75657  30.645  37.054   3.723
10838W        W75658  33.192   1.478  10.804
10839W        W75659  37.852  42.425   2.724
10840W        W75660  30.159  19.013   2.282
10841W        W75661  37.788  18.866  11.112
10842W        W75662  37.541  28.027   2.311
10843W        W75663   4.733  43.551   1.295
10844W        W75664  31.824  26.312   0.362
10845W        W75665   7.108   9.621   3.914
10846W        W75666   7.714   1.631  11.345
10847W        W75667   5.995  22.594  11.976
10848W        W75668  18.512  30.494  14.290
10849W        W75669  32.698  36.375   3.247
10850W        W75670  44.336  38.412  10.085
10851W        W75671  20.500  40.888   0.053
10852W        W75672  18.090   9.977   1.645
10853W        W75673  43.143  42.273  12.490
10854W        W75674  42.192  11.262   1.403
10855W        W75675  44.878   1.248  14.421
10856W        W75676  26.282   4.883   2.217
10857W        W75677  29.880  26.701   0.206
10858W        W75678  25.643  20.008   2.749
10859W        W75679  26.051  31.606  11.944
10860W        W75680  43.566  12.676  14.406
10861W        W75681  10.747   3.212  12.324
10862W        W75682  17.774   0.900  10.681
10863W        W75683   2.375  24.174  10.485
10864W        W75684  24.323  34.571  14.778
10865W        W75685   4.609  21.107   3.234
10866W        W75686  27.555  16.713   2.496
10867W        W75687   9.984  18.435   2.183
10868W        W75688  11.611  12.074   4.913
10869W        W75689  10.281   9.697  13.325
10870W        W75690  30.089  35.203   4.584
10871W        W75691   1.239  11.218  10.620
10872W        W75692  19.695   8.388   1.262
10873W        W75693   6.154  12.597  14.384
10874W        W75694  26.258  31.267   0.883
10875W        W75695  19.658   7.625   4.120
10876W        W75696   1.081   1.721  11.171
10877W        W75697  44.960  19.638  11.665
10878W        W75698  41.436   2.785  13.579
10879W        W75699  30.772  30.557  13.060
10880W        W75700  40.382  44.289   4.547
10881W        W75701   6.200  19.074  11.507
10882W        W75702  21.981  11.122  11.654
10883W        W75703   0.154  35.606  14.168
10884W        W75704  32.015   8.106   1.997
10885W        W75705  37.883  15.990   1.244
10886W        W75706  10.134   1.916  14.418
10887W        W75707  36.439   5.315  10.695
10888W        W75708  43.472   8.506  11.252
10889W        W75709  38.367  11.330   4.947
10890W        W75710  33.438  43.887   1.236
10891W        W75711  20.958  29.704   2.927
10892W        W75712  34.656  25.588   4.191
10893W        W75713  23.334   9.868  12.058
10894W        W75714  27.746  23.661   4.471
10895W        W75715  33.575  30.207  11.561
10896W        W75716  36.832  34.335   4.356
10897W        W75717  29.898  35.519  12.118
10898W        W75718  28.202  20.469  13.039
10899W        W75719  23.206  14.068   1.240
10900W        W75720  17.440  12.424  10.220
10901W        W75721   1.408  23.393  10.774
10902W        W75722  14.279  43.549  11.644
10903W        W75723   3.825  12.850   0.704
10904W        W75724  12.589  27.431  11.066
10905W        W75725  30.863   7.872   1.323
10906W        W75726  18.692  16.244   3.425
10907W        W75727   6.743  26.228  13.085
10908W        W75728  25.700  41.604   3.158
10909W        W75729  16.788  11.756   3.198
10910W        W75730  30.530   4.434   1.313
10911W        W75731  25.920  13.665  14.895
10912W        W75732  41.963   3.333   1.841
10913W        W75733   2.177  16.490  10.713
10914W        W75734  38.637   5.929   1.212
10915W        W75735  20.585  39.954  14.801
10916W        W75736   4.972  34.106   4.151
10917W        W75737   8.761  36.490   0.766
10918W        W75738  42.395   1.201  12.021
10919W        W75739  32.668  21.951   0.879
10920W        W75740  39.527  28.712   3.345
10921W        W75741  29.419  25.663   2.161
10922W        W75742  22.734  21.137   3.554
10923W        W75743  43.789  14.672  13.537
10924W        W75744   3.952  18.730   4.122
10925W        W75745  43.743  28.187   1.800
10926W        W75746   9.281  23.953   0.332
10927W        W75747  44.291  39.212   2.309
10928W        W75748  26.066  11.193  11.538
10929W        W75749   7.501   5.171  11.841
10930W        W75750  43.025  25.641   0.389
10931W        W75751  24.421  31.537   0.204
10932W        W75752   1.775  32.319   0.788
10933W        W75753  12.733  32.609  12.840
10934W        W75754   7.195  10.570  11.571
10935W        W75755  22.142  23.633   0.091
10936W        W75756  14.324  20.040   0.267
10937W        W75757  29.942  18.838   0.465
10938W        W75758  23.107  29.551   1.649
10939W        W75759  39.281  21.667   4.799
10940W        W75760   2.258   4.415  13.833
10941W        W75761   3.799  26.144   4.110
10942W        W75762  30.495  13.777   1.662
10943W        W75763  44.693  32.909  11.172
10944W        W75764   2.409  41.502   0.797
10945W        W75765  40.507  39.194   4.614
10946W        W75766  20.076  23.721  14.710
10947W        W75767  43.255  35.092  14.999
10948W        W75768   8.131  24.632   0.446
10949W        W75769  41.312  19.651  14.163
10950W        W75770   0.680  28.720   3.179
10951W        W75771  21.002  30.378  12.472
10952W        W75772  25.963  11.594   1.331
10953W        W75773   1.669  39.620   3.726
10954W        W75774  25.582  43.705  11.755
10955W        W75775   8.568  16.363   1.355
10956W        W75776   2.610  37.980   3.385
10957W        W75777   3.309  28.539   0.039
10958W        W75778  10.223  19.634  10.770
10959W        W75779  28.425  39.183  10.543
10960W        W75780  30.362   1.584  11.958
10961W        W75781  19.526   6.246   2.378
10962W        W75782  27.605  21.720  13.164
10963W        W75783  26.869  22.645   0.858
10964W        W75784  17.268   0.228   0.381
10965W        W75785  21.335  27.626   3.304
10966W        W75786  26.454  43.552  13.215
10967W        W75787   9.046  22.990   4.059
10968W        W75788  27.191  20.796   3.062
10969W        W75789  44.270  40.006   3.737
10970W        W75790  13.143  11.952   2.780
10971W        W75791  30.539  13.590   3.100
10972W        W75792   8.804  39.377   2.452
10973W        W75793  16.763   0.656   3.716
10974W        W75794  31.273  33.069   3.274
10975W        W75795  33.940   5.258  14.206
10976W        W75796   8.441  41.887   2.890
10977W        W75797  27.086  42.288  11.193
10978W        W75798  21.026  27.940  14.351
10979W        W75799   5.788  14.226   4.443
10980W        W75800  23.425  31.067   0.877
10981W        W75801   9.890  10.929  13.311
10982W        W75802  13.133   9.522  11.499
10983W        W75803  24.242  34.641  13.327
10984W        W75804   1.031  11.258  14.262
10985W        W75805  12.829  24.757   2.847
10986W        W75806  15.096  10.828   0.940
10987W        W75807  28.043  35.844   2.436
10988W        W75808  30.141  31.836   3.892
10989W        W75809  30.681  14.182   2.440
10990W        W75810  43.664  34.576  14.004
10991W        W75811   4.880  12.764   3.663
10992W        W75812  21.440  15.793   3.249
10993W        W75813  34.532   1.894   3.582
10994W        W75814  28.767  32.933  13.051
10995W        W75815  43.847  44.928   0.802
10996W        W75816   7.194  21.632   4.553
10997W        W75817  12.960  10.190   1.498
10998W        W75818  38.428   6.862   1.739
10999W        W75819  36.379  37.037   0.925
11000W        W75820  39.995  43.373  14.446
11001W        W75821   4.706  41.926  11.496
11002W        W75822  36.454  28.658  11.993
11003W        W75823  10.681  24.826   4.107
11004W        W75824   4.164  31.926   1.069
11005W        W75825  33.748   0.017   0.293
11006W        W75826   6.273  27.564   4.379
11007W        W75827   5.860   0.486  10.725
11008W        W75828  36.517   9.109   3.085
11009W        W75829  18.855  39.368   4.957
11010W        W75830  10.097  44.103   2.327
11011W        W75831  40.168   7.225  14.027
11012W        W75832   6.739  36.009  10.426
11013W        W75833  11.032  14.027  12.579
11014W        W75834  11.581  35.163   1.288
11015W        W75835  27.467  28.638   2.954
11016W        W75836  15.113  15.124  10.602
11017W        W75837  22.671  30.642   0.959
11018W        W75838  42.505  44.440   3.321
11019W        W75839  21.899   9.318   0.322
11020W        W75840  24.534  40.297  11.999
11021W        W75841  12.243   9.359  13.632
11022W        W75842  31.717  17.898   1.650
11023W        W75843  42.226   6.354  12.480
11024W        W75844  34.040  10.166   2.869
11025W        W75845  37.005   1.235  12.798
11026W        W75846  40.319  13.818   3.680
11027W        W75847   1.560  22.528  10.831
11028W        W75848  40.866   1.240   2.390
11029W        W75849  34.234  37.126   2.815
11030W        W75850   4.382   0.360  11.236
11031W        W75851   2.788  41.355  14.871
11032W        W75852  23.600  22.207  12.858
11033W        W75853  34.420   4.729  13.963
11034W        W75854  21.176   5.922   0.317
11035W        W75855  27.397  32.097   1.745
11036W        W75856  39.012  31.535   2.370
11037W        W75857   8.267   0.044   0.401
11038W        W75858  12.215  19.901   4.498
11039W        W75859  27.456  25.599  10.970
11040W        W75860  25.635  17.204  13.760
11041W        W75861  40.377   7.283  11.101
11042W        W75862  38.896  28.582   0.923
11043W        W75863  39.381   0.372   1.931
11044W        W75864  24.079  43.477   4.067
11045W        W75865  14.221  20.275   0.726
11046W        W75866  13.401   3.885   2.332
11047W        W75867  28.635  38.352  12.105
11048W        W75868  18.134  12.954   1.436
11049W        W75869  23.004  11.094  14.870
11050W        W75870  20.483  26.541   4.165
11051W        W75871   5.558  36.831   1.890
11052W        W75872  22.305  32.382   4.220
11053W        W75873  36.344  32.899   3.708
11054W        W75874   3.323  43.883   2.143
11055W        W75875   4.871  17.452  11.137
11056W        W75876   9.305  25.239  13.803
11057W        W75877  25.168  12.582  13.462
11058W        W75878  43.333  31.088   0.429
11059W        W75879  40.978  15.314   3.340
11060W        W75880  43.369  40.288   0.265
11061W        W75881   4.030  16.081   3.794
11062W        W75882  38.551  27.741  11.419
11063W        W75883  24.097  42.511   1.620
11064W        W75884  23.489  10.870   4.529
11065W        W75885   9.745   9.049  13.561
11066W        W75886  16.622  33.350   0.933
11067W        W75887   0.736  28.167   0.339
11068W        W75888   7.783  24.152  13.912
11069W        W75889   0.809   8.761   0.536
11070W        W75890  18.638  17.462  13.019
11071W        W75891  18.064   6.333   2.294
11072W        W75892  43.030   2.898  10.646
11073W        W75893  21.610  17.535  10.759
11074W        W75894  32.497  34.683  11.708
11075W        W75895  18.291  12.748  12.806
11076W        W75896  24.167  14.299   3.903
11077W        W75897  21.328  12.170  11.965
11078W        W75898  10.732   7.826  10.799
11079W        W75899  34.067  16.948   0.349
11080W        W75900  17.153  40.474   2.436
11081W        W75901  32.086  35.787  13.354
11082W        W75902  44.501   2.564  14.542
11083W        W75903  42.297  27.794   0.476
11084W        W75904  39.121   6.741   0.324
11085W        W75905   7.232  11.384  13.214
11086W        W75906   8.382  24.479  11.635
11087W        W75907  27.033  14.163   0.233
11088W        W75908  42.072  34.643   4.002
11089W        W75909  25.621  10.462   2.655
11090W        W75910  22.926  22.596   3.195
11091W        W75911  17.182  12.168   3.348
11092W        W75912   5.238  16.842  11.976
11093W        W75913   8.145  29.165   1.361
11094W        W75914  12.462  39.194   1.242
11095W        W75915  40.120  37.713  10.372
11096W        W75916   9.382  20.745  11.496
11097W        W75917  35.263   3.408   3.027
11098W        W75918  33.578  11.882  11.873
11099W        W75919  20.722  15.096   4.536
11100W        W75920  32.103   8.724  14.989
11101W        W75921  18.996   2.477  12.480
11102W        W75922  20.059  30.144  14.271
11103W        W75923  17.679   0.842  12.432
11104W        W75924   2.876  35.580   3.652
11105W        W75925  13.306  14.790  13.817
11106W        W75926  30.220  36.941  13.984
11107W        W75927  38.377  30.662  14.350
11108W        W75928   2.274   0.381  12.557
11109W        W75929  43.924  14.756   3.876
11110W        W75930  25.169  19.150   2.709
11111W        W75931   2.220  37.014  14.615
11112W        W75932  26.943  22.717  12.335
11113W        W75933  12.149  22.193  13.773
11114W        W75934  12.267  16.573   1.542
11115W        W75935  40.601  21.504   4.213
11116W        W75936   1.890  32.054  11.611
11117W        W75937  35.473  33.409   3.664
11118W        W75938  42.367  44.940   2.285
11119W        W75939  19.018   0.011  11.575
11120W        W75940  40.076  10.335   3.833
11121W        W75941  27.947  29.034   3.865
11122W        W75942  35.326  13.721  12.488
11123W        W75943   5.419  42.222   1.782
11124W        W75944  42.474  42.430  11.989
11125W        W75945  22.498   4.233   2.933
11126W        W75946  19.645  26.043  14.249
11127W        W75947  21.715   3.353   4.549
11128W        W75948  30.973   8.731   3.511
11129W        W75949  23.769   9.299   4.630
11130W        W75950  23.992  29.119  12.012
11131W        W75951  42.132  26.173  14.532
11132W        W75952  15.641  32.022  14.895
11133W        W75953  36.448  35.035  11.200
11134W        W75954   0.350  22.399   1.429
11135W        W75955  36.482  39.002  13.902
11136W        W75956  17.078  15.806   0.833
11137W        W75957  19.225  16.714   0.211
11138W        W75958  13.507  11.208   0.402
11139W        W75959  13.297   1.899  14.541
11140W        W75960  43.811   5.373   2.367
11141W        W75961   9.784  25.046   2.221
11142W        W75962   6.644  42.009   2.752
11143W        W75963  23.999   8.676   3.893
11144W        W75964  43.240  26.222   4.641
11145W        W75965   3.957  44.724   0.432
11146W        W75966  19.096  26.913   3.160
11147W        W75967  23.430  23.834   3.562
11148W        W75968  11.360  43.909  14.445
11149W        W75969  44.809  33.234  12.617
11150W        W75970  25.268  43.368  10.974
11151W        W75971  13.323   2.496   3.206
11152W        W75972  42.546  15.923  11.138
11153W        W75973  39.742  43.860   2.095
11154W        W75974  35.393   5.164   3.100
11155W        W75975  41.595  10.946  10.105
11156W        W75976  23.255  19.104   0.752
11157W        W75977  28.986   8.928  14.055
11158W        W75978  38.268  13.347   4.946
11159W        W75979  29.580  35.421  10.778
11160W        W75980   4.964   7.527  14.247
11161W        W75981  14.778  24.768  12.257
11162W        W75982  35.759  31.993   2.168
11163W        W75983   0.973  26.035   0.325
11164W        W75984  12.677   6.723  10.721
11165W        W75985  17.723  20.616  14.389
11166W        W75986  34.545  30.871  11.062
11167W        W75987  32.225  31.663  13.252
11168W        W75988  14.889   6.624   4.141
11169W        W75989  30.162  44.415   1.422
11170W        W75990  32.749  42.402   3.376
11171W        W75991  36.399  37.024   2.719
11172W        W75992  27.981  43.083  11.321
11173W        W75993  31.084  28.149  10.375
11174W        W75994   8.320  19.985  10.625
11175W        W75995   8.444   1.938  13.091
11176W        W75996   0.499  30.162  11.546
11177W        W75997  41.857  13.217  12.762
11178W        W75998  24.504  43.847  13.501
11179W        W75999   1.692  36.556   3.266
11180W        W76000  23.885  22.094  13.569
11181W        W76001  11.693  15.720   3.835
11182W        W76002  23.386  20.320   5.070
11183W        W76003   1.768  43.981   0.524
11184W        W76004  31.524  32.958  12.507
11185W        W76005   7.177  31.592   4.024
11186W        W76006  12.219   6.927   4.215
11187W        W76007   0.982  26.737  11.605
11188W        W76008  43.327  20.353  13.846
11189W        W76009  36.761   0.548   2.903
11190W        W76010  10.294   4.356  11.241
11191W        W76011  32.427   9.697  11.808
11192W        W76012  33.677  22.018  10.350
11193W        W76013  20.749   2.228  12.542
11194W        W76014  36.554  20.631  12.554
11195W        W76015  23.953   5.324  10.950
11196W        W76016  29.542  25.384   0.210
11197W        W76017  37.968  36.071  11.629
11198W        W76018  34.886  31.681   0.392
11199W        W76019  14.629  15.931  12.047
11200W        W76020  20.211   7.425   1.820
11201W        W76021  19.252  17.776   3.976
11202W        W76022   0.624  19.646   0.531
11203W        W76023   7.236  40.282   0.825
11204W        W76024  39.921  40.400  13.455
11205W        W76025  32.042  22.574  14.282
11206W        W76026  42.257  28.396  11.182
11207W        W76027  29.383   4.633  12.394
11208W        W76028  39.085  15.466   2.288
11209W        W76029  42.384  30.227  12.843
11210W        W76030  11.351  38.046   4.696
11211W        W76031  22.096  27.969   4.555
11212W        W76032  34.384  44.224   3.483
11213W        W76033  20.307  23.663   2.842
11214W        W76034  12.201  34.162   3.259
11215W        W76035  22.710  11.199  12.390
11216W        W76036  10.828  41.595  10.756
11217W        W76037  29.293  43.602   4.622
11218W        W76038   8.677   6.870   2.921
11219W        W76039  11.146  39.601   2.769
11220W        W76040  38.962  32.804  12.132
11221W        W76041  20.038   6.963   4.519
11222W        W76042  31.784   8.899  11.876
11223W        W76043  42.075  17.094   3.300
11224W        W76044  40.004  43.222   3.206
11225W        W76045  14.364  15.274   1.295
11226W        W76046  13.084  13.750   0.005
11227W        W76047  21.705  23.624   5.082
11228W        W76048   0.686   5.727  13.713
11229W        W76049   9.187  24.097  14.829
11230W        W76050  37.892  10.653   3.093
11231W        W76051   8.063  11.391  10.716
11232W        W76052  18.334  32.581   4.135
11233W        W76053  14.728   3.766  13.868
11234W        W76054  13.176  31.853  12.761
11235W        W76055   5.350  29.897  13.386
11236W        W76056  10.085  16.216  13.907
11237W        W76057  37.267   1.796   3.246
11238W        W76058  40.901  34.439   2.532
11239W        W76059  18.192  15.036   4.075
11240W        W76060   5.275   1.718   3.235
11241W        W76061  10.849  13.068   2.131
11242W        W76062   1.120  43.768   1.546
11243W        W76063  34.548  39.959  13.909
11244W        W76064  41.042   3.312   2.705
11245W        W76065  25.901   6.167  11.927
11246W        W76066   2.270  36.645   4.145
11247W        W76067  27.438  31.178   1.250
11248W        W76068  39.833  42.302  13.586
11249W        W76069   9.617  22.598   3.279
11250W        W76070  11.811  32.607   1.609
11251W        W76071  27.901  15.165  10.262
11252W        W76072  39.152  33.114   0.890
11253W        W76073  10.223  38.887   3.243
11254W        W76074  35.640  15.611  11.627
11255W        W76075  39.525  44.822  14.873
11256W        W76076   0.780  32.159   2.349
11257W        W76077  40.947  20.098   0.535
11258W        W76078  15.031  13.316  12.866
11259W        W76079  12.608   2.590  11.471
11260W        W76080  29.238  23.528  10.375
11261W        W76081  11.843  15.670  14.713
11262W        W76082  44.719  23.721  11.683
11263W        W76083   0.630  25.292   2.854
11264W        W76084  13.320  37.415   2.003
11265W        W76085  23.596  33.676   4.052
11266W        W76086  39.816  38.829   3.623
11267W        W76087  17.566  36.457  12.576
11268W        W76088  34.059   9.644   2.781
11269W        W76089  13.095  43.080   2.259
11270W        W76090  41.584  14.892  12.984
11271W        W76091  11.234  11.831   0.917
11272W        W76092  42.696  41.801   2.403
11273W        W76093  21.596  32.580   4.739
11274W        W76094   8.439   7.322  13.018
11275W        W76095  28.454  20.222   2.032
11276W        W76096   4.972  31.491   1.676
11277W        W76097  42.980  26.138   0.174
11278W        W76098   3.153  25.131  12.010
11279W        W76099  35.676   8.851   0.244
11280W        W76100  40.427  44.541  10.785
11281W        W76101  18.023  36.922   4.094
11282W        W76102  35.084  19.528   4.094
11283W        W76103  22.930  35.101  11.083
11284W        W76104  39.483   9.695   1.218
11285W        W76105   5.780  27.405  14.388
11286W        W76106  23.588  32.890   2.864
11287W        W76107  14.322  27.528   3.859
11288W        W76108  34.925   5.275  11.884
11289W        W76109  43.376  36.322  12.921
11290W        W76110  17.767  30.371   0.813
11291W        W76111  37.048  41.872   4.283
11292W        W76112  16.236  22.118  10.908
11293W        W76113  23.982   6.694   2.266
11294W        W76114  20.789  17.769   1.751
11295W        W76115  23.650   7.922   0.706
11296W        W76116  30.115  34.950   3.846
11297W        W76117  38.710   9.621  13.082
11298W        W76118  26.671  15.326  14.316
11299W        W76119  32.312  12.454  11.551
11300W        W76120  16.724  21.998   1.855
11301W        W76121  28.193  32.608  11.941
11302W        W76122  24.580   1.109  10.494
11303W        W76123  32.053  32.904  13.012
11304W        W76124   9.810   3.255   0.741
11305W        W76125  33.373  13.009  10.045
11306W        W76126  23.061   4.918   0.407
11307W        W76127  42.449   8.693  10.605
11308W        W76128   1.211  15.363  13.406
11309W        W76129  34.026  18.742  11.568
11310W        W76130  18.632   8.051   3.979
11311W        W76131  41.876  29.138   2.261
11312W        W76132  10.770  43.308  12.768
11313W        W76133  26.189  33.488   2.692
11314W        W76134   7.820   2.522  14.570
11315W        W76135  40.024  41.420  11.010
11316W        W76136  43.961  31.039   4.541
11317W        W76137   2.225  14.580  11.999
11318W        W76138  44.361  40.914  12.826
11319W        W76139   1.279  14.643   0.270
11320W        W76140  42.340   5.979   3.184
11321W        W76141  21.983  30.663  14.281
11322W        W76142  37.949  22.889  11.995
11323W        W76143  10.044  29.969   2.380
11324W        W76144  17.944  36.074  13.351
11325W        W76145  43.767  42.340   2.891
11326W        W76146  20.676   2.738   3.884
11327W        W76147  41.636  28.506  12.840
11328W        W76148  19.002  19.430   2.635
11329W        W76149   7.411  21.015   0.205
11330W        W76150   8.208   2.775   4.119
11331W        W76151  42.524   6.871   4.125
11332W        W76152  10.635   4.462   2.819
11333W        W76153   3.905  42.753   0.973
11334W        W76154  18.618  41.773   3.557
11335W        W76155   5.917  22.438   5.057
11336W        W76156  42.703  29.680   5.072
11337W        W76157  21.556  16.025   4.509
11338W        W76158  40.492  43.093   0.453
11339W        W76159   3.462   2.542   0.319
11340W        W76160  40.830  26.122   0.447
11341W        W76161  39.418   5.924   0.742
11342W        W76162   5.271  38.165   4.412
11343W        W76163  35.892   4.919   1.216
11344W        W76164   7.232  28.172  13.085
11345W        W76165  26.150  38.997  10.266
11346W        W76166  33.008  38.568   4.342
11347W        W76167  22.577  24.058  12.154
11348W        W76168   2.685  12.554  12.516
11349W        W76169  21.943  10.115  11.681
11350W        W76170  36.380  15.503   0.000
11351W        W76171  39.857  42.273  14.469
11352W        W76172  10.307   1.856   4.209
11353W        W76173  25.462  15.761   1.959
11354W        W76174   3.341  40.236   1.306
11355W        W76175  40.912   3.130  11.118
11356W        W76176  41.305  28.917  12.908
11357W        W76177  28.470  29.895  11.057
11358W        W76178   2.497  43.716   2.882
11359W        W76179  39.682  14.211  11.189
11360W        W76180  21.973   3.787  13.010
11361W        W76181  21.390   4.490  12.619
11362W        W76182  38.086  40.152  12.580
11363W        W76183  36.178  22.459  12.681
11364W        W76184   0.319  13.457  14.289
11365W        W76185  22.649  23.459   0.304
11366W        W76186  26.801   6.178   1.898
11367W        W76187  14.437  15.420  12.008
11368W        W76188  10.680  44.827   2.269
11369W        W76189  38.328  22.057  11.705
11370W        W76190  28.616  25.653   0.667
11371W        W76191  20.157  31.002   4.359
11372W        W76192  15.589  23.692   1.658
11373W        W76193  43.551  15.784   4.182
11374W        W76194   4.654  31.135  10.718
11375W        W76195   6.423  22.613   1.910
11376W        W76196  12.840  37.266  12.777
11377W        W76197  43.968  10.720  10.717
11378W        W76198  40.108  37.413   2.018
11379W        W76199  16.100  37.504  11.116
11380W        W76200  34.711  33.200  12.023
11381W        W76201  14.625  44.494   4.779
11382W        W76202  38.113   0.009  11.423
11383W        W76203  10.652   1.993   0.923
11384W        W76204  13.663  22.906   1.702
11385W        W76205  21.718  20.212  11.441
11386W        W76206  15.071   6.234  13.609
11387W        W76207  39.445  23.605  13.943
11388W        W76208  24.928  34.446  12.572
11389W        W76209  12.780  43.326  13.972
11390W        W76210  42.936  33.764   2.763
11391W        W76211  18.220   5.389  13.894
11392W        W76212  30.959  35.654   2.940
11393W        W76213  26.639  24.207   4.931
11394W        W76214  30.072  22.814  11.919
11395W        W76215  14.071  29.663   1.503
11396W        W76216   1.526  32.164   1.649
11397W        W76217  37.818  14.535  13.910
11398W        W76218  17.998  38.095  12.387
11399W        W76219   1.809   1.664  12.679
11400W        W76220  34.184  39.423  11.629
11401W        W76221  33.471  25.068  10.674
11402W        W76222  35.391  33.853  13.910
11403W        W76223  35.072   0.208  10.627
11404W        W76224  30.703  40.608   4.245
11405W        W76225  23.134  12.133  12.442
11406W        W76226  41.369  41.663   4.075
11407W        W76227  38.833  42.991  13.059
11408W        W76228  33.411   6.851  13.135
11409W        W76229   0.466  31.349   2.646
11410W        W76230   8.764  35.958   0.589
11411W        W76231   5.831  37.591   4.726
11412W        W76232   9.080   2.651  12.435
11413W        W76233  30.128   0.816   1.837
11414W        W76234  38.580  43.860   2.050
11415W        W76235  40.287  30.762  12.986
11416W        W76236  25.236  43.396  11.975
11417W        W76237   5.777  28.662  13.820
11418W        W76238  34.069  15.566   1.851
11419W        W76239   3.799  39.708  13.441
11420W        W76240  31.514   5.421   2.199
11421W        W76241   7.171   7.820  11.795
11422W        W76242  37.925   3.722  14.864
11423W        W76243  40.714  27.835  12.128
11424W        W76244   1.471   0.232   3.655
11425W        W76245   1.960  38.333  14.242
11426W        W76246  29.493  41.459   2.874
11427W        W76247  33.942  19.251   0.311
11428W        W76248  21.531  26.255   0.295
11429W        W76249   7.546  40.781  11.669
11430W        W76250  15.308  37.515  12.075
11431W        W76251   7.425  28.510   1.909
11432W        W76252  16.030  16.219   4.239
11433W        W76253  17.661  12.808   2.288
11434W        W76254  18.797   1.534   1.671
11435W        W76255  18.751  19.856  13.734
11436W        W76256   6.948  19.195   2.682
11437W        W76257  28.866  23.587   1.232
11438W        W76258   6.668  19.064  11.713
11439W        W76259  24.054  28.215  13.748
11440W        W76260  34.863   1.776  12.947
11441W        W76261  36.885  32.349  13.824
11442W        W76262   8.483  27.935   3.621
11443W        W76263  10.314  14.604   1.233
11444W        W76264  34.883  18.522   5.065
11445W        W76265  33.255  14.711  10.686
11446W        W76266  44.326  28.974   2.122
11447W        W76267  27.963  30.318   3.232
11448W        W76268  20.949  16.273  11.094
11449W        W76269  10.905  14.685  12.946
11450W        W76270  25.746  29.493  13.890
11451W        W76271  33.328  40.009  10.705
11452W        W76272  29.304  15.575   4.236
11453W        W76273  24.052  18.310  14.375
11454W        W76274  36.773   1.818   3.396
11455W        W76275  23.919  41.092  14.843
11456W        W76276   3.363  25.489  10.680
11457W        W76277  22.189   0.232  14.220
11458W        W76278  12.024   2.918   1.374
11459W        W76279  20.738  36.358  11.423
11460W        W76280  43.386  14.379   1.769
11461W        W76281  18.275  17.471   4.070
11462W        W76282   4.652  22.203   1.848
11463W        W76283   8.864  25.269   3.489
11464W        W76284  44.468   9.743  12.269
11465W        W76285   9.755   0.652  10.772
11466W        W76286  15.774  17.240   2.194
11467W        W76287  18.999   5.630  12.032
11468W        W76288   8.031  37.532  13.905
11469W        W76289   5.772   5.117   1.982
11470W        W76290  26.228  29.748  13.951
11471W        W76291  22.224  19.601   2.264
11472W        W76292  43.997  39.425   1.821
11473W        W76293  32.111   4.978  11.131
11474W        W76294   9.779  29.243   1.943
11475W        W76295  41.840  35.485  11.082
11476W        W76296  31.450   7.917   3.154
11477W        W76297  39.970   4.820  13.500
11478W        W76298   4.942  41.864  11.941
11479W        W76299  29.928  25.711   0.490
11480W        W76300  12.313   9.191   3.357
11481W        W76301  33.713  25.035   9.966
11482W        W76302  20.982  11.439  11.598
11483W        W76303  44.931  25.596  13.675
11484W        W76304   5.838  28.085   1.476
11485W        W76305  21.712  12.355  12.469
11486W        W76306  26.628  27.128  11.546
11487W        W76307   0.244  18.723   2.724
11488W        W76308   3.835  42.947   2.721
11489W        W76309  13.749  17.623  13.095
11490W        W76310  19.767  42.505  11.107
11491W        W76311  31.575  31.966  10.488
11492W        W76312   7.876   8.650   1.444
11493W        W76313   8.441  10.726   0.095
11494W        W76314   4.755  38.304  10.646
11495W        W76315  37.595   7.837   0.330
11496W        W76316   8.546   4.408  13.361
11497W        W76317  21.849  29.181   4.103
11498W        W76318  33.228  32.876  13.033
11499W        W76319   2.027  17.410  12.984
11500W        W76320  35.025  36.851   0.742
11501W        W76321  23.414  19.622   2.763
11502W        W76322  36.389  34.077  12.038
11503W        W76323  27.609  24.274   1.231
11504W        W76324  21.375  22.545   2.476
11505W        W76325  36.566  41.840   1.842
11506W        W76326  38.055  44.485  10.182
11507W        W76327  25.005  22.505   3.762
11508W        W76328  41.988   2.871  11.156
11509W        W76329  35.048  20.800   4.527
11510W        W76330  39.309   1.907  13.298
11511W        W76331  13.201  20.151   3.555
11512W        W76332  27.897   9.945  10.604
11513W        W76333   2.999   0.729  13.993
11514W        W76334  42.327  21.239  10.640
11515W        W76335  39.321  26.345  13.409
11516W        W76336  23.267  30.637  14.951
11517W        W76337  35.010  41.850   3.000
11518W        W76338  23.444   4.556   0.424
11519W        W76339  22.942  41.921   3.883
11520W        W76340  27.992  26.620  12.894
11521W        W76341   0.404  43.266  11.014
11522W        W76342  37.834  14.781   4.820
11523W        W76343  34.396   9.211  11.031
11524W        W76344  43.384  35.897  11.128
11525W        W76345  30.445  41.974  14.826
11526W        W76346  27.983   8.244  14.387
11527W        W76347  18.468  15.526  13.513
11528W        W76348  24.549   5.240   4.305
11529W        W76349  19.278  36.109  13.047
11530W        W76350  25.344  12.944  11.258
11531W        W76351  36.496   5.476   2.306
11532W        W76352  35.608  25.507   3.929
11533W        W76353  23.009  28.205  10.546
11534W        W76354  17.215  38.417  12.430
11535W        W76355  44.937  37.798   0.496
11536W        W76356   1.996  22.682  14.354
11537W        W76357  40.343   9.514  14.517
11538W        W76358  16.876   3.349   4.446
11539W        W76359  41.678  16.102   0.022
11540W        W76360  26.235   9.513   1.721
11541W        W76361  17.286  17.072  12.104
11542W        W76362  37.959  17.755   3.350
11543W        W76363   7.006  29.776   1.842
11544W        W76364  20.497  19.843  14.715
11545W        W76365  38.844  16.478   3.153
11546W        W76366  20.297  19.668  10.313
11547W        W76367  37.501  11.156   2.159
11548W        W76368  43.411   4.326   1.501
11549W        W76369  25.880  37.549   4.126
11550W        W76370  19.783  43.507   4.117
11551W        W76371  11.302  18.207   2.806
11552W        W76372  28.920  38.947  14.288
11553W        W76373  41.381  24.855  13.930
11554W        W76374  25.337  25.474  10.594
11555W        W76375  37.847  33.601  12.315
11556W        W76376   9.542   1.279   4.271
11557W        W76377  17.682  16.578   3.236
11558W        W76378  10.158  18.678  11.205
11559W        W76379  24.972  32.381   0.064
11560W        W76380  16.310  16.242  14.949
11561W        W76381  44.802   5.474  12.793
11562W        W76382  24.131   3.430  11.704
11563W        W76383   8.917  31.427  11.464
11564W        W76384  14.420   2.935   3.242
11565W        W76385  36.086  41.971  14.218
11566W        W76386  19.058  26.770  14.996
11567W        W76387   0.923   7.156  13.487
11568W        W76388  32.482  29.316  10.644
11569W        W76389  12.137  38.333   0.214
11570W        W76390   9.929   4.806  13.609
11571W        W76391  30.435  14.299  13.329
11572W        W76392  42.850  25.717  12.699
11573W        W76393   4.892  21.107   2.802
11574W        W76394   1.370  25.545   0.823
11575W        W76395  37.185  23.388  14.284
11576W        W76396   5.542  44.835  11.435
11577W        W76397  43.938   4.658  10.581
11578W        W76398   2.132  29.070   0.838
11579W        W76399  24.851  24.207  13.331
11580W        W76400  33.838  18.317  13.790
11581W        W76401  24.820  44.219   1.274
11582W        W76402  22.067   3.185  11.877
11583W        W76403  13.944  11.595   1.977
11584W        W76404  28.595  27.978  13.101
11585W        W76405  23.127  44.312  12.893
11586W        W76406  22.751  32.835  14.963
11587W        W76407  36.351  20.129   0.914
11588W        W76408  44.973  30.450  11.043
11589W        W76409  28.221  11.323   2.106
11590W        W76410   2.719  36.961   1.793
11591W        W76411  27.075  12.686  11.637
11592W        W76412  35.875  12.279   0.282
11593W        W76413  43.527  30.819   4.337
11594W        W76414  35.142  40.018  14.343
11595W        W76415  26.186   8.329  11.923
11596W        W76416  12.756  20.090   4.587
11597W        W76417  28.330  23.881   4.889
11598W        W76418  13.200   7.721   3.510
11599W        W76419  29.711  11.035   0.895
11600W        W76420  29.465  38.698   2.913
11601W        W76421  44.346  30.417   1.009
11602W        W76422   9.659  16.801  13.439
11603W        W76423   9.106  42.751   3.183
11604W        W76424  42.480  37.304  14.751
11605W        W76425  35.327   8.749  10.868
11606W        W76426  30.514  21.665   4.543
11607W        W76427  34.332  35.390   3.400
11608W        W76428  40.519  28.940   3.233
11609W        W76429  12.744  10.473  10.363
11610W        W76430   9.871  42.948   1.395
11611W        W76431  35.100  28.979   1.164
11612W        W76432  15.814   4.971  13.007
11613W        W76433  42.199   2.565   4.233
11614W        W76434  33.602  31.746   4.769
11615W        W76435  13.719  32.231   4.569
11616W        W76436   7.328   4.561  13.167
11617W        W76437  15.184   4.837  10.652
11618W        W76438  27.463   9.613  14.729
11619W        W76439  43.361   8.347   1.910
11620W        W76440  15.128   7.352   3.652
11621W        W76441  28.434  13.378  13.987
11622W        W76442  34.899  44.566  13.023
11623W        W76443  43.044  28.143  10.728
11624W        W76444  38.680  40.601   2.338
11625W        W76445  21.084  13.799  11.161
11626W        W76446   1.935  29.544   3.392
11627W        W76447   7.689  21.538   2.272
11628W        W76448  40.581   5.674   3.742
11629W        W76449  25.549   3.454   4.994
11630W        W76450  30.740  25.052   1.751
11631W        W76451  16.789  29.509  10.145
11632W        W76452  32.420  10.222  13.256
11633W        W76453  11.883  31.437   4.595
11634W        W76454  15.806   5.759  13.270
11635W        W76455  43.243  40.359  13.594
11636W        W76456  30.123   0.403   4.691
11637W        W76457  44.281  22.859   2.970
11638W        W76458   3.008  29.888  14.682
11639W        W76459  43.629   5.960   4.634
11640W        W76460  34.019  41.767   0.165
11641W        W76461   9.838   7.158   0.423
11642W        W76462   8.161  14.135  10.336
11643W        W76463  23.894  22.228  11.654
11644W        W76464   7.675  12.179   0.925
11645W        W76465   4.803  11.562  13.938
11646W        W76466  30.161  22.274   2.690
11647W        W76467   4.699  32.645  12.874
11648W        W76468  31.455   8.168  11.549
11649W        W76469  42.157  38.996  13.842
11650W        W76470  43.793   4.481  13.336
11651W        W76471  35.660  17.672  12.085
11652W        W76472  22.112   7.255   4.132
11653W        W76473  27.898  43.403  11.674
11654W        W76474  18.609  13.610   2.170
11655W        W76475  35.479  35.033   4.538
11656W        W76476  11.983  22.321   0.706
11657W        W76477  14.549  30.637  14.611
11658W        W76478   7.108  25.627  14.329
11659W        W76479  35.852  32.781  11.047
11660W        W76480  22.570  35.403   0.982
11661W        W76481  43.294  42.928  12.156
11662W        W76482  19.658  44.340  11.442
11663W        W76483  11.207  29.538   0.002
11664W        W76484  12.307  34.672   3.194
11665W        W76485  19.743  22.607   3.706
11666W        W76486   1.816   9.308  14.886
11667W        W76487  18.608  41.531   1.371
11668W        W76488  18.761  26.403   3.644
11669W        W76489  10.312  24.181  13.697
11670W        W76490   3.000   6.408   1.788
11671W        W76491  24.144  24.747  11.612
11672W        W76492  17.996  23.972   2.882
11673W        W76493  28.635  39.513  11.903
11674W        W76494  20.342  23.140   2.671
11675W        W76495  42.414  26.504   3.472
11676W        W76496  37.882  35.048  11.610
11677W        W76497  40.591  41.792  13.525
11678W        W76498  22.124   1.408   2.884
11679W        W76499  44.446  40.736   1.760
11680W        W76500   0.408  10.083  14.212
11681W        W76501  21.108  32.397  14.410
11682W        W76502  29.100   9.967   3.695
11683W        W76503  37.619  23.253  13.340
11684W        W76504  23.579  35.641  12.461
11685W        W76505  36.919  40.524   1.980
11686W        W76506  16.757  43.315  13.941
11687W        W76507  13.174  20.785   2.289
11688W        W76508   4.480  28.153   1.850
11689W        W76509   9.470  10.664  13.001
11690W        W76510   3.283   9.666   0.865
11691W        W76511   1.146  16.144  12.851
11692W        W76512  37.141  43.851   3.318
11693W        W76513  27.438  29.216   1.671
11694W        W76514  32.895  29.656  11.647
11695W        W76515  23.974   1.621  11.109
11696W        W76516   2.559   9.408  12.565
11697W        W76517  14.195  40.302   1.399
11698W        W76518  25.654  38.567   4.578
11699W        W76519  12.019   5.899  11.685
11700W        W76520  39.991   5.375   0.268
11701W        W76521  17.189  24.197  14.494
11702W        W76522  25.593  11.659  10.352
11703W        W76523  26.530   0.537   0.781
11704W        W76524   5.454  22.166   9.987
11705W        W76525  20.434  39.753  11.721
11706W        W76526   6.624  20.736  12.085
11707W        W76527  43.236  24.518  12.371
11708W        W76528  10.157  35.336   1.159
11709W        W76529  37.850   0.948  11.096
11710W        W76530   6.114  42.357  14.058
11711W        W76531  34.563  37.003  11.497
11712W        W76532   5.098  34.536   4.482
11713W        W76533   4.663  17.006   2.615
11714W        W76534  38.733  13.212  10.697
11715W        W76535  32.186   9.699   3.351
11716W        W76536  24.180  28.781   4.383
11717W        W76537  23.385  36.431   5.039
11718W        W76538  32.041  26.796   2.798
11719W        W76539   1.282   5.479  14.837
11720W        W76540   4.683  42.504   1.322
11721W        W76541  20.286   5.962  10.637
11722W        W76542   3.211  44.803  14.958
11723W        W76543  14.294  43.373   0.292
11724W        W76544  12.346  33.867  11.874
11725W        W76545  44.406  24.467   3.865
11726W        W76546  28.835  17.192  12.886
11727W        W76547   2.202  34.978  14.913
11728W        W76548  33.960  26.126   3.551
11729W        W76549  13.045  29.090  14.231
11730W        W76550  36.522   8.267   0.785
11731W        W76551  40.368  21.765   2.431
11732W        W76552  20.924  31.563   4.627
11733W        W76553  28.032  42.767   1.898
11734W        W76554  19.823  21.721   4.674
11735W        W76555  40.396  21.873   4.664
11736W        W76556  27.629  28.628   0.367
11737W        W76557  41.142   5.892   2.221
11738W        W76558  35.189  34.259  12.583
11739W        W76559   1.457  33.905  10.679
11740W        W76560  16.246  12.411   3.642
11741W        W76561  22.688  27.136   4.087
11742W        W76562  16.362  20.655  12.938
11743W        W76563  11.096  14.447  11.244
11744W        W76564   0.565  16.959  11.963
11745W        W76565   9.834  35.052   1.931
11746W        W76566   2.683  26.033   3.744
11747W        W76567  15.000  11.617  11.174
11748W        W76568   8.563   2.780  11.127
11749W        W76569  19.279  39.336  12.980
11750W        W76570  16.723   1.329  12.572
11751W        W76571  29.120  33.155  12.719
11752W        W76572  18.727  44.475  12.004
11753W        W76573  25.798  15.765  12.555
11754W        W76574  40.356  12.869  13.860
11755W        W76575  20.251   4.835   4.369
11756W        W76576  18.219  22.597   4.890
11757W        W76577  17.209  40.441   2.929
11758W        W76578  35.176  21.584  14.855
11759W        W76579  43.511  29.687   0.767
11760W        W76580   5.801  10.284  14.048
11761W        W76581   7.792  14.493  10.503
11762W        W76582  16.783  40.424   3.649
11763W        W76583  12.276  12.287  10.751
11764W        W76584  35.867   2.396   0.981
11765W        W76585   9.824  30.963  13.886
11766W        W76586  14.042  35.584  14.332
11767W        W76587  33.861  31.066   3.072
11768W        W76588  12.081  15.258   3.162
11769W        W76589  20.508  44.802  13.863
11770W        W76590  22.726  22.931  13.581
11771W        W76591  19.211  21.767   4.506
11772W        W76592  37.342  25.323   2.045
11773W        W76593  27.519  37.579  14.020
11774W        W76594  24.819  10.357   4.406
11775W        W76595  40.996  14.602   1.314
11776W        W76596  21.724  22.936  13.441
11777W        W76597  31.022  28.979   4.595
11778W        W76598  18.674  18.737  13.079
11779W        W76599  41.990  28.911   2.726
11780W        W76600  40.828  35.680  13.911
11781W        W76601   1.754  25.030   1.249
11782W        W76602  30.620   0.233  14.990
11783W        W76603  24.228  43.490   1.337
11784W        W76604  35.856  10.117   0.985
11785W        W76605  20.279  11.600   4.959
11786W        W76606   2.971  12.684   1.464
11787W        W76607  12.759  18.251   0.742
11788W        W76608   1.253  19.006   3.793
11789W        W76609   1.780  29.937   4.169
11790W        W76610  15.213  39.983  10.711
11791W        W76611  24.233  43.421  13.628
11792W        W76612  33.071  24.615  10.231
11793W        W76613  10.384  13.906  14.510
11794W        W76614  35.926  25.534  11.075
11795W        W76615  14.734  31.945  14.432
11796W        W76616  23.069  16.964   0.446
11797W        W76617   4.195  21.613  14.599
11798W        W76618  35.402   0.289   0.803
11799W        W76619  41.915   6.599  13.223
11800W        W76620   4.714  39.395  13.448
11801W        W76621   5.205   7.727   1.193
11802W        W76622  41.233  14.635  14.836
11803W        W76623   4.302  17.213   4.286
11804W        W76624  33.969  42.351  13.114
11805W        W76625  35.781   9.329  14.916
11806W        W76626   9.876  31.149   0.262
11807W        W76627   1.017  12.298  10.885
11808W        W76628   4.196  20.059   1.383
11809W        W76629  16.235  39.827  11.247
11810W        W76630   1.392   3.307   3.781
11811W        W76631  23.212  39.068   3.301
11812W        W76632  43.463  28.463  14.336
11813W        W76633   5.214  23.032   5.208
11814W        W76634  42.026   2.834   1.695
11815W        W76635  44.218   0.565   2.901
11816W        W76636  13.207   5.919   4.683
11817W        W76637   3.342  22.492  11.118
11818W        W76638   1.573  29.905   3.699
11819W        W76639  41.716  41.991  12.854
11820W        W76640  40.334   4.808  11.631
11821W        W76641  34.733  14.637  10.576
11822W        W76642   0.282  18.278  11.455
11823W        W76643  38.947  17.479  11.447
11824W        W76644  22.259  30.399  14.925
11825W        W76645  28.747   2.298  13.373
11826W        W76646  14.949  17.690  10.120
11827W        W76647  11.977  14.353  13.907
11828W        W76648  12.093  16.902  12.502
11829W        W76649  40.785  27.981   2.190
11830W        W76650  18.141   1.343   3.822
11831W        W76651  19.210  41.135   2.576
11832W        W76652  42.482  11.537   3.822
11833W        W76653  43.782  21.915  11.109
11834W        W76654  40.004  25.071  11.558
11835W        W76655  41.072  37.797  14.908
11836W        W76656  43.059  17.531   0.213
11837W        W76657  22.191   5.593   4.627
11838W        W76658  38.985  25.095  12.452
11839W        W76659  28.641  17.616   0.662
11840W        W76660  17.816  17.097  12.078
11841W        W76661  20.578  32.545   0.287
11842W        W76662  31.678  12.822   4.033
11843W        W76663  30.154  43.088   2.264
11844W        W76664   3.277  34.372   2.378
11845W        W76665   3.205  11.771  14.516
11846W        W76666   6.452   5.890   4.542
11847W        W76667  29.008  27.485   2.197
11848W        W76668  34.630  42.967   4.550
11849W        W76669  27.233  22.395   4.035
11850W        W76670   1.185  36.862  10.615
11851W        W76671  24.496  18.138  12.817
11852W        W76672  37.551   7.881   3.589
11853W        W76673  29.328  11.365   0.433
11854W        W76674  10.369  12.638  13.889
11855W        W76675  13.686  31.109   1.721
11856W        W76676  14.467   2.769  11.231
11857W        W76677  29.433  24.511  12.456
11858W        W76678  26.681   0.368   3.629
11859W        W76679   6.811  28.976   1.262
11860W        W76680  11.819  24.236   4.176
11861W        W76681  11.589   7.691   2.680
11862W        W76682   6.470  41.465  13.036
11863W        W76683  38.825  28.509   4.446
11864W        W76684  29.119   6.621   3.219
11865W        W76685   8.906  40.040   2.745
11866W        W76686  18.347  41.933  12.807
11867W        W76687  12.232  35.138   2.925
11868W        W76688  40.987  24.082   2.047
11869W        W76689  33.818  35.682   0.225
11870W        W76690  27.142  17.749  11.403
11871W        W76691  36.457  31.820   2.885
11872W        W76692   8.843  25.090  12.925
11873W        W76693  36.268  41.730  11.066
11874W        W76694  28.329  20.307  10.162
11875W        W76695  10.337  22.714   4.749
11876W        W76696   0.206  25.037   0.045
11877W        W76697   0.253   6.712  11.951
11878W        W76698   1.384  40.839   0.552
11879W        W76699  24.091   5.968  12.478
11880W        W76700   0.866  32.503   4.709
11881W        W76701  35.439  36.887  14.295
11882W        W76702   4.404  18.152  14.061
11883W        W76703  16.730   2.493   0.772
11884W        W76704  29.585   4.265   4.138
11885W        W76705  19.311  15.767  13.825
11886W        W76706  11.629  27.109   2.785
11887W        W76707  31.460  20.708   0.389
11888W        W76708  20.971  18.238  11.051
11889W        W76709  15.109   4.799   0.704
11890W        W76710  21.638   7.900   2.822
11891W        W76711  28.204  28.046  12.548
11892W        W76712  18.097  38.113   3.130
11893W        W76713  37.505  34.709  14.452
11894W        W76714  37.147  35.060  12.016
11895W        W76715  41.779  34.732  10.709
11896W        W76716   0.492  23.698   0.329
11897W        W76717   0.379  35.399   0.044
11898W        W76718  29.816  34.702   4.656
11899W        W76719  17.356  15.386  14.887
11900W        W76720  31.714  29.411  11.976
11901W        W76721  32.950   4.205   1.018
11902W        W76722  14.036  23.216   0.273
11903W        W76723   4.124  38.694  10.247
11904W        W76724  35.483  34.605  14.062
11905W        W76725  34.715  28.561  14.668
11906W        W76726  34.377  28.113   0.398
11907W        W76727  31.316  34.738  11.959
11908W        W76728  29.293  37.276   3.794
11909W        W76729  22.910   0.850  14.465
11910W        W76730  10.264  21.723  12.831
11911W        W76731  15.288  32.943  11.375
11912W        W76732  22.311  28.358  12.137
11913W        W76733  33.005  23.745   0.388
11914W        W76734  34.357  14.872  14.519
11915W        W76735  13.560   6.643  10.784
11916W        W76736  32.333  22.013  14.803
11917W        W76737  40.158  40.384   2.147
11918W        W76738  30.605   9.461   3.048
11919W        W76739  38.388  36.624  11.275
11920W        W76740   7.337  10.802   0.841
11921W        W76741   0.658  41.579   4.046
11922W        W76742  36.552   8.123  13.483
11923W        W76743  34.041  15.490  13.240
11924W        W76744  40.096   2.829   0.306
11925W        W76745   3.304  42.709  12.987
11926W        W76746  10.057  17.959   2.408
11927W        W76747   9.240  34.337  12.754
11928W        W76748  13.722   2.983  12.739
11929W        W76749  21.180  25.509  14.294
11930W        W76750   9.636  32.054  12.916
11931W        W76751  43.550  25.952  10.688
11932W        W76752  27.094  36.973   5.285
11933W        W76753  16.129  27.937  11.087
11934W        W76754  22.506   7.650  11.616
11935W        W76755  36.146  37.512   3.495
11936W        W76756   7.670  40.988   3.248
11937W        W76757  42.171  30.963   4.420
11938W        W76758  34.548  40.080  10.700
11939W        W76759  43.678  12.343  14.014
11940W        W76760   5.064  24.033  14.704
11941W        W76761  21.816  28.462  12.057
11942W        W76762  44.800  28.592  14.470
11943W        W76763  44.010  44.324   2.337
11944W        W76764  18.219  20.317   2.823
11945W        W76765   5.236  12.078   4.667
11946W        W76766  31.143  22.387   1.633
11947W        W76767  20.470  12.807   0.798
11948W        W76768  30.983  39.083   4.561
11949W        W76769   4.516   9.594  14.001
11950W        W76770   8.587  41.046  13.886
11951W        W76771   6.770  44.345   4.833
11952W        W76772   4.902   4.181  14.270
11953W        W76773  36.642  42.825  12.736
11954W        W76774  13.891  11.736   4.104
11955W        W76775  11.728  11.552  13.117
11956W        W76776   5.152  35.906   3.807
11957W        W76777  39.367  22.583   4.616
11958W        W76778  20.132  20.479  13.494
11959W        W76779  17.547   2.905  13.063
11960W        W76780   8.800  32.568   0.444
11961W        W76781  42.056  12.103  11.954
11962W        W76782  29.117  18.128   2.177
11963W        W76783  13.540  11.162   1.817
11964W        W76784   7.394  23.122   1.739
11965W        W76785  17.694   0.403   0.130
11966W        W76786   5.664   4.999  11.511
11967W        W76787  20.051  38.038   2.355
11968W        W76788  29.150  40.805  12.662
11969W        W76789   5.792  35.577  14.432
11970W        W76790  13.878  26.551   1.327
11971W        W76791  25.735  41.491   2.344
11972W        W76792  40.455   6.404  13.109
11973W        W76793  15.368  39.416   3.258
11974W        W76794  17.710   8.382  11.260
11975W        W76795  24.912   0.378  13.289
11976W        W76796   0.904  44.967  14.510
11977W        W76797   8.683  19.209  10.255
11978W        W76798   9.439   1.499   0.520
11979W        W76799  10.789  42.896   0.451
11980W        W76800  31.559  41.047   4.086
11981W        W76801  40.067  19.006   1.164
11982W        W76802   3.291  11.151   3.234
11983W        W76803  13.009  24.322  12.229
11984W        W76804  43.353  41.721   0.449
11985W        W76805  33.563   6.315  13.969
11986W        W76806   1.738  31.504  12.442
11987W        W76807  22.791   0.303  13.437
11988W        W76808  28.969  10.766  12.467
11989W        W76809   1.277  29.138   2.387
11990W        W76810  19.045  28.645  13.602
11991W        W76811  26.204  13.265  11.629
11992W        W76812  36.773  36.124   0.311
11993W        W76813  12.556  36.393  11.659
11994W        W76814   4.320  11.932   1.960
11995W        W76815  36.993  33.003  13.787
11996W        W76816  15.228   1.558  14.089
11997W        W76817   5.421  10.492   3.637
11998W        W76818  32.354  17.140   0.061
11999W        W76819   1.804  21.156   1.992
12000W        W76820  31.502  28.154  10.734
12001W        W76821  38.578  21.304   0.278
12002W        W76822  20.742   9.406   0.228
12003W        W76823  25.568  20.306   4.595
12004W        W76824  30.903  33.537   3.260
12005W        W76825  35.889   7.284   1.787
12006W        W76826  40.092  32.901   4.053
12007W        W76827  30.448   2.866  12.097
12008W        W76828  16.568  40.913   3.336
12009W        W76829  19.304   6.722   4.210
12010W        W76830  31.985  37.970   4.534
12011W        W76831   5.853  11.907   3.829
12012W        W76832  11.893  38.488  13.307
12013W        W76833  29.096  27.014  11.118
12014W        W76834  20.707  44.513  10.609
12015W        W76835   8.807  26.282   2.166
12016W        W76836   0.388  22.893  11.553
12017W        W76837  33.851  17.656   3.283
12018W        W76838  42.401   9.736  10.615
12019W        W76839  40.383   5.328   0.963
12020W        W76840  43.821   0.903  14.338
12021W        W76841  24.141  24.740   0.833
12022W        W76842  15.709   9.587   2.355
12023W        W76843  19.941   0.728   0.691
12024W        W76844   3.346  16.547   1.725
12025W        W76845  36.339  15.745   2.836
12026W        W76846  36.661  37.556  14.398
12027W        W76847  42.409  38.172   4.613
12028W        W76848  23.564  14.037  13.824
12029W        W76849  23.052  14.826   2.651
12030W        W76850   2.795   9.866   0.940
12031W        W76851  31.541  26.084   4.450
12032W        W76852  21.990  39.357  14.495
12033W        W76853   1.603  11.186  10.984
12034W        W76854  14.389  21.691  10.981
12035W        W76855  29.464  25.526   0.726
12036W        W76856   2.884  42.304   4.342
12037W        W76857   9.675  20.676  13.476
12038W        W76858  25.237   3.002  14.384
12039W        W76859  29.990   8.375   0.414
12040W        W76860  41.821  34.449  12.370
12041W        W76861  13.307  30.219  10.704
12042W        W76862  44.895  26.096   2.818
12043W        W76863  13.323  21.731   4.117
12044W        W76864  22.474  40.577  13.729
12045W        W76865  20.809  22.983   2.398
12046W        W76866  44.935  14.354  10.682
12047W        W76867  25.967  24.944   3.071
12048W        W76868   2.267  26.581  12.844
12049W        W76869  30.245  30.659   4.553
12050W        W76870  26.504  20.634   0.879
12051W        W76871  26.573  36.873  12.933
12052W        W76872  13.589   4.018  14.375
12053W        W76873  24.753  37.077   3.319
12054W        W76874  41.910  16.593  12.983
12055W        W76875   1.030   7.856  13.035
12056W        W76876  11.085  29.095   3.658
12057W        W76877   0.948  37.024   4.674
12058W        W76878   6.618  16.839   4.439
12059W        W76879  15.125   3.385  13.914
12060W        W76880  25.813  24.838   2.207
12061W        W76881  21.642   1.700  10.718
12062W        W76882  26.403  14.251  11.432
12063W        W76883  36.027  36.607  11.604
12064W        W76884  27.395   8.239   0.270
12065W        W76885   4.256  37.065  10.321
12066W        W76886  23.465   0.362   3.118
12067W        W76887  39.214  43.984  10.522
12068W        W76888   5.449  31.361   0.873
12069W        W76889  25.280  21.341   5.083
12070W        W76890  25.583  13.859  13.652
12071W        W76891  23.717   4.385   3.750
12072W        W76892   9.154  37.735   4.103
12073W        W76893  24.505  32.503   3.703
12074W        W76894  40.532  15.279  11.483
12075W        W76895  16.782   9.152   4.120
12076W        W76896  16.994   8.760   0.424
12077W        W76897  33.784  41.057   4.611
12078W        W76898  33.976   6.172  14.856
12079W        W76899   5.215   7.181   2.823
12080W        W76900  12.554   1.390   2.975
12081W        W76901   4.690  35.445   0.187
12082W        W76902  31.382  38.898   1.773
12083W        W76903  44.443  41.988   4.398
12084W        W76904  40.078   9.285  11.558
12085W        W76905  10.530  19.676   0.312
12086W        W76906  36.024   4.433   4.776
12087W        W76907  19.129  35.856  14.317
12088W        W76908  35.810  23.108   2.752
12089W        W76909   7.640  41.729  13.392
12090W        W76910  18.307  15.269   2.302
12091W        W76911  39.995  19.758  11.514
12092W        W76912  37.848   7.565   4.507
12093W        W76913  26.662  11.822  13.072
12094W        W76914  43.072  22.278   2.790
12095W        W76915   7.126  30.396  13.386
12096W        W76916  14.776  44.004   2.654
12097W        W76917  15.158  25.274  13.524
12098W        W76918  27.682  13.864  14.254
12099W        W76919  14.750  17.246  10.906
12100W        W76920   9.324   5.491   0.898
12101W        W76921  16.003  18.083   3.704
12102W        W76922  42.313   8.812   4.152
12103W        W76923   4.395   3.978   3.631
12104W        W76924  27.501  18.174   0.408
12105W        W76925  13.904  44.083   0.754
12106W        W76926  25.093   8.972   5.166
12107W        W76927   9.351  12.851   0.324
12108W        W76928  39.811  24.471   3.646
12109W        W76929  20.060  13.316   4.611
12110W        W76930  21.413  26.822   3.650
12111W        W76931  26.427   1.520  14.732
12112W        W76932  28.363  20.654   0.338
12113W        W76933  30.590   3.275   2.704
12114W        W76934  26.409  33.495   4.526
12115W        W76935  27.431  34.830   2.819
12116W        W76936  44.489  21.291   1.331
12117W        W76937   1.464  40.711   1.605
12118W        W76938  44.733  33.595  13.389
12119W        W76939  38.133   3.448  14.445
12120W        W76940  14.308   3.880  13.406
12121W        W76941  40.077   1.923  11.715
12122W        W76942  38.088  17.052  11.672
12123W        W76943   9.795  25.041  13.840
12124W        W76944   3.945  43.260   1.881
12125W        W76945  37.886  14.095  12.527
12126W        W76946  23.976  17.333  10.578
12127W        W76947  39.791  17.693   4.396
12128W        W76948  31.202  30.177  14.967
12129W        W76949   0.377   6.327  13.489
12130W        W76950  44.609   9.686  14.925
12131W        W76951  40.235  18.551  12.988
12132W        W76952  40.880   6.395   0.033
12133W        W76953  20.291  36.776   3.550
12134W        W76954  12.888  34.104   4.578
12135W        W76955  42.019  15.820   4.607
12136W        W76956  39.990  21.087   0.891
12137W        W76957  12.660  33.599   0.455
12138W        W76958   0.944  20.294  11.168
12139W        W76959   9.756  13.592   1.750
12140W        W76960  20.739  25.454  14.538
12141W        W76961  20.029   7.912   0.848
12142W        W76962  18.284  38.979   0.947
12143W        W76963  44.048  19.968   3.730
12144W        W76964  42.266  11.668   2.258
12145W        W76965  38.014  24.995  12.893
12146W        W76966  31.392  10.869   1.272
12147W        W76967  26.588  15.125   2.761
12148W        W76968  28.407  23.529  11.547
12149W        W76969  24.265  10.004   5.021
12150W        W76970  14.095  27.975   0.433
12151W        W76971  17.625  21.071   1.154
12152W        W76972  43.117  29.492   4.304
12153W        W76973  29.762  40.491   1.143
12154W        W76974  35.882  24.667  13.737
12155W        W76975  25.524   6.924   2.834
12156W        W76976  23.557  28.753   3.271
12157W        W76977  29.188  11.110   1.719
12158W        W76978  42.054  43.922   0.822
12159W        W76979  42.480  30.532   2.278
12160W        W76980  19.522  13.976  11.223
12161W        W76981  24.585  40.818   4.344
12162W        W76982  35.080  20.557   4.079
12163W        W76983   7.346   0.122   1.693
12164W        W76984  17.495  18.782  10.837
12165W        W76985  33.967  24.478  13.563
12166W        W76986  29.876  19.114   1.828
12167W        W76987  11.439  23.524   0.792
12168W        W76988  14.678  34.188  11.999
12169W        W76989   0.838  43.765  13.146
12170W        W76990  33.522  39.814   2.979
12171W        W76991  33.941   4.806   3.596
12172W        W76992  36.036  42.002   0.758
12173W        W76993  39.018  31.833   1.505
12174W        W76994   7.410  34.673   2.301
12175W        W76995   1.898  36.031   3.202
12176W        W76996  36.545  27.930  14.882
12177W        W76997  26.107  44.753  12.881
12178W        W76998  35.602  26.877  12.086
12179W        W76999   6.810  34.618   0.367
12180W        W77000  21.677  18.201   3.755
12181W        W77001   9.736   6.909   2.765
12182W        W77002  21.699  15.036  14.828
12183W        W77003   6.773  44.547   3.264
12184W        W77004  18.037  10.979  10.477
12185W        W77005  20.548  31.548   2.158
12186W        W77006  27.004  13.690   1.509
12187W        W77007  20.598  28.107  10.966
12188W        W77008  13.124  34.619   4.186
12189W        W77009  24.839  35.449  13.901
12190W        W77010  35.199   6.274   2.816
12191W        W77011   0.339  26.146  14.481
12192W        W77012   3.303  22.013   0.451
12193W        W77013  14.585  30.995  11.534
12194W        W77014  30.481   1.695  13.871
12195W        W77015   9.620  26.511  12.641
12196W        W77016  15.674  36.343  12.339
12197W        W77017  28.476   5.572  11.738
12198W        W77018  22.012  40.536  13.481
12199W        W77019  20.627  43.548  13.541
12200W        W77020  24.949  34.736   3.706
12201W        W77021  42.992   2.827   4.775
12202W        W77022  21.725  29.606  14.405
12203W        W77023  31.457  17.122   0.932
12204W        W77024   4.327  28.536  10.706
12205W        W77025  23.679   6.791   1.269
12206W        W77026  32.558  12.137   4.365
12207W        W77027  22.824  33.044  12.023
12208W        W77028  27.981  13.060   4.066
12209W        W77029  40.582  22.232  11.591
12210W        W77030  23.563  15.189  10.748
12211W        W77031  33.134  37.004   0.684
12212W        W77032  37.622  36.567  12.048
12213W        W77033  42.365  26.915  11.169
12214W        W77034  41.461  36.485  14.657
12215W        W77035   4.737   2.470   2.810
12216W        W77036   0.409  44.518  11.608
12217W        W77037  41.954  26.995   4.618
12218W        W77038  30.943  22.729   2.584
12219W        W77039  41.570  34.515   4.087
12220W        W77040  22.004  35.416  14.322
12221W        W77041  22.755  39.977  11.101
12222W        W77042  26.356  43.468  14.877
12223W        W77043  14.200   6.626  14.739
12224W        W77044   0.697  43.183  12.404
12225W        W77045  11.841  18.329   5.070
12226W        W77046  20.253  42.532  14.817
12227W        W77047  43.224  44.679  11.047
12228W        W77048   0.282  25.526  11.640
12229W        W77049  28.024  26.980   2.106
12230W        W77050  41.940   2.251  12.919
12231W        W77051  32.530   4.003   1.784
12232W        W77052  22.018  36.379   4.137
12233W        W77053  31.554  22.375   0.930
12234W        W77054   3.962  24.866  10.032
12235W        W77055  10.333  11.357  13.400
12236W        W77056  10.845  19.237  14.459
12237W        W77057  12.611  21.172  14.890
12238W        W77058   3.362  34.618  13.539
12239W        W77059  36.025   8.058  14.436
12240W        W77060  18.515   6.200  13.473
12241W        W77061  41.455  11.414   0.595
12242W        W77062   5.590  29.345   0.944
12243W        W77063  17.392   1.695  11.173
12244W        W77064  34.036   5.613   0.880
12245W        W77065  41.716  18.920   2.791
12246W        W77066  23.103  43.285  12.666
12247W        W77067  34.498  24.185  14.319
12248W        W77068  26.937  14.204   0.763
12249W        W77069  27.159  29.148  11.966
12250W        W77070  31.071   0.689  10.393
12251W        W77071  16.037   8.929  12.589
12252W        W77072  40.466  29.990  10.668
12253W        W77073   1.922  12.887  14.850
12254W        W77074  36.432  10.528  13.079
12255W        W77075   3.340  43.909   0.232
12256W        W77076  25.725  41.653  10.340
12257W        W77077   7.038   8.752  11.225
12258W        W77078  14.259   3.935   3.895
12259W        W77079  41.833  26.494  14.860
12260W        W77080  36.960  41.913  11.958
12261W        W77081  39.446  22.841  13.560
12262W        W77082   7.410   2.037  13.024
12263W        W77083   3.242  27.942   1.289
12264W        W77084  41.515  34.118   3.076
12265W        W77085  28.551   9.142   0.209
12266W        W77086  44.896   9.552   0.337
12267W        W77087   2.243  38.532   1.380
12268W        W77088  35.143  41.328   2.253
12269W        W77089   7.200  22.986   4.409
12270W        W77090   8.868  15.605  11.999
12271W        W77091  19.702  35.313   2.006
12272W        W77092  38.703  36.409  10.499
12273W        W77093  16.136   5.899   3.634
12274W        W77094  36.325  41.881   2.290
12275W        W77095  18.147  16.897   4.700
12276W        W77096  16.862   3.413   3.939
12277W        W77097   2.908  24.171   1.462
12278W        W77098  22.161  32.098   0.813
12279W        W77099  41.397  42.717   3.205
12280W        W77100   3.001  23.470   2.217
12281W        W77101  37.132  24.882   3.235
12282W        W77102   7.145  28.388   3.814
12283W        W77103   1.647  11.230   4.236
12284W        W77104  22.485  44.361   2.785
12285W        W77105  30.537  22.204  12.529
12286W        W77106  38.142  10.771  11.113
12287W        W77107  11.596  36.786  11.767
12288W        W77108   9.404  40.981   5.023
12289W        W77109  12.274  40.541  12.355
12290W        W77110  16.191  20.712  14.367
12291W        W77111  26.887   5.343   0.951
12292W        W77112  40.781  25.350   0.933
12293W        W77113  16.652  27.120  11.044
12294W        W77114  31.189  13.801  11.654
12295W        W77115  23.161  28.637   1.728
12296W        W77116  14.728   5.488   4.575
12297W        W77117  20.723  43.994  10.768
12298W        W77118  22.238  30.056  12.929
12299W        W77119  41.925  38.398  11.736
12300W        W77120  40.767  15.105  11.078
12301W        W77121  18.762  12.222  14.249
12302W        W77122  21.288  39.576   3.355
12303W        W77123  11.338   5.921   1.785
12304W        W77124  18.579  33.153   1.323
12305W        W77125  36.049  21.990  10.789
12306W        W77126   2.926  22.788  12.777
12307W        W77127   7.657  10.316  13.408
12308W        W77128  10.453  44.932   0.117
12309W        W77129   9.370  17.887   2.815
12310W        W77130  28.942  16.273  12.558
12311W        W77131  26.618  44.710   0.745
12312W        W77132   0.318   3.664  12.529
12313W        W77133  41.247  11.839   0.370
12314W        W77134   1.817   7.625   4.203
12315W        W77135   1.150   8.592  13.805
12316W        W77136  33.330  42.810   0.027
12317W        W77137  26.463  15.181  10.613
12318W        W77138   4.284  10.325  12.021
12319W        W77139   4.249  18.671   2.314
12320W        W77140  33.078  43.290   4.870
12321W        W77141  43.683  25.952   4.446
12322W        W77142  15.785  11.260   0.511
12323W        W77143  14.075  34.368   3.257
12324W        W77144  43.188   5.749   2.914
12325W        W77145   2.310  33.319  11.091
12326W        W77146  41.294  32.146  12.455
12327W        W77147  40.177  30.456   2.098
12328W        W77148  22.114  29.009   4.501
12329W        W77149  16.147  12.080   2.626
12330W        W77150  40.724   3.763  14.950
12331W        W77151  25.286  30.200   3.580
12332W        W77152  14.122  34.951   0.768
12333W        W77153  32.398  14.270   1.815
12334W        W77154   1.021   3.206  14.921
12335W        W77155  19.120  14.574   4.218
12336W        W77156  40.840  43.591  11.540
12337W        W77157   2.110  18.664  11.218
12338W        W77158  32.120  27.958  14.270
12339W        W77159  24.910  32.587   2.729
12340W        W77160  17.989  12.224  13.539
12341W        W77161  36.577  26.878  14.794
12342W        W77162  37.389  26.391   3.714
12343W        W77163   7.282  15.816   0.406
12344W        W77164   3.732  38.139   0.985
12345W        W77165  13.855  44.482  13.059
12346W        W77166  35.504  30.507  12.809
12347W        W77167   0.378  24.498   1.296
12348W        W77168  38.612  22.438   3.252
12349W        W77169  35.920  40.889  12.500
12350W        W77170  24.477   1.414   3.328
12351W        W77171  29.420  36.170  12.874
12352W        W77172  33.026  23.438   3.619
12353W        W77173  18.714  44.795  13.563
12354W        W77174  12.086  18.418   9.904
12355W        W77175  39.983  38.937   0.729
12356W        W77176  33.677  21.086   2.851
12357W        W77177  44.954  16.239   4.229
12358W        W77178  35.942  36.027   3.820
12359W        W77179   3.228  18.457   0.798
12360W        W77180  32.867  32.373  10.620
12361W        W77181  33.412   5.178   1.276
12362W        W77182  21.407   9.772  11.125
12363W        W77183   4.864  36.593   2.323
12364W        W77184  41.083  39.355   3.193
12365W        W77185  38.966  40.253  13.122
12366W        W77186  12.267   9.197  10.450
12367W        W77187  10.439  10.696   1.727
12368W        W77188   5.382   3.993   2.104
12369W        W77189  25.972  30.118   2.186
12370W        W77190  18.492  23.206  13.016
12371W        W77191  26.139  26.995  13.389
12372W        W77192   7.623  40.423  12.986
12373W        W77193   7.295  20.793  14.725
12374W        W77194   5.109  18.547  13.410
12375W        W77195  32.876   3.709  13.954
12376W        W77196  24.629  32.014   0.268
12377W        W77197  11.883  35.993  11.169
12378W        W77198  41.133  13.152   2.350
12379W        W77199  43.486  25.065  12.988
12380W        W77200  41.365  26.251  13.100
12381W        W77201  35.690  35.089   4.083
12382W        W77202   1.185  11.716  12.577
12383W        W77203   1.416   5.986  14.862
12384W        W77204  38.563  18.603   3.496
12385W        W77205  30.681  15.341  11.394
12386W        W77206  15.063   5.966   1.366
12387W        W77207   2.984  43.763  14.780
12388W        W77208   8.827   2.862   0.407
12389W        W77209   1.166  29.600   0.543
12390W        W77210  25.039  36.528   1.946
12391W        W77211  36.928   4.195   2.323
12392W        W77212  28.453  39.471  12.908
12393W        W77213  23.716  42.090  11.437
12394W        W77214  26.902  27.465   1.889
12395W        W77215  36.442  33.552  12.150
12396W        W77216   3.778  12.875  12.067
12397W        W77217  18.980   9.698   1.738
12398W        W77218   9.151   7.813  12.894
12399W        W77219  28.338  26.375  12.151
12400W        W77220  29.480  40.428   3.494
12401W        W77221  11.306  24.718  12.168
12402W        W77222  19.841  40.904  12.617
12403W        W77223  10.288   3.380   0.522
12404W        W77224  13.182  27.388   2.008
12405W        W77225  23.023  30.193   3.231
12406W        W77226  44.600   0.255  14.405
12407W        W77227  27.675  28.116  12.512
12408W        W77228  33.838  41.548  11.979
12409W        W77229  13.096   0.590   4.516
12410W        W77230   9.357  28.732   2.384
12411W        W77231  12.854  44.345  12.696
12412W        W77232  29.777  39.392  13.323
12413W        W77233  35.320   9.818   3.523
12414W        W77234  39.487  43.980   2.754
12415W        W77235  18.116  17.937   4.201
12416W        W77236  44.291  28.469   3.413
12417W        W77237  14.040  24.653  14.002
12418W        W77238  16.000  12.084  11.777
12419W        W77239  23.442  40.873  11.457
12420W        W77240  15.190  27.499  12.713
12421W        W77241  10.856  13.337  13.837
12422W        W77242   5.368  24.216   0.878
12423W        W77243  12.652   0.315   2.735
12424W        W77244  26.571  10.291   0.707
12425W        W77245  16.773   6.012  14.374
12426W        W77246  30.630  36.496  13.285
12427W        W77247  11.221  37.983  13.605
12428W        W77248  11.813  44.519   1.837
12429W        W77249  32.887  34.466  13.914
12430W        W77250   5.330   9.111   3.222
12431W        W77251  17.707  19.988  12.014
12432W        W77252  40.522   8.712  10.530
12433W        W77253  16.737   0.136  13.842
12434W        W77254  26.517  29.465   0.916
12435W        W77255  39.858  19.150   4.121
12436W        W77256  34.082  27.405  13.498
12437W        W77257  44.799  29.121  14.448
12438W        W77258   8.812  33.608   0.764
12439W        W77259   2.481  12.772   1.365
12440W        W77260  37.542  10.229  13.892
12441W        W77261   4.908   1.270   2.187
12442W        W77262   5.381   7.542   2.479
12443W        W77263  33.872  29.595   1.772
12444W        W77264  41.099  25.081   3.674
12445W        W77265  44.541   2.527  12.430
12446W        W77266  32.635  34.844   1.767
12447W        W77267  27.569  32.136   1.272
12448W        W77268  23.684   7.175  11.201
12449W        W77269  12.390  15.351  14.658
12450W        W77270  35.216   9.373  11.653
12451W        W77271  22.232  19.586   1.713
12452W        W77272   8.674  37.420   1.407
12453W        W77273  31.963  33.643  12.212
12454W        W77274  31.376  21.985   1.436
12455W        W77275  36.175   2.094   1.304
12456W        W77276  41.343  24.090   2.878
12457W        W77277   0.649  25.431  11.990
12458W        W77278  31.666   5.241   3.913
12459W        W77279   7.785   1.333  14.405
12460W        W77280  24.041  43.982   1.283
12461W        W77281  18.885   0.256  11.145
12462W        W77282  30.690   7.211  14.379
12463W        W77283  38.810   7.295   0.307
12464W        W77284   4.380  29.191  12.385
12465W        W77285  30.926  25.052  10.147
12466W        W77286  11.595   9.723  13.131
12467W        W77287  24.161  26.752   0.755
12468W        W77288  43.388  27.669   2.677
12469W        W77289  34.090  27.986   5.866
12470W        W77290  32.897  20.617   0.868
12471W        W77291  43.216  12.119   3.179
12472W        W77292   5.913  10.225   4.772
12473W        W77293  25.910  27.384   2.565
12474W        W77294  12.421   2.688  14.614
12475W        W77295  20.318  28.281   9.921
12476W        W77296  33.197   9.179   1.238
12477W        W77297  34.826  23.133   3.075
12478W        W77298   8.329  32.018  11.363
12479W        W77299  23.721  30.988  14.998
12480W        W77300   1.732  26.969  14.855
12481W        W77301   5.595   6.579   2.202
12482W        W77302  20.190  32.374   4.563
12483W        W77303   1.362  15.156   1.281
12484W        W77304  27.990  33.087  11.913
12485W        W77305  30.105  20.442   4.303
12486W        W77306  44.953  33.160  13.595
12487W        W77307  34.472  29.763   1.306
12488W        W77308  25.995  24.689   0.908
12489W        W77309  34.989  38.559  12.623
12490W        W77310   5.168  32.310  14.036
12491W        W77311  36.801  38.990  10.241
12492W        W77312  17.614   5.039   2.643
12493W        W77313  41.040   9.949  12.108
12494W        W77314   5.946   1.403  11.190
12495W        W77315  40.391  24.220   0.406
12496W        W77316   0.909   1.009   3.276
12497W        W77317  20.815   8.207  14.321
12498W        W77318   0.188  10.160   3.783
12499W        W77319  25.436  44.531  13.778
12500W        W77320  44.261  39.106  14.841
12501W        W77321  19.833  29.699   3.187
12502W        W77322   5.621  44.704   2.553
12503W        W77323  22.493  16.799   9.979
12504W        W77324  39.165  41.049  13.879
12505W        W77325   9.830  21.175  10.238
12506W        W77326   9.150  36.890   4.342
12507W        W77327  13.109  43.945  12.906
12508W        W77328  36.640  30.975   0.808
12509W        W77329  36.318   3.847   3.618
12510W        W77330  12.719  33.048  10.247
12511W        W77331  40.465  19.620   0.793
12512W        W77332  34.023   1.691   2.884
12513W        W77333  43.274  25.170  14.362
12514W        W77334  41.966  13.787   1.531
12515W        W77335  19.394   9.318  14.956
12516W        W77336  41.146  35.058  11.303
12517W        W77337  38.674   6.653  10.162
12518W        W77338  36.666  25.534   2.387
12519W        W77339  16.689  20.088  14.935
12520W        W77340  27.431  17.726  12.931
12521W        W77341   6.940   7.649  14.502
12522W        W77342  38.622  21.202  12.019
12523W        W77343   6.554  16.318   0.927
12524W        W77344  16.518  13.727   1.319
12525W        W77345  43.797  16.758   3.299
12526W        W77346  14.106  23.443  12.134
12527W        W77347  29.115  21.593  11.614
12528W        W77348  42.172  25.254  13.549
12529W        W77349   4.388  42.641  14.827
12530W        W77350  37.628  28.126   4.227
12531W        W77351  10.095   5.270  14.801
12532W        W77352  18.874   5.921   4.481
12533W        W77353  37.988  40.919  14.888
12534W        W77354   7.640   2.396   1.653
12535W        W77355  33.586  37.431   3.933
12536W        W77356  31.569  20.174   3.097
12537W        W77357  44.280  19.930  13.226
12538W        W77358  19.542  27.419  14.487
12539W        W77359   3.698  38.221  14.666
12540W        W77360   9.006   1.760   0.246
12541W        W77361  29.097  34.920   1.675
12542W        W77362  19.864  35.783   3.764
12543W        W77363  30.837  29.200  13.251
12544W        W77364  14.818  29.612  11.382
12545W        W77365   9.261  44.021  12.982
12546W        W77366  32.852   2.501  14.378
12547W        W77367  43.615  36.302   4.174
12548W        W77368   6.644   8.377   2.726
12549W        W77369  26.592  41.012  12.534
12550W        W77370  43.578   8.775   0.430
12551W        W77371  16.822  21.974   2.711
12552W        W77372  36.862   7.371   0.463
12553W        W77373  13.160   1.863   0.905
12554W        W77374  35.476  16.402   2.153
12555W        W77375  28.902  17.271  10.720
12556W        W77376  21.840   7.695   4.314
12557W        W77377   4.087  10.094   1.308
12558W        W77378  24.019  30.581   1.242
12559W        W77379  24.081  32.924  11.613
12560W        W77380  42.022   4.691   9.989
12561W        W77381  44.886  30.561   1.482
12562W        W77382   6.883  12.194   4.187
12563W        W77383  43.358   6.273   3.840
12564W        W77384  25.587  27.970  14.996
12565W        W77385  16.607   8.168   0.997
12566W        W77386  10.972   7.677   0.144
12567W        W77387  31.592  30.551   0.960
12568W        W77388  17.214  21.982  11.698
12569W        W77389  21.407  13.361  12.432
12570W        W77390  10.260  33.204   5.003
12571W        W77391  10.849  38.490  10.812
12572W        W77392   2.316  18.465   0.916
12573W        W77393  18.219  23.505   3.733
12574W        W77394  20.517  33.401   4.553
12575W        W77395   2.859   6.734  11.100
12576W        W77396  37.798  14.750  11.934
12577W        W77397  44.813  35.419  11.661
12578W        W77398  30.355   4.875   4.024
12579W        W77399  15.505  17.543   4.907
12580W        W77400  14.079  39.483   0.952
12581W        W77401  32.114   6.971  13.462
12582W        W77402  24.051   2.421   1.856
12583W        W77403  22.207  30.584  13.701
12584W        W77404   6.709   2.996  10.645
12585W        W77405  20.254   3.494  14.992
12586W        W77406  35.463   3.839  13.516
12587W        W77407  17.038  20.591   3.284
12588W        W77408  40.807  32.033   1.435
12589W        W77409  24.167  35.596  13.139
12590W        W77410  39.442  41.768   3.135
12591W        W77411  10.265  10.867  14.602
12592W        W77412   6.983  13.821   4.582
12593W        W77413   0.529  23.037   2.794
12594W        W77414  19.385  29.560  12.197
12595W        W77415  18.653  25.074  12.198
12596W        W77416  30.007  23.125   4.494
12597W        W77417  24.088  13.724   4.637
12598W        W77418  30.427  15.079   2.359
12599W        W77419   5.758  32.038  12.882
12600W        W77420  16.742  33.784   4.605
12601W        W77421  22.492   9.489  13.562
12602W        W77422  24.001  20.623   0.030
12603W        W77423  42.028   8.405  13.039
12604W        W77424  14.640  14.198   0.854
12605W        W77425  16.432   6.886  11.621
12606W        W77426  28.158  20.041   2.817
12607W        W77427  34.705   5.782  12.987
12608W        W77428  14.028  35.503   0.850
12609W        W77429   9.693  11.006   4.510
12610W        W77430   7.354   8.666  12.795
12611W        W77431  25.878  13.382   0.351
12612W        W77432  12.620  19.180   2.917
12613W        W77433  39.594  22.093   4.694
12614W        W77434  43.347   6.033   3.343
12615W        W77435  37.737   7.850   3.013
12616W        W77436  10.215  17.279   0.745
12617W        W77437  39.010  16.688  13.478
12618W        W77438  42.794  14.626   3.066
12619W        W77439  15.770  37.672   3.234
12620W        W77440  32.621  25.753   4.141
12621W        W77441  14.631  38.616  13.249
12622W        W77442   3.978  44.826  10.508
12623W        W77443  30.468  36.415   4.808
12624W        W77444  39.258  14.827   4.626
12625W        W77445   0.302  11.887   2.155
12626W        W77446  26.719  15.700   2.141
12627W        W77447   9.633  34.096   3.341
12628W        W77448  44.277  12.650   0.734
12629W        W77449  34.351  11.929   3.625
12630W        W77450  11.243  40.539   2.628
12631W        W77451  10.647  21.685  14.435
12632W        W77452   4.917  27.289   1.670
12633W        W77453  22.256  17.616  11.099
12634W        W77454  13.761  25.022   3.601
12635W        W77455  37.513  39.422   2.366
12636W        W77456  44.783   9.572   2.683
12637W        W77457  15.940   8.623   3.242
12638W        W77458  15.280  39.038  10.872
12639W        W77459  12.608  34.986  13.743
12640W        W77460   4.754  29.430   0.250
12641W        W77461  35.997  21.127   2.033
12642W        W77462  19.117  33.583   0.316
12643W        W77463  28.379  39.378   5.086
12644W        W77464   4.776  37.939  12.797
12645W        W77465  35.492   4.264  11.676
12646W        W77466  20.935  20.148  14.400
12647W        W77467  31.573  17.969  14.808
12648W        W77468  41.927   6.686  13.725
12649W        W77469  10.673  33.069   0.879
12650W        W77470  42.941   8.147   4.295
12651W        W77471  37.330  20.280  12.400
12652W        W77472  29.508  32.891   3.275
12653W        W77473   2.509  13.634   2.834
12654W        W77474  28.460  41.002   1.299
12655W        W77475  13.010  20.881   1.004
12656W        W77476  33.104  16.028  14.248
12657W        W77477   3.064   6.738   2.173
12658W        W77478   4.049  42.398  13.322
12659W        W77479  13.105  44.585   3.668
12660W        W77480  22.086  24.087  10.630
12661W        W77481   6.225  23.615  12.440
12662W        W77482  17.268  38.807   5.318
12663W        W77483   6.280  34.087   2.715
12664W        W77484  22.753  29.336   3.317
12665W        W77485  41.146  37.124  13.639
12666W        W77486  27.000  26.610  13.853
12667W        W77487  41.997  35.049  14.265
12668W        W77488  38.115  11.801   4.547
12669W        W77489  30.905  12.567  10.199
12670W        W77490  12.123  23.937  12.897
12671W        W77491  16.286  15.821  14.502
12672W        W77492  11.673  31.640   1.011
12673W        W77493  22.668  42.510   1.339
12674W        W77494  37.190  27.034   4.218
12675W        W77495  28.008   1.446   4.375
12676W        W77496   6.766   4.908  11.503
12677W        W77497  19.180   5.258  14.348
12678W        W77498  32.083   2.991  13.948
12679W        W77499  22.770  17.374   0.255
12680W        W77500   2.974  36.978   1.242
12681W        W77501  33.861  44.206   1.221
12682W        W77502  18.103  14.003  14.401
12683W        W77503  12.706  34.021  14.499
12684W        W77504  39.531  27.776  12.424
12685W        W77505  36.920  11.504   5.014
12686W        W77506   8.749  30.430  13.006
12687W        W77507  24.286   1.973  13.583
12688W        W77508  33.619   1.882   3.176
12689W        W77509  32.494   7.277   1.740
12690W        W77510  38.231   6.116  11.224
12691W        W77511  13.050   8.576  11.700
12692W        W77512  37.605   6.442   3.615
12693W        W77513  27.472   6.889   0.891
12694W        W77514  20.802   2.186   0.292
12695W        W77515  20.732  25.106   4.687
12696W        W77516   2.410   7.778   0.270
12697W        W77517  22.580  25.105  11.727
12698W        W77518  29.076  23.941   3.602
12699W        W77519  14.910  11.022   1.781
12700W        W77520  20.267  30.567   2.662
12701W        W77521  21.571  16.535   4.634
12702W        W77522  11.076  44.787  13.004
12703W        W77523  29.389  11.452  11.930
12704W        W77524  17.766  33.532   0.008
12705W        W77525  36.664  43.325  11.900
12706W        W77526  43.234  28.926  11.624
12707W        W77527  20.302  27.623   2.422
12708W        W77528  14.537   2.654   2.104
12709W        W77529  33.380   1.436  12.016
12710W        W77530   9.793   3.664  12.041
12711W        W77531  11.130  34.517  12.597
12712W        W77532  44.400  28.039   2.578
12713W        W77533   6.167  16.310  14.762
12714W        W77534  26.125  43.954   1.506
12715W        W77535   1.434  11.213   1.846
12716W        W77536  20.790  24.655  12.492
12717W        W77537   8.393  44.311   4.286
12718W        W77538   0.891  40.944   3.867
12719W        W77539  22.213   3.878   1.038
12720W        W77540   7.660  20.751   4.488
12721W        W77541  21.757  20.282   1.695
12722W        W77542  35.868  24.687   2.660
12723W        W77543  29.186  34.458   3.738
12724W        W77544  11.658  38.108   2.637
12725W        W77545  32.530  12.285   0.424
12726W        W77546  44.339  41.784  10.924
12727W        W77547  22.636   5.561  14.913
12728W        W77548   0.969  17.577  13.165
12729W        W77549  33.885  16.156  11.234
12730W        W77550  39.409   1.035  10.659
12731W        W77551   2.487   5.319   3.606
12732W        W77552   3.518  28.196  12.619
12733W        W77553  20.471  23.008  14.413
12734W        W77554  39.350  24.388  14.967
12735W        W77555  31.412   6.941  12.651
12736W        W77556  19.245   0.672   4.560
12737W        W77557   1.517  40.453  12.896
12738W        W77558   9.734  18.541  12.905
12739W        W77559  10.999  36.023   0.836
12740W        W77560  34.654   8.905   0.289
12741W        W77561  19.293   8.108   2.235
12742W        W77562  41.721  19.800   2.690
12743W        W77563  10.414  39.868  14.296
12744W        W77564  41.325  42.029  12.458
12745W        W77565  22.168   6.195   1.277
12746W        W77566  40.065  38.381  14.431
12747W        W77567  24.951   2.004   2.246
12748W        W77568  25.235  19.151  11.158
12749W        W77569   8.262   2.417  13.795
12750W        W77570  28.953  39.844   0.014
12751W        W77571  18.071  34.386   2.217
12752W        W77572  34.602   3.887   1.804
12753W        W77573  19.055  35.333   4.425
12754W        W77574  10.791   3.032  13.009
12755W        W77575  24.996   1.233  12.343
12756W        W77576   9.196  13.335  13.552
12757W        W77577   0.951  39.247   0.220
12758W        W77578  17.572  18.303  11.570
12759W        W77579  28.620  44.151  14.825
12760W        W77580   4.668  38.613  14.424
12761W        W77581   9.269  31.634  13.017
12762W        W77582  38.828  16.694   1.415
12763W        W77583  31.142  27.416   3.344
12764W        W77584  23.691  34.670  10.695
12765W        W77585  19.708  30.855   0.881
12766W        W77586  17.671   1.003  11.919
12767W        W77587  43.183   0.927  11.135
12768W        W77588  18.133  13.609  10.466
12769W        W77589  40.278  28.738  11.177
12770W        W77590  29.449  22.038  11.182
12771W        W77591   5.148   1.897   2.369
12772W        W77592  27.235   0.681  11.886
12773W        W77593   0.309  20.216   3.651
12774W        W77594  16.652  24.700  12.925
12775W        W77595  41.159  32.068  13.614
12776W        W77596  29.173  13.557   4.119
12777W        W77597   9.541  38.780   0.917
12778W        W77598  36.341  41.400   4.981
12779W        W77599  30.445  10.764   2.779
12780W        W77600  29.127  26.633   1.312
12781W        W77601   9.577  24.341   0.066
12782W        W77602   8.476   4.362  11.715
12783W        W77603   2.243  38.371   1.879
12784W        W77604  14.734  11.246   4.106
12785W        W77605  13.682   8.378  13.148
12786W        W77606  20.680  16.052   4.835
12787W        W77607  38.880  13.301   1.722
12788W        W77608  38.356  41.323  13.271
12789W        W77609  18.622   0.352  11.567
12790W        W77610   0.679  24.825  14.937
12791W        W77611  33.575   5.133   4.417
12792W        W77612  16.974  12.133  13.416
12793W        W77613  19.009  17.977   4.627
12794W        W77614  22.143  20.033   1.470
12795W        W77615   7.096  17.301   0.229
12796W        W77616  17.288  12.043  12.076
12797W        W77617  36.678  35.113   4.072
12798W        W77618  14.271  37.200  14.720
12799W        W77619  19.618  26.992  11.534
12800W        W77620   0.559  26.080  10.442
12801W        W77621  28.450  28.938   3.956
12802W        W77622  11.722  40.108   4.098
12803W        W77623   7.831  14.013  13.958
12804W        W77624   2.423  10.377  10.787
12805W        W77625   1.671  20.573  14.842
12806W        W77626  29.999  36.204   1.852
12807W        W77627  39.570   6.206   1.231
12808W        W77628  21.283  30.865  13.369
12809W        W77629  41.024  16.175   4.094
12810W        W77630  23.618  21.791  11.702
12811W        W77631  33.815  26.995   3.162
12812W        W77632  21.009  10.426   2.239
12813W        W77633  40.810  38.955   3.362
12814W        W77634  10.833  44.241  11.381
12815W        W77635   0.379   8.697   0.259
12816W        W77636  38.627   3.963  12.852
12817W        W77637  34.663   0.799  11.031
12818W        W77638  33.516  26.648  13.496
12819W        W77639  37.943  21.510  13.395
12820W        W77640   6.291  32.473   1.311
12821W        W77641  20.821  15.595   5.031
12822W        W77642  31.945   5.992   1.305
12823W        W77643  33.082  11.244   1.998
12824W        W77644  31.509  19.868   0.826
12825W        W77645  24.167   0.637  12.461
12826W        W77646  10.224   0.462  12.542
12827W        W77647   9.319  41.890  12.884
12828W        W77648  37.980  14.914  14.235
12829W        W77649  27.935  24.492  12.090
12830W        W77650  41.773   6.675  11.999
12831W        W77651  44.501   0.750   2.249
12832W        W77652  21.788  20.909  13.724
12833W        W77653  14.263  21.500   1.509
12834W        W77654  14.768   8.473   5.042
12835W        W77655  23.908   8.934   0.549
12836W        W77656  42.973  22.840  13.451
12837W        W77657   1.302  40.261  14.975
12838W        W77658   9.975  33.132   4.117
12839W        W77659  38.277  10.888   1.861
12840W        W77660  19.633  23.359   0.891
12841W        W77661  34.081   3.733  14.250
12842W        W77662  29.065  21.117   1.678
12843W        W77663  40.648  15.271  14.897
12844W        W77664  37.215  13.584   2.442
12845W        W77665   8.862  29.060  12.000
12846W        W77666  25.362  16.661  12.244
12847W        W77667  10.812  34.722  14.811
12848W        W77668  14.374  18.752  13.574
12849W        W77669  12.686  14.821  13.424
12850W        W77670  23.740   9.384   0.339
12851W        W77671  22.976  12.469  11.190
12852W        W77672  33.216  16.082   3.131
12853W        W77673  40.869  27.805   0.283
12854W        W77674  23.232  32.000  10.684
12855W        W77675  42.909  18.756  10.742
12856W        W77676  30.512   7.989   2.243
12857W        W77677  40.973   7.614  13.419
12858W        W77678   2.338  12.326   1.163
12859W        W77679  39.396  20.304   1.728
12860W        W77680  37.530   4.210  13.070
12861W        W77681  44.973  42.583   3.374
12862W        W77682  24.614   9.850  14.028
12863W        W77683  26.565  16.193  14.263
12864W        W77684  19.593  19.767  11.136
12865W        W77685   8.610  36.976  14.440
12866W        W77686   4.496  12.856  14.101
12867W        W77687  22.788  23.758  13.992
12868W        W77688  13.807  41.382   1.897
12869W        W77689  33.039  11.705  12.915
12870W        W77690  17.696  11.942  12.876
12871W        W77691  36.450   2.782   3.601
12872W        W77692   6.668   0.229  12.598
12873W        W77693  14.242  43.536  10.767
12874W        W77694  26.486  17.313  12.964
12875W        W77695   8.377  44.000   0.379
12876W        W77696  11.048  39.428   0.234
12877W        W77697   3.761  40.538   2.226
12878W        W77698  41.381  35.913  11.795
12879W        W77699  27.089  20.963  13.963
12880W        W77700  32.156  20.573   3.629
12881W        W77701  16.156  30.180  10.464
12882W        W77702  17.235  11.338   1.790
12883W        W77703  27.817  12.791  10.748
12884W        W77704  34.149  27.219  10.693
12885W        W77705   0.915  32.322  14.874
12886W        W77706   0.867   5.941   3.275
12887W        W77707  36.837  29.021  14.070
12888W        W77708  11.806   4.257  11.191
12889W        W77709   7.647  18.017  11.971
12890W        W77710  25.396   8.738   4.060
12891W        W77711  11.335  19.471  11.907
12892W        W77712  11.515   7.094  13.234
12893W        W77713  43.057  37.573  11.592
12894W        W77714  22.006  20.091  14.447
12895W        W77715  24.024  40.469  14.547
12896W        W77716  18.288  24.523  13.387
12897W        W77717  12.364   7.401   2.932
12898W        W77718  36.899  28.040  12.863
12899W        W77719  13.638  34.510   3.485
12900W        W77720  38.523  31.967  11.886
12901W        W77721  13.785  33.577   2.349
12902W        W77722  33.466  28.747   4.840
12903W        W77723   4.195  37.146   2.795
12904W        W77724  33.562  42.131   4.314
12905W        W77725  36.933  31.832   3.931
12906W        W77726  37.542  11.670  13.604
12907W        W77727  11.376  23.187   0.368
12908W        W77728  44.549  36.412  11.202
12909W        W77729  18.959  20.157  14.113
12910W        W77730  33.563  14.606  14.552
12911W        W77731   7.877  15.115  11.168
12912W        W77732   1.351  10.880   3.215
12913W        W77733   1.866   9.824   1.677
12914W        W77734   3.729   3.845   0.928
12915W        W77735  24.685  39.570   0.203
12916W        W77736  17.438  29.580   1.376
12917W        W77737  21.563   3.457   1.738
12918W        W77738  40.207   3.239  14.231
12919W        W77739  18.600   0.428  13.765
12920W        W77740  35.881  12.371  10.671
12921W        W77741  19.597  33.923   0.783
12922W        W77742  40.417  22.045  10.905
12923W        W77743  18.576  14.333   1.006
12924W        W77744  38.817  44.356  12.572
12925W        W77745  23.250  15.640  10.652
12926W        W77746  42.450  14.364  13.080
12927W        W77747  38.513  34.938  14.276
12928W        W77748   3.240  14.762  13.081
12929W        W77749   4.925   6.138  13.761
12930W        W77750  14.911  28.132   4.177
12931W        W77751  14.176  29.558  13.520
12932W        W77752   7.921  17.449   1.934
12933W        W77753  42.027  14.699  12.233
12934W        W77754  19.329  22.653   4.571
12935W        W77755   8.542  21.514  14.212
12936W        W77756  16.764   7.620   1.684
12937W        W77757  26.996   8.097   1.722
12938W        W77758  44.504  42.852  10.376
12939W        W77759  11.678   4.688  13.369
12940W        W77760  23.663   1.237   3.701
12941W        W77761  42.798   8.257  10.692
12942W        W77762   4.399  11.484   0.025
12943W        W77763  39.081  19.655  12.542
12944W        W77764  29.904  11.075   1.388
12945W        W77765  41.651  28.471   2.221
12946W        W77766  31.153  40.078   4.880
12947W        W77767  25.408  41.534  13.955
12948W        W77768   9.565   8.966  11.449
12949W        W77769  33.904   0.236  11.163
12950W        W77770   7.364  25.959   0.065
12951W        W77771  18.579  31.318  14.616
12952W        W77772   0.872  15.736  11.665
12953W        W77773   7.573  35.501  12.952
12954W        W77774   0.360   8.677  11.893
12955W        W77775  15.657  22.701  13.108
12956W        W77776  29.562  38.351   1.353
12957W        W77777   4.366  40.110  12.874
12958W        W77778   4.940   4.030   3.650
12959W        W77779   3.877   3.765   1.437
12960W        W77780  20.704  42.892  11.406
12961W        W77781  39.440  19.238  13.415
12962W        W77782  19.991  23.457   2.464
12963W        W77783  29.436  11.518  13.016
12964W        W77784  17.894  42.496  11.066
12965W        W77785  25.227  39.799  11.085
12966W        W77786  23.928  34.422  10.316
12967W        W77787  38.078   0.367   2.282
12968W        W77788   4.396  20.508  10.705
12969W        W77789  40.332  31.658   4.568
12970W        W77790  26.098  24.827  12.210
12971W        W77791   0.666  20.160  11.639
12972W        W77792  44.831  43.999  14.538
12973W        W77793   3.259  35.004   5.104
12974W        W77794   3.862  14.625  11.204
12975W        W77795  34.167  23.528   2.237
12976W        W77796  32.727  26.155  11.657
12977W        W77797   9.158  21.032   0.219
12978W        W77798   4.202  40.863   2.303
12979W        W77799  11.802  35.885   3.505
12980W        W77800   2.706  39.452  14.177
12981W        W77801  20.800  34.049  12.315
12982W        W77802   9.222  33.031   4.515
12983W        W77803  26.504  21.708  14.015
12984W        W77804  31.325  14.265  10.198
12985W        W77805   9.680  10.248  11.883
12986W        W77806  29.158  27.516   2.732
12987W        W77807  35.671   3.737   3.328
12988W        W77808   8.199  19.055  10.124
12989W        W77809   6.862  20.226  13.128
12990W        W77810  32.290  16.810  11.639
12991W        W77811  23.438  18.118   1.568
12992W        W77812   3.875  27.755  10.711
12993W        W77813  16.696  14.173  11.489
12994W        W77814  21.274  16.215   0.389
12995W        W77815  42.756  40.606  12.040
12996W        W77816  11.842   6.713  10.882
12997W        W77817  40.816  13.241  10.757
12998W        W77818  38.095  29.544   4.278
12999W        W77819  11.122  24.750  14.088
13000W        W77820  13.694   9.181  14.300
13001W        W77821  37.600  36.722   1.216
13002W        W77822   7.005  21.007   2.358
13003W        W77823  30.554  23.052   1.814
13004W        W77824  16.753  26.644   1.270
13005W        W77825  33.828   2.933   0.264
13006W        W77826  43.971  27.424  13.845
13007W        W77827  22.914  31.348  12.834
13008W        W77828  19.060   8.795  14.200
13009W        W77829  30.927  10.681   0.299
13010W        W77830  30.544  44.837   2.431
13011W        W77831  10.643  26.611   0.819
13012W        W77832  20.991  20.347   4.404
13013W        W77833  42.997  11.296   0.288
13014W        W77834  39.867  41.987   2.301
13015W        W77835   2.903  38.099  11.807
13016W        W77836  14.356  18.315  10.506
13017W        W77837   9.366  21.662   0.890
13018W        W77838  17.755   6.900  11.188
13019W        W77839   7.184  35.078  13.376
13020W        W77840   2.881  44.746  13.066
13021W        W77841  20.289   5.289   1.757
13022W        W77842  34.371   7.023  13.271
13023W        W77843  28.453  18.683   3.034
13024W        W77844  35.832  36.266   2.945
13025W        W77845   9.910  39.564  14.701
13026W        W77846  33.539  14.738  11.120
13027W        W77847  43.925  32.634   2.933
13028W        W77848  21.932  39.299  10.466
13029W        W77849  20.719  41.404   1.243
13030W        W77850  44.384   8.723  13.812
13031W        W77851  35.762  34.985  10.704
13032W        W77852  10.624  18.590  11.969
13033W        W77853  40.449  37.342  12.887
13034W        W77854  36.412   6.939  14.952
13035W        W77855  22.773  14.637  11.250
13036W        W77856  32.150  38.568  11.134
13037W        W77857  42.927   2.933   1.810
13038W        W77858   8.039  44.206   9.764
13039W        W77859   8.908  16.140   4.784
13040W        W77860  29.284  32.889  11.943
13041W        W77861  22.371  42.318   0.666
13042W        W77862  26.404  13.470  14.361
13043W        W77863  27.078  15.706  11.168
13044W        W77864  15.519   5.090  14.945
13045W        W77865  22.425  35.532  14.020
13046W        W77866   0.901  22.465  10.330
13047W        W77867   8.290  41.782   4.176
13048W        W77868  43.520  12.712   1.751
13049W        W77869  30.472  16.739  12.171
13050W        W77870  30.956   2.648   3.200
13051W        W77871  30.148  32.447  13.549
13052W        W77872  19.573  17.979   1.349
13053W        W77873  37.922   5.348   1.468
13054W        W77874  35.997  31.625   3.768
13055W        W77875   0.621   6.146  14.860
13056W        W77876   1.010  31.643   3.155
13057W        W77877  35.679  34.861  13.408
13058W        W77878   9.276  32.875   0.163
13059W        W77879  38.557  25.125  13.950
13060W        W77880  19.271  19.674  11.538
13061W        W77881  35.516  13.380  12.039
13062W        W77882   8.886   5.010  12.575
13063W        W77883   4.544  43.033  13.908
13064W        W77884  41.600  12.968  14.468
13065W        W77885   6.482  33.552   3.599
13066W        W77886  42.831  22.327   3.564
13067W        W77887   2.076  12.814   4.188
13068W        W77888  41.045  13.296   4.102
13069W        W77889  14.027  11.154   0.295
13070W        W77890  17.237  42.001  13.721
13071W        W77891   7.618   7.035   1.347
13072W        W77892  29.157  12.700   4.036
13073W        W77893  28.206  14.370   1.331
13074W        W77894  19.068   5.754  11.109
13075W        W77895   6.127  20.199   0.776
13076W        W77896  44.371   9.711  13.863
13077W        W77897   6.949  37.921   0.272
13078W        W77898  28.590  24.865   4.759
13079W        W77899   0.002  12.918   3.210
13080W        W77900  40.966   0.419   4.566
13081W        W77901  17.213   8.732  10.195
13082W        W77902  22.832  27.580   3.196
13083W        W77903  21.713  29.214  13.435
13084W        W77904   9.252   9.564   4.251
13085W        W77905  19.304   2.038  12.445
13086W        W77906   6.300  14.697   1.275
13087W        W77907  42.275   7.633  11.998
13088W        W77908   0.769  39.036   4.585
13089W        W77909  40.076  39.990   3.758
13090W        W77910  43.295  12.308  14.600
13091W        W77911  13.165  23.870  11.873
13092W        W77912  39.486   4.255   2.657
13093W        W77913  16.724  35.014   1.244
13094W        W77914   6.692  43.279   3.183
13095W        W77915  11.373  17.719  11.850
13096W        W77916  39.121  41.998  12.311
13097W        W77917  44.920   5.843   0.358
13098W        W77918   5.399   2.331  13.340
13099W        W77919  28.004  35.599  13.381
13100W        W77920  28.753  42.230  12.953
13101W        W77921  21.784  11.106   0.492
13102W        W77922  30.127   3.923   0.685
13103W        W77923  25.186   7.031   1.545
13104W        W77924   1.945  22.756   4.861
13105W        W77925  13.365   0.478  12.000
13106W        W77926  36.381  30.411   3.251
13107W        W77927   6.600  10.909   0.255
13108W        W77928  11.573  12.209   2.162
13109W        W77929   4.988  29.974   1.816
13110W        W77930  23.474  17.663   3.739
13111W        W77931  40.985  18.976  12.577
13112W        W77932  20.608  43.540   3.309
13113W        W77933   0.207  31.631  10.802
13114W        W77934  16.155  31.146  12.378
13115W        W77935   3.868  11.806   2.221
13116W        W77936  28.852   3.303   1.847
13117W        W77937  30.551  25.764  12.131
13118W        W77938  25.224  41.911  14.277
13119W        W77939   0.304  36.764  14.924
13120W        W77940  38.596  19.262  13.861
13121W        W77941   4.203  10.277  14.345
13122W        W77942   8.312   0.350   1.205
13123W        W77943   6.258   7.686  10.291
13124W        W77944  25.697  18.250   0.267
13125W        W77945  24.072  33.385  12.538
13126W        W77946  14.235  38.567  14.802
13127W        W77947  32.990  27.010   5.060
13128W        W77948  40.761  40.039  11.160
13129W        W77949  10.316  22.434   2.365
13130W        W77950  37.127   7.117   3.452
13131W        W77951  39.555  37.125   0.778
13132W        W77952   8.769   8.367  11.725
13133W        W77953  12.538  11.594  10.697
13134W        W77954  38.133  13.676   2.857
13135W        W77955   4.271  29.001  10.482
13136W        W77956  41.372  29.950   2.722
13137W        W77957  42.732  24.950   0.443
13138W        W77958  21.143  10.361   1.408
13139W        W77959  27.479  20.228   1.478
13140W        W77960  35.417  11.121  10.683
13141W        W77961   7.429  33.822   4.054
13142W        W77962  11.554  34.946   0.471
13143W        W77963   1.965   9.322   1.818
13144W        W77964  33.569   3.251   4.642
13145W        W77965  30.105  12.500  13.666
13146W        W77966   2.399   8.364  13.539
13147W        W77967  22.579   1.727  12.376
13148W        W77968  19.738  25.719  13.305
13149W        W77969   8.395  35.634  10.826
13150W        W77970   6.211  38.978  14.357
13151W        W77971  13.986  20.690  11.393
13152W        W77972   1.921  25.963   2.395
13153W        W77973  24.083   8.573   2.573
13154W        W77974  42.967  24.941  14.954
13155W        W77975  28.069   1.305   2.919
13156W        W77976  22.645  33.615   0.198
13157W        W77977  18.846  41.155  14.535
13158W        W77978  18.033  34.108  10.158
13159W        W77979  32.856  44.952  12.525
13160W        W77980  23.068  28.716   2.829
13161W        W77981  32.549  31.165   3.416
13162W        W77982  37.328  17.702  12.908
13163W        W77983  20.738  42.887   0.474
13164W        W77984  18.559  43.249  14.835
13165W        W77985   7.966   1.307   1.931
13166W        W77986  40.052  29.925   3.322
13167W        W77987  44.556   9.866   4.118
13168W        W77988  20.604   6.827  12.091
13169W        W77989  16.188   8.426   2.796
13170W        W77990  39.488   2.844  14.585
13171W        W77991  20.757  42.918   2.761
13172W        W77992  14.364  11.480   3.342
13173W        W77993  28.600  32.017  13.089
13174W        W77994  24.173   5.321   1.248
13175W        W77995  33.556  30.407   2.126
13176W        W77996  31.060  41.638  12.560
13177W        W77997  40.487  19.154  11.368
13178W        W77998  38.827  22.883   1.131
13179W        W77999  39.240  29.542  11.150
13180W        W78000  23.708  33.463  14.309
13181W        W78001  15.514  11.588  11.085
13182W        W78002  19.808  24.616  14.953
13183W        W78003   2.837  32.090   4.561
13184W        W78004   1.815  19.158   0.515
13185W        W78005  35.366  21.581  14.132
13186W        W78006  20.701  42.270   1.465
13187W        W78007  16.300   1.717   3.262
13188W        W78008  35.926  35.552   4.005
13189W        W78009  19.025  22.616   4.147
13190W        W78010  37.446   4.445  14.940
13191W        W78011  37.298  17.218   1.840
13192W        W78012  30.606  16.053  13.364
13193W        W78013  10.931   4.335   3.230
13194W        W78014  41.582  19.160  14.053
13195W        W78015  27.860  24.339   3.284
13196W        W78016  10.741   9.252  14.960
13197W        W78017   8.195  24.228   1.367
13198W        W78018  20.755  23.735   1.388
13199W        W78019  23.713  40.375   4.504
13200W        W78020  12.724  42.517  10.817
13201W        W78021  41.101  39.956   1.370
13202W        W78022  13.259  24.081  10.897
13203W        W78023  35.828   8.372  11.207
13204W        W78024  14.287  24.817   2.024
13205W        W78025  34.480  36.954  13.933
13206W        W78026  26.143  44.970   4.507
13207W        W78027   3.276  39.630  13.465
13208W        W78028  30.159  36.819  11.505
13209W        W78029  32.452  13.318  11.539
13210W        W78030  40.028   8.078  14.780
13211W        W78031  32.427  25.556   1.267
13212W        W78032  38.816  29.078   1.518
13213W        W78033  17.171  13.677  12.944
13214W        W78034  37.672  30.899  12.143
13215W        W78035  31.709  10.647   0.947
13216W        W78036   1.480  41.995   4.718
13217W        W78037  32.932  44.781  14.302
13218W        W78038   2.826  40.395  11.627
13219W        W78039  18.907  25.360  13.132
13220W        W78040  25.389  34.402  11.512
13221W        W78041  37.074  41.849   0.497
13222W        W78042  30.264  30.067  12.415
13223W        W78043  36.974  12.340   0.639
13224W        W78044  17.666  20.961   0.610
13225W        W78045   4.383  37.442  10.656
13226W        W78046   4.184  43.352   1.306
13227W        W78047  29.660  12.695   3.193
13228W        W78048   7.260  39.651   4.644
13229W        W78049  36.456  36.059   2.934
13230W        W78050  17.296   9.721   0.920
13231W        W78051   5.871  21.203  13.112
13232W        W78052  33.157   6.051   2.553
13233W        W78053   8.823   3.793   0.785
13234W        W78054  11.808   7.837  10.761
13235W        W78055  19.496  17.898  11.268
13236W        W78056   9.712  42.027  11.118
13237W        W78057   8.395  33.065   4.096
13238W        W78058  39.227  10.885   1.803
13239W        W78059   7.886  28.428  13.257
13240W        W78060   8.398   7.904   4.073
13241W        W78061  15.772  40.245  13.758
13242W        W78062  10.616  26.423   0.045
13243W        W78063  43.578  31.636   2.276
13244W        W78064  39.236  12.270  11.138
13245W        W78065  38.053  38.038   4.138
13246W        W78066  30.892  29.073  12.081
13247W        W78067  42.470  38.139  12.001
13248W        W78068  22.018  13.764  14.313
13249W        W78069   6.875  27.949   0.307
13250W        W78070  34.405   9.348  14.364
13251W        W78071  30.567  23.707   3.168
13252W        W78072  39.598  41.809  12.383
13253W        W78073   0.995   6.755   1.564
13254W        W78074  43.235  11.348  11.148
13255W        W78075  14.236  40.905   3.217
13256W        W78076  30.465   4.259   1.785
13257W        W78077   3.977  42.233  12.412
13258W        W78078  38.052   7.106   0.936
13259W        W78079  40.614  11.393   1.853
13260W        W78080  42.347  34.559  14.951
13261W        W78081  16.111  20.263  13.180
13262W        W78082   1.283  41.890   3.624
13263W        W78083   1.223   6.826  13.894
13264W        W78084   2.724   3.226  10.729
13265W        W78085  22.633  18.273  12.875
13266W        W78086  25.757  43.756  12.541
13267W        W78087  29.318  42.737   3.178
13268W        W78088   9.891   9.674  12.967
13269W        W78089  34.560  37.387   5.096
13270W        W78090  44.734  15.490  13.270
13271W        W78091  15.781  41.483  14.771
13272W        W78092  22.068  18.669   9.943
13273W        W78093  36.742  31.764  14.422
13274W        W78094  27.892  15.566   0.758
13275W        W78095  25.212  20.767   0.305
13276W        W78096   7.722  32.650   2.865
13277W        W78097  35.840  34.622  11.600
13278W        W78098   5.726   4.305   2.376
13279W        W78099  10.433  32.041   3.239
13280W        W78100  18.581  28.616  13.287
13281W        W78101  42.027  43.051  10.734
13282W        W78102  41.527  33.345   2.312
13283W        W78103  25.113  25.205  12.435
13284W        W78104   5.395  31.544   2.400
13285W        W78105   3.036  26.052   0.719
13286W        W78106   8.749  14.168  13.031
13287W        W78107  35.504   3.927   4.232
13288W        W78108  12.602  35.593   4.563
13289W        W78109  27.405  32.072  11.244
13290W        W78110  29.332  34.660  12.139
13291W        W78111  40.003  20.906  11.995
13292W        W78112   2.687  30.603  11.473
13293W        W78113  41.354  24.906   2.246
13294W        W78114  23.180  43.302   0.363
13295W        W78115  36.648  12.846  13.369
13296W        W78116  12.392  43.953  14.501
13297W        W78117  24.066  40.487  12.525
13298W        W78118  23.936  31.470   0.039
13299W        W78119  41.779  36.310   3.320
13300W        W78120  16.534  32.280  10.088
13301W        W78121  14.417  24.009   3.705
13302W        W78122   5.258  33.668  14.308
13303W        W78123  12.439  25.699   1.380
13304W        W78124  13.856  31.535   4.658
13305W        W78125  21.047   6.320  12.886
13306W        W78126  21.746   4.010  10.665
13307W        W78127  37.175  29.396   0.769
13308W        W78128  34.057   8.947  14.372
13309W        W78129  34.351  17.340  14.520
13310W        W78130  25.461   2.391   2.957
13311W        W78131  21.045  12.322   4.805
13312W        W78132  31.649  13.270  13.790
13313W        W78133  16.125  37.310  11.625
13314W        W78134   4.369   1.700  13.024
13315W        W78135   6.217  21.103   0.807
13316W        W78136  12.325  38.869  12.948
13317W        W78137  25.917  18.466   4.945
13318W        W78138  44.405  12.639   2.213
13319W        W78139   1.452   9.721   1.286
13320W        W78140  21.789  43.225  14.337
13321W        W78141  10.193  40.062  13.859
13322W        W78142   1.784   7.380  13.284
13323W        W78143  13.394   6.210   0.595
13324W        W78144  38.479  12.645   4.487
13325W        W78145  16.681  38.151  11.160
13326W        W78146   5.331  18.585  12.947
13327W        W78147  35.397   2.640  14.127
13328W        W78148   0.168  29.692   0.481
13329W        W78149   6.730  34.208   0.056
13330W        W78150  26.981  26.573   2.751
13331W        W78151  23.889   2.268  14.857
13332W        W78152   8.524  41.926  11.739
13333W        W78153  20.283  10.180   0.022
13334W        W78154   7.692  18.063   5.042
13335W        W78155  33.410  40.321   3.690
13336W        W78156  18.692   9.261  12.973
13337W        W78157  40.782  41.997   2.825
13338W        W78158  30.439   4.753  10.591
13339W        W78159   9.048   1.713  12.382
13340W        W78160  38.943  32.659   2.853
13341W        W78161  11.688   5.500  11.543
13342W        W78162   3.934   9.372   0.484
13343W        W78163   3.242  21.790   1.325
13344W        W78164  39.820   7.382   1.784
13345W        W78165  24.279  25.695  11.590
13346W        W78166  37.905   2.523  14.460
13347W        W78167  18.737   6.231  13.943
13348W        W78168  12.208  42.909  11.465
13349W        W78169  25.769  11.346  14.287
13350W        W78170   9.799  15.586   2.683
13351W        W78171   0.896   3.354   2.745
13352W        W78172  28.610   6.381   2.011
13353W        W78173  30.760  20.585  10.656
13354W        W78174  24.563  27.885   3.539
13355W        W78175  35.959  31.912   2.662
13356W        W78176   9.642  14.123  12.202
13357W        W78177   5.895  35.512   0.994
13358W        W78178  22.401  39.177  14.775
13359W        W78179   5.730  19.041   0.325
13360W        W78180  41.758  34.508   0.694
13361W        W78181   1.196  11.954   3.328
13362W        W78182  43.439   8.041   0.909
13363W        W78183  40.594   9.706  12.001
13364W        W78184   9.317   0.864   1.564
13365W        W78185  41.901  12.766  11.450
13366W        W78186  27.020   8.627   1.653
13367W        W78187   6.229   1.114  14.567
13368W        W78188  10.631  30.840   2.197
13369W        W78189  35.935  19.558   4.372
13370W        W78190   0.299  31.089   4.056
13371W        W78191  13.588  21.649   3.666
13372W        W78192  17.519  10.254   0.912
13373W        W78193  12.287   9.623  14.412
13374W        W78194  31.019  14.367   1.090
13375W        W78195   6.389  13.693  10.839
13376W        W78196  42.505  21.486   0.490
13377W        W78197   1.340  10.542   3.613
13378W        W78198  19.752  13.934  13.953
13379W        W78199   5.807   0.307  14.370
13380W        W78200  12.753  41.413   2.157
13381W        W78201   1.052  35.909  10.515
13382W        W78202  10.442  44.788   4.740
13383W        W78203  37.028  10.328  13.934
13384W        W78204  10.607  31.373   2.225
13385W        W78205   6.709   7.680   1.458
13386W        W78206  39.482   1.303  11.601
13387W        W78207  36.488  40.228  12.243
13388W        W78208  41.341  27.050  14.699
13389W        W78209  26.538  39.552  13.408
13390W        W78210  21.479  26.498   4.085
13391W        W78211  27.684  35.668   0.832
13392W        W78212   9.589  24.424   1.419
13393W        W78213  11.200   1.038   2.287
13394W        W78214  16.542   5.797  12.225
13395W        W78215  34.767  13.084  12.487
13396W        W78216  16.116  30.973   5.349
13397W        W78217   8.738  35.828   3.650
13398W        W78218   0.385  12.174  13.678
13399W        W78219  10.157  44.921  13.296
13400W        W78220  19.062  27.998   1.105
13401W        W78221   1.666  37.099  13.160
13402W        W78222  31.962  28.111  10.484
13403W        W78223  10.425  34.376   2.818
13404W        W78224  14.203   2.736  14.912
13405W        W78225  44.043  35.825  11.724
13406W        W78226  22.492  13.526   2.709
13407W        W78227  13.662  40.486   4.370
13408W        W78228  20.273   9.160   3.489
13409W        W78229  20.043  44.477  14.538
13410W        W78230   7.258  19.689  13.270
13411W        W78231  34.134   9.322   3.225
13412W        W78232  41.803  16.815   4.847
13413W        W78233  29.057  27.043   2.578
13414W        W78234  19.459  28.662  11.620
13415W        W78235   5.741   7.273  14.620
13416W        W78236   7.609  36.593  13.888
13417W        W78237  35.823  35.928   1.574
13418W        W78238  39.876   3.957  14.012
13419W        W78239  11.299  21.042  14.246
13420W        W78240  38.075  44.381   1.325
13421W        W78241  25.306  10.446  12.872
13422W        W78242  36.513  34.552   4.722
13423W        W78243  10.918   0.196   0.914
13424W        W78244  26.194  42.592  13.128
13425W        W78245   4.716  42.460  10.784
13426W        W78246  34.160  20.628  14.737
13427W        W78247  37.849  31.727   1.944
13428W        W78248  26.902  37.189   4.352
13429W        W78249  24.020  42.750  13.361
13430W        W78250  14.033  14.982  11.135
13431W        W78251   6.710  25.149  11.257
13432W        W78252  30.289  16.326  11.557
13433W        W78253  41.748   7.930  11.177
13434W        W78254  26.796  40.827  12.966
13435W        W78255  14.316  28.090  12.189
13436W        W78256  34.419  41.393   2.149
13437W        W78257  33.623  31.617  13.472
13438W        W78258   6.866  25.551  12.523
13439W        W78259   5.845  38.940   0.920
13440W        W78260   6.751   8.613   1.387
13441W        W78261  11.542  40.550   3.234
13442W        W78262  15.021  26.510  12.738
13443W        W78263  12.255  36.448   2.141
13444W        W78264   3.384  29.912   1.030
13445W        W78265   6.338   5.492   1.383
13446W        W78266  32.903  14.241   3.829
13447W        W78267  13.496   7.670  12.848
13448W        W78268   8.622  44.946   2.351
13449W        W78269  32.159   4.385   1.633
13450W        W78270  39.334  35.965   3.563
13451W        W78271  13.885  25.270  10.514
13452W        W78272  25.116  15.337   1.060
13453W        W78273  15.406   7.519   1.637
13454W        W78274  21.326  12.251   3.659
13455W        W78275  14.238  41.114   1.732
13456W        W78276  22.176   1.731  10.636
13457W        W78277  18.523  12.126   0.445
13458W        W78278   9.450  25.714  10.193
13459W        W78279   8.156  40.091   1.798
13460W        W78280   7.864  32.692  11.962
13461W        W78281  16.320   7.753   4.172
13462W        W78282   1.944  33.869  11.225
13463W        W78283  25.062   5.308   4.328
13464W        W78284  10.751  28.212  12.913
13465W        W78285  26.467  42.858   2.311
13466W        W78286   2.441  30.554  11.002
13467W        W78287  21.859  44.368   3.245
13468W        W78288  15.881  33.400   3.242
13469W        W78289  32.053   5.373  12.096
13470W        W78290  13.565  13.293  14.474
13471W        W78291  19.968  18.786   4.124
13472W        W78292  21.165  41.103  12.520
13473W        W78293  13.295   6.328   1.080
13474W        W78294  31.206  20.843  10.646
13475W        W78295   0.681  13.391   2.713
13476W        W78296  18.667   7.897   2.205
13477W        W78297   9.870   1.847   3.073
13478W        W78298  13.339   4.166  13.949
13479W        W78299  34.646  35.811  13.369
13480W        W78300  36.356  37.105  13.376
13481W        W78301  29.098  10.505  13.146
13482W        W78302  29.099   2.213   4.567
13483W        W78303  43.053  25.033  13.890
13484W        W78304  40.133   2.785  13.415
13485W        W78305  26.546  22.777  13.521
13486W        W78306  20.700  31.269   1.698
13487W        W78307  29.103  22.227  12.473
13488W        W78308  37.957  42.980  10.392
13489W        W78309  39.826  37.285   4.512
13490W        W78310  19.477  23.486   4.915
13491W        W78311  40.369  27.060  13.119
13492W        W78312  13.599   1.148  12.121
13493W        W78313  31.108  35.964   1.677
13494W        W78314  22.677   1.952  11.928
13495W        W78315  42.058   8.065   4.135
13496W        W78316  30.134  44.520   2.371
13497W        W78317  28.452  25.990   0.296
13498W        W78318  10.671  27.270   0.303
13499W        W78319  26.715  11.031   2.309
13500W        W78320  20.760   2.912  11.151
13501W        W78321  29.150  15.591  14.454
13502W        W78322  12.355  32.851  13.590
13503W        W78323  42.220  18.172   3.123
13504W        W78324  17.597   1.383   0.992
13505W        W78325  24.739  30.907   2.384
13506W        W78326   5.597  22.640   9.780
13507W        W78327   8.481  32.861  10.885
13508W        W78328   0.203   5.626   4.609
13509W        W78329  35.301  23.114   2.560
13510W        W78330   7.796  38.805  12.073
13511W        W78331  43.068  19.670   0.001
13512W        W78332  25.531  34.160  13.392
13513W        W78333  23.269   5.574  13.408
13514W        W78334   4.923  23.550  13.307
13515W        W78335  43.151  24.053   0.034
13516W        W78336  37.038  11.209  14.081
13517W        W78337  25.054   8.486   1.750
13518W        W78338  31.068  25.204   2.857
13519W        W78339  17.278  40.004  12.094
13520W        W78340   7.115  28.116   1.981
13521W        W78341  34.190   6.768   3.252
13522W        W78342   7.762  43.591   2.657
13523W        W78343  36.896  27.562   3.921
13524W        W78344   3.243  22.502   0.568
13525W        W78345  41.904  15.666  13.221
13526W        W78346  19.533   6.191   4.240
13527W        W78347  20.290  17.311   1.216
13528W        W78348  17.108  28.904  13.460
13529W        W78349  31.521  38.494   2.133
13530W        W78350  39.032   8.155   0.289
13531W        W78351  42.366  39.086   0.726
13532W        W78352  41.375  27.112  10.935
13533W        W78353  21.545  21.980   9.815
13534W        W78354   8.097   0.934  14.551
13535W        W78355  22.812   2.307   1.373
13536W        W78356   6.621   2.370  12.063
13537W        W78357  27.947  42.624  11.121
13538W        W78358  23.824  15.853  14.410
13539W        W78359   9.450  13.195   1.632
13540W        W78360  36.426  32.364  10.375
13541W        W78361  28.672   9.142   2.072
13542W        W78362   3.230   0.278   3.169
13543W        W78363  42.404  14.021  12.591
13544W        W78364  37.843  21.722   1.294
13545W        W78365  43.228  24.747   1.481
13546W        W78366  31.524  15.550  10.724
13547W        W78367  34.807  40.012   1.300
13548W        W78368  30.662  43.767   3.296
13549W        W78369  39.543  40.240  12.455
13550W        W78370  43.371   6.718  12.099
13551W        W78371  26.864   2.693   2.345
13552W        W78372  21.946  31.419  11.323
13553W        W78373   4.673  38.260   3.679
13554W        W78374  23.609  23.724   0.413
13555W        W78375   5.101  17.645  13.390
13556W        W78376  32.760   8.195  14.423
13557W        W78377  32.954  44.808   2.170
13558W        W78378  22.062   6.185  11.182
13559W        W78379  23.605  29.618  12.633
13560W        W78380  18.663  28.060   3.017
13561W        W78381  20.748   0.233   2.790
13562W        W78382  21.853  21.708  11.155
13563W        W78383  33.872  42.554  13.618
13564W        W78384  17.812  13.949  13.981
13565W        W78385   0.494  41.918  13.464
13566W        W78386  10.786  38.905   1.414
13567W        W78387   1.020  39.005   3.735
13568W        W78388  19.729  31.681   3.233
13569W        W78389  34.427  40.917  13.655
13570W        W78390  38.065  17.057   2.167
13571W        W78391  35.511  25.508  14.709
13572W        W78392  16.637  41.642  13.383
13573W        W78393  22.263  16.056   4.148
13574W        W78394  18.647  26.429  11.751
13575W        W78395  20.217  30.132   0.370
13576W        W78396   7.274  42.702   2.769
13577W        W78397  14.515  32.371   2.886
13578W        W78398  34.320   3.140  13.886
13579W        W78399  38.777  13.537   3.669
13580W        W78400  28.582  30.672   0.528
13581W        W78401  23.126   8.418   1.181
13582W        W78402  18.178  10.148   0.785
13583W        W78403   2.491  20.324  10.753
13584W        W78404  23.185  29.554  12.296
13585W        W78405   7.663  29.037   4.214
13586W        W78406  12.748   4.728   3.655
13587W        W78407  19.186  36.388   1.310
13588W        W78408  26.876  43.412  14.860
13589W        W78409  20.237  28.446  14.925
13590W        W78410  19.304   6.234  11.044
13591W        W78411  10.261  22.784   2.759
13592W        W78412  44.868  40.106   1.193
13593W        W78413  39.113  19.102   2.409
13594W        W78414  25.762   6.136  11.044
13595W        W78415  25.746  38.776   1.279
13596W        W78416  10.590  44.880  11.081
13597W        W78417  31.219  39.311   2.943
13598W        W78418  43.680  37.582  11.181
13599W        W78419  13.120  27.951   4.125
13600W        W78420  21.536   9.032  12.005
13601W        W78421  40.713  15.787   1.772
13602W        W78422  25.455  37.382   2.792
13603W        W78423  27.416  26.096   1.202
13604W        W78424  22.243   1.054   1.941
13605W        W78425  11.750   3.760  13.358
13606W        W78426   3.177  26.137  11.617
13607W        W78427   1.403   6.735  14.465
13608W        W78428  37.334  35.529  10.418
13609W        W78429   6.435   6.343  14.725
13610W        W78430  14.221  24.488  10.714
13611W        W78431   5.385  12.387   4.281
13612W        W78432  30.787  43.467   3.693
13613W        W78433  44.011  11.264   0.429
13614W        W78434   6.713  43.840   4.916
13615W        W78435   1.075   8.202   4.635
13616W        W78436  30.505  42.575   3.806
13617W        W78437   8.765  26.591   4.271
13618W        W78438   3.473  32.018  12.713
13619W        W78439  24.627  29.010   3.574
13620W        W78440  28.298   7.086  13.415
13621W        W78441  37.026  17.754  14.461
13622W        W78442  38.062  44.495  11.838
13623W        W78443  11.969  39.006   2.782
13624W        W78444  21.725  23.976  11.662
13625W        W78445  14.842  17.870   2.278
13626W        W78446  16.791   7.286  13.474
13627W        W78447  38.240  14.277   2.888
13628W        W78448  18.469  10.054  13.564
13629W        W78449   6.704  18.159  14.960
13630W        W78450  15.171  29.963   9.851
13631W        W78451  44.371  24.214  10.913
13632W        W78452  16.468   4.889   4.158
13633W        W78453  44.855  19.224  12.863
13634W        W78454   2.021   5.639  11.742
13635W        W78455  21.185  20.004   1.314
13636W        W78456   6.382  27.429   1.812
13637W        W78457   6.213  30.568  14.393
13638W        W78458  13.232  13.573  11.119
13639W        W78459   6.122  26.027  10.261
13640W        W78460  29.990  17.652  14.431
13641W        W78461  13.237   4.731   3.849
13642W        W78462   9.246  21.607  12.933
13643W        W78463  22.039  35.314  13.784
13644W        W78464  40.656  29.002  10.753
13645W        W78465  15.264  21.045  12.505
13646W        W78466  25.678  31.393   4.068
13647W        W78467  16.594  36.151  13.378
13648W        W78468  29.975  14.968   2.552
13649W        W78469   1.005  27.072  12.121
13650W        W78470  38.786  26.669  14.087
13651W        W78471  41.255   6.602   1.817
13652W        W78472  43.542  41.000   0.493
13653W        W78473  38.290  36.155  13.330
13654W        W78474   4.598  27.694   1.592
13655W        W78475  14.606  40.791   2.688
13656W        W78476  36.445  21.336   0.272
13657W        W78477   5.314   1.111   0.858
13658W        W78478   4.703   9.350   3.618
13659W        W78479   7.953   5.933  10.848
13660W        W78480  27.989  10.778   4.590
13661W        W78481   0.371  10.596   3.571
13662W        W78482  24.831  29.952   3.658
13663W        W78483  34.045  30.458  11.565
13664W        W78484  34.585   1.153   3.392
13665W        W78485   6.145  10.635  11.625
13666W        W78486  26.195   6.879  14.357
13667W        W78487  21.121  40.792  13.889
13668W        W78488   9.813   1.183  12.180
13669W        W78489  15.031  27.437   3.113
13670W        W78490   7.008  12.657  12.640
13671W        W78491   6.265  24.677   3.695
13672W        W78492  17.303   4.848  13.732
13673W        W78493   8.259  21.080  10.755
13674W        W78494  18.172  16.200   1.155
13675W        W78495  43.836  31.907  13.952
13676W        W78496  17.364  27.581   2.286
13677W        W78497  15.346  21.039   3.634
13678W        W78498  28.152  43.804   0.897
13679W        W78499   8.046   1.688   5.179
13680W        W78500  17.891  34.650  12.211
13681W        W78501  12.241  21.298   2.366
13682W        W78502   8.324  43.364   1.755
13683W        W78503  30.542  36.881  10.188
13684W        W78504  17.785  23.778   3.684
13685W        W78505  21.561  17.993   3.323
13686W        W78506   7.945  28.680  14.504
13687W        W78507  15.303  31.144   1.722
13688W        W78508  18.202  26.570   4.518
13689W        W78509  19.083  23.040  12.844
13690W        W78510  15.712  10.864  14.419
13691W        W78511   1.948   4.153  14.989
13692W        W78512  32.411   7.503  11.117
13693W        W78513   7.954  21.695  14.751
13694W        W78514  32.615  25.265   3.913
13695W        W78515  43.289  31.322  10.694
13696W        W78516  12.745  30.874  11.976
13697W        W78517   7.209  25.569  10.116
13698W        W78518   3.464  18.187  14.000
13699W        W78519  27.462  36.698   5.050
13700W        W78520  11.259  23.812  11.428
13701W        W78521  25.131   5.695   4.663
13702W        W78522  38.493  15.875   3.746
13703W        W78523   0.436   0.065  14.881
13704W        W78524   3.065   9.346  12.522
13705W        W78525  26.083  17.160  14.923
13706W        W78526  38.912  15.582  13.933
13707W        W78527  15.224  24.491   2.902
13708W        W78528  16.864  34.759   3.599
13709W        W78529  31.284  34.408   1.082
13710W        W78530  42.177  32.724  14.461
13711W        W78531  26.185  42.825  11.133
13712W        W78532  24.513   9.678   1.749
13713W        W78533  32.138  28.016  14.778
13714W        W78534   1.059   7.448  14.463
13715W        W78535  35.355   1.086  13.738
13716W        W78536  40.163   3.688  12.068
13717W        W78537  17.055  11.598   2.763
13718W        W78538  41.556  35.614   0.226
13719W        W78539  11.690  39.841  10.613
13720W        W78540   5.329  21.521  11.556
13721W        W78541  44.795  14.683  13.447
13722W        W78542  31.544   1.179   0.310
13723W        W78543  44.388  16.079   4.122
13724W        W78544  43.884  27.235  12.940
13725W        W78545  25.232   8.225   1.309
13726W        W78546   1.007   2.413  12.425
13727W        W78547  40.477  10.901  10.665
13728W        W78548  22.493  17.819  13.078
13729W        W78549  35.963  29.978   0.302
13730W        W78550   7.265   6.697   3.547
13731W        W78551  10.679  36.567  13.827
13732W        W78552  34.517   1.064   1.026
13733W        W78553  38.487   9.621   0.257
13734W        W78554  29.164  24.530   1.330
13735W        W78555   4.453  26.548   3.603
13736W        W78556  10.152  42.042  12.315
13737W        W78557  16.186  41.487   1.525
13738W        W78558  10.951   6.477   0.427
13739W        W78559   3.188  13.084  11.216
13740W        W78560  11.144   5.018   1.950
13741W        W78561   7.915  16.618  13.827
13742W        W78562   1.635  29.009   2.751
13743W        W78563  12.765   3.414  12.150
13744W        W78564  41.104  35.742   2.798
13745W        W78565  25.414  41.356   3.549
13746W        W78566  23.447  39.338  13.037
13747W        W78567  24.472  21.143  10.983
13748W        W78568  29.038  25.702   4.786
13749W        W78569  41.015  41.513  12.108
13750W        W78570  22.536  41.514  13.923
13751W        W78571  41.959   4.643  11.022
13752W        W78572   5.924  27.451  11.571
13753W        W78573  16.722  42.802  12.207
13754W        W78574  27.104  17.336   4.675
13755W        W78575  42.024   8.332   0.253
13756W        W78576  17.101  41.844   0.610
13757W        W78577  24.815  30.415   1.457
13758W        W78578  21.127  11.886  10.055
13759W        W78579  17.250  13.545  11.563
13760W        W78580   3.165   8.260   1.780
13761W        W78581  25.718  44.186   4.385
13762W        W78582   1.989   7.651   1.788
13763W        W78583  22.452  39.377   2.262
13764W        W78584  33.064  18.538   4.141
13765W        W78585   5.126  14.200  13.902
13766W        W78586  30.093  40.741   1.446
13767W        W78587  23.695  41.108   1.290
13768W        W78588  41.787  35.603  13.066
13769W        W78589  13.563   8.862   1.168
13770W        W78590   6.097  30.083  14.622
13771W        W78591  42.365   7.330  11.552
13772W        W78592  18.901  34.428   2.400
13773W        W78593  13.052  28.879  10.411
13774W        W78594  34.564  36.935  14.858
13775W        W78595  41.026  26.448   3.773
13776W        W78596  26.948  43.781  11.677
13777W        W78597  17.311  43.960  14.979
13778W        W78598  40.029  18.519   3.780
13779W        W78599   4.875  38.132  14.317
13780W        W78600  34.451   9.313  13.489
13781W        W78601   3.674  33.888  14.835
13782W        W78602  23.721  36.637  13.332
13783W        W78603  27.497  28.210   2.627
13784W        W78604  18.543  42.409  12.911
13785W        W78605  21.902  42.300   2.827
13786W        W78606  31.971  22.621   3.290
13787W        W78607  25.981  13.497  12.843
13788W        W78608   3.674   7.144   2.625
13789W        W78609  29.677  24.927   3.358
13790W        W78610   2.832  19.496   1.162
13791W        W78611   1.231  18.810   4.966
13792W        W78612  27.894  30.844   3.350
13793W        W78613  26.668  21.563   4.194
13794W        W78614  14.702  29.986  10.115
13795W        W78615  20.817  17.745  13.531
13796W        W78616  21.970  22.363   4.154
13797W        W78617  22.947  28.042  11.968
13798W        W78618  44.775  13.232   1.363
13799W        W78619  36.291  27.495   2.667
13800W        W78620  14.140   5.405  13.093
13801W        W78621   6.366  33.572   1.741
13802W        W78622  39.347  24.781  13.275
13803W        W78623   4.830  20.223   0.430
13804W        W78624  38.836   7.743   0.056
13805W        W78625  32.831  10.478   3.248
13806W        W78626  33.167  40.379  13.543
13807W        W78627  18.404  28.988  11.639
13808W        W78628  37.941  12.823  12.947
13809W        W78629  14.703  14.281  10.289
13810W        W78630  34.758  13.077   4.107
13811W        W78631  31.548  29.913  10.615
13812W        W78632  42.467  23.993  12.859
13813W        W78633  10.641  23.245  13.475
13814W        W78634  18.457  24.246  11.654
13815W        W78635  39.471   7.119   1.252
13816W        W78636  12.492  42.852   5.280
13817W        W78637  41.462   4.251   1.645
13818W        W78638  22.808  31.798  14.387
13819W        W78639  38.790   2.281   0.971
13820W        W78640  17.569  14.347  11.327
13821W        W78641   6.578  37.763  11.202
13822W        W78642  39.842   4.466  12.518
13823W        W78643   2.929  29.353  14.680
13824W        W78644  37.309  15.884   3.776
13825W        W78645  18.751  32.299   4.298
13826W        W78646   4.077  41.337  12.412
13827W        W78647   8.156  34.837  12.428
13828W        W78648  26.692  16.833   0.863
13829W        W78649   5.001  27.164  11.813
13830W        W78650  14.829   5.096  11.066
13831W        W78651  38.975  25.314   0.957
13832W        W78652   3.290  21.748  13.485
13833W        W78653  17.839  43.939   0.017
13834W        W78654  41.880   7.399  13.823
13835W        W78655  27.995  20.301  11.083
13836W        W78656  15.642  30.126   1.148
13837W        W78657  42.375   0.670  10.683
13838W        W78658  36.062  35.450  14.902
13839W        W78659  35.271  43.682   1.792
13840W        W78660  13.605  35.976   4.914
13841W        W78661  11.231  24.358   0.893
13842W        W78662  44.810  10.657   2.391
13843W        W78663  23.152   8.346  12.509
13844W        W78664  31.142  16.229   3.263
13845W        W78665  27.395  25.489   0.565
13846W        W78666  13.836  30.033  11.316
13847W        W78667  37.586  39.140   3.734
13848W        W78668  30.639   7.386  12.878
13849W        W78669  33.160  28.769  11.970
13850W        W78670  26.735   8.800   2.291
13851W        W78671  40.897  17.739  13.883
13852W        W78672   6.407   0.950   0.416
13853W        W78673  24.351  30.182   3.676
13854W        W78674  20.341   5.891  11.573
13855W        W78675  14.278  24.709   1.494
13856W        W78676  12.725  35.616  14.287
13857W        W78677  28.752  32.430  10.626
13858W        W78678   2.810   9.785  11.294
13859W        W78679  11.713  43.940  11.919
13860W        W78680  29.413   0.635   1.311
13861W        W78681  38.537  14.583   1.422
13862W        W78682  38.134  23.400  13.396
13863W        W78683  33.464  31.849  14.550
13864W        W78684  32.987  42.476  13.322
13865W        W78685  20.245   5.458   0.879
13866W        W78686  44.294  44.134  11.830
13867W        W78687  16.051  44.542  11.641
13868W        W78688  30.423  16.449  13.694
13869W        W78689  15.770  17.645   1.012
13870W        W78690  37.759   4.679  11.483
13871W        W78691  18.404   9.280   0.345
13872W        W78692  29.929  25.094   1.326
13873W        W78693  19.313  14.321  14.780
13874W        W78694   9.808  40.150   0.318
13875W        W78695  35.436  25.245   0.995
13876W        W78696  20.606   6.622  13.039
13877W        W78697   9.235  20.220  11.943
13878W        W78698  28.059   1.723   3.255
13879W        W78699  37.245   0.529   2.695
13880W        W78700  30.070  11.287   4.951
13881W        W78701  40.746   4.731  13.603
13882W        W78702  21.313  34.190   4.244
13883W        W78703   4.622  25.598   0.366
13884W        W78704  27.553  12.146   4.705
13885W        W78705  18.093  40.859   4.402
13886W        W78706   0.285  27.881   2.692
13887W        W78707  20.605  13.159   2.106
13888W        W78708  44.854  38.251   1.385
13889W        W78709  15.268  14.325   1.673
13890W        W78710  37.128   6.785  11.924
13891W        W78711  13.517  20.270   1.447
13892W        W78712  13.582  30.461  11.059
13893W        W78713  11.792  13.391  13.845
13894W        W78714  44.484  36.847   4.163
13895W        W78715   6.759  31.599   3.604
13896W        W78716  16.824  42.875  13.522
13897W        W78717  28.228  31.043  12.407
13898W        W78718  11.092  24.813  11.542
13899W        W78719   5.827  17.157   1.326
13900W        W78720  15.620   3.370   1.896
13901W        W78721  11.923  42.552   0.458
13902W        W78722  17.197  32.866   4.927
13903W        W78723  37.454  36.003   0.778
13904W        W78724  12.975  38.798   0.232
13905W        W78725  28.097  17.494  12.440
13906W        W78726   4.772  34.417  14.422
13907W        W78727  24.483  29.802   0.003
13908W        W78728  16.153  13.753   2.272
13909W        W78729   6.871  38.404   1.447
13910W        W78730  30.530  33.815  11.113
13911W        W78731   4.334   0.498   1.365
13912W        W78732  20.259  27.758   1.068
13913W        W78733  31.861  37.409   1.299
13914W        W78734  27.478  17.273   3.838
13915W        W78735  15.174   9.757  11.258
13916W        W78736  16.121  31.737   3.187
13917W        W78737  31.082  40.310   4.090
13918W        W78738  15.518  23.292  11.484
13919W        W78739  26.473  44.336  11.123
13920W        W78740   1.205  37.530  13.807
13921W        W78741  20.475  26.258  11.057
13922W        W78742  32.706  18.112   1.281
13923W        W78743  24.494  24.429  10.632
13924W        W78744   4.202  14.122  11.179
13925W        W78745  18.608  11.801  13.978
13926W        W78746  19.794  25.162  14.224
13927W        W78747  35.960  11.861  10.711
13928W        W78748  25.675   9.860  11.483
13929W        W78749  16.320  15.367   1.958
13930W        W78750  30.212  34.653  12.504
13931W        W78751  24.639   2.464  12.973
13932W        W78752  13.114  26.578  13.938
13933W        W78753  16.570  26.205   1.523
13934W        W78754  38.340  26.702  11.618
13935W        W78755  42.635  33.399  12.460
13936W        W78756  44.950  42.280   0.520
13937W        W78757  16.165   9.822   2.408
13938W        W78758   9.710  27.980  12.401
13939W        W78759  31.551  42.944  14.404
13940W        W78760  21.451  37.113   0.464
13941W        W78761  33.359  28.077   2.385
13942W        W78762  22.070  13.192  11.947
13943W        W78763  25.912  18.005   1.964
13944W        W78764  14.066  30.408  14.675
13945W        W78765  29.964  28.559  12.881
13946W        W78766  17.674  33.369  10.955
13947W        W78767  33.452  38.736   2.421
13948W        W78768  36.627  38.483  11.993
13949W        W78769  30.738   4.684  13.348
13950W        W78770  11.447   8.865   2.840
13951W        W78771  12.169  43.463   2.863
13952W        W78772  38.570  36.624  14.949
13953W        W78773  14.391  39.497  13.621
13954W        W78774  27.633  21.718   0.373
13955W        W78775  42.861  21.282  11.952
13956W        W78776  36.131  40.364  14.864
13957W        W78777   7.552  42.547  12.427
13958W        W78778   8.962  21.285   1.742
13959W        W78779  19.526  43.304  12.893
13960W        W78780  11.746  26.984   2.313
13961W        W78781   2.275  35.106   1.216
13962W        W78782  41.922  32.137   5.075
13963W        W78783   8.063  18.713  12.315
13964W        W78784   7.298   6.887   3.081
13965W        W78785  40.367  27.164  13.617
13966W        W78786  34.719  23.455  11.133
13967W        W78787  11.165   5.669   2.227
13968W        W78788   0.459   6.104   3.547
13969W        W78789   2.836  22.619   0.270
13970W        W78790  14.895  29.660   3.466
13971W        W78791   0.887  20.208  10.673
13972W        W78792  12.374  42.052  14.402
13973W        W78793  21.742  31.834  11.644
13974W        W78794  43.239  28.023   0.380
13975W        W78795  26.042  21.981   1.415
13976W        W78796  17.696  24.956  10.733
13977W        W78797  23.542  36.107   0.866
13978W        W78798  26.901  32.042   2.718
13979W        W78799  43.501   2.244   0.523
13980W        W78800  29.402  37.455   2.916
13981W        W78801  33.947  22.269   0.982
13982W        W78802   1.509  44.478  10.618
13983W        W78803  23.963  29.537  13.957
13984W        W78804   2.253  33.637   5.190
13985W        W78805  14.819  13.259   3.138
13986W        W78806   9.633  28.109   0.806
13987W        W78807   6.263  12.486   4.111
13988W        W78808  22.005  13.143   4.646
13989W        W78809  41.966  21.676  10.634
13990W        W78810  30.051  11.823   2.291
13991W        W78811  12.317  44.479   1.249
13992W        W78812  41.061  24.177  14.759
13993W        W78813  29.730   7.003   0.476
13994W        W78814  24.551   3.973   3.215
13995W        W78815  34.373  28.367   2.713
13996W        W78816   3.478  32.420   3.851
13997W        W78817  40.570  41.268  14.005
13998W        W78818  27.173  27.204  11.109
13999W        W78819  11.194  38.130   0.516
14000W        W78820  28.534  44.784   3.496
14001W        W78821  22.657  14.787  12.185
14002W        W78822  27.094  39.978   1.029
14003W        W78823  22.254  38.083  12.439
14004W        W78824  43.961  42.368  14.851
14005W        W78825  28.527  44.369   4.733
14006W        W78826  17.404  27.921  13.288
14007W        W78827  12.296  41.393  13.124
14008W        W78828  26.195  32.464   2.847
14009W        W78829  15.057  31.555   0.684
14010W        W78830   5.740  18.518  10.478
14011W        W78831  23.666  38.979  10.690
14012W        W78832  35.328  24.008   2.799
14013W        W78833  11.365  36.376   0.791
14014W        W78834  44.714  36.150   0.722
14015W        W78835  42.724   0.618  13.837
14016W        W78836  38.463  32.008  12.404
14017W        W78837  23.420  32.774  12.576
14018W        W78838   6.878  25.219   2.060
14019W        W78839  23.505  21.244   2.862
14020W        W78840   8.073  34.884  13.437
14021W        W78841  21.336  37.046  13.733
14022W        W78842  41.547  31.286  12.952
14023W        W78843  23.942  18.032  11.614
14024W        W78844  43.597  28.012  10.719
14025W        W78845  43.922   0.305   3.656
14026W        W78846  34.869  14.563   3.848
14027W        W78847  12.381  14.326   4.048
14028W        W78848   6.212   1.008   4.689
14029W        W78849  26.471   8.769   2.765
14030W        W78850  16.313  30.510   3.723
14031W        W78851  12.072  29.447   1.626
14032W        W78852  17.615  17.609  12.931
14033W        W78853  36.099  34.292  12.462
14034W        W78854  38.395  25.707   0.272
14035W        W78855  13.629  27.288   4.431
14036W        W78856   6.782  14.775  12.617
14037W        W78857  21.998  38.137   0.711
14038W        W78858   4.124   3.683  13.466
14039W        W78859  40.141  30.877  14.342
14040W        W78860  38.719  21.550  12.984
14041W        W78861  29.553  21.818   1.374
14042W        W78862  37.476  17.491   4.739
14043W        W78863  19.271  25.598   4.684
14044W        W78864  35.692   7.261  11.941
14045W        W78865  20.838   6.099   0.750
14046W        W78866  22.939  23.181  11.620
14047W        W78867  30.980  24.694   3.040
14048W        W78868  24.068  12.562   3.096
14049W        W78869  31.200  11.714   2.322
14050W        W78870  37.712  39.337  12.100
14051W        W78871  16.064  23.545   3.404
14052W        W78872  14.258  18.272  14.500
14053W        W78873   3.685   4.007   1.897
14054W        W78874  10.449  21.416   2.313
14055W        W78875   5.927  34.271  12.021
14056W        W78876   5.781  31.830   3.699
14057W        W78877  21.194  17.662   4.254
14058W        W78878  27.574  31.474   2.948
14059W        W78879  42.561  14.368  11.623
14060W        W78880  11.273  44.824  14.374
14061W        W78881  21.282  22.633   4.311
14062W        W78882  13.217  13.695  13.670
14063W        W78883  35.839  39.898   4.079
14064W        W78884  40.066  44.428  14.244
14065W        W78885  39.635   3.132   4.516
14066W        W78886  18.196  14.588   4.427
14067W        W78887  22.104  35.894   0.838
14068W        W78888   5.216  41.935  10.715
14069W        W78889  18.279  41.439   3.220
14070W        W78890  24.487  32.520  10.720
14071W        W78891  40.084  40.713  10.430
14072W        W78892   3.005  33.472   0.909
14073W        W78893  17.841   3.930   1.939
14074W        W78894  32.162  22.146  12.613
14075W        W78895  21.104  34.468   3.269
14076W        W78896  18.626  14.776  13.123
14077W        W78897   0.692   6.473   4.864
14078W        W78898  37.846  36.998  12.265
14079W        W78899  30.873  13.223  14.284
14080W        W78900  43.426  36.443   3.668
14081W        W78901   4.876  32.030  11.381
14082W        W78902  39.977  16.728   3.692
14083W        W78903  43.708  38.996   1.116
14084W        W78904  17.842  34.551   2.636
14085W        W78905   7.791  28.232  11.637
14086W        W78906   8.491  39.811   2.350
14087W        W78907   4.703   7.772   4.130
14088W        W78908   9.360  21.959  10.656
14089W        W78909  37.343   7.628  13.658
14090W        W78910  29.203   3.745   0.758
14091W        W78911  19.216   3.747   1.979
14092W        W78912  34.338  10.641   4.244
14093W        W78913  41.342  18.124   2.822
14094W        W78914  39.339  35.431   3.622
14095W        W78915  36.345  44.036   1.339
14096W        W78916  31.897  34.143  12.986
14097W        W78917  39.844  13.923   1.192
14098W        W78918   9.816   4.541  12.348
14099W        W78919  25.957  11.432   0.335
14100W        W78920   6.789  43.081   3.707
14101W        W78921  39.409  34.566  10.473
14102W        W78922  32.096  12.080  11.929
14103W        W78923  36.520   2.821  11.029
14104W        W78924   1.905  19.289   2.497
14105W        W78925  35.065  33.986  13.517
14106W        W78926  20.899  28.542   2.408
14107W        W78927   6.916   2.340  12.953
14108W        W78928  13.313  31.939  11.861
14109W        W78929  32.576  15.582   2.116
14110W        W78930  24.264  15.595  14.265
14111W        W78931   2.491   3.285   0.895
14112W        W78932  19.944  25.093   0.096
14113W        W78933  23.768  11.737  13.417
14114W        W78934  25.110  12.341   4.426
14115W        W78935  12.097  44.183  14.117
14116W        W78936   1.142  31.428   1.345
14117W        W78937  33.323  33.025  11.094
14118W        W78938  33.041   7.054  11.655
14119W        W78939   6.403  18.778  13.295
14120W        W78940  10.382  44.418  11.142
14121W        W78941  15.317  36.921  14.754
14122W        W78942   7.391   2.688   3.520
14123W        W78943  12.882   4.778  10.689
14124W        W78944   9.069   9.189  13.009
14125W        W78945   7.909  33.110   1.131
14126W        W78946  18.143  36.319   2.588
14127W        W78947  24.508  25.771  14.051
14128W        W78948  20.977   1.816   2.310
14129W        W78949   3.632  33.064  11.624
14130W        W78950  27.994   0.963   0.299
14131W        W78951  42.383  23.777  11.077
14132W        W78952  22.291  13.526  13.930
14133W        W78953   2.316  11.762  14.779
14134W        W78954   9.809  31.457   3.750
14135W        W78955  17.351  19.791   2.833
14136W        W78956  26.224  39.254   3.196
14137W        W78957  33.187  21.925   0.843
14138W        W78958   0.057  22.741   4.620
14139W        W78959   0.722  30.092  12.878
14140W        W78960  36.207  29.938  12.623
14141W        W78961  19.616  16.980   0.450
14142W        W78962  32.017  19.050  13.996
14143W        W78963  33.107  40.902  13.893
14144W        W78964  23.090  32.658  11.077
14145W        W78965  10.142  35.642  13.953
14146W        W78966  40.526  35.038  14.315
14147W        W78967  22.268   8.096   1.627
14148W        W78968  15.319  26.408  10.687
14149W        W78969   6.145  24.764  11.484
14150W        W78970  18.706  26.350  13.850
14151W        W78971  13.438   4.779   2.478
14152W        W78972  29.550  29.138   2.006
14153W        W78973   7.493   7.240  14.971
14154W        W78974  18.663   6.233   0.881
14155W        W78975   5.299  40.303  12.453
14156W        W78976  28.219  21.332   0.906
14157W        W78977   2.894   1.232  10.562
14158W        W78978  27.080   9.329   3.234
14159W        W78979  25.335   3.952  14.222
14160W        W78980  35.561  37.584   1.744
14161W        W78981  15.295  10.145   2.282
14162W        W78982   0.305  24.548  11.445
14163W        W78983  14.112   7.763  12.094
14164W        W78984  16.126  40.656   2.387
14165W        W78985  22.116   8.204   2.185
14166W        W78986  33.927  21.529  12.420
14167W        W78987  40.721  16.149  14.787
14168W        W78988   5.749  29.692   0.410
14169W        W78989  41.108   3.900   1.832
14170W        W78990  38.772  16.016   3.353
14171W        W78991   2.046  18.081   2.125
14172W        W78992   0.958   9.921   1.896
14173W        W78993  40.393  11.505  11.597
14174W        W78994   3.998   5.380  14.361
14175W        W78995  41.412  16.536   1.833
14176W        W78996   6.951  13.790   1.812
14177W        W78997  18.472  29.330  12.108
14178W        W78998   4.652  12.889   3.211
14179W        W78999   3.987  28.481   2.284
14180W        W79000  29.003   5.447  14.033
14181W        W79001  14.369  44.568   1.450
14182W        W79002  26.240  38.030  14.925
14183W        W79003  31.848  41.382   2.932
14184W        W79004  34.388  17.682  12.673
14185W        W79005  36.832  15.751   0.685
14186W        W79006  39.149   5.980  10.762
14187W        W79007   5.765  29.542   1.386
14188W        W79008  42.095  33.403   9.859
14189W        W79009   1.138  19.334  10.738
14190W        W79010  18.739  39.510   3.039
14191W        W79011   6.227  22.850   4.988
14192W        W79012   2.278  24.826  11.854
14193W        W79013   3.024  14.312  14.380
14194W        W79014   0.422  16.753   0.247
14195W        W79015  10.369  24.092  12.638
14196W        W79016  42.539  33.989   1.198
14197W        W79017   8.265  27.975  11.565
14198W        W79018  40.224  26.875   1.724
14199W        W79019   9.924   7.874  10.046
14200W        W79020  35.668  28.213   4.263
14201W        W79021   5.822  12.008  13.721
14202W        W79022  21.984  10.151  14.966
14203W        W79023   3.355  10.150  14.387
14204W        W79024  41.320   0.334   4.100
14205W        W79025  35.457  22.649   2.688
14206W        W79026  39.185  35.311   1.742
14207W        W79027  11.999  41.427  12.566
14208W        W79028  11.737  31.976  13.442
14209W        W79029   8.082  23.482   2.926
14210W        W79030  24.167   0.454   3.604
14211W        W79031   5.324  34.683  11.155
14212W        W79032   7.795  11.788   3.864
14213W        W79033  21.352  10.669  11.996
14214W        W79034   5.361  39.852   1.011
14215W        W79035   8.994  38.669   0.889
14216W        W79036  15.900  29.372   5.415
14217W        W79037  39.384   3.994  13.861
14218W        W79038  39.027   3.737  13.093
14219W        W79039  37.088   5.720  14.877
14220W        W79040   3.225   7.565   0.797
14221W        W79041  28.540  29.980  12.937
14222W        W79042  24.934  21.125  12.529
14223W        W79043  35.426   0.218  14.267
14224W        W79044   3.567   0.157  14.194
14225W        W79045  19.725  44.862  12.642
14226W        W79046   2.787   1.422   4.546
14227W        W79047   9.900  36.419   1.815
14228W        W79048  22.775  37.482  14.125
14229W        W79049  17.889  12.687  10.119
14230W        W79050  31.875   0.707   4.495
14231W        W79051  16.960  35.803  13.525
14232W        W79052  19.755  17.071   2.679
14233W        W79053  27.921  26.078   1.223
14234W        W79054  28.874   0.995  11.134
14235W        W79055   1.695  30.898   2.940
14236W        W79056  32.912  13.804   1.723
14237W        W79057  34.956  16.524   2.157
14238W        W79058  42.856  22.519  13.878
14239W        W79059  29.610  30.646   1.978
14240W        W79060  16.807  28.322   3.460
14241W        W79061  15.400  29.302   4.555
14242W        W79062  18.416  23.991  13.507
14243W        W79063  40.764   5.459  10.266
14244W        W79064  37.067  13.264  13.058
14245W        W79065  15.535  40.334   4.166
14246W        W79066  13.817   0.349   2.291
14247W        W79067  29.687  34.974   0.953
14248W        W79068   3.035  18.461   0.325
14249W        W79069  16.792  30.768   4.859
14250W        W79070  42.277   7.079  13.822
14251W        W79071  23.716  40.485   1.716
14252W        W79072  17.070   7.474   3.811
14253W        W79073   8.168   0.000  12.152
14254W        W79074  19.417  33.486   1.665
14255W        W79075  42.273   5.191   1.479
14256W        W79076   6.360  43.379   2.812
14257W        W79077  28.215  10.647  12.818
14258W        W79078   9.806  42.111  12.899
14259W        W79079  30.926  37.068  12.585
14260W        W79080  33.828  15.911   2.804
14261W        W79081  42.408  41.509   4.679
14262W        W79082   5.679  43.312   4.094
14263W        W79083  25.072  13.772  13.849
14264W        W79084  42.857  28.685   3.626
14265W        W79085  26.979  42.745   2.308
14266W        W79086  40.899  43.495   2.430
14267W        W79087  28.665  41.228  14.915
14268W        W79088  29.180  41.751  13.902
14269W        W79089  19.147  23.176  13.979
14270W        W79090   1.898  35.501   2.750
14271W        W79091   4.791  17.125  12.904
14272W        W79092  24.458   1.342   4.245
14273W        W79093  26.491  41.958   2.207
14274W        W79094  28.132  38.300  10.594
14275W        W79095  38.975  32.113  11.669
14276W        W79096   7.939  16.782  11.116
14277W        W79097  24.235  35.416  12.122
14278W        W79098  41.481  11.906  10.857
14279W        W79099  37.389  44.197  12.786
14280W        W79100  27.370   3.200   3.849
14281W        W79101   2.010  17.357   3.075
14282W        W79102  10.627   6.396   0.002
14283W        W79103  42.272   3.309   4.536
14284W        W79104   8.423  33.541   3.892
14285W        W79105  40.569  28.925   1.696
14286W        W79106  18.698   7.590   4.188
14287W        W79107   2.053  12.366   1.732
14288W        W79108  13.837  21.571   1.235
14289W        W79109  38.069   5.384  12.966
14290W        W79110  40.551  29.610   3.278
14291W        W79111  15.330  30.901  13.827
14292W        W79112  36.860   2.296  11.536
14293W        W79113   9.446   6.349   4.182
14294W        W79114  26.947   9.170  14.284
14295W        W79115  25.670  12.238   2.211
14296W        W79116  40.462  11.252  11.086
14297W        W79117  10.667   8.164  11.230
14298W        W79118  26.409  28.460  11.968
14299W        W79119  31.415  20.111   2.609
14300W        W79120  22.615  23.358   4.776
14301W        W79121  20.772  17.507   2.639
14302W        W79122   3.401  16.491  12.099
14303W        W79123  29.097  36.048   2.200
14304W        W79124  11.905   3.444  14.131
14305W        W79125  25.485  24.189   4.992
14306W        W79126  28.249  39.293   0.063
14307W        W79127  35.324  39.918   1.257
14308W        W79128  19.323  40.563   5.106
14309W        W79129  16.531  20.554   2.327
14310W        W79130  27.686  16.162  14.107
14311W        W79131  41.764  42.864  11.137
14312W        W79132   5.246  43.382  12.650
14313W        W79133  33.000  40.394  11.588
14314W        W79134   1.385  33.654  13.864
14315W        W79135  43.062   1.632   2.321
14316W        W79136   8.890  44.229  10.618
14317W        W79137  30.105  32.407  14.967
14318W        W79138   8.343   8.960   4.159
14319W        W79139  43.625  35.478   3.645
14320W        W79140  26.242  11.443  11.105
14321W        W79141  40.226   0.957  11.718
14322W        W79142  29.335  44.235  14.342
14323W        W79143   1.869   3.076   3.275
14324W        W79144  41.218  15.209   4.323
14325W        W79145  17.239  26.619  10.777
14326W        W79146  22.752  24.682  11.514
14327W        W79147  38.337  21.737   4.305
14328W        W79148  34.567  40.618  12.440
14329W        W79149  17.531  40.442  11.187
14330W        W79150  16.711   7.263  11.917
14331W        W79151  21.039  19.827  12.157
14332W        W79152   1.963   8.677   3.209
14333W        W79153  16.765   8.151  13.557
14334W        W79154  32.731  36.314   4.175
14335W        W79155  25.793   9.786   0.825
14336W        W79156   8.944   9.715  11.556
14337W        W79157  36.573   3.810  14.432
14338W        W79158  19.467  12.740  11.906
14339W        W79159   4.688  16.246  12.809
14340W        W79160  11.620  15.532  14.276
14341W        W79161  17.864  18.802   3.400
14342W        W79162  17.840   5.070  12.354
14343W        W79163  28.695  38.089  11.669
14344W        W79164  25.559  21.739   4.165
14345W        W79165  44.477  38.582   3.702
14346W        W79166  30.455  18.577   3.922
14347W        W79167  44.521   2.825  10.719
14348W        W79168  14.033  16.753  13.380
14349W        W79169  19.541  44.398  12.842
14350W        W79170  12.318  17.575   4.617
14351W        W79171  10.046  25.647   0.119
14352W        W79172  33.770   7.216   3.718
14353W        W79173  10.092  31.610   1.141
14354W        W79174  35.683  25.536   2.080
14355W        W79175   1.070   9.680  14.680
14356W        W79176  13.630   5.622   4.673
14357W        W79177   6.116  39.371   0.911
14358W        W79178  13.339  39.460   2.171
14359W        W79179  28.528  43.107   0.852
14360W        W79180  32.187   7.428  10.649
14361W        W79181  12.657  29.768   0.271
14362W        W79182  33.118   7.691   4.656
14363W        W79183   4.463  27.510   0.332
14364W        W79184   0.307   7.938  12.601
14365W        W79185  26.193  35.812  13.938
14366W        W79186   1.938  18.172   3.103
14367W        W79187   6.701  25.066  12.618
14368W        W79188   8.781   9.240   4.121
14369W        W79189   6.521  34.993  11.139
14370W        W79190  27.776  38.500  11.426
14371W        W79191   2.338  44.733  10.920
14372W        W79192  28.111  31.922   3.124
14373W        W79193  42.266  10.243  13.415
14374W        W79194   0.811  42.071   4.133
14375W        W79195   7.870  26.676  10.812
14376W        W79196  31.873  22.294  13.870
14377W        W79197  36.933  19.034  14.133
14378W        W79198  31.578   6.037  12.811
14379W        W79199  25.043  44.668  11.134
14380W        W79200   3.674  44.313   0.013
14381W        W79201  13.588  43.512  12.904
14382W        W79202  19.099   7.395   0.479
14383W        W79203   8.706   8.162   3.449
14384W        W79204   4.265  36.479   1.147
14385W        W79205  13.049  42.245  11.142
14386W        W79206  43.791  17.362  13.920
14387W        W79207  44.063  19.693   3.261
14388W        W79208  39.318   0.362   2.873
14389W        W79209  43.486  44.979   1.291
14390W        W79210  18.470   7.276  11.464
14391W        W79211   2.824  12.207   4.886
14392W        W79212   6.523   9.786  14.893
14393W        W79213  34.002  18.075   3.588
14394W        W79214  18.657  10.532   0.262
14395W        W79215   3.149   5.904  13.489
14396W        W79216  33.038  42.546   1.137
14397W        W79217  19.000  16.151   2.766
14398W        W79218   0.377  13.088  12.458
14399W        W79219  35.714  24.231   0.005
14400W        W79220  17.752  24.660  11.155
14401W        W79221   2.204   3.743   0.856
14402W        W79222  11.425  10.210  13.875
14403W        W79223  31.924  17.800   1.192
14404W        W79224  25.629   3.550   2.417
14405W        W79225  11.195  30.666   4.779
14406W        W79226  10.420  37.995   4.561
14407W        W79227  31.527   1.713   0.242
14408W        W79228  43.527  14.860  13.987
14409W        W79229  13.037  22.601   0.878
14410W        W79230   4.510  16.973   0.612
14411W        W79231  27.149  34.094  11.243
14412W        W79232  29.022  12.675  14.957
14413W        W79233   6.135  19.176   1.339
14414W        W79234   2.106  22.762  11.555
14415W        W79235  23.548  35.516   0.947
14416W        W79236  21.814  38.075   1.912
14417W        W79237   4.257  35.187   2.835
14418W        W79238   8.720  18.443   4.666
14419W        W79239   1.526  32.448  13.917
14420W        W79240  20.553  36.868  12.623
14421W        W79241  20.700  25.158   2.279
14422W        W79242  41.060  40.287   3.050
14423W        W79243  28.983  23.725   4.070
14424W        W79244  26.650  18.990   2.743
14425W        W79245   6.295  37.132   4.769
14426W        W79246   3.979  38.610  14.830
14427W        W79247  33.508  23.065  13.093
14428W        W79248   1.843  41.134  14.814
14429W        W79249  31.194   3.001   0.853
14430W        W79250  44.415  23.193  10.704
14431W        W79251  19.056  41.296   1.459
14432W        W79252   6.749   2.480  11.539
14433W        W79253  44.055  37.475   2.406
14434W        W79254   1.844  36.966   2.326
14435W        W79255  29.581  26.236   4.588
14436W        W79256  36.001  35.182   2.765
14437W        W79257   5.784  37.859   0.803
14438W        W79258  38.189   8.738  12.145
14439W        W79259  24.488  17.979   4.459
14440W        W79260  27.401  15.119  12.010
14441W        W79261  11.763  15.621  11.976
14442W        W79262  34.854  43.355  14.290
14443W        W79263  13.226  42.952   0.045
14444W        W79264  24.738  16.759   0.856
14445W        W79265  30.163   2.264   3.710
14446W        W79266  37.305  15.720   4.652
14447W        W79267  10.339   6.711   2.007
14448W        W79268  25.844  25.560   2.011
14449W        W79269  15.143  17.529   3.137
14450W        W79270  33.492  23.940  12.503
14451W        W79271  23.123  38.528   4.747
14452W        W79272  12.327  18.137   2.581
14453W        W79273   9.638  41.557   1.240
14454W        W79274   4.195  12.441   1.969
14455W        W79275  39.425  24.306   0.469
14456W        W79276  37.106  41.401   2.140
14457W        W79277  33.663  14.223   5.110
14458W        W79278   9.563  33.915  12.709
14459W        W79279  31.008  27.158   2.718
14460W        W79280  26.651  32.729   5.117
14461W        W79281   8.722  43.306  13.419
14462W        W79282   6.374  24.537   2.513
14463W        W79283  20.715  22.223   3.374
14464W        W79284  29.667  13.171   4.591
14465W        W79285  13.148  21.100   0.154
14466W        W79286   0.929  18.148  14.925
14467W        W79287   1.302  30.857  12.427
14468W        W79288  12.201  40.039   4.694
14469W        W79289  42.044  19.595   4.271
14470W        W79290  28.992  32.434   2.103
14471W        W79291  40.958  29.838   1.805
14472W        W79292   1.322  15.910   4.311
14473W        W79293   7.909   6.918   0.751
14474W        W79294  26.733  35.381  11.801
14475W        W79295  18.733  15.609  12.551
14476W        W79296  43.353   5.493   0.850
14477W        W79297  21.152  40.386   1.297
14478W        W79298  29.643  34.822  11.671
14479W        W79299  37.576   7.835  10.244
14480W        W79300   6.857   7.825   4.122
14481W        W79301   8.478   3.707  14.191
14482W        W79302  31.610  33.320   0.387
14483W        W79303  35.416   1.984  14.914
14484W        W79304   0.837  17.013  10.355
14485W        W79305   3.156  20.979   4.224
14486W        W79306  22.573  13.126  12.005
14487W        W79307   0.502  17.100   1.609
14488W        W79308  37.609  37.889   0.829
14489W        W79309  32.881  34.015   4.193
14490W        W79310  22.240  22.556  10.645
14491W        W79311  20.053   4.668   3.268
14492W        W79312   3.755   1.251  13.991
14493W        W79313  39.624  41.469   0.108
14494W        W79314  35.388  38.573   3.148
14495W        W79315  39.087  16.990   0.758
14496W        W79316  26.203   4.703  10.030
14497W        W79317   4.420  23.644  11.972
14498W        W79318  34.582  33.489   3.162
14499W        W79319   2.339  22.759   5.212
14500W        W79320  30.994  16.625  12.046
14501W        W79321  23.641   1.509  14.418
14502W        W79322  35.159   8.887   0.277
14503W        W79323  43.793  13.535   3.117
14504W        W79324  32.075  33.653   2.289
14505W        W79325  31.776  21.852   3.501
14506W        W79326  18.540   2.677  11.551
14507W        W79327  37.174   4.475  14.462
14508W        W79328   1.929   4.516   3.589
14509W        W79329  28.576  22.972  12.393
14510W        W79330  37.970  38.149  14.229
14511W        W79331   3.872   1.281  12.986
14512W        W79332  24.712  42.973   5.110
14513W        W79333  13.807  31.055   5.431
14514W        W79334  28.101  32.925   0.406
14515W        W79335  12.270  17.484   1.678
14516W        W79336  14.933  11.694   0.407
14517W        W79337   4.656  28.680  10.295
14518W        W79338  21.360  32.580  12.088
14519W        W79339  28.226  41.837  13.570
14520W        W79340  22.280  18.346   1.835
14521W        W79341   8.188   5.413   2.310
14522W        W79342  31.116  24.069   1.857
14523W        W79343   6.974  13.113   1.346
14524W        W79344  39.020   0.771   5.180
14525W        W79345  11.484  37.952  11.127
14526W        W79346  16.585  19.295   4.258
14527W        W79347  29.046  21.978   0.239
14528W        W79348   0.192  25.677   1.228
14529W        W79349   1.375   9.483  11.510
14530W        W79350  42.835  16.526  12.844
14531W        W79351  29.956  40.835  14.644
14532W        W79352  35.618  18.827   2.339
14533W        W79353  34.410  17.143   0.014
14534W        W79354  18.880   3.502  13.129
14535W        W79355  20.636   7.539   4.989
14536W        W79356  27.986   0.246  11.760
14537W        W79357  42.946  16.691   0.462
14538W        W79358  39.850  34.461   1.216
14539W        W79359   2.975  16.167  11.560
14540W        W79360  26.187   0.447   3.715
14541W        W79361  39.406  27.629   3.767
14542W        W79362  30.721   7.193   2.772
14543W        W79363   9.466  42.623  10.478
14544W        W79364  24.699   4.340   2.841
14545W        W79365  21.798  33.660  12.973
14546W        W79366   8.240  35.206  11.070
14547W        W79367  27.326  20.699   0.474
14548W        W79368   9.397  15.213   0.491
14549W        W79369  12.415   9.911  14.810
14550W        W79370  18.166  40.603  12.514
14551W        W79371  23.047   6.801   0.428
14552W        W79372   1.781   4.768   1.278
14553W        W79373  19.221  29.625  13.976
14554W        W79374   5.927   6.664  12.965
14555W        W79375   0.842   7.770   4.896
14556W        W79376  43.297   4.691  11.228
14557W        W79377  34.008   5.457   3.200
14558W        W79378  10.317  40.613   1.010
14559W        W79379  37.883  33.985   4.278
14560W        W79380  32.996  31.349  11.116
14561W        W79381  35.578   2.496   2.941
14562W        W79382   2.878  30.815  11.044
14563W        W79383  42.626  32.194  11.950
14564W        W79384  25.655  31.681   3.633
14565W        W79385   5.432  28.867   2.987
14566W        W79386  15.398  43.931   0.767
14567W        W79387  10.687   1.786  10.728
14568W        W79388  35.634  10.264  13.811
14569W        W79389  42.726   3.301  12.786
14570W        W79390  17.078   5.287  10.620
14571W        W79391  24.374  26.979   2.440
14572W        W79392  44.945  17.715  12.475
14573W        W79393  41.832  30.163   3.219
14574W        W79394   6.353  28.546   0.921
14575W        W79395  16.451  20.969   2.677
14576W        W79396   0.378  33.048   4.181
14577W        W79397  44.086  14.838   2.668
14578W        W79398   2.309   4.755  12.902
14579W        W79399   0.037  43.362   4.961
14580W        W79400   1.110   1.028  11.866
14581W        W79401  25.497  17.089  11.413
14582W        W79402  18.117  11.161   0.962
14583W        W79403  31.608  12.928  12.924
14584W        W79404  18.799   8.757  13.168
14585W        W79405  14.138   8.687  11.973
14586W        W79406  20.043  19.950  13.389
14587W        W79407  39.355   4.150   1.206
14588W        W79408  11.614  30.712  12.148
14589W        W79409  25.631   8.666  13.427
14590W        W79410  30.020  27.994  12.099
14591W        W79411  28.774   1.023   1.778
14592W        W79412  23.888  30.434   1.725
14593W        W79413  41.969  43.897  14.010
14594W        W79414  30.365  14.813   3.138
14595W        W79415   6.960  31.814  13.948
14596W        W79416  18.663  14.573  12.100
14597W        W79417  18.677  16.677   0.819
14598W        W79418   8.798   7.360  11.666
14599W        W79419  12.045  13.777   2.399
14600W        W79420  14.255  36.548   1.770
14601W        W79421  12.271  13.597   0.447
14602W        W79422  16.605  19.508   2.336
14603W        W79423  42.438  21.770  11.270
14604W        W79424  24.696   0.676   0.045
14605W        W79425  35.024  28.411   0.454
14606W        W79426   3.635   3.752   4.054
14607W        W79427  32.912  31.607   1.761
14608W        W79428  32.500  17.158  13.966
14609W        W79429  22.638  28.525   2.585
14610W        W79430   2.717  32.912   2.892
14611W        W79431   7.755  41.536   1.437
14612W        W79432  36.807  23.187   0.020
14613W        W79433  38.920  18.693   2.109
14614W        W79434  27.697  33.808  13.059
14615W        W79435  26.442  42.744  14.494
14616W        W79436  35.409  12.567  10.741
14617W        W79437  31.710  35.580  10.482
14618W        W79438  42.259  13.520   1.888
14619W        W79439   6.446   9.619   4.269
14620W        W79440  28.387  37.462  14.485
14621W        W79441  20.834  20.611   3.935
14622W        W79442   0.339  34.920   3.307
14623W        W79443  27.902  28.510  13.767
14624W        W79444   1.937  34.520  13.985
14625W        W79445  19.222  42.057  14.023
14626W        W79446  31.672  10.236   2.729
14627W        W79447   1.878  33.324  11.962
14628W        W79448   6.409  17.483   3.783
14629W        W79449  41.404  26.981   4.763
14630W        W79450  10.746  35.725  14.891
14631W        W79451  42.543   7.812  11.615
14632W        W79452  27.074  30.243  12.994
14633W        W79453  42.373  39.460   2.698
14634W        W79454  16.221  28.988  12.167
14635W        W79455  25.964  17.539  10.681
14636W        W79456   8.618  36.071   4.993
14637W        W79457  14.353  30.076   2.614
14638W        W79458  29.421  10.393   1.987
14639W        W79459  22.020   4.130   0.353
14640W        W79460   9.795  32.027   1.206
14641W        W79461   5.167   5.993  11.965
14642W        W79462  20.968   3.812  11.118
14643W        W79463  15.112   0.176   2.156
14644W        W79464   2.979   7.254  12.130
14645W        W79465  16.554   6.721   4.642
14646W        W79466  27.670  41.437   2.369
14647W        W79467  19.792  41.473  13.416
14648W        W79468   7.585   3.189  13.517
14649W        W79469  10.299  30.417   2.191
14650W        W79470  41.994  14.979   2.760
14651W        W79471  12.041  24.298  14.770
14652W        W79472   4.714   6.766  13.478
14653W        W79473  38.997  23.764  10.190
14654W        W79474   0.697  21.658  14.884
14655W        W79475  24.153  34.828   0.343
14656W        W79476   0.203  43.273  12.605
14657W        W79477  34.907  36.619  13.949
14658W        W79478  32.919  26.651   2.247
14659W        W79479  23.196  18.076  14.110
14660W        W79480  42.835  21.547  11.522
14661W        W79481  38.383   7.929   2.193
14662W        W79482  18.672   3.982   3.211
14663W        W79483   5.435  44.431  14.255
14664W        W79484  38.447   5.044  11.931
14665W        W79485  12.112  37.537  11.999
14666W        W79486  38.081  31.948  13.047
14667W        W79487  19.837  18.722  13.858
14668W        W79488   9.260  21.703   1.838
14669W        W79489  36.872  15.855  14.265
14670W        W79490  43.877  25.621   1.256
14671W        W79491  17.354  44.241  12.031
14672W        W79492  33.052   6.961   4.091
14673W        W79493   5.216   8.844   2.191
14674W        W79494  17.576  39.712  13.529
14675W        W79495  27.675  36.964   4.663
14676W        W79496  17.409  43.734  11.994
14677W        W79497  25.110  30.940  10.559
14678W        W79498  38.359   6.478  10.808
14679W        W79499  34.527   0.091   1.169
14680W        W79500  18.287  19.773  14.546
14681W        W79501  44.049  15.184   3.190
14682W        W79502  14.490  43.390  12.079
14683W        W79503  33.911  44.196   2.841
14684W        W79504  39.309   3.796  14.790
14685W        W79505   0.813  15.768   4.956
14686W        W79506  22.210  18.619  11.620
14687W        W79507   7.725  22.575   2.276
14688W        W79508   9.327   9.462   0.692
14689W        W79509  18.847  30.728   1.478
14690W        W79510  12.918  27.373  12.848
14691W        W79511  10.852   6.765   1.924
14692W        W79512   6.111  31.485   2.956
14693W        W79513  23.088  32.477   4.589
14694W        W79514  43.414  22.236  14.761
14695W        W79515  24.031   2.664  13.902
14696W        W79516  24.945   6.186   4.531
14697W        W79517  21.496  32.515   3.804
14698W        W79518  37.875   3.433   2.261
14699W        W79519   2.607  34.009  11.493
14700W        W79520  21.219   7.001  11.969
14701W        W79521  24.770  24.206   1.348
14702W        W79522  29.411  14.402   2.852
14703W        W79523  28.465  15.828   3.439
14704W        W79524   0.953  43.533   1.036
14705W        W79525  30.698   5.681   0.831
14706W        W79526  26.026  20.232  11.062
14707W        W79527  28.639  13.520   4.236
14708W        W79528   2.343  15.291   3.334
14709W        W79529  36.288  38.083  11.959
14710W        W79530  16.141   4.446  10.591
14711W        W79531  24.546  19.850   1.752
14712W        W79532   5.954  15.439   0.847
14713W        W79533   8.422  12.054   2.256
14714W        W79534  16.052  14.215   0.354
14715W        W79535  44.131  40.383  14.949
14716W        W79536  12.847   9.625  14.795
14717W        W79537  41.306  13.817   1.016
14718W        W79538   6.636  32.717  12.884
14719W        W79539  41.815  10.318  14.320
14720W        W79540  11.312   6.192  11.630
14721W        W79541   5.438  26.656  10.610
14722W        W79542  32.468   9.512   2.372
14723W        W79543  20.297  16.854  10.633
14724W        W79544   4.216  11.124  11.321
14725W        W79545  29.597   0.066  14.816
14726W        W79546  38.952   8.268   3.234
14727W        W79547  19.806  38.588  12.068
14728W        W79548  40.262   7.010   1.851
14729W        W79549  14.537  37.434   3.412
14730W        W79550   5.710  27.692  14.828
14731W        W79551  27.111  15.607  10.669
14732W        W79552  30.169  27.422  13.318
14733W        W79553  34.448  43.269  13.958
14734W        W79554  26.894   1.758  11.871
14735W        W79555  39.903  18.996   2.171
14736W        W79556  40.138  31.797  11.126
14737W        W79557   4.783  44.492   2.722
14738W        W79558   6.402  44.124   4.512
14739W        W79559   7.434  40.752   3.761
14740W        W79560  10.670  41.992   0.911
14741W        W79561  36.380  40.591  12.606
14742W        W79562  33.898  39.530   3.633
14743W        W79563   7.956  19.971   4.031
14744W        W79564   6.774  43.225   1.915
14745W        W79565  23.811  40.038  11.167
14746W        W79566   1.336   5.896   4.537
14747W        W79567  11.089   1.305  11.391
14748W        W79568   7.258  16.142  13.436
14749W        W79569  24.990  28.343   0.632
14750W        W79570  38.141  26.059   3.703
14751W        W79571  15.262  30.599  10.596
14752W        W79572  42.448   8.093  13.925
14753W        W79573   1.861   9.692  11.588
14754W        W79574  24.909  31.874   3.642
14755W        W79575  28.652  21.956  12.409
14756W        W79576   6.283  34.993   0.537
14757W        W79577  44.697   8.285  10.505
14758W        W79578  22.213  20.970   1.474
14759W        W79579   6.039  12.578  12.183
14760W        W79580  15.209   8.412  10.748
14761W        W79581   2.032  36.469   0.494
14762W        W79582  13.013  44.343   4.719
14763W        W79583  20.446   8.730  14.599
14764W        W79584  16.247  42.037  14.589
14765W        W79585   5.944  10.984  12.524
14766W        W79586  44.037  19.807  12.715
14767W        W79587  19.256  16.194   1.785
14768W        W79588  31.916   8.841  10.087
14769W        W79589  18.169  10.234  11.673
14770W        W79590   5.796  42.196   4.565
14771W        W79591   1.953  22.494  12.194
14772W        W79592  44.896  23.890   3.684
14773W        W79593  23.485  24.009   1.677
14774W        W79594  12.015  11.768   4.773
14775W        W79595  41.463  32.286   3.560
14776W        W79596  34.336  12.219  11.497
14777W        W79597  37.923  42.688   0.890
14778W        W79598  34.573   7.286  11.544
14779W        W79599  18.603  15.340   3.276
14780W        W79600   3.479   3.195  12.031
14781W        W79601  34.827  36.283  14.900
14782W        W79602   8.212  16.852   3.160
14783W        W79603  37.408  19.002  13.257
14784W        W79604  15.246   0.269  10.401
14785W        W79605  12.215  35.325  12.113
14786W        W79606  40.199  40.911  14.005
14787W        W79607  27.056  36.557   0.160
14788W        W79608  39.328   3.409   4.162
14789W        W79609  13.030  15.545  13.412
14790W        W79610  44.279  15.158   1.100
14791W        W79611  18.214  24.295  12.549
14792W        W79612   6.304  17.103  14.074
14793W        W79613  38.302   8.751   0.895
14794W        W79614  13.165   4.063  12.781
14795W        W79615  26.735  33.430   0.168
14796W        W79616  23.611   3.959   2.771
14797W        W79617  25.046  37.477  13.468
14798W        W79618  27.728  33.868  12.523
14799W        W79619  44.373   4.709   1.948
14800W        W79620  29.035  42.725  12.472
14801W        W79621   5.912  43.063   0.125
14802W        W79622  31.915   5.727   4.592
14803W        W79623   2.840  31.615   2.915
14804W        W79624   3.937  26.200   1.124
14805W        W79625   4.345   0.471   4.634
14806W        W79626  18.782  17.557  14.524
14807W        W79627  22.234  30.971   0.535
14808W        W79628  15.615  13.326   4.302
14809W        W79629  39.286  20.739   2.469
14810W        W79630  21.464  15.660   4.146
14811W        W79631  35.645  32.880   2.792
14812W        W79632  11.178  15.980   1.696
14813W        W79633  19.887  44.319   0.542
14814W        W79634  24.646  35.593  11.847
14815W        W79635  34.145  44.767  11.681
14816W        W79636   2.923  16.367   4.769
14817W        W79637  15.998  16.402   9.960
14818W        W79638  42.551  27.974   3.610
14819W        W79639  20.232  36.636  12.148
14820W        W79640   6.858   2.225   1.149
14821W        W79641  16.324  29.433  13.861
14822W        W79642  17.251  35.163   4.545
14823W        W79643  17.415  37.774   0.234
14824W        W79644  35.613  15.638   1.050
14825W        W79645   1.540  28.152  14.257
14826W        W79646  24.747  42.078   3.824
14827W        W79647  26.470  35.923  14.374
14828W        W79648  32.556  23.917   2.133
14829W        W79649  30.204  22.397   3.232
14830W        W79650  39.733  35.410   3.252
14831W        W79651  22.256  38.314   2.027
14832W        W79652   2.845  18.940  14.026
14833W        W79653  39.093   9.376  11.921
14834W        W79654  24.767  28.656   1.023
14835W        W79655  33.644  43.242  14.990
14836W        W79656  15.805  17.172  14.811
14837W        W79657  22.395   4.183  11.850
14838W        W79658  23.105  13.287  13.161
14839W        W79659  44.404   4.850  10.667
14840W        W79660  16.562  40.849  14.940
14841W        W79661  15.100   0.204  12.216
14842W        W79662   1.411  26.029   2.671
14843W        W79663  29.138  25.228   1.954
14844W        W79664   2.893   8.189  12.041
14845W        W79665  36.920  15.151  11.175
14846W        W79666  41.810  35.812   0.650
14847W        W79667  31.763  23.323   1.377
14848W        W79668  40.022   5.930   1.285
14849W        W79669   2.661   9.329   3.602
14850W        W79670  14.154  38.164   4.007
14851W        W79671  38.774   2.189   0.471
14852W        W79672  25.630  21.945   9.877
14853W        W79673  31.385  13.903   3.208
14854W        W79674  18.704   6.751  12.630
14855W        W79675  27.044  10.375  12.012
14856W        W79676   3.483  28.002   1.764
14857W        W79677  16.682  10.328   1.742
14858W        W79678  13.739   7.771   2.197
14859W        W79679  38.887  31.227  12.310
14860W        W79680  30.553  29.134   3.706
14861W        W79681   0.904  44.670   2.243
14862W        W79682  38.843   9.820  12.624
14863W        W79683  44.797  30.049   2.596
14864W        W79684  34.911  36.972  14.449
14865W        W79685  28.701  35.493  11.331
14866W        W79686  10.780   2.458   1.131
14867W        W79687  43.716  12.872  13.963
14868W        W79688  31.917  17.770   3.807
14869W        W79689  14.691  43.894  12.018
14870W        W79690  42.176  44.025  12.336
14871W        W79691  35.127  36.952   3.162
14872W        W79692  35.655  42.359  14.933
14873W        W79693  21.795  38.480  11.409
14874W        W79694  41.299  44.496  11.602
14875W        W79695   8.930  29.167   3.224
14876W        W79696  25.527  39.385  14.286
14877W        W79697  30.451  30.685   3.198
14878W        W79698  36.437  32.974   1.703
14879W        W79699  20.202  35.663  12.440
14880W        W79700  44.792  43.549   1.239
14881W        W79701   9.640  40.328   3.240
14882W        W79702   9.545  28.785   0.231
14883W        W79703  42.455  15.382  13.309
14884W        W79704  14.094  15.544  14.940
14885W        W79705   0.512  32.520  14.056
14886W        W79706   5.785  43.474   3.613
14887W        W79707  12.407   4.706  14.082
14888W        W79708  41.209   3.374   4.546
14889W        W79709  23.708  19.870  11.819
14890W        W79710   0.369  23.671   3.272
14891W        W79711  29.139  44.959   2.267
14892W        W79712   0.919  20.745   9.864
14893W        W79713   1.893   7.342  13.786
14894W        W79714  29.428  42.515  13.980
14895W        W79715  28.225  18.207  12.084
14896W        W79716  35.267  18.332   0.926
14897W        W79717   8.676   7.120   0.857
14898W        W79718  13.234  27.066   2.825
14899W        W79719  30.072  17.242   3.146
14900W        W79720  34.894   9.307  12.098
14901W        W79721  33.642  17.457   4.162
14902W        W79722  40.086   1.350   0.313
14903W        W79723   0.351  30.091   4.246
14904W        W79724  21.760  28.199   3.284
14905W        W79725  25.406  15.790  11.176
14906W        W79726  42.532  28.929   1.435
14907W        W79727  40.084  23.147   2.759
14908W        W79728  26.005   4.837  10.528
14909W        W79729   6.272  34.519   3.002
14910W        W79730  40.499  10.602   2.227
14911W        W79731  41.676   6.947   1.750
14912W        W79732   3.126  31.498  14.687
14913W        W79733  26.502  25.269   0.990
14914W        W79734  21.533  41.584   3.266
14915W        W79735  33.708  12.733  14.593
14916W        W79736  22.471   6.317   0.138
14917W        W79737  12.299  41.340  10.563
14918W        W79738  28.011  16.692   0.150
14919W        W79739  29.014  12.838   3.553
14920W        W79740  24.653  40.634   2.843
14921W        W79741  27.943  39.405   3.790
14922W        W79742  32.136  14.917  11.747
14923W        W79743   5.574  31.910   0.104
14924W        W79744  28.058   8.987   0.988
14925W        W79745   2.561  25.074  10.568
14926W        W79746  37.724  11.196  10.254
14927W        W79747   2.354  32.621   1.564
14928W        W79748   0.638  18.167   2.329
14929W        W79749  34.812  11.408   1.878
14930W        W79750  39.517  18.062  12.008
14931W        W79751   7.431  37.440  10.868
14932W        W79752  14.182  10.116  13.805
14933W        W79753  15.320  10.124   1.761
14934W        W79754  11.775  37.431   3.232
14935W        W79755   9.878  24.677   3.303
14936W        W79756  43.702  40.961  14.882
14937W        W79757  34.452  32.183   3.537
14938W        W79758   2.676  38.615   1.758
14939W        W79759  26.274  28.557   2.275
14940W        W79760  30.154  42.786   1.161
14941W        W79761  13.734  32.374   0.741
14942W        W79762  39.009  13.795   1.896
14943W        W79763   2.973  20.378   4.294
14944W        W79764  30.548   7.271   0.701
14945W        W79765  23.051   7.126   0.823
14946W        W79766  30.611  40.637   1.858
14947W        W79767   0.457  32.404  14.607
14948W        W79768  16.913  18.904   4.179
14949W        W79769  11.643  35.443   2.233
14950W        W79770   9.369  13.682  13.988
14951W        W79771  44.322  38.380   4.201
14952W        W79772   5.173  15.416  10.051
14953W        W79773   4.111  29.179   0.944
14954W        W79774   7.916  36.273  11.162
14955W        W79775  41.615  13.751  12.027
14956W        W79776   6.105   5.714  13.770
14957W        W79777  35.351  10.666  14.560
14958W        W79778  26.416  31.382  12.498
14959W        W79779  41.767  22.541   3.231
14960W        W79780  26.565  23.529   3.872
14961W        W79781  16.035  16.764  11.405
14962W        W79782  16.577  29.646  11.028
14963W        W79783  41.244  11.527  14.787
14964W        W79784   4.296  44.985   2.387
14965W        W79785  17.582  39.601   0.931
14966W        W79786  36.575  35.417  14.884
14967W        W79787   7.372  38.375  11.547
14968W        W79788  23.726  24.290  11.170
14969W        W79789  38.184  21.117   9.963
14970W        W79790   5.973   9.837   3.286
14971W        W79791  11.641  19.990   2.836
14972W        W79792  12.954  27.959   5.012
14973W        W79793  19.066  21.555  12.464
14974W        W79794  31.172  29.047   1.264
14975W        W79795  30.429  30.885   1.960
14976W        W79796   2.849  44.067  11.558
14977W        W79797  39.911  42.986  12.480
14978W        W79798  35.843  29.495   1.346
14979W        W79799  27.955  36.425   1.211
14980W        W79800   5.508  43.401  13.104
14981W        W79801  26.173  29.695  13.048
14982W        W79802  43.035  10.128  12.857
14983W        W79803  20.587  37.887   3.261
14984W        W79804   2.495   2.203   3.383
14985W        W79805   2.903  11.272  10.756
14986W        W79806  41.146  30.905  12.112
14987W        W79807  13.798  28.073  10.627
14988W        W79808  28.833  32.144   2.520
14989W        W79809  40.854  36.802   0.763
14990W        W79810   1.919  19.788  12.926
14991W        W79811  43.768  12.971  12.345
14992W        W79812  12.387   0.347  10.656
14993W        W79813  14.839   9.302   3.624
14994W        W79814   8.388  34.331   4.681
14995W        W79815   9.625   0.671  13.425
14996W        W79816  43.438  36.011  13.849
14997W        W79817  31.745  40.990  11.596
14998W        W79818   1.780   9.373  12.153
14999W        W79819   0.239  20.103  14.896
15000W        W79820  27.990  44.780  13.469
15001W        W79821  31.918  21.273  13.442
15002W        W79822  13.406  38.350  14.355
15003W        W79823   4.313  39.626  14.864
15004W        W79824  34.810  41.850  12.809
15005W        W79825  21.450  41.025   4.043
15006W        W79826  26.160  41.355   0.501
15007W        W79827  30.904  33.706   1.773
15008W        W79828   5.157  35.953  10.631
15009W        W79829  37.102   9.845   0.244
15010W        W79830  18.194  24.140  13.045
15011W        W79831  35.287  35.006  14.880
15012W        W79832  40.880  35.912   1.260
15013W        W79833   2.416  16.538   4.198
15014W        W79834  11.643  30.694   5.058
15015W        W79835   7.951   6.514  11.457
15016W        W79836   8.916  24.474  11.575
15017W        W79837  40.128  23.942  14.991
15018W        W79838  26.201  38.919   1.511
15019W        W79839   1.033  10.158  10.893
15020W        W79840  12.877   5.893   0.024
15021W        W79841   1.345  24.591   1.101
15022W        W79842  36.332  23.969  13.385
15023W        W79843  30.726  36.651   0.879
15024W        W79844   5.576   4.453   4.224
15025W        W79845  34.424  42.520   2.916
15026W        W79846  30.926   1.338  11.199
15027W        W79847  38.123  27.859  11.166
15028W        W79848  41.314  35.483   1.696
15029W        W79849   5.999  41.488  10.678
15030W        W79850  41.201   3.473  12.938
15031W        W79851   7.910  41.301  13.424
15032W        W79852  14.445  38.433  14.350
15033W        W79853  14.758  23.506  12.279
15034W        W79854   2.344  12.034   4.740
15035W        W79855   5.403  43.265   1.910
15036W        W79856   5.472  21.162   2.395
15037W        W79857  21.997  16.645   2.440
15038W        W79858  24.112  40.728  10.695
15039W        W79859   0.933  37.563  14.323
15040W        W79860   3.330  27.014  11.593
15041W        W79861   4.995   0.357  13.074
15042W        W79862  22.999  38.051  12.931
15043W        W79863   1.778   1.427  11.933
15044W        W79864   8.917  40.567  12.043
15045W        W79865   1.224  11.825   0.482
15046W        W79866  32.933  13.050   2.269
15047W        W79867   6.346  42.551  11.602
15048W        W79868   9.574  29.529   3.711
15049W        W79869  13.302  44.384  11.353
15050W        W79870  22.524  43.244   4.971
15051W        W79871  42.112  43.521   3.296
15052W        W79872  24.796  39.770  12.383
15053W        W79873  42.027  29.633   2.305
15054W        W79874   1.314  21.749   0.308
15055W        W79875  37.145  38.453  11.951
15056W        W79876  21.071  22.100  14.857
15057W        W79877  19.688  12.370   3.733
15058W        W79878  31.945  41.439   2.428
15059W        W79879  25.976   8.065  14.984
15060W        W79880  29.939  16.190   5.465
15061W        W79881  29.013  29.324   3.189
15062W        W79882  15.569  12.676   0.679
15063W        W79883  12.641   0.501  14.600
15064W        W79884  34.839  32.058   0.735
15065W        W79885  28.079   3.015   3.306
15066W        W79886   7.152  21.742   3.646
15067W        W79887  15.270  28.057   3.789
15068W        W79888  38.795   4.926  14.564
15069W        W79889  21.119  11.857   5.017
15070W        W79890   3.482  36.413  12.990
15071W        W79891  14.266   8.657  11.104
15072W        W79892  25.132  19.989   0.660
15073W        W79893  32.159  22.795   9.917
15074W        W79894  42.340  37.768  11.080
15075W        W79895  33.639  23.557   2.211
15076W        W79896  29.894  43.848   4.031
15077W        W79897  16.552  21.636   3.636
15078W        W79898   9.756  33.018  13.196
15079W        W79899  10.711   0.258  12.558
15080W        W79900   8.929  15.151  12.958
15081W        W79901  28.079  20.985   3.449
15082W        W79902  23.095  43.963   4.576
15083W        W79903  11.739  18.209   3.120
15084W        W79904  16.324  13.146   2.645
15085W        W79905   4.732  36.143  10.864
15086W        W79906  16.249  41.953   1.741
15087W        W79907  10.244   6.229   1.792
15088W        W79908  18.216   2.983   0.405
15089W        W79909  14.734  29.711   2.103
15090W        W79910  19.294   3.284   0.334
15091W        W79911  32.428   9.096   3.867
15092W        W79912  35.931  20.955   4.798
15093W        W79913   3.559  22.627  10.686
15094W        W79914  40.104   8.906  10.784
15095W        W79915  19.354  23.043   1.769
15096W        W79916  16.024  41.482  11.218
15097W        W79917  22.728   7.280   0.436
15098W        W79918  24.901  16.557   3.183
15099W        W79919  10.883  33.105   4.234
15100W        W79920  28.621   7.463   1.320
15101W        W79921  18.981  20.589  11.004
15102W        W79922  14.238  25.158  14.755
15103W        W79923  44.733  18.616   2.632
15104W        W79924  17.119  30.558  12.939
15105W        W79925  13.798   4.662   4.746
15106W        W79926  14.647  37.147   0.887
15107W        W79927  32.902   5.654   2.312
15108W        W79928  30.518  25.106   0.251
15109W        W79929  16.337  39.447   0.442
15110W        W79930  11.456  36.740  10.665
15111W        W79931  14.256  41.329  13.201
15112W        W79932  20.355  23.662   4.746
15113W        W79933  15.393   5.244   1.872
15114W        W79934  23.666   4.841   2.243
15115W        W79935  31.527  18.269  12.150
15116W        W79936  16.221  23.133   2.611
15117W        W79937   6.002   6.131   0.948
15118W        W79938  33.165   9.403   2.757
15119W        W79939  10.894  39.730  11.091
15120W        W79940  12.108   2.982  10.729
15121W        W79941  13.304   9.077   3.738
15122W        W79942  24.670  11.519   0.722
15123W        W79943  16.562  31.434   2.785
15124W        W79944  38.279  23.685   3.972
15125W        W79945  33.376  38.900   3.897
15126W        W79946  27.094   7.418  13.063
15127W        W79947  10.156  42.485  12.583
15128W        W79948  39.088  29.061   2.379
15129W        W79949  11.269  27.437  14.537
15130W        W79950  21.671  18.733   0.417
15131W        W79951  20.681  41.489   4.422
15132W        W79952   0.539   0.017  12.893
15133W        W79953   8.280  31.034   0.840
15134W        W79954   7.376  40.454   2.303
15135W        W79955  43.899   4.480   3.610
15136W        W79956  21.815  40.887   2.764
15137W        W79957   8.970   8.442  13.685
15138W        W79958  30.325  31.333   2.320
15139W        W79959  23.791  42.221   2.354
15140W        W79960  20.779  25.313  11.254
15141W        W79961  39.301  19.851   3.738
15142W        W79962  27.203  13.593  10.661
15143W        W79963  34.168  16.964   4.943
15144W        W79964  33.099  42.750   3.210
15145W        W79965  37.806  43.934   2.292
15146W        W79966  22.884   0.007  12.520
15147W        W79967  16.602   8.103   3.204
15148W        W79968  42.528   2.444   0.448
15149W        W79969   5.858   3.464   1.000
15150W        W79970   7.721  43.284  10.731
15151W        W79971  25.725  10.205  12.683
15152W        W79972  22.259  15.075   0.448
15153W        W79973  32.136  25.608   3.008
15154W        W79974  42.021  24.190   9.869
15155W        W79975  20.536  16.216  14.253
15156W        W79976  15.498  35.585   1.063
15157W        W79977   7.208  39.272   1.769
15158W        W79978  16.845  34.626  13.862
15159W        W79979   8.227  36.967   3.454
15160W        W79980  39.681  36.500  14.339
15161W        W79981  34.068  34.397   3.231
15162W        W79982  18.589   6.780  14.999
15163W        W79983  28.642  15.397   3.709
15164W        W79984  15.474   0.541   2.240
15165W        W79985  41.083  18.490   3.844
15166W        W79986  34.455  33.973   2.326
15167W        W79987  23.560  17.762  13.826
15168W        W79988  15.679  27.567  13.426
15169W        W79989  27.417  39.828  14.919
15170W        W79990  34.558  40.976   3.600
15171W        W79991  22.547  40.292   3.264
15172W        W79992  21.069  27.585   0.869
15173W        W79993  40.278  28.467   4.257
15174W        W79994  22.603  10.369   1.831
15175W        W79995  29.676  37.845   4.303
15176W        W79996  16.849  21.690  10.442
15177W        W79997   1.687  30.844   2.046
15178W        W79998   6.656  16.646  14.424
15179W        W79999   6.593  11.335  10.651
15180W        W80000  42.462  12.603  12.527
15181W        W80001  22.425  27.164   3.626
15182W        W80002  31.913   3.737   0.888
15183W        W80003   5.484  11.284   0.822
15184W        W80004  20.847  29.714  13.798
15185W        W80005   8.442  10.158  11.988
15186W        W80006  27.412  26.026   0.643
15187W        W80007  18.730  29.548  10.679
15188W        W80008  23.986  11.365  13.097
15189W        W80009  19.986  36.476   0.923
15190W        W80010  21.097   1.740   1.419
15191W        W80011  43.128  22.703   1.309
15192W        W80012  44.034  41.354  11.979
15193W        W80013  20.308   8.736   3.131
15194W        W80014  17.167  24.173   4.989
15195W        W80015  14.395  34.847  14.771
15196W        W80016  17.241  24.117  14.999
15197W        W80017  10.409  17.276   4.597
15198W        W80018  32.567  24.331  13.490
15199W        W80019  11.402   1.666  10.715
15200W        W80020  35.344  34.845  11.638
15201W        W80021  26.646  26.638   2.361
15202W        W80022   3.384  14.778  10.992
15203W        W80023  28.891  41.881   3.740
15204W        W80024  42.028   7.769  11.579
15205W        W80025  44.938  34.063  13.335
15206W        W80026  20.053   0.450   0.246
15207W        W80027   1.322  42.336   3.330
15208W        W80028   7.784  17.287  10.333
15209W        W80029  18.170  23.275  10.731
15210W        W80030   0.599  18.453  11.057
15211W        W80031   7.231   3.315  13.907
15212W        W80032   4.954  43.396  14.950
15213W        W80033  38.915   1.376   2.868
15214W        W80034  20.968  26.607   3.790
15215W        W80035  44.340  16.268  11.967
15216W        W80036   4.394  33.876  14.002
15217W        W80037  13.126   0.836  10.726
15218W        W80038  44.045  24.001   0.349
15219W        W80039  14.819   9.703  14.292
15220W        W80040  32.598  28.433  11.135
15221W        W80041  30.445  33.633  12.934
15222W        W80042  40.443  15.099   3.238
15223W        W80043   7.724  29.461   1.354
15224W        W80044  27.671   9.729   3.763
15225W        W80045  10.379  37.144  11.634
15226W        W80046   0.300  43.256   4.529
15227W        W80047   7.394  35.380   1.833
15228W        W80048  17.972  43.439   1.738
15229W        W80049  43.992  12.772   0.286
15230W        W80050  33.596  38.944  11.264
15231W        W80051  34.039  34.118  14.127
15232W        W80052  17.759   1.449   0.471
15233W        W80053  41.085  29.671  14.920
15234W        W80054  38.149  30.601  13.770
15235W        W80055  12.769  40.385  14.520
15236W        W80056  19.626  18.303  10.988
15237W        W80057  32.700   9.407   1.445
15238W        W80058  34.433  42.101  13.079
15239W        W80059  21.712  14.775  11.547
15240W        W80060  28.006  27.326  14.933
15241W        W80061   7.630  27.800   5.458
15242W        W80062   8.372  28.905   3.781
15243W        W80063  37.248  36.900  13.213
15244W        W80064   6.955  22.117  12.052
15245W        W80065  14.239  41.771  12.420
15246W        W80066   1.907  39.759   0.389
15247W        W80067  21.736  26.412   1.406
15248W        W80068  32.733   9.141   1.012
15249W        W80069  40.077   7.203   0.798
15250W        W80070  14.147   0.014   0.293
15251W        W80071  30.764   6.835  10.577
15252W        W80072  15.186   1.156  11.549
15253W        W80073  15.368  23.746  13.558
15254W        W80074  33.549  37.518   0.372
15255W        W80075  32.903  23.547  11.496
15256W        W80076  42.568   7.786  10.729
15257W        W80077  14.436   6.325  12.591
15258W        W80078  41.277  11.743   1.968
15259W        W80079   4.259  13.637   3.330
15260W        W80080  36.662  22.791   4.985
15261W        W80081   7.927   1.947  13.059
15262W        W80082  13.679  44.541  14.857
15263W        W80083  41.392  23.661  14.000
15264W        W80084  31.377  44.068   0.596
15265W        W80085  43.793  25.480   2.587
15266W        W80086  39.875  28.400   1.264
15267W        W80087  44.740  32.412  10.557
15268W        W80088  31.312  16.644   0.787
15269W        W80089  27.049  35.877   2.315
15270W        W80090   8.338  17.873   3.335
15271W        W80091  20.507  26.890   3.694
15272W        W80092   6.832   0.320  11.734
15273W        W80093  23.470   2.974  13.439
15274W        W80094  23.263  18.635   1.519
15275W        W80095   9.413  11.047  10.801
15276W        W80096  31.524  20.617   1.368
15277W        W80097  22.239  20.243  14.943
15278W        W80098  43.615   2.540  11.150
15279W        W80099  32.498  38.514   0.049
15280W        W80100  11.633   3.242   2.137
15281W        W80101  21.458  20.340  12.354
15282W        W80102  28.224  19.788  10.243
15283W        W80103  14.219  38.409  13.450
15284W        W80104  13.606  14.872  14.696
15285W        W80105  28.125  28.723  10.584
15286W        W80106  13.173   2.294   0.581
15287W        W80107   6.115  18.944   4.270
15288W        W80108   4.862  20.556  14.981
15289W        W80109  18.475  13.951  11.714
15290W        W80110  30.646  17.378  12.389
15291W        W80111   1.935  43.500   0.558
15292W        W80112  40.307  32.745  14.413
15293W        W80113  25.006  42.981  14.273
15294W        W80114  31.796  35.388  11.822
15295W        W80115   0.907  37.846   1.289
15296W        W80116  16.844  25.121  14.436
15297W        W80117  40.388  15.681   1.390
15298W        W80118  36.375  40.983   3.718
15299W        W80119  22.811  19.615   4.124
15300W        W80120  20.127   5.890  12.902
15301W        W80121  39.177   3.359   2.343
15302W        W80122   9.662   0.233  14.914
15303W        W80123   6.398  42.516   1.981
15304W        W80124  34.892  22.119   2.263
15305W        W80125  15.033  22.652  10.506
15306W        W80126  37.392   8.899   1.285
15307W        W80127  30.445  39.236   2.342
15308W        W80128  18.128   7.414   1.137
15309W        W80129  37.436  42.289  14.955
15310W        W80130  20.103  16.398   2.262
15311W        W80131  43.288   7.514  14.023
15312W        W80132   8.785  27.645   0.933
15313W        W80133  32.695  11.564   3.283
15314W        W80134  35.065  34.316   3.568
15315W        W80135  30.997  18.707  13.328
15316W        W80136  38.593  12.757  14.567
15317W        W80137   2.472  44.461   2.257
15318W        W80138  11.192   3.209  14.814
15319W        W80139   1.245  42.403  10.870
15320W        W80140  44.753  19.842   5.118
15321W        W80141  12.274  26.181  12.870
15322W        W80142  15.081   5.590  11.122
15323W        W80143  17.852  23.222   0.695
15324W        W80144   0.351   3.761   1.194
15325W        W80145  37.613  16.683  11.149
15326W        W80146  19.870  25.625  11.042
15327W        W80147   9.179  44.121   2.369
15328W        W80148  22.475   1.939  13.773
15329W        W80149  43.703  27.041  14.337
15330W        W80150  27.450  41.376   3.747
15331W        W80151   1.444  19.594  13.499
15332W        W80152  17.090  42.289   0.343
15333W        W80153  21.132  39.829  13.939
15334W        W80154  31.720  19.216   2.261
15335W        W80155  21.605   2.528   1.776
15336W        W80156  31.003  27.477  13.006
15337W        W80157   1.644   1.422   4.196
15338W        W80158   3.495  11.270  11.733
15339W        W80159  28.934   8.942  10.651
15340W        W80160  34.886   8.874  14.827
15341W        W80161   3.941  41.545   3.346
15342W        W80162   1.158  26.485  12.011
15343W        W80163  29.641   3.476   3.843
15344W        W80164  29.206  23.086  11.566
15345W        W80165  24.301  17.058  12.535
15346W        W80166  39.414  20.356   3.774
15347W        W80167  20.681  25.676   2.387
15348W        W80168   9.696  33.591   3.241
15349W        W80169  10.701  20.086  11.493
15350W        W80170  22.216  22.746  13.340
15351W        W80171  22.483   2.356   0.876
15352W        W80172   6.435  40.278  13.755
15353W        W80173  20.741  15.363   1.452
15354W        W80174  35.313   9.165  14.792
15355W        W80175  43.955  43.204   4.295
15356W        W80176  44.657  39.063   3.667
15357W        W80177  33.999  29.425   4.651
15358W        W80178  26.711  26.686   0.838
15359W        W80179  44.856  33.596  12.257
15360W        W80180  40.915  37.998  11.235
15361W        W80181   3.580  22.997   5.052
15362W        W80182  36.608  44.048   4.174
15363W        W80183  44.466   0.835   4.100
15364W        W80184  38.740  28.464   0.445
15365W        W80185  41.908  35.324   0.488
15366W        W80186   7.281   3.041   2.542
15367W        W80187  42.078  25.350  12.100
15368W        W80188   4.263  30.929   3.178
15369W        W80189  42.325  42.004  12.833
15370W        W80190   7.812  23.177  12.475
15371W        W80191   3.700  43.249  10.430
15372W        W80192  43.098   6.190  14.390
15373W        W80193  32.431  16.670   3.265
15374W        W80194  27.596  12.754   3.890
15375W        W80195  29.005  34.314  11.402
15376W        W80196  32.148  18.896   3.295
15377W        W80197  29.991   1.747   4.220
15378W        W80198  16.642   7.680  10.535
15379W        W80199  43.642  30.323  14.158
15380W        W80200  21.839  16.156  11.938
15381W        W80201  44.944   4.814  12.164
15382W        W80202  26.574  27.259   1.512
15383W        W80203  27.480  13.802   4.538
15384W        W80204  42.508  36.269   2.811
15385W        W80205  10.336  19.857  11.754
15386W        W80206  20.455   2.990   1.369
15387W        W80207  40.305  15.582  14.149
15388W        W80208   5.183  16.308  12.567
15389W        W80209   9.247  41.014  11.603
15390W        W80210  10.663   5.445   0.440
15391W        W80211   4.752   7.139   1.972
15392W        W80212   8.864  41.414   0.817
15393W        W80213  38.536  13.390  13.862
15394W        W80214  41.058   2.650  11.229
15395W        W80215  34.650   7.644  11.188
15396W        W80216   0.272  19.949   0.773
15397W        W80217   2.928  40.095   3.653
15398W        W80218  12.413  27.989   2.641
15399W        W80219   0.575  15.148   3.123
15400W        W80220  20.749   1.498  10.564
15401W        W80221  22.521   5.977   3.191
15402W        W80222  18.775  10.337  13.978
15403W        W80223  27.944  25.011  13.490
15404W        W80224  42.766  12.765   3.660
15405W        W80225   0.902  32.555   0.884
15406W        W80226  22.662  14.736   3.550
15407W        W80227  17.063  42.985  14.542
15408W        W80228  27.164  20.331   0.814
15409W        W80229  26.646  42.374   0.288
15410W        W80230  43.305   1.378  13.401
15411W        W80231  16.595  10.104   1.231
15412W        W80232  17.781   5.059  14.029
15413W        W80233  12.850  24.088   4.666
15414W        W80234  27.141   7.442   3.758
15415W        W80235  16.010  15.762  14.938
15416W        W80236  16.093   9.593  11.126
15417W        W80237  41.422   6.929  14.495
15418W        W80238  25.711  33.132  14.341
15419W        W80239   5.896  15.028  13.648
15420W        W80240  29.022  18.668   3.753
15421W        W80241  24.611   1.488  12.643
15422W        W80242   9.001  28.279  10.992
15423W        W80243  44.250  41.431   4.730
15424W        W80244   4.696  21.564  13.824
15425W        W80245   7.383  14.335   2.780
15426W        W80246   8.619  12.222   1.437
15427W        W80247  25.001  39.816   1.262
15428W        W80248  44.310  17.090  10.844
15429W        W80249   8.372   7.419   2.439
15430W        W80250   5.340  16.838   3.629
15431W        W80251  11.744  13.118  14.356
15432W        W80252  25.199  43.955  13.005
15433W        W80253  17.046  10.919   5.719
15434W        W80254   0.006  22.087   1.188
15435W        W80255  33.326  43.689  14.941
15436W        W80256  30.128  16.562  14.844
15437W        W80257  34.073  33.694   4.188
15438W        W80258  29.852  15.828  13.071
15439W        W80259   9.125  37.370  11.167
15440W        W80260  34.402  21.562   4.694
15441W        W80261  40.910  33.137   2.793
15442W        W80262  14.645   7.201  13.531
15443W        W80263  26.769  31.077   2.693
15444W        W80264  36.870  19.370  12.857
15445W        W80265  36.853  22.342   4.270
15446W        W80266  11.112  28.267   5.008
15447W        W80267  40.429   0.482  10.932
15448W        W80268  27.324   6.491  12.921
15449W        W80269  10.596   1.359  13.759
15450W        W80270   2.446  35.415   1.777
15451W        W80271  24.901   3.870   4.536
15452W        W80272   1.258  30.111  12.906
15453W        W80273  16.348  13.123  14.916
15454W        W80274  36.438   5.765  13.370
15455W        W80275   5.498   4.269  12.455
15456W        W80276  20.241  25.498   0.164
15457W        W80277  19.554  20.815   2.288
15458W        W80278  11.382  34.412  13.956
15459W        W80279  37.837  44.232  13.997
15460W        W80280  28.666   2.797  11.407
15461W        W80281   9.387  13.196   3.762
15462W        W80282  29.063  40.584   2.905
15463W        W80283  24.719  22.005  14.831
15464W        W80284  24.488  24.454  11.985
15465W        W80285  41.302  17.313   1.452
15466W        W80286  23.158  44.429   0.754
15467W        W80287   4.681  22.719   0.480
15468W        W80288   4.448  33.273   4.663
15469W        W80289  16.737  17.740   0.084
15470W        W80290  33.632  17.775   2.815
15471W        W80291  18.499   8.170   1.749
15472W        W80292  30.703  13.576   0.633
15473W        W80293  39.971  32.892  13.989
15474W        W80294  26.554   3.714   0.220
15475W        W80295   6.717  27.597  10.819
15476W        W80296  40.321  32.023   1.189
15477W        W80297   9.395  23.030   9.963
15478W        W80298   8.102  24.647   2.300
15479W        W80299   2.938  19.361   1.662
15480W        W80300  16.573  19.433  12.999
15481W        W80301  43.766  35.577  12.098
15482W        W80302   2.265  38.754  12.400
15483W        W80303  39.357  44.900   1.184
15484W        W80304  18.291  21.534  13.551
15485W        W80305   7.282  44.912   2.163
15486W        W80306  12.607  26.063  14.429
15487W        W80307  34.419  21.720  13.106
15488W        W80308  18.457  30.515   4.282
15489W        W80309  12.249  38.670  10.432
15490W        W80310  21.168  36.679   0.292
15491W        W80311   7.259  35.091  12.807
15492W        W80312   4.867  40.811  14.098
15493W        W80313  41.253  20.463   3.691
15494W        W80314  35.842  37.774  13.078
15495W        W80315  36.952  39.987  13.087
15496W        W80316  43.942   3.237   2.146
15497W        W80317   0.067  35.411   1.431
15498W        W80318  24.910  29.145   1.793
15499W        W80319  20.861  16.186  14.651
15500W        W80320  32.388  11.698   4.605
15501W        W80321   7.508  30.500   1.849
15502W        W80322  22.273  30.352   2.194
15503W        W80323  17.315   9.307   0.326
15504W        W80324  32.353   0.836   1.219
15505W        W80325  19.283  24.929  14.326
15506W        W80326  26.583  10.853  10.715
15507W        W80327  22.170   2.938   2.872
15508W        W80328  42.741  44.306   4.637
15509W        W80329  37.543  20.853  14.198
15510W        W80330  13.057  32.653  10.219
15511W        W80331  20.120  41.529  13.013
15512W        W80332  10.697  38.051   1.878
15513W        W80333   1.811  16.626   3.387
15514W        W80334   5.148   0.993  14.787
15515W        W80335  38.915  34.860   3.613
15516W        W80336   6.372  15.637   1.457
15517W        W80337  43.338  34.244   1.871
15518W        W80338  25.544  27.534   3.143
15519W        W80339  26.864  43.821   2.237
15520W        W80340  27.377  34.424   9.986
15521W        W80341  38.120  12.256  10.207
15522W        W80342   8.788  39.137  13.963
15523W        W80343  38.113   2.977   3.590
15524W        W80344   4.917  44.236   4.508
15525W        W80345  44.717  43.903  10.626
15526W        W80346  13.176  35.601  14.941
15527W        W80347  10.414   5.797   4.876
15528W        W80348  32.003  22.422  14.765
15529W        W80349  30.941  15.405  14.454
15530W        W80350   7.621  18.499  12.140
15531W        W80351  41.835  15.843  12.378
15532W        W80352  23.592  25.766  14.007
15533W        W80353  27.026   3.023   0.253
15534W        W80354  21.343   6.254  12.457
15535W        W80355  23.549  29.226  14.490
15536W        W80356  15.854   9.185  12.021
15537W        W80357   5.910   2.739   1.223
15538W        W80358   0.167  25.272  12.059
15539W        W80359  13.151  14.755  14.508
15540W        W80360  20.506  36.367   4.143
15541W        W80361  24.687  21.227   4.548
15542W        W80362  44.812   8.760   3.345
15543W        W80363  23.497  25.002  11.691
15544W        W80364   6.752  35.948   4.892
15545W        W80365  30.642  30.335   2.347
15546W        W80366  36.258   3.589  13.987
15547W        W80367   1.865   0.988  14.979
15548W        W80368  20.552  37.612   1.265
15549W        W80369  11.272  39.312   1.838
15550W        W80370  30.549  29.935   2.014
15551W        W80371   1.693   6.322   2.240
15552W        W80372  24.553  38.287   2.613
15553W        W80373  32.198   4.721  13.651
15554W        W80374  11.300   0.044  13.424
15555W        W80375  28.117  15.809  11.003
15556W        W80376  16.294  35.142  13.515
15557W        W80377  27.408  33.904  10.542
15558W        W80378  23.834  18.251   1.249
15559W        W80379  30.785  38.510   2.981
15560W        W80380  10.167  27.445   3.577
15561W        W80381  17.495  21.057  14.242
15562W        W80382  33.086  30.124  11.671
15563W        W80383  43.704  36.016  14.904
15564W        W80384  41.511  38.473   4.864
15565W        W80385   9.327  21.858   4.691
15566W        W80386  39.066  20.147   0.743
15567W        W80387   7.759  33.547  11.185
15568W        W80388  44.894  35.195   1.899
15569W        W80389  27.924  44.996   3.279
15570W        W80390   0.767  31.319  11.543
15571W        W80391   5.699  22.752   1.438
15572W        W80392  35.562  31.963  14.666
15573W        W80393  31.313  10.992  10.702
15574W        W80394  23.163  31.092  10.391
15575W        W80395   9.273  13.417   4.232
15576W        W80396  20.454  43.465   1.020
15577W        W80397  39.126  24.972   4.203
15578W        W80398  19.478  35.126   0.928
15579W        W80399  24.282  27.956  10.174
15580W        W80400  25.666   2.698  14.346
15581W        W80401   6.693  21.773  11.171
15582W        W80402  44.805  34.495   4.629
15583W        W80403  33.055   4.245   1.895
15584W        W80404  13.092   3.807  14.211
15585W        W80405  36.115   3.341  10.714
15586W        W80406  40.566  13.791   0.684
15587W        W80407  33.060   3.577   4.609
15588W        W80408  23.225   7.782  13.431
15589W        W80409  23.751  40.396   3.133
15590W        W80410  37.884  41.432  12.881
15591W        W80411   9.138   2.223  13.370
15592W        W80412  35.133   0.519   2.946
15593W        W80413  21.569  42.934  10.416
15594W        W80414   9.157  37.480   1.215
15595W        W80415  34.849  32.452   3.702
15596W        W80416  18.871  27.383  11.130
15597W        W80417   1.955  12.736  12.851
15598W        W80418  29.714  32.922  11.645
15599W        W80419  31.350  39.415   1.701
15600W        W80420   1.652  17.132   3.379
15601W        W80421  20.473  40.954   1.369
15602W        W80422  11.210  13.504   3.731
15603W        W80423  20.589   8.379  10.863
15604W        W80424  26.393  38.788   0.677
15605W        W80425  11.175   1.689   0.937
15606W        W80426  37.130  35.320  13.800
15607W        W80427  39.072   3.961  12.603
15608W        W80428  26.018  28.726  14.855
15609W        W80429  12.606   9.671  13.046
15610W        W80430  38.363  18.520   5.010
15611W        W80431  20.299  20.559  13.976
15612W        W80432   3.295  39.060  14.347
15613W        W80433  31.958  26.221  11.549
15614W        W80434  10.665  43.456  14.270
15615W        W80435  16.558  31.556   0.914
15616W        W80436  13.280  10.610   2.366
15617W        W80437  21.484  41.506  12.660
15618W        W80438  10.905  18.758   4.971
15619W        W80439  10.591  11.944   2.187
15620W        W80440  28.026   2.290   0.892
15621W        W80441  44.036  28.527  11.941
15622W        W80442   1.798  43.466  12.074
15623W        W80443  40.805  13.084  13.788
15624W        W80444  13.699  34.032  10.702
15625W        W80445  11.353  32.633  11.909
15626W        W80446  41.127  31.128  11.571
15627W        W80447  33.042  31.947   1.389
15628W        W80448   7.201  35.837  13.979
15629W        W80449  38.038   1.458  14.483
15630W        W80450  25.202   2.775  13.515
15631W        W80451  18.954  36.627   0.741
15632W        W80452   0.782  31.031  14.884
15633W        W80453  24.912  35.008   9.896
15634W        W80454  26.096  42.473   4.158
15635W        W80455  42.483   1.469  12.463
15636W        W80456  18.132  43.506   3.300
15637W        W80457  22.279  20.530   3.279
15638W        W80458  13.740  26.438   4.755
15639W        W80459  33.829  24.696  10.801
15640W        W80460  35.159   7.641  11.242
15641W        W80461  27.429  14.770   1.376
15642W        W80462  37.319  17.110  14.539
15643W        W80463  28.961  18.467  14.473
15644W        W80464  40.398  18.826   3.048
15645W        W80465   9.760  22.571  14.353
15646W        W80466  27.492   6.915   2.654
15647W        W80467  44.297  16.626   3.360
15648W        W80468   1.470  30.751  14.387
15649W        W80469  31.946  36.470  14.129
15650W        W80470   9.665  21.637   2.770
15651W        W80471   6.464  35.624   4.165
15652W        W80472   5.194  10.008   0.744
15653W        W80473  32.541  42.258  12.048
15654W        W80474  27.681  13.151   2.573
15655W        W80475  13.601  37.077  13.474
15656W        W80476  13.671  13.186  10.759
15657W        W80477   7.476  25.240  14.350
15658W        W80478   9.692  21.262  10.721
15659W        W80479  30.901  19.522   4.986
15660W        W80480  28.509  13.265  10.936
15661W        W80481  24.546  17.031   4.058
15662W        W80482  40.920  36.748  10.764
15663W        W80483  38.951  20.897   3.278
15664W        W80484  36.103  40.106  11.533
15665W        W80485  39.045  40.763  12.219
15666W        W80486  25.977  14.833  11.666
15667W        W80487   2.087  37.266   0.840
15668W        W80488  33.398  25.384  13.276
15669W        W80489  21.260   3.121   4.629
15670W        W80490  41.295  19.877   1.811
15671W        W80491   3.525  29.483   4.137
15672W        W80492   7.144  27.482   2.773
15673W        W80493  18.801  12.362   4.207
15674W        W80494  31.589  22.409   0.090
15675W        W80495  35.790   3.454   3.787
15676W        W80496  29.570   4.940  11.216
15677W        W80497   3.830  33.875  11.277
15678W        W80498  41.547   4.524   5.121
15679W        W80499  32.920   2.147   3.692
15680W        W80500   4.335  41.260   3.827
15681W        W80501  37.551  23.003   1.288
15682W        W80502  19.774  17.660   1.849
15683W        W80503  27.726   5.248  10.721
15684W        W80504  26.399  32.672  14.752
15685W        W80505  16.132  20.444   4.075
15686W        W80506  40.334  28.236   5.158
15687W        W80507  30.398  30.517  14.906
15688W        W80508   2.707   5.790   1.708
15689W        W80509   4.864   8.208  10.773
15690W        W80510  37.861  17.287   5.018
15691W        W80511  17.595  13.662  12.591
15692W        W80512   1.559  40.353  12.373
15693W        W80513  16.025  19.079   1.365
15694W        W80514  30.418  24.527   0.729
15695W        W80515  37.824  27.592  13.784
15696W        W80516   7.178  17.769   2.727
15697W        W80517   5.697  38.780  10.531
15698W        W80518  35.365  23.800   0.875
15699W        W80519  17.493   2.300  10.492
15700W        W80520  42.259   3.937   4.227
15701W        W80521  34.668  32.564  13.553
15702W        W80522  35.620  43.392  11.022
15703W        W80523  11.756  20.097  14.912
15704W        W80524  11.670  13.677  12.547
15705W        W80525  32.753  18.086  11.899
15706W        W80526  24.942  30.055   0.046
15707W        W80527  13.282   4.666  14.085
15708W        W80528   3.943  10.877  12.944
15709W        W80529  10.709  19.162   1.843
15710W        W80530  37.446   1.006  12.456
15711W        W80531  19.842  37.755  13.946
15712W        W80532   5.084  18.114  11.569
15713W        W80533  22.999   6.918   1.293
15714W        W80534  18.478  18.959   3.324
15715W        W80535  38.826  19.651  11.593
15716W        W80536  12.883  18.090   4.223
15717W        W80537  18.657   9.864   2.816
15718W        W80538  22.716  17.249  14.236
15719W        W80539   8.288  26.194  12.549
15720W        W80540  17.195  13.444   0.241
15721W        W80541  12.276  25.739   2.295
15722W        W80542  11.827  21.912  10.623
15723W        W80543  35.563  13.659  13.807
15724W        W80544  25.979  44.451  12.083
15725W        W80545   4.649  44.709   0.818
15726W        W80546  20.730  26.670  11.228
15727W        W80547  29.576   5.500  12.078
15728W        W80548   8.805  18.778   3.193
15729W        W80549  12.574  38.460  14.044
15730W        W80550  15.941  37.486   5.050
15731W        W80551   1.246  26.579  14.375
15732W        W80552   4.315  39.780   0.914
15733W        W80553  32.984  30.125  13.006
15734W        W80554  17.193  33.628  11.163
15735W        W80555  32.176   3.057   2.746
15736W        W80556  42.558  40.337   1.263
15737W        W80557  41.256   9.178   1.373
15738W        W80558  24.268  27.735   3.147
15739W        W80559  14.592  22.623  13.107
15740W        W80560  22.135   2.885  13.121
15741W        W80561  30.517  41.820   3.193
15742W        W80562  41.450  32.709   3.941
15743W        W80563  35.996  14.591  13.574
15744W        W80564  39.939  44.815   1.889
15745W        W80565  38.745  24.007   5.144
15746W        W80566   6.153  14.254  12.089
15747W        W80567   8.410  13.663   0.192
15748W        W80568  42.054  10.343  13.870
15749W        W80569  26.712  40.189  11.780
15750W        W80570  21.202  31.062   2.195
15751W        W80571  16.814  31.880   2.678
15752W        W80572  21.979  31.061   4.118
15753W        W80573  21.184  43.991  11.074
15754W        W80574  43.685   4.739  12.877
15755W        W80575  18.004  17.322  10.712
15756W        W80576  29.989  36.502  14.054
15757W        W80577  11.234  40.534  13.108
15758W        W80578   0.825  21.988   0.457
15759W        W80579   4.827  15.172   0.729
15760W        W80580  11.807   6.367  11.700
15761W        W80581  42.539  13.756   1.508
15762W        W80582  23.975  32.885   0.302
15763W        W80583  40.503  15.730   0.028
15764W        W80584   4.693  35.285  12.917
15765W        W80585   9.683   2.765   1.713
15766W        W80586  24.178  42.864  12.858
15767W        W80587  43.526  16.382  10.677
15768W        W80588  19.297  34.383   1.998
15769W        W80589  28.852  12.706   0.453
15770W        W80590   7.858  12.746  10.943
15771W        W80591  29.947  17.587  14.941
15772W        W80592  15.271   9.466  11.671
15773W        W80593  44.369  43.767  14.508
15774W        W80594  10.760  41.840   3.669
15775W        W80595  25.187  25.189   3.700
15776W        W80596  44.894  37.016  11.484
15777W        W80597  42.268  25.769   0.692
15778W        W80598  39.955  25.611   1.230
15779W        W80599  26.245  40.867   4.655
15780W        W80600   9.412  33.972  14.457
15781W        W80601   1.950  19.797   2.401
15782W        W80602  38.688  16.801  12.050
15783W        W80603  39.637   0.790   0.697
15784W        W80604   0.332  10.599  12.989
15785W        W80605  44.485  37.537  14.861
15786W        W80606   3.641  33.872   3.299
15787W        W80607   4.243  27.159   0.938
15788W        W80608  17.351   5.836   3.240
15789W        W80609   4.824  36.530   3.189
15790W        W80610  42.367   2.347  14.965
15791W        W80611  33.908  42.241   1.754
15792W        W80612  31.007   2.301   2.198
15793W        W80613  20.526   8.740   2.216
15794W        W80614  16.898  38.424  12.841
15795W        W80615  31.638  41.844  13.616
15796W        W80616  11.808  34.774  13.068
15797W        W80617   5.687  21.962   1.779
15798W        W80618  38.935   3.453   1.397
15799W        W80619  13.677  36.994  12.970
15800W        W80620  29.566  41.781  14.249
15801W        W80621   0.011  34.955  10.739
15802W        W80622  18.607  22.927   4.187
15803W        W80623   4.314   8.576  13.323
15804W        W80624   3.630  33.335   3.204
15805W        W80625  41.242  18.336  14.379
15806W        W80626  19.571  29.456   2.800
15807W        W80627  19.535   8.145  14.870
15808W        W80628  34.543  37.319  13.141
15809W        W80629  27.925   1.440  13.946
15810W        W80630  43.391  26.173  14.247
15811W        W80631  33.903   1.942  11.552
15812W        W80632   8.484   3.336  11.199
15813W        W80633  24.233  41.212  13.528
15814W        W80634   1.294   3.302   4.367
15815W        W80635  31.611  11.633  14.990
15816W        W80636  31.968  28.260   5.295
15817W        W80637  40.240  34.533  10.346
15818W        W80638   3.205   8.124   0.261
15819W        W80639  29.164   0.448  12.991
15820W        W80640  37.151   6.302  12.991
15821W        W80641  26.471  11.947  11.507
15822W        W80642   0.928  26.476  11.159
15823W        W80643  34.851  17.821  12.471
15824W        W80644  40.060  20.152   0.495
15825W        W80645   7.173   1.329   1.364
15826W        W80646  39.397  30.059  11.515
15827W        W80647  36.458  32.397   3.742
15828W        W80648  32.694  21.668  14.938
15829W        W80649  18.789  18.827  14.939
15830W        W80650  17.247  35.856   2.523
15831W        W80651  35.857  22.717  13.017
15832W        W80652  42.137   5.797   1.343
15833W        W80653  12.834  10.017  10.660
15834W        W80654  32.571  26.110   0.800
15835W        W80655  37.895  28.668   0.784
15836W        W80656  14.263  32.173  14.517
15837W        W80657  24.948  37.855   0.653
15838W        W80658  26.045   7.409  14.270
15839W        W80659  42.407   6.893   3.090
15840W        W80660  11.482  44.074   1.282
15841W        W80661  12.922  22.095   0.751
15842W        W80662  43.285  26.234  12.148
15843W        W80663  44.200   7.419  11.346
15844W        W80664   1.481   1.868  13.007
15845W        W80665   3.435   1.854   4.892
15846W        W80666  26.527  35.630  12.683
15847W        W80667  10.866  33.972   1.589
15848W        W80668  14.809   7.147  14.063
15849W        W80669  28.174   1.238   3.415
15850W        W80670  17.514  28.130  10.678
15851W        W80671  14.674  16.983   0.722
15852W        W80672   3.173   4.232  12.112
15853W        W80673   9.480   6.677  14.477
15854W        W80674  20.506  43.340  13.089
15855W        W80675  12.320  24.204   2.372
15856W        W80676  40.524  21.274   2.622
15857W        W80677  27.441  37.113  13.328
15858W        W80678  35.672  42.063  12.122
15859W        W80679  39.759   1.302   3.207
15860W        W80680  44.816  38.930  14.081
15861W        W80681  32.423   9.816  10.776
15862W        W80682  40.920  19.037   1.240
15863W        W80683  33.857  41.788   3.281
15864W        W80684  23.045  34.614   9.902
15865W        W80685   0.837  22.549   1.352
15866W        W80686  35.857  11.246  12.843
15867W        W80687  11.618  14.712  12.389
15868W        W80688  37.908  30.935   1.357
15869W        W80689  37.087   2.406  11.983
15870W        W80690   4.714  34.615  13.690
15871W        W80691  39.493  39.199  14.076
15872W        W80692  28.211  20.709   5.114
15873W        W80693  44.392  41.407   0.559
15874W        W80694  34.228  22.975  13.817
15875W        W80695  16.606  36.484  14.031
15876W        W80696  31.899  17.263  14.811
15877W        W80697  22.083  22.782  11.880
15878W        W80698   4.630  43.138   5.208
15879W        W80699   8.798  18.185  11.188
15880W        W80700  30.669  26.594  11.562
15881W        W80701  23.474  13.265  12.063
15882W        W80702  34.122  23.785   1.359
15883W        W80703  20.739   3.336   2.209
15884W        W80704  36.054  22.502  13.447
15885W        W80705   4.796  29.125  12.021
15886W        W80706   7.003  25.357  13.590
15887W        W80707  26.035  19.516   0.961
15888W        W80708   2.188  17.487  10.824
15889W        W80709  12.239  22.744  10.506
15890W        W80710  14.094   1.379   3.842
15891W        W80711  19.473  18.694   1.851
15892W        W80712   7.280   6.369  14.719
15893W        W80713  44.482   2.566   3.706
15894W        W80714  25.062  28.035  10.467
15895W        W80715  17.242  28.633   2.162
15896W        W80716  22.861   6.750  10.308
15897W        W80717  40.608   5.868  13.808
15898W        W80718  34.614   9.811  12.927
15899W        W80719   4.384  16.287  11.425
15900W        W80720  37.107  42.873  13.034
15901W        W80721  30.421  13.301  11.624
15902W        W80722  21.659  13.165  11.208
15903W        W80723   3.404  33.422  11.955
15904W        W80724  28.725   3.459   2.755
15905W        W80725  15.270  22.976  12.835
15906W        W80726  30.922  32.881  12.958
15907W        W80727  13.868  24.945   0.710
15908W        W80728   3.714  40.724   4.219
15909W        W80729  38.970  44.242  13.458
15910W        W80730  35.645   1.550  13.444
15911W        W80731  16.806  15.166   3.631
15912W        W80732   7.306  19.605   4.434
15913W        W80733   5.893   4.320  12.091
15914W        W80734   1.203   6.418   4.579
15915W        W80735   0.762  43.211   2.358
15916W        W80736  38.321  44.998   0.804
15917W        W80737   8.795  36.035  13.526
15918W        W80738   0.450   5.624  14.896
15919W        W80739  38.144   9.580   1.433
15920W        W80740   7.831   2.407  12.848
15921W        W80741  18.175  23.212   2.373
15922W        W80742   8.285  39.808   3.263
15923W        W80743  12.513  17.962   0.376
15924W        W80744  23.270   1.193   2.622
15925W        W80745  30.207  40.974  14.204
15926W        W80746   7.702  34.529  11.529
15927W        W80747  43.122  13.827  14.939
15928W        W80748  35.090  42.072  14.359
15929W        W80749  44.479  16.999   4.150
15930W        W80750   9.247  42.056  12.387
15931W        W80751  34.496  10.002   0.740
15932W        W80752  26.962  35.428   1.366
15933W        W80753  25.877  12.579  11.945
15934W        W80754  25.722  40.394  11.539
15935W        W80755  40.367   5.073   4.078
15936W        W80756  24.128   5.725  10.667
15937W        W80757  39.013  21.905  11.660
15938W        W80758   3.159   5.933  11.098
15939W        W80759  37.078  37.727   4.094
15940W        W80760  28.325  16.296   4.124
15941W        W80761  13.369  17.626   2.266
15942W        W80762  19.593  26.515   1.248
15943W        W80763  22.175  33.950   3.285
15944W        W80764  18.172  22.279  14.514
15945W        W80765   2.136  32.985   1.836
15946W        W80766  22.760  18.680  10.714
15947W        W80767  43.353  14.707  11.372
15948W        W80768  16.664  15.106  11.446
15949W        W80769  30.893  27.837   0.200
15950W        W80770   5.132   0.137   4.140
15951W        W80771  11.404  12.531  14.945
15952W        W80772  39.592  44.093   0.586
15953W        W80773  37.235   8.435   2.467
15954W        W80774  35.960  20.266  14.900
15955W        W80775  31.013  11.630  13.891
15956W        W80776  19.588   4.292   0.812
15957W        W80777  24.499  20.156   2.208
15958W        W80778  15.633  24.108   3.133
15959W        W80779  43.617   3.554  11.164
15960W        W80780  28.691  24.105  14.447
15961W        W80781   1.017  33.290  13.103
15962W        W80782  15.678  24.760  11.664
15963W        W80783  31.240  40.930   3.146
15964W        W80784  38.859  27.020   0.863
15965W        W80785  35.671  37.423  13.476
15966W        W80786  33.563  36.865  14.645
15967W        W80787   8.660  13.926   5.046
15968W        W80788   6.710   3.258   3.180
15969W        W80789  24.240  19.212  14.060
15970W        W80790   6.942  31.738  10.871
15971W        W80791   9.697   1.767  12.575
15972W        W80792   4.294  36.559   4.872
15973W        W80793  36.054  30.529  13.911
15974W        W80794  11.181  27.536   1.220
15975W        W80795  35.959  15.794   0.720
15976W        W80796  14.810  42.145  14.462
15977W        W80797  23.436  11.713  12.437
15978W        W80798  22.170  10.838   2.347
15979W        W80799  22.178  28.501   2.853
15980W        W80800  20.075  43.637   2.772
15981W        W80801  18.657   3.457  11.393
15982W        W80802   4.542   7.070   0.986
15983W        W80803  37.605  18.105  10.647
15984W        W80804  14.080  24.091   4.117
15985W        W80805   5.229  38.400   1.003
15986W        W80806   5.408   6.392   3.576
15987W        W80807   2.216  30.936   0.943
15988W        W80808  12.183  41.467   1.409
15989W        W80809   9.090   8.210  14.976
15990W        W80810  42.967   8.682  11.421
15991W        W80811  41.296  41.975   2.738
15992W        W80812  15.323  22.508   3.096
15993W        W80813  44.385  21.199   4.499
15994W        W80814  25.942  22.478   4.578
15995W        W80815  26.176  32.467   5.247
15996W        W80816   8.124  41.368  12.068
15997W        W80817  11.828  17.761  12.599
15998W        W80818  35.584  20.585  12.628
15999W        W80819   2.023  40.569   3.126
16000W        W80820  25.488  19.801  12.828
16001W        W80821  18.450   0.921   0.808
16002W        W80822  35.998   5.254  13.125
16003W        W80823  34.835  29.618   3.722
16004W        W80824  29.590  35.706   4.005
16005W        W80825  17.386   4.696  14.228
16006W        W80826  18.678   0.785  11.068
16007W        W80827   7.296  33.930  13.754
16008W        W80828  41.308  37.302   1.493
16009W        W80829   1.727  18.896   5.052
16010W        W80830  17.607  31.887   4.706
16011W        W80831   7.964  38.052  13.919
16012W        W80832  32.552  17.532   4.976
16013W        W80833  37.302  43.417   0.666
16014W        W80834  24.178   4.817   2.256
16015W        W80835  39.844   5.800   2.191
16016W        W80836  28.899  29.117  13.436
16017W        W80837  41.196  36.037   3.895
16018W        W80838  25.694   4.302  14.499
16019W        W80839  25.909   4.966   4.982
16020W        W80840  38.350   5.116   1.674
16021W        W80841  29.146  19.985  14.472
16022W        W80842  27.739  16.046   0.920
16023W        W80843  25.098  33.976   1.273
16024W        W80844  10.369  39.475   2.146
16025W        W80845   3.744  41.798  10.861
16026W        W80846  39.422  12.919   1.645
16027W        W80847   4.690   3.783   4.023
16028W        W80848  25.921  18.428  10.247
16029W        W80849  26.191  44.961   0.022
16030W        W80850   1.731   4.360  10.731
16031W        W80851  14.139   7.834  14.461
16032W        W80852  13.495  42.831  12.871
16033W        W80853   7.655  26.314  11.641
16034W        W80854   4.011  40.399   0.264
16035W        W80855  38.499   9.602  14.722
16036W        W80856   0.531  27.449   0.667
16037W        W80857  31.927  11.709  14.341
16038W        W80858   1.594   6.512   0.782
16039W        W80859  39.368  32.685   0.637
16040W        W80860  13.682   0.801   1.771
16041W        W80861  18.211  34.013  14.295
16042W        W80862   4.763  22.286  10.702
16043W        W80863  14.765  44.942  14.555
16044W        W80864  32.404  14.101   0.880
16045W        W80865   6.142   0.857  11.988
16046W        W80866   7.165  39.979  13.485
16047W        W80867   8.797  39.056  12.041
16048W        W80868   1.773  12.043  12.541
16049W        W80869  39.407   2.265  11.947
16050W        W80870  28.181  24.997  13.027
16051W        W80871  20.773   3.765   3.195
16052W        W80872  38.062  31.440   1.192
16053W        W80873  33.957  13.170   3.801
16054W        W80874  13.962  14.862   0.601
16055W        W80875  21.032   7.168   0.641
16056W        W80876  42.247   1.428   3.248
16057W        W80877  26.042  16.616  10.878
16058W        W80878  16.573  30.593   1.872
16059W        W80879  30.396  22.262   1.455
16060W        W80880   4.940  39.950  14.177
16061W        W80881   4.950  37.329  13.038
16062W        W80882   8.635  22.484  13.071
16063W        W80883   7.460   4.314   0.123
16064W        W80884   0.703  44.509   2.722
16065W        W80885  25.689  14.166  14.440
16066W        W80886  12.858  31.388   1.229
16067W        W80887  17.351  31.456   2.338
16068W        W80888   3.633   0.360  12.530
16069W        W80889   9.786  25.972  14.300
16070W        W80890   3.389  41.840   3.423
16071W        W80891   6.224   9.780   2.588
16072W        W80892   0.524  12.166  11.645
16073W        W80893  41.913   2.702  14.408
16074W        W80894  33.558  13.685  14.973
16075W        W80895  22.702  15.243   3.346
16076W        W80896   5.462  36.676  14.443
16077W        W80897   5.754  18.151   2.251
16078W        W80898  16.252  13.999  13.892
16079W        W80899  28.853  23.211  10.244
16080W        W80900  25.444  30.090  14.966
16081W        W80901  27.709   7.343   0.831
16082W        W80902  40.707  35.958  13.479
16083W        W80903  41.526   2.433  11.229
16084W        W80904  21.575  23.437  11.590
16085W        W80905  30.652  14.092   1.300
16086W        W80906  42.298  12.378   0.385
16087W        W80907  31.059  42.996   0.765
16088W        W80908   1.934  40.021   1.287
16089W        W80909  29.547  37.841  13.916
16090W        W80910  22.503  41.738   0.989
16091W        W80911   6.805  30.473   4.158
16092W        W80912  30.985  38.368   2.066
16093W        W80913  33.851  23.902   0.233
16094W        W80914  33.409  34.798   0.289
16095W        W80915  33.619  13.692   4.701
16096W        W80916   0.547  32.121  11.945
16097W        W80917  22.630  17.140   3.465
16098W        W80918  41.696  31.857  13.842
16099W        W80919  42.975  31.465   0.292
16100W        W80920  15.044   5.583  11.629
16101W        W80921  37.851   7.174   2.723
16102W        W80922  28.421  19.266   0.452
16103W        W80923   1.067  14.946   0.909
16104W        W80924  33.696  29.642  12.122
16105W        W80925   2.169  24.440   4.986
16106W        W80926   5.961   1.511  12.119
16107W        W80927  32.900  38.885   2.779
16108W        W80928   8.268  28.194   1.146
16109W        W80929  35.075  39.805   2.173
16110W        W80930  21.021  28.471  13.392
16111W        W80931  24.215  25.210   0.643
16112W        W80932  20.810   2.233  14.427
16113W        W80933  30.498  32.183   2.622
16114W        W80934  30.973  30.913  12.311
16115W        W80935  21.928  17.048   1.684
16116W        W80936   8.462  27.130  11.455
16117W        W80937  36.740  11.651   1.253
16118W        W80938  41.918   3.748  10.710
16119W        W80939   4.673  17.126  13.855
16120W        W80940   8.847  44.232   1.062
16121W        W80941   1.488   4.384   2.237
16122W        W80942   5.464  23.628   9.860
16123W        W80943  32.392   0.451  12.488
16124W        W80944   3.389   4.776  14.446
16125W        W80945  42.517  23.027  14.399
16126W        W80946  42.265  39.024   4.784
16127W        W80947  17.455   3.449  13.962
16128W        W80948  23.669  44.643  11.280
16129W        W80949  30.966   1.377   2.560
16130W        W80950  34.813   4.764  14.308
16131W        W80951   6.446  22.923  10.724
16132W        W80952  38.477   7.949  14.289
16133W        W80953   9.219  33.341  14.893
16134W        W80954  28.826  10.179   3.177
16135W        W80955  32.757  22.705   0.320
16136W        W80956  44.887  43.493  10.342
16137W        W80957  28.460   4.425  13.445
16138W        W80958   6.683  29.612  11.590
16139W        W80959  38.447  37.068  11.516
16140W        W80960  18.278   3.500   0.523
16141W        W80961  41.145  18.989   2.134
16142W        W80962  19.775  43.886  13.470
16143W        W80963  20.496  30.939   1.345
16144W        W80964  43.181  27.260   1.876
16145W        W80965  43.880  29.092   1.865
16146W        W80966  21.251  26.294  14.828
16147W        W80967  33.130   1.293   3.714
16148W        W80968  31.435  25.995   1.979
16149W        W80969  33.741  44.473   2.463
16150W        W80970  32.648   8.172   0.913
16151W        W80971  26.703  29.916   0.657
16152W        W80972   8.055   0.350  10.812
16153W        W80973  20.465  40.878   2.674
16154W        W80974   0.079   6.156  12.066
16155W        W80975  17.011   1.772  12.114
16156W        W80976   5.473   2.144   2.783
16157W        W80977  18.530  30.560   3.267
16158W        W80978  25.004  29.930  12.393
16159W        W80979  31.059   0.460  13.093
16160W        W80980  44.019  29.033  11.309
16161W        W80981  26.135  30.043  14.391
16162W        W80982  25.533   0.703   2.256
16163W        W80983   7.276  30.709   3.173
16164W        W80984  19.288  31.606  11.023
16165W        W80985  23.711  26.395   1.950
16166W        W80986  18.177   1.984  12.348
16167W        W80987  21.737  18.298  13.286
16168W        W80988  38.629  44.907   4.274
16169W        W80989  26.884  36.955   0.488
16170W        W80990  33.909  31.958   1.233
16171W        W80991  21.977  39.769   2.779
16172W        W80992   0.292  15.780  14.912
16173W        W80993  43.284  44.149  14.184
16174W        W80994  27.110  16.069  11.883
16175W        W80995  22.563   4.661  11.887
16176W        W80996  43.958  44.916   4.143
16177W        W80997  36.574  12.234   4.049
16178W        W80998  18.560  38.579   3.024
16179W        W80999  35.398  16.352  11.998
16180W        W81000   6.825   9.760   3.088
16181W        W81001  15.431  40.820   4.025
16182W        W81002  14.709   4.239   1.299
16183W        W81003  38.568  12.758   0.822
16184W        W81004   1.742   2.852   1.480
16185W        W81005  14.483  31.662   0.799
16186W        W81006  15.679  26.791  10.819
16187W        W81007  21.184  25.997   1.959
16188W        W81008  16.197  11.831  12.594
16189W        W81009  36.544  33.120  11.517
16190W        W81010  11.081  20.759  11.611
16191W        W81011  10.306  34.981  12.182
16192W        W81012  23.461  12.862   3.563
16193W        W81013  17.448   8.423  11.833
16194W        W81014   6.302  33.184  12.618
16195W        W81015   2.427  19.996   0.868
16196W        W81016  39.862  41.273   1.744
16197W        W81017  44.390  37.348   4.198
16198W        W81018  44.568  40.261  11.133
16199W        W81019   6.578  22.776   2.866
16200W        W81020  32.601  11.540  12.573
16201W        W81021  29.045  22.964  13.070
16202W        W81022   4.141   2.739   0.715
16203W        W81023   6.670   4.359  10.888
16204W        W81024   5.306  22.848   3.169
16205W        W81025   4.981  10.212  13.663
16206W        W81026  23.196  22.064   3.645
16207W        W81027  26.605  43.435  11.160
16208W        W81028  26.185  40.917   3.757
16209W        W81029  19.021  31.886  13.447
16210W        W81030  30.933  27.609  14.735
16211W        W81031  25.520  10.263   3.136
16212W        W81032  11.377  33.128   4.123
16213W        W81033  29.467  34.647  13.050
16214W        W81034  10.788  27.105   2.766
16215W        W81035  12.269  43.179  11.008
16216W        W81036  38.662   3.425  12.936
16217W        W81037  19.782  34.340   3.708
16218W        W81038  28.941  34.099  13.361
16219W        W81039  29.372  19.222   1.870
16220W        W81040  12.282  42.805   9.918
16221W        W81041  35.836  25.928   0.476
16222W        W81042  37.635  16.409   2.822
16223W        W81043  12.814  44.374   1.316
16224W        W81044  41.011  29.866   1.282
16225W        W81045   8.202  25.755  14.399
16226W        W81046   1.742  29.527  14.765
16227W        W81047  39.421  11.433  13.938
16228W        W81048  31.582  33.119   3.689
16229W        W81049  44.047  42.293  12.498
16230W        W81050  11.720  34.656   4.048
16231W        W81051  36.668  24.297  13.084
16232W        W81052  27.664  14.478  11.117
16233W        W81053  31.183  44.267  13.904
16234W        W81054  27.527   3.781  13.332
16235W        W81055   4.198  21.503  10.846
16236W        W81056  13.620   7.820   0.020
16237W        W81057  33.606   7.310   2.700
16238W        W81058  43.616   8.790   4.841
16239W        W81059  35.501   6.423  14.341
16240W        W81060  33.425   5.698   1.300
16241W        W81061  12.382  39.764   0.943
16242W        W81062   9.890  16.898   0.913
16243W        W81063  43.055   4.452  11.600
16244W        W81064  26.007  42.322   0.916
16245W        W81065  33.947  44.353  13.392
16246W        W81066  36.935  14.666   2.158
16247W        W81067   2.667   4.795   1.683
16248W        W81068  17.737   3.262   4.482
16249W        W81069  23.740  26.766  11.421
16250W        W81070  42.747  13.202  10.719
16251W        W81071  28.251   0.577   4.330
16252W        W81072   3.316  28.709  10.278
16253W        W81073  43.448  40.057  12.301
16254W        W81074   5.668  33.465  13.506
16255W        W81075   0.207   6.587  10.423
16256W        W81076   3.807   8.233  12.617
16257W        W81077  13.252  20.719   1.432
16258W        W81078   5.019  12.667  13.529
16259W        W81079  18.148  22.180   2.244
16260W        W81080  32.012   4.599   2.388
16261W        W81081  36.896  11.340   0.430
16262W        W81082  36.965  20.312  14.706
16263W        W81083   1.301  14.672   1.949
16264W        W81084  30.434  16.180  12.393
16265W        W81085   2.939  30.558  14.783
16266W        W81086  25.473  15.943   2.480
16267W        W81087  23.544  40.876   4.564
16268W        W81088  20.611  42.231  12.760
16269W        W81089  12.642   7.957  14.940
16270W        W81090   3.709  39.298  13.137
16271W        W81091  43.582   7.384   0.453
16272W        W81092   1.151  44.347  14.927
16273W        W81093   7.154  24.783   2.065
16274W        W81094   0.535  29.506  11.119
16275W        W81095  13.216  33.792   2.441
16276W        W81096  11.661  24.562   0.708
16277W        W81097  38.601   3.786   0.372
16278W        W81098  22.846   5.271  13.462
16279W        W81099  37.001  43.511  11.029
16280W        W81100  44.797  16.893  10.633
16281W        W81101   0.245  37.000   0.798
16282W        W81102  42.882  41.390   3.936
16283W        W81103   5.543   8.003   5.000
16284W        W81104  31.669  44.318  11.237
16285W        W81105  16.020  21.330  11.081
16286W        W81106  24.037  10.119  14.893
16287W        W81107   5.956  36.939   2.776
16288W        W81108  36.671  26.654  13.941
16289W        W81109   7.855  27.775  11.894
16290W        W81110  41.831  13.763   4.888
16291W        W81111  37.543  32.134  11.615
16292W        W81112   7.441  33.637   4.550
16293W        W81113  40.205  16.730  14.389
16294W        W81114  30.091   2.214  13.413
16295W        W81115   3.783  37.942   2.437
16296W        W81116  14.621   5.480   3.220
16297W        W81117  39.222   2.502  14.242
16298W        W81118  12.891  39.509   1.884
16299W        W81119   1.778  26.694   3.023
16300W        W81120   6.922  23.119  14.241
16301W        W81121   8.400   3.520   3.733
16302W        W81122  40.419  27.157  14.632
16303W        W81123  37.773  19.466   1.918
16304W        W81124   0.241   1.102   2.654
16305W        W81125  11.148  16.726  13.591
16306W        W81126  11.319   4.455  13.781
16307W        W81127  39.169  10.529   1.262
16308W        W81128  18.217  22.967   3.741
16309W        W81129  17.044  34.648   1.460
16310W        W81130  34.394  43.479  13.477
16311W        W81131  23.744  16.026  12.069
16312W        W81132  11.779  19.015   1.244
16313W        W81133  17.654  24.413  14.432
16314W        W81134  37.875  28.973   4.676
16315W        W81135  29.913  13.129   1.383
16316W        W81136  26.694   2.014  12.319
16317W        W81137  28.981  42.668  13.821
16318W        W81138   4.761  16.215   1.149
16319W        W81139  33.881   9.925  12.364
16320W        W81140  35.362  38.611  12.096
16321W        W81141  17.229  15.832   4.516
16322W        W81142  21.963  36.413   0.830
16323W        W81143  19.022   4.812  14.577
16324W        W81144  44.414   9.284  13.570
16325W        W81145  18.509   4.865  13.440
16326W        W81146  37.435  42.891  14.053
16327W        W81147  37.816  16.752   0.332
16328W        W81148  43.344  33.607   1.011
16329W        W81149  33.677  40.497   0.246
16330W        W81150  10.753  41.454   1.998
16331W        W81151  32.856  43.008   0.886
16332W        W81152  14.286  34.072  12.982
16333W        W81153  44.096  14.404   3.565
16334W        W81154  37.191   3.440  10.721
16335W        W81155  21.131  36.232  14.832
16336W        W81156   2.846  39.054  13.125
16337W        W81157  38.877  42.817  11.445
16338W        W81158   0.832  41.945  11.262
16339W        W81159   3.289  40.762   1.358
16340W        W81160  30.528  43.681  14.529
16341W        W81161  26.203   3.068   2.843
16342W        W81162  14.492  31.133   2.178
16343W        W81163  16.975  28.770   2.647
16344W        W81164  26.191   5.427   4.365
16345W        W81165  29.967  41.182   2.712
16346W        W81166  40.999  25.257   4.153
16347W        W81167  15.538  18.299   9.802
16348W        W81168  25.490  36.679   0.171
16349W        W81169  20.646   3.913  12.391
16350W        W81170  32.894  38.815  14.869
16351W        W81171  15.813  11.709  12.917
16352W        W81172  37.245  17.741   3.851
16353W        W81173  30.131  14.764   2.040
16354W        W81174  28.181  30.573   2.812
16355W        W81175  21.989   2.721  11.589
16356W        W81176   6.554  19.080   4.008
16357W        W81177  27.568   4.838  11.002
16358W        W81178   7.924  11.618  14.413
16359W        W81179  22.326  42.456  10.741
16360W        W81180  15.037  37.942  11.036
16361W        W81181  14.202  16.118  14.400
16362W        W81182  16.709   7.241  10.859
16363W        W81183  18.069  42.982  14.292
16364W        W81184  13.526  41.520   1.472
16365W        W81185  18.393  25.430  11.464
16366W        W81186  19.490  11.098  12.277
16367W        W81187  36.500  44.708  14.535
16368W        W81188   6.235   2.313   3.195
16369W        W81189  41.300  21.147   2.173
16370W        W81190  27.757  39.435  12.125
16371W        W81191  43.826  15.913  12.773
16372W        W81192   5.419  19.776  12.845
16373W        W81193  23.760   4.468  10.694
16374W        W81194  29.558   5.719   2.471
16375W        W81195  18.082  25.083   1.758
16376W        W81196  16.551   2.877   1.134
16377W        W81197  15.553  22.694   3.631
16378W        W81198  23.973   1.983  12.074
16379W        W81199   8.899  11.793   3.671
16380W        W81200  20.001  32.383  12.664
16381W        W81201   6.442   0.036   0.370
16382W        W81202  38.482  28.681   3.639
16383W        W81203  41.370  20.244   4.559
16384W        W81204   4.687  30.809   0.370
16385W        W81205  28.109   7.480  14.070
16386W        W81206  40.933   5.934   2.692
16387W        W81207   3.908  19.102   3.357
16388W        W81208  35.666   5.781  12.070
16389W        W81209  38.169  22.028   1.698
16390W        W81210  28.579  30.467   2.483
16391W        W81211   3.808  36.850  10.449
16392W        W81212  21.166  43.745  10.618
16393W        W81213  14.055  28.727  13.279
16394W        W81214   4.349  27.205  14.913
16395W        W81215  21.715  24.276   3.381
16396W        W81216  31.891  38.320  14.334
16397W        W81217  17.815  23.459   2.761
16398W        W81218  24.692   5.418   1.330
16399W        W81219  13.601  21.345   2.197
16400W        W81220  22.801  29.695  12.671
16401W        W81221  27.408   7.770   0.933
16402W        W81222  15.027  44.446   3.816
16403W        W81223  38.445  27.457   3.033
16404W        W81224   9.803  39.006  14.469
16405W        W81225  13.450  11.338   4.077
16406W        W81226  36.143  44.256  12.956
16407W        W81227  24.097  36.745   0.966
16408W        W81228  19.662  38.369  11.098
16409W        W81229  39.567  40.867   0.870
16410W        W81230  43.940  11.432  13.822
16411W        W81231  14.553  40.061   1.134
16412W        W81232   1.215  39.440   2.181
16413W        W81233  17.168  13.598  14.737
16414W        W81234  41.347  40.239   2.182
16415W        W81235  14.516   9.124  11.134
16416W        W81236  17.836   9.882  14.717
16417W        W81237   8.778   3.298  14.124
16418W        W81238  17.132  18.451  10.671
16419W        W81239  13.368  31.037  13.630
16420W        W81240  44.689  40.297   1.895
16421W        W81241  30.240  27.300   0.860
16422W        W81242  34.607  24.155  13.824
16423W        W81243  15.996   1.398   0.413
16424W        W81244   8.895   5.401  14.786
16425W        W81245  39.358  41.969   2.183
16426W        W81246   2.922   7.658  14.995
16427W        W81247   1.648  29.591   0.370
16428W        W81248   2.825   6.777   3.276
16429W        W81249  31.090   5.341  13.873
16430W        W81250  16.517  38.753   2.086
16431W        W81251  15.990  37.538  10.619
16432W        W81252  32.912   1.607  11.244
16433W        W81253  37.012   5.395   0.689
16434W        W81254   2.435   9.111   1.847
16435W        W81255   6.845  22.712   0.276
16436W        W81256  16.609  25.074   4.537
16437W        W81257  32.043  31.025   1.722
16438W        W81258  29.266   0.323   3.025
16439W        W81259   4.415  33.755   1.310
16440W        W81260  12.274  13.080   1.501
16441W        W81261  20.765  44.716  11.466
16442W        W81262  17.746  22.877  12.728
16443W        W81263  10.737  28.528   3.234
16444W        W81264   0.974  30.993  11.897
16445W        W81265  27.884  37.403   4.792
16446W        W81266  34.612  27.662  11.489
16447W        W81267  18.991   2.307   0.427
16448W        W81268  38.114  37.388  10.621
16449W        W81269  15.183  17.741  10.659
16450W        W81270  30.190  37.641  13.577
16451W        W81271  10.591  32.159   0.541
16452W        W81272   9.146  25.142  14.813
16453W        W81273   4.459  30.957  12.919
16454W        W81274  18.881  19.332   0.011
16455W        W81275  24.647  17.712   3.669
16456W        W81276  32.805   9.233   4.171
16457W        W81277  21.480  23.437   2.372
16458W        W81278  10.636   3.963  12.456
16459W        W81279   3.726  31.348  12.532
16460W        W81280  36.374   7.373  11.225
16461W        W81281  23.919  37.109   3.617
16462W        W81282  23.995  31.656  10.657
16463W        W81283  13.092  37.921  13.538
16464W        W81284  35.583  44.537   1.321
16465W        W81285   1.555  26.002   1.168
16466W        W81286   4.060   8.929  11.687
16467W        W81287  34.313   8.359   2.228
16468W        W81288  40.027  19.694   3.270
16469W        W81289   0.421  32.132   0.107
16470W        W81290  34.343  14.529  13.539
16471W        W81291  29.421  30.968   2.329
16472W        W81292  34.521  43.924   0.319
16473W        W81293  23.715  21.664   0.359
16474W        W81294   6.914   8.506  12.573
16475W        W81295   8.172  26.124   1.164
16476W        W81296  30.081   1.076   0.710
16477W        W81297  31.063   4.737  12.547
16478W        W81298  12.632  44.426  14.164
16479W        W81299   6.548  14.833   2.301
16480W        W81300  36.283   7.790   0.811
16481W        W81301  40.524  16.713   3.765
16482W        W81302   8.379  28.662   4.329
16483W        W81303  41.676   6.490   3.849
16484W        W81304  28.609   8.166   3.668
16485W        W81305  19.103   2.135   1.920
16486W        W81306  13.318  43.055   4.571
16487W        W81307   6.164  19.857  11.077
16488W        W81308   1.090  21.496   2.089
16489W        W81309  20.667  17.761  14.901
16490W        W81310  43.489  34.164  12.196
16491W        W81311   6.254  44.550   3.281
16492W        W81312  36.842   9.980   3.421
16493W        W81313  15.934   5.775   3.152
16494W        W81314   2.946  19.120   4.844
16495W        W81315  21.052  30.324   0.171
16496W        W81316  22.683  28.112   3.853
16497W        W81317  16.507   3.700   3.156
16498W        W81318   7.364  37.337  11.887
16499W        W81319  23.302  35.415   3.360
16500W        W81320  32.264  38.539   3.358
16501W        W81321  25.678   2.714   4.318
16502W        W81322  25.570   0.999  10.707
16503W        W81323  13.724  23.827  13.450
16504W        W81324  31.138  23.939   1.344
16505W        W81325   2.944   4.733  11.657
16506W        W81326  29.124  25.611  13.777
16507W        W81327  22.652  16.291  10.388
16508W        W81328  40.059   5.889   0.258
16509W        W81329  43.820  34.990  12.663
16510W        W81330  33.602  15.867   0.825
16511W        W81331  32.390  22.663   3.587
16512W        W81332   2.998  11.858  13.506
16513W        W81333   2.902  31.317  11.202
16514W        W81334  37.998  12.608   4.996
16515W        W81335  22.481  12.650  14.317
16516W        W81336  27.125  11.149  13.396
16517W        W81337  30.584   1.218   0.807
16518W        W81338  29.402  30.918   0.951
16519W        W81339  20.251  40.930   1.845
16520W        W81340  15.341  23.632   0.374
16521W        W81341  43.787   5.649   0.619
16522W        W81342  12.145   6.469  12.517
16523W        W81343  26.344   2.764  10.691
16524W        W81344  14.796  35.840  13.882
16525W        W81345  19.205  39.549   2.823
16526W        W81346  38.443  17.308  10.932
16527W        W81347  20.095   5.390  13.027
16528W        W81348  38.042  23.275   1.333
16529W        W81349  27.952  30.576  11.546
16530W        W81350   4.426  13.328   0.041
16531W        W81351  37.428  12.936   1.667
16532W        W81352  20.534   8.256  12.386
16533W        W81353  42.201   7.971   1.214
16534W        W81354   7.821  29.704  14.309
16535W        W81355  25.569  32.931   4.136
16536W        W81356   3.943  31.619  11.884
16537W        W81357   8.543  30.819   4.557
16538W        W81358  14.143  14.776   2.839
16539W        W81359  26.554   2.711   1.863
16540W        W81360  27.280  14.999   0.319
16541W        W81361  22.078   3.770   3.352
16542W        W81362   7.934  32.840   4.175
16543W        W81363  12.281  34.494   2.678
16544W        W81364  43.076  14.818   2.215
16545W        W81365  36.483  32.967  13.977
16546W        W81366  11.873   7.380  11.622
16547W        W81367  41.406  26.915   1.703
16548W        W81368  42.340  20.748  13.735
16549W        W81369   0.896  21.475   0.328
16550W        W81370   6.906  18.730  13.311
16551W        W81371  30.653  35.905   2.578
16552W        W81372  39.781  33.412   1.219
16553W        W81373  40.513  43.274   4.816
16554W        W81374   0.761   1.888   3.728
16555W        W81375  44.397  12.965   4.909
16556W        W81376  22.577  21.695   4.149
16557W        W81377  12.577  25.584  10.739
16558W        W81378  10.822  38.953   0.360
16559W        W81379  17.802  24.795   4.094
16560W        W81380  42.999  38.549   3.598
16561W        W81381  11.845  34.135   4.590
16562W        W81382   3.608  24.909  12.091
16563W        W81383   9.358  39.400  12.524
16564W        W81384   8.849  29.432  14.546
16565W        W81385  23.192   6.482   2.740
16566W        W81386  39.726   3.965   0.071
16567W        W81387   5.852  17.972  12.158
16568W        W81388  31.975  22.466   0.633
16569W        W81389  25.122  11.794   0.827
16570W        W81390   7.824  22.643   3.297
16571W        W81391  27.637  28.897   0.818
16572W        W81392  19.673  30.351   1.042
16573W        W81393  15.851  29.700   5.030
16574W        W81394   2.908  36.492  14.360
16575W        W81395  43.252  13.161   1.844
16576W        W81396  18.257  23.016  11.705
16577W        W81397  42.018  34.994  13.750
16578W        W81398  43.185  43.246  13.027
16579W        W81399  16.576   4.010  14.310
16580W        W81400   5.341  28.404  13.960
16581W        W81401  38.970  26.512   3.662
16582W        W81402  39.587   1.856  10.365
16583W        W81403  32.855  16.481   3.058
16584W        W81404  13.262   0.580   0.322
16585W        W81405   3.580  40.562  14.030
16586W        W81406   7.900  23.131   2.619
16587W        W81407  32.359   6.457   4.488
16588W        W81408  32.102  10.670  10.645
16589W        W81409   4.407  36.533  10.958
16590W        W81410  31.418  43.738  13.006
16591W        W81411  44.219  44.530   0.849
16592W        W81412  37.258  15.159  12.578
16593W        W81413  32.864  16.635   3.560
16594W        W81414   1.561  16.125   4.709
16595W        W81415  35.485  23.086  12.859
16596W        W81416  32.456  23.990   2.633
16597W        W81417  29.678  20.304   1.396
16598W        W81418  13.324  14.479  14.951
16599W        W81419  10.154   6.180  14.943
16600W        W81420  29.659  38.782  10.401
16601W        W81421  11.829  36.366  10.788
16602W        W81422  26.758  10.835   0.902
16603W        W81423  25.933  22.103   4.958
16604W        W81424   6.791  34.062   3.456
16605W        W81425  18.570  38.058   4.838
16606W        W81426  14.888   2.398   1.156
16607W        W81427  13.569  39.518  13.823
16608W        W81428  13.387  15.860  13.853
16609W        W81429  29.233   4.467   5.077
16610W        W81430  16.776  26.624  11.985
16611W        W81431  30.876  17.491   0.431
16612W        W81432  30.993   0.468  10.851
16613W        W81433  39.370   2.501   0.203
16614W        W81434  22.993   6.421   1.490
16615W        W81435  34.684   6.616   3.262
16616W        W81436  26.209  39.016  12.089
16617W        W81437  34.585  41.287  10.985
16618W        W81438  32.634  42.021   2.684
16619W        W81439  15.248  18.306  10.688
16620W        W81440  34.080  21.684  14.958
16621W        W81441  11.776  28.459  13.712
16622W        W81442   9.304  29.225   0.027
16623W        W81443  20.197  38.462  13.913
16624W        W81444  30.908  25.081  10.684
16625W        W81445  10.239  41.067  12.479
16626W        W81446   0.498  13.464   2.215
16627W        W81447  10.130  14.219   0.472
16628W        W81448  25.367  37.429   4.061
16629W        W81449   6.645   1.743  14.759
16630W        W81450   6.218  10.314   3.976
16631W        W81451  37.903  16.621  13.980
16632W        W81452  36.673  44.280  11.630
16633W        W81453  23.527  42.150  12.822
16634W        W81454  16.580  29.508  13.071
16635W        W81455   1.125  26.505   1.975
16636W        W81456   0.829  44.907   0.362
16637W        W81457   6.489  23.730  12.850
16638W        W81458  13.532  24.607  12.956
16639W        W81459  31.856   8.645  12.852
16640W        W81460  37.058   6.275   2.208
16641W        W81461  38.823  39.822  11.470
16642W        W81462  44.315   8.718  14.336
16643W        W81463  18.241  12.694  10.499
16644W        W81464  15.856  34.414  12.125
16645W        W81465  43.874   9.334   3.937
16646W        W81466  29.988  34.400   5.069
16647W        W81467  14.838  44.713   1.316
16648W        W81468   0.377  24.735  13.159
16649W        W81469   0.202  39.415  12.518
16650W        W81470  11.490   9.736   0.028
16651W        W81471  26.431  41.018   2.716
16652W        W81472  37.390  20.257   0.001
16653W        W81473  11.459  41.946   2.287
16654W        W81474  14.592  24.130   4.180
16655W        W81475  33.565  40.390   1.742
16656W        W81476   8.793  44.277   0.553
16657W        W81477  27.155  28.604  14.086
16658W        W81478  41.302  19.084  14.942
16659W        W81479  44.349  10.198  13.047
16660W        W81480  39.989   0.781  10.345
16661W        W81481   1.732  16.630  11.168
16662W        W81482  20.624  16.791   0.026
16663W        W81483  31.036  38.461  14.215
16664W        W81484  43.264   3.120  14.422
16665W        W81485   6.105   8.688  14.015
16666W        W81486  32.818  33.842  12.472
16667W        W81487  31.158  44.095   4.516
16668W        W81488  16.737  15.313  11.902
16669W        W81489  22.628   2.920   4.595
16670W        W81490  13.278  40.016  14.006
16671W        W81491  11.481   5.014   0.146
16672W        W81492  25.808  36.173  13.890
16673W        W81493  44.408  14.366   1.717
16674W        W81494  30.463  21.715   1.433
16675W        W81495  38.323  26.034  13.605
16676W        W81496  13.708  22.275  11.157
16677W        W81497  14.587  43.172  14.325
16678W        W81498  29.184  15.809   2.240
16679W        W81499   4.315  27.430  13.479
16680W        W81500  23.028   8.840   4.456
16681W        W81501  24.155  18.552   0.286
16682W        W81502  18.043   1.461  12.786
16683W        W81503  26.174  10.798  14.758
16684W        W81504  36.716  39.443   4.114
16685W        W81505  33.257   5.315   4.770
16686W        W81506  31.160  36.884   4.620
16687W        W81507  36.419   7.829   3.862
16688W        W81508  40.452   7.805   4.043
16689W        W81509  17.759  11.497   4.742
16690W        W81510  38.436  19.127  10.743
16691W        W81511  43.978   2.749  13.618
16692W        W81512  32.194  40.576   0.793
16693W        W81513   0.479  38.425  12.680
16694W        W81514  40.402  11.620   1.435
16695W        W81515  29.599  21.092  13.796
16696W        W81516   3.251   6.668  13.455
16697W        W81517  12.896  18.671   3.682
16698W        W81518  10.698  14.238  10.337
16699W        W81519  14.161  20.136  12.086
16700W        W81520  33.547  11.295   1.690
16701W        W81521  12.722  14.170  11.718
16702W        W81522  13.098   7.282  10.157
16703W        W81523  44.476  11.129  13.002
16704W        W81524  37.028  14.666  12.642
16705W        W81525   9.114   5.755   4.053
16706W        W81526   1.164  16.766   2.326
16707W        W81527  19.744  25.098   1.213
16708W        W81528  20.118  40.736  13.364
16709W        W81529   9.321  27.201  14.945
16710W        W81530  43.668  36.320  11.200
16711W        W81531   7.247  43.509  10.734
16712W        W81532  33.845  19.134   0.816
16713W        W81533  34.550  33.074  13.525
16714W        W81534   4.348  13.958   4.213
16715W        W81535  44.778  30.022   1.701
16716W        W81536  13.324  39.456  11.328
16717W        W81537  35.388  30.496   1.692
16718W        W81538  16.710  19.686  13.435
16719W        W81539  29.104  31.486   3.443
16720W        W81540  22.618  43.363   4.437
16721W        W81541  21.177  39.504  11.110
16722W        W81542  29.968  21.110  11.511
16723W        W81543   8.764  31.074  10.416
16724W        W81544   7.875  10.426   5.034
16725W        W81545  13.039  20.343  14.486
16726W        W81546  14.060  33.129   2.386
16727W        W81547   8.284  20.219  14.259
16728W        W81548   9.370  44.396  11.338
16729W        W81549  27.995   3.533  11.223
16730W        W81550  21.735  14.763  12.063
16731W        W81551   2.526   0.816   5.299
16732W        W81552  36.738   1.774  14.035
16733W        W81553  35.444   4.216   3.308
16734W        W81554  10.354  41.015  13.836
16735W        W81555  44.923   7.742  11.704
16736W        W81556  27.321  22.700  14.287
16737W        W81557  16.177  29.977   3.377
16738W        W81558  10.294  11.306  14.257
16739W        W81559  12.599  32.379  12.394
16740W        W81560  33.728  14.219   3.250
16741W        W81561  37.721  24.200   3.065
16742W        W81562   9.645  31.461  12.169
16743W        W81563  17.724  29.531   0.616
16744W        W81564   8.324  16.564   3.589
16745W        W81565  18.999  39.488  12.559
16746W        W81566  31.900  31.061   2.237
16747W        W81567   2.739  29.657  13.576
16748W        W81568  31.940  41.020   1.267
16749W        W81569  21.478  34.098  12.912
16750W        W81570   5.553  37.902   4.032
16751W        W81571  42.073  10.688  11.439
16752W        W81572  38.047  34.619   3.194
16753W        W81573  44.210  19.262   3.804
16754W        W81574  32.580  31.945   0.902
16755W        W81575  22.447   5.298  14.107
16756W        W81576  20.685  31.027   2.189
16757W        W81577  32.457  25.701   0.409
16758W        W81578  17.301  22.460   2.362
16759W        W81579  34.063   8.457  12.492
16760W        W81580  25.739  27.595  10.762
16761W        W81581  44.761  41.759   3.579
16762W        W81582  37.871  28.811  11.129
16763W        W81583  29.632  40.700  12.527
16764W        W81584  36.883  22.125   0.164
16765W        W81585  15.184  44.499   3.328
16766W        W81586  36.005   9.325  11.067
16767W        W81587  11.779   5.188  14.362
16768W        W81588  40.181  31.116   2.166
16769W        W81589   3.863  16.459   2.794
16770W        W81590  31.925  11.111   0.712
16771W        W81591   3.682  13.826  10.773
16772W        W81592  26.199  15.088   3.146
16773W        W81593   5.722   8.315  14.015
16774W        W81594  10.253  43.718  12.489
16775W        W81595  36.497  29.921   3.030
16776W        W81596  20.268  13.722  12.887
16777W        W81597   6.190  17.200   0.092
16778W        W81598  20.703   3.472   4.050
16779W        W81599  38.392  28.896  12.981
16780W        W81600  30.858  22.466  11.432
16781W        W81601  10.053  31.952  14.271
16782W        W81602  38.087  15.526   3.676
16783W        W81603  39.633  11.159   3.548
16784W        W81604  19.719  30.091   4.171
16785W        W81605  37.434  22.730   4.501
16786W        W81606  32.476  29.627  13.100
16787W        W81607  19.641  22.555   0.252
16788W        W81608  39.649  21.100  12.999
16789W        W81609  41.276  23.183  12.504
16790W        W81610  40.502  36.059  12.569
16791W        W81611  14.111  14.165   1.705
16792W        W81612  28.685  10.264   2.677
16793W        W81613  11.409  26.824  11.534
16794W        W81614  31.597  38.002  12.230
16795W        W81615  42.797  41.094   1.324
16796W        W81616   0.906  27.667   4.005
16797W        W81617  14.253  41.944  14.726
16798W        W81618   1.419   7.441  14.040
16799W        W81619   6.434   0.387  12.080
16800W        W81620  35.702  23.372  13.224
16801W        W81621  24.960  16.047  12.428
16802W        W81622  32.331  29.496   2.626
16803W        W81623   2.995   4.429   4.417
16804W        W81624   5.860  14.696   3.659
16805W        W81625  25.742  38.326  11.613
16806W        W81626  14.158  15.477  11.195
16807W        W81627  10.111   8.654  10.713
16808W        W81628  27.799  21.271  10.956
16809W        W81629  30.919   5.064   2.977
16810W        W81630   2.301  16.276   1.426
16811W        W81631  36.405  10.949  14.628
16812W        W81632  24.689   9.578   3.222
16813W        W81633   6.140  30.636   1.463
16814W        W81634   6.709  43.920  12.909
16815W        W81635  26.082   6.857   4.574
16816W        W81636  10.816  21.024   3.819
16817W        W81637  18.258  12.227  14.020
16818W        W81638   2.416  35.838   0.453
16819W        W81639  40.392  17.617   0.754
16820W        W81640  18.554  32.907   3.513
16821W        W81641  34.426  14.357  14.649
16822W        W81642  30.579  24.984   5.198
16823W        W81643   7.095  19.720  13.784
16824W        W81644  44.816  16.134  14.964
16825W        W81645  16.670  38.323   2.322
16826W        W81646  29.562  39.737  11.613
16827W        W81647  20.823  44.043  13.484
16828W        W81648   6.831  13.357   0.897
16829W        W81649  25.514  21.342   3.841
16830W        W81650  18.537   8.660  11.188
16831W        W81651  17.548   2.792   0.841
16832W        W81652  27.907  27.847  14.904
16833W        W81653  34.622  34.635   2.081
16834W        W81654  15.605  22.817  10.141
16835W        W81655  14.648  25.776   0.996
16836W        W81656  10.188  14.995   0.800
16837W        W81657  21.823  35.140  14.749
16838W        W81658   4.293  43.535   4.057
16839W        W81659  34.804  28.515  14.103
16840W        W81660  31.463  43.429  11.090
16841W        W81661  35.518  19.296  10.976
16842W        W81662  41.290  38.434   1.207
16843W        W81663  23.775  13.907   3.362
16844W        W81664  42.785  35.843  12.315
16845W        W81665  14.981   9.658   1.189
16846W        W81666  29.916   5.356   4.519
16847W        W81667  27.138  35.543   3.770
16848W        W81668  41.561  15.641  11.979
16849W        W81669  31.890  37.435  11.059
16850W        W81670  36.526  40.588   3.242
16851W        W81671  10.772   9.315   1.387
16852W        W81672  10.672  17.669  10.702
16853W        W81673   4.473  31.731  12.918
16854W        W81674   8.595  38.797   0.565
16855W        W81675  42.332  10.531  14.265
16856W        W81676   4.370  40.469  14.494
16857W        W81677  44.762  35.821  13.931
16858W        W81678  37.547  10.395   4.450
16859W        W81679   5.425   2.391  14.709
16860W        W81680  21.121  12.660  13.012
16861W        W81681  10.174  42.624   2.184
16862W        W81682   3.694   0.320   0.560
16863W        W81683  24.515  21.926  12.980
16864W        W81684  35.415  35.360  12.892
16865W        W81685  27.690  44.890   4.175
16866W        W81686  44.474  16.791   0.230
16867W        W81687   7.811  22.761  11.214
16868W        W81688   7.580  34.322   4.221
16869W        W81689   5.711   6.638  10.695
16870W        W81690  36.425  34.567  10.980
16871W        W81691  42.615  14.665   4.870
16872W        W81692  25.154  25.677   2.224
16873W        W81693   3.639  22.571  11.556
16874W        W81694  11.900  20.670  10.211
16875W        W81695  13.294  30.115   9.876
16876W        W81696   9.886   5.923  12.767
16877W        W81697  28.113  44.700  10.711
16878W        W81698  43.319   3.666  13.436
16879W        W81699  39.832  10.840  13.502
16880W        W81700  38.538  16.405   3.591
16881W        W81701  39.202   2.883   0.532
16882W        W81702  34.508  15.274   4.606
16883W        W81703  12.412  16.291  12.932
16884W        W81704  13.799  43.469  11.580
16885W        W81705   6.693  33.455   1.268
16886W        W81706   3.964  15.000   3.878
16887W        W81707  37.359  31.184  11.766
16888W        W81708  13.354  22.046   0.216
16889W        W81709  12.008   7.041  13.357
16890W        W81710  43.534   3.486  12.445
16891W        W81711  11.859  22.061  12.888
16892W        W81712  18.683  34.015   3.251
16893W        W81713  10.006  19.725   0.356
16894W        W81714   8.466   9.186  10.791
16895W        W81715   6.201   5.325   0.372
16896W        W81716   0.075  37.578  12.612
16897W        W81717  44.352  14.582  13.159
16898W        W81718  15.738   7.273  11.776
16899W        W81719  27.121  16.621   0.667
16900W        W81720  28.388  21.063  11.760
16901W        W81721   1.028  24.168  12.405
16902W        W81722  43.059  18.863   4.593
16903W        W81723  35.382  18.649   2.804
16904W        W81724  31.466  23.678   1.702
16905W        W81725  35.974  13.879  14.550
16906W        W81726   8.550  28.866  14.008
16907W        W81727  12.272  25.038   0.815
16908W        W81728  32.443  37.354  13.540
16909W        W81729  31.805   3.856  14.534
16910W        W81730  10.910  39.013   3.868
16911W        W81731  25.164  27.140   1.967
16912W        W81732  27.206  26.031  10.492
16913W        W81733  31.562  12.378  12.947
16914W        W81734  41.727  41.973  12.086
16915W        W81735   1.450   1.996  12.459
16916W        W81736  13.591  17.473  12.229
16917W        W81737  20.366  36.518  13.619
16918W        W81738   9.930  27.121  11.472
16919W        W81739   3.787  41.156   0.831
16920W        W81740   0.082   4.934  13.478
16921W        W81741  22.878  25.395   2.271
16922W        W81742  31.240  37.446   2.114
16923W        W81743  20.757  18.010   3.634
16924W        W81744   1.653  39.977  13.119
16925W        W81745  24.508  39.009   4.779
16926W        W81746  34.995  38.195   3.344
16927W        W81747   7.444   3.179   5.018
16928W        W81748  34.545  19.130  13.115
16929W        W81749  30.657  28.819  14.023
16930W        W81750   5.304  20.999   0.325
16931W        W81751  41.984  37.414  14.869
16932W        W81752  44.991  15.828   0.344
16933W        W81753  30.486  26.045  12.564
16934W        W81754   3.715  24.510   3.693
16935W        W81755   1.909  19.850   4.280
16936W        W81756  40.338  26.527   4.390
16937W        W81757  12.202  25.182   3.910
16938W        W81758  12.832  20.056  13.365
16939W        W81759   2.966  32.095   2.671
16940W        W81760  18.378  38.623   3.757
16941W        W81761   5.260  14.681  10.753
16942W        W81762  14.533  43.012  11.651
16943W        W81763  32.611  27.897   4.213
16944W        W81764  25.246   3.354   1.676
16945W        W81765   5.205   6.912  13.529
16946W        W81766   4.387  23.995   3.097
16947W        W81767  37.572  22.253   4.656
16948W        W81768  30.419  42.339   4.776
16949W        W81769  17.268  17.064  11.205
16950W        W81770  37.808  44.996   2.019
16951W        W81771  17.307   1.700   3.163
16952W        W81772  26.612  29.978  12.056
16953W        W81773  22.609  26.864  12.319
16954W        W81774  38.655  37.893  13.294
16955W        W81775  37.472  40.328  10.491
16956W        W81776  34.203  36.665  13.348
16957W        W81777   8.522  31.024  12.245
16958W        W81778  24.209  13.301   4.095
16959W        W81779   4.734  32.842  12.377
16960W        W81780  15.809  22.333  11.665
16961W        W81781  23.697  34.152   4.841
16962W        W81782  43.368   0.666  14.344
16963W        W81783  12.760   4.557  11.554
16964W        W81784   2.854  22.548   2.432
16965W        W81785   8.906  13.876  10.281
16966W        W81786  30.205  44.782  10.730
16967W        W81787  36.136  29.614   4.632
16968W        W81788  14.086  36.482  14.736
16969W        W81789  19.775  13.282  13.537
16970W        W81790   1.420   9.524   0.361
16971W        W81791  27.035  30.888   1.427
16972W        W81792  43.447  32.880  10.545
16973W        W81793  42.998  20.782   2.213
16974W        W81794  13.589  17.755   1.780
16975W        W81795  21.493  30.392  11.693
16976W        W81796  39.285  23.674   3.735
16977W        W81797   9.320  31.179  11.714
16978W        W81798  26.058  10.099  10.636
16979W        W81799  42.555  18.712  11.694
16980W        W81800  32.108  25.793   1.618
16981W        W81801   0.896  32.963  14.053
16982W        W81802  33.942  21.755  10.713
16983W        W81803  37.120  17.746   2.899
16984W        W81804  21.882  35.814  10.405
16985W        W81805  39.834  40.133  11.462
16986W        W81806  11.036  30.771  13.504
16987W        W81807   8.323  20.780   4.018
16988W        W81808   2.662   1.355   2.206
16989W        W81809   1.765  27.906   1.290
16990W        W81810  19.783   5.534   4.613
16991W        W81811   7.369  34.460   0.498
16992W        W81812  33.184  25.693  12.913
16993W        W81813  11.654  16.554   4.070
16994W        W81814  41.290  28.390   3.687
16995W        W81815  34.549  14.534  12.941
16996W        W81816   6.289  27.942   1.776
16997W        W81817   7.533  15.111  12.072
16998W        W81818   8.893  12.976   4.978
16999W        W81819  37.939  28.882   1.409
17000W        W81820  29.439   2.757  11.994
17001W        W81821   0.350  15.855   3.379
17002W        W81822  13.760   6.894   1.247
17003W        W81823  23.476  20.606  10.525
17004W        W81824  37.889  37.326   2.798
17005W        W81825   3.782   4.794   3.913
17006W        W81826  41.022  43.728  12.587
17007W        W81827  26.482  20.624  12.900
17008W        W81828  32.996   3.194   1.934
17009W        W81829  22.169  17.802   0.659
17010W        W81830  13.298   7.289  13.125
17011W        W81831  18.671  19.175  13.344
17012W        W81832   8.788  32.721   4.057
17013W        W81833  26.753  21.810   1.879
17014W        W81834  34.668   2.731  12.063
17015W        W81835  30.899  42.277   3.669
17016W        W81836  26.513  21.970  11.788
17017W        W81837  18.543  19.740   1.317
17018W        W81838   6.277  16.961   4.790
17019W        W81839  34.419  38.197  11.954
17020W        W81840   1.202   7.195   1.724
17021W        W81841  15.025  37.028   4.088
17022W        W81842  11.267  13.739  12.925
17023W        W81843   5.464  13.688  12.092
17024W        W81844  28.683  22.810   4.356
17025W        W81845  38.476   5.372   2.626
17026W        W81846  13.636  26.200  11.926
17027W        W81847  13.176  27.094  10.601
17028W        W81848  31.407  20.859   0.903
17029W        W81849  17.599   3.235  12.678
17030W        W81850   8.466  37.637   2.994
17031W        W81851  14.630  30.073   1.204
17032W        W81852  32.421  39.092  11.983
17033W        W81853  27.898  19.127   1.893
17034W        W81854  37.341  16.277   0.033
17035W        W81855   8.240  20.734  12.092
17036W        W81856   3.213  17.445   3.249
17037W        W81857  42.467  28.719   4.511
17038W        W81858   0.387  16.578  14.453
17039W        W81859  13.388  37.370   0.535
17040W        W81860   4.268  29.424  11.240
17041W        W81861  12.871   3.634   0.432
17042W        W81862   9.870   0.799  12.917
17043W        W81863   6.732  27.240   4.964
17044W        W81864  18.571  35.479   4.132
17045W        W81865  34.997  39.559   0.783
17046W        W81866  33.495   8.461  14.056
17047W        W81867  25.159   5.579  12.462
17048W        W81868  43.080   3.696   4.562
17049W        W81869  25.422   0.593  11.640
17050W        W81870  20.443  34.512  10.726
17051W        W81871   9.958  22.837  14.906
17052W        W81872   9.689  21.233   4.697
17053W        W81873  36.963   3.192  12.408
17054W        W81874   9.669  42.918  13.311
17055W        W81875   9.366  21.393   3.667
17056W        W81876  14.490   5.300   4.092
17057W        W81877  41.791  44.563  13.425
17058W        W81878   8.810   9.891   4.936
17059W        W81879  31.533  21.448  14.995
17060W        W81880  35.409  22.100   2.311
17061W        W81881  21.213  37.282   3.560
17062W        W81882  18.578  16.169   2.454
17063W        W81883   4.649  37.977   0.019
17064W        W81884  43.822  16.679   0.836
17065W        W81885  31.107  18.616  13.827
17066W        W81886  16.210   2.451   2.836
17067W        W81887   6.911  28.116  13.908
17068W        W81888  21.073   5.671   5.033
17069W        W81889  44.592   5.129  11.196
17070W        W81890   6.611  41.843  13.376
17071W        W81891  35.625   5.437  12.598
17072W        W81892  34.902   8.471   0.103
17073W        W81893  38.820  12.948  11.128
17074W        W81894  44.276  30.866   2.263
17075W        W81895   8.282  33.110   3.177
17076W        W81896   8.776  43.205  12.896
17077W        W81897  31.413  39.927   1.777
17078W        W81898   5.858  40.173   3.146
17079W        W81899  23.730   0.069   0.440
17080W        W81900  28.172  12.590   4.206
17081W        W81901  34.794  23.667  13.646
17082W        W81902  43.875  21.294   4.561
17083W        W81903  44.450  13.661   1.296
17084W        W81904   6.724  11.387   3.405
17085W        W81905  17.663  33.067  11.482
17086W        W81906  29.542  30.019  10.407
17087W        W81907  41.450  39.462  11.225
17088W        W81908  39.864   3.013   4.061
17089W        W81909  21.579   9.044   3.083
17090W        W81910   0.993  38.673   1.771
17091W        W81911  34.631  32.914   4.183
17092W        W81912  32.126  19.208  12.926
17093W        W81913  10.359  44.293   4.997
17094W        W81914  27.384  39.395  10.657
17095W        W81915  38.457   6.955  13.487
17096W        W81916  25.563  37.858  12.748
17097W        W81917  20.259   5.849   1.848
17098W        W81918   7.319  29.946   0.041
17099W        W81919  29.718  30.510  10.216
17100W        W81920  15.352  40.551  14.550
17101W        W81921  16.291  43.736   2.367
17102W        W81922  19.750  31.407   3.675
17103W        W81923   4.976  44.976   1.790
17104W        W81924  30.577  39.558  10.936
17105W        W81925  42.510  43.681  14.785
17106W        W81926  25.269  29.187  12.882
17107W        W81927  33.001  26.104  10.689
17108W        W81928   4.376  21.965  10.727
17109W        W81929  27.330  13.752  13.893
17110W        W81930  39.683  24.711   0.775
17111W        W81931  19.852  19.733  10.669
17112W        W81932  34.191  40.847  14.689
17113W        W81933  32.449  22.147  12.196
17114W        W81934  42.445  24.132  10.214
17115W        W81935  38.038   7.272  13.547
17116W        W81936  10.633  25.464  13.783
17117W        W81937  31.891  18.697   0.129
17118W        W81938  17.303  11.711  13.116
17119W        W81939  21.714  33.654  12.096
17120W        W81940  14.562  10.627   1.855
17121W        W81941  16.117  17.648  10.956
17122W        W81942   0.075  17.251   0.219
17123W        W81943   1.698  13.110   1.459
17124W        W81944  20.916   9.619  11.100
17125W        W81945  42.563  28.331  11.621
17126W        W81946  34.192  43.890  11.092
17127W        W81947  43.844   2.427   1.890
17128W        W81948   2.772  38.685  12.514
17129W        W81949  37.398   5.484   2.818
17130W        W81950  39.272  39.939  11.207
17131W        W81951  44.331  13.789  11.082
17132W        W81952  31.096  35.499   3.400
17133W        W81953  44.264  25.574   5.060
17134W        W81954  19.806   5.431  12.512
17135W        W81955   2.497  12.114   1.653
17136W        W81956  35.921  25.942  12.823
17137W        W81957  19.529  35.522  14.052
17138W        W81958  29.559  38.970   0.650
17139W        W81959  41.887  18.330  12.048
17140W        W81960   5.138   3.675   1.784
17141W        W81961   5.124  26.208   4.315
17142W        W81962  36.169  12.704   0.139
17143W        W81963   0.343  19.720   3.451
17144W        W81964  44.876  33.323   0.460
17145W        W81965  20.322  27.054  11.073
17146W        W81966  13.646  30.862   4.090
17147W        W81967  43.965  30.584  14.951
17148W        W81968  33.441  40.537  10.683
17149W        W81969  26.467  40.429   0.945
17150W        W81970  16.012   3.969  13.010
17151W        W81971  18.852  30.920   1.974
17152W        W81972  25.932  23.069   4.157
17153W        W81973  37.392  19.854  13.794
17154W        W81974  17.956  18.256   1.906
17155W        W81975  30.640  31.866  14.034
17156W        W81976   3.042  33.996   4.166
17157W        W81977  18.567   3.619  11.960
17158W        W81978  24.475   3.484  11.272
17159W        W81979  44.950  42.871  12.014
17160W        W81980  20.871  39.627  11.497
17161W        W81981  16.571  32.834   2.716
17162W        W81982  28.113  35.104  12.484
17163W        W81983   8.129  26.594   2.873
17164W        W81984  30.196  15.104  13.423
17165W        W81985  36.036  35.576  11.560
17166W        W81986  33.446  14.666   3.313
17167W        W81987  27.010   1.505   1.734
17168W        W81988  39.591   9.340   4.454
17169W        W81989  37.072   9.840  14.714
17170W        W81990  44.749  30.960   0.158
17171W        W81991   6.857  38.420  12.341
17172W        W81992  31.711   9.350   1.918
17173W        W81993  31.642  13.179   0.912
17174W        W81994   3.339  19.303  12.102
17175W        W81995   0.461  32.915  14.370
17176W        W81996  38.200  17.071  14.036
17177W        W81997  40.989  31.637   1.143
17178W        W81998   1.288  22.827  10.498
17179W        W81999  19.116   5.474  11.568
17180W        W82000  25.166  15.111  12.513
17181W        W82001  23.136  16.408   4.076
17182W        W82002  24.004  40.281  12.053
17183W        W82003   8.761  19.997  11.723
17184W        W82004  43.938  22.495   2.823
17185W        W82005  32.662  34.935   4.091
17186W        W82006  14.955  35.536  13.456
17187W        W82007  27.414  24.461  11.633
17188W        W82008  31.913  11.895   4.603
17189W        W82009   4.390  15.211  11.203
17190W        W82010   9.864  40.857   2.335
17191W        W82011  29.598  35.059   1.958
17192W        W82012  11.216   7.577   2.301
17193W        W82013  24.218  21.653   0.509
17194W        W82014  18.284  23.281   1.878
17195W        W82015  32.947  34.582  12.913
17196W        W82016   9.294  15.658   2.016
17197W        W82017  20.039  39.416   3.732
17198W        W82018  41.546   6.934   4.088
17199W        W82019  29.622  15.363   2.481
17200W        W82020  21.086  27.616   2.850
17201W        W82021   1.423  40.820   2.121
17202W        W82022  20.672  38.975  12.051
17203W        W82023  28.078   6.168  13.573
17204W        W82024  17.571   6.805  14.378
17205W        W82025  18.210  32.991   1.949
17206W        W82026  16.703   0.790   2.799
17207W        W82027  21.496  14.204  12.392
17208W        W82028  13.882  31.425  14.763
17209W        W82029  42.514  10.305  12.056
17210W        W82030  28.482  23.581  10.692
17211W        W82031  25.944   0.433   1.334
17212W        W82032  25.814  12.665  12.464
17213W        W82033  42.590  10.580  11.393
17214W        W82034  33.102   4.880   2.457
17215W        W82035  26.623  11.855   0.855
17216W        W82036  22.328  11.299  12.012
17217W        W82037  41.399  13.776   4.597
17218W        W82038  21.072  20.321  12.016
17219W        W82039  16.730  17.549  13.074
17220W        W82040  28.262  18.582  13.784
17221W        W82041  42.316  28.247   4.633
17222W        W82042  19.302  30.871   4.516
17223W        W82043  37.564  17.013   4.514
17224W        W82044  33.594  13.031  13.732
17225W        W82045   7.127  35.954  14.479
17226W        W82046  10.962  40.266  13.474
17227W        W82047  21.790  44.577  11.528
17228W        W82048  42.976  33.356  10.554
17229W        W82049  16.642  18.339  10.747
17230W        W82050   6.389  41.516  10.203
17231W        W82051  24.469  23.958  12.011
17232W        W82052  41.973  24.694   2.838
17233W        W82053  22.764  40.728   4.170
17234W        W82054  25.738   2.465   3.410
17235W        W82055  29.549  17.491   1.282
17236W        W82056   3.682  37.152   1.006
17237W        W82057  24.550  14.782   3.454
17238W        W82058  39.449  29.475   2.806
17239W        W82059  20.615  13.936  14.494
17240W        W82060  23.471  26.205   4.730
17241W        W82061   0.761  13.647  13.348
17242W        W82062  17.572   5.238   3.512
17243W        W82063  39.439  29.632  10.663
17244W        W82064  43.969  43.703   1.859
17245W        W82065  23.487  42.734   4.070
17246W        W82066  31.948  36.567  11.151
17247W        W82067  32.879   0.819   3.729
17248W        W82068   4.899  25.149  13.387
17249W        W82069   6.870   7.722  13.518
17250W        W82070  13.336  13.370   0.901
17251W        W82071  18.130   8.943  11.683
17252W        W82072  31.710  18.173  13.427
17253W        W82073  18.621  14.788   2.174
17254W        W82074  37.390  31.373  14.965
17255W        W82075  37.025  39.490   1.618
17256W        W82076  41.095  25.185   1.359
17257W        W82077   9.749  36.870   2.715
17258W        W82078  18.167  34.414  11.446
17259W        W82079  13.845  29.475   0.913
17260W        W82080  41.059  35.885  13.052
17261W        W82081  41.359  29.884   4.539
17262W        W82082  16.673   6.386   2.932
17263W        W82083  25.052  14.578   0.295
17264W        W82084  39.966  42.229   0.838
17265W        W82085  27.976  41.736   0.850
17266W        W82086   8.308   6.529  13.395
17267W        W82087  22.124  31.537   0.781
17268W        W82088  40.441  39.446  11.966
17269W        W82089  40.488  23.257  12.917
17270W        W82090  30.458   9.855   3.339
17271W        W82091   3.334   3.451  12.456
17272W        W82092  16.206  22.215   2.162
17273W        W82093  10.482   0.023   1.747
17274W        W82094  17.575  42.370   4.046
17275W        W82095   4.294   6.731   0.019
17276W        W82096  14.764  35.473  10.563
17277W        W82097  28.970  34.489  10.120
17278W        W82098  40.369   5.521   1.446
17279W        W82099  19.587   5.698  13.772
17280W        W82100  36.885  17.484   4.090
17281W        W82101  11.610   1.726   3.708
17282W        W82102  21.575  43.081  12.843
17283W        W82103   4.873  34.696   0.751
17284W        W82104  36.668  24.950  12.563
17285W        W82105  39.893  31.172   2.621
17286W        W82106  26.433  22.175   1.701
17287W        W82107   2.754   4.308  10.738
17288W        W82108  32.872  17.757   0.286
17289W        W82109   1.543  27.054  13.014
17290W        W82110  18.036  24.819   5.001
17291W        W82111  35.265  40.928   1.465
17292W        W82112  31.855  38.821  10.745
17293W        W82113  18.738  33.466  10.102
17294W        W82114  20.183  17.097   3.634
17295W        W82115  28.481   7.281   3.361
17296W        W82116  15.351  21.901  14.554
17297W        W82117  26.012  41.401   3.626
17298W        W82118  38.094  23.868  11.171
17299W        W82119   4.329  32.426  13.884
17300W        W82120  17.469  12.239   1.690
17301W        W82121  17.789  40.579  11.599
17302W        W82122  39.316   5.371  11.081
17303W        W82123  22.688  36.512  12.601
17304W        W82124  39.574  32.166   4.522
17305W        W82125  25.393  36.999   1.010
17306W        W82126  28.297  13.287  14.922
17307W        W82127  23.184  15.128   3.095
17308W        W82128  22.574  30.004  14.803
17309W        W82129   5.229   4.860  11.779
17310W        W82130  19.578  10.719   0.009
17311W        W82131  17.622  29.986  11.580
17312W        W82132  10.341  32.056   0.992
17313W        W82133  43.904  41.495  14.926
17314W        W82134  28.215  37.507  12.064
17315W        W82135   7.269   1.835  13.903
17316W        W82136  12.170   4.359   2.318
17317W        W82137  28.568  25.448  12.480
17318W        W82138  43.582   8.270  13.076
17319W        W82139  35.665  41.123   2.376
17320W        W82140  39.029  44.509   1.044
17321W        W82141  21.610  42.969  10.925
17322W        W82142  34.305  10.979   0.682
17323W        W82143  23.244  26.730  11.555
17324W        W82144   0.075  33.462   2.428
17325W        W82145   7.758   0.083   2.193
17326W        W82146  35.340  15.247   4.084
17327W        W82147  27.701   9.105   3.084
17328W        W82148  44.214  37.049   0.783
17329W        W82149  29.646  44.648  12.542
17330W        W82150  21.230   9.149  11.599
17331W        W82151  17.601  23.979  10.797
17332W        W82152  18.392  44.432   0.891
17333W        W82153  32.486  38.824  12.779
17334W        W82154  28.917  24.436  11.587
17335W        W82155   9.179  38.951   3.332
17336W        W82156  26.999   1.261  12.705
17337W        W82157   4.303  36.077   1.478
17338W        W82158  32.012  14.610  13.212
17339W        W82159  44.688  39.353   5.111
17340W        W82160  16.096  13.436   4.495
17341W        W82161  22.239  20.009  12.434
17342W        W82162  23.591  38.746   4.810
17343W        W82163  43.298   3.727   1.916
17344W        W82164  15.752  28.211   2.559
17345W        W82165  34.918   0.354  11.101
17346W        W82166  31.656   6.895   1.395
17347W        W82167  13.257  29.583   2.788
17348W        W82168   5.961   0.402   3.649
17349W        W82169  38.150  16.211  11.371
17350W        W82170   0.726  32.687  10.781
17351W        W82171  42.991  13.227   3.708
17352W        W82172  41.761  44.277  12.571
17353W        W82173  42.746  31.497  14.339
17354W        W82174  34.542  12.887  11.037
17355W        W82175   2.094  14.056  10.335
17356W        W82176  13.415  13.613   1.994
17357W        W82177  21.190  24.741   2.696
17358W        W82178  32.218   3.939  14.869
17359W        W82179  37.502  33.720   5.063
17360W        W82180  23.734   9.789   0.753
17361W        W82181  11.013  44.205   4.213
17362W        W82182  23.968   5.140  12.127
17363W        W82183  22.770  43.342  11.043
17364W        W82184  19.223  34.104  14.749
17365W        W82185  20.265  34.598   0.404
17366W        W82186  30.203   1.801   2.866
17367W        W82187   2.210  20.077  14.109
17368W        W82188  28.622   4.245  10.962
17369W        W82189   8.832   1.193   3.480
17370W        W82190  13.424  44.889  12.533
17371W        W82191  35.571   4.798  10.420
17372W        W82192   1.280  42.225   4.290
17373W        W82193  14.540  32.195   2.356
17374W        W82194  30.017  13.686   1.471
17375W        W82195  22.207  32.093   2.661
17376W        W82196  36.858  34.374   0.800
17377W        W82197  32.549   9.009  14.769
17378W        W82198  16.521  41.726   0.762
17379W        W82199  16.073   7.552   4.638
17380W        W82200   0.848  17.207   4.996
17381W        W82201   0.991  26.699   1.295
17382W        W82202  40.760   1.060  14.875
17383W        W82203   0.922  39.320   4.143
17384W        W82204   6.260  12.139  14.069
17385W        W82205  44.934  38.517   0.939
17386W        W82206  24.950  39.119   3.730
17387W        W82207  38.846  18.695   2.619
17388W        W82208  40.763  34.537  10.501
17389W        W82209  30.640  19.502   2.697
17390W        W82210  37.806  20.312  12.241
17391W        W82211  22.430   2.327  10.710
17392W        W82212  33.027   6.918  14.576
17393W        W82213  24.228  19.215  12.168
17394W        W82214  35.507  34.540   0.587
17395W        W82215  11.366  44.040   0.392
17396W        W82216  42.330  10.735  12.300
17397W        W82217  38.258  22.060   0.056
17398W        W82218   4.928  10.722  13.489
17399W        W82219   5.917  31.509   0.083
17400W        W82220  14.014  35.157   0.301
17401W        W82221  26.941  44.165  10.877
17402W        W82222   6.021  14.759   4.583
17403W        W82223  12.900  38.877   4.729
17404W        W82224  24.146  37.558   3.515
17405W        W82225  16.211   1.866  14.840
17406W        W82226  10.727   2.759  12.027
17407W        W82227   8.875  27.212   1.778
17408W        W82228  32.917  39.810   1.715
17409W        W82229   6.403  25.503  12.715
17410W        W82230  40.701   0.736  11.510
17411W        W82231   7.728  29.011  14.850
17412W        W82232  21.318  35.994  14.391
17413W        W82233  33.432  31.956   3.213
17414W        W82234  30.360  22.742   4.163
17415W        W82235   0.878   3.370   0.401
17416W        W82236  17.935   6.248   4.129
17417W        W82237   1.303  30.068  11.994
17418W        W82238  32.411   3.181   0.387
17419W        W82239  27.675  12.465  14.501
17420W        W82240  23.196  17.081  14.062
17421W        W82241  20.723  15.561   3.668
17422W        W82242  12.191  13.105  13.023
17423W        W82243  30.643  18.571   1.366
17424W        W82244   2.691  24.409   2.552
17425W        W82245  24.072   8.236   3.177
17426W        W82246  43.025   9.713   1.393
17427W        W82247  40.136  41.884   3.879
17428W        W82248   3.864   3.499   4.811
17429W        W82249   8.047  24.682  12.024
17430W        W82250  40.616   2.561  11.490
17431W        W82251  39.094   1.389   0.341
17432W        W82252   0.938  12.178  13.585
17433W        W82253  37.092  18.554  12.702
17434W        W82254  13.199   6.644  14.799
17435W        W82255  40.343  18.433  12.085
17436W        W82256  14.735  21.186  10.313
17437W        W82257  35.413   3.945  10.406
17438W        W82258   1.778  42.634  11.963
17439W        W82259   2.246  27.691   4.371
17440W        W82260   9.281   3.347   0.034
17441W        W82261  17.549  18.700   4.943
17442W        W82262  28.998  30.768  11.966
17443W        W82263   6.506  14.756   0.785
17444W        W82264   7.133  26.468  13.290
17445W        W82265  43.399  11.799   1.686
17446W        W82266   8.558  34.631   4.295
17447W        W82267  33.525  43.853  11.156
17448W        W82268  35.352  29.013  11.339
17449W        W82269   2.903  23.034  13.445
17450W        W82270   1.140   5.314   0.311
17451W        W82271  29.529  25.626   2.655
17452W        W82272  17.268   1.808  10.359
17453W        W82273  42.451  32.343   3.816
17454W        W82274  19.606  23.426  12.078
17455W        W82275  32.102  12.432  14.997
17456W        W82276  31.853   7.893   0.460
17457W        W82277  43.583  19.100   2.197
17458W        W82278   4.917  20.601  10.708
17459W        W82279   0.754  17.036   3.538
17460W        W82280  26.439  15.076  12.936
17461W        W82281  19.234  21.144  10.657
17462W        W82282  12.769  33.151  11.200
17463W        W82283  44.028  26.676  12.195
17464W        W82284  28.478   7.284   0.421
17465W        W82285  16.686  29.231  12.091
17466W        W82286   4.190  12.211   0.801
17467W        W82287  39.893   8.659   1.878
17468W        W82288  16.133  24.472   2.928
17469W        W82289  36.176  29.706  11.616
17470W        W82290  25.561   4.203  12.170
17471W        W82291  20.173   9.132  13.399
17472W        W82292  25.993   6.636   3.568
17473W        W82293   2.090  30.339  14.880
17474W        W82294   8.176  18.838   3.505
17475W        W82295  28.967  20.533   0.320
17476W        W82296  26.073  37.449  12.868
17477W        W82297  12.096   8.956   2.310
17478W        W82298  11.837  17.223   1.362
17479W        W82299  43.264  32.834  12.118
17480W        W82300  22.254  28.211   4.128
17481W        W82301   3.912   3.941  14.444
17482W        W82302  40.553  44.008  11.504
17483W        W82303  30.504  20.293   0.862
17484W        W82304  11.196   1.555   2.413
17485W        W82305  21.266  21.306   4.455
17486W        W82306   5.829  26.663   3.676
17487W        W82307   3.811  21.388   1.651
17488W        W82308   8.215   3.926   4.554
17489W        W82309  42.445  30.030   3.455
17490W        W82310  23.300  29.983   3.612
17491W        W82311  30.926  14.712  14.865
17492W        W82312  13.253  40.562   3.238
17493W        W82313   9.222   3.178  12.423
17494W        W82314   2.567  39.807  13.374
17495W        W82315   4.356  35.200   0.495
17496W        W82316   0.915   9.614   0.177
17497W        W82317  36.065  16.373  14.839
17498W        W82318  16.302   5.736   2.336
17499W        W82319  42.492  12.768  10.766
17500W        W82320  26.389  41.162  11.672
17501W        W82321  37.445   4.949   0.002
17502W        W82322   8.749   9.833   3.670
17503W        W82323  19.301   2.699   0.291
17504W        W82324  35.035  33.461  12.853
17505W        W82325   3.118  44.528  12.666
17506W        W82326  18.075  18.086   0.896
17507W        W82327   0.664   9.827   2.655
17508W        W82328  20.592  39.614   2.804
17509W        W82329   4.247  29.172   1.832
17510W        W82330  39.525   8.207   4.353
17511W        W82331  37.165  38.117   4.434
17512W        W82332  36.132  29.402   2.361
17513W        W82333  43.511  10.787  10.477
17514W        W82334  41.857  34.021   0.452
17515W        W82335  37.408  44.483  13.800
17516W        W82336  19.296  28.483   1.917
17517W        W82337  13.587  33.849   1.757
17518W        W82338  15.094  39.794  12.950
17519W        W82339  32.178   3.575   2.647
17520W        W82340  39.498  22.148  13.750
17521W        W82341  40.937  22.793  12.371
17522W        W82342  33.756  12.412  12.618
17523W        W82343  21.477  33.568  13.960
17524W        W82344   4.687  37.698   0.876
17525W        W82345  38.008  40.402   3.393
17526W        W82346   3.514  31.132   3.594
17527W        W82347  24.164  32.787  13.323
17528W        W82348   4.086  22.219  14.824
17529W        W82349  33.429  35.312  12.340
17530W        W82350  17.709  24.444  10.629
17531W        W82351  26.929  31.102   3.179
17532W        W82352  22.076  26.535  11.653
17533W        W82353  19.668  18.735   4.680
17534W        W82354  37.622   1.270   2.280
17535W        W82355  24.034  36.655   2.773
17536W        W82356  12.887  12.186  13.900
17537W        W82357  21.294  42.918  12.444
17538W        W82358  32.056  35.562  12.847
17539W        W82359  10.922   2.759   3.780
17540W        W82360  30.164  13.875   4.272
17541W        W82361  32.984  28.619   4.598
17542W        W82362   1.279  38.258  14.948
17543W        W82363   9.189   1.786  10.692
17544W        W82364  27.179  13.117   2.784
17545W        W82365  24.626  10.426   2.895
17546W        W82366   5.878  35.907  14.825
17547W        W82367  30.722  24.667   1.382
17548W        W82368  31.151  38.830   4.129
17549W        W82369  22.473  40.222  13.346
17550W        W82370   0.687  27.796   2.362
17551W        W82371  12.141  30.624  14.344
17552W        W82372  26.432  28.958   2.788
17553W        W82373  15.671  27.276  11.022
17554W        W82374  18.215   4.936  12.982
17555W        W82375  31.212  34.480   4.482
17556W        W82376  42.666  40.335   2.065
17557W        W82377  22.178  24.208   2.410
17558W        W82378  36.554  42.354   2.427
17559W        W82379  29.086  28.385   2.005
17560W        W82380   0.563  10.769   0.048
17561W        W82381  35.998  17.039   3.205
17562W        W82382  39.345   3.334  11.999
17563W        W82383  43.259   1.225  12.132
17564W        W82384  35.741   1.880  11.961
17565W        W82385  19.401  44.677   2.372
17566W        W82386  33.658  24.887  13.353
17567W        W82387  13.794  24.562   0.312
17568W        W82388  26.930   9.166   0.998
17569W        W82389   5.530  28.704   0.371
17570W        W82390  33.826  12.133  13.470
17571W        W82391  24.938  32.811   3.837
17572W        W82392  20.144   3.253   3.404
17573W        W82393  29.642   3.254  13.950
17574W        W82394  18.971  11.117  14.605
17575W        W82395  19.533  41.415  13.861
17576W        W82396  19.088   0.247   3.418
17577W        W82397  28.541   3.745   3.407
17578W        W82398  12.412  22.202   1.629
17579W        W82399  14.052  10.762   0.970
17580W        W82400  41.319  32.778   4.852
17581W        W82401  23.000  12.750  14.327
17582W        W82402   6.013  13.072  11.979
17583W        W82403  10.109  11.233  12.955
17584W        W82404  24.084  32.682   1.199
17585W        W82405   4.304  24.761   2.603
17586W        W82406   0.390  33.086   3.128
17587W        W82407  43.503   4.226   2.826
17588W        W82408  39.123  14.832  13.569
17589W        W82409  12.257  19.912  14.967
17590W        W82410   6.650   6.784  14.909
17591W        W82411  34.933   8.124  13.824
17592W        W82412  24.085  39.003  10.348
17593W        W82413  16.895  14.807   1.952
17594W        W82414  21.955  38.903  14.752
17595W        W82415   5.988  42.638   3.185
17596W        W82416  28.912  27.497   1.676
17597W        W82417  17.081  44.397   1.985
17598W        W82418  42.932  39.645   1.261
17599W        W82419  17.648  25.993   1.819
17600W        W82420  39.939  22.170  10.714
17601W        W82421  37.505  22.626  12.024
17602W        W82422  24.701  40.819   3.352
17603W        W82423  14.540   9.762   1.445
17604W        W82424  24.798  25.536  11.504
17605W        W82425  13.081  10.266  11.059
17606W        W82426  44.486  15.077  13.085
17607W        W82427  26.520  18.503   2.632
17608W        W82428  38.305  36.137   4.306
17609W        W82429  12.614  22.483  11.260
17610W        W82430  16.914  41.280   4.623
17611W        W82431  38.224  38.033  11.530
17612W        W82432  30.671  22.591   0.161
17613W        W82433  29.642  16.201   4.463
17614W        W82434  36.057  10.149  14.529
17615W        W82435  13.268  17.880  13.854
17616W        W82436  20.209   0.904  11.492
17617W        W82437  12.418   3.797  12.073
17618W        W82438  10.674  21.434  12.587
17619W        W82439   6.757  11.907  10.657
17620W        W82440   1.954  37.365  10.677
17621W        W82441  12.697  29.554   3.505
17622W        W82442  44.318  39.010   4.567
17623W        W82443  39.913   2.246  12.119
17624W        W82444  34.513  31.934   3.097
17625W        W82445  32.670  33.819   0.620
17626W        W82446  11.817   1.863  11.452
17627W        W82447  15.211  21.513  11.527
17628W        W82448   7.101  18.248  13.305
17629W        W82449  14.828   4.385  12.331
17630W        W82450   1.456  25.226  11.586
17631W        W82451  12.363  34.238   4.692
17632W        W82452  39.546  26.989   3.272
17633W        W82453  19.561   1.759  13.398
17634W        W82454  29.659  43.513  13.863
17635W        W82455  28.068  10.233   1.553
17636W        W82456  33.033  10.416   1.539
17637W        W82457  37.262  15.900   0.390
17638W        W82458  41.481  27.643   0.941
17639W        W82459  17.311   8.175  11.016
17640W        W82460   0.327   9.628  11.168
17641W        W82461  12.591   4.523  14.565
17642W        W82462  24.126  20.611   1.461
17643W        W82463  16.383  28.282  14.479
17644W        W82464   2.806  35.406   4.338
17645W        W82465  29.506   8.553   5.024
17646W        W82466  31.207   8.610  10.297
17647W        W82467   8.715   6.439   4.513
17648W        W82468   3.880  26.452  10.573
17649W        W82469  34.039  26.478  11.464
17650W        W82470  42.905  25.246  12.503
17651W        W82471  36.621   7.222   3.346
17652W        W82472  21.544  10.657   0.402
17653W        W82473  18.553   9.448  13.725
17654W        W82474  33.531  43.036   3.155
17655W        W82475  40.979  40.867   0.713
17656W        W82476   5.700  34.103  10.756
17657W        W82477  11.582   0.684   2.289
17658W        W82478   8.910  23.606  10.670
17659W        W82479  24.438  27.899   4.038
17660W        W82480  38.086  27.576  10.728
17661W        W82481  23.098  20.448  12.366
17662W        W82482  35.349  35.922   0.195
17663W        W82483  38.829  44.078  10.870
17664W        W82484  38.096  31.007   0.877
17665W        W82485  31.394  21.224  14.252
17666W        W82486  25.780  10.929   3.650
17667W        W82487  12.767   7.346   3.341
17668W        W82488  10.417  10.905  12.692
17669W        W82489  44.290  42.231  10.717
17670W        W82490  31.803  31.470   1.889
17671W        W82491  38.559  15.373   3.828
17672W        W82492   0.484  44.974  13.914
17673W        W82493  32.067  40.296   0.364
17674W        W82494   6.328   2.295   4.280
17675W        W82495   1.245  29.964   2.851
17676W        W82496  15.264  43.399  12.526
17677W        W82497  42.063  33.121   2.241
17678W        W82498  11.000  27.471  12.500
17679W        W82499  44.063  21.657   1.411
17680W        W82500   1.268  10.562  13.821
17681W        W82501  27.010  27.592  13.944
17682W        W82502  16.438  28.972  11.673
17683W        W82503  11.392  35.035   3.899
17684W        W82504  19.024  41.822  12.070
17685W        W82505  11.705  14.985   5.147
17686W        W82506  36.500  32.884  12.523
17687W        W82507  43.779  33.381   3.534
17688W        W82508  28.745  40.110  11.622
17689W        W82509  41.238  37.465   2.841
17690W        W82510  43.326  23.222  12.237
17691W        W82511  16.982   2.774   1.926
17692W        W82512  38.767  20.071  13.459
17693W        W82513  29.206  12.020  12.050
17694W        W82514  24.725  41.833  11.557
17695W        W82515  20.144  44.142   2.697
17696W        W82516   0.789  19.104   1.190
17697W        W82517  12.136  35.533  11.157
17698W        W82518  18.221  41.801   1.184
17699W        W82519   8.489   7.184  11.293
17700W        W82520  23.236  22.691   2.379
17701W        W82521  15.149  36.987  14.268
17702W        W82522   5.760   0.728   2.511
17703W        W82523  40.576  39.899   1.421
17704W        W82524  30.572   4.912  12.028
17705W        W82525   5.142  40.644   1.395
17706W        W82526  36.481  19.281  12.006
17707W        W82527  24.176   6.173  13.436
17708W        W82528  36.282  17.553   3.668
17709W        W82529  26.541  44.208   0.436
17710W        W82530  15.079  37.879   1.066
17711W        W82531  37.858  15.034   5.574
17712W        W82532  44.444  33.888  12.147
17713W        W82533  20.027  25.147  11.899
17714W        W82534  31.984  38.507  12.413
17715W        W82535   5.377  16.802  12.482
17716W        W82536  10.604  36.811   4.694
17717W        W82537  12.770  32.225   3.832
17718W        W82538  40.232   8.753   0.157
17719W        W82539   6.179  13.284   2.174
17720W        W82540  38.468  39.482   4.111
17721W        W82541  34.849  21.740   4.489
17722W        W82542  42.332  35.349  13.997
17723W        W82543  34.333  28.197  12.920
17724W        W82544  41.041  33.766   0.295
17725W        W82545  39.649  24.435  13.557
17726W        W82546  16.726  24.799   0.459
17727W        W82547  41.588  33.799  13.807
17728W        W82548  13.593   1.470  11.682
17729W        W82549  14.092  14.221  14.451
17730W        W82550  40.820  31.542  11.536
17731W        W82551  43.525  41.389   0.816
17732W        W82552  21.049  11.594   1.851
17733W        W82553  41.466  38.594  11.509
17734W        W82554  43.543  12.207  13.525
17735W        W82555  26.634  40.864  11.161
17736W        W82556  39.729  30.376  11.195
17737W        W82557  16.568  25.713  13.797
17738W        W82558  12.087  21.033   0.794
17739W        W82559  43.486  16.322  13.966
17740W        W82560  13.189  33.400   4.656
17741W        W82561  36.131  24.161   1.176
17742W        W82562  24.766   5.286  14.405
17743W        W82563  40.952  36.072   4.998
17744W        W82564   5.217  43.218  13.485
17745W        W82565  28.050  15.691  14.784
17746W        W82566  15.337  15.340  10.172
17747W        W82567  35.580  28.435  14.822
17748W        W82568   0.799   2.194  14.744
17749W        W82569   9.960   4.004  11.642
17750W        W82570  23.977  27.061  11.761
17751W        W82571  35.156   9.675  14.748
17752W        W82572  16.205  26.259   3.739
17753W        W82573  15.879  11.141   1.001
17754W        W82574  16.111  34.412   2.703
17755W        W82575  43.866   7.211  13.943
17756W        W82576   0.240  36.399  14.142
17757W        W82577   2.389  19.687   1.365
17758W        W82578   8.092   2.274   4.132
17759W        W82579  36.316  20.224   1.763
17760W        W82580  20.202   2.388  11.600
17761W        W82581  37.250  30.905  14.898
17762W        W82582  31.084  36.553   0.032
17763W        W82583  29.598  28.375   3.658
17764W        W82584  37.980  35.600  14.332
17765W        W82585  19.692  26.026  13.733
17766W        W82586   0.908  35.465  11.583
17767W        W82587  34.862  23.523   0.799
17768W        W82588  20.562   4.538   0.824
17769W        W82589  42.353  20.215   1.372
17770W        W82590  10.378   3.917  13.436
17771W        W82591   5.499  38.446   4.049
17772W        W82592   3.944  20.227  11.179
17773W        W82593  38.482  43.970   2.928
17774W        W82594  43.938  44.434   3.810
17775W        W82595   1.793  12.325  13.996
17776W        W82596  33.089  25.995   0.822
17777W        W82597   2.436  29.186  12.450
17778W        W82598  23.853  32.184  13.533
17779W        W82599  42.744  18.948  13.495
17780W        W82600  29.369   7.787  12.282
17781W        W82601  42.496   4.720   4.604
17782W        W82602  16.646  34.449  10.227
17783W        W82603   4.877  24.235  12.608
17784W        W82604  34.464  21.795   1.485
17785W        W82605  27.399   0.306   2.485
17786W        W82606  24.241  25.872   2.992
17787W        W82607  33.912   6.705   3.672
17788W        W82608   4.896  33.358   0.420
17789W        W82609   6.861  26.724   4.276
17790W        W82610  21.490  35.070  12.875
17791W        W82611  24.457   8.598   3.344
17792W        W82612  35.138  23.122  10.443
17793W        W82613   9.145  32.052  11.198
17794W        W82614  25.026  30.434   3.208
17795W        W82615  23.034  36.293   0.766
17796W        W82616  27.488  44.847   2.756
17797W        W82617   0.017  27.434   0.781
17798W        W82618  15.793  32.878   2.268
17799W        W82619  28.637  27.633   3.593
17800W        W82620  18.500  19.473  12.031
17801W        W82621  39.857  35.915   3.324
17802W        W82622  41.927  19.391   2.941
17803W        W82623  38.160   1.546   0.401
17804W        W82624  25.245   2.375  14.312
17805W        W82625  23.840  10.593   1.213
17806W        W82626  10.067  38.729  12.444
17807W        W82627  16.800  44.412   3.297
17808W        W82628  12.815  28.494   0.068
17809W        W82629  39.384  41.051   0.334
17810W        W82630   6.324   1.286  10.796
17811W        W82631  36.694  38.528   0.204
17812W        W82632  43.614  30.357   4.614
17813W        W82633   3.602   4.620  13.419
17814W        W82634  12.629  37.415   2.920
17815W        W82635  39.044  13.642  13.898
17816W        W82636   4.394  32.843  14.810
17817W        W82637   5.745  26.318   1.314
17818W        W82638  35.588   4.182   4.690
17819W        W82639  25.560  10.707  12.518
17820W        W82640   3.938   8.508   4.944
17821W        W82641   0.733   1.926   4.735
17822W        W82642  29.848  30.048   0.397
17823W        W82643  16.737  23.115  13.920
17824W        W82644  26.263  32.244  11.112
17825W        W82645  11.356  33.151  13.505
17826W        W82646  33.703   6.612  12.453
17827W        W82647  36.043  42.563   3.806
17828W        W82648   4.260   0.131   0.004
17829W        W82649   1.830  26.633   0.780
17830W        W82650  22.579   2.411  11.187
17831W        W82651  35.666  43.078   4.456
17832W        W82652  43.467  31.075   4.769
17833W        W82653  17.234  33.391   3.826
17834W        W82654  26.540   1.474  11.607
17835W        W82655   1.344  44.524  13.017
17836W        W82656   7.135  34.557  13.351
17837W        W82657  38.134  26.092  10.755
17838W        W82658  14.141  14.083  11.999
17839W        W82659  19.810  21.652   3.394
17840W        W82660  30.179  43.911  13.356
17841W        W82661   2.884   2.192  14.309
17842W        W82662  38.165  26.998   2.364
17843W        W82663  37.374  32.544  14.421
17844W        W82664  30.167  35.363   3.099
17845W        W82665  25.114   3.497   0.255
17846W        W82666  11.552  10.702   0.471
17847W        W82667  36.152  43.764  13.133
17848W        W82668  13.353  17.015   0.692
17849W        W82669   5.697  35.638  12.565
17850W        W82670  43.300   2.966  14.941
17851W        W82671  21.540   0.941   1.473
17852W        W82672  39.474  17.546  12.113
17853W        W82673  23.502  27.058  13.940
17854W        W82674  17.531  36.373   1.425
17855W        W82675  18.679  38.916   0.466
17856W        W82676  29.887  16.540   0.803
17857W        W82677  23.148  27.649   4.528
17858W        W82678  22.641  12.117   3.308
17859W        W82679  42.339  27.017   3.993
17860W        W82680  21.278  10.921   2.295
17861W        W82681  14.288  24.536   2.881
17862W        W82682  38.305  20.226  14.498
17863W        W82683   4.005  38.737  11.912
17864W        W82684  21.245  37.538  13.927
17865W        W82685  23.757  11.151   0.744
17866W        W82686   7.237  20.227  12.786
17867W        W82687  37.859  15.761  10.508
17868W        W82688  21.971  17.139  13.285
17869W        W82689  13.827  28.716  11.962
17870W        W82690   0.085  26.689  13.403
17871W        W82691  11.030  27.765  12.915
17872W        W82692  24.669  26.281   0.447
17873W        W82693  26.323  21.727  14.503
17874W        W82694  40.926  44.958   0.102
17875W        W82695  10.547  20.889  13.439
17876W        W82696  34.261  16.563   1.863
17877W        W82697  26.093  28.435  11.560
17878W        W82698  32.522  10.338  14.863
17879W        W82699  41.547  13.803   0.548
17880W        W82700  39.024   6.184   1.981
17881W        W82701  28.421   0.692   0.369
17882W        W82702  30.017  39.920   1.823
17883W        W82703  36.328   1.517  14.945
17884W        W82704   2.354  42.860   5.000
17885W        W82705  17.143  29.404  14.810
17886W        W82706  42.974  38.796   4.153
17887W        W82707   5.193  10.601  14.544
17888W        W82708  13.776  33.710  12.104
17889W        W82709  35.564  26.459   1.381
17890W        W82710  33.121  35.429   1.404
17891W        W82711  12.418  11.103   1.286
17892W        W82712   8.961   4.166  11.600
17893W        W82713  40.056  37.082   3.883
17894W        W82714  44.484  26.971   1.343
17895W        W82715  25.952  33.174   1.807
17896W        W82716  13.580   6.603  14.427
17897W        W82717  42.627   6.244   0.275
17898W        W82718  18.930  43.483   1.383
17899W        W82719  42.560  14.666  14.045
17900W        W82720  30.223  25.253   5.501
17901W        W82721  18.004  41.345  11.137
17902W        W82722  15.022  32.449   2.884
17903W        W82723   8.810  28.638   4.066
17904W        W82724  27.501  41.108   4.214
17905W        W82725  26.158  29.066   2.356
17906W        W82726  41.558  27.723  14.101
17907W        W82727  41.528  40.397  11.208
17908W        W82728   7.309  40.144   4.810
17909W        W82729  44.500  39.084   0.979
17910W        W82730   4.306  44.488   2.214
17911W        W82731  40.261  29.946   0.831
17912W        W82732   8.316  18.589  10.368
17913W        W82733  17.890  40.911  14.333
17914W        W82734   5.245  40.847   2.364
17915W        W82735  33.648  39.004  13.652
17916W        W82736  25.064  25.902  14.059
17917W        W82737  33.482  28.736  12.370
17918W        W82738  36.269  35.034  10.728
17919W        W82739  32.003  35.537   2.928
17920W        W82740   2.818  30.713   4.135
17921W        W82741  12.165   5.108  12.137
17922W        W82742  20.815  22.996  14.820
17923W        W82743  25.506  30.745  10.834
17924W        W82744  24.499  20.134   1.326
17925W        W82745   1.205  37.360   0.292
17926W        W82746  18.240  34.919   2.683
17927W        W82747  21.991  10.711   0.794
17928W        W82748  30.550  20.353   3.183
17929W        W82749   2.907  43.263  10.496
17930W        W82750  21.713  14.061   0.951
17931W        W82751   7.718  32.559   3.806
17932W        W82752  38.740   0.382   0.609
17933W        W82753   7.545  15.214   4.041
17934W        W82754  12.605   9.092   3.807
17935W        W82755   0.659  12.322  14.089
17936W        W82756  44.273  16.798   9.794
17937W        W82757  20.772  22.050  13.481
17938W        W82758  28.058  31.391   9.821
17939W        W82759  38.581  43.724  11.716
17940W        W82760  23.545   6.430   2.382
17941W        W82761  39.350  11.242   2.160
17942W        W82762  25.113   6.141   2.709
17943W        W82763  21.389  41.036  14.793
17944W        W82764  37.416   0.346  13.377
17945W        W82765  19.431   1.332  13.105
17946W        W82766  35.426  34.662   4.140
17947W        W82767  42.870  35.057   0.452
17948W        W82768  23.508  36.413  13.763
17949W        W82769  31.804   1.482   4.063
17950W        W82770  21.976   7.441  14.387
17951W        W82771  30.415  15.038  11.071
17952W        W82772  12.435  36.404   0.541
17953W        W82773  34.964  20.785  11.946
17954W        W82774  39.690  14.751  12.470
17955W        W82775  41.341  38.116  12.465
17956W        W82776  28.616  34.374  12.656
17957W        W82777  42.763   7.307   4.008
17958W        W82778  24.338  17.609  12.638
17959W        W82779   9.314   6.001   2.204
17960W        W82780  42.549  22.031   4.565
17961W        W82781   0.704   8.687  14.071
17962W        W82782  36.391  20.625  13.078
17963W        W82783  13.279  26.106  10.948
17964W        W82784   2.461  16.156   3.855
17965W        W82785  44.165  23.622  12.633
17966W        W82786  32.319  28.914  10.338
17967W        W82787  31.133  14.724   2.333
17968W        W82788  36.814  43.511   4.962
17969W        W82789   0.428  44.330  14.587
17970W        W82790  39.059  39.615  10.866
17971W        W82791  19.479  36.356  12.588
17972W        W82792  28.518   6.838   1.766
17973W        W82793  41.286  19.776  11.047
17974W        W82794  25.551   6.084   3.246
17975W        W82795   4.651  28.685   1.493
17976W        W82796  32.370   5.236  12.492
17977W        W82797  23.051  42.929  10.419
17978W        W82798  30.552  22.629   2.257
17979W        W82799  22.199  31.995   3.205
17980W        W82800  38.219  17.587  14.741
17981W        W82801  34.064  24.736   0.472
17982W        W82802  16.372  38.478  12.833
17983W        W82803   5.663  17.428   2.140
17984W        W82804  18.957  14.026   3.370
17985W        W82805  12.354  20.163  11.921
17986W        W82806  37.141  16.835   9.744
17987W        W82807  36.834  20.095   1.824
17988W        W82808   9.311  16.179  13.102
17989W        W82809  32.254  42.561   3.332
17990W        W82810  19.750  23.396  13.403
17991W        W82811   8.615   0.885  14.482
17992W        W82812  21.213  29.069   3.504
17993W        W82813   3.340   6.276  13.865
17994W        W82814  40.908   9.308   3.804
17995W        W82815  41.635  18.191   2.399
17996W        W82816  28.123  27.634   3.560
17997W        W82817  20.152  12.961  14.935
17998W        W82818  33.706  15.699  12.880
17999W        W82819  34.857   9.181   1.078
18000W        W82820   3.870   8.806   1.973
18001W        W82821  24.999  19.375   1.369
18002W        W82822   8.175  25.244   0.749
18003W        W82823   5.916  39.402  14.527
18004W        W82824   5.894  36.327   4.023
18005W        W82825  32.375   9.915   4.248
18006W        W82826   1.973  37.374  13.471
18007W        W82827   1.244  36.294   3.245
18008W        W82828  11.716  11.215   1.203
18009W        W82829  15.681   8.154  10.769
18010W        W82830   1.685  24.575   2.895
18011W        W82831  16.330  34.606   0.844
18012W        W82832   5.179  29.061   4.900
18013W        W82833   9.747  33.229   2.279
18014W        W82834   5.680   7.404  12.319
18015W        W82835   6.355  23.089   2.149
18016W        W82836   2.513   6.832   2.317
18017W        W82837  43.593  32.169   1.725
18018W        W82838   5.031  32.547  12.046
18019W        W82839  39.571  17.564  12.997
18020W        W82840  13.856  10.688   0.474
18021W        W82841  12.823  21.641  14.944
18022W        W82842  12.317  38.945   2.359
18023W        W82843  39.660  42.761  12.080
18024W        W82844  19.131  16.053   3.246
18025W        W82845  24.404  25.949   1.634
18026W        W82846  22.287  36.518  12.945
18027W        W82847  25.082  16.520  12.644
18028W        W82848  13.486   5.516   4.171
18029W        W82849   0.924  42.597   0.896
18030W        W82850  38.100  20.235   2.250
18031W        W82851  31.004  43.709   1.767
18032W        W82852   5.060  36.677   1.836
18033W        W82853  43.268  32.704   3.244
18034W        W82854  39.964  27.075   0.822
18035W        W82855   6.305   3.235   4.145
18036W        W82856  43.709  44.111  11.226
18037W        W82857  36.833  42.540  13.728
18038W        W82858   7.957  44.300  10.685
18039W        W82859  39.580  42.568  11.600
18040W        W82860  25.052  22.007  12.281
18041W        W82861   0.489  13.613  11.559
18042W        W82862  22.473  32.613  12.447
18043W        W82863   3.899  15.836   4.258
18044W        W82864  25.207  10.831   1.912
18045W        W82865  20.822  21.564   4.600
18046W        W82866   9.832  12.178   0.239
18047W        W82867   5.861   5.859  14.682
18048W        W82868  32.094  15.958   0.806
18049W        W82869   2.982   7.216   3.095
18050W        W82870  27.595  32.567  14.723
18051W        W82871  38.400  30.014   4.185
18052W        W82872  40.475  14.442  11.882
18053W        W82873  34.868  21.186  14.887
18054W        W82874  28.218  16.560  11.879
18055W        W82875  23.656  32.134   3.274
18056W        W82876   6.815  27.711   1.723
18057W        W82877   6.841  33.547  13.407
18058W        W82878  28.193  37.334   0.932
18059W        W82879  38.911  18.532   1.626
18060W        W82880  18.593   8.262  13.142
18061W        W82881   8.741  33.132  11.696
18062W        W82882  41.538  36.061  13.152
18063W        W82883   9.782  11.123   0.962
18064W        W82884   3.384  30.346   0.384
18065W        W82885   7.432  14.854  10.656
18066W        W82886  29.226  15.636   0.315
18067W        W82887  44.336  18.644   0.803
18068W        W82888  27.366   5.957   3.293
18069W        W82889  30.592  22.015  11.628
18070W        W82890  44.500   9.684   2.258
18071W        W82891  34.213  26.773  12.321
18072W        W82892  40.561  42.893   3.694
18073W        W82893  28.399   5.953   2.791
18074W        W82894  40.949  11.569   5.527
18075W        W82895  21.738  11.400   0.902
18076W        W82896  42.780  29.963   2.669
18077W        W82897  30.584  32.098   1.734
18078W        W82898  42.949  19.739   2.098
18079W        W82899   4.742  44.220   2.297
18080W        W82900  18.123  35.823   2.683
18081W        W82901  25.801  16.742   2.774
18082W        W82902  12.250  13.874   1.920
18083W        W82903  41.098  11.244  13.434
18084W        W82904  39.629  41.053  12.893
18085W        W82905  32.633  30.496  11.597
18086W        W82906  29.101  38.942   1.451
18087W        W82907  42.216  35.550  12.195
18088W        W82908  34.409  20.120   2.394
18089W        W82909   8.233  44.847  11.123
18090W        W82910   9.273  28.093  10.227
18091W        W82911  16.664  25.517  14.802
18092W        W82912  43.402  43.424   3.592
18093W        W82913  28.051   9.978  14.036
18094W        W82914  36.450  10.132   3.104
18095W        W82915   8.317  24.424  10.751
18096W        W82916  33.673  31.227  14.820
18097W        W82917  20.949  19.264  14.338
18098W        W82918  30.127  34.561  14.405
18099W        W82919  35.519  44.361   3.642
18100W        W82920  20.414  22.031   1.710
18101W        W82921   8.236  12.857   2.511
18102W        W82922  17.885  38.425   0.194
18103W        W82923  29.438  30.026  10.915
18104W        W82924  23.053  43.804   0.381
18105W        W82925  21.550  26.533  10.772
18106W        W82926  37.633   7.415   0.946
18107W        W82927  37.900  12.186   3.598
18108W        W82928   8.767  37.958   2.089
18109W        W82929  43.148  11.249  12.708
18110W        W82930  33.015   8.306  13.984
18111W        W82931   0.965  24.702   2.329
18112W        W82932  39.116  17.792  12.735
18113W        W82933   7.426   8.267  11.904
18114W        W82934  11.107  42.897  11.191
18115W        W82935   2.467  16.598   4.711
18116W        W82936  36.834  18.566   1.931
18117W        W82937  33.379  35.855   2.401
18118W        W82938  32.579  19.431  11.012
18119W        W82939   4.985   8.111  12.575
18120W        W82940  16.309  36.728   1.275
18121W        W82941  38.464  33.611   4.060
18122W        W82942  23.693  16.374   2.317
18123W        W82943  35.854  24.501  11.846
18124W        W82944  39.336  15.802  12.614
18125W        W82945   0.556   7.296  14.373
18126W        W82946  12.198   7.665   3.352
18127W        W82947   1.094  32.819   1.268
18128W        W82948  11.674  14.139   5.420
18129W        W82949  38.901  33.792  12.126
18130W        W82950  21.369  27.198  14.732
18131W        W82951  41.013  35.383  10.619
18132W        W82952   2.350  37.498   4.582
18133W        W82953  12.252  42.829  12.967
18134W        W82954  24.761   0.425   2.789
18135W        W82955  32.979  13.721  13.837
18136W        W82956  21.911  13.300   9.961
18137W        W82957   0.972  36.488   0.933
18138W        W82958  11.599  20.837   0.843
18139W        W82959  30.435  20.018   4.144
18140W        W82960  35.146  34.587   2.240
18141W        W82961  33.069  37.006  14.196
18142W        W82962  14.187   8.670   0.029
18143W        W82963  30.451  41.960   1.762
18144W        W82964  13.188  34.820  14.363
18145W        W82965  27.751  16.417   3.997
18146W        W82966  32.188   0.704   3.173
18147W        W82967  37.062  18.158   1.443
18148W        W82968  24.679   4.356  10.663
18149W        W82969   7.998   0.398  13.050
18150W        W82970  26.743  18.550   1.114
18151W        W82971  41.244  27.472  11.314
18152W        W82972  26.348   3.892  10.812
18153W        W82973  25.541  22.990   1.855
18154W        W82974  28.218   6.732   2.161
18155W        W82975  40.121  10.407  11.559
18156W        W82976  18.091   9.222  13.058
18157W        W82977   4.297  41.445  14.580
18158W        W82978  36.424  40.096  13.053
18159W        W82979  19.206   0.900   0.334
18160W        W82980   2.800  43.806   2.172
18161W        W82981   3.263  31.629  12.474
18162W        W82982   9.223  22.168  11.103
18163W        W82983   8.840  24.529  12.480
18164W        W82984  16.477  13.684  10.665
18165W        W82985  34.660   4.735  12.109
18166W        W82986  42.230  33.491   3.778
18167W        W82987  32.354  29.927   2.269
18168W        W82988   0.478  25.172   4.430
18169W        W82989  28.851  20.226  11.609
18170W        W82990  26.683  34.820   2.878
18171W        W82991   3.505   8.812   3.686
18172W        W82992   1.322  43.877   2.597
18173W        W82993  13.027  27.820  11.943
18174W        W82994  39.162  28.160   1.500
18175W        W82995  30.183  40.599  12.537
18176W        W82996  37.403  37.147  10.514
18177W        W82997  29.386  21.530   0.423
18178W        W82998  26.953  11.620   1.212
18179W        W82999   7.315  28.932   0.741
18180W        W83000  19.528  36.959   0.074
18181W        W83001  17.484  18.278   4.657
18182W        W83002  32.220  38.915   4.576
18183W        W83003  42.154  18.632  14.216
18184W        W83004  44.493  43.313   2.397
18185W        W83005  41.279   5.426  12.905
18186W        W83006  21.772  34.395   4.101
18187W        W83007  20.819  12.122   3.585
18188W        W83008  35.079  30.099   0.461
18189W        W83009  31.997  10.580   2.943
18190W        W83010  41.904   5.394   1.089
18191W        W83011  37.050  15.765   5.114
18192W        W83012  33.747  25.557  14.499
18193W        W83013  40.829  10.796  13.290
18194W        W83014  27.093  12.646   0.059
18195W        W83015  24.244   1.867   0.533
18196W        W83016  40.038  17.848   4.833
18197W        W83017  14.228   1.782   3.056
18198W        W83018   2.655  40.502  13.550
18199W        W83019  14.903  42.380  12.389
18200W        W83020  27.675  24.763  14.709
18201W        W83021  19.267  10.676  12.814
18202W        W83022  41.183   4.584   3.044
18203W        W83023  11.564   1.785   4.902
18204W        W83024  25.115   9.292   3.317
18205W        W83025  17.179  21.749   1.821
18206W        W83026  25.703  41.276   0.258
18207W        W83027  12.274  31.674   2.187
18208W        W83028  34.380  29.526   1.776
18209W        W83029  19.633  14.844  14.981
18210W        W83030  17.793   5.727  13.903
18211W        W83031  30.868  10.000  13.838
18212W        W83032  29.899   1.435  12.096
18213W        W83033  12.715   2.659   2.445
18214W        W83034  13.950  11.218   4.129
18215W        W83035  12.444  40.996  10.947
18216W        W83036  34.483  19.138  12.094
18217W        W83037  30.217  35.993   3.522
18218W        W83038  14.198  14.545   2.391
18219W        W83039  27.836  24.774  11.673
18220W        W83040  18.717   1.081   0.326
18221W        W83041  37.659   3.843  14.306
18222W        W83042  24.617   3.002   2.259
18223W        W83043  15.651   4.619  10.522
18224W        W83044  30.094  15.952   2.451
18225W        W83045   2.915   0.284   2.374
18226W        W83046  38.277   0.245   0.355
18227W        W83047   3.637   4.253   3.767
18228W        W83048   7.303  30.713   4.115
18229W        W83049  14.345  22.982  14.869
18230W        W83050  17.294  12.426   4.350
18231W        W83051  26.087   4.710  12.335
18232W        W83052  25.831  36.869  14.622
18233W        W83053  13.319  32.433  11.953
18234W        W83054  11.008  40.083  12.990
18235W        W83055  30.895  42.472   4.586
18236W        W83056  36.463  36.319  11.599
18237W        W83057  34.979  29.757   1.436
18238W        W83058   0.194  20.648  14.854
18239W        W83059  25.949  33.474   4.702
18240W        W83060  36.293  30.151   4.507
18241W        W83061  10.563  29.961  10.012
18242W        W83062  37.469  41.071  13.926
18243W        W83063   9.025   2.890  13.953
18244W        W83064  17.881  41.474   1.803
18245W        W83065  27.881  44.193   3.716
18246W        W83066  13.738  17.288  12.718
18247W        W83067  43.829  24.095   3.751
18248W        W83068   5.964   0.020   0.169
18249W        W83069  40.788  16.657  13.004
18250W        W83070  20.860  15.800  14.296
18251W        W83071  29.530  19.999   3.776
18252W        W83072  32.727  13.558  13.426
18253W        W83073  31.450   8.287  10.658
18254W        W83074  15.843  44.419   4.120
18255W        W83075  12.694  38.518   3.940
18256W        W83076  43.493  16.584  13.476
18257W        W83077  29.824  10.528  12.107
18258W        W83078   5.544   1.843   3.668
18259W        W83079  26.335  18.605  12.543
18260W        W83080  12.773  32.434   5.189
18261W        W83081  29.208  10.936  14.190
18262W        W83082  43.378   1.196  14.372
18263W        W83083  12.144  39.590  13.509
18264W        W83084  30.113   9.778  10.797
18265W        W83085  20.728  34.299  10.345
18266W        W83086  31.535  35.478   2.318
18267W        W83087  12.656  34.854   2.845
18268W        W83088  19.972  11.311   2.583
18269W        W83089  31.945   4.729  10.710
18270W        W83090   2.511  24.547   5.607
18271W        W83091  12.560  13.662   2.290
18272W        W83092  40.393  19.105  13.610
18273W        W83093   5.622  23.691  11.190
18274W        W83094  19.613  24.588   4.418
18275W        W83095  27.463  42.935  14.474
18276W        W83096   4.892   3.270   1.007
18277W        W83097  17.822  17.205   0.929
18278W        W83098  21.652  24.062   1.053
18279W        W83099  33.124  40.998   0.903
18280W        W83100  11.105   5.731  11.709
18281W        W83101  19.392  11.417  11.879
18282W        W83102  19.689  41.735  11.509
18283W        W83103  43.860  17.582   2.442
18284W        W83104  16.263  41.978   3.695
18285W        W83105  17.086  38.561   0.528
18286W        W83106  19.474  13.568  10.921
18287W        W83107  42.351  35.478   1.448
18288W        W83108  34.510  13.840  10.951
18289W        W83109   5.448  26.370   0.066
18290W        W83110   6.713  21.699   0.477
18291W        W83111  28.493   0.782   2.155
18292W        W83112  36.759  34.664  11.995
18293W        W83113  38.470  17.873  13.802
18294W        W83114  39.811  19.252  14.715
18295W        W83115  41.153  15.669  14.382
18296W        W83116  22.497  31.010  13.790
18297W        W83117   8.643  29.414   0.406
18298W        W83118  10.805  15.628  14.942
18299W        W83119  42.013  30.382   2.775
18300W        W83120   5.718  23.148  12.911
18301W        W83121  36.888  15.327  14.230
18302W        W83122  28.536  30.622   0.008
18303W        W83123  15.557  30.998   1.276
18304W        W83124  34.916  34.818   3.634
18305W        W83125  25.746  19.662   2.360
18306W        W83126  36.032   5.000  10.616
18307W        W83127   4.514  14.236   4.602
18308W        W83128  28.856  38.546  13.462
18309W        W83129   9.652  13.640  11.386
18310W        W83130   9.030  14.621   3.173
18311W        W83131  19.574  24.914   4.891
18312W        W83132  19.064  16.558  14.735
18313W        W83133  37.070  31.399   3.694
18314W        W83134  30.908  39.193   1.901
18315W        W83135  44.993   3.251   3.221
18316W        W83136  42.434  37.119  13.746
18317W        W83137  11.609  43.790  12.400
18318W        W83138  32.474  12.831  13.885
18319W        W83139   0.740  17.999  13.499
18320W        W83140  11.428  13.064  11.491
18321W        W83141  29.446  23.532  11.607
18322W        W83142  35.956  23.568   4.998
18323W        W83143  14.741  21.613  10.624
18324W        W83144   1.221  28.332  10.824
18325W        W83145  29.166  44.700  12.341
18326W        W83146  13.818  10.343   3.722
18327W        W83147   4.369  14.743  11.437
18328W        W83148  26.057  10.097  11.967
18329W        W83149  40.069  24.752  11.176
18330W        W83150   3.924  26.671  13.572
18331W        W83151  15.914   6.816  13.028
18332W        W83152  10.230  13.168   4.861
18333W        W83153  34.595  43.023  13.318
18334W        W83154  17.715   1.634   3.804
18335W        W83155   8.734  10.159  13.184
18336W        W83156  15.266   7.827  10.690
18337W        W83157  25.147  41.651   4.074
18338W        W83158  38.575  21.062   1.827
18339W        W83159  31.224  29.060  12.939
18340W        W83160  32.519  37.284   1.882
18341W        W83161   1.164  28.911  14.199
18342W        W83162  21.645   3.334   0.832
18343W        W83163  33.114  33.517  14.784
18344W        W83164   7.445  42.513   3.783
18345W        W83165  30.651  12.585  13.037
18346W        W83166  33.646  11.357  11.952
18347W        W83167   2.432  24.421   4.547
18348W        W83168   4.939   5.963  11.496
18349W        W83169  19.297  39.904   5.036
18350W        W83170  34.555   5.390   0.792
18351W        W83171  24.488  21.418  13.049
18352W        W83172   6.248  21.962   0.666
18353W        W83173  27.574  35.357  14.669
18354W        W83174  23.546  32.605  10.843
18355W        W83175  20.216  11.233  13.382
18356W        W83176  20.426  20.652  14.873
18357W        W83177  30.980  32.167   5.423
18358W        W83178   7.965   5.011  12.042
18359W        W83179   1.792  41.918   3.578
18360W        W83180  25.244  20.517   2.114
18361W        W83181  19.212   2.690   1.870
18362W        W83182   8.381  27.043   2.638
18363W        W83183   3.767  22.967   2.774
18364W        W83184  42.471   7.614   0.840
18365W        W83185   5.684  22.032  10.461
18366W        W83186  43.562   6.250  11.956
18367W        W83187  10.648   3.490  10.715
18368W        W83188  21.300  31.374  14.325
18369W        W83189  28.432  26.328  12.670
18370W        W83190  44.408   2.462   0.215
18371W        W83191  21.947  21.742  14.720
18372W        W83192  30.663  19.232  12.442
18373W        W83193  33.109  37.860  13.891
18374W        W83194  33.690  14.257   0.305
18375W        W83195  30.413  25.526  13.484
18376W        W83196  12.199  30.366   2.609
18377W        W83197  26.697  10.394  11.621
18378W        W83198   9.062  34.936  13.409
18379W        W83199  33.173  25.009   0.465
18380W        W83200  36.590  36.625   1.757
18381W        W83201  42.286  42.199   3.289
18382W        W83202  25.661  29.549  12.008
18383W        W83203  19.313   8.666   3.032
18384W        W83204  29.030   3.737   3.598
18385W        W83205  12.805  37.065  14.923
18386W        W83206  23.014  11.886   2.716
18387W        W83207   1.270  15.535  11.977
18388W        W83208  17.203  21.396  11.663
18389W        W83209   9.124  36.297   0.028
18390W        W83210   0.669  38.287   0.446
18391W        W83211  17.215  14.884   3.304
18392W        W83212  36.225  13.369  11.004
18393W        W83213  38.403  10.890  10.692
18394W        W83214  25.414  17.899  11.938
18395W        W83215  44.739  40.540   2.817
18396W        W83216  19.369   7.883   2.715
18397W        W83217  27.690  43.987   4.844
18398W        W83218   4.370  34.365   3.183
18399W        W83219  26.679  27.428  12.929
18400W        W83220  34.466  36.498   0.974
18401W        W83221  36.452   1.759   1.942
18402W        W83222  21.447  43.409   0.683
18403W        W83223   3.348  11.425  13.687
18404W        W83224  24.148  44.225  12.460
18405W        W83225  41.763  23.016  12.504
18406W        W83226   7.482  24.094  13.447
18407W        W83227  36.812   3.310   4.133
18408W        W83228  32.605  33.381  14.815
18409W        W83229  28.314  37.885  14.186
18410W        W83230  13.682  38.881   0.979
18411W        W83231  31.617  36.213  13.463
18412W        W83232  33.122  36.644  11.073
18413W        W83233  33.546  27.647  10.934
18414W        W83234  13.330  32.597   4.761
18415W        W83235   1.433  32.150   4.569
18416W        W83236  29.183  23.484  14.813
18417W        W83237   8.688   1.030   4.307
18418W        W83238  22.093  31.463  11.811
18419W        W83239  20.059  33.006   1.470
18420W        W83240   5.246   7.772  11.592
18421W        W83241  24.573   9.408   0.826
18422W        W83242  44.982  40.951  14.531
18423W        W83243  17.674  22.476  10.807
18424W        W83244  37.981   8.056   4.349
18425W        W83245   2.225  23.221  10.658
18426W        W83246  30.953  18.522   4.094
18427W        W83247  19.112  36.839  13.571
18428W        W83248  38.480  23.485  11.894
18429W        W83249  22.595   0.221   3.266
18430W        W83250  12.184  29.985   0.309
18431W        W83251  19.895  32.537   4.933
18432W        W83252  28.874  16.718   2.232
18433W        W83253   7.836  27.495   1.832
18434W        W83254  36.794   1.448   4.615
18435W        W83255  43.078   7.924   5.072
18436W        W83256  40.827  30.702  13.841
18437W        W83257  37.603  42.262   0.947
18438W        W83258   9.587   6.871   4.114
18439W        W83259   4.739  27.533  14.886
18440W        W83260  37.256  16.909   4.918
18441W        W83261  16.111  26.446  14.003
18442W        W83262  13.177  34.301   2.336
18443W        W83263   4.414  19.772   4.333
18444W        W83264  36.215   1.117   5.068
18445W        W83265  40.343  30.866  10.473
18446W        W83266  18.767   9.563   0.571
18447W        W83267  22.908  32.901  12.528
18448W        W83268  24.989  17.700  14.471
18449W        W83269  37.332  29.112  12.968
18450W        W83270  43.306  44.013  11.559
18451W        W83271  28.235   3.409  13.020
18452W        W83272  21.361  29.503   5.062
18453W        W83273  17.607  15.522   3.306
18454W        W83274   4.087  16.780  14.603
18455W        W83275  39.072  36.550   4.058
18456W        W83276  12.415  10.714   4.392
18457W        W83277  23.284  11.359   2.418
18458W        W83278  39.103  36.515  12.378
18459W        W83279  31.534  11.818   1.341
18460W        W83280  12.994  35.992   4.050
18461W        W83281  36.633   9.686  11.936
18462W        W83282  42.924  22.093   0.908
18463W        W83283  32.284  14.160  12.441
18464W        W83284  32.326  18.715  13.024
18465W        W83285  22.545  28.460  14.928
18466W        W83286   1.611  20.529  12.220
18467W        W83287  33.259  22.727   0.497
18468W        W83288   5.637  40.425   2.657
18469W        W83289  37.759  13.283  11.308
18470W        W83290  44.668  11.578   3.826
18471W        W83291  18.099  36.306   0.761
18472W        W83292  31.136  31.137  10.841
18473W        W83293   7.136  20.221   0.837
18474W        W83294  27.040  34.984  14.815
18475W        W83295  37.541  25.912   4.267
18476W        W83296  10.081   4.944  11.983
18477W        W83297  29.152  32.618  12.695
18478W        W83298   9.668  36.117  12.450
18479W        W83299  27.287   3.640   0.784
18480W        W83300  21.902  30.969  12.960
18481W        W83301  17.449   7.025  12.482
18482W        W83302  10.751  33.524  10.978
18483W        W83303  16.389   6.214   2.016
18484W        W83304  14.549  15.658  12.478
18485W        W83305  27.922  18.074  11.155
18486W        W83306  28.439  24.640   3.712
18487W        W83307  44.746  30.704  11.448
18488W        W83308  38.196  29.939   3.284
18489W        W83309   0.277   7.670   0.289
18490W        W83310  18.310  43.438  14.373
18491W        W83311  34.370  31.411   1.689
18492W        W83312  11.884  31.423   3.205
18493W        W83313  43.827   1.960   2.818
18494W        W83314  42.284   7.822  13.279
18495W        W83315  30.367  29.903  11.045
18496W        W83316  34.228  29.990   2.953
18497W        W83317  32.485  26.159   3.834
18498W        W83318  28.956   3.682  13.443
18499W        W83319  36.647   6.312  13.118
18500W        W83320  27.756  37.829   4.545
18501W        W83321  42.902  21.908  11.093
18502W        W83322  41.811   0.759   4.631
18503W        W83323  42.804   4.787   2.587
18504W        W83324  41.836  30.452  12.370
18505W        W83325   4.241  35.689   0.302
18506W        W83326  42.388  36.595   4.331
18507W        W83327   3.424  26.290   2.184
18508W        W83328  40.926  28.484  14.195
18509W        W83329  14.793  43.883   3.182
18510W        W83330  32.816  11.827  11.188
18511W        W83331  36.889   3.447  11.977
18512W        W83332  32.151  22.627   5.407
18513W        W83333   6.296  18.286  12.027
18514W        W83334  30.510   6.693  12.340
18515W        W83335  39.934  44.245  12.060
18516W        W83336  41.893  31.400  10.657
18517W        W83337  22.628  42.737   0.202
18518W        W83338  34.083  38.898  11.785
18519W        W83339  42.385  20.679   1.613
18520W        W83340  41.339  15.343   2.282
18521W        W83341  32.954  39.412   0.393
18522W        W83342  11.493  21.733   1.790
18523W        W83343   0.327  21.518   1.675
18524W        W83344  14.328  30.909  13.823
18525W        W83345  41.795  14.088  14.847
18526W        W83346  43.514  34.036  10.896
18527W        W83347  23.587  21.927   0.793
18528W        W83348  14.653  42.310   1.275
18529W        W83349  41.553  15.316  11.581
18530W        W83350   1.336  21.842   2.630
18531W        W83351   3.160  42.526  12.452
18532W        W83352   3.398  24.608   3.149
18533W        W83353   0.215   9.435  14.934
18534W        W83354  34.029   9.792   2.255
18535W        W83355  43.794  37.578  12.984
18536W        W83356   7.186   6.247  10.493
18537W        W83357  29.351  44.459   4.061
18538W        W83358  38.401   1.464  14.081
18539W        W83359   4.757   5.244   3.232
18540W        W83360  35.811   0.556  11.894
18541W        W83361  27.943  19.908  13.592
18542W        W83362   6.829   4.745   0.257
18543W        W83363  16.315  14.436   0.725
18544W        W83364  14.312  23.666   1.278
18545W        W83365  32.206  35.128   1.794
18546W        W83366   8.146  41.201   3.281
18547W        W83367  23.705   4.475  11.745
18548W        W83368  22.136  40.307  12.013
18549W        W83369  41.374  20.051  11.878
18550W        W83370   9.877  20.144  14.435
18551W        W83371  17.701  35.078   3.446
18552W        W83372  31.146   2.040   2.641
18553W        W83373  40.968  33.510  12.607
18554W        W83374  44.607  37.979   1.735
18555W        W83375  18.090  22.813   2.006
18556W        W83376  30.403  22.289   0.950
18557W        W83377  14.163  22.553  10.383
18558W        W83378   2.732   7.234  11.215
18559W        W83379  24.033   6.477  13.847
18560W        W83380   8.424  15.523  10.188
18561W        W83381  25.537  24.275  11.436
18562W        W83382   9.514  40.615  13.922
18563W        W83383  11.280  38.999  11.627
18564W        W83384  37.921  34.937   1.624
18565W        W83385  23.368   1.075  14.464
18566W        W83386   2.368   3.863  12.609
18567W        W83387  10.728   2.450  11.549
18568W        W83388  16.749  44.941   1.682
18569W        W83389  15.797  30.618   2.360
18570W        W83390   0.774  16.071   3.704
18571W        W83391  32.227  29.490  11.971
18572W        W83392  29.698  23.074   3.177
18573W        W83393  38.604  18.770   1.239
18574W        W83394  12.765  38.460   5.031
18575W        W83395  36.988   7.835   9.941
18576W        W83396  25.539  29.992  12.218
18577W        W83397   5.214  32.300   4.286
18578W        W83398  33.959  15.112  14.261
18579W        W83399  43.381  29.368   1.169
18580W        W83400  44.533  28.542  10.613
18581W        W83401   6.703  29.981   2.219
18582W        W83402  21.329   1.275  12.086
18583W        W83403  23.039   8.399   2.092
18584W        W83404   3.889  22.757  10.309
18585W        W83405  18.995   9.379   3.486
18586W        W83406  40.541  39.485   0.783
18587W        W83407  20.244  21.520   0.908
18588W        W83408  22.996  20.241   0.489
18589W        W83409  12.864  25.407  12.060
18590W        W83410   7.942  29.672   1.800
18591W        W83411  43.831  21.098  10.740
18592W        W83412  43.456  25.022  14.852
18593W        W83413  41.522  26.123   3.653
18594W        W83414   2.698   4.421   0.373
18595W        W83415  40.921   8.379  12.103
18596W        W83416  23.940  24.732   1.316
18597W        W83417  15.642  42.421   2.689
18598W        W83418   5.885  19.435   5.008
18599W        W83419   9.759  39.867  10.628
18600W        W83420   6.629   2.721   2.372
18601W        W83421  10.861  10.447   2.707
18602W        W83422  20.320  43.994   4.673
18603W        W83423   6.422  19.220   1.816
18604W        W83424  11.450  34.127  12.443
18605W        W83425  27.508  16.252  10.328
18606W        W83426   1.541   3.794   4.048
18607W        W83427  24.469  43.405   1.794
18608W        W83428  15.676  18.056  13.839
18609W        W83429  19.472   5.810   3.799
18610W        W83430  28.914  25.858  11.669
18611W        W83431  24.108  22.089   4.292
18612W        W83432  40.674   5.108   2.368
18613W        W83433  23.788   6.705   3.708
18614W        W83434  13.150   7.731  11.506
18615W        W83435  42.322  16.383  11.135
18616W        W83436   0.551  27.063   4.506
18617W        W83437   4.823   2.240  14.389
18618W        W83438  10.615  18.519  14.376
18619W        W83439   5.188  25.683   1.695
18620W        W83440  25.564  37.900   1.880
18621W        W83441  31.433  16.063   0.169
18622W        W83442  37.406   7.242   4.651
18623W        W83443  28.560  30.961   2.246
18624W        W83444  22.348  16.300  12.814
18625W        W83445  39.585  24.969   4.495
18626W        W83446  30.627  13.587  10.771
18627W        W83447   4.943   8.901  11.167
18628W        W83448   8.864  15.108   4.195
18629W        W83449   8.337   8.210   1.223
18630W        W83450  33.435  30.978  13.973
18631W        W83451  43.307  44.271   0.988
18632W        W83452  24.965   4.738   2.601
18633W        W83453  15.875  27.122  14.388
18634W        W83454  42.356   0.412   0.978
18635W        W83455  22.588  36.585   1.651
18636W        W83456   4.748  19.563  12.082
18637W        W83457  20.042   5.800  11.991
18638W        W83458  12.283   1.209   1.751
18639W        W83459  25.256  42.492   3.456
18640W        W83460  12.806  25.005   0.733
18641W        W83461   4.432  28.935  11.493
18642W        W83462  16.256  21.236   1.724
18643W        W83463   4.174  19.481   4.681
18644W        W83464  39.847  32.085  12.938
18645W        W83465   9.567   4.322   2.211
18646W        W83466  16.597  13.617   1.862
18647W        W83467   0.539  15.525   4.587
18648W        W83468   5.642  36.681  11.947
18649W        W83469  39.467  25.430   1.185
18650W        W83470  28.750  22.127   4.780
18651W        W83471  24.059  17.264   4.151
18652W        W83472  32.018  12.942   4.559
18653W        W83473  10.384  29.373   3.217
18654W        W83474   3.869   0.334  11.610
18655W        W83475  24.951   3.282   2.668
18656W        W83476  20.504  44.771  13.044
18657W        W83477  40.964  30.102   4.299
18658W        W83478  28.383  35.458   2.290
18659W        W83479  33.151  33.678   0.672
18660W        W83480  40.386   7.355  10.601
18661W        W83481  24.247  31.550   4.029
18662W        W83482  36.030  18.107   3.269
18663W        W83483  36.913  33.608   3.714
18664W        W83484   5.699  25.112  13.983
18665W        W83485  43.064   1.448   0.365
18666W        W83486   4.978  41.429   0.345
18667W        W83487  44.546  17.116   0.632
18668W        W83488  19.280   3.425  10.740
18669W        W83489  30.481  35.006   2.216
18670W        W83490   0.091  15.258  14.559
18671W        W83491  33.883  36.996  11.750
18672W        W83492  15.863  31.561   0.059
18673W        W83493   9.377  43.793   2.729
18674W        W83494   9.918  31.792   9.753
18675W        W83495  44.244   2.478  10.363
18676W        W83496  40.096  36.929  11.093
18677W        W83497  33.709  14.301   4.242
18678W        W83498   5.460   9.794   3.223
18679W        W83499  21.131  18.447  11.489
18680W        W83500  37.561  24.147   3.554
18681W        W83501  26.494  35.663   1.378
18682W        W83502   6.926  29.098  10.704
18683W        W83503  23.022  29.222  10.480
18684W        W83504  14.189  43.943   3.649
18685W        W83505   0.710  32.758  13.619
18686W        W83506   0.783   3.866  13.327
18687W        W83507  39.776  17.725   0.747
18688W        W83508  13.855  25.447  11.139
18689W        W83509   0.201   0.857  13.420
18690W        W83510  35.587  17.347   0.915
18691W        W83511  30.610  41.738  11.896
18692W        W83512  30.569   4.261   2.686
18693W        W83513  38.470  12.352   4.916
18694W        W83514  15.792  17.907  10.069
18695W        W83515  44.107  13.175  14.375
18696W        W83516  35.978  29.803   2.764
18697W        W83517  12.390  13.405  12.637
18698W        W83518  20.076   1.453   0.400
18699W        W83519  23.540  14.317   4.462
18700W        W83520   7.955  16.631  10.610
18701W        W83521  10.421  28.077   2.664
18702W        W83522  38.290  10.636   0.672
18703W        W83523  33.515  22.747  11.506
18704W        W83524  14.090  37.764  12.455
18705W        W83525  10.284   2.279   1.937
18706W        W83526  21.311  43.036  14.290
18707W        W83527  17.675  13.459  13.932
18708W        W83528   0.960  29.028   4.840
18709W        W83529   4.213  13.129   3.357
18710W        W83530   1.035  20.310   4.353
18711W        W83531  22.183   2.648   4.681
18712W        W83532  14.615  41.189  14.754
18713W        W83533  27.419  12.825  14.004
18714W        W83534  39.723  44.935   4.647
18715W        W83535  27.929   1.378  12.508
18716W        W83536   5.285  32.826  14.802
18717W        W83537  30.367  19.267   4.456
18718W        W83538  36.215   3.148  13.718
18719W        W83539  17.628  15.731  13.446
18720W        W83540  27.127  29.112  13.801
18721W        W83541  33.015  11.183   0.926
18722W        W83542  13.644  33.115  12.956
18723W        W83543  31.660  35.927   4.665
18724W        W83544  39.661  40.484  10.694
18725W        W83545  39.561   3.172   0.742
18726W        W83546  15.252   7.410  14.082
18727W        W83547  30.805  43.321  14.808
18728W        W83548   5.690   6.926  11.579
18729W        W83549   5.717  26.047   0.868
18730W        W83550  18.199  27.771   1.335
18731W        W83551  36.388   2.404   0.934
18732W        W83552  33.371  31.679   0.575
18733W        W83553  38.164  24.546   1.685
18734W        W83554  21.829  28.098   1.970
18735W        W83555   1.180  23.116   2.164
18736W        W83556  10.240  27.173  13.863
18737W        W83557  17.670  26.003   1.259
18738W        W83558  24.050  42.483   1.102
18739W        W83559  21.023  26.541  10.710
18740W        W83560  26.739  31.037  14.224
18741W        W83561  27.595  23.505   0.032
18742W        W83562  44.250  31.738   4.143
18743W        W83563   2.714  21.183   0.370
18744W        W83564   9.197   0.004  14.826
18745W        W83565   5.281  16.686  13.464
18746W        W83566  11.568  37.073  14.489
18747W        W83567   6.470  23.520   2.390
18748W        W83568  16.890   2.202  12.433
18749W        W83569  40.542  33.554  13.805
18750W        W83570  30.209  38.155  14.455
18751W        W83571  31.909  22.046  13.057
18752W        W83572  29.902   3.443  12.260
18753W        W83573  44.702  37.040   4.616
18754W        W83574  29.928  36.832  12.859
18755W        W83575   4.411   7.771   2.816
18756W        W83576  35.127  36.332   1.630
18757W        W83577  22.259  34.176  12.415
18758W        W83578  17.638  43.750  12.534
18759W        W83579   3.270  12.397  14.038
18760W        W83580  41.983  15.277   1.275
18761W        W83581  26.752  40.992  12.051
18762W        W83582   2.307  19.066  13.253
18763W        W83583  42.440  36.975  12.243
18764W        W83584  25.493  13.567   3.694
18765W        W83585   8.182  33.591  13.171
18766W        W83586  33.546  10.356   1.696
18767W        W83587  31.581  28.443   4.215
18768W        W83588  12.276  22.153   0.306
18769W        W83589   6.137  21.787  12.073
18770W        W83590  33.882  11.389  11.492
18771W        W83591   8.745  21.631  12.850
18772W        W83592   8.250  29.754  10.785
18773W        W83593  25.815   7.342  12.817
18774W        W83594  40.915  31.664   3.156
18775W        W83595   7.437  34.632  11.990
18776W        W83596  23.506  31.035   1.914
18777W        W83597  43.030  30.312  10.688
18778W        W83598  35.720   3.497   2.858
18779W        W83599   8.511  30.969   2.007
18780W        W83600  29.032  19.759  14.942
18781W        W83601  25.493  24.717   0.661
18782W        W83602   2.368   4.920  12.394
18783W        W83603  40.085  35.584  11.545
18784W        W83604   1.479  10.612  12.145
18785W        W83605  32.585  34.443   4.133
18786W        W83606  11.923  21.121   4.513
18787W        W83607  38.790   2.412  11.205
18788W        W83608  42.811   9.615  11.582
18789W        W83609  29.771  27.725   3.266
18790W        W83610  43.787   2.527   2.789
18791W        W83611  18.115  26.718  11.462
18792W        W83612  44.725   9.348   4.541
18793W        W83613   2.015  42.034   3.115
18794W        W83614  18.479  12.274  11.612
18795W        W83615   9.254  14.463   2.094
18796W        W83616  28.308  42.810  11.578
18797W        W83617  30.430  18.825  11.567
18798W        W83618  13.371  16.264  14.367
18799W        W83619   7.766  26.086   2.953
18800W        W83620  17.770  33.366  12.821
18801W        W83621   7.243  34.935   0.311
18802W        W83622  35.271   5.952   0.220
18803W        W83623  12.920   1.464   4.871
18804W        W83624  44.193  31.642   3.238
18805W        W83625  39.079   6.759  14.349
18806W        W83626  34.858  16.332  14.341
18807W        W83627  21.785  15.131   4.877
18808W        W83628  29.002  30.264  12.033
18809W        W83629   2.557  21.969  11.041
18810W        W83630  23.710  32.705  13.554
18811W        W83631  31.657  36.987  11.069
18812W        W83632   9.313  24.135   4.443
18813W        W83633  29.621  36.994   2.834
18814W        W83634  18.647  33.618  10.599
18815W        W83635   6.752   8.110   3.177
18816W        W83636  21.498  14.294  12.962
18817W        W83637  39.086   1.840   2.671
18818W        W83638   2.503  26.125  12.974
18819W        W83639   8.864   0.545   4.280
18820W        W83640   9.189   1.625   4.227
18821W        W83641  14.686  18.115   4.120
18822W        W83642   3.873   4.704  11.158
18823W        W83643  29.447   6.403  14.070
18824W        W83644  34.788   1.489   0.887
18825W        W83645  20.798  35.484   0.875
18826W        W83646  43.879  22.177   2.410
18827W        W83647   9.680  37.940  13.591
18828W        W83648  15.587  20.185  11.212
18829W        W83649  34.349  15.885   2.659
18830W        W83650  21.689  44.930   4.181
18831W        W83651   7.308   1.542   2.720
18832W        W83652  16.399   8.082   1.868
18833W        W83653  32.484  25.556   2.601
18834W        W83654   1.078  34.449   2.164
18835W        W83655  22.809  26.033  14.253
18836W        W83656  15.603  10.452   4.634
18837W        W83657  38.743  22.164  11.267
18838W        W83658  13.097   5.353  12.153
18839W        W83659   8.581  25.533   9.986
18840W        W83660  13.049  23.594   1.883
18841W        W83661   4.179   1.737  10.826
18842W        W83662  32.867  23.930   3.554
18843W        W83663  22.101  44.881   1.891
18844W        W83664  33.216   3.371  14.331
18845W        W83665   0.763  17.281   3.966
18846W        W83666  10.234  41.381   1.905
18847W        W83667   0.078  43.993   1.310
18848W        W83668  24.052  33.467  10.606
18849W        W83669  13.893  31.027   4.542
18850W        W83670  14.835  11.931   2.356
18851W        W83671   2.210   5.617   1.709
18852W        W83672  41.268  28.134   1.464
18853W        W83673  10.328   3.176   2.747
18854W        W83674  24.513   0.110  13.067
18855W        W83675   5.661  16.165   1.095
18856W        W83676  40.026  36.911   0.878
18857W        W83677  23.314  28.932  14.038
18858W        W83678  33.876  43.612  10.796
18859W        W83679  32.196  41.932   2.321
18860W        W83680  32.524  23.507  13.231
18861W        W83681  16.769  20.506   0.823
18862W        W83682  27.852  34.596   2.154
18863W        W83683  33.389  31.557  11.405
18864W        W83684  38.810  18.621  13.539
18865W        W83685  24.861   5.629   3.533
18866W        W83686   6.833  15.912   0.163
18867W        W83687  19.146  34.742  12.987
18868W        W83688  10.232  34.379  12.954
18869W        W83689  26.445  13.774   0.765
18870W        W83690  15.230   2.927  10.938
18871W        W83691  40.911   2.304   4.232
18872W        W83692  21.777   3.334  13.855
18873W        W83693   3.990  11.434  11.689
18874W        W83694  25.113  18.654   3.541
18875W        W83695  30.587  16.248   4.167
18876W        W83696  43.862  41.467  14.182
18877W        W83697  33.096   8.310  13.011
18878W        W83698   3.737  30.138   3.302
18879W        W83699  19.098  27.260   1.286
18880W        W83700  34.144  30.953  13.927
18881W        W83701  23.919   4.789   1.775
18882W        W83702   0.960  26.999   0.337
18883W        W83703  40.758  29.997   4.760
18884W        W83704  35.882  41.040   4.151
18885W        W83705   2.372  20.071   2.319
18886W        W83706   5.383  15.658   1.257
18887W        W83707  31.379  39.473  12.559
18888W        W83708   2.467   6.738   4.343
18889W        W83709  26.977   2.803   3.524
18890W        W83710  40.441  22.035   4.177
18891W        W83711  21.330  25.125   3.647
18892W        W83712   5.437  44.021  14.584
18893W        W83713  40.033  11.826  11.396
18894W        W83714  22.501   0.490   2.332
18895W        W83715  41.801  33.927  12.536
18896W        W83716  28.814  10.096  13.949
18897W        W83717  29.506  10.791  12.482
18898W        W83718   8.734  34.065  13.690
18899W        W83719   4.648  21.608  11.096
18900W        W83720  11.621  43.789  11.418
18901W        W83721  41.901  23.949   4.546
18902W        W83722  26.617  38.821  10.542
18903W        W83723  32.937  32.050   2.332
18904W        W83724   3.846   8.168  13.991
18905W        W83725  18.289  19.746  10.693
18906W        W83726   1.059   4.986   4.471
18907W        W83727  30.724  37.599  12.457
18908W        W83728   1.840  22.209  14.494
18909W        W83729  40.518   1.307   0.617
18910W        W83730  33.577  20.728   3.550
18911W        W83731  13.030  32.989   3.582
18912W        W83732  28.178  42.943   3.428
18913W        W83733  43.848   8.303   1.180
18914W        W83734   2.099  24.022  11.304
18915W        W83735  30.994  25.294   4.401
18916W        W83736  27.055  28.459  11.593
18917W        W83737  28.078  41.721   1.741
18918W        W83738  33.462   5.463  10.962
18919W        W83739  38.814  42.321  11.152
18920W        W83740  25.273  29.497   2.211
18921W        W83741  29.344  40.964  13.713
18922W        W83742   4.497  26.473   3.071
18923W        W83743  16.430   6.432  14.356
18924W        W83744  39.092  16.027   4.304
18925W        W83745  14.974  43.511  14.326
18926W        W83746   1.393   5.763   0.328
18927W        W83747  12.642  33.524  12.545
18928W        W83748  31.726  28.990  13.034
18929W        W83749  41.487  16.475   0.934
18930W        W83750   9.624  34.180   2.301
18931W        W83751  21.504  29.235  14.737
18932W        W83752   5.703  37.060   2.343
18933W        W83753   9.476   2.914  13.730
18934W        W83754  21.053  14.888   2.145
18935W        W83755   5.768  17.720   2.573
18936W        W83756  10.806  14.946  12.504
18937W        W83757   1.883  40.075  12.660
18938W        W83758  15.252   4.518  11.616
18939W        W83759  18.001  10.291  13.536
18940W        W83760  11.788  42.436  10.566
18941W        W83761  34.377  16.017   1.276
18942W        W83762  27.570  21.617   1.954
18943W        W83763   9.754  16.380   3.091
18944W        W83764   5.395  25.217  13.578
18945W        W83765  32.786  20.088   5.534
18946W        W83766  27.550  14.129   1.861
18947W        W83767   7.225  28.363  13.580
18948W        W83768  35.960   0.375   0.249
18949W        W83769  37.871  14.874   0.234
18950W        W83770  28.946   7.786   4.575
18951W        W83771  39.512  12.743   2.127
18952W        W83772  10.100  15.690  14.350
18953W        W83773  42.028   4.420  13.319
18954W        W83774   1.708  34.068  13.033
18955W        W83775  41.940   7.704   0.837
18956W        W83776  14.491  14.683   0.751
18957W        W83777  36.113   1.024  14.277
18958W        W83778   2.527  22.512  14.553
18959W        W83779   8.717   1.717  11.498
18960W        W83780  19.865  16.224  14.894
18961W        W83781   6.166  11.622  10.756
18962W        W83782   5.367  11.562  14.927
18963W        W83783  13.816   0.277   1.770
18964W        W83784  22.825  27.733   1.874
18965W        W83785  14.111  28.571  11.498
18966W        W83786  44.734  28.084  14.443
18967W        W83787  24.890  35.013  13.157
18968W        W83788  22.357  29.754   2.658
18969W        W83789  13.885  21.215   3.648
18970W        W83790   8.878  41.296  14.244
18971W        W83791  21.266  43.888  14.466
18972W        W83792  30.668  29.775  12.712
18973W        W83793  12.197   9.738  11.887
18974W        W83794   3.799  18.295  12.915
18975W        W83795  23.025  29.270  13.771
18976W        W83796  32.617  15.857   2.565
18977W        W83797  21.431  42.170   2.686
18978W        W83798  32.607  27.745  12.451
18979W        W83799  20.981  29.606  11.765
18980W        W83800  35.553  42.899  10.249
18981W        W83801  21.575  34.987  14.312
18982W        W83802  43.924  20.642   0.458
18983W        W83803  13.427  28.478  11.086
18984W        W83804  16.363  43.811  12.691
18985W        W83805  17.053  29.720  14.385
18986W        W83806   4.383   3.534  11.491
18987W        W83807  23.619  39.463   3.080
18988W        W83808   3.479  25.118  14.812
18989W        W83809  31.963  19.811  11.991
18990W        W83810  36.542  40.651   1.079
18991W        W83811  44.698  14.030   4.990
18992W        W83812  29.654  11.091  14.359
18993W        W83813  12.856   3.819   3.772
18994W        W83814   7.812  15.687   3.703
18995W        W83815  21.441  19.011   2.390
18996W        W83816  15.848  17.724   2.405
18997W        W83817  29.633  13.639   2.244
18998W        W83818  42.471  44.753   0.393
18999W        W83819  28.968  30.177   3.631
19000W        W83820  13.917  44.915  11.466
19001W        W83821   1.684  43.534   4.223
19002W        W83822   5.486  32.228   2.840
19003W        W83823  27.144  34.100  11.960
19004W        W83824  12.426  20.545   3.895
19005W        W83825  34.937  25.870  11.568
19006W        W83826  10.904  28.643  14.600
19007W        W83827  34.575  14.270   5.100
19008W        W83828  41.051  35.159   0.834
19009W        W83829  40.269  13.602   1.063
19010W        W83830  19.842  29.371  14.437
19011W        W83831  14.238   9.368   0.465
19012W        W83832  42.995  44.383  10.684
19013W        W83833   7.181  37.952  13.838
19014W        W83834  12.137  17.346  14.346
19015W        W83835  35.548  13.568   1.288
19016W        W83836  11.186  44.040  12.596
19017W        W83837  29.103  16.759  12.914
19018W        W83838  13.676  30.807   0.356
19019W        W83839   4.207  24.097  12.077
19020W        W83840   5.139   1.157  12.988
19021W        W83841  35.465  38.862  11.662
19022W        W83842   7.124   2.139  12.090
19023W        W83843  20.383  32.238   0.989
19024W        W83844  34.687  16.251  14.999
19025W        W83845  23.679  41.914  13.558
19026W        W83846  30.022  27.087  12.118
19027W        W83847  28.293  28.532   3.179
19028W        W83848   6.464   5.910  10.448
19029W        W83849  44.796   2.452   2.309
19030W        W83850  32.481  23.002   5.495
19031W        W83851  21.103  11.926   2.267
19032W        W83852  28.983  25.374   0.945
19033W        W83853   5.991   4.717   2.210
19034W        W83854  31.568   9.156  10.908
19035W        W83855  37.148  30.737  12.620
19036W        W83856  23.659  35.077   0.078
19037W        W83857  36.859  21.532   4.827
19038W        W83858  44.123  31.670  14.334
19039W        W83859  27.925  29.871  11.191
19040W        W83860  22.951  17.721  10.245
19041W        W83861   2.496  39.834   1.793
19042W        W83862  34.955  15.333  13.756
19043W        W83863  39.806  42.796  14.361
19044W        W83864  30.495   4.253  13.944
19045W        W83865  14.981  30.005  14.895
19046W        W83866   1.959  19.707  10.734
19047W        W83867  25.183   2.941  11.464
19048W        W83868  14.273  36.553  10.628
19049W        W83869  35.278   3.465  12.510
19050W        W83870  28.181  36.996   4.679
19051W        W83871  11.560  22.523   2.190
19052W        W83872  25.962   5.108  12.003
19053W        W83873  44.229  10.603   4.573
19054W        W83874  43.400  14.820   4.907
19055W        W83875  29.949  24.131  10.521
19056W        W83876  13.108  31.445   4.152
19057W        W83877  20.645  12.494  13.277
19058W        W83878   3.414  10.675  12.709
19059W        W83879  40.828   6.622   3.648
19060W        W83880  30.016   7.800  10.639
19061W        W83881  37.684   8.626   5.494
19062W        W83882  12.226  12.317   2.841
19063W        W83883  13.534  33.560   4.294
19064W        W83884  24.601  36.630  11.392
19065W        W83885  33.118  24.763   4.908
19066W        W83886  17.137   3.875   0.306
19067W        W83887  27.626  18.537   0.768
19068W        W83888  25.462  38.845  13.308
19069W        W83889  39.099  38.408   2.857
19070W        W83890  20.447  17.122  12.011
19071W        W83891  15.250  37.931  14.278
19072W        W83892  40.778  31.818  11.099
19073W        W83893  25.068  44.524  13.415
19074W        W83894  40.297  27.513   3.567
19075W        W83895  10.244  16.731   2.242
19076W        W83896  44.909  32.673   1.404
19077W        W83897  19.087  22.039   0.866
19078W        W83898  23.036  21.678  13.303
19079W        W83899  36.603  36.043  14.442
19080W        W83900   8.208  30.427  11.549
19081W        W83901  31.466  39.971  12.480
19082W        W83902  41.452  15.538   3.390
19083W        W83903  12.101  15.136  11.615
19084W        W83904  42.635  17.753  14.389
19085W        W83905  25.412  12.107   2.666
19086W        W83906   6.990  33.080   1.471
19087W        W83907  39.017  10.286  11.882
19088W        W83908   2.190  35.038  12.459
19089W        W83909  44.986  36.143  11.179
19090W        W83910  17.995  11.637   2.419
19091W        W83911  29.485  18.520   2.344
19092W        W83912  31.921   1.220   4.485
19093W        W83913  37.892   1.315   3.213
19094W        W83914  41.909  28.581   3.169
19095W        W83915  34.977   1.496   3.415
19096W        W83916  41.624  20.834   5.167
19097W        W83917  22.131  39.411   4.509
19098W        W83918   0.524  11.872   1.307
19099W        W83919   7.263   1.826  12.563
19100W        W83920   7.881   8.875   0.127
19101W        W83921  32.476   5.941   4.563
19102W        W83922  17.290  10.520  11.879
19103W        W83923  33.381   3.213   4.160
19104W        W83924   9.814  14.039  12.688
19105W        W83925  43.603  29.866  12.399
19106W        W83926  16.479  34.915   4.646
19107W        W83927  32.099  37.999  12.952
19108W        W83928  29.069   9.255  14.469
19109W        W83929  40.877  18.675  14.279
19110W        W83930  21.689  28.619  12.964
19111W        W83931  28.093  43.989  13.100
19112W        W83932  32.811   0.557  13.061
19113W        W83933  17.202   5.846  14.058
19114W        W83934  27.464  33.538   0.715
19115W        W83935  13.115   9.700   1.550
19116W        W83936  40.131  10.304   1.333
19117W        W83937  31.418   4.979   3.150
19118W        W83938  33.907  19.456  12.595
19119W        W83939  40.311  19.209   1.944
19120W        W83940   6.910  13.554   3.833
19121W        W83941  10.250  13.645   1.616
19122W        W83942  34.814   3.327   1.332
19123W        W83943  33.427  24.165   2.670
19124W        W83944  28.989  14.534   4.107
19125W        W83945  20.630  24.608   3.371
19126W        W83946  38.437  12.201   0.929
19127W        W83947  20.093   0.193  10.259
19128W        W83948  10.805  16.188   0.704
19129W        W83949   7.883  36.758  12.126
19130W        W83950  44.654  26.477   0.417
19131W        W83951  16.680   0.135   3.781
19132W        W83952   9.387  27.064  11.365
19133W        W83953  30.072   7.207  12.130
19134W        W83954   6.781  37.256  13.432
19135W        W83955   4.372   6.192  14.942
19136W        W83956  23.229   1.722  11.540
19137W        W83957  16.249  17.375   2.339
19138W        W83958  16.807  12.530   4.205
19139W        W83959   6.684  38.641   2.828
19140W        W83960  29.647  23.150  12.609
19141W        W83961  19.439  38.737  10.788
19142W        W83962  16.789  35.172  13.001
19143W        W83963  25.688  23.859   1.018
19144W        W83964  21.869   8.719   2.783
19145W        W83965  18.967  33.046   3.146
19146W        W83966  31.667   5.670   1.735
19147W        W83967  23.251  10.590  14.862
19148W        W83968  12.575  14.428   2.922
19149W        W83969  28.712  25.409  14.684
19150W        W83970  35.395   7.448   1.775
19151W        W83971  28.797   2.057   1.882
19152W        W83972  16.126  15.385   2.433
19153W        W83973  41.927   8.773  14.486
19154W        W83974  24.788  40.136   2.381
19155W        W83975   0.222  33.451  10.729
19156W        W83976  44.484  24.774  13.671
19157W        W83977  15.676  12.260   3.340
19158W        W83978  14.402  12.231  12.134
19159W        W83979  22.979  41.203   1.779
19160W        W83980   6.454  22.581  13.786
19161W        W83981  42.913  28.944   2.651
19162W        W83982  35.008   5.922   4.659
19163W        W83983  34.427  27.450   2.282
19164W        W83984   2.433  28.871   3.690
19165W        W83985   1.355   3.920  13.049
19166W        W83986   8.252   6.255   4.445
19167W        W83987  23.425  29.646  11.218
19168W        W83988  30.150  43.453   0.498
19169W        W83989  17.930   0.919  13.968
19170W        W83990   3.098  25.059   5.102
19171W        W83991   2.667   1.097   4.154
19172W        W83992   4.116  22.671  12.327
19173W        W83993  30.031  21.819   0.257
19174W        W83994  37.910  13.683   1.948
19175W        W83995  43.882  14.111  11.142
19176W        W83996  43.274  20.972  14.535
19177W        W83997  38.488  27.999   0.417
19178W        W83998  17.682  27.278  14.711
19179W        W83999  34.441  31.425   3.060
19180W        W84000   5.958  18.503   3.136
19181W        W84001  28.605   5.225   4.017
19182W        W84002  29.082  21.185  13.046
19183W        W84003   2.639  23.762   0.888
19184W        W84004  20.771  14.828  12.428
19185W        W84005  24.579  10.644   4.054
19186W        W84006   9.573  29.590   2.760
19187W        W84007  28.092  41.751  12.855
19188W        W84008  23.557  30.080   1.896
19189W        W84009  19.107  22.670  14.017
19190W        W84010  37.293  29.060   3.755
19191W        W84011   4.983  19.694  11.625
19192W        W84012  33.058  25.652   1.800
19193W        W84013  20.819   6.723  11.640
19194W        W84014  40.921  30.155  12.614
19195W        W84015  13.374  14.102   4.297
19196W        W84016  32.492  35.745   1.999
19197W        W84017  15.051  43.565  11.193
19198W        W84018   2.345   8.312   4.028
19199W        W84019  34.038  43.909   4.529
19200W        W84020  22.277  38.339   1.489
19201W        W84021   3.267  40.061   3.262
19202W        W84022  24.095  35.710   5.412
19203W        W84023  40.045  23.485   4.034
19204W        W84024   6.882   2.204  14.779
19205W        W84025  39.349   9.406   0.798
19206W        W84026  44.396  32.431   1.335
19207W        W84027  28.366  32.472  12.404
19208W        W84028  36.098  25.077  10.953
19209W        W84029  29.640  37.130  11.955
19210W        W84030  23.060  37.009   1.291
19211W        W84031   5.946  16.289  13.051
19212W        W84032   9.839   6.714   0.706
19213W        W84033  21.500  13.098   0.050
19214W        W84034  17.662   7.859   4.112
19215W        W84035  35.059  11.560  14.772
19216W        W84036   0.949  12.142   4.541
19217W        W84037  35.075  17.078  11.637
19218W        W84038   2.929   2.286   3.105
19219W        W84039  18.305   4.331   2.740
19220W        W84040  13.008  44.340  13.735
19221W        W84041  17.149  40.449  13.384
19222W        W84042  15.051  35.023   2.968
19223W        W84043  10.226  39.140  12.169
19224W        W84044  25.017  13.796  14.883
19225W        W84045  11.823   4.210   0.265
19226W        W84046   5.816  34.831  13.012
19227W        W84047  36.846  20.441   4.082
19228W        W84048  44.161  26.603   0.491
19229W        W84049  19.290  12.786   0.163
19230W        W84050   3.354   3.271   3.602
19231W        W84051  39.324   8.612   3.292
19232W        W84052  19.565  35.300  13.586
19233W        W84053   3.426  16.134  11.280
19234W        W84054  29.636  21.205  14.308
19235W        W84055  17.584  28.998   3.209
19236W        W84056  33.570  27.010  14.774
19237W        W84057  11.123   5.986   4.203
19238W        W84058  44.376  12.852  11.009
19239W        W84059  13.512  44.299   0.472
19240W        W84060  31.256  40.116  11.550
19241W        W84061  30.124  26.980   2.793
19242W        W84062  16.294  44.867   2.633
19243W        W84063  30.429  20.266   4.670
19244W        W84064  32.008  18.563  12.426
19245W        W84065   0.249   6.622  13.901
19246W        W84066  41.832  29.033  12.894
19247W        W84067  30.777  29.231  14.954
19248W        W84068  13.621  42.888   3.317
19249W        W84069   2.200   6.779  13.492
19250W        W84070  34.188  40.893   2.171
19251W        W84071  16.049  22.074   1.257
19252W        W84072   1.293  32.103   4.069
19253W        W84073  13.872  40.286  12.236
19254W        W84074   1.679  33.498  10.470
19255W        W84075  23.213  36.876  10.992
19256W        W84076  39.091  31.959  14.125
19257W        W84077  34.706  28.707  12.049
19258W        W84078  37.337  23.211   2.685
19259W        W84079  35.922  35.192   3.635
19260W        W84080   3.932  26.052  10.221
19261W        W84081  23.685  21.617  14.375
19262W        W84082  30.620  37.147  12.191
19263W        W84083  43.859   7.693   0.819
19264W        W84084  18.271  25.962   0.792
19265W        W84085  19.293  20.248   1.374
19266W        W84086  39.040  26.883   3.307
19267W        W84087   3.325  10.297  11.927
19268W        W84088  31.132   3.229  11.577
19269W        W84089   2.572  25.675   4.100
19270W        W84090  17.607  36.357   4.458
19271W        W84091  24.697  21.149  13.894
19272W        W84092   8.586  23.516   4.721
19273W        W84093  36.032   9.243   1.253
19274W        W84094  26.993  26.287   3.193
19275W        W84095  17.829  39.562   1.720
19276W        W84096   1.615  34.072   4.542
19277W        W84097  19.738  10.306   0.850
19278W        W84098  42.856  29.682   3.633
19279W        W84099  11.111  31.262  11.233
19280W        W84100  20.504  16.615   0.493
19281W        W84101  33.984   8.215  14.904
19282W        W84102  22.618   1.024  11.644
19283W        W84103  17.050  26.481   2.818
19284W        W84104  32.376  38.061   2.606
19285W        W84105  27.654  24.529   1.696
19286W        W84106  11.846  21.155   3.627
19287W        W84107  41.348  33.102   1.872
19288W        W84108  18.218   3.341   0.024
19289W        W84109  39.534   6.182  11.889
19290W        W84110  37.024  13.302   0.293
19291W        W84111  29.746  34.924  10.672
19292W        W84112   9.028  15.695   5.048
19293W        W84113   7.453   1.349   0.035
19294W        W84114   3.288  16.861   4.066
19295W        W84115  14.215  36.967  14.246
19296W        W84116  14.188  13.120  13.449
19297W        W84117  15.382  21.285   1.757
19298W        W84118  31.998  42.029  13.283
19299W        W84119  11.565  20.614   2.159
19300W        W84120  23.528   5.317  12.999
19301W        W84121  21.653  28.929   2.716
19302W        W84122  24.045  14.261   4.395
19303W        W84123  20.062  39.928  12.047
19304W        W84124  21.591   3.660   3.579
19305W        W84125  34.844  41.404   3.844
19306W        W84126  42.399   6.355  10.682
19307W        W84127  26.928  11.334  13.857
19308W        W84128  29.597  10.644  11.662
19309W        W84129  34.608  15.188   0.318
19310W        W84130  37.200  24.036  14.746
19311W        W84131  18.111  13.568   4.411
19312W        W84132  17.075  44.460  12.475
19313W        W84133  32.679  10.666   3.686
19314W        W84134  37.444  38.219  13.116
19315W        W84135   0.925   6.870   4.663
19316W        W84136  44.010  32.264  13.623
19317W        W84137   2.032   5.565   3.708
19318W        W84138  24.968  40.421  14.435
19319W        W84139   9.779  24.517  13.878
19320W        W84140  24.537  24.072   1.817
19321W        W84141  12.462  43.428   2.465
19322W        W84142   6.826  40.044  14.002
19323W        W84143  36.867  12.632  14.047
19324W        W84144  25.600  27.452  14.956
19325W        W84145  20.638   5.058   0.781
19326W        W84146  44.372  11.454  10.568
19327W        W84147   6.487  20.259  11.103
19328W        W84148  25.148  16.233   2.736
19329W        W84149  29.494  35.464   0.041
19330W        W84150  14.181  14.375  13.541
19331W        W84151  27.403  35.733   0.406
19332W        W84152  39.057  30.974   4.498
19333W        W84153  32.636  10.669   0.270
19334W        W84154  10.642  39.877   0.378
19335W        W84155  41.777  19.713  10.290
19336W        W84156  23.910  35.783   0.659
19337W        W84157  29.679   9.098  12.817
19338W        W84158  24.208   1.201   4.689
19339W        W84159  43.841  36.150  13.067
19340W        W84160  20.597   8.925   1.710
19341W        W84161  12.597   4.361  10.595
19342W        W84162  30.439   3.394  14.388
19343W        W84163  37.128  14.193   1.812
19344W        W84164   4.855   4.743   2.308
19345W        W84165  13.222  36.837  13.197
19346W        W84166  11.723  33.865   1.039
19347W        W84167  29.942  42.304   1.226
19348W        W84168  15.013  40.336   4.183
19349W        W84169  19.550  15.253   3.238
19350W        W84170  18.539   4.377  11.466
19351W        W84171  12.252  44.445  14.521
19352W        W84172  30.409   3.563   2.315
19353W        W84173  42.608  21.980  12.481
19354W        W84174  38.995  26.205   1.401
19355W        W84175   5.876  42.043   0.888
19356W        W84176  17.437  22.722  11.214
19357W        W84177  22.726  19.331   5.491
19358W        W84178  28.634  23.717  12.011
19359W        W84179  32.206  28.146   0.286
19360W        W84180  44.437  42.345  10.242
19361W        W84181   7.649   5.350   0.990
19362W        W84182  15.705  10.525  12.431
19363W        W84183  27.920  43.642   2.239
19364W        W84184  35.558   1.875   0.857
19365W        W84185  14.641   1.710   0.886
19366W        W84186  29.580   6.798  13.275
19367W        W84187  34.551  28.108  14.878
19368W        W84188   3.212  18.700   4.687
19369W        W84189  38.804  13.240   4.994
19370W        W84190  38.426  43.281   2.086
19371W        W84191  12.800   6.801  12.133
19372W        W84192  14.831   5.713  13.694
19373W        W84193   0.923  23.869   1.647
19374W        W84194  32.663  20.759  11.516
19375W        W84195  18.769  11.578  12.220
19376W        W84196   8.397  16.543  10.358
19377W        W84197   6.744  23.736   1.326
19378W        W84198  10.412  41.630   9.975
19379W        W84199  35.654  22.104   1.650
19380W        W84200  38.293  27.379  11.181
19381W        W84201  30.961  23.022   2.136
19382W        W84202  30.584   6.154   4.599
19383W        W84203  35.843  34.698   2.590
19384W        W84204  29.942   3.741   3.132
19385W        W84205  29.110  42.418   3.610
19386W        W84206  17.145  37.381  14.971
19387W        W84207  13.825  18.202   9.858
19388W        W84208  32.818  28.101  11.465
19389W        W84209  41.296  16.857  12.847
19390W        W84210  28.555   6.305  13.279
19391W        W84211  32.392  17.542  13.362
19392W        W84212   4.714  28.917  14.365
19393W        W84213   8.933  36.563  10.608
19394W        W84214   1.187   4.687   1.943
19395W        W84215  36.579   9.931   1.319
19396W        W84216  37.752  38.931  11.445
19397W        W84217  30.033  38.454  10.229
19398W        W84218  27.667  29.108   2.127
19399W        W84219  10.099  24.639   2.340
19400W        W84220   9.178  38.359   1.777
19401W        W84221   3.501  30.624   3.650
19402W        W84222  43.190  42.921   0.885
19403W        W84223   3.819  39.918   3.365
19404W        W84224  25.910  20.670   2.684
19405W        W84225  35.636   2.369  11.147
19406W        W84226  31.111  26.094  13.361
19407W        W84227  18.606  25.637   1.158
19408W        W84228  32.711   0.574   0.905
19409W        W84229  27.037   2.611  12.221
19410W        W84230  27.207   6.348   4.217
19411W        W84231  21.927  26.515  13.036
19412W        W84232  11.001  18.358  10.717
19413W        W84233  34.466  44.882  12.983
19414W        W84234  23.793  39.871   2.334
19415W        W84235  22.109  14.829  13.318
19416W        W84236  38.943  24.034   1.647
19417W        W84237  15.266   2.225  14.411
19418W        W84238  26.610  41.491   0.715
19419W        W84239   3.994  38.071   1.427
19420W        W84240  23.418  22.108   0.352
19421W        W84241  17.152  28.027  13.763
19422W        W84242  29.928  34.824   1.617
19423W        W84243  41.720  27.310  11.585
19424W        W84244  25.744  33.535  12.474
19425W        W84245  41.918  41.030  10.555
19426W        W84246   7.805  35.343   4.311
19427W        W84247   3.191  11.309   2.350
19428W        W84248   4.435  17.786   1.062
19429W        W84249  14.362  19.775   0.946
19430W        W84250  40.915  11.329   3.616
19431W        W84251  26.597  42.634  13.530
19432W        W84252  40.980   9.525  11.218
19433W        W84253  23.511   0.415  14.614
19434W        W84254  39.712   2.185   0.844
19435W        W84255  13.371  23.199   4.742
19436W        W84256   7.367  36.088   3.244
19437W        W84257  42.774  36.351  12.208
19438W        W84258  37.255  11.363   3.516
19439W        W84259  24.044  34.857  11.469
19440W        W84260   6.579  36.380  12.105
19441W        W84261   9.972  34.785   4.127
19442W        W84262  29.395  19.051  11.866
19443W        W84263   4.390  34.639  11.171
19444W        W84264  24.286   8.789   4.804
19445W        W84265   8.381  35.057   1.822
19446W        W84266   4.661  17.041   1.738
19447W        W84267  32.916  26.657  11.972
19448W        W84268  12.249  38.647   4.697
19449W        W84269  26.539  28.514   0.516
19450W        W84270  22.759  42.507  10.440
19451W        W84271  26.627  23.745   0.084
19452W        W84272   0.286  33.387   0.774
19453W        W84273  13.446  21.220  14.267
19454W        W84274  32.557   8.007  11.066
19455W        W84275  27.001   2.415  14.671
19456W        W84276  31.862  39.180  11.091
19457W        W84277  19.577   2.664  14.819
19458W        W84278  42.905   5.047   4.623
19459W        W84279  24.923  19.196   2.228
19460W        W84280  25.672  33.106  10.928
19461W        W84281  32.635  27.538  10.977
19462W        W84282  39.072  19.141  12.474
19463W        W84283  36.323  42.887  11.737
19464W        W84284  18.585   2.365  10.789
19465W        W84285  27.958  39.419  10.564
19466W        W84286  31.556  19.164  10.718
19467W        W84287  13.246  26.984   4.223
19468W        W84288  21.776  24.382  10.928
19469W        W84289  28.433  41.291   3.624
19470W        W84290  10.172  38.275   1.193
19471W        W84291  38.578  20.572  13.396
19472W        W84292   0.295  35.398   4.638
19473W        W84293  44.931   1.322  11.654
19474W        W84294  11.379  15.525   1.672
19475W        W84295   6.711  42.384  13.384
19476W        W84296  14.529  19.341   2.463
19477W        W84297  20.281  27.599   1.551
19478W        W84298  11.198   8.493   2.398
19479W        W84299   7.131  20.206  14.518
19480W        W84300  22.062   9.086   0.824
19481W        W84301  25.493  41.311  14.420
19482W        W84302   1.746  33.844   0.925
19483W        W84303  38.861   4.380   3.767
19484W        W84304  25.545   6.199  11.491
19485W        W84305  27.931  34.294   0.634
19486W        W84306  17.182  39.705  10.355
19487W        W84307  38.065  14.740  12.874
19488W        W84308  24.143  24.961   0.191
19489W        W84309  26.994  29.984  11.670
19490W        W84310   6.186  16.778  11.959
19491W        W84311   6.798  18.094  12.182
19492W        W84312  39.742  20.563   2.689
19493W        W84313  29.466  31.501  13.688
19494W        W84314  44.404  22.548   0.817
19495W        W84315  33.349  30.875   2.120
19496W        W84316   9.004  15.535   0.796
19497W        W84317  17.545  44.121   1.367
19498W        W84318  30.027  23.180   3.586
19499W        W84319   9.706   0.719   1.240
19500W        W84320  32.014  38.319  13.403
19501W        W84321  40.272   5.098  12.044
19502W        W84322  25.587  33.639  11.979
19503W        W84323  30.107  28.394   4.556
19504W        W84324  14.521  41.826   3.361
19505W        W84325   7.775   9.520   2.782
19506W        W84326  24.248  10.227   3.611
19507W        W84327  34.476  19.562   4.603
19508W        W84328  44.589  25.524  14.527
19509W        W84329  32.799  28.142   2.410
19510W        W84330   4.345   4.159   4.127
19511W        W84331  16.253  28.968  11.038
19512W        W84332  15.120  18.012   3.862
19513W        W84333   5.823  12.406  10.846
19514W        W84334  14.037  13.458  13.106
19515W        W84335  24.079  25.088   4.278
19516W        W84336   2.193   1.416  14.935
19517W        W84337  33.482  19.814   1.374
19518W        W84338   8.510  29.372  10.094
19519W        W84339  10.378  37.874  14.063
19520W        W84340   0.916   9.651   3.094
19521W        W84341  32.989  22.480  11.635
19522W        W84342   5.258  16.174  13.462
19523W        W84343  31.314  25.713  13.098
19524W        W84344   4.675   3.134   1.526
19525W        W84345  32.925   9.290   3.666
19526W        W84346  16.830  38.517  13.735
19527W        W84347  38.698  22.540  13.955
19528W        W84348  16.709  42.857   1.852
19529W        W84349  30.496  21.172  10.302
19530W        W84350  11.300  40.062   4.728
19531W        W84351  29.087  20.259  14.896
19532W        W84352   8.896  29.976   2.817
19533W        W84353  12.504  40.865  10.457
19534W        W84354   2.317  15.272   4.363
19535W        W84355  13.025  29.515  14.514
19536W        W84356  35.531   6.821  14.694
19537W        W84357   7.206  37.886   2.161
19538W        W84358  27.121  30.525  14.875
19539W        W84359   8.407  18.587   0.927
19540W        W84360  30.755  12.953  12.659
19541W        W84361  40.003  25.755  13.982
19542W        W84362  40.288  25.147  12.825
19543W        W84363  38.012  30.924  12.931
19544W        W84364  13.242  38.576   3.758
19545W        W84365   5.013   7.273   0.987
19546W        W84366   6.295  20.548   4.611
19547W        W84367  42.798   0.494   1.679
19548W        W84368   9.944  25.028   4.762
19549W        W84369  40.482  10.292   3.116
19550W        W84370  43.047  34.980  14.533
19551W        W84371  40.928  41.563   2.513
19552W        W84372  24.050  34.446  11.787
19553W        W84373  28.956   8.890   0.476
19554W        W84374  26.975   8.624  14.425
19555W        W84375  27.261  37.161  10.741
19556W        W84376  13.923  44.357  13.551
19557W        W84377  12.053  34.699   1.736
19558W        W84378   1.826  33.565  13.071
19559W        W84379   2.922  42.753  10.499
19560W        W84380   3.844  15.151   2.514
19561W        W84381  11.683  13.848  14.777
19562W        W84382  23.295  34.505  13.776
19563W        W84383  28.586  41.972   4.924
19564W        W84384  31.707  38.857  14.375
19565W        W84385  43.930  26.541  14.298
19566W        W84386  13.179  25.050  14.922
19567W        W84387  10.331  12.824   0.758
19568W        W84388   6.655  35.788   2.208
19569W        W84389  23.492  11.150   3.253
19570W        W84390  29.005  39.440   1.233
19571W        W84391  20.128  34.059   1.862
19572W        W84392  13.839  31.576   5.521
19573W        W84393  26.123  11.719  14.917
19574W        W84394   2.696  38.870   3.124
19575W        W84395  41.998   1.462   3.730
19576W        W84396  39.135  21.202  12.131
19577W        W84397  36.840  33.981   0.456
19578W        W84398  26.127  24.522  10.334
19579W        W84399  39.913  16.232  10.679
19580W        W84400  40.331  43.538  11.662
19581W        W84401  40.001   7.925  11.216
19582W        W84402  36.556  21.801  10.939
19583W        W84403   9.194  25.971   1.319
19584W        W84404  28.116  29.385  14.478
19585W        W84405  24.573  38.891  11.840
19586W        W84406  16.038   5.545   1.329
19587W        W84407   1.925  38.606   3.658
19588W        W84408  34.116  17.909  13.975
19589W        W84409  33.108  38.835  11.103
19590W        W84410  26.594  40.950  13.781
19591W        W84411  32.463  33.246   0.490
19592W        W84412  20.061  32.845  12.432
19593W        W84413  43.702  19.464  12.875
19594W        W84414   6.307  13.804   3.259
19595W        W84415  28.220   0.952   1.712
19596W        W84416  37.710  40.658   3.773
19597W        W84417   1.806  24.719  14.383
19598W        W84418  27.617  21.519   3.859
19599W        W84419  43.954  22.254   0.790
19600W        W84420  42.172   4.359   3.797
19601W        W84421  31.381  30.670  14.925
19602W        W84422   5.401  33.730   2.735
19603W        W84423   0.749   8.188   1.352
19604W        W84424   3.584  42.600  12.114
19605W        W84425  32.036  24.254   1.665
19606W        W84426  30.031  35.826  12.996
19607W        W84427   5.683  36.461   4.485
19608W        W84428  11.980  32.654  11.057
19609W        W84429  26.653  36.939   4.743
19610W        W84430   7.522  42.298  12.929
19611W        W84431   0.855   6.027   4.671
19612W        W84432  16.129  14.598  12.730
19613W        W84433  30.751  29.002   2.240
19614W        W84434  13.340  42.440   2.764
19615W        W84435  29.084  24.584   4.372
19616W        W84436  34.875  16.856  14.365
19617W        W84437  40.473  35.650  11.200
19618W        W84438   6.338  20.085   2.801
19619W        W84439   0.286  30.874   1.372
19620W        W84440  40.885   0.313  10.682
19621W        W84441   4.443  30.127   0.934
19622W        W84442  38.365  21.106  11.582
19623W        W84443   0.845  35.341   2.368
19624W        W84444   1.371   3.458   0.296
19625W        W84445  20.227  37.921  10.647
19626W        W84446   1.458   2.494  14.296
19627W        W84447  30.261  23.483   0.964
19628W        W84448  39.757  37.094  11.454
19629W        W84449  30.622  43.504   1.469
19630W        W84450  24.595  15.476  11.977
19631W        W84451   2.462  12.454  14.490
19632W        W84452  17.273   0.948  10.619
19633W        W84453  37.101   3.885  14.390
19634W        W84454   6.862  11.565  11.026
19635W        W84455  35.950  27.854  11.909
19636W        W84456  35.479  35.660  12.446
19637W        W84457  43.399  32.422   2.810
19638W        W84458  12.207  12.379   1.837
19639W        W84459  22.654  35.043   3.616
19640W        W84460  40.320  40.868  11.237
19641W        W84461  25.166  18.566  11.605
19642W        W84462  14.714  11.875   3.280
19643W        W84463  43.211  10.151  14.715
19644W        W84464  25.197  21.294   0.322
19645W        W84465  11.878  43.939   0.351
19646W        W84466   5.475  28.898   1.237
19647W        W84467  44.233   9.143  11.430
19648W        W84468   7.966  21.226   3.564
19649W        W84469   1.230  25.711  13.620
19650W        W84470  20.160  23.999  12.690
19651W        W84471  40.745  12.378  11.053
19652W        W84472  12.643  15.480  11.933
19653W        W84473   1.265  11.124   1.293
19654W        W84474  19.041  32.738   3.556
19655W        W84475  28.751  21.453  12.371
19656W        W84476  21.274  27.682  13.940
19657W        W84477   6.673  10.233  13.656
19658W        W84478  23.537  19.458  12.105
19659W        W84479  23.122   6.573   3.549
19660W        W84480   8.648  18.994   4.609
19661W        W84481   0.714  23.458  11.117
19662W        W84482  19.997   9.772   1.758
19663W        W84483   0.547   9.142  11.251
19664W        W84484  11.734  10.403   3.586
19665W        W84485  18.520  36.093  12.543
19666W        W84486  37.060  30.089  10.753
19667W        W84487  19.747  29.983  10.940
19668W        W84488  20.223  39.362   1.757
19669W        W84489  11.233  11.527   4.131
19670W        W84490  15.104  19.701  12.023
19671W        W84491   4.856  40.864  12.060
19672W        W84492   2.478  31.945   2.700
19673W        W84493   0.932  17.079   0.516
19674W        W84494  39.988   7.019  10.822
19675W        W84495  11.345  10.109  11.986
19676W        W84496   6.185  18.723   2.700
19677W        W84497   2.528  28.129   3.224
19678W        W84498   9.152  20.002  10.406
19679W        W84499   9.748  18.294  12.425
19680W        W84500  18.714  36.911  12.989
19681W        W84501  17.866  15.805   3.686
19682W        W84502  38.090   0.526  12.063
19683W        W84503  26.273  33.877  14.038
19684W        W84504  42.860  21.253  14.380
19685W        W84505  21.010   9.065   0.978
19686W        W84506  14.281  35.657  10.455
19687W        W84507   5.400  21.253  11.999
19688W        W84508  21.140  28.224   2.740
19689W        W84509   0.894  21.272  14.507
19690W        W84510  37.687  32.551  12.395
19691W        W84511  15.659  44.915   1.796
19692W        W84512  14.062  40.083   4.285
19693W        W84513  26.417  16.030   0.496
19694W        W84514   3.194  24.665  14.507
19695W        W84515  28.339  30.462   5.018
19696W        W84516  17.612  19.518   1.882
19697W        W84517  34.116  39.504   0.988
19698W        W84518   1.804  42.772   1.257
19699W        W84519   9.246  43.476   0.196
19700W        W84520  26.669  28.936   2.329
19701W        W84521   2.252  10.203  12.988
19702W        W84522  35.576   6.204  11.221
19703W        W84523  13.679  23.980   3.168
19704W        W84524  19.594  23.298  11.498
19705W        W84525  31.218  26.630  14.566
19706W        W84526  32.938   1.933  10.827
19707W        W84527  22.016  31.620   4.567
19708W        W84528  16.974  26.471  14.039
19709W        W84529  30.040  39.412   1.702
19710W        W84530  10.062  37.983   3.767
19711W        W84531  16.616   7.700  11.052
19712W        W84532   9.429  33.470   1.852
19713W        W84533  42.970  27.961   2.856
19714W        W84534  41.975   0.594   3.760
19715W        W84535  11.825  35.329  10.793
19716W        W84536  37.495  21.667  12.452
19717W        W84537  39.368  39.879   2.363
19718W        W84538  27.659  19.464  13.702
19719W        W84539  21.254  34.723   2.792
19720W        W84540   7.811  40.036   3.330
19721W        W84541  26.238  41.561  14.866
19722W        W84542  41.721   1.875   3.592
19723W        W84543  17.597  16.660  12.884
19724W        W84544  27.008  25.073  12.109
19725W        W84545  24.974  30.533  13.915
19726W        W84546  44.604  21.677   2.398
19727W        W84547   5.476  20.343  11.109
19728W        W84548  43.725  10.821   0.416
19729W        W84549  16.801  33.158   4.007
19730W        W84550  37.051  26.472  10.515
19731W        W84551   5.492   0.269  13.055
19732W        W84552  14.853  18.960  13.567
19733W        W84553  33.420  30.464   0.792
19734W        W84554  44.816  31.455  13.199
19735W        W84555  10.110  39.038   2.319
19736W        W84556   9.304  39.426   2.390
19737W        W84557  10.693   1.506   0.783
19738W        W84558  31.724   4.931  13.412
19739W        W84559  37.512  18.339  12.483
19740W        W84560   5.771  13.581   2.318
19741W        W84561   0.983  32.383  13.394
19742W        W84562   7.266  28.514  12.209
19743W        W84563   4.833  14.196   4.133
19744W        W84564  23.773  11.313   4.523
19745W        W84565  31.963  18.624  11.169
19746W        W84566  43.350  10.400  13.170
19747W        W84567  16.768   3.405  11.251
19748W        W84568  19.425   4.255   0.293
19749W        W84569   2.937  42.377   2.453
19750W        W84570  35.453  44.417   4.484
19751W        W84571  37.067  22.909  12.784
19752W        W84572  20.133  42.868   4.858
19753W        W84573  17.761  21.922  14.372
19754W        W84574  39.387   5.173  12.090
19755W        W84575  31.062  19.566  14.413
19756W        W84576   1.873  33.358  14.971
19757W        W84577  19.765  28.918  13.382
19758W        W84578   4.877  18.324   4.480
19759W        W84579  34.701  38.476   1.253
19760W        W84580   8.654   6.727   1.893
19761W        W84581  22.932  28.877  12.947
19762W        W84582  30.394  13.605   2.617
19763W        W84583  13.085  41.920   0.773
19764W        W84584  34.511   7.854   0.461
19765W        W84585  15.204  42.860  10.699
19766W        W84586  43.870  41.572  11.538
19767W        W84587   9.081  27.999  11.641
19768W        W84588  40.914  34.338   0.420
19769W        W84589  21.984  11.595   0.449
19770W        W84590  35.512  14.097  12.920
19771W        W84591  25.233  29.641  13.093
19772W        W84592  10.598  38.887   2.299
19773W        W84593   8.452  11.188  13.917
19774W        W84594  20.151   3.455  12.561
19775W        W84595  31.662  28.226   4.797
19776W        W84596  10.883   7.713  13.612
19777W        W84597  29.587  15.867  14.356
19778W        W84598  27.316   6.713  13.579
19779W        W84599  34.945  26.999   0.472
19780W        W84600  44.834  25.105   0.414
19781W        W84601  32.817   5.868   3.716
19782W        W84602  35.312  12.630   0.861
19783W        W84603  26.108  33.985   2.488
19784W        W84604  37.101  38.888   0.769
19785W        W84605  34.971  18.783   1.894
19786W        W84606  28.052  14.189  14.991
19787W        W84607   2.756   0.723   3.823
19788W        W84608   1.693  38.487   0.175
19789W        W84609  12.573  16.623  10.767
19790W        W84610  42.352   0.067  14.623
19791W        W84611   1.671  20.072   3.758
19792W        W84612  36.046  29.007   3.301
19793W        W84613  13.115  30.086   0.925
19794W        W84614   6.816  23.059   2.441
19795W        W84615  42.457  30.197  13.342
19796W        W84616   6.677  37.762  12.097
19797W        W84617  41.877  19.592  13.850
19798W        W84618  18.830  17.092  12.686
19799W        W84619   5.428  37.532  13.956
19800W        W84620  35.661  33.788   0.815
19801W        W84621  23.088  34.007  13.002
19802W        W84622  38.081  37.860   1.717
19803W        W84623  42.014  20.578  10.645
19804W        W84624  28.633   5.425  14.396
19805W        W84625  32.323  31.967  12.024
19806W        W84626  39.268  30.984   0.319
19807W        W84627   5.633  13.574   2.801
19808W        W84628  26.463  22.247  13.984
19809W        W84629  12.318  31.922   1.723
19810W        W84630  32.569  40.783  13.895
19811W        W84631   6.269  11.558   3.704
19812W        W84632  22.974  37.653   2.326
19813W        W84633  30.232  15.125  11.556
19814W        W84634  26.542  34.357   2.134
19815W        W84635  32.322  26.165  13.968
19816W        W84636  31.544  43.788   3.272
19817W        W84637  40.948  42.898  11.561
19818W        W84638  43.401   6.158  10.440
19819W        W84639  19.056  32.263   2.831
19820W        W84640  38.951  22.839  14.305
19821W        W84641  24.747  17.648  11.523
19822W        W84642  20.710  20.542  13.089
19823W        W84643  17.047   7.942   4.616
19824W        W84644  35.111  13.856  11.621
19825W        W84645  22.071   1.802  12.509
19826W        W84646  16.538  37.508  14.980
19827W        W84647  35.772  44.325   2.343
19828W        W84648  32.586   7.148  13.618
19829W        W84649  16.284   0.466   3.816
19830W        W84650  13.857   8.758  12.836
19831W        W84651  39.384  38.636   0.967
19832W        W84652  38.922  16.564  11.397
19833W        W84653  26.212   7.212  14.762
19834W        W84654  16.371   8.355   1.422
19835W        W84655   7.201   6.816   1.690
19836W        W84656  29.169  26.051  12.107
19837W        W84657  40.669  42.778   4.691
19838W        W84658  39.828  11.386   4.005
19839W        W84659   7.395  17.739  14.467
19840W        W84660  24.159  33.358  14.611
19841W        W84661  27.140   6.918   3.601
19842W        W84662  19.013   3.354   1.259
19843W        W84663   8.908  27.708   1.804
19844W        W84664  36.968  25.215   4.090
19845W        W84665  30.113  41.439  12.819
19846W        W84666   2.982   5.422  13.360
19847W        W84667  20.736  11.231  14.293
19848W        W84668  24.691  17.268  12.794
19849W        W84669  18.726  27.723   3.662
19850W        W84670  38.039   8.953  13.645
19851W        W84671  39.935  26.927  13.411
19852W        W84672   8.874  16.065  13.397
19853W        W84673  40.976   5.336   3.537
19854W        W84674  29.983  41.069  12.486
19855W        W84675  21.701  10.117  13.488
19856W        W84676  41.609  11.812   3.955
19857W        W84677  36.443  34.668   4.211
19858W        W84678  35.792  12.641   1.056
19859W        W84679  31.352  42.422   1.561
19860W        W84680  39.828  13.347  11.456
19861W        W84681  42.466  33.839  13.609
19862W        W84682  26.665  22.937   1.848
19863W        W84683  36.595   6.778  12.879
19864W        W84684   8.988  15.341   1.297
19865W        W84685   3.880  23.173  14.368
19866W        W84686  33.453   4.036  13.140
19867W        W84687  39.332  27.132  14.082
19868W        W84688  23.547  34.606   3.642
19869W        W84689  44.155  33.142  12.049
19870W        W84690  39.160  37.591   1.227
19871W        W84691  19.859   7.114  10.184
19872W        W84692  25.117  36.476  13.506
19873W        W84693  19.621  30.751   1.398
19874W        W84694   6.706  21.016  10.725
19875W        W84695  11.911  26.531   2.732
19876W        W84696   9.109   6.753   4.330
19877W        W84697   3.527  27.400   0.659
19878W        W84698  27.619  11.310   1.164
19879W        W84699  43.044   1.882  14.460
19880W        W84700   4.693  27.132  11.386
19881W        W84701  23.234  33.571  12.025
19882W        W84702  27.992  43.841  14.430
19883W        W84703  26.114   2.445   1.658
19884W        W84704  38.783   9.233  13.403
19885W        W84705  41.634   4.460  14.157
19886W        W84706   9.308  19.867  13.035
19887W        W84707  39.846  20.574   1.773
19888W        W84708   3.455  26.528  11.403
19889W        W84709  38.534   7.461  13.489
19890W        W84710  20.667  35.531   3.805
19891W        W84711  19.572   6.639   1.011
19892W        W84712  23.116  24.465   2.570
19893W        W84713  30.141   1.315   1.639
19894W        W84714  22.774  36.962   0.770
19895W        W84715  29.884  27.523  11.386
19896W        W84716  23.114  15.492  14.304
19897W        W84717  11.162  35.903   2.851
19898W        W84718   6.178  11.000  10.763
19899W        W84719   2.265  13.636   1.832
19900W        W84720  32.091   7.817   3.655
19901W        W84721  39.227   4.400   0.763
19902W        W84722  39.310  14.715   0.393
19903W        W84723  13.732  18.553  11.993
19904W        W84724   4.344   6.903  12.468
19905W        W84725  26.719  14.087   1.315
19906W        W84726   8.233  17.370  13.352
19907W        W84727  42.977  27.447  11.408
19908W        W84728  32.682  11.664   4.168
19909W        W84729  22.246   3.699   1.517
19910W        W84730   4.848  44.141  11.389
19911W        W84731  16.565   5.179  10.619
19912W        W84732  18.897  18.791  14.418
19913W        W84733  29.608  13.758  13.531
19914W        W84734   3.289   6.428  11.128
19915W        W84735  36.769  27.384   1.444
19916W        W84736  20.444  18.191   0.796
19917W        W84737  12.648  40.108   4.107
19918W        W84738  40.535  18.171   4.374
19919W        W84739   8.135  19.074  11.627
19920W        W84740  13.664  26.950  14.333
19921W        W84741  41.260  43.968   3.702
19922W        W84742  12.900  20.793   1.829
19923W        W84743  19.674  40.910   2.623
19924W        W84744  35.862  41.592  12.031
19925W        W84745   6.661  16.969   0.266
19926W        W84746  11.899  37.379   5.087
19927W        W84747  10.866  14.115  14.413
19928W        W84748  22.061  38.818   3.760
19929W        W84749  26.663   8.444   0.960
19930W        W84750  13.305  27.741  13.920
19931W        W84751  13.087  37.245  13.527
19932W        W84752  21.571  32.416  10.783
19933W        W84753  38.338  40.197   1.460
19934W        W84754  37.579  15.709   5.081
19935W        W84755  23.596  21.219   4.875
19936W        W84756  14.615   8.851   3.758
19937W        W84757   2.712  40.484   0.249
19938W        W84758  12.319  11.113  12.073
19939W        W84759  15.556   4.866  10.058
19940W        W84760   1.410  39.460   1.640
19941W        W84761  27.509  34.152   0.918
19942W        W84762  15.548  19.658   5.080
19943W        W84763  30.625  28.088  13.853
19944W        W84764  32.900  10.699   0.747
19945W        W84765  25.101  30.945  12.465
19946W        W84766  36.518  28.624  10.547
19947W        W84767  11.712  15.609  10.913
19948W        W84768   5.449  12.013  11.118
19949W        W84769  23.729  35.652  14.456
19950W        W84770  17.241  11.373  11.058
19951W        W84771   9.277  29.096  14.419
19952W        W84772  23.631  22.438   0.738
19953W        W84773  24.536  43.035   0.459
19954W        W84774  22.150  30.605   0.901
19955W        W84775  39.072   9.311  12.912
19956W        W84776  10.246  32.897  10.501
19957W        W84777  29.807   5.488  13.391
19958W        W84778  12.142   5.927  12.575
19959W        W84779  32.195  36.322   3.299
19960W        W84780  41.854  11.170   2.387
19961W        W84781  16.738  34.027  12.433
19962W        W84782   9.283  25.547  12.607
19963W        W84783  14.057  33.137   0.903
19964W        W84784  15.871  26.576   1.689
19965W        W84785  39.834  36.035   4.228
19966W        W84786   6.247  19.994  12.385
19967W        W84787   4.378  27.659   0.826
19968W        W84788  38.228  40.293   2.850
19969W        W84789   7.127   6.138  11.978
19970W        W84790   7.286  23.336  12.443
19971W        W84791   6.172  25.072  12.539
19972W        W84792  27.567  32.470  10.255
19973W        W84793  35.005  23.796   1.245
19974W        W84794  43.279  18.697   4.163
19975W        W84795  30.671  36.984  13.038
19976W        W84796   3.209   4.452   0.418
19977W        W84797  32.936  18.611  11.236
19978W        W84798  15.817  36.018   4.039
19979W        W84799  26.651   9.034   0.291
19980W        W84800   1.765  20.822   4.332
19981W        W84801   3.486  27.873   0.849
19982W        W84802  30.422  37.880   2.675
19983W        W84803  37.422  11.561  14.085
19984W        W84804  15.511  28.985  13.995
19985W        W84805  42.778  17.408  11.592
19986W        W84806   7.280   1.537  14.332
19987W        W84807  36.711  39.998  13.561
19988W        W84808  26.542  30.885  11.011
19989W        W84809  10.780  32.649   1.749
19990W        W84810  35.347  40.505  14.460
19991W        W84811  26.747  22.711  11.554
19992W        W84812  16.224  24.645   0.453
19993W        W84813  21.700  11.269   5.382
19994W        W84814  32.212  17.000   0.570
19995W        W84815   8.766   3.703   4.652
19996W        W84816   3.834  25.828   3.159
19997W        W84817  19.699  21.566   1.110
19998W        W84818  17.584  26.299  14.904
19999W        W84819  15.208  16.778  11.587
20000W        W84820  16.569   4.152  10.745
20001W        W84821  13.205   2.440   1.071
20002W        W84822  34.859   8.717  12.808
20003W        W84823  24.267  43.057   3.797
20004W        W84824  42.933  14.116   1.580
20005W        W84825   2.168  44.904   4.702
20006W        W84826   8.798   6.451  11.342
20007W        W84827  11.330  17.482   2.023
20008W        W84828  31.644  41.465   3.813
20009W        W84829  37.511   2.426  13.107
20010W        W84830  35.682   5.386   4.781
20011W        W84831  32.012  37.852  11.961
20012W        W84832  35.488   9.810   0.125
20013W        W84833  15.008  29.580  10.182
20014W        W84834  13.255  12.495  14.568
20015W        W84835   5.195  38.997   2.347
20016W        W84836  35.372  34.413  13.592
20017W        W84837  24.678  33.030  13.065
20018W        W84838  26.981  18.540  12.989
20019W        W84839  15.088  40.803   1.924
20020W        W84840  28.997  43.849  11.952
20021W        W84841  11.507  31.454   1.474
20022W        W84842   2.485  42.789  12.934
20023W        W84843  14.842   1.963  14.226
20024W        W84844   4.212  26.635   0.761
20025W        W84845  42.224   0.382  12.573
20026W        W84846  11.443  38.547   2.317
20027W        W84847  35.415  16.765  13.678
20028W        W84848  26.595  36.427  10.665
20029W        W84849  29.085   7.020   2.070
20030W        W84850  32.964  41.905   4.100
20031W        W84851  35.566  40.985   4.658
20032W        W84852   7.569   3.534   1.176
20033W        W84853  33.985  44.457   3.277
20034W        W84854  15.390  17.613   4.074
20035W        W84855  37.404  11.800  10.648
20036W        W84856  13.074  38.876  12.528
20037W        W84857  23.501   6.208  11.761
20038W        W84858  23.611   9.625  11.581
20039W        W84859   4.669  16.570   1.960
20040W        W84860   2.876  19.961  12.923
20041W        W84861  26.385  33.009   2.757
20042W        W84862  38.346  40.038  11.343
20043W        W84863   1.931   3.864  11.630
20044W        W84864  34.852  26.093  14.199
20045W        W84865  20.090  27.212  11.529
20046W        W84866  19.813  11.660   4.294
20047W        W84867   7.278  16.936  12.999
20048W        W84868   7.856  21.167   0.424
20049W        W84869  44.129  27.535   1.570
20050W        W84870  18.371  31.042  11.175
20051W        W84871  38.060   9.366  12.875
20052W        W84872  41.006  25.672   2.663
20053W        W84873  15.747  44.748  10.878
20054W        W84874   5.931  33.353  11.574
20055W        W84875  41.835  11.231   3.715
20056W        W84876   1.006   4.635  12.120
20057W        W84877  23.843  33.210   4.604
20058W        W84878  14.561  43.495   2.722
20059W        W84879  40.931   2.109  13.284
20060W        W84880  17.706  33.624   0.522
20061W        W84881  17.418  44.466   4.705
20062W        W84882   7.786  14.716  14.400
20063W        W84883  44.013  34.391  11.647
20064W        W84884  38.648  10.397   1.307
20065W        W84885  20.885  16.059  12.970
20066W        W84886  16.816  29.716   5.008
20067W        W84887  18.532  23.088   3.346
20068W        W84888  25.928  15.105  12.920
20069W        W84889  37.008  30.898   1.671
20070W        W84890  21.260  11.751  14.952
20071W        W84891  41.863  15.676  10.668
20072W        W84892   8.727  42.771  10.465
20073W        W84893  44.658  32.452   1.820
20074W        W84894  14.945  11.515  12.817
20075W        W84895  18.026  28.201   4.065
20076W        W84896  40.307   6.802  13.426
20077W        W84897  18.732  42.911   0.781
20078W        W84898  42.072   4.969   0.673
20079W        W84899  39.599   8.338   2.953
20080W        W84900  33.676  21.843  14.610
20081W        W84901  14.699  30.939  13.453
20082W        W84902  17.733  25.476  10.693
20083W        W84903  18.056  21.567  11.687
20084W        W84904  28.487  24.700  11.562
20085W        W84905   3.727  35.645  13.667
20086W        W84906   1.682  16.757   1.022
20087W        W84907  31.434  43.908  10.857
20088W        W84908  30.684  31.844  12.623
20089W        W84909  40.316   1.552  13.812
20090W        W84910  40.395  23.073   4.044
20091W        W84911  33.325  10.036  12.879
20092W        W84912  14.308  10.252   3.818
20093W        W84913  33.176  20.802   3.872
20094W        W84914   6.709   0.414   1.293
20095W        W84915  41.306  29.585  14.452
20096W        W84916  35.852  15.841   2.679
20097W        W84917  15.681  22.225  12.912
20098W        W84918  15.163  42.363  11.946
20099W        W84919  27.250  32.289   0.337
20100W        W84920  17.796  39.242  14.387
20101W        W84921  37.567  24.535   3.889
20102W        W84922  28.173   9.774   0.419
20103W        W84923  32.628   3.984   2.314
20104W        W84924  24.968  37.103  14.377
20105W        W84925   8.616  39.601   2.885
20106W        W84926   9.341  39.753   4.160
20107W        W84927  26.122  22.498  12.338
20108W        W84928  38.798  35.635  12.024
20109W        W84929   6.472  22.587  11.097
20110W        W84930   2.369  41.541  10.612
20111W        W84931  41.803  38.781  12.048
20112W        W84932  34.210  40.198  12.591
20113W        W84933  22.536  40.996   1.986
20114W        W84934  38.872  33.865   0.249
20115W        W84935  38.928  24.162   4.620
20116W        W84936  41.064  32.630  10.812
20117W        W84937  39.239  39.978   1.875
20118W        W84938  42.761  32.967  12.157
20119W        W84939  38.898   6.676  12.471
20120W        W84940  36.721  14.521  13.016
20121W        W84941   9.155  24.812  10.346
20122W        W84942  15.309  29.985  13.953
20123W        W84943  18.549  40.255   2.236
20124W        W84944  35.969  42.912  13.194
20125W        W84945  29.817  25.398   5.171
20126W        W84946   0.406  44.003  13.338
20127W        W84947  38.442  32.086   0.304
20128W        W84948  44.614  28.183   2.118
20129W        W84949  11.771  41.958   4.569
20130W        W84950  14.716   1.341   1.232
20131W        W84951  27.921  34.097  14.405
20132W        W84952  44.727  29.447   0.412
20133W        W84953   3.427   9.613   0.365
20134W        W84954   1.949  32.544   2.461
20135W        W84955   3.987   4.820   1.342
20136W        W84956  36.964  27.759   1.152
20137W        W84957  38.018  23.647  10.688
20138W        W84958  22.099   2.058   1.698
20139W        W84959  42.028  27.450   3.729
20140W        W84960  20.049  26.608   3.704
20141W        W84961  16.809  29.396  12.625
20142W        W84962  15.644  24.532   1.197
20143W        W84963  32.534  22.137  11.698
20144W        W84964  12.079  44.439   0.379
20145W        W84965  18.501  20.607   2.186
20146W        W84966   5.938  38.857  14.796
20147W        W84967   0.566  40.388   0.789
20148W        W84968   3.850  22.501  11.100
20149W        W84969  37.546   5.714   4.607
20150W        W84970  22.059  15.908   0.071
20151W        W84971  38.032  29.435   3.282
20152W        W84972  43.334  36.823  12.978
20153W        W84973  17.955  21.528   1.277
20154W        W84974  35.984  19.268   1.720
20155W        W84975  32.087  42.507  12.018
20156W        W84976  40.377  35.921   3.525
20157W        W84977  31.063   1.549   1.849
20158W        W84978  16.686   9.133   1.145
20159W        W84979  35.700  38.520   0.875
20160W        W84980  19.254   6.776   4.939
20161W        W84981   5.594  20.242   4.407
20162W        W84982   5.417  31.369  10.750
20163W        W84983  32.156  39.013  12.422
20164W        W84984  28.002  14.624  10.519
20165W        W84985  23.267  11.156   1.911
20166W        W84986  10.068   9.654  12.479
20167W        W84987  13.051  21.286   4.064
20168W        W84988  19.765  32.930   2.805
20169W        W84989  36.941  24.677  11.867
20170W        W84990   6.243  33.833  13.969
20171W        W84991   1.834   8.220  12.762
20172W        W84992  44.749   3.560   1.405
20173W        W84993   9.164  33.587   1.194
20174W        W84994  29.455  40.506  13.939
20175W        W84995  40.143  23.587   3.116
20176W        W84996  30.752  22.139   3.258
20177W        W84997  28.937  23.262  11.122
20178W        W84998  12.643  25.636  12.556
20179W        W84999  40.313  44.258   5.076
20180W        W85000  20.685  37.598   2.825
20181W        W85001  42.597  14.152   2.884
20182W        W85002  37.273  27.511  11.143
20183W        W85003  25.107  23.272  13.570
20184W        W85004   5.129  35.229   5.150
20185W        W85005  10.805   6.337  13.449
20186W        W85006  27.120  27.873   1.211
20187W        W85007   0.247  39.061  11.026
20188W        W85008  20.006   3.578   3.817
20189W        W85009   2.477   0.633  11.422
20190W        W85010  34.447   9.819   3.791
20191W        W85011  19.963   6.652   1.424
20192W        W85012  23.805  20.298  13.710
20193W        W85013  36.389   3.325  14.409
20194W        W85014   7.405   1.915   3.264
20195W        W85015  21.046   7.247   4.512
20196W        W85016  39.437  32.047   1.768
20197W        W85017  14.726  29.183   2.149
20198W        W85018  42.316  38.102   2.261
20199W        W85019   2.490  23.218   0.891
20200W        W85020  25.445  22.255   2.214
20201W        W85021  32.776  21.310  14.515
20202W        W85022  26.640  39.310  11.443
20203W        W85023   7.342  13.811   0.427
20204W        W85024  22.488  22.180   2.623
20205W        W85025   9.928  36.140  11.101
20206W        W85026  16.857  34.669  12.885
20207W        W85027  21.344   3.526   4.931
20208W        W85028   2.853  24.126   3.957
20209W        W85029  19.208  27.543   0.853
20210W        W85030  22.827  38.929   4.511
20211W        W85031  33.051  44.603  12.900
20212W        W85032  44.746  28.583   3.184
20213W        W85033   6.591   5.393   4.575
20214W        W85034   2.555  23.300   2.904
20215W        W85035  15.302  32.688  14.373
20216W        W85036  30.439  38.173  11.009
20217W        W85037   5.471  16.594   1.550
20218W        W85038  11.790  27.022   4.197
20219W        W85039  30.147  31.422  13.387
20220W        W85040  21.687  36.682  10.572
20221W        W85041  11.354  41.049   3.286
20222W        W85042  16.518  23.756   4.157
20223W        W85043  40.504  32.987   3.728
20224W        W85044  16.104  15.843   3.885
20225W        W85045  27.575  38.334   4.496
20226W        W85046   1.767  21.937   0.466
20227W        W85047   0.784  37.771   4.198
20228W        W85048  41.292   8.670   3.178
20229W        W85049  30.654  35.981  14.496
20230W        W85050   2.841  27.400   3.626
20231W        W85051   9.738  27.916  10.398
20232W        W85052   1.960  24.916   4.240
20233W        W85053  32.696  13.674  14.265
20234W        W85054  26.049  13.059  14.416
20235W        W85055  33.530  44.442  13.049
20236W        W85056   4.379  25.531   2.027
20237W        W85057  17.380  10.695   4.175
20238W        W85058  41.299   1.484  12.858
20239W        W85059   2.950  39.000   2.701
20240W        W85060  27.949   3.570   3.190
20241W        W85061  36.843  14.273   0.750
20242W        W85062   8.203   1.245  10.948
20243W        W85063  23.977  11.746  14.206
20244W        W85064  23.633  39.283   3.541
20245W        W85065  21.940  32.920   0.391
20246W        W85066  18.235  18.798   3.779
20247W        W85067  20.941   7.021  12.935
20248W        W85068  35.650  32.507  13.554
20249W        W85069  41.064  24.441   4.212
20250W        W85070   8.577  19.636   2.287
20251W        W85071  30.872   8.640   2.987
20252W        W85072   6.411  34.499   1.862
20253W        W85073  33.584  32.334  14.409
20254W        W85074  29.384  26.244  10.339
20255W        W85075  18.186  27.684  10.707
20256W        W85076  31.538  38.995  11.437
20257W        W85077  43.946  14.557  12.495
20258W        W85078  28.887  40.660  13.881
20259W        W85079  29.600  28.236  11.236
20260W        W85080  19.533  14.884   4.106
20261W        W85081  11.157  26.973  12.533
20262W        W85082  42.840  33.275  11.043
20263W        W85083  42.123  38.433   3.147
20264W        W85084  13.280   8.249   2.111
20265W        W85085  15.607  11.884  14.309
20266W        W85086  10.855  27.078   4.213
20267W        W85087  15.880  36.367   3.649
20268W        W85088  21.733  23.535   1.139
20269W        W85089  11.272  23.581  12.416
20270W        W85090  11.968  39.104  13.309
20271W        W85091   6.826  19.470   2.050
20272W        W85092   5.655  37.856   1.902
20273W        W85093   1.893  11.268   4.700
20274W        W85094  11.692  21.049  13.090
20275W        W85095   4.713   6.179  12.132
20276W        W85096  41.329   0.735   1.291
20277W        W85097  14.523  16.211   0.197
20278W        W85098  22.607  28.466  13.419
20279W        W85099  28.068  16.733   2.694
20280W        W85100  19.033   4.486  11.602
20281W        W85101  31.264  28.144   3.913
20282W        W85102   0.683  22.784   3.609
20283W        W85103  26.427  11.236  13.861
20284W        W85104   9.155  18.967  10.309
20285W        W85105  37.543  28.373  13.392
20286W        W85106  27.068  44.968   0.464
20287W        W85107  40.211  12.861  12.925
20288W        W85108   5.891  22.947  14.500
20289W        W85109  13.140  13.102  10.822
20290W        W85110  28.132  17.083  12.131
20291W        W85111   4.879  28.153  14.059
20292W        W85112  43.569  15.839  12.153
20293W        W85113  25.620  23.167   2.378
20294W        W85114   7.274  23.211   1.250
20295W        W85115  33.180  23.508   3.134
20296W        W85116   5.976  23.477   0.880
20297W        W85117  29.602   7.209   0.991
20298W        W85118   1.034  25.418   3.197
20299W        W85119  38.412   3.566   2.315
20300W        W85120  43.444  35.574   0.037
20301W        W85121  16.804   0.730  11.873
20302W        W85122  38.350   7.752  11.544
20303W        W85123  27.377   3.679  14.782
20304W        W85124   9.306   7.160  11.780
20305W        W85125  28.288  36.226  11.116
20306W        W85126   1.354  11.542  13.018
20307W        W85127  35.988  26.980   4.665
20308W        W85128  36.789  39.212   3.582
20309W        W85129   9.546  34.991  14.384
20310W        W85130  40.839  22.371   4.315
20311W        W85131  24.016   6.862  12.876
20312W        W85132   3.483  28.524   1.021
20313W        W85133  35.432  24.487  14.279
20314W        W85134   3.829  26.274  11.066
20315W        W85135  39.394  38.296  13.550
20316W        W85136   8.992  24.035  12.465
20317W        W85137  43.013  39.793  12.454
20318W        W85138  43.552   6.182  11.439
20319W        W85139  23.166  25.919  12.474
20320W        W85140   4.753  38.898   0.285
20321W        W85141  39.316  18.257  11.068
20322W        W85142  41.613   5.446  11.602
20323W        W85143  17.754  25.461  13.677
20324W        W85144   2.399  31.429   2.687
20325W        W85145  43.881   9.265   4.891
20326W        W85146  42.871  41.781   0.253
20327W        W85147  33.884  21.315   0.839
20328W        W85148   0.997  36.539   3.728
20329W        W85149  44.155  35.917  12.734
20330W        W85150   3.410  17.682  12.841
20331W        W85151  16.847  35.048   0.223
20332W        W85152  37.321   3.445  12.664
20333W        W85153   1.627  16.333  12.118
20334W        W85154   9.698  39.338   4.392
20335W        W85155   2.744  40.892  12.045
20336W        W85156   6.384  42.735   3.862
20337W        W85157   9.113  41.462   3.429
20338W        W85158  35.102  14.364  11.596
20339W        W85159  25.093  13.191   4.962
20340W        W85160   6.808   2.742  11.082
20341W        W85161   5.552  14.695   0.787
20342W        W85162  44.762  29.046   1.832
20343W        W85163  36.552  32.146   0.301
20344W        W85164   2.694  13.118  13.892
20345W        W85165   8.196   8.676  13.895
20346W        W85166   5.966  30.407   3.894
20347W        W85167   4.886   8.964  14.406
20348W        W85168  36.408   6.998  11.575
20349W        W85169  32.284   4.878   2.774
20350W        W85170  31.838  17.071  13.925
20351W        W85171  28.412  23.550  12.444
20352W        W85172  44.745   6.284  14.618
20353W        W85173  30.288  40.523   1.012
20354W        W85174  18.602  14.821   3.181
20355W        W85175   5.190  44.924  11.824
20356W        W85176  17.561   5.735   3.713
20357W        W85177  40.737  19.812   2.791
20358W        W85178  28.891  23.259  13.890
20359W        W85179  10.013  10.202   2.404
20360W        W85180  18.124   9.811   1.169
20361W        W85181  31.614  23.461  13.103
20362W        W85182  24.564   9.065   3.170
20363W        W85183   0.916  33.718   1.327
20364W        W85184  16.863  23.995   3.669
20365W        W85185  40.819   7.893   4.895
20366W        W85186  13.478  37.801   1.032
20367W        W85187  29.929  27.094  14.422
20368W        W85188  40.533  11.447  12.616
20369W        W85189  27.612  42.272   2.651
20370W        W85190  14.644  19.437  12.102
20371W        W85191  42.338   9.654   2.113
20372W        W85192  43.771  34.035  13.841
20373W        W85193  22.817  27.085   0.692
20374W        W85194  13.857  20.740   2.684
20375W        W85195  28.455  14.855   3.275
20376W        W85196  32.548  19.871   4.046
20377W        W85197  25.192  41.522  13.471
20378W        W85198  27.687  32.600   0.227
20379W        W85199  28.476  33.517  13.792
20380W        W85200  22.720  25.092   4.098
20381W        W85201  41.899  35.813   4.681
20382W        W85202  37.554  17.533   5.383
20383W        W85203  43.891  35.158  13.143
20384W        W85204  40.895  21.820  11.525
20385W        W85205  28.918   6.375  12.905
20386W        W85206  17.106  42.928  14.008
20387W        W85207  21.561  36.957   2.341
20388W        W85208  30.634  43.291   1.976
20389W        W85209  36.878   2.848  14.109
20390W        W85210  31.334   8.429   3.142
20391W        W85211  24.428   0.812   1.794
20392W        W85212   6.290  30.034  13.375
20393W        W85213  11.575  14.802   3.627
20394W        W85214  43.873  10.408  13.032
20395W        W85215  15.377   9.649   1.560
20396W        W85216  20.595   7.955  14.738
20397W        W85217  43.842  33.557   4.006
20398W        W85218  15.646  27.603  10.220
20399W        W85219  21.741  30.514  11.071
20400W        W85220  42.897  34.429   1.200
20401W        W85221  14.818  42.177  13.292
20402W        W85222  37.397  25.739   4.734
20403W        W85223   3.687  24.285   4.154
20404W        W85224  27.374   5.318   2.756
20405W        W85225  17.651  19.795   2.418
20406W        W85226  39.805  24.889  14.382
20407W        W85227  35.628  25.056   1.939
20408W        W85228  33.729  44.937  10.762
20409W        W85229  17.615  10.189   4.294
20410W        W85230  17.834  26.073  13.968
20411W        W85231   4.835   5.144  12.013
20412W        W85232  40.798  37.318  14.897
20413W        W85233  11.109   7.942   1.373
20414W        W85234  15.929  25.538   5.112
20415W        W85235  20.309  25.237  14.146
20416W        W85236  25.096  17.793   0.980
20417W        W85237   2.993  11.233   3.703
20418W        W85238  24.637   8.132   1.886
20419W        W85239   9.610  31.586   1.467
20420W        W85240  36.539  17.866  12.504
20421W        W85241  33.935   7.161  14.834
20422W        W85242  37.367   1.286   3.181
20423W        W85243  42.542  39.483   2.193
20424W        W85244   5.385   1.453   2.233
20425W        W85245  19.188  27.641  12.118
20426W        W85246   6.846  22.257   3.732
20427W        W85247  33.045   0.108  12.973
20428W        W85248  26.675   1.523  10.795
20429W        W85249  30.127   5.363   2.803
20430W        W85250  29.615  29.708   1.824
20431W        W85251  38.492   8.370  10.543
20432W        W85252  43.475  42.726   2.771
20433W        W85253   1.941   1.900  11.178
20434W        W85254   1.958  10.797  10.840
20435W        W85255  11.320  28.208  13.570
20436W        W85256  37.576   4.924   0.491
20437W        W85257   9.203  24.792  13.571
20438W        W85258  44.249  28.381  13.423
20439W        W85259  11.127  26.358  10.595
20440W        W85260  34.364  15.649   0.328
20441W        W85261  44.774  40.335  13.463
20442W        W85262  37.671  13.991   3.612
20443W        W85263  40.935  13.270  12.401
20444W        W85264  30.602  23.990   4.428
20445W        W85265  29.938  36.794   0.383
20446W        W85266   5.372  33.911   0.702
20447W        W85267  43.079   3.026   0.439
20448W        W85268  23.034   3.100   2.612
20449W        W85269  26.611  33.509  11.900
20450W        W85270  35.537   2.900   2.335
20451W        W85271  13.370   6.137   9.856
20452W        W85272   0.379  43.699   3.244
20453W        W85273  30.133  40.042  13.092
20454W        W85274   2.931  16.347   3.961
20455W        W85275  22.964  44.904   4.610
20456W        W85276  16.597   5.395  13.421
20457W        W85277  43.731  16.099   3.616
20458W        W85278  43.370  34.048  13.507
20459W        W85279  21.119  22.679  14.053
20460W        W85280  34.687  21.150   0.442
20461W        W85281  29.259   1.959  11.175
20462W        W85282  38.793  37.175  11.133
20463W        W85283  25.849  30.960   0.972
20464W        W85284  22.032  22.629   3.647
20465W        W85285  15.977   5.894   1.977
20466W        W85286  12.349   8.506   3.663
20467W        W85287  26.006  43.502   2.851
20468W        W85288  25.890  41.970   1.780
20469W        W85289   1.511  39.636  13.522
20470W        W85290  30.047  12.775   3.750
20471W        W85291  15.265  43.448   0.921
20472W        W85292   9.282  25.611  14.992
20473W        W85293  41.821  16.197   3.692
20474W        W85294  34.973  28.997  11.678
20475W        W85295  10.978   6.844  10.544
20476W        W85296   8.843  19.957   0.442
20477W        W85297  26.633  32.640   3.643
20478W        W85298   7.302  23.975   0.767
20479W        W85299  11.889  23.120   0.356
20480W        W85300  41.055   3.440  14.211
20481W        W85301  42.460  40.738   3.085
20482W        W85302   1.350  33.480   3.823
20483W        W85303  38.934  28.148  13.413
20484W        W85304  21.118   5.422  10.393
20485W        W85305  32.265  13.120   2.659
20486W        W85306  43.882  30.152  14.591
20487W        W85307  25.307  22.614   3.315
20488W        W85308  19.389  36.117   5.032
20489W        W85309   8.846  44.756   0.141
20490W        W85310   1.893   5.727  13.992
20491W        W85311  16.549   7.733  13.350
20492W        W85312  14.233  19.010   4.601
20493W        W85313  42.346  42.420   3.847
20494W        W85314  12.598  13.329  12.166
20495W        W85315  17.878  44.301  11.176
20496W        W85316   5.367  34.449   0.796
20497W        W85317  26.132  25.264  10.695
20498W        W85318   5.667   5.313   0.909
20499W        W85319   3.355  12.299   2.636
20500W        W85320  33.769   3.959   4.556
20501W        W85321  14.626  19.939  12.053
20502W        W85322  27.668  16.657  13.739
20503W        W85323  30.054  41.438  11.566
20504W        W85324  31.186   4.965  14.523
20505W        W85325  40.346  43.936   3.654
20506W        W85326   2.368  40.515   2.270
20507W        W85327  41.473   4.533   2.585
20508W        W85328  43.383  19.160   1.545
20509W        W85329  21.169  42.750  11.588
20510W        W85330  34.364  38.217   2.300
20511W        W85331  31.874  27.794   0.503
20512W        W85332  15.821  13.756   0.307
20513W        W85333  25.637  27.148  13.498
20514W        W85334  29.661  11.193  13.367
20515W        W85335   8.732   3.759  11.367
20516W        W85336   1.391  34.819  13.361
20517W        W85337   0.141  23.788  13.518
20518W        W85338   6.056   7.498  14.987
20519W        W85339  14.081   2.570   2.310
20520W        W85340  40.979  42.389   4.855
20521W        W85341  30.564   3.901   4.359
20522W        W85342  13.590   5.838   3.778
20523W        W85343  29.498  36.456   2.735
20524W        W85344  41.478  42.207   3.195
20525W        W85345   6.846  22.099  14.388
20526W        W85346   9.071   6.825   3.368
20527W        W85347  14.154  31.922  14.085
20528W        W85348   5.732  11.897  11.552
20529W        W85349  21.296   8.236  13.092
20530W        W85350  31.123  14.693  11.739
20531W        W85351   8.647  43.468   1.337
20532W        W85352  34.425  17.839   0.821
20533W        W85353  35.050  20.146  12.983
20534W        W85354  20.143  38.064  14.257
20535W        W85355  17.601  33.785   1.804
20536W        W85356  26.596  41.339   0.216
20537W        W85357  25.507  24.358   1.025
20538W        W85358  19.817  20.846  13.354
20539W        W85359  43.279  16.859   1.758
20540W        W85360  26.401  44.659   2.621
20541W        W85361  19.752   8.935  12.480
20542W        W85362  43.560  23.637  13.495
20543W        W85363  10.121  31.889  11.594
20544W        W85364   5.211  19.141   0.536
20545W        W85365   5.113  34.872   1.856
20546W        W85366  25.735  28.899   1.053
20547W        W85367  17.618  21.549  11.007
20548W        W85368  38.550  38.874  10.551
20549W        W85369  26.469  42.707   1.795
20550W        W85370  37.289  16.081  11.823
20551W        W85371  36.307  17.614  12.902
20552W        W85372  26.422  38.374   3.083
20553W        W85373   6.404  22.157  14.143
20554W        W85374  25.486  12.163  14.914
20555W        W85375  37.093   9.773   2.500
20556W        W85376   6.407  35.908   1.754
20557W        W85377   5.948  41.319   1.454
20558W        W85378   4.785  41.204   0.777
20559W        W85379  11.310  15.650   2.869
20560W        W85380  22.599  24.503  13.509
20561W        W85381   6.745  16.445   0.138
20562W        W85382  23.331   8.088  11.510
20563W        W85383  20.206  22.636  13.812
20564W        W85384   2.909  11.657   0.958
20565W        W85385  12.225  20.041   9.755
20566W        W85386  17.292   6.522  12.365
20567W        W85387   5.186  44.783   2.843
20568W        W85388  22.664  15.189  14.481
20569W        W85389  30.383  16.855   4.596
20570W        W85390   6.123  34.024   0.391
20571W        W85391  42.132  43.135   1.220
20572W        W85392   1.534  31.375   1.003
20573W        W85393  21.516  33.536  12.565
20574W        W85394  11.497  33.490   0.767
20575W        W85395  21.180  31.873  14.423
20576W        W85396  43.357  22.958   3.427
20577W        W85397  25.087   5.667  11.036
20578W        W85398  36.463   5.145   0.415
20579W        W85399  42.047  41.293   2.744
20580W        W85400  21.470  20.168   2.684
20581W        W85401  40.532   5.742  10.702
20582W        W85402  35.850  38.053   2.380
20583W        W85403  39.805  33.143  10.588
20584W        W85404  12.276  43.797   3.580
20585W        W85405   6.437  40.517  10.658
20586W        W85406  12.173  23.364  14.499
20587W        W85407  22.797  43.542  13.013
20588W        W85408  39.923  40.489   3.873
20589W        W85409  35.597  20.115   3.724
20590W        W85410  17.985  34.200  11.037
20591W        W85411  36.880  36.280  13.046
20592W        W85412   4.637   3.993  11.663
20593W        W85413   3.306  11.643   1.959
20594W        W85414  38.007  43.559  13.540
20595W        W85415  17.027  43.364  11.944
20596W        W85416  33.373   3.457   0.791
20597W        W85417  25.883  16.235  13.486
20598W        W85418  36.798  42.314   1.960
20599W        W85419  18.520  24.174   2.924
20600W        W85420  28.430  40.108  13.543
20601W        W85421  32.009  43.853  13.954
20602W        W85422  33.512  37.792   4.276
20603W        W85423  37.303  11.513  10.235
20604W        W85424  19.669  33.638   1.205
20605W        W85425   3.438  21.943   3.236
20606W        W85426  17.264  18.309   1.411
20607W        W85427  29.491   4.960   0.405
20608W        W85428  16.032   2.975  12.075
20609W        W85429  23.125   9.988   3.713
20610W        W85430   0.780  32.416   1.375
20611W        W85431   2.602  43.919   1.266
20612W        W85432   6.218  35.990  10.539
20613W        W85433  15.771  18.654   2.871
20614W        W85434  34.587  24.497  12.223
20615W        W85435  13.575   2.802  11.547
20616W        W85436   8.704  19.729  10.044
20617W        W85437  29.622  21.504  11.494
20618W        W85438  39.040   8.876  12.628
20619W        W85439   7.895   4.363   3.859
20620W        W85440  15.042  27.063   1.771
20621W        W85441  33.602  29.140   2.637
20622W        W85442   4.151  41.035   0.463
20623W        W85443  17.819  13.133   5.016
20624W        W85444  22.204  11.087  12.489
20625W        W85445  13.034  23.970   5.142
20626W        W85446  30.784  40.347   0.891
20627W        W85447  12.755  38.952  11.511
20628W        W85448  19.750  22.697  10.668
20629W        W85449  14.605  29.617  14.850
20630W        W85450  10.714  11.842  11.606
20631W        W85451   0.153   0.212   1.839
20632W        W85452   0.532  14.391   3.316
20633W        W85453   4.821   5.785   2.594
20634W        W85454  20.475  34.159   2.810
20635W        W85455  24.584  32.135   1.828
20636W        W85456   6.383  26.432  12.791
20637W        W85457  34.512  18.188  12.180
20638W        W85458  14.234  35.683  11.797
20639W        W85459  18.580  22.206   0.820
20640W        W85460   3.340  25.956  13.402
20641W        W85461  37.646  17.689   1.941
20642W        W85462   6.826  21.318   4.780
20643W        W85463  30.023   4.396   2.058
20644W        W85464  31.373  31.351   4.150
20645W        W85465  41.917  30.613   1.350
20646W        W85466  23.745   8.089   1.401
20647W        W85467  13.111  36.820  12.681
20648W        W85468  30.474  39.783   4.786
20649W        W85469   9.753  38.418  10.744
20650W        W85470  20.306  16.010   1.851
20651W        W85471  18.321  21.061  12.600
20652W        W85472  13.187  19.617   2.204
20653W        W85473  35.161   3.846  11.985
20654W        W85474  26.122  18.792   2.788
20655W        W85475  13.004   4.746  12.808
20656W        W85476  36.476  13.339  14.308
20657W        W85477   9.081  10.283   3.721
20658W        W85478  41.013  30.642  11.706
20659W        W85479   9.455   7.080  12.293
20660W        W85480  29.008   8.293  14.316
20661W        W85481  27.407  37.570  14.528
20662W        W85482  12.851  16.819  11.760
20663W        W85483  19.595  17.261  14.005
20664W        W85484  17.204  13.280   3.697
20665W        W85485  41.347  19.054   4.537
20666W        W85486   8.719  16.711  14.222
20667W        W85487  29.454  17.610  14.786
20668W        W85488  13.040  23.264   0.969
20669W        W85489  29.010  39.823  12.363
20670W        W85490  24.147  30.194  14.994
20671W        W85491  12.152  38.783   3.296
20672W        W85492   2.215  20.639   2.772
20673W        W85493   4.009  44.924  11.878
20674W        W85494  18.677  17.085   2.682
20675W        W85495  34.025  27.716  10.739
20676W        W85496  20.707  15.810  11.995
20677W        W85497  16.649  25.961  13.346
20678W        W85498  17.123  44.741   2.960
20679W        W85499  26.973  21.178   4.039
20680W        W85500  35.936  11.765   4.683
20681W        W85501  38.583  44.945  14.806
20682W        W85502   6.635  27.195  14.921
20683W        W85503  11.792  17.053   0.853
20684W        W85504  42.858  24.216  12.535
20685W        W85505  14.518  34.160  11.055
20686W        W85506  27.455  18.251   3.117
20687W        W85507  36.408  10.853  10.188
20688W        W85508  21.955  43.950   0.955
20689W        W85509  30.946  36.391   4.599
20690W        W85510  21.450  29.409   0.288
20691W        W85511   1.735  31.832   4.265
20692W        W85512  21.595  33.441  11.243
20693W        W85513  38.932  30.999  12.794
20694W        W85514  30.641  12.328  13.539
20695W        W85515   0.439   3.832   2.174
20696W        W85516  26.203  39.506   0.063
20697W        W85517  20.454  14.115   4.596
20698W        W85518   8.171   9.572   3.137
20699W        W85519   3.435  19.275   3.456
20700W        W85520  19.600  39.839   2.123
20701W        W85521  35.844  12.717   0.556
20702W        W85522  32.389  37.109  14.934
20703W        W85523  41.874  42.416   2.426
20704W        W85524   8.283  26.205  13.589
20705W        W85525  12.748  15.770   0.940
20706W        W85526   9.591   8.851  12.362
20707W        W85527  24.969  19.803  13.600
20708W        W85528  22.018  32.773  14.482
20709W        W85529  30.695  26.869   9.979
20710W        W85530  33.380  20.811   9.986
20711W        W85531   3.707  41.334   0.330
20712W        W85532  41.447  43.458  12.360
20713W        W85533   8.680  42.934  11.968
20714W        W85534  41.287  28.093   2.284
20715W        W85535  40.132  34.352   3.863
20716W        W85536  17.320  40.327  11.644
20717W        W85537  13.654  19.658  14.714
20718W        W85538  16.742  23.440   2.879
20719W        W85539  10.103   5.257  10.345
20720W        W85540  26.935  41.377   3.790
20721W        W85541  23.491  14.355  12.204
20722W        W85542  36.853  22.387  14.699
20723W        W85543  21.212  17.324   3.783
20724W        W85544  34.418  29.549   2.740
20725W        W85545  24.187   6.150   1.643
20726W        W85546  35.910  27.314   2.342
20727W        W85547  44.481  23.527   1.227
20728W        W85548  28.225  29.003   3.442
20729W        W85549  22.427   0.515  13.067
20730W        W85550  29.393  26.723   4.592
20731W        W85551  40.755  17.732  14.793
20732W        W85552   5.855   7.164   4.401
20733W        W85553  30.575  40.483  11.271
20734W        W85554  38.107   6.962   3.204
20735W        W85555  19.256  10.593  13.837
20736W        W85556  41.105   4.892   2.129
20737W        W85557  32.195  31.110  14.857
20738W        W85558  15.738   1.368   1.743
20739W        W85559  30.875  35.535  10.692
20740W        W85560  43.903  11.200  11.515
20741W        W85561  32.961  32.421   1.610
20742W        W85562  37.781  18.115  11.998
20743W        W85563   0.569  40.520  10.915
20744W        W85564   0.318  13.910  11.998
20745W        W85565  23.751  39.168  12.103
20746W        W85566   6.129  41.875  11.012
20747W        W85567  16.068  27.720  12.077
20748W        W85568   6.689  34.528   4.081
20749W        W85569  29.487   4.787  10.204
20750W        W85570  14.975  27.239   2.243
20751W        W85571  25.473  33.385  11.522
20752W        W85572  32.022  28.527   4.492
20753W        W85573   1.058   1.862  12.118
20754W        W85574  33.383  25.902   0.225
20755W        W85575  35.145  25.187   4.563
20756W        W85576  42.983  31.635   1.287
20757W        W85577  39.067   9.603   2.761
20758W        W85578  10.279  26.625  13.880
20759W        W85579  26.192  12.101   2.264
20760W        W85580  26.487   1.586   4.116
20761W        W85581   8.240  36.675  13.567
20762W        W85582  40.925  33.524   3.427
20763W        W85583   7.763  43.212  11.568
20764W        W85584  18.204   1.168   0.402
20765W        W85585  19.534  29.214  14.075
20766W        W85586   1.000   2.355   3.674
20767W        W85587  35.139   0.308   4.370
20768W        W85588  39.515   9.100  11.880
20769W        W85589  34.414  21.191  13.970
20770W        W85590   1.641  26.111   3.686
20771W        W85591  40.693  36.902   4.409
20772W        W85592   9.929  20.349  12.609
20773W        W85593   2.430  36.121   3.202
20774W        W85594  30.544  21.152  13.829
20775W        W85595  24.475  19.640  13.824
20776W        W85596  24.956  37.620   1.430
20777W        W85597  20.494  23.196  10.542
20778W        W85598   9.353  19.312  12.141
20779W        W85599  24.364  30.427   1.938
20780W        W85600  40.111  38.119  14.878
20781W        W85601  35.084   0.795   4.552
20782W        W85602  16.099  12.059   0.529
20783W        W85603  39.489  35.307   1.299
20784W        W85604  18.096  21.530  11.183
20785W        W85605  10.277   2.946  12.187
20786W        W85606  25.093  28.260   4.639
20787W        W85607  38.278   4.217  13.545
20788W        W85608  15.985   9.595   1.899
20789W        W85609   0.401  10.589   4.135
20790W        W85610  39.360  28.131  10.993
20791W        W85611  21.995  22.763   3.164
20792W        W85612  10.372  42.980   1.405
20793W        W85613  28.701   4.471   2.645
20794W        W85614  41.566  23.165   2.863
20795W        W85615  10.766  12.578   2.256
20796W        W85616  27.031  12.871   3.216
20797W        W85617  11.341   2.415   2.830
20798W        W85618  42.487  31.343   0.421
20799W        W85619  13.670   2.386   3.855
20800W        W85620   7.771  25.707  13.014
20801W        W85621  19.324  25.922   2.913
20802W        W85622  43.022  18.365  14.946
20803W        W85623   7.334   2.839  12.601
20804W        W85624  24.975  22.231   3.342
20805W        W85625   8.882  41.844   5.025
20806W        W85626  29.457   0.857  13.022
20807W        W85627  28.194  26.518   1.185
20808W        W85628  43.270  16.317   1.805
20809W        W85629  32.131  10.395   4.465
20810W        W85630   1.692  42.403   0.409
20811W        W85631  26.010  25.217   4.435
20812W        W85632  39.760   1.748  12.107
20813W        W85633  41.309  18.646   2.982
20814W        W85634  30.323  40.400   4.526
20815W        W85635  26.144   4.727  13.828
20816W        W85636  23.479   1.768  13.990
20817W        W85637  36.951   6.986   2.179
20818W        W85638   5.179  42.656   3.778
20819W        W85639  22.202  26.544  13.970
20820W        W85640   5.432  25.384  11.964
20821W        W85641  43.719  40.368   1.631
20822W        W85642   8.625  32.107   3.926
20823W        W85643  21.484   1.747   0.688
20824W        W85644  14.132  29.797  14.648
20825W        W85645  28.752  42.652   4.185
20826W        W85646  26.043   3.269   0.756
20827W        W85647   4.686  11.183   2.298
20828W        W85648  17.008  25.478  13.954
20829W        W85649  44.999   5.398   1.112
20830W        W85650  19.198  39.809   0.429
20831W        W85651  34.887   5.246  12.383
20832W        W85652   4.199  37.769  11.923
20833W        W85653  20.119  41.276   4.234
20834W        W85654  31.665  35.305   1.774
20835W        W85655  25.058  18.271   4.969
20836W        W85656   8.257  41.863   2.414
20837W        W85657   7.235  34.369  14.013
20838W        W85658  11.207  30.020   0.659
20839W        W85659  27.247   8.832   2.333
20840W        W85660  29.176   6.091   3.257
20841W        W85661   2.321  23.953   4.788
20842W        W85662  15.347  17.924   0.979
20843W        W85663  11.008   2.812   4.634
20844W        W85664   0.983  14.148   2.409
20845W        W85665  29.287   6.801   1.311
20846W        W85666  23.905  14.672  13.508
20847W        W85667   4.414  21.930   3.130
20848W        W85668  44.813  36.442   0.307
20849W        W85669  29.533   0.896  13.941
20850W        W85670   1.838  22.810   3.418
20851W        W85671  11.637   6.511  12.532
20852W        W85672   3.388   2.081   1.329
20853W        W85673  37.154  26.344   0.191
20854W        W85674   6.729  23.554   3.315
20855W        W85675  33.194  10.771   1.183
20856W        W85676  42.424   1.528  14.274
20857W        W85677  41.252   8.308   1.264
20858W        W85678  27.336  44.463  11.030
20859W        W85679  28.857  35.856  13.852
20860W        W85680  19.689  11.103   1.301
20861W        W85681  18.441  32.826  14.024
20862W        W85682   0.558  12.876   4.207
20863W        W85683  41.132  27.899  14.804
20864W        W85684   6.742  10.154  13.143
20865W        W85685  14.905  26.253  14.064
20866W        W85686  37.616  16.781   1.912
20867W        W85687  24.228  11.179   2.399
20868W        W85688  14.787  11.136  14.541
20869W        W85689   0.047  26.052  10.461
20870W        W85690  18.559  32.064   3.292
20871W        W85691   2.131   8.154   2.696
20872W        W85692   6.903  23.155  11.620
20873W        W85693  39.837  35.476  12.935
20874W        W85694  20.782  12.664   0.421
20875W        W85695   0.710   0.895  12.476
20876W        W85696  36.786  24.200  11.051
20877W        W85697   5.720  31.010   4.201
20878W        W85698  38.370  41.407   4.306
20879W        W85699  14.474  43.435   4.139
20880W        W85700  26.020   0.710  11.544
20881W        W85701  39.114  23.174  14.646
20882W        W85702  26.556  12.693  10.857
20883W        W85703  29.556  23.325   4.229
20884W        W85704   4.147  42.046   4.146
20885W        W85705  44.840  38.162  13.475
20886W        W85706  42.062  38.742  12.508
20887W        W85707  43.004  42.075   0.672
20888W        W85708  40.585   7.629   3.573
20889W        W85709  19.739  37.597   2.337
20890W        W85710  20.623  38.160  14.076
20891W        W85711  30.398  24.227  10.287
20892W        W85712  38.710  39.187  10.003
20893W        W85713  11.195   3.937   2.719
20894W        W85714  28.473  34.345   4.141
20895W        W85715  24.876  28.109  13.923
20896W        W85716   7.325  10.665  10.741
20897W        W85717  29.501  21.577  13.984
20898W        W85718   9.587  30.892   4.571
20899W        W85719  38.573  19.951  12.415
20900W        W85720   6.643  24.618  12.327
20901W        W85721   9.983   8.010  14.930
20902W        W85722  43.050   8.657  10.878
20903W        W85723  26.087  40.054   0.772
20904W        W85724   5.435  23.439   2.303
20905W        W85725   0.652  33.918  14.932
20906W        W85726  26.338  37.340  10.767
20907W        W85727  36.544   9.429  14.508
20908W        W85728   3.372  18.245   2.893
20909W        W85729  29.014  16.328   4.589
20910W        W85730  16.792  44.827   2.569
20911W        W85731  16.854  18.598   1.291
20912W        W85732  18.605  30.483   1.860
20913W        W85733  36.357  20.652   0.801
20914W        W85734  16.983  41.341  13.148
20915W        W85735  21.619  43.786   1.377
20916W        W85736   0.813  21.501   4.518
20917W        W85737  24.055  44.399  11.530
20918W        W85738  14.563  16.097   2.381
20919W        W85739  30.666  26.124  11.767
20920W        W85740  11.755   3.387  10.591
20921W        W85741   8.189  35.586   0.658
20922W        W85742  12.538  24.447  14.823
20923W        W85743  16.093   0.404  13.381
20924W        W85744   1.571  40.579   2.880
20925W        W85745  21.243   6.325  10.154
20926W        W85746  11.429  32.479   2.387
20927W        W85747  14.537  40.861  12.641
20928W        W85748  44.519  40.023  11.598
20929W        W85749   8.640   7.164  10.811
20930W        W85750  44.242  32.620  11.987
20931W        W85751  16.287  42.311  11.618
20932W        W85752  18.517  28.409  14.954
20933W        W85753  20.204  44.222   3.592
20934W        W85754  11.391  21.930  14.851
20935W        W85755  40.593  39.886   3.844
20936W        W85756  39.547  19.738  11.203
20937W        W85757  14.358  40.508  10.475
20938W        W85758  25.694   2.087  11.599
20939W        W85759  34.016  27.580   0.040
20940W        W85760   0.495   6.942   4.368
20941W        W85761  20.699   0.948   1.733
20942W        W85762   0.612   4.867   4.156
20943W        W85763  12.872  39.104  13.370
20944W        W85764  36.829  41.187   2.802
20945W        W85765   7.223  20.483   4.407
20946W        W85766  12.298   8.705   3.160
20947W        W85767   2.681  43.697   4.695
20948W        W85768  11.497  41.617   0.438
20949W        W85769  25.038   5.976  10.624
20950W        W85770  36.672   6.253   3.690
20951W        W85771  33.528  15.151   0.353
20952W        W85772  29.437  18.272  14.197
20953W        W85773  38.415  41.044   0.536
20954W        W85774   6.786  16.912   3.101
20955W        W85775   2.262  32.118   0.342
20956W        W85776  18.062   3.997  11.149
20957W        W85777  42.950  15.585  14.857
20958W        W85778  34.128  35.675  13.029
20959W        W85779  31.586  38.845   0.354
20960W        W85780  42.111   7.297   5.215
20961W        W85781  24.779  23.535   1.866
20962W        W85782  21.112  15.721  14.738
20963W        W85783  25.321  20.570  11.762
20964W        W85784   0.145  15.155  10.543
20965W        W85785  34.076  10.332   4.568
20966W        W85786  11.785  19.620   4.525
20967W        W85787   0.593  18.674  13.087
20968W        W85788  15.080   2.717   3.863
20969W        W85789  37.462  24.314   1.820
20970W        W85790  15.561  32.529   2.877
20971W        W85791   8.823  19.192  13.384
20972W        W85792  22.661  40.820   0.600
20973W        W85793  24.251  32.443   4.164
20974W        W85794   7.559   6.620   1.012
20975W        W85795  28.223  11.703   0.927
20976W        W85796  31.688  14.401  10.990
20977W        W85797  36.180  16.232  11.136
20978W        W85798  42.226  35.065   5.306
20979W        W85799  17.344  12.727  12.797
20980W        W85800  24.283  44.878  14.405
20981W        W85801  39.829  29.998   1.429
20982W        W85802   2.718  14.403   3.776
20983W        W85803   2.775  44.918  14.553
20984W        W85804  28.712  16.444  12.989
20985W        W85805  18.556  29.179  14.359
20986W        W85806   4.710  36.348  11.337
20987W        W85807  31.180  41.859   0.400
20988W        W85808  22.462   3.705  12.077
20989W        W85809  14.638  43.486   1.630
20990W        W85810  16.255  15.791   3.389
20991W        W85811  41.673  18.229   1.187
20992W        W85812  17.112  20.007   1.254
20993W        W85813  14.666   8.087   4.180
20994W        W85814   8.984  30.005   4.542
20995W        W85815  28.728  17.995  14.365
20996W        W85816  35.267  28.622   1.807
20997W        W85817   0.279  30.633  11.564
20998W        W85818   4.253   2.972   3.314
20999W        W85819   9.348  28.872  12.066
21000W        W85820  32.149  38.843  13.455
21001W        W85821  42.357  40.829   1.424
21002W        W85822  11.732  41.463   0.890
21003W        W85823  40.903  19.677  13.829
21004W        W85824  43.332  24.130   3.730
21005W        W85825  37.329  18.052   2.552
21006W        W85826   8.457   1.495   1.829
21007W        W85827  15.930  29.156   3.997
21008W        W85828  44.003  10.124  13.460
21009W        W85829  33.777  10.681   4.224
21010W        W85830  17.653  28.744   1.830
21011W        W85831  37.081  42.601  14.737
21012W        W85832   1.053  17.565   4.667
21013W        W85833  32.379   1.184  12.142
21014W        W85834   2.315  21.493  12.005
21015W        W85835  19.378  33.619  14.850
21016W        W85836   8.856   7.122  14.932
21017W        W85837  28.212   3.640  12.094
21018W        W85838  21.034  41.852  13.917
21019W        W85839  22.696  22.492  13.212
21020W        W85840  44.424  29.208  11.577
21021W        W85841  21.946  15.227  12.021
21022W        W85842  25.177  24.691  12.479
21023W        W85843  17.770  24.115  14.001
21024W        W85844  39.967  36.895   2.756
21025W        W85845  20.919  41.727  14.812
21026W        W85846  32.843  30.934  11.861
21027W        W85847  14.289  16.159   3.336
21028W        W85848  31.347  39.100  14.899
21029W        W85849  37.672  29.253   0.768
21030W        W85850  31.455  26.605   3.200
21031W        W85851  20.499  38.315  12.601
21032W        W85852  20.263  23.571  10.877
21033W        W85853  40.920  43.633   1.920
21034W        W85854  36.465  20.082  10.796
21035W        W85855  13.389  31.154   4.599
21036W        W85856  36.909  33.012   2.941
21037W        W85857   5.936  40.636  12.956
21038W        W85858  41.780   7.950  12.035
21039W        W85859  24.135  11.128  10.212
21040W        W85860  21.531  20.381   1.256
21041W        W85861  37.418  27.688   1.942
21042W        W85862  26.735  38.048   9.816
21043W        W85863  20.794  11.258  11.153
21044W        W85864  11.648  29.443  13.762
21045W        W85865  25.267  21.617  14.458
21046W        W85866  40.000  33.405  13.891
21047W        W85867   8.179  13.798  14.286
21048W        W85868  24.521  12.828  11.959
21049W        W85869  42.784  43.073  10.295
21050W        W85870  44.676   5.226   2.794
21051W        W85871  41.479  20.734   1.269
21052W        W85872  33.644  38.848   3.333
21053W        W85873   9.624  13.290   2.139
21054W        W85874   7.133  40.970   4.162
21055W        W85875  18.282  23.679   0.556
21056W        W85876  13.172  12.495   2.765
21057W        W85877  36.997  13.089  12.078
21058W        W85878  12.024  18.802  12.379
21059W        W85879  37.539  36.901   3.173
21060W        W85880   8.990  42.268  11.225
21061W        W85881  18.828  18.110   1.822
21062W        W85882  15.647  11.668   1.795
21063W        W85883  20.691   6.254  13.419
21064W        W85884  26.869  12.201   3.658
21065W        W85885  31.342  28.578   4.645
21066W        W85886  31.012  31.166   1.510
21067W        W85887  30.477  32.792  14.937
21068W        W85888  17.223  30.743  10.215
21069W        W85889  13.493  42.768   2.351
21070W        W85890  22.520   2.870  11.948
21071W        W85891   5.431   1.471  10.474
21072W        W85892  11.373  20.425   2.989
21073W        W85893  15.249   3.891  13.979
21074W        W85894  29.022  30.264  14.319
21075W        W85895  35.999   3.496   0.792
21076W        W85896  22.973  36.348  14.936
21077W        W85897  36.882  30.018   0.290
21078W        W85898   0.456  28.074   3.582
21079W        W85899   5.357  33.069   0.272
21080W        W85900  28.326  21.284   2.205
21081W        W85901  28.619  23.647   3.531
21082W        W85902  36.885  44.691  12.547
21083W        W85903  33.505  11.087   0.803
21084W        W85904  40.214   4.622   1.219
21085W        W85905  21.618  13.692  11.235
21086W        W85906  32.254   8.289   3.797
21087W        W85907  17.631   1.329  10.419
21088W        W85908   2.924  26.480   3.646
21089W        W85909  35.518   6.592   4.604
21090W        W85910  36.524   5.852   3.010
21091W        W85911  40.460  21.160  10.141
21092W        W85912  42.317  12.600  14.801
21093W        W85913  29.005  20.349   4.995
21094W        W85914  29.727  24.477   9.791
21095W        W85915   0.263  31.172  11.577
21096W        W85916  31.460  12.375   4.141
21097W        W85917  44.846  26.741   2.167
21098W        W85918   6.356   1.549  11.752
21099W        W85919  17.192  15.889  12.629
21100W        W85920  44.480  41.766  13.589
21101W        W85921  39.450  40.454  11.152
21102W        W85922   6.184  30.965  10.691
21103W        W85923   7.678  38.873   3.302
21104W        W85924  31.558  35.497  12.709
21105W        W85925  39.002  24.299   3.168
21106W        W85926  15.776   3.990  14.028
21107W        W85927  25.531  17.884  14.926
21108W        W85928  41.714  19.726   3.875
21109W        W85929   8.915  16.320   0.487
21110W        W85930  26.032  39.813  11.665
21111W        W85931  22.269   9.780   3.209
21112W        W85932  31.605  35.015   2.677
21113W        W85933   4.801  17.692  11.594
21114W        W85934  33.544  16.845  14.549
21115W        W85935  29.159   2.442  12.952
21116W        W85936  44.502   8.190  13.818
21117W        W85937   6.524  18.601   1.286
21118W        W85938  28.528  36.788   3.579
21119W        W85939   5.355  33.468   2.291
21120W        W85940  24.229  41.788  14.300
21121W        W85941  44.437   1.946   0.268
21122W        W85942  39.599  30.213   3.241
21123W        W85943  26.709   9.141   4.509
21124W        W85944  10.695  37.694   4.112
21125W        W85945  13.269  16.865  13.963
21126W        W85946  29.655  19.213  12.270
21127W        W85947  10.475  42.626  13.515
21128W        W85948   8.118  33.390  13.971
21129W        W85949   0.826  44.046   0.981
21130W        W85950  14.800   3.888  12.106
21131W        W85951  27.703  26.038   3.647
21132W        W85952  11.969  13.791  10.168
21133W        W85953   3.803  32.683   4.179
21134W        W85954  18.340  14.861  11.124
21135W        W85955  22.020  13.728   3.723
21136W        W85956  44.857  26.430   1.744
21137W        W85957  44.507  25.429  12.225
21138W        W85958  12.902  10.069   2.793
21139W        W85959  29.843  10.629  14.641
21140W        W85960  40.261  15.732  11.551
21141W        W85961   5.744  44.106  10.814
21142W        W85962  20.306   9.921  11.825
21143W        W85963  37.115  22.990   4.864
21144W        W85964  19.714  15.584   3.663
21145W        W85965  10.758   0.324  10.890
21146W        W85966   6.326  21.279  13.344
21147W        W85967   0.328  13.008  10.680
21148W        W85968  40.224  13.839  12.623
21149W        W85969  34.374  41.032  13.158
21150W        W85970  17.589  34.007  12.024
21151W        W85971  31.372  38.876  11.910
21152W        W85972  17.061  18.278   2.865
21153W        W85973  16.248   9.771   2.911
21154W        W85974  33.030  25.127   3.640
21155W        W85975   7.654  25.257   0.737
21156W        W85976  30.403  35.954   0.404
21157W        W85977  40.269  30.355  10.366
21158W        W85978   4.032  39.787   4.345
21159W        W85979  44.360  26.306  12.395
21160W        W85980  36.539   4.998  14.881
21161W        W85981  16.126   1.534  11.115
21162W        W85982  32.742  24.121  11.873
21163W        W85983  15.463  35.020  14.971
21164W        W85984  20.666   1.041   1.210
21165W        W85985  14.410  18.469  14.032
21166W        W85986  18.159  36.336  14.324
21167W        W85987  37.320  34.718   0.399
21168W        W85988  39.112  30.477  13.706
21169W        W85989  16.112  27.333   0.734
21170W        W85990   8.122  20.984   4.466
21171W        W85991  23.847  21.610  12.116
21172W        W85992  11.046  16.320  14.812
21173W        W85993  20.869  29.165   3.113
21174W        W85994  23.243   7.189  12.907
21175W        W85995  12.666  28.231   0.496
21176W        W85996  20.261  43.722   4.225
21177W        W85997  43.329  24.211   1.459
21178W        W85998  26.744  31.681  11.131
21179W        W85999  15.616  13.832   4.183
21180W        W86000  43.368  42.417   1.005
21181W        W86001  19.443  22.655   3.256
21182W        W86002  42.383   2.277   4.639
21183W        W86003  14.752  40.442   3.694
21184W        W86004  35.138  35.846   3.393
21185W        W86005  30.503  24.407  12.622
21186W        W86006   6.850   9.196   4.064
21187W        W86007  37.714  17.697   2.444
21188W        W86008  10.152  24.433   1.462
21189W        W86009   9.619  39.434  14.271
21190W        W86010  25.772   1.657  14.497
21191W        W86011  33.813  41.715  11.492
21192W        W86012  28.170   8.485  14.871
21193W        W86013  31.897  32.408  12.945
21194W        W86014  30.341  39.868  12.650
21195W        W86015  37.814   6.801  13.738
21196W        W86016  23.171  26.790  12.051
21197W        W86017  11.866   2.351  12.416
21198W        W86018  15.669  17.294   1.411
21199W        W86019  39.364  14.004  13.018
21200W        W86020  34.840  27.696  13.740
21201W        W86021  38.452  40.283   1.977
21202W        W86022  12.142  34.294  11.646
21203W        W86023  11.647   5.758   3.850
21204W        W86024   8.804  20.099   2.328
21205W        W86025   8.425  44.748   3.897
21206W        W86026  15.115  22.537   1.305
21207W        W86027   4.265   0.230   1.904
21208W        W86028  21.526  32.047   4.032
21209W        W86029  20.964  25.960   4.574
21210W        W86030  27.450  27.494  14.741
21211W        W86031   2.173   7.338   0.446
21212W        W86032  10.225  21.482   0.661
21213W        W86033  22.293   5.923  14.007
21214W        W86034   0.815  36.467  12.128
21215W        W86035  15.312  36.628  12.566
21216W        W86036  21.138  25.563   1.643
21217W        W86037  38.359  43.271  14.860
21218W        W86038  40.837  22.544   0.202
21219W        W86039   6.280  30.083  13.890
21220W        W86040  27.050  44.952   3.651
21221W        W86041  17.542  11.715   1.526
21222W        W86042  35.885  19.155   2.650
21223W        W86043  41.237   4.768  13.500
21224W        W86044  11.658  39.969   2.005
21225W        W86045   4.458   6.957   3.806
21226W        W86046  37.648   7.455   2.119
21227W        W86047  42.873  24.529   4.113
21228W        W86048  27.647  26.996   0.822
21229W        W86049  43.509  33.878  13.030
21230W        W86050  21.979  41.510  12.544
21231W        W86051   0.018  19.063  11.872
21232W        W86052  39.913  18.122  14.978
21233W        W86053  43.061  17.277   2.008
21234W        W86054  24.688  38.985  12.853
21235W        W86055   0.476   7.612  13.910
21236W        W86056  26.263   0.352  13.425
21237W        W86057  43.504  13.264  13.266
21238W        W86058  39.476  28.406  10.596
21239W        W86059  36.376  13.832  13.316
21240W        W86060  42.014  24.388  12.377
21241W        W86061  40.308  29.575   3.725
21242W        W86062  26.542  11.380   3.614
21243W        W86063  24.470   4.831   2.699
21244W        W86064  38.021  44.463  14.424
21245W        W86065  31.313  31.414  11.675
21246W        W86066   9.745  20.774  12.065
21247W        W86067  35.442   0.320   0.233
21248W        W86068  44.558  18.263  12.535
21249W        W86069   0.704  10.790  12.453
21250W        W86070  23.956   1.476  12.167
21251W        W86071  19.156  43.331   2.366
21252W        W86072  13.664  37.400   2.791
21253W        W86073  22.691  35.959   3.895
21254W        W86074  40.861  15.086   2.910
21255W        W86075   3.007  21.549  12.483
21256W        W86076  27.553  12.174  14.942
21257W        W86077  34.583   6.066   0.385
21258W        W86078  27.167  29.683   2.762
21259W        W86079  29.012  37.816  12.552
21260W        W86080   6.701   0.010  11.189
21261W        W86081  12.449  15.640   3.113
21262W        W86082   5.081  16.026  13.935
21263W        W86083  23.710  14.031  11.606
21264W        W86084  36.355  31.966   0.808
21265W        W86085  38.617  18.952  12.627
21266W        W86086  17.891   3.310  13.087
21267W        W86087  21.477  15.757   2.371
21268W        W86088  40.730  42.419   0.361
21269W        W86089  23.803  32.306   0.221
21270W        W86090  36.933  37.815  13.975
21271W        W86091  16.577   2.479   2.162
21272W        W86092  30.045  42.458   3.565
21273W        W86093  17.258  36.871  14.740
21274W        W86094  21.859   5.007   3.835
21275W        W86095  33.841  39.919   1.181
21276W        W86096   3.294   9.478   1.348
21277W        W86097  36.833  24.280  11.552
21278W        W86098   2.443   5.403  13.354
21279W        W86099   6.745  19.251  11.231
21280W        W86100   5.797  31.583   4.158
21281W        W86101  15.051  20.242  12.048
21282W        W86102  32.678   1.464  10.818
21283W        W86103  24.259   0.416   2.739
21284W        W86104   9.145  30.041  12.843
21285W        W86105  14.458   3.386  13.351
21286W        W86106  37.374  39.844   1.446
21287W        W86107   0.935  37.168  12.448
21288W        W86108  15.072  24.878   0.083
21289W        W86109  24.518  30.698   0.392
21290W        W86110  17.565  24.690  13.082
21291W        W86111  14.292  18.207   0.066
21292W        W86112  42.755  11.428  13.311
21293W        W86113  26.759  12.090   1.305
21294W        W86114  19.783  39.119   1.253
21295W        W86115  26.431   6.336   4.654
21296W        W86116   3.413  24.078   1.196
21297W        W86117  24.227   9.182   4.427
21298W        W86118  20.076  18.556   3.669
21299W        W86119   5.406   8.594   0.244
21300W        W86120  31.830   2.296   3.652
21301W        W86121  13.402  43.485  13.855
21302W        W86122  19.293  42.049   0.588
21303W        W86123  17.274  25.350  12.036
21304W        W86124  10.841   7.269  14.372
21305W        W86125  41.565  16.275   2.722
21306W        W86126   7.735  25.768  10.330
21307W        W86127  43.321  33.033  11.057
21308W        W86128   6.644  18.318  13.066
21309W        W86129   7.782  15.262   9.842
21310W        W86130  11.360  24.485   2.858
21311W        W86131   9.830  36.890  12.888
21312W        W86132  27.736   4.959   3.184
21313W        W86133   3.009  33.119   4.289
21314W        W86134  12.526  32.260  10.638
21315W        W86135  30.628  32.322  14.795
21316W        W86136   2.678  21.044   4.975
21317W        W86137   9.866  22.293   0.669
21318W        W86138  19.633  38.054  11.513
21319W        W86139  30.779  12.085   1.640
21320W        W86140  17.561  23.009   0.319
21321W        W86141  17.165   1.192  13.898
21322W        W86142   6.879   7.614   2.286
21323W        W86143  36.457  21.150  11.824
21324W        W86144  18.176  25.567   3.704
21325W        W86145  20.124  41.750  14.355
21326W        W86146   2.678  27.414   0.448
21327W        W86147  44.316  31.539   4.613
21328W        W86148  22.139  15.076  11.560
21329W        W86149  36.619  14.848  12.384
21330W        W86150  38.056   1.959  11.972
21331W        W86151  17.652  13.129   1.405
21332W        W86152  11.883  22.239  10.194
21333W        W86153  21.129  38.751   1.805
21334W        W86154  25.772  42.468   3.293
21335W        W86155  41.394   1.375  11.984
21336W        W86156  44.475   5.371  10.740
21337W        W86157  13.144  35.838   2.255
21338W        W86158  23.888  27.253   3.234
21339W        W86159   7.233  15.100  13.484
21340W        W86160   0.515  32.255  13.594
21341W        W86161  34.036  14.806  13.851
21342W        W86162  23.057   5.139  10.033
21343W        W86163   5.897  44.583  14.834
21344W        W86164  18.146  33.631  13.057
21345W        W86165  41.551  31.101   3.181
21346W        W86166   0.922  37.255   3.263
21347W        W86167  15.660  40.222  14.284
21348W        W86168  15.285   3.681   4.033
21349W        W86169  42.413   0.625  11.556
21350W        W86170  23.710  33.707   4.562
21351W        W86171  44.783  40.720  11.164
21352W        W86172  29.654   7.313  12.416
21353W        W86173  15.166   0.279   4.498
21354W        W86174  19.135  25.151  12.370
21355W        W86175  39.015   8.703  14.621
21356W        W86176  21.935  33.216  12.439
21357W        W86177  27.978   6.892   1.742
21358W        W86178   1.687  11.117  13.044
21359W        W86179  35.623   8.240   1.742
21360W        W86180  11.002   6.389   1.201
21361W        W86181  21.112  43.629  13.404
21362W        W86182  13.243  19.816  13.065
21363W        W86183  44.887  41.213  11.179
21364W        W86184  24.813  37.979  12.746
21365W        W86185  32.160  34.806   4.049
21366W        W86186   3.942  33.087  14.467
21367W        W86187   6.068  13.306  14.705
21368W        W86188  16.148   0.031   4.264
21369W        W86189  40.958  12.730  11.378
21370W        W86190  16.036  41.832   3.249
21371W        W86191   6.413   7.640   3.229
21372W        W86192  16.838  17.242  14.935
21373W        W86193  29.988  24.094   9.531
21374W        W86194  44.448  24.746   0.564
21375W        W86195   3.494  25.132  11.592
21376W        W86196  37.322  35.632   0.385
21377W        W86197  14.605  10.458   0.086
21378W        W86198  32.319  14.637   0.369
21379W        W86199  25.822  13.148  14.871
21380W        W86200  41.276  26.005  10.639
21381W        W86201  19.614  21.655  10.707
21382W        W86202   6.869  35.281   2.135
21383W        W86203  25.079  40.783   4.589
21384W        W86204  29.956  17.085   4.188
21385W        W86205  26.707   7.744  14.958
21386W        W86206  28.265   8.553   2.410
21387W        W86207  39.353  43.014  10.808
21388W        W86208   4.694   0.399  14.861
21389W        W86209  30.783  21.436  11.056
21390W        W86210  12.920  29.051  13.728
21391W        W86211  10.846   4.859  10.721
21392W        W86212   5.691  40.765  14.569
21393W        W86213   6.384  22.087  13.585
21394W        W86214  35.433   2.156  10.727
21395W        W86215  32.930  15.074  13.367
21396W        W86216  18.394  44.995   3.356
21397W        W86217  29.975   5.811  12.192
21398W        W86218  24.621  11.866   3.751
21399W        W86219  16.155  19.371  13.880
21400W        W86220   1.042  17.772  14.217
21401W        W86221   9.353   4.310   1.312
21402W        W86222   0.126  19.907  11.136
21403W        W86223  33.973  36.942  13.718
21404W        W86224  10.681   2.104  11.138
21405W        W86225  18.294  34.997   4.646
21406W        W86226   1.441  39.184  12.918
21407W        W86227   6.168  15.230   3.725
21408W        W86228  33.704  31.996   1.972
21409W        W86229  27.559   1.297   1.603
21410W        W86230   2.816  12.140  13.915
21411W        W86231  32.743  14.052   2.873
21412W        W86232  39.357  14.596  13.990
21413W        W86233  10.154  27.377   5.293
21414W        W86234   8.879  27.735   5.015
21415W        W86235  27.709  19.415   9.643
21416W        W86236  26.953   7.594  14.488
21417W        W86237  30.822   9.174  11.614
21418W        W86238  31.485  31.467   2.800
21419W        W86239   4.179   0.539   3.280
21420W        W86240  29.618  27.703  14.940
21421W        W86241  33.890   0.499  10.140
21422W        W86242  44.976   0.219  14.027
21423W        W86243  36.375  37.606   4.715
21424W        W86244   1.432  37.054  13.907
21425W        W86245  39.504   3.764  12.920
21426W        W86246  41.809  41.073  13.048
21427W        W86247  36.899  36.834   0.849
21428W        W86248  13.786  35.387   2.672
21429W        W86249  43.846  31.914  12.519
21430W        W86250  32.430  32.702   3.800
21431W        W86251  41.208   0.268   0.404
21432W        W86252  37.966  44.450   2.229
21433W        W86253  43.344  28.518   3.468
21434W        W86254   5.692   6.766  14.730
21435W        W86255  17.368  30.453  11.578
21436W        W86256  23.527  23.441   3.223
21437W        W86257   3.938  28.764  11.481
21438W        W86258  40.078  29.168  13.355
21439W        W86259  19.700  16.106   3.595
21440W        W86260  10.414  21.326  13.147
21441W        W86261  35.021  41.357  10.663
21442W        W86262   1.796  15.048  13.943
21443W        W86263  38.622  31.933   4.576
21444W        W86264  10.151  23.274   2.713
21445W        W86265  41.664  32.617  14.427
21446W        W86266   7.321  22.564  11.148
21447W        W86267  29.580  19.765  14.347
21448W        W86268  20.047  44.010  13.900
21449W        W86269  26.619  33.323   3.114
21450W        W86270  10.335  13.314  13.326
21451W        W86271  24.511  27.450   4.606
21452W        W86272  36.631  42.837  14.612
21453W        W86273  25.932  34.334  11.467
21454W        W86274  30.062  29.168   0.676
21455W        W86275  28.464  37.788   0.844
21456W        W86276  13.292  22.059  10.424
21457W        W86277  44.619  28.534   1.706
21458W        W86278  12.161  12.713  13.746
21459W        W86279  30.033  26.613   1.089
21460W        W86280   9.431  41.176  13.601
21461W        W86281  18.778  39.911   5.052
21462W        W86282  27.579  19.088   5.547
21463W        W86283  35.447  34.846  12.933
21464W        W86284  41.314   2.531   2.763
21465W        W86285  41.319  19.000  13.567
21466W        W86286   7.722  44.262  14.335
21467W        W86287  29.682  13.850   3.318
21468W        W86288  15.323   2.255  14.939
21469W        W86289  23.501  18.047  12.879
21470W        W86290  33.458  13.351  11.743
21471W        W86291  40.095  15.704   2.376
21472W        W86292  31.163   4.463   3.774
21473W        W86293  24.541   8.092   3.315
21474W        W86294  21.751  44.480   1.147
21475W        W86295  27.455   8.931   1.868
21476W        W86296  23.651  27.388   1.265
21477W        W86297  15.645  34.394  13.395
21478W        W86298   0.914   3.863   1.982
21479W        W86299  14.807  29.224   5.104
21480W        W86300  28.426  39.693  10.561
21481W        W86301   7.127  40.575  12.006
21482W        W86302   0.320  16.881  10.480
21483W        W86303  38.534   8.938   1.877
21484W        W86304  40.862  39.257  10.777
21485W        W86305  15.802  38.899   1.517
21486W        W86306  16.015  14.391   4.924
21487W        W86307   5.916  43.462   1.763
21488W        W86308   3.314  15.261  14.571
21489W        W86309  38.401  16.378  10.581
21490W        W86310   7.301  19.029   0.510
21491W        W86311  29.474  31.574   1.142
21492W        W86312  33.177  14.085   2.564
21493W        W86313  39.899  13.124   3.270
21494W        W86314   4.933  18.295  12.470
21495W        W86315   1.897  23.533  12.003
21496W        W86316  22.607   3.905  14.006
21497W        W86317  38.012  24.422  14.406
21498W        W86318   9.702   7.457  11.686
21499W        W86319  24.600  33.622  11.871
21500W        W86320  37.314  20.977   1.372
21501W        W86321  18.558   2.796  13.101
21502W        W86322  16.287  43.307  11.567
21503W        W86323  20.560  21.275   3.688
21504W        W86324  38.328   9.854  12.827
21505W        W86325  44.325  38.285  14.386
21506W        W86326   7.942  39.056  11.632
21507W        W86327   4.816  44.678  13.635
21508W        W86328  18.123   6.661  14.806
21509W        W86329  23.969  10.043   4.188
21510W        W86330  35.204  39.347  13.089
21511W        W86331  44.454  37.822   0.306
21512W        W86332  33.144  18.228  11.543
21513W        W86333  23.557  26.343   4.165
21514W        W86334  30.978   1.146   3.026
21515W        W86335  41.593  40.034   1.258
21516W        W86336   1.889  34.072   2.279
21517W        W86337  29.378  44.281  13.489
21518W        W86338   0.666  26.952  13.489
21519W        W86339  15.231  37.207   4.545
21520W        W86340  23.548   8.912  14.514
21521W        W86341  35.436  39.444   0.505
21522W        W86342  33.192  40.088   4.220
21523W        W86343  18.149  27.193  11.603
21524W        W86344  37.045  23.840   1.165
21525W        W86345  34.841  33.486  11.607
21526W        W86346  37.593  28.401   3.730
21527W        W86347   6.774  18.602   1.842
21528W        W86348   7.395  23.841   2.374
21529W        W86349  31.396  39.889   0.902
21530W        W86350  29.087   9.395   1.899
21531W        W86351  28.073  17.251   4.989
21532W        W86352  29.477  37.999  12.547
21533W        W86353  32.859  26.012   2.204
21534W        W86354  21.544  42.027   4.668
21535W        W86355  26.138  29.155  11.234
21536W        W86356  39.644  19.847   2.344
21537W        W86357  21.483  25.125   0.402
21538W        W86358  15.845  17.445   0.536
21539W        W86359   3.323  41.310  14.496
21540W        W86360  36.457  24.442  13.542
21541W        W86361  40.711  11.372   4.277
21542W        W86362  30.372  38.885  13.882
21543W        W86363  18.308  23.630  11.073
21544W        W86364  33.884  36.589   0.978
21545W        W86365  37.260  18.599   1.645
21546W        W86366  37.042   4.742   2.206
21547W        W86367  41.011   3.393   1.842
21548W        W86368  38.469  19.646   2.214
21549W        W86369  43.901   4.142  10.676
21550W        W86370  38.683   3.323  14.405
21551W        W86371  29.033  21.334   0.749
21552W        W86372  24.519  10.540  11.556
21553W        W86373  44.056  17.131   0.767
21554W        W86374  25.430  42.773   2.435
21555W        W86375   0.763   6.507   2.378
21556W        W86376   4.035  34.176   2.838
21557W        W86377  25.797  10.705   3.169
21558W        W86378  41.433  29.405  12.947
21559W        W86379  44.646   7.442   5.030
21560W        W86380  40.027  28.571   0.805
21561W        W86381  31.367   4.287   0.188
21562W        W86382  21.185   7.642  13.626
21563W        W86383  10.391  43.879   2.776
21564W        W86384  44.368   5.060   3.221
21565W        W86385  15.379   9.676   4.180
21566W        W86386  13.828  24.861  14.442
21567W        W86387  11.876  26.449  12.142
21568W        W86388  23.598  15.319  14.474
21569W        W86389  34.044  41.270  11.581
21570W        W86390  25.011  44.983  13.641
21571W        W86391  25.598   8.285  14.681
21572W        W86392  13.879  19.336  13.270
21573W        W86393   6.023   8.624  11.172
21574W        W86394   6.041  11.107  11.460
21575W        W86395  28.185   3.419   3.627
21576W        W86396  36.853  39.901   4.310
21577W        W86397  11.660  19.555  10.942
21578W        W86398  28.121  39.787  12.120
21579W        W86399   4.869  16.523   4.230
21580W        W86400  16.755  30.907  14.289
21581W        W86401  18.812  10.734   3.761
21582W        W86402  19.312  31.523   3.946
21583W        W86403   9.278   9.314  13.497
21584W        W86404  39.455  38.294   4.243
21585W        W86405  39.996  18.090  12.309
21586W        W86406  31.707  27.134  14.838
21587W        W86407  15.834  20.804  13.734
21588W        W86408  20.761   4.193   0.069
21589W        W86409  33.599  10.065   2.133
21590W        W86410  15.155   6.811   1.918
21591W        W86411  18.156  14.037  13.596
21592W        W86412  44.094  37.954   1.711
21593W        W86413  23.443   5.369   2.460
21594W        W86414  22.639   8.590   1.345
21595W        W86415  42.750  35.050  14.113
21596W        W86416   4.406   7.111   2.363
21597W        W86417  38.354  31.537  14.425
21598W        W86418   8.704  26.445  14.883
21599W        W86419   9.931  21.993   4.125
21600W        W86420  39.557  17.232   2.825
21601W        W86421  43.273   1.383  14.856
21602W        W86422  10.933   8.313   4.806
21603W        W86423  27.528  30.582  11.861
21604W        W86424   3.874  21.537  11.244
21605W        W86425  14.846   8.247  11.936
21606W        W86426   0.275   8.668   4.538
21607W        W86427  19.760  19.793   3.174
21608W        W86428   7.409  24.513  14.916
21609W        W86429   3.700  15.752  11.045
21610W        W86430  28.017  20.281   0.770
21611W        W86431  13.519  23.242   0.208
21612W        W86432  28.928  35.182   3.180
21613W        W86433  41.202  36.755   4.414
21614W        W86434  24.668   5.219   1.791
21615W        W86435  18.551  22.742   0.816
21616W        W86436  10.804  38.869  11.432
21617W        W86437  10.927  32.106   4.114
21618W        W86438   2.454  10.554  11.273
21619W        W86439   1.942  36.556   3.729
21620W        W86440  30.422  21.511  10.690
21621W        W86441  24.567  38.102  13.984
21622W        W86442  24.211  40.692  13.522
21623W        W86443  13.305  13.306  12.161
21624W        W86444  34.415  40.444  13.841
21625W        W86445  17.623   1.233  14.249
21626W        W86446   0.395  37.343  10.742
21627W        W86447   2.740  24.633  14.949
21628W        W86448   5.708  16.276  11.242
21629W        W86449   1.786  11.162   1.304
21630W        W86450  39.275  14.097  13.713
21631W        W86451  22.715  34.034   3.463
21632W        W86452  20.545  17.886   3.180
21633W        W86453   0.889   1.882  11.641
21634W        W86454   3.206  22.961   4.692
21635W        W86455   9.776  32.777  13.649
21636W        W86456  19.482  24.716   1.455
21637W        W86457  19.559  40.915   4.251
21638W        W86458  40.034  26.934   3.188
21639W        W86459   7.151  27.082  13.013
21640W        W86460  37.826  14.203   0.994
21641W        W86461  31.804  22.597   5.018
21642W        W86462  31.929  18.699   5.501
21643W        W86463  33.530  18.129  12.974
21644W        W86464  19.809  10.582   1.318
21645W        W86465   9.979  19.561  13.771
21646W        W86466  15.805   3.243  14.785
21647W        W86467  44.168  18.825  14.913
21648W        W86468   4.051   7.377  14.270
21649W        W86469   2.216  34.051  12.921
21650W        W86470  17.856   5.649   3.294
21651W        W86471  38.688   6.263   5.078
21652W        W86472  24.521  24.145   2.700
21653W        W86473   9.182  33.795   3.136
21654W        W86474   4.736  10.263   0.030
21655W        W86475  38.325  27.912   1.207
21656W        W86476   4.355  26.087   1.937
21657W        W86477   3.449   4.709  11.584
21658W        W86478  14.394  23.484  14.974
21659W        W86479   3.301  32.344   1.229
21660W        W86480  39.974  44.282   3.750
21661W        W86481  21.369  16.884   9.832
21662W        W86482   0.893  27.084  13.013
21663W        W86483   6.821  17.749   3.973
21664W        W86484  33.489  41.507  10.814
21665W        W86485  39.410  22.183  10.747
21666W        W86486  39.730   2.689   4.804
21667W        W86487  44.464  13.082   3.122
21668W        W86488  44.262  14.898  13.543
21669W        W86489  11.280   0.830  11.373
21670W        W86490   6.412  44.579  11.376
21671W        W86491  23.216  15.698  13.301
21672W        W86492  11.147  18.816   3.633
21673W        W86493   2.984  20.344  14.212
21674W        W86494  18.015  17.132   1.433
21675W        W86495  22.326  32.480   3.402
21676W        W86496  42.558   3.416   3.244
21677W        W86497  13.326  21.515   3.260
21678W        W86498  15.382   0.760   0.496
21679W        W86499  17.258   8.696  11.170
21680W        W86500  44.484  35.599  12.484
21681W        W86501  27.006  20.837   0.882
21682W        W86502  15.516   3.918   3.190
21683W        W86503   8.749  10.847   4.541
21684W        W86504  20.083   6.227   4.084
21685W        W86505  21.752  25.684  11.126
21686W        W86506   8.243   7.454  14.371
21687W        W86507  12.292   4.279  12.792
21688W        W86508  41.868  38.089  10.924
21689W        W86509  26.006   8.869  14.343
21690W        W86510  19.058  38.501   0.886
21691W        W86511   2.313  34.851   2.611
21692W        W86512   6.407  41.091   3.608
21693W        W86513   4.363  22.433   3.187
21694W        W86514  22.725   1.537  11.635
21695W        W86515   0.523  10.069   4.161
21696W        W86516   3.117  26.582  10.137
21697W        W86517  23.978  17.277  11.749
21698W        W86518  16.156  32.574   4.267
21699W        W86519   4.669   2.004  14.918
21700W        W86520  27.169   9.866  11.962
21701W        W86521  44.308  11.127  14.953
21702W        W86522  23.579  27.079   1.849
21703W        W86523   2.719  24.245  14.324
21704W        W86524  22.264  21.294   3.435
21705W        W86525  14.042  31.223   1.361
21706W        W86526  40.146  15.121  13.950
21707W        W86527  24.290   8.808   0.222
21708W        W86528  37.379   7.344  10.279
21709W        W86529  24.318  36.299   4.703
21710W        W86530  18.578  44.322  13.358
21711W        W86531  35.768  12.249   4.542
21712W        W86532  13.264  44.432  12.369
21713W        W86533  11.517   5.663  13.380
21714W        W86534   7.710  44.126   2.060
21715W        W86535  17.815  42.996   0.371
21716W        W86536  20.025  38.993  11.585
21717W        W86537  26.457  28.717  14.504
21718W        W86538   9.099  17.784   1.375
21719W        W86539   9.483  26.590   3.758
21720W        W86540  14.367  15.426   4.787
21721W        W86541  36.594  37.047   3.245
21722W        W86542  38.909  34.040   1.362
21723W        W86543  11.168  25.349  10.844
21724W        W86544  36.429  19.613  11.578
21725W        W86545  32.522  24.910  14.935
21726W        W86546  43.793  10.220   1.090
21727W        W86547  31.442  21.093   4.563
21728W        W86548  16.284  21.756   1.790
21729W        W86549  13.207   4.499   3.326
21730W        W86550  18.770   7.331  11.876
21731W        W86551  18.513   6.865  10.694
21732W        W86552  22.003  16.243  13.812
21733W        W86553  14.650  30.934  12.519
21734W        W86554  22.540   4.734   1.177
21735W        W86555  33.028   5.337  11.215
21736W        W86556  18.054  21.227   4.628
21737W        W86557  27.492  23.217  12.989
21738W        W86558  11.862  44.942   3.897
21739W        W86559  15.894   5.861  11.444
21740W        W86560   0.995   2.499   0.130
21741W        W86561  22.046  41.075   2.208
21742W        W86562  23.399  41.343   2.773
21743W        W86563  33.604  43.002  13.602
21744W        W86564  34.113  16.843  12.543
21745W        W86565   5.433   0.335  11.613
21746W        W86566   0.873   3.202  12.033
21747W        W86567   6.855  32.682   2.740
21748W        W86568  17.123  29.626   4.572
21749W        W86569   3.933  19.590   2.699
21750W        W86570  36.887  43.125  12.336
21751W        W86571  34.602   9.813  10.279
21752W        W86572   1.376  38.021  13.856
21753W        W86573  11.603  10.691  11.165
21754W        W86574  40.033  16.740  12.400
21755W        W86575   1.400  24.119   2.901
21756W        W86576  30.125  13.083   4.852
21757W        W86577  17.340  10.944   9.601
21758W        W86578   3.795   8.630   4.161
21759W        W86579  27.662   0.244   3.750
21760W        W86580  22.070   6.422  12.174
21761W        W86581  29.944  43.265  14.697
21762W        W86582  40.887  38.096   4.149
21763W        W86583  20.214  44.306  12.167
21764W        W86584  44.451  17.768  12.607
21765W        W86585  27.232   8.890  11.023
21766W        W86586  37.611  40.818  10.688
21767W        W86587  18.210  23.089  12.578
21768W        W86588  10.085   6.286   2.856
21769W        W86589  32.345  17.703   0.256
21770W        W86590   9.841  13.076  13.103
21771W        W86591  23.708  23.893  11.569
21772W        W86592  22.663  26.618   3.301
21773W        W86593  41.072  44.341  14.258
21774W        W86594   5.841  10.537   0.342
21775W        W86595  35.753  39.833  12.474
21776W        W86596  16.248  20.479   2.733
21777W        W86597  30.516   5.636  13.574
21778W        W86598  11.688  19.138  14.899
21779W        W86599   0.469  21.889   1.280
21780W        W86600   9.762  21.330   0.798
21781W        W86601  29.599   5.399   4.074
21782W        W86602  25.083  19.512  14.001
21783W        W86603  44.785   2.461  13.798
21784W        W86604   5.886   2.737  11.593
21785W        W86605  14.792  33.292   0.339
21786W        W86606  22.299   1.410  13.523
21787W        W86607  14.708  13.590   2.682
21788W        W86608  26.663   1.048   4.997
21789W        W86609  37.964   6.534  11.149
21790W        W86610   6.798   7.862  11.036
21791W        W86611  19.000   6.412  11.410
21792W        W86612  33.776   9.975  14.399
21793W        W86613   8.803  28.200   1.810
21794W        W86614  39.767   8.805   3.170
21795W        W86615  23.278  28.736   3.757
21796W        W86616   4.236  38.374   4.596
21797W        W86617  32.666  32.356   4.115
21798W        W86618  44.376  28.355  11.072
21799W        W86619  17.005  31.158  13.923
21800W        W86620  26.820  36.071  12.783
21801W        W86621  39.862  16.350  14.245
21802W        W86622  30.663   0.428   4.566
21803W        W86623  42.637  16.568  13.798
21804W        W86624   8.076  31.233   1.848
21805W        W86625  43.748  42.762   4.564
21806W        W86626   0.483  39.551  10.750
21807W        W86627  28.115  21.030  10.601
21808W        W86628  31.783  30.031   0.791
21809W        W86629   6.160  16.138   3.811
21810W        W86630   8.366  42.246   3.249
21811W        W86631  40.547  11.769  11.199
21812W        W86632  15.229   4.535   1.134
21813W        W86633   4.429   0.581   0.275
21814W        W86634  32.305  35.402  11.900
21815W        W86635   2.156  15.062  12.140
21816W        W86636  21.078  10.402   4.510
21817W        W86637  19.704  35.810   1.893
21818W        W86638  16.522  33.142  10.590
21819W        W86639   3.964  17.696   0.415
21820W        W86640  23.138  16.521   3.195
21821W        W86641  14.148  40.712   2.340
21822W        W86642  26.729  15.175  13.377
21823W        W86643  16.092   0.402  10.060
21824W        W86644  27.415  33.118   2.658
21825W        W86645  34.336  12.149   0.259
21826W        W86646   8.379   4.658   0.484
21827W        W86647  22.023  40.899  13.858
21828W        W86648  16.543  18.067   3.719
21829W        W86649  31.063  29.104   1.785
21830W        W86650  29.004  15.767   4.647
21831W        W86651  12.420  16.333  11.936
21832W        W86652  29.410  19.403  11.153
21833W        W86653   0.234  43.905   0.333
21834W        W86654  14.896  15.691   1.772
21835W        W86655   3.233  23.719   0.740
21836W        W86656  12.769  18.090   1.234
21837W        W86657  23.862  37.084   2.200
21838W        W86658  26.007  14.657   4.379
21839W        W86659  28.659  34.535   3.705
21840W        W86660   9.303  33.673  11.937
21841W        W86661  19.659  20.692   2.787
21842W        W86662  23.176  27.437   4.000
21843W        W86663  41.939   4.225  12.314
21844W        W86664  32.063  37.873   2.171
21845W        W86665  20.147  12.205   4.215
21846W        W86666  19.296   1.970  10.685
21847W        W86667   8.684  16.677   2.829
21848W        W86668  17.661   4.266  14.301
21849W        W86669   8.382   9.341   2.633
21850W        W86670  18.866  25.990   3.922
21851W        W86671   2.719  19.533   4.612
21852W        W86672  33.053  20.680   0.282
21853W        W86673  10.764  23.422  11.202
21854W        W86674  15.882   1.864  13.941
21855W        W86675  13.033  19.072  11.762
21856W        W86676  11.581  16.128  12.025
21857W        W86677  11.949  18.697  14.978
21858W        W86678   7.461  12.425  11.055
21859W        W86679  39.798  27.914  11.139
21860W        W86680   5.852   4.697   1.700
21861W        W86681  34.534   2.403   1.040
21862W        W86682  12.093  40.979   1.230
21863W        W86683   1.396  10.275  10.512
21864W        W86684  29.749  36.444  13.579
21865W        W86685  34.083  38.957   4.310
21866W        W86686   2.297  11.649  11.845
21867W        W86687  16.211   7.422  11.585
21868W        W86688  24.571  31.802  13.842
21869W        W86689  31.490  33.412  14.799
21870W        W86690   4.641  36.864  10.606
21871W        W86691  12.678   7.185   1.323
21872W        W86692  39.531  37.798  14.010
21873W        W86693  31.457  41.387   3.309
21874W        W86694  39.594   1.910   1.932
21875W        W86695  36.190  13.997   4.559
21876W        W86696  44.399  11.672  13.883
21877W        W86697  36.114  19.654   0.879
21878W        W86698  12.674   5.041  12.488
21879W        W86699  32.531  29.548  14.108
21880W        W86700  32.978  34.766  10.764
21881W        W86701   8.281  10.234   0.130
21882W        W86702  33.432  14.179  14.837
21883W        W86703   5.887  33.824   1.272
21884W        W86704  19.005   8.878   0.680
21885W        W86705  15.230  10.250   4.955
21886W        W86706  26.468  43.000  11.951
21887W        W86707   1.080  31.356   3.580
21888W        W86708  24.237  24.197   2.239
21889W        W86709   4.786  43.948   2.787
21890W        W86710  19.963  13.941   5.470
21891W        W86711   5.504  42.293   0.439
21892W        W86712  20.170  11.874  11.185
21893W        W86713  23.722  33.060  10.653
21894W        W86714  29.074  22.959  14.878
21895W        W86715  20.763  26.237   3.252
21896W        W86716  14.311   4.903  11.688
21897W        W86717  43.530  41.715   3.994
21898W        W86718   9.363  24.722   1.824
21899W        W86719   2.639   3.758   1.670
21900W        W86720   8.396   4.896   5.150
21901W        W86721  15.091  44.411  11.441
21902W        W86722  40.934  10.623  10.693
21903W        W86723  15.101  16.466  11.119
21904W        W86724  42.766  15.711   0.861
21905W        W86725  29.722   6.485   0.382
21906W        W86726  15.951   8.179  12.050
21907W        W86727   1.416  18.313  10.683
21908W        W86728  13.318  44.358   1.415
21909W        W86729  35.260  30.483   0.749
21910W        W86730  18.981   7.314   1.942
21911W        W86731   4.253  15.441  13.682
21912W        W86732  25.523   8.503  12.575
21913W        W86733   4.017  32.381  11.115
21914W        W86734  13.662  10.091   1.846
21915W        W86735   6.313   0.740  10.779
21916W        W86736  14.368  25.270  12.803
21917W        W86737  41.546  22.972   2.286
21918W        W86738  15.224  43.239  11.639
21919W        W86739  43.118  44.886   3.847
21920W        W86740   9.565  12.650  12.276
21921W        W86741   9.288  44.329   0.790
21922W        W86742   6.227  23.664  10.316
21923W        W86743   6.274  43.463  10.711
21924W        W86744  16.109  34.356   3.620
21925W        W86745  41.926   0.464   0.676
21926W        W86746   4.556  26.069   3.391
21927W        W86747  34.650  16.213   1.845
21928W        W86748  21.298  13.887   1.317
21929W        W86749  44.075  30.096  12.337
21930W        W86750  40.887   0.058   1.470
21931W        W86751   7.160  33.143   4.609
21932W        W86752  13.610   6.324  12.987
21933W        W86753  11.083  41.009   4.706
21934W        W86754  10.233  25.949   4.895
21935W        W86755   8.374  13.344  11.943
21936W        W86756  42.342   4.355   0.567
21937W        W86757   0.953  18.288  13.126
21938W        W86758   8.605  17.746  13.244
21939W        W86759  13.497   5.576  14.333
21940W        W86760   8.875   8.911  11.037
21941W        W86761   0.770  34.173   0.870
21942W        W86762  21.201  23.215   4.703
21943W        W86763  36.793  30.724  14.775
21944W        W86764  29.624  43.824  12.584
21945W        W86765  21.174  42.800   3.129
21946W        W86766  22.635  10.703  12.186
21947W        W86767  36.913  26.608   4.388
21948W        W86768  30.407   7.732   0.882
21949W        W86769   5.914   5.441  11.550
21950W        W86770  14.591  19.038   2.865
21951W        W86771  41.542   8.859  10.850
21952W        W86772  29.031  36.606   3.822
21953W        W86773  19.779  14.432  11.174
21954W        W86774  20.272  33.602  14.524
21955W        W86775   6.584  37.159  13.916
21956W        W86776  31.572  40.997  12.476
21957W        W86777  39.491  29.821  14.440
21958W        W86778  27.047  29.043   4.136
21959W        W86779  27.586  42.558   1.782
21960W        W86780  41.952  33.865   2.890
21961W        W86781   4.543  28.969   4.061
21962W        W86782  26.008  22.096  14.777
21963W        W86783  42.038  29.293  12.453
21964W        W86784   5.664  23.860  10.290
21965W        W86785  30.454   5.382  14.042
21966W        W86786  18.187  35.404   1.770
21967W        W86787   2.397  34.433   2.887
21968W        W86788  15.621  33.385  11.470
21969W        W86789  10.317   9.581  14.897
21970W        W86790   0.126  22.027  13.193
21971W        W86791  33.619  19.386   2.281
21972W        W86792  37.341   5.369   0.287
21973W        W86793   0.615  34.608  12.361
21974W        W86794  13.192  34.578  14.908
21975W        W86795  36.573  13.362   3.240
21976W        W86796  27.477   6.374   0.431
21977W        W86797  19.994  42.454   1.906
21978W        W86798  26.832   0.951   2.817
21979W        W86799   7.826  11.250   1.401
21980W        W86800   0.300  25.914   2.131
21981W        W86801  30.459  34.655  12.973
21982W        W86802  30.179  18.378  13.304
21983W        W86803  23.383   9.257  13.551
21984W        W86804   2.965  34.207  13.980
21985W        W86805  38.346  44.152  12.788
21986W        W86806   6.263   7.716  13.992
21987W        W86807   7.891   5.322   0.050
21988W        W86808   5.477  32.091   3.348
21989W        W86809  12.129  36.085   0.801
21990W        W86810  11.937   0.279  13.229
21991W        W86811  11.455  16.681  12.037
21992W        W86812  38.584  16.129  13.984
21993W        W86813  22.335  36.893   1.992
21994W        W86814   6.766  41.317  12.118
21995W        W86815  26.114   7.743   4.521
21996W        W86816  32.429  32.033   3.049
21997W        W86817  44.573  23.926  14.373
21998W        W86818   3.854  13.714   4.142
21999W        W86819  11.906   2.324   4.798
22000W        W86820   0.389  21.782  10.402
22001W        W86821   8.238   3.824   3.361
22002W        W86822  36.444  20.639  10.731
22003W        W86823   9.319   8.631  11.093
22004W        W86824  32.538  27.908  13.966
22005W        W86825   0.686  39.915   0.666
22006W        W86826  13.698  27.804   3.197
22007W        W86827   9.366  28.097  12.761
22008W        W86828  29.968  27.576  14.186
22009W        W86829  37.051  11.316   3.042
22010W        W86830  26.712  19.984   2.679
22011W        W86831  10.298  41.475  11.615
22012W        W86832   8.371  13.678  13.794
22013W        W86833  29.771  20.343  11.135
22014W        W86834   7.414   1.336   4.753
22015W        W86835  22.413   8.140   0.481
22016W        W86836   7.753  43.552  12.406
22017W        W86837  13.007  38.972  10.690
22018W        W86838  14.309  37.656  11.573
22019W        W86839   4.216   0.739   1.827
22020W        W86840  12.441  33.897   4.304
22021W        W86841  25.014  27.187   3.889
22022W        W86842   2.360   5.337   4.108
22023W        W86843  32.863   9.141   2.399
22024W        W86844   1.746   0.552  14.233
22025W        W86845  30.543  22.196  13.613
22026W        W86846  26.964  43.246   2.872
22027W        W86847  24.376   3.827  13.381
22028W        W86848  41.418  12.846   0.708
22029W        W86849  14.267   7.748   3.994
22030W        W86850   7.627  35.800  14.449
22031W        W86851  37.494  18.258  14.720
22032W        W86852   2.514  21.712  11.571
22033W        W86853  41.078   4.810  12.644
22034W        W86854  19.267  35.213  10.946
22035W        W86855   3.025  34.919  13.305
22036W        W86856  11.218  25.202   0.590
22037W        W86857  23.859   7.913   0.243
22038W        W86858  23.754  23.020   1.351
22039W        W86859  17.236  44.767   1.659
22040W        W86860   1.963  41.641  13.519
22041W        W86861  29.470  41.519  13.021
22042W        W86862   8.632  28.056  14.354
22043W        W86863  10.122  20.977  10.638
22044W        W86864  43.119  18.156   3.584
22045W        W86865   2.691  44.068  13.495
22046W        W86866  15.543   3.364   0.935
22047W        W86867  39.431  12.951  14.941
22048W        W86868  24.421   1.474  10.834
22049W        W86869  23.351   9.933  11.062
22050W        W86870  11.784  36.052   3.007
22051W        W86871  26.233   5.435   2.172
22052W        W86872  35.519   5.742  10.684
22053W        W86873   9.091   3.373   2.392
22054W        W86874  30.610  15.634   9.735
22055W        W86875  31.517  44.590  11.660
22056W        W86876   9.420  10.731   1.816
22057W        W86877  34.314  38.077  10.935
22058W        W86878   5.763  18.177   3.630
22059W        W86879   4.883  31.299  12.144
22060W        W86880  14.772  41.969   1.741
22061W        W86881   8.811  13.855   1.297
22062W        W86882  40.599  24.759   2.423
22063W        W86883  10.535  21.029  12.319
22064W        W86884  41.611  24.517   3.154
22065W        W86885   4.263  27.032   3.745
22066W        W86886   5.670  17.171   4.181
22067W        W86887   4.288   5.536   0.774
22068W        W86888  24.387  16.706   1.211
22069W        W86889  22.160  32.061  10.669
22070W        W86890  21.636   3.511  12.739
22071W        W86891   5.827  11.868   4.676
22072W        W86892  25.396  40.799   5.045
22073W        W86893  38.092   5.778   0.242
22074W        W86894  20.020   1.511  11.154
22075W        W86895  15.777  24.460   0.324
22076W        W86896  14.088  24.485   0.817
22077W        W86897   5.924   6.401   0.494
22078W        W86898  13.325  41.441   4.647
22079W        W86899  21.688  42.960  14.778
22080W        W86900  32.205  44.033  10.322
22081W        W86901  33.364  43.338   3.557
22082W        W86902  26.538   1.786   0.164
22083W        W86903   7.827  17.668   9.759
22084W        W86904  17.648  42.395  12.464
22085W        W86905  32.912   1.453   3.270
22086W        W86906  42.197   0.865  11.140
22087W        W86907   7.150  29.082  12.385
22088W        W86908   7.814  39.520  14.820
22089W        W86909  38.273  44.267  12.280
22090W        W86910   5.323  42.207   2.838
22091W        W86911  14.659  27.929  11.385
22092W        W86912  41.290  28.478   1.851
22093W        W86913  24.119  37.006  10.754
22094W        W86914  42.869  21.294   2.228
22095W        W86915   8.567  20.718   4.467
22096W        W86916  36.546  39.598  12.933
22097W        W86917  39.445   0.413  14.405
22098W        W86918  20.223   2.360   2.103
22099W        W86919   9.848   1.750  10.778
22100W        W86920   0.449  38.302   0.941
22101W        W86921  34.496  40.087  13.001
22102W        W86922  41.488  25.035   4.058
22103W        W86923  24.938  39.882  14.809
22104W        W86924  27.599  28.933   4.228
22105W        W86925  18.588  20.062   1.960
22106W        W86926  13.570  18.813   0.968
22107W        W86927  10.214  34.022  11.516
22108W        W86928  32.441  29.672   4.625
22109W        W86929  24.380  15.011  12.028
22110W        W86930  37.585  25.091   0.547
22111W        W86931  38.049  39.159  10.070
22112W        W86932  16.315  32.727   0.512
22113W        W86933   7.848  34.716  13.918
22114W        W86934  13.145  17.707   1.259
22115W        W86935  39.527  15.192  12.190
22116W        W86936   1.350   6.007  11.058
22117W        W86937  34.954  35.600   2.121
22118W        W86938   0.233  24.894   2.330
22119W        W86939   1.778   0.017  14.770
22120W        W86940  36.029  39.837   4.691
22121W        W86941  11.035  10.591   1.161
22122W        W86942   3.863  11.100  12.089
22123W        W86943  33.160  26.681   1.768
22124W        W86944   7.820  24.670  13.218
22125W        W86945  18.358   4.867  11.033
22126W        W86946  21.017   0.212   1.271
22127W        W86947  43.336   4.824  14.966
22128W        W86948  21.037  35.695   0.271
22129W        W86949   9.899  24.705   1.848
22130W        W86950  12.061  13.401   1.964
22131W        W86951   6.115  43.560   4.155
22132W        W86952  12.051   1.553  13.945
22133W        W86953  40.837  33.551   4.393
22134W        W86954   5.142  37.354   0.995
22135W        W86955  25.286  23.673  12.631
22136W        W86956  20.140  14.800   0.764
22137W        W86957  14.069   8.182   3.085
22138W        W86958  24.156  16.818  14.786
22139W        W86959  32.847  11.623  13.429
22140W        W86960  44.332  33.711   4.147
22141W        W86961  15.201  44.876  14.286
22142W        W86962   6.648  12.410   3.765
22143W        W86963  16.816   6.732  13.619
22144W        W86964  21.320  22.601  13.570
22145W        W86965  10.611  10.901   2.542
22146W        W86966  40.314  20.641   3.898
22147W        W86967  21.669   2.674  14.736
22148W        W86968  19.761   1.244  12.728
22149W        W86969  28.476  10.086  13.530
22150W        W86970   6.549   6.740   4.184
22151W        W86971  25.053  40.399  14.936
22152W        W86972  36.287  27.569  13.991
22153W        W86973  23.628   5.857   2.821
22154W        W86974  16.124  29.669  13.443
22155W        W86975  42.320   0.439   2.371
22156W        W86976  30.117   3.680   0.229
22157W        W86977   6.413  20.094  12.879
22158W        W86978   2.783   0.538  12.645
22159W        W86979  41.279  29.412  12.117
22160W        W86980  10.523   0.411  12.113
22161W        W86981  30.981  15.252  14.967
22162W        W86982  43.853  24.968   2.686
22163W        W86983   4.324  10.650   1.230
22164W        W86984   4.361   2.894  11.584
22165W        W86985  34.924   1.868  13.992
22166W        W86986   2.166  22.049   2.890
22167W        W86987  29.165  19.023   1.241
22168W        W86988   6.436  21.216  11.955
22169W        W86989  32.398   0.250   3.281
22170W        W86990  14.550  15.507   0.155
22171W        W86991   6.833  11.641   0.061
22172W        W86992  12.148  41.313  11.252
22173W        W86993  10.718   7.847   4.935
22174W        W86994  18.153  36.962  11.258
22175W        W86995  41.786  26.623   1.918
22176W        W86996  23.802  16.908  10.312
22177W        W86997  36.356  29.607   1.251
22178W        W86998  28.056  33.390   1.190
22179W        W86999   2.414  11.148   4.746
22180W        W87000  15.070   5.029  10.175
22181W        W87001   8.369  26.883  14.925
22182W        W87002   0.702  25.010   9.654
22183W        W87003  13.439  15.627   3.125
22184W        W87004   5.912  12.643   1.853
22185W        W87005  31.915  26.073   2.144
22186W        W87006  13.354  18.494  14.958
22187W        W87007   2.386  31.785  14.296
22188W        W87008  32.523  37.130  12.983
22189W        W87009  21.291   8.236  14.513
22190W        W87010  14.522  25.775  12.926
22191W        W87011  31.503  29.986  12.831
22192W        W87012  28.605   3.210   2.332
22193W        W87013  12.345  26.044  11.459
22194W        W87014  31.337  25.012  14.327
22195W        W87015   9.942  30.965  13.382
22196W        W87016  31.497  44.419  14.748
22197W        W87017  27.831  21.230   1.222
22198W        W87018  30.536  24.947   2.212
22199W        W87019  21.781  35.495  12.999
22200W        W87020  31.185   6.525  11.175
22201W        W87021  44.991  21.156  13.609
22202W        W87022  22.099  35.607   2.233
22203W        W87023  37.524  23.795   1.913
22204W        W87024   3.985   6.037  11.525
22205W        W87025  16.423   9.669  14.332
22206W        W87026  34.098  22.553  12.507
22207W        W87027  13.450  33.602  12.977
22208W        W87028  28.928   7.932  11.977
22209W        W87029  41.754  24.193  10.586
22210W        W87030  16.383  21.981  12.433
22211W        W87031  41.479  28.993  11.201
22212W        W87032  19.025  13.814  13.316
22213W        W87033  14.389  30.046   3.544
22214W        W87034  27.004  40.659  14.985
22215W        W87035  26.571   9.311  10.533
22216W        W87036  15.308  20.835  10.757
22217W        W87037  31.093  44.025   3.166
22218W        W87038  37.665   8.139   2.578
22219W        W87039  19.822  14.375  14.867
22220W        W87040  11.798  30.875  13.110
22221W        W87041  10.371  13.295   3.337
22222W        W87042   3.471  21.057  14.522
22223W        W87043  43.415  44.267  12.972
22224W        W87044  13.770  24.111   0.619
22225W        W87045  14.006   6.289  14.397
22226W        W87046  32.864   5.865   0.473
22227W        W87047  18.617   3.354   4.018
22228W        W87048  37.840  17.277   0.927
22229W        W87049  18.037   7.467  11.205
22230W        W87050   3.965  27.601   0.468
22231W        W87051  16.529  29.443   1.355
22232W        W87052  38.904  21.417   3.274
22233W        W87053  12.676   3.766   3.288
22234W        W87054  23.602  16.744  12.551
22235W        W87055   3.268  15.588   5.090
22236W        W87056  15.589  18.614   2.361
22237W        W87057  11.244  33.715   0.346
22238W        W87058  12.271  27.471   5.424
22239W        W87059   5.611  21.616   5.423
22240W        W87060  24.809   5.287   4.790
22241W        W87061  32.947  34.361  14.432
22242W        W87062  16.260   2.273   1.820
22243W        W87063  14.208  33.113   4.794
22244W        W87064   8.994   0.749   1.162
22245W        W87065  38.985   1.914  12.860
22246W        W87066  25.505   1.271  13.086
22247W        W87067  40.031  33.845   0.504
22248W        W87068  15.263  39.492  10.609
22249W        W87069  16.218  27.491  14.018
22250W        W87070  18.928  16.575   2.139
22251W        W87071  21.824  26.018  13.131
22252W        W87072  13.346  11.707   3.236
22253W        W87073   0.500   2.783  10.939
22254W        W87074  13.779  31.851   4.238
22255W        W87075  10.155   5.238  11.554
22256W        W87076  16.260  13.336   1.604
22257W        W87077  27.967  31.626  10.448
22258W        W87078  38.101  16.745  13.497
22259W        W87079  39.463  32.681  14.012
22260W        W87080   1.985  23.849  13.958
22261W        W87081   0.018  27.261  10.686
22262W        W87082  18.569  20.815  12.985
22263W        W87083  34.525  22.061  11.819
22264W        W87084  20.607  31.282  14.917
22265W        W87085  12.598   0.240  12.441
22266W        W87086  24.449  44.753  11.601
22267W        W87087  24.632  18.641   3.748
22268W        W87088  42.308  44.715   4.639
22269W        W87089  43.777  25.098   0.365
22270W        W87090   3.173  44.902  11.505
22271W        W87091  34.973  23.332   0.228
22272W        W87092  29.133  24.980   0.671
22273W        W87093  19.752  20.199  11.868
22274W        W87094  22.948   3.041  10.570
22275W        W87095  37.926  44.101   4.190
22276W        W87096  43.107   0.802  12.442
22277W        W87097  23.657  26.234   3.647
22278W        W87098   2.907  34.398   0.775
22279W        W87099  43.297  12.178  12.683
22280W        W87100  21.041  44.079   0.693
22281W        W87101  14.460  18.350   0.798
22282W        W87102  20.314  16.312   0.878
22283W        W87103   9.870  39.579  13.835
22284W        W87104  35.338  37.831  12.936
22285W        W87105  10.825  12.079   4.385
22286W        W87106  26.364   5.088  13.271
22287W        W87107   3.816  29.894   3.760
22288W        W87108  39.299  32.409   3.757
22289W        W87109  32.878  39.367  12.004
22290W        W87110  27.821   0.156  10.922
22291W        W87111  26.748   1.459  13.866
22292W        W87112  14.907  33.945  11.502
22293W        W87113  12.335  40.834   4.037
22294W        W87114   3.782  28.624  14.812
22295W        W87115  33.542   4.760  14.502
22296W        W87116   7.363  22.597   3.621
22297W        W87117   4.165   8.902   2.833
22298W        W87118  41.271  32.062   1.201
22299W        W87119  21.889   8.299  14.807
22300W        W87120  39.107  21.949  13.450
22301W        W87121  22.613   4.354  13.326
22302W        W87122   8.768   3.622   1.262
22303W        W87123  32.662  23.041  14.915
22304W        W87124   8.342  44.991   2.873
22305W        W87125   9.229  39.372   1.886
22306W        W87126   0.008  21.138  14.987
22307W        W87127   7.448  43.554  13.341
22308W        W87128   7.283  32.641   1.418
22309W        W87129  43.101  24.601  14.282
22310W        W87130   0.979  23.971  12.921
22311W        W87131   1.309   1.420  12.140
22312W        W87132  23.603  36.797   9.971
22313W        W87133   4.205  30.131   4.072
22314W        W87134  30.868  25.566   3.202
22315W        W87135   3.714  19.150  11.647
22316W        W87136  12.717  30.352   0.059
22317W        W87137   2.555  13.526   3.889
22318W        W87138  14.671   1.564  13.430
22319W        W87139  19.201  40.810  13.377
22320W        W87140  13.324  38.943   2.397
22321W        W87141  10.410   6.110  10.651
22322W        W87142  25.669  22.298  10.986
22323W        W87143  17.552  24.152  13.090
22324W        W87144  29.238  16.522   4.106
22325W        W87145  44.811  30.552  14.476
22326W        W87146  21.295  27.033  10.751
22327W        W87147  43.692   0.770   0.412
22328W        W87148  39.597  32.852   3.791
22329W        W87149  42.411  24.231  13.744
22330W        W87150  15.570  25.577  14.307
22331W        W87151  13.707  36.490   1.647
22332W        W87152  22.710  38.862  10.629
22333W        W87153   0.297   3.354  12.108
22334W        W87154  27.935  23.543   2.757
22335W        W87155  29.934   3.757   2.234
22336W        W87156  41.057  39.549  14.890
22337W        W87157  35.341   9.423  10.106
22338W        W87158   8.681  37.361  12.416
22339W        W87159  21.150   2.097   4.561
22340W        W87160   7.450  27.663  12.234
22341W        W87161  28.163  29.531  13.881
22342W        W87162   9.655  23.463   2.703
22343W        W87163  30.925  24.285   2.728
22344W        W87164  25.376  22.867   0.828
22345W        W87165  34.962   8.922  11.733
22346W        W87166  27.413  37.418   4.510
22347W        W87167   8.112  29.424   3.082
22348W        W87168  16.241  16.156  14.019
22349W        W87169  10.871   5.593  11.272
22350W        W87170  27.074  26.001   0.025
22351W        W87171  32.516  37.399   0.369
22352W        W87172  19.013  33.324   3.573
22353W        W87173   7.732  11.572  13.124
22354W        W87174  24.993  44.310   3.195
22355W        W87175   6.847  26.929  12.042
22356W        W87176  23.687  10.112   1.346
22357W        W87177  26.431  28.613   3.225
22358W        W87178  16.305  21.432   4.084
22359W        W87179   9.069  34.011  14.076
22360W        W87180  29.836  22.603  11.493
22361W        W87181  11.733  42.276  12.462
22362W        W87182  25.022  42.537  13.449
22363W        W87183   9.104  14.484   4.120
22364W        W87184  31.830  16.119   2.196
22365W        W87185  25.786   3.466   4.558
22366W        W87186  22.395  25.521  12.596
22367W        W87187   5.444  21.235  11.152
22368W        W87188  43.458  35.929   0.416
22369W        W87189  21.160  11.541   0.734
22370W        W87190  18.729  40.634  14.525
22371W        W87191  35.401   7.978  13.952
22372W        W87192  31.670  29.374   4.275
22373W        W87193  15.226  15.068   3.387
22374W        W87194   0.949  22.055   1.378
22375W        W87195   7.649  34.606   1.437
22376W        W87196  17.091  33.900  13.261
22377W        W87197  17.710   2.475  13.962
22378W        W87198  12.977  21.874   3.170
22379W        W87199  15.916  22.665   1.447
22380W        W87200  32.388  27.080  12.931
22381W        W87201  17.725   8.674  10.248
22382W        W87202  25.534   2.851   0.281
22383W        W87203  39.474   2.323   4.020
22384W        W87204  32.048   6.550   1.314
22385W        W87205  29.721  10.299   2.957
22386W        W87206   0.016  18.911   0.384
22387W        W87207   4.168  17.034  10.651
22388W        W87208  17.566  32.377  10.988
22389W        W87209  39.809  22.414  11.148
22390W        W87210  40.954  42.559  11.156
22391W        W87211  40.476  15.401  10.762
22392W        W87212  17.062  32.430   0.984
22393W        W87213  44.382   9.801  14.385
22394W        W87214   2.982  43.260   4.606
22395W        W87215  24.159  43.803   3.103
22396W        W87216  31.366  36.975  10.666
22397W        W87217   0.772  34.088  12.308
22398W        W87218  31.501  32.524  14.785
22399W        W87219  20.054  22.801   0.408
22400W        W87220  41.851  34.659   2.560
22401W        W87221  20.302  21.024   2.299
22402W        W87222  20.145  38.997  12.110
22403W        W87223   1.568  30.938   0.289
22404W        W87224  40.862   7.360  12.964
22405W        W87225   9.754   2.298  10.660
22406W        W87226  37.039  28.186  12.054
22407W        W87227  24.735  19.152   0.981
22408W        W87228  23.380  22.442  14.806
22409W        W87229  34.630  26.470   1.311
22410W        W87230  27.694  29.542   2.797
22411W        W87231  11.214   2.454  13.341
22412W        W87232  23.854   2.914  10.599
22413W        W87233  40.966  17.472  14.344
22414W        W87234  39.036  43.256   4.711
22415W        W87235   6.636  21.703  14.044
22416W        W87236  25.701  10.483   4.971
22417W        W87237   3.638  31.064  11.624
22418W        W87238   6.822   8.090   0.412
22419W        W87239  16.270   0.394  10.609
22420W        W87240  30.323  22.262   3.991
22421W        W87241  18.289  44.273  10.057
22422W        W87242  19.639  44.960   1.955
22423W        W87243  25.073  10.401   3.337
22424W        W87244  40.565   7.010   2.272
22425W        W87245  25.931  44.800  11.507
22426W        W87246  32.587  39.887   1.255
22427W        W87247   4.589  19.452   2.220
22428W        W87248  37.692   9.685  11.717
22429W        W87249  42.015  15.306  13.630
22430W        W87250   3.256  20.251   1.232
22431W        W87251   1.476  26.595  11.430
22432W        W87252  24.979   3.171  11.061
22433W        W87253  42.864   3.812   1.404
22434W        W87254  19.238  25.639  13.470
22435W        W87255  19.528  30.538   3.397
22436W        W87256  38.492  18.365  13.930
22437W        W87257  41.403  13.180  12.548
22438W        W87258  35.905   2.022  13.433
22439W        W87259   2.352  14.249  14.972
22440W        W87260   3.006   7.764   1.943
22441W        W87261   5.911   7.712   3.132
22442W        W87262   3.839  11.600   0.152
22443W        W87263  43.861   0.409  10.723
22444W        W87264  30.767  19.037   4.048
22445W        W87265  21.162  34.026   1.676
22446W        W87266   0.520  34.410   3.388
22447W        W87267  33.032   8.401   1.884
22448W        W87268  36.847  16.580   4.933
22449W        W87269   2.877  38.146   0.837
22450W        W87270  31.785  33.823  14.726
22451W        W87271  20.770  16.212  13.494
22452W        W87272  42.090   4.358  11.429
22453W        W87273  35.705   6.436   2.757
22454W        W87274  26.196   3.687   3.730
22455W        W87275  16.666  17.034  12.995
22456W        W87276  43.896   6.932   2.818
22457W        W87277   9.161   4.425  14.924
22458W        W87278  39.474  17.572  13.966
22459W        W87279   1.993  32.687   3.235
22460W        W87280  19.036  33.987  12.092
22461W        W87281  33.668   1.883  12.019
22462W        W87282   0.096  17.316  10.675
22463W        W87283  40.555  13.295   0.576
22464W        W87284  30.768  29.826   5.073
22465W        W87285  20.323   7.764  12.266
22466W        W87286  42.099  28.623   1.246
22467W        W87287  23.638  28.273  13.423
22468W        W87288   7.912  41.080  12.505
22469W        W87289  36.096   4.851  11.972
22470W        W87290   7.849   1.494   1.343
22471W        W87291  18.317  24.506   3.257
22472W        W87292  29.384  17.697  12.544
22473W        W87293   2.058  22.792  13.151
22474W        W87294   6.699  29.911   4.130
22475W        W87295  11.143  36.493   3.694
22476W        W87296  38.861  26.145  12.251
22477W        W87297  32.370  28.391  14.449
22478W        W87298  23.174  28.416   3.232
22479W        W87299   8.922  24.794   5.500
22480W        W87300  31.907  19.607   0.590
22481W        W87301  37.511  38.334   2.126
22482W        W87302  43.628  14.344  13.938
22483W        W87303  35.072   5.290   0.842
22484W        W87304   0.802   0.850   0.263
22485W        W87305  21.080  16.061  12.392
22486W        W87306  41.955  32.646   1.162
22487W        W87307   2.138  14.510  11.129
22488W        W87308   8.168  43.909   1.839
22489W        W87309  19.255  40.525  11.854
22490W        W87310  22.519  24.333  11.209
22491W        W87311  42.818  20.084   3.231
22492W        W87312  22.592   8.578   4.358
22493W        W87313  32.914  23.088   1.759
22494W        W87314  36.069  19.178   4.773
22495W        W87315  33.296  11.009  14.884
22496W        W87316  41.634   6.681   3.393
22497W        W87317  26.571  12.272  13.532
22498W        W87318  30.589  25.960   1.040
22499W        W87319  34.526  12.942   3.612
22500W        W87320  21.004  29.168   0.967
22501W        W87321  35.077  31.119   4.368
22502W        W87322  39.929   5.732   0.763
22503W        W87323   8.855  26.418   1.231
22504W        W87324   6.838  23.809   4.561
22505W        W87325  12.492  22.053  14.842
22506W        W87326   7.791  33.555  11.693
22507W        W87327  42.973   2.030   1.330
22508W        W87328  16.078   3.210   2.188
22509W        W87329  11.151  40.998   2.808
22510W        W87330  14.577   3.860  11.622
22511W        W87331  40.805   2.450   2.931
22512W        W87332   9.659   0.353  14.053
22513W        W87333  44.150  32.277   1.839
22514W        W87334  21.581  32.993  11.498
22515W        W87335  35.286  42.187   3.261
22516W        W87336  28.675  24.521  13.796
22517W        W87337  16.747  31.170  14.746
22518W        W87338  36.566   9.295  14.016
22519W        W87339  25.505   4.486   2.291
22520W        W87340  32.149  19.734   1.027
22521W        W87341  23.490  23.445  11.206
22522W        W87342  12.452   0.343  14.143
22523W        W87343  39.678  37.247  12.692
22524W        W87344  43.814  31.432  12.856
22525W        W87345  34.361  32.595   3.833
22526W        W87346  30.867  21.544   1.729
22527W        W87347   6.002  18.098  10.743
22528W        W87348  25.600  34.290  10.271
22529W        W87349   9.416  14.183  10.908
22530W        W87350  25.570   8.731   1.774
22531W        W87351  38.846  21.652  12.070
22532W        W87352  28.869  41.091   1.614
22533W        W87353  42.235  20.577   4.630
22534W        W87354   7.736  30.411   2.318
22535W        W87355  23.093  33.407   1.860
22536W        W87356   4.211  36.546   1.657
22537W        W87357   5.593  37.485  11.244
22538W        W87358   8.721  39.731  11.475
22539W        W87359  24.047  18.105   4.115
22540W        W87360  37.633  38.760   1.882
22541W        W87361  39.321  37.438   1.718
22542W        W87362  30.385  15.756  10.493
22543W        W87363  24.087  41.601  14.835
22544W        W87364  25.416   3.648  12.565
22545W        W87365  43.545   5.762  10.759
22546W        W87366  40.022  20.850   1.364
22547W        W87367  21.741  42.844   0.283
22548W        W87368  33.230  39.050  14.433
22549W        W87369   9.242  19.106  10.800
22550W        W87370  37.415  42.728  12.173
22551W        W87371  29.187  21.042  10.717
22552W        W87372  13.715  21.200   0.293
22553W        W87373  22.053   2.721  12.110
22554W        W87374   9.495  24.157   9.562
22555W        W87375  15.801  14.744   1.905
22556W        W87376  36.375  29.709   0.376
22557W        W87377  22.156  13.323   3.091
22558W        W87378  15.735  30.671  10.800
22559W        W87379   9.371  42.098  10.731
22560W        W87380  28.392  36.533  13.468
22561W        W87381  39.929  36.984   0.351
22562W        W87382  38.534   1.207   3.596
22563W        W87383  42.733  28.023   0.280
22564W        W87384   1.422   6.726   1.863
22565W        W87385  13.262   5.441  11.616
22566W        W87386  40.051  18.600  14.850
22567W        W87387  30.934   0.216  14.591
22568W        W87388  42.384   0.916   0.804
22569W        W87389   0.408  11.137   4.385
22570W        W87390  11.707  36.275  11.961
22571W        W87391  17.825  26.397  13.542
22572W        W87392   1.437  11.137  12.037
22573W        W87393   6.865   3.932  12.080
22574W        W87394  34.561   2.995  12.509
22575W        W87395  27.234  19.329  13.393
22576W        W87396   7.264  13.757   2.733
22577W        W87397  23.130  14.086  14.093
22578W        W87398  42.854   9.833   2.859
22579W        W87399  41.404  20.730  14.505
22580W        W87400   4.376   8.245  14.063
22581W        W87401  10.697  37.542   0.676
22582W        W87402  42.568  12.444  12.050
22583W        W87403  28.651  35.485   0.469
22584W        W87404   5.133   8.205  11.209
22585W        W87405   9.344  19.129  12.630
22586W        W87406  19.674  20.159   3.525
22587W        W87407  29.907  24.657   0.638
22588W        W87408  35.118   1.793   2.172
22589W        W87409   4.911  12.538  14.046
22590W        W87410   0.498  43.466  13.999
22591W        W87411  40.341  33.141  10.697
22592W        W87412  28.071   4.951   3.621
22593W        W87413  29.020  41.795  12.917
22594W        W87414  34.897  41.046   1.867
22595W        W87415  34.407  31.817  13.345
22596W        W87416  30.141  31.858   2.840
22597W        W87417   1.447  35.860   3.444
22598W        W87418   8.858  15.378  13.990
22599W        W87419   3.029  33.916  14.426
22600W        W87420  26.083   4.268  13.553
22601W        W87421  33.004  39.419  13.043
22602W        W87422   8.396  39.302   4.162
22603W        W87423  32.989   6.489   1.257
22604W        W87424  26.681  22.024   4.429
22605W        W87425  39.852   9.371   1.341
22606W        W87426  44.812  23.832   2.233
22607W        W87427   8.850  38.055  13.035
22608W        W87428  18.235   9.632  13.346
22609W        W87429  11.583  39.436   0.237
22610W        W87430  39.396  13.497  11.652
22611W        W87431  30.080  24.217   0.441
22612W        W87432  27.336   7.717   1.882
22613W        W87433  36.490  44.971  14.015
22614W        W87434  43.343  22.706  11.176
22615W        W87435  36.145  17.496   0.162
22616W        W87436  29.044  34.750  11.728
22617W        W87437  34.112  21.992   0.401
22618W        W87438   7.324  21.825  13.456
22619W        W87439  20.689   3.011   0.859
22620W        W87440   0.341  28.071   1.089
22621W        W87441  32.816  30.503  11.097
22622W        W87442  14.993   6.778  14.461
22623W        W87443  30.575   6.742   0.777
22624W        W87444  33.084  33.832  10.734
22625W        W87445  18.980  42.377  10.640
22626W        W87446  34.207   7.218   3.463
22627W        W87447  44.343  16.942  13.412
22628W        W87448  43.991  15.336  11.009
22629W        W87449  13.874  39.057  13.928
22630W        W87450  23.095  17.559  11.512
22631W        W87451   8.963  26.709   0.266
22632W        W87452  24.793  13.077  11.590
22633W        W87453  44.195  41.884  11.893
22634W        W87454   2.415  21.282  13.412
22635W        W87455  37.328  15.068  14.438
22636W        W87456  31.643  14.679   3.674
22637W        W87457   2.234  12.250  14.944
22638W        W87458  17.516  28.733  11.156
22639W        W87459  41.377  43.000   0.566
22640W        W87460  21.748  19.334  13.473
22641W        W87461  28.023  39.386  14.140
22642W        W87462   4.493   5.785   1.226
22643W        W87463  40.584   0.896   0.917
22644W        W87464  20.006  22.181  13.997
22645W        W87465  25.723  15.053   2.916
22646W        W87466  33.007   2.960   2.392
22647W        W87467  13.320  21.101   4.484
22648W        W87468  24.699  28.337   4.070
22649W        W87469  20.509  33.602   4.079
22650W        W87470  23.114   0.438  14.273
22651W        W87471  31.333   3.759   3.610
22652W        W87472  32.180   1.327  10.818
22653W        W87473  24.883  21.676   1.240
22654W        W87474  15.108  38.945   1.792
22655W        W87475  15.269   2.009  10.439
22656W        W87476   8.244  14.594   3.576
22657W        W87477  32.295  24.686  12.600
22658W        W87478  12.723  12.309   0.255
22659W        W87479   7.893   3.132   1.369
22660W        W87480   5.871  29.074   2.202
22661W        W87481  17.351  44.948  14.888
22662W        W87482  37.864  35.378  12.908
22663W        W87483  10.919  12.053  11.163
22664W        W87484  18.033  15.544   4.172
22665W        W87485  14.540  18.992  12.903
22666W        W87486  19.811  38.158   2.813
22667W        W87487   8.423   8.655  11.001
22668W        W87488  28.633   1.905  12.889
22669W        W87489   4.212  16.089   2.478
22670W        W87490  27.068  24.562  14.961
22671W        W87491  39.268  15.079  14.941
22672W        W87492  12.120  10.680   3.377
22673W        W87493  40.912   8.621  11.635
22674W        W87494   8.911   3.285  10.379
22675W        W87495  13.999  21.158  14.505
22676W        W87496  24.398  34.361  12.552
22677W        W87497  33.433   8.264  10.717
22678W        W87498  32.389  29.018  13.673
22679W        W87499   1.826  25.420   4.193
22680W        W87500  27.535  26.561   4.511
22681W        W87501  14.041  43.521   2.835
22682W        W87502   2.972  10.850   4.342
22683W        W87503   4.726  43.774  14.147
22684W        W87504   7.355  13.815  12.019
22685W        W87505  25.934  25.787   4.605
22686W        W87506  30.754   8.192  12.475
22687W        W87507  16.377  13.378  12.484
22688W        W87508  41.965  10.908  10.521
22689W        W87509  27.566  34.465   0.277
22690W        W87510  36.029  40.336   3.261
22691W        W87511   7.601   7.935  13.092
22692W        W87512  36.069  23.659  13.008
22693W        W87513   2.695  18.656   2.272
22694W        W87514  22.279  39.543   3.149
22695W        W87515  15.064  25.970   1.821
22696W        W87516  37.621  27.119   1.268
22697W        W87517  20.008  11.362  12.926
22698W        W87518   0.910  28.692  12.927
22699W        W87519  10.666   8.731   0.852
22700W        W87520  13.188  14.685   4.471
22701W        W87521   5.993  36.584  14.416
22702W        W87522  27.636  20.996  11.436
22703W        W87523  18.273  29.632   2.825
22704W        W87524  32.665   1.390  12.563
22705W        W87525  10.632  21.128  10.602
22706W        W87526  25.450  35.436  14.983
22707W        W87527  28.657   4.442   4.063
22708W        W87528  37.550  27.061  13.882
22709W        W87529   9.135   7.954  12.404
22710W        W87530  43.183  22.551   0.819
22711W        W87531  18.660   8.961  13.851
22712W        W87532  41.319  10.527  14.506
22713W        W87533  17.183  23.184   2.212
22714W        W87534  22.664  28.551  10.348
22715W        W87535  19.530   5.184  12.883
22716W        W87536   6.634   5.851   2.854
22717W        W87537  35.274  11.670   4.065
22718W        W87538  18.068  16.299  12.580
22719W        W87539  37.386   0.588   1.835
22720W        W87540  42.227  10.447  14.782
22721W        W87541   1.324  25.710   3.521
22722W        W87542  21.414  15.210  12.076
22723W        W87543  15.182   4.684  11.137
22724W        W87544  10.569  32.366   1.360
22725W        W87545  14.619  17.737   3.156
22726W        W87546   7.393   1.049   0.478
22727W        W87547  43.448  13.557  12.423
22728W        W87548  11.922  19.490  14.076
22729W        W87549  12.607  30.106  12.921
22730W        W87550  16.713  38.017   3.074
22731W        W87551  30.495  33.357  12.490
22732W        W87552  39.649   8.348  13.567
22733W        W87553  20.462  28.682   3.297
22734W        W87554  24.650  34.340  13.890
22735W        W87555  26.761  43.292   2.370
22736W        W87556  12.883  26.589  10.719
22737W        W87557  33.118  35.609  13.784
22738W        W87558  30.880  10.911   1.279
22739W        W87559   8.886  41.957   2.643
22740W        W87560  25.981  40.833  10.701
22741W        W87561   7.569  21.038  10.217
22742W        W87562  43.428   8.843  11.646
22743W        W87563  25.158  28.514   1.983
22744W        W87564  30.850  13.607   1.313
22745W        W87565  36.091   5.217  12.619
22746W        W87566   6.839  42.914  13.398
22747W        W87567  32.325   1.263  13.938
22748W        W87568  41.827  40.869   0.725
22749W        W87569  44.456   3.770  10.586
22750W        W87570   4.586  24.121  14.917
22751W        W87571  41.565  15.550   4.544
22752W        W87572  27.432   3.261   0.466
22753W        W87573  44.287  22.298   3.735
22754W        W87574   5.193  42.260   2.261
22755W        W87575  10.357   5.005   1.301
22756W        W87576  15.753  44.065  12.446
22757W        W87577   6.636  26.404   0.396
22758W        W87578   5.317  29.963   3.852
22759W        W87579   6.365  10.158   3.509
22760W        W87580  10.424   4.324  14.450
22761W        W87581  41.710  15.139   4.249
22762W        W87582  26.191   4.527   2.593
22763W        W87583  20.758  22.607   4.259
22764W        W87584  11.639  24.026   0.788
22765W        W87585  26.904  24.093  14.799
22766W        W87586  35.660  23.386   3.952
22767W        W87587  10.637  31.968   2.307
22768W        W87588   6.319  33.085  13.143
22769W        W87589  22.158  26.478   0.469
22770W        W87590   6.667  23.095  12.065
22771W        W87591  16.209  30.882   4.609
22772W        W87592  18.043  32.410   3.687
22773W        W87593  13.497  19.037   1.455
22774W        W87594  14.228  25.282   2.202
22775W        W87595  35.923  25.997   3.632
22776W        W87596   2.909  30.130   0.166
22777W        W87597  22.648  10.402  11.503
22778W        W87598  31.081  44.072   2.402
22779W        W87599  44.513   3.424  14.899
22780W        W87600  25.617  39.818  10.734
22781W        W87601   4.313   8.121   2.396
22782W        W87602   6.967  26.875  13.586
22783W        W87603  29.104  27.772   4.172
22784W        W87604  15.869   5.874   0.908
22785W        W87605  26.340  11.782  13.498
22786W        W87606  15.045   8.609  12.618
22787W        W87607  26.123  29.942   3.158
22788W        W87608  34.955  32.149  13.995
22789W        W87609  41.405  28.708   3.247
22790W        W87610  21.848   3.208  12.388
22791W        W87611  26.727  11.751   2.851
22792W        W87612   2.932   7.427  11.650
22793W        W87613   2.934   4.926   4.576
22794W        W87614  25.929   6.172  13.261
22795W        W87615  24.483  42.506  10.768
22796W        W87616  25.501  41.898   2.108
22797W        W87617  34.107  39.659   4.078
22798W        W87618   3.857  22.506  13.724
22799W        W87619  31.964   2.364  14.296
22800W        W87620  26.968  32.192  13.474
22801W        W87621   1.407   6.315  13.585
22802W        W87622  28.661  39.942  13.091
22803W        W87623  44.049  12.009  12.139
22804W        W87624  34.650   6.308   4.204
22805W        W87625  33.109  38.570   1.229
22806W        W87626  34.171  19.076   1.203
22807W        W87627  32.360  27.600   0.314
22808W        W87628  17.693  16.119   4.532
22809W        W87629  36.627  15.257   3.696
22810W        W87630  14.604   1.267   2.206
22811W        W87631   8.336  38.028   4.521
22812W        W87632  21.667  25.250  11.398
22813W        W87633   3.880  16.284   1.132
22814W        W87634   0.312  18.818  13.553
22815W        W87635  23.755  43.357  10.721
22816W        W87636   3.744  37.309   3.727
22817W        W87637   2.867   0.209  10.746
22818W        W87638  20.044  26.958  10.662
22819W        W87639  27.721  26.127  14.728
22820W        W87640  13.242  34.976   3.271
22821W        W87641   5.359  17.263  11.160
22822W        W87642   3.330  27.397   2.864
22823W        W87643  42.235  44.913   0.855
22824W        W87644  39.350  43.044  11.540
22825W        W87645   6.726  25.407  10.810
22826W        W87646  10.299   3.533   3.140
22827W        W87647  17.937  20.621   1.360
22828W        W87648  38.014  35.547  11.584
22829W        W87649   1.654  34.568   0.811
22830W        W87650  34.649   7.345  12.967
22831W        W87651   3.868  19.872  14.505
22832W        W87652  25.462  16.180  12.454
22833W        W87653  12.279   5.001  14.508
22834W        W87654  30.853  20.446  14.267
22835W        W87655  23.933  33.413   2.337
22836W        W87656  34.096  22.912   0.229
22837W        W87657  34.587  12.961   1.854
22838W        W87658  40.092  37.469  14.450
22839W        W87659   2.022  35.759  14.581
22840W        W87660  13.070  35.910   3.564
22841W        W87661   3.613  11.020  14.344
22842W        W87662  10.332   5.202  12.553
22843W        W87663  25.630  30.169  14.474
22844W        W87664   3.810  38.363  13.289
22845W        W87665  16.094  19.469   4.959
22846W        W87666  33.577  41.733   1.170
22847W        W87667  22.483   1.485   2.199
22848W        W87668  26.310  12.590   2.092
22849W        W87669  14.186  12.366  12.658
22850W        W87670   1.918   8.948   2.783
22851W        W87671  28.281   2.363   0.432
22852W        W87672  30.500  18.790  13.263
22853W        W87673  36.627  12.217   1.336
22854W        W87674  24.630  10.560   3.560
22855W        W87675  13.133  30.745   4.856
22856W        W87676  14.997  42.920   2.273
22857W        W87677  17.542  36.336  13.622
22858W        W87678  42.808  40.319   0.325
22859W        W87679  25.273  28.102  13.602
22860W        W87680  36.417  24.006  10.696
22861W        W87681  38.515   9.332   2.680
22862W        W87682  38.799   7.191   3.826
22863W        W87683  44.273  17.489   1.740
22864W        W87684  38.780  18.286  11.988
22865W        W87685   3.120  30.346  13.052
22866W        W87686   6.816  17.707   0.762
22867W        W87687  20.253  26.941   2.036
22868W        W87688   6.438   4.653   3.126
22869W        W87689  40.384   7.190  11.599
22870W        W87690  28.949  40.233   1.900
22871W        W87691  36.129   6.327   1.851
22872W        W87692  11.190  31.879   3.722
22873W        W87693  22.731   3.965   1.706
22874W        W87694  28.187  40.401  10.079
22875W        W87695  21.688  20.934  12.337
22876W        W87696  41.393  14.175  12.252
22877W        W87697  32.039  13.523   0.760
22878W        W87698  43.576  20.819  13.574
22879W        W87699  23.753   0.473   2.711
22880W        W87700  42.305  31.035  10.679
22881W        W87701  18.209  24.183   2.474
22882W        W87702  16.229  43.144  10.677
22883W        W87703  37.738   9.549   1.762
22884W        W87704  34.512   8.407  13.159
22885W        W87705  14.819  16.333   4.636
22886W        W87706  44.788  15.865   5.069
22887W        W87707   5.345   8.699  14.338
22888W        W87708  42.891  25.416   2.826
22889W        W87709  22.728  40.294  10.466
22890W        W87710  24.017  15.315   1.948
22891W        W87711  22.061  24.662   1.233
22892W        W87712  30.045  12.907  11.692
22893W        W87713   3.528  30.525   1.938
22894W        W87714   2.406  26.461  13.350
22895W        W87715  20.224  31.443   4.625
22896W        W87716  36.838  31.147  10.986
22897W        W87717  18.662  27.167   4.356
22898W        W87718  31.940  30.932  11.048
22899W        W87719   5.299  22.109  13.429
22900W        W87720  36.776  41.849  11.099
22901W        W87721  16.411   4.661  13.837
22902W        W87722  39.365   5.241   1.231
22903W        W87723  35.384  20.651   1.021
22904W        W87724   5.306   2.889  14.885
22905W        W87725  22.676  12.612  12.048
22906W        W87726  11.596  29.023   5.300
22907W        W87727  42.969  35.960   1.983
22908W        W87728  17.013  26.548  14.856
22909W        W87729  27.325   5.277  13.320
22910W        W87730  10.128  44.447   3.882
22911W        W87731  26.035  32.062   0.575
22912W        W87732  43.713   0.474   1.334
22913W        W87733   3.268  42.482   1.616
22914W        W87734  27.175   0.443   3.763
22915W        W87735  41.182   5.378   2.260
22916W        W87736  19.251  35.519   1.833
22917W        W87737  44.420  35.470  14.896
22918W        W87738   2.256  32.194   9.937
22919W        W87739  37.558  27.894   3.754
22920W        W87740  30.397  29.712  14.246
22921W        W87741  27.386  27.015  14.536
22922W        W87742  24.513  25.059  13.317
22923W        W87743  43.937  40.966   0.876
22924W        W87744  38.330   3.946   4.751
22925W        W87745  34.385  33.977   3.226
22926W        W87746  28.071   7.265   2.150
22927W        W87747  44.299  35.410  11.061
22928W        W87748  34.968  14.609  11.037
22929W        W87749  28.079  28.635   0.735
22930W        W87750  25.038  17.208   0.818
22931W        W87751  13.897  25.430   4.548
22932W        W87752  33.206  39.089  11.561
22933W        W87753  37.101  22.635  12.355
22934W        W87754   1.962  32.551   1.238
22935W        W87755  41.157  24.969   0.840
22936W        W87756   1.248  42.119   0.282
22937W        W87757   6.592   8.855   0.042
22938W        W87758  28.056  36.571  14.373
22939W        W87759   2.765  23.214  12.537
22940W        W87760  33.335  14.128   1.750
22941W        W87761  28.374  17.551   0.226
22942W        W87762  30.518  16.838  14.029
22943W        W87763   7.764  14.238   4.652
22944W        W87764   2.146  21.403   2.380
22945W        W87765  40.566  35.083   3.414
22946W        W87766  35.092  17.135   0.410
22947W        W87767  26.915  23.304   4.155
22948W        W87768  43.243  26.614  10.722
22949W        W87769  44.441  24.038   1.148
22950W        W87770  31.408  35.813   4.191
22951W        W87771  31.418  29.173   0.469
22952W        W87772  37.378   7.396   0.475
22953W        W87773   8.541  16.635   4.883
22954W        W87774  24.302   2.918  14.570
22955W        W87775  19.490  12.299  11.580
22956W        W87776  13.358  28.151   2.691
22957W        W87777  44.338  10.636   2.139
22958W        W87778  35.594  40.323  12.438
22959W        W87779   7.221  29.596   0.458
22960W        W87780  25.669  39.976   3.776
22961W        W87781   2.328  42.545   3.589
22962W        W87782   7.419  35.142  14.723
22963W        W87783  41.424   9.209  14.050
22964W        W87784  25.448  33.847  13.793
22965W        W87785  30.924  36.545   3.729
22966W        W87786  41.089  26.130   3.377
22967W        W87787  23.713  14.058   3.999
22968W        W87788  37.503  19.269   4.226
22969W        W87789   5.697  43.404   0.430
22970W        W87790  16.795  25.547  12.070
22971W        W87791  38.437  31.877  14.833
22972W        W87792  44.844  15.336  12.381
22973W        W87793  43.260  31.470  12.872
22974W        W87794  14.234  17.022   3.721
22975W        W87795  34.523  27.672  10.634
22976W        W87796  43.389  20.259   4.106
22977W        W87797   2.892   3.502   3.390
22978W        W87798  22.181   1.809  12.015
22979W        W87799  32.565  11.898   1.160
22980W        W87800  27.911  27.546  14.463
22981W        W87801  34.520  15.927  14.356
22982W        W87802  38.979  37.474   3.327
22983W        W87803  10.435  25.319   3.632
22984W        W87804  13.129  20.285  10.712
22985W        W87805   0.495  26.911  11.610
22986W        W87806   8.203  31.635  13.341
22987W        W87807  32.694  21.511   3.660
22988W        W87808  40.963  24.219   0.344
22989W        W87809  35.026  42.253  10.465
22990W        W87810  39.422  39.434  12.105
22991W        W87811  18.745  10.747  12.955
22992W        W87812  43.839  19.275   4.594
22993W        W87813  28.574  25.215   2.323
22994W        W87814   3.915   8.894  14.311
22995W        W87815  39.157  41.867   3.950
22996W        W87816   8.679  20.602   4.944
22997W        W87817  17.252  41.620  12.091
22998W        W87818  17.523  20.728  10.387
22999W        W87819  43.080  36.048  11.908
23000W        W87820   8.950   5.374  13.909
23001W        W87821  10.595  16.223  13.848
23002W        W87822   3.847  24.053   1.950
23003W        W87823  36.317  42.981   3.621
23004W        W87824  11.599  41.038   4.728
23005W        W87825   8.690  10.136   1.905
23006W        W87826  40.843  14.294  14.893
23007W        W87827  11.140  27.165  14.962
23008W        W87828   7.235  40.322  13.903
23009W        W87829  10.814   6.372  14.319
23010W        W87830  41.517  24.182  13.155
23011W        W87831   2.785  15.323  14.374
23012W        W87832   8.284  11.078   0.459
23013W        W87833  21.064   4.376  12.990
23014W        W87834   5.789  42.966   1.715
23015W        W87835   7.998  26.439   0.595
23016W        W87836  36.620  23.301   3.129
23017W        W87837  11.288  44.110  11.660
23018W        W87838  20.723   3.251  14.802
23019W        W87839  31.619   9.833  13.552
23020W        W87840  30.701   9.175  14.281
23021W        W87841  12.743  38.949   0.665
23022W        W87842  21.632  22.531  12.111
23023W        W87843  41.289  11.782  13.171
23024W        W87844  41.527  26.227  12.034
23025W        W87845  32.215   2.463   2.722
23026W        W87846  15.006  23.136   4.053
23027W        W87847   9.830  28.715  10.791
23028W        W87848  44.295   8.202  14.417
23029W        W87849   3.003  36.322   2.481
23030W        W87850  39.489  40.444  14.277
23031W        W87851  31.518  26.737   0.810
23032W        W87852  19.263  43.777  13.494
23033W        W87853  22.724  11.762   2.295
23034W        W87854   7.618   4.988   1.405
23035W        W87855  43.939  13.396  14.844
23036W        W87856  39.477  33.372   3.065
23037W        W87857  12.411  16.443   9.784
23038W        W87858  19.103  15.168   1.454
23039W        W87859  13.230   5.989  11.032
23040W        W87860  27.314   9.587  14.239
23041W        W87861   3.952  22.189   4.493
23042W        W87862  26.089  40.401   2.427
23043W        W87863  41.968  24.737   3.787
23044W        W87864  37.006  17.707  11.599
23045W        W87865  40.936   1.534   1.414
23046W        W87866  21.286  23.915   2.224
23047W        W87867  25.483  44.290   1.957
23048W        W87868   8.669  34.936   3.897
23049W        W87869   6.761  25.149  14.012
23050W        W87870  10.026  18.108  13.809
23051W        W87871  43.969  44.720  10.663
23052W        W87872  39.076   8.610   2.823
23053W        W87873  39.961  32.708  12.309
23054W        W87874  15.300  35.981  13.830
23055W        W87875  41.476  42.375   4.549
23056W        W87876  32.699  15.741  12.526
23057W        W87877  36.143   9.056   0.338
23058W        W87878  41.406  30.168  11.644
23059W        W87879  34.196   8.654  11.724
23060W        W87880  39.148  44.789  10.948
23061W        W87881  17.243  34.347   2.397
23062W        W87882  13.238  44.815   3.241
23063W        W87883  42.942  34.903   3.869
23064W        W87884  19.500  41.239  11.310
23065W        W87885   9.652  29.919  11.445
23066W        W87886  38.698  39.893  13.406
23067W        W87887   5.154   3.180   2.415
23068W        W87888  25.375  38.474   0.290
23069W        W87889  26.606   9.206   3.073
23070W        W87890  12.094  37.622  10.626
23071W        W87891  31.223  37.524  12.530
23072W        W87892  23.538  10.707  10.616
23073W        W87893   1.428  44.026  11.460
23074W        W87894  33.911   5.413  12.125
23075W        W87895  34.003  31.965   4.521
23076W        W87896  16.510  15.296   2.769
23077W        W87897  26.417  40.450   4.972
23078W        W87898   1.185  27.063  13.433
23079W        W87899  17.117  25.303   0.290
23080W        W87900   6.504  37.320   0.709
23081W        W87901  39.691  18.505  13.643
23082W        W87902  11.185  11.336  14.284
23083W        W87903   6.752   2.629  13.380
23084W        W87904  18.533  27.091   4.866
23085W        W87905  13.661   9.157   2.689
23086W        W87906  34.079  31.496   0.013
23087W        W87907  24.131  21.412  10.682
23088W        W87908   8.808   0.060   4.141
23089W        W87909  43.252  16.803   3.293
23090W        W87910  19.753  24.181   4.085
23091W        W87911   9.360   7.240   4.467
23092W        W87912  33.391  41.773   0.652
23093W        W87913  24.112  13.190  12.520
23094W        W87914   2.769  41.917  13.613
23095W        W87915  25.108  41.118   3.174
23096W        W87916  29.954  33.926   2.743
23097W        W87917  34.516  16.787   2.240
23098W        W87918  38.916   2.478  11.841
23099W        W87919  13.837  34.110  14.519
23100W        W87920  31.927  25.564  13.391
23101W        W87921  11.657  40.767   1.405
23102W        W87922  33.632  34.269   3.499
23103W        W87923   7.665  40.860  14.326
23104W        W87924  35.466  40.851   2.764
23105W        W87925   0.325  27.908  10.757
23106W        W87926  44.384  31.885   1.146
23107W        W87927  13.277  19.908  13.579
23108W        W87928  32.540   4.714   1.181
23109W        W87929  29.379  30.985   4.603
23110W        W87930  44.977  38.018   3.061
23111W        W87931   3.323  13.681   3.377
23112W        W87932  21.918  44.220   4.167
23113W        W87933  42.210  23.642  11.538
23114W        W87934  29.225   3.240   0.907
23115W        W87935  38.928  37.074   2.359
23116W        W87936  17.895  33.212  13.347
23117W        W87937  38.916   6.854  14.827
23118W        W87938   0.174   1.293  13.069
23119W        W87939  15.213  34.133   3.642
23120W        W87940   5.706  42.757   1.244
23121W        W87941  16.176   8.583   4.518
23122W        W87942  20.222  28.762   2.862
23123W        W87943  33.205  22.244   4.161
23124W        W87944  23.537   3.931   4.542
23125W        W87945  29.017  31.408   0.324
23126W        W87946  21.806  29.646   3.312
23127W        W87947  23.092  36.715  10.037
23128W        W87948  22.385  23.593  11.998
23129W        W87949  41.343  23.124   1.815
23130W        W87950  39.957  42.327   3.147
23131W        W87951  18.780   1.906  13.005
23132W        W87952  44.803  15.982   2.728
23133W        W87953   3.878   5.162   3.581
23134W        W87954   7.099  23.969  11.720
23135W        W87955  35.161  32.343  14.468
23136W        W87956  27.136  36.272  12.403
23137W        W87957  44.313  24.579   1.910
23138W        W87958  25.733  44.987   3.169
23139W        W87959  37.089  40.889  12.950
23140W        W87960  35.607   1.226   1.804
23141W        W87961  26.384  43.176   5.152
23142W        W87962  19.318  14.858  12.845
23143W        W87963  32.723  36.268  14.441
23144W        W87964  12.738   2.322   4.409
23145W        W87965   3.571   1.563   0.629
23146W        W87966  22.830  29.759   3.649
23147W        W87967  34.056  34.650   4.172
23148W        W87968  23.996   4.793   3.613
23149W        W87969   9.677  30.099   1.307
23150W        W87970  41.460  33.740   4.795
23151W        W87971  28.969  38.401   2.148
23152W        W87972  34.379  29.155  13.892
23153W        W87973  23.289  12.154  10.768
23154W        W87974  24.637  17.592   0.794
23155W        W87975  26.472  31.969  13.297
23156W        W87976  36.596   7.084  13.594
23157W        W87977   1.686   4.401   0.353
23158W        W87978   5.943  22.965   0.934
23159W        W87979  25.378  32.670  10.922
23160W        W87980  42.659  44.724  14.908
23161W        W87981  37.408  34.956  14.928
23162W        W87982  41.541  10.398  13.843
23163W        W87983  18.191  20.370   1.828
23164W        W87984  19.922  13.784   3.710
23165W        W87985  44.420  19.127  11.149
23166W        W87986  11.298  33.476  11.179
23167W        W87987  14.257  21.810  11.928
23168W        W87988  21.134   7.448   4.045
23169W        W87989  33.624   4.063   0.445
23170W        W87990  37.458  21.307  14.432
23171W        W87991  20.027  25.941   1.264
23172W        W87992  11.835   0.377   1.325
23173W        W87993  15.651  42.702   4.493
23174W        W87994   2.887  39.856  11.038
23175W        W87995  32.477  14.493   2.918
23176W        W87996  41.397  30.526   2.375
23177W        W87997  31.388   7.389   4.210
23178W        W87998   5.742   3.442   2.932
23179W        W87999  15.215  39.420   1.352
23180W        W88000  39.605   7.861   2.756
23181W        W88001  12.896  11.175   4.060
23182W        W88002  38.584  37.246   4.181
23183W        W88003   3.938   4.248   0.692
23184W        W88004  41.296  17.759  10.681
23185W        W88005  36.847   4.577  11.627
23186W        W88006   0.898   0.097  11.143
23187W        W88007  33.909  34.113   1.284
23188W        W88008  42.163  26.298   1.743
23189W        W88009  34.509  32.856  14.001
23190W        W88010  26.403  22.794  10.761
23191W        W88011  18.173  28.709   0.275
23192W        W88012  12.764  29.982  13.389
23193W        W88013   3.244  31.841  11.778
23194W        W88014  30.259  34.790   4.333
23195W        W88015  35.798   5.750  11.120
23196W        W88016   6.839  43.383  14.264
23197W        W88017  16.109  34.057  14.218
23198W        W88018   3.084  17.695  13.230
23199W        W88019  30.566  35.225  14.962
23200W        W88020  43.026  30.600   0.956
23201W        W88021  19.091  15.721  12.961
23202W        W88022  21.687  22.975   2.456
23203W        W88023  44.440  16.398  13.350
23204W        W88024  13.749  23.140   0.727
23205W        W88025  10.661  32.537  10.955
23206W        W88026   1.217  14.926   2.383
23207W        W88027  16.049  35.383  13.924
23208W        W88028   6.087  15.189   1.287
23209W        W88029  26.545  32.647  11.274
23210W        W88030  35.920  33.598  12.904
23211W        W88031  13.344   5.286   2.695
23212W        W88032   4.414   3.977  11.191
23213W        W88033   5.934  31.137   0.949
23214W        W88034  23.065   1.906   1.977
23215W        W88035  21.990  16.567   1.474
23216W        W88036   0.447  24.050   2.918
23217W        W88037  16.786   5.182   0.816
23218W        W88038  39.431  16.084   2.595
23219W        W88039   8.644  29.918  12.960
23220W        W88040   0.758   4.384   1.853
23221W        W88041  10.457  30.951  11.652
23222W        W88042   1.891  13.772  12.859
23223W        W88043   0.394  36.820  13.320
23224W        W88044  37.842  22.246   1.365
23225W        W88045  20.070   8.059  12.633
23226W        W88046  29.413  30.050  11.450
23227W        W88047  30.751  19.809   4.564
23228W        W88048  35.459  25.198   3.321
23229W        W88049  27.204  33.391   3.889
23230W        W88050   0.321   7.860   3.215
23231W        W88051  33.540  29.440   3.230
23232W        W88052  24.466  43.109  11.603
23233W        W88053  36.363  19.474  14.511
23234W        W88054  10.630  27.100  13.499
23235W        W88055   1.799   7.578   2.276
23236W        W88056  28.098  12.264  14.739
23237W        W88057  21.465  14.368   3.157
23238W        W88058  38.215   7.368  10.892
23239W        W88059   6.257  26.418   1.837
23240W        W88060   5.954  31.021  14.246
23241W        W88061   8.422   8.197  13.869
23242W        W88062  44.683   1.326   4.182
23243W        W88063  25.008  26.516   2.609
23244W        W88064  36.568  30.584   1.578
23245W        W88065  19.722  35.622  11.611
23246W        W88066  35.905  16.138  13.458
23247W        W88067  13.554  33.101   2.337
23248W        W88068  18.714  22.763   3.727
23249W        W88069  25.011  25.247   0.986
23250W        W88070  34.898  29.421   0.366
23251W        W88071   5.893  36.346  13.961
23252W        W88072  34.915  11.884  14.322
23253W        W88073  28.615  33.809  13.101
23254W        W88074   2.208  24.955   4.952
23255W        W88075  42.325  40.128   0.745
23256W        W88076  31.530  29.892  11.895
23257W        W88077  24.782   8.699  14.986
23258W        W88078  25.949  37.454   2.592
23259W        W88079  22.593  26.692   1.921
23260W        W88080  42.503  37.535  13.418
23261W        W88081  38.009  35.126  12.459
23262W        W88082  25.003  44.805  11.618
23263W        W88083  23.662  14.386   3.579
23264W        W88084  22.036  10.805   4.118
23265W        W88085  22.052  22.253  11.977
23266W        W88086   4.410  43.831   0.231
23267W        W88087  39.268  11.907   1.803
23268W        W88088  23.045  35.525   1.150
23269W        W88089   5.391  36.629   2.339
23270W        W88090  31.453   0.943   4.662
23271W        W88091  43.929  27.508  12.495
23272W        W88092   4.645  33.485  12.815
23273W        W88093  44.254  37.104   3.750
23274W        W88094  28.807  43.395   4.601
23275W        W88095   5.662  21.103   0.991
23276W        W88096  20.943   4.781  11.615
23277W        W88097  41.734   3.478  13.029
23278W        W88098   3.828  33.835  13.350
23279W        W88099  43.406  13.327  14.880
23280W        W88100  18.647  30.974   3.559
23281W        W88101  35.187   2.741  12.044
23282W        W88102  19.245  29.513   0.085
23283W        W88103  16.726  30.685  13.555
23284W        W88104  40.047  18.225   0.842
23285W        W88105  29.091   1.548  13.746
23286W        W88106  25.156  23.313  14.904
23287W        W88107  26.937  33.924   2.788
23288W        W88108   3.980   6.977  13.048
23289W        W88109  30.946   8.427  11.527
23290W        W88110   8.858  16.386   2.210
23291W        W88111  19.601  15.312  11.675
23292W        W88112  14.669   4.856  14.225
23293W        W88113  39.293  22.223  12.556
23294W        W88114   1.908  15.110  14.852
23295W        W88115  14.892   4.883   0.245
23296W        W88116  11.807   1.406   1.633
23297W        W88117  21.138  11.323   1.433
23298W        W88118  35.336   3.855  11.430
23299W        W88119   8.690   7.170  12.577
23300W        W88120  24.705  14.549   4.956
23301W        W88121  22.431  10.252   0.795
23302W        W88122  22.175  37.406   2.657
23303W        W88123  39.242  11.380   1.139
23304W        W88124  12.187  44.522   2.317
23305W        W88125  41.290  43.890   4.198
23306W        W88126  21.700  35.399   4.253
23307W        W88127  34.585  19.587  11.880
23308W        W88128  23.533  39.615   0.688
23309W        W88129  31.629  42.118  11.323
23310W        W88130  44.538  42.473  12.682
23311W        W88131  32.463  36.087   2.393
23312W        W88132  39.077  42.869   5.048
23313W        W88133  11.688  21.623  14.508
23314W        W88134   7.365  26.550  13.753
23315W        W88135  15.816  29.144   3.085
23316W        W88136  26.601  34.163   5.140
23317W        W88137  24.890   2.138  11.122
23318W        W88138  27.457  32.380   2.167
23319W        W88139  13.519  30.637   4.531
23320W        W88140  35.981  23.680   9.797
23321W        W88141  36.976  24.115   1.605
23322W        W88142   2.847  40.074  12.370
23323W        W88143   4.697  35.377  11.018
23324W        W88144  14.118  21.754  11.435
23325W        W88145  36.852  32.658  12.881
23326W        W88146  10.412  24.798   1.911
23327W        W88147  32.612  34.492   1.255
23328W        W88148   4.474  40.364  10.742
23329W        W88149  35.062   6.849   4.423
23330W        W88150   2.019   4.604  11.115
23331W        W88151   4.496  14.163  12.908
23332W        W88152  14.627   6.902   3.772
23333W        W88153   9.243   8.157   3.279
23334W        W88154  13.545  26.654   1.745
23335W        W88155  34.836  12.780   9.547
23336W        W88156  38.818   0.314   0.107
23337W        W88157  32.374  15.829  10.380
23338W        W88158   5.491  16.803   3.101
23339W        W88159  41.748   1.112  13.047
23340W        W88160   5.177  16.664   4.643
23341W        W88161  32.021   6.409  10.708
23342W        W88162  44.779  14.820   3.324
23343W        W88163   5.415  39.125   2.809
23344W        W88164  39.512  13.390  12.377
23345W        W88165  38.554  36.571   4.178
23346W        W88166   9.114  20.765  14.337
23347W        W88167  35.874  39.895  14.906
23348W        W88168  32.904   6.043   4.197
23349W        W88169  33.834   3.627  10.203
23350W        W88170  20.663   4.394  11.109
23351W        W88171  16.530   1.251   2.599
23352W        W88172  33.996   3.026   4.819
23353W        W88173  27.499   9.455   1.299
23354W        W88174   3.293  30.841  13.033
23355W        W88175   5.703  38.665   0.248
23356W        W88176   0.599  17.303   3.108
23357W        W88177  12.900  21.731  12.090
23358W        W88178  38.059  20.598  13.333
23359W        W88179  29.385  34.982   4.576
23360W        W88180  42.524  27.558  11.637
23361W        W88181  34.617   1.206  14.806
23362W        W88182  13.494   6.100  14.362
23363W        W88183  39.297   8.861   0.838
23364W        W88184  41.740  30.088   2.310
23365W        W88185   6.878  14.565   3.683
23366W        W88186  27.244  14.590  13.952
23367W        W88187  21.648  38.474  14.561
23368W        W88188   2.873  31.080   1.420
23369W        W88189  17.827  24.261   4.183
23370W        W88190  41.855   4.182   0.487
23371W        W88191  32.408  12.140  11.145
23372W        W88192   2.761  28.443   1.571
23373W        W88193   9.909  36.738   0.364
23374W        W88194  25.312  20.249  13.528
23375W        W88195  30.943  23.436  11.500
23376W        W88196  42.562  28.223  14.843
23377W        W88197  43.200  19.175  14.790
23378W        W88198  39.059  41.401   4.177
23379W        W88199   3.901  11.530   2.684
23380W        W88200  39.289  40.584   1.245
23381W        W88201  21.523   4.360   1.713
23382W        W88202  30.075  33.496  12.221
23383W        W88203  26.068   5.464   1.232
23384W        W88204  23.411  40.902   1.697
23385W        W88205  43.256   0.731  11.961
23386W        W88206   0.832  35.970  11.462
23387W        W88207  21.728  25.564  12.042
23388W        W88208  24.229  19.495   2.487
23389W        W88209  24.216  11.179  12.649
23390W        W88210  42.042  38.021  11.398
23391W        W88211  36.876  32.378   4.381
23392W        W88212  14.815  11.271   0.982
23393W        W88213   5.547  11.397  14.239
23394W        W88214  35.928  37.337   0.443
23395W        W88215  43.277   9.208  10.714
23396W        W88216  12.879  32.273   0.003
23397W        W88217  13.398  40.828  11.699
23398W        W88218  38.716  29.426  11.108
23399W        W88219  32.239  18.181   3.715
23400W        W88220  29.490   8.329  13.474
23401W        W88221   5.398  32.120  12.107
23402W        W88222  35.078  14.816   4.227
23403W        W88223  20.788  29.318  14.152
23404W        W88224  19.174  16.502   3.469
23405W        W88225  43.854  35.653  13.938
23406W        W88226  43.540  39.487   4.720
23407W        W88227  39.634  36.598   0.737
23408W        W88228  44.909   4.425   3.734
23409W        W88229   6.250   6.680   3.246
23410W        W88230  37.995  37.851   2.688
23411W        W88231  34.354  30.076   2.199
23412W        W88232   3.466  22.099  11.491
23413W        W88233  22.309   4.220   2.447
23414W        W88234  11.317   3.219  11.533
23415W        W88235  44.315  21.299   2.202
23416W        W88236  21.769  10.640  13.908
23417W        W88237  13.270   9.761   2.032
23418W        W88238  17.205  10.860  10.933
23419W        W88239   1.140  34.648   0.771
23420W        W88240  24.118   1.687  12.617
23421W        W88241  27.178   9.702  13.325
23422W        W88242  23.547   3.269  12.383
23423W        W88243  18.073  15.737  10.757
23424W        W88244  37.497  37.545  12.045
23425W        W88245   4.521  34.618  10.427
23426W        W88246  26.199  37.873   1.257
23427W        W88247  27.686  17.729  14.354
23428W        W88248  39.139   4.778   0.375
23429W        W88249   7.860  20.962   4.933
23430W        W88250  26.213  18.750   2.286
23431W        W88251  10.384  30.228   3.598
23432W        W88252   1.469  13.182   3.088
23433W        W88253  43.949  27.092   1.310
23434W        W88254  15.005  19.574   2.204
23435W        W88255  44.640   5.264   0.148
23436W        W88256  18.144  15.854   4.583
23437W        W88257   6.760   6.651   1.437
23438W        W88258  43.696  22.132  10.540
23439W        W88259  37.576  37.857   4.044
23440W        W88260  27.887  20.947  13.552
23441W        W88261  43.689   9.683   0.942
23442W        W88262  31.226  26.520   4.188
23443W        W88263  15.914  39.419   1.937
23444W        W88264  23.315   4.669  12.509
23445W        W88265   3.637  34.823   0.836
23446W        W88266  20.649  16.532   2.842
23447W        W88267  23.520  43.302  13.887
23448W        W88268  39.027  22.149   0.499
23449W        W88269  12.291  20.735   1.164
23450W        W88270  34.141  28.703  13.297
23451W        W88271   4.011  19.560  10.795
23452W        W88272  35.690  15.113  10.754
23453W        W88273  22.618  21.042  13.065
23454W        W88274  24.162  32.982  14.275
23455W        W88275   2.491  32.095  14.870
23456W        W88276  17.548  27.228  13.823
23457W        W88277   1.413  36.480   0.505
23458W        W88278  25.293  38.751   2.432
23459W        W88279  25.741  20.600  10.742
23460W        W88280  14.044  16.310  13.028
23461W        W88281   4.768   6.314  14.231
23462W        W88282  12.712  26.929  13.050
23463W        W88283  38.891  18.758  13.025
23464W        W88284  41.807  22.497  12.855
23465W        W88285   5.813  34.087   2.190
23466W        W88286  16.725  33.653   0.478
23467W        W88287  15.039  17.980   3.360
23468W        W88288   7.931   1.258  13.548
23469W        W88289  19.974  23.048   4.096
23470W        W88290  22.718  12.794  14.777
23471W        W88291   3.589  36.927  14.005
23472W        W88292  17.600  31.472  11.268
23473W        W88293  31.234  41.002  11.598
23474W        W88294  36.157  12.360   1.263
23475W        W88295   5.197  32.693  12.544
23476W        W88296  23.602  42.430  10.323
23477W        W88297  20.153  26.187  11.645
23478W        W88298  27.900  23.237   1.437
23479W        W88299  22.101   3.752   2.364
23480W        W88300   7.256  39.055  13.466
23481W        W88301   4.648   3.355   2.580
23482W        W88302  17.020   3.675   3.137
23483W        W88303  34.363   5.141   1.209
23484W        W88304   5.290   3.905  10.645
23485W        W88305   9.486  14.810  12.030
23486W        W88306   0.820  40.598  14.090
23487W        W88307  37.422  23.652   4.417
23488W        W88308  12.143   8.904   1.356
23489W        W88309  42.483  42.151   0.968
23490W        W88310  32.113  42.023   5.118
23491W        W88311  21.849  28.589   1.848
23492W        W88312   6.413   2.681  10.300
23493W        W88313  11.688  10.622  13.114
23494W        W88314  42.847  23.221  12.478
23495W        W88315  15.589  16.722  14.963
23496W        W88316  27.570  32.920  12.461
23497W        W88317  13.200  15.100   4.143
23498W        W88318  14.282   3.713  12.025
23499W        W88319   6.097  30.413   4.761
23500W        W88320  22.364  19.869   9.495
23501W        W88321  23.593  19.950  12.313
23502W        W88322  11.324  29.645   1.018
23503W        W88323  30.243  27.915   3.057
23504W        W88324  23.757   0.445   0.070
23505W        W88325  26.022  26.221  14.005
23506W        W88326  28.406  17.664   5.184
23507W        W88327  19.408  20.667  10.703
23508W        W88328  18.621  44.264  12.483
23509W        W88329  17.234  32.297  14.131
23510W        W88330  29.071  30.346  13.797
23511W        W88331   7.362  33.825  13.264
23512W        W88332  22.014  29.406  14.796
23513W        W88333  40.567  38.425   0.255
23514W        W88334  10.414  10.792   0.784
23515W        W88335  30.385   1.401  11.116
23516W        W88336  43.984  36.540   1.882
23517W        W88337  43.984  21.528  12.494
23518W        W88338  12.801  13.918   3.684
23519W        W88339  34.856   7.335   4.256
23520W        W88340  23.488  33.149   2.419
23521W        W88341  42.178  44.268   2.946
23522W        W88342  31.238  27.679  11.592
23523W        W88343   3.825  10.343   0.544
23524W        W88344  18.140  21.750   4.631
23525W        W88345   7.389  34.416   1.841
23526W        W88346  36.895  16.037  14.765
23527W        W88347   4.336  32.596   2.773
23528W        W88348  38.795  19.326  14.344
23529W        W88349  22.716  40.245   0.755
23530W        W88350  13.103   8.943   0.931
23531W        W88351  31.300  19.133  13.470
23532W        W88352   2.418  28.548  11.164
23533W        W88353  25.297  21.095  11.559
23534W        W88354  16.407  22.270   0.692
23535W        W88355  22.051  19.595  13.988
23536W        W88356  21.325  18.883  11.181
23537W        W88357  16.249  17.593  12.497
23538W        W88358  17.554  20.082  13.347
23539W        W88359  10.195  43.544   0.172
23540W        W88360  37.613   5.950  14.074
23541W        W88361  32.490  17.574   1.651
23542W        W88362  31.773   3.362  10.267
23543W        W88363  33.298  33.547  11.113
23544W        W88364  33.645  25.500  12.556
23545W        W88365  25.538   0.292   1.040
23546W        W88366   3.209   6.291   1.346
23547W        W88367  21.159  26.677   2.558
23548W        W88368  44.031  13.379  13.109
23549W        W88369   1.718  26.626   1.817
23550W        W88370  40.709  40.023  13.470
23551W        W88371  22.990  27.011  13.867
23552W        W88372  35.369  40.233  12.948
23553W        W88373  44.692   1.184  12.079
23554W        W88374  31.117  23.352  11.011
23555W        W88375  28.629   0.742  10.764
23556W        W88376  30.025  17.240  11.120
23557W        W88377  44.396   4.233  12.537
23558W        W88378  42.962  36.379   0.886
23559W        W88379  15.698  34.824  14.561
23560W        W88380   7.179  18.530   3.809
23561W        W88381   3.886  19.307   1.914
23562W        W88382  42.901  14.097   0.924
23563W        W88383  30.467   6.691  14.921
23564W        W88384  13.663   7.620  14.517
23565W        W88385   4.761  24.053   2.203
23566W        W88386  10.408  25.383  12.013
23567W        W88387  27.979   9.210  12.493
23568W        W88388   3.310  40.895  11.221
23569W        W88389  16.084  12.889   1.807
23570W        W88390  33.978  29.917   1.218
23571W        W88391  20.771  37.598   3.707
23572W        W88392  18.065  29.779   3.283
23573W        W88393  24.755   8.785   2.165
23574W        W88394  29.916  20.215   4.730
23575W        W88395  36.991  40.937  11.981
23576W        W88396  34.889  12.398  14.280
23577W        W88397  36.104   8.212   1.539
23578W        W88398   0.606  27.561   1.882
23579W        W88399  28.937  21.701  13.184
23580W        W88400  37.091  15.547  12.904
23581W        W88401  34.504   1.430  13.068
23582W        W88402   6.385  42.353   3.012
23583W        W88403  37.447  20.743  14.698
23584W        W88404  42.795  21.601   0.056
23585W        W88405  33.586  17.559  12.203
23586W        W88406  31.961  22.968  12.970
23587W        W88407  29.178  23.976  11.579
23588W        W88408  22.229   0.514   1.881
23589W        W88409  37.468   5.160   3.724
23590W        W88410  27.351  22.708   1.767
23591W        W88411  23.108  17.688  10.732
23592W        W88412   5.292  31.752  11.478
23593W        W88413  26.212   7.963  10.707
23594W        W88414  24.176  41.708  13.388
23595W        W88415  24.736  38.865  14.661
23596W        W88416   1.722  13.390  14.784
23597W        W88417   0.952  22.233  14.031
23598W        W88418   1.910  13.234   0.249
23599W        W88419  30.984  22.875   3.524
23600W        W88420  28.271   9.407  12.884
23601W        W88421  29.059  36.783  12.526
23602W        W88422   3.421  33.638   1.855
23603W        W88423  35.723  41.441   4.903
23604W        W88424   4.485  28.103  13.236
23605W        W88425  19.098  34.851  14.406
23606W        W88426  39.267   2.125   1.165
23607W        W88427  44.771  37.307  13.926
23608W        W88428  40.244   6.316   2.716
23609W        W88429   9.610   7.574   3.611
23610W        W88430   8.580  35.010   0.212
23611W        W88431  25.657   2.293   0.268
23612W        W88432  11.796  33.216   2.721
23613W        W88433  17.209  17.291  13.784
23614W        W88434  35.791   3.482  13.772
23615W        W88435  42.736  34.027   4.214
23616W        W88436  40.873  16.126   3.617
23617W        W88437  16.843  29.539   1.772
23618W        W88438   5.925  26.104   3.049
23619W        W88439  15.149   3.511   1.708
23620W        W88440  29.584   0.807   4.175
23621W        W88441  12.726  14.071   2.590
23622W        W88442  14.706  22.510  14.074
23623W        W88443  42.029  41.736   3.214
23624W        W88444  21.073  41.752   1.032
23625W        W88445  32.744  28.065   1.416
23626W        W88446   8.848  13.691  12.860
23627W        W88447  20.240   7.312   4.113
23628W        W88448  10.687   2.729   0.157
23629W        W88449  31.889  38.424   0.364
23630W        W88450  33.106  19.531  14.503
23631W        W88451  35.640  26.563  11.197
23632W        W88452  19.471  38.464  12.535
23633W        W88453   8.474  19.165  13.780
23634W        W88454  42.947  33.514   1.691
23635W        W88455  25.715  41.574  14.829
23636W        W88456  31.241  26.980  13.660
23637W        W88457   6.957  17.235   2.273
23638W        W88458  29.517  39.103  14.581
23639W        W88459  39.757  17.148  12.500
23640W        W88460  31.804  41.227  12.090
23641W        W88461  23.511  37.954  12.902
23642W        W88462  43.378  13.713   2.158
23643W        W88463   6.831  42.691  11.553
23644W        W88464  16.663  33.904   0.013
23645W        W88465  39.780  21.266  11.596
23646W        W88466  30.867  34.803  11.172
23647W        W88467  24.533  38.587   0.601
23648W        W88468  10.730   2.296   3.637
23649W        W88469  31.403   3.407   2.349
23650W        W88470  38.105  33.942   2.461
23651W        W88471   7.468   6.936   2.204
23652W        W88472  26.084  32.603  12.115
23653W        W88473  42.345   5.403  10.993
23654W        W88474   3.727  44.241   3.103
23655W        W88475   2.388  31.256  12.788
23656W        W88476  36.033  18.442  11.214
23657W        W88477  35.549  13.639  14.338
23658W        W88478  39.938  27.347  13.103
23659W        W88479  13.132  22.048  13.913
23660W        W88480  33.065  23.466  14.400
23661W        W88481  15.893  12.901   2.727
23662W        W88482   4.162  14.486   4.203
23663W        W88483  12.250  17.365  13.211
23664W        W88484  21.274   5.302   4.731
23665W        W88485  24.427  16.198   4.377
23666W        W88486  18.539  25.932   3.542
23667W        W88487  14.019   9.233   4.284
23668W        W88488   1.974  20.509   0.241
23669W        W88489  24.113  22.298  11.145
23670W        W88490  38.448  43.538   2.559
23671W        W88491  14.467  41.428  13.751
23672W        W88492  18.060  18.754   1.969
23673W        W88493  14.311  38.859   4.545
23674W        W88494  27.407  34.670   1.852
23675W        W88495  11.198  14.770  14.164
23676W        W88496  31.494  40.593   4.300
23677W        W88497  29.014  11.358   0.866
23678W        W88498  21.914  24.059  14.839
23679W        W88499  44.826  15.850  12.404
23680W        W88500   5.389  36.556   0.245
23681W        W88501  11.142  21.008   4.213
23682W        W88502  29.750  26.202  14.992
23683W        W88503  28.523   8.890  14.740
23684W        W88504  15.647  41.071  11.092
23685W        W88505  39.015  28.691   3.442
23686W        W88506  31.044  18.034   3.290
23687W        W88507  37.539  29.687  11.578
23688W        W88508  39.366  42.333  13.400
23689W        W88509  24.118  42.558   4.191
23690W        W88510  37.893  31.945   0.483
23691W        W88511  29.285  14.304   4.536
23692W        W88512  21.528  20.902  10.017
23693W        W88513   0.161  40.837   2.854
23694W        W88514  30.932  21.581   0.714
23695W        W88515  44.356  42.408   4.993
23696W        W88516  41.679  33.185   0.252
23697W        W88517  42.891   5.877  12.557
23698W        W88518   5.492  26.676  11.570
23699W        W88519  19.739  13.338  14.049
23700W        W88520  15.859   0.247  10.888
23701W        W88521  33.648  30.871  12.731
23702W        W88522   8.249  23.816  12.979
23703W        W88523  11.282  40.336   4.289
23704W        W88524  25.175   1.360  14.301
23705W        W88525  12.372   6.825  13.982
23706W        W88526   8.231  43.169  14.462
23707W        W88527  24.712   5.336  12.568
23708W        W88528  29.441  36.563   1.397
23709W        W88529  25.510  14.568  11.560
23710W        W88530  17.768  38.864  13.799
23711W        W88531  41.685  33.466  13.401
23712W        W88532  33.984  30.563   0.379
23713W        W88533  31.795   8.668   4.580
23714W        W88534   4.770  44.809   3.163
23715W        W88535  36.499  43.314  14.858
23716W        W88536  25.182  23.238  10.831
23717W        W88537  22.646  21.094   0.016
23718W        W88538  34.159  12.825   2.668
23719W        W88539  38.027  20.082   1.376
23720W        W88540   0.981  34.574   3.142
23721W        W88541   3.720  26.424   2.865
23722W        W88542  24.321   3.269   4.894
23723W        W88543  39.798  35.035  14.945
23724W        W88544  14.665   6.526   4.584
23725W        W88545  42.774  21.035   1.793
23726W        W88546  44.969  40.049  11.910
23727W        W88547  30.172  29.856  13.339
23728W        W88548  33.650  13.296   1.221
23729W        W88549   8.584   3.811  12.909
23730W        W88550   9.671  32.199   9.515
23731W        W88551  16.226  23.439   3.879
23732W        W88552  25.697  32.596  14.359
23733W        W88553  20.732  31.691   2.851
23734W        W88554  38.407  21.582  14.851
23735W        W88555  38.783  41.409   4.612
23736W        W88556  21.152  16.658   0.076
23737W        W88557  37.889  34.068   1.892
23738W        W88558   4.902  35.091  12.367
23739W        W88559  24.546   3.201   1.793
23740W        W88560   0.804   7.673   2.537
23741W        W88561  14.377  22.232   0.876
23742W        W88562  31.791  17.615   4.285
23743W        W88563   4.514   6.661  12.029
23744W        W88564   7.352  25.848   2.723
23745W        W88565  41.545   7.723  12.582
23746W        W88566  31.071   4.770  11.604
23747W        W88567  27.836  42.364   2.212
23748W        W88568  17.784  16.060  12.958
23749W        W88569  32.058  33.190  11.649
23750W        W88570  23.589   4.303   0.880
23751W        W88571  27.361  19.262  10.008
23752W        W88572  32.183  43.398  13.051
23753W        W88573  24.585  28.792  14.246
23754W        W88574   7.902   5.520  11.162
23755W        W88575  23.650  17.371   2.208
23756W        W88576  26.317   7.620   4.056
23757W        W88577  29.349  17.347  14.009
23758W        W88578   1.698  26.928  11.099
23759W        W88579  34.009  30.145  14.391
23760W        W88580   9.145  26.926   4.571
23761W        W88581  28.187  44.504   2.180
23762W        W88582  41.427  14.195  13.542
23763W        W88583  29.568  40.897  14.958
23764W        W88584  41.385  36.938   3.441
23765W        W88585  20.633  36.331   9.626
23766W        W88586   9.468   8.574   4.174
23767W        W88587   1.372  23.605  14.533
23768W        W88588  26.975  19.197   2.369
23769W        W88589  36.668  11.733  12.437
23770W        W88590   8.694  44.789  11.351
23771W        W88591  18.812  15.190   2.408
23772W        W88592  43.078   6.905   2.822
23773W        W88593  22.636  20.526   0.749
23774W        W88594  27.445  25.409  13.499
23775W        W88595  43.426  20.776   4.079
23776W        W88596  33.045   0.348   3.893
23777W        W88597  11.020   4.875  13.567
23778W        W88598  36.178  19.138   1.189
23779W        W88599  17.389  44.904   3.728
23780W        W88600  20.517  14.069  12.546
23781W        W88601  24.648   1.283  11.674
23782W        W88602  32.443   1.017  14.419
23783W        W88603   6.256  17.167  14.587
23784W        W88604  37.047   9.389  14.965
23785W        W88605  13.131  32.209   1.383
23786W        W88606  23.011  27.752   3.649
23787W        W88607  39.143   8.110   2.785
23788W        W88608  13.310  15.250  14.472
23789W        W88609   8.643   8.753   4.567
23790W        W88610  33.120  24.425   2.307
23791W        W88611  13.291   2.770  14.343
23792W        W88612   3.200   4.729   0.847
23793W        W88613  40.020  16.603   0.981
23794W        W88614  24.109  23.936  11.246
23795W        W88615  24.280  26.970  13.048
23796W        W88616  28.937  21.089  10.259
23797W        W88617  27.019   5.843  14.794
23798W        W88618  11.073   1.884  12.470
23799W        W88619  19.295  23.336   0.476
23800W        W88620  17.725  10.240  11.902
23801W        W88621  41.271  34.077  11.706
23802W        W88622  20.144  25.089   1.531
23803W        W88623  11.194  34.962  13.317
23804W        W88624  11.043  15.135   1.668
23805W        W88625  18.701  15.640  11.189
23806W        W88626  42.045   7.712  10.746
23807W        W88627  24.550  38.750  13.387
23808W        W88628  40.438  36.579   0.937
23809W        W88629  29.059  14.654  10.765
23810W        W88630   5.679  28.207  11.979
23811W        W88631  33.737  17.565  11.131
23812W        W88632  38.903  34.902  11.607
23813W        W88633  26.296   4.659  11.855
23814W        W88634  16.294  35.064   4.167
23815W        W88635  17.785  15.565  11.143
23816W        W88636  12.717  30.730   0.436
23817W        W88637  16.540  23.662  14.807
23818W        W88638  15.615  41.626   4.504
23819W        W88639   1.641  21.581  10.661
23820W        W88640   6.189  37.405   2.776
23821W        W88641  40.969  26.043   4.826
23822W        W88642  41.837  32.433   0.708
23823W        W88643  41.963  28.918   3.646
23824W        W88644  44.907  27.556  14.442
23825W        W88645  34.938  11.148   2.307
23826W        W88646  32.767   8.486  12.613
23827W        W88647  43.944  25.134  11.154
23828W        W88648  11.253   5.393   1.155
23829W        W88649  10.822  14.772   0.034
23830W        W88650  17.352   8.953  12.016
23831W        W88651  16.890  41.421   3.315
23832W        W88652  37.337  32.079  13.820
23833W        W88653  13.895  40.576  14.366
23834W        W88654  13.322  29.275   3.208
23835W        W88655   6.971  27.194  10.647
23836W        W88656  16.705  11.380  13.927
23837W        W88657  33.455  29.359  14.392
23838W        W88658   9.235   7.789   1.836
23839W        W88659  28.226   2.721   4.647
23840W        W88660  36.532  22.207  11.993
23841W        W88661  10.378  34.105   3.740
23842W        W88662  22.060   5.379  14.986
23843W        W88663  21.916   3.723  11.075
23844W        W88664  38.557  23.262   1.317
23845W        W88665  17.689  12.360   0.917
23846W        W88666  16.716  28.671   2.203
23847W        W88667  44.553  39.866  12.755
23848W        W88668  39.515   7.921   0.806
23849W        W88669  19.933   7.195  13.052
23850W        W88670  20.059  34.530   3.294
23851W        W88671  31.540  16.623  14.059
23852W        W88672   4.836  33.836  12.507
23853W        W88673  13.736  19.429  11.040
23854W        W88674  44.907   1.719  12.909
23855W        W88675   7.158  27.159   3.166
23856W        W88676  30.403  33.977   0.432
23857W        W88677  26.759  18.975  12.054
23858W        W88678  18.198  41.974   3.334
23859W        W88679  32.879  23.773  14.037
23860W        W88680  43.924  20.159  14.438
23861W        W88681  10.689   1.051   0.536
23862W        W88682  10.895  29.577   9.918
23863W        W88683  26.193  25.776   3.309
23864W        W88684  31.074   0.675   1.753
23865W        W88685  20.573  21.960  11.039
23866W        W88686  42.017  20.964  11.219
23867W        W88687  35.599  39.853   0.766
23868W        W88688  42.581  17.073   1.982
23869W        W88689  12.075  29.383   2.728
23870W        W88690  30.183  35.953  12.136
23871W        W88691   8.141  34.895  14.991
23872W        W88692  31.826  20.392   4.028
23873W        W88693  32.305   0.583  12.988
23874W        W88694   0.463  24.208   0.338
23875W        W88695   4.830  40.704   0.783
23876W        W88696  15.604  23.703  11.174
23877W        W88697  12.271  28.354  11.637
23878W        W88698   8.794   7.884  11.546
23879W        W88699  19.997  11.754   0.309
23880W        W88700   9.592  15.681  12.601
23881W        W88701  18.754  20.498   0.475
23882W        W88702  18.165  21.379   1.908
23883W        W88703   8.909  24.002  14.146
23884W        W88704  29.629  20.082   0.409
23885W        W88705  27.193  15.743   2.451
23886W        W88706  41.447  37.999   1.984
23887W        W88707  25.889   9.782   2.676
23888W        W88708  38.124   9.865   2.773
23889W        W88709   1.783  21.664   2.819
23890W        W88710  40.584  13.316  13.057
23891W        W88711  24.622  39.940   0.927
23892W        W88712  44.399  34.332  11.326
23893W        W88713  24.220  27.959   1.509
23894W        W88714  16.351  44.288   0.837
23895W        W88715  12.264   0.696   1.784
23896W        W88716  38.367  43.989   3.916
23897W        W88717   8.321  11.553   1.990
23898W        W88718  18.594  27.417  13.821
23899W        W88719  21.720   3.887  12.411
23900W        W88720  31.058  20.466  11.107
23901W        W88721  42.789   3.465   2.764
23902W        W88722  19.720  38.579  11.566
23903W        W88723  40.280   7.311   3.917
23904W        W88724  38.121  23.010   2.909
23905W        W88725  30.143  44.421  14.008
23906W        W88726  20.550  27.946   3.666
23907W        W88727  34.907  25.503   2.761
23908W        W88728  22.085  14.559  14.231
23909W        W88729   7.658  34.068   0.302
23910W        W88730   3.605   0.997   4.047
23911W        W88731  19.711   2.519   1.935
23912W        W88732  19.071  35.549   1.344
23913W        W88733  18.501  20.568  12.502
23914W        W88734  11.258  36.316  13.017
23915W        W88735  13.135  28.160   1.299
23916W        W88736  21.967   0.629   1.420
23917W        W88737  32.990  30.619   4.170
23918W        W88738   1.346  44.289   3.680
23919W        W88739  43.225  26.304   3.765
23920W        W88740  27.713  18.532  12.507
23921W        W88741  31.451  13.859   1.869
23922W        W88742  37.385  36.137  13.797
23923W        W88743  30.507  32.513   3.054
23924W        W88744  27.655   8.255   5.063
23925W        W88745  13.642  36.569  14.253
23926W        W88746  21.744  43.841  11.944
23927W        W88747  42.913  21.633   4.375
23928W        W88748   7.544  10.158  11.569
23929W        W88749   3.592   4.829  13.913
23930W        W88750   0.025  24.635  12.236
23931W        W88751  33.956  40.579  10.738
23932W        W88752  11.228  10.631   2.213
23933W        W88753  43.814   7.803   4.531
23934W        W88754  31.456  18.741   3.546
23935W        W88755  13.772  24.449   4.469
23936W        W88756  30.484  10.416   1.286
23937W        W88757  12.563  34.433  14.800
23938W        W88758  31.905  43.229   2.854
23939W        W88759   8.147  37.094  14.558
23940W        W88760  15.292  22.635   4.926
23941W        W88761  10.856  14.284   4.586
23942W        W88762  35.446  21.100   3.689
23943W        W88763  17.732   2.524   3.350
23944W        W88764  35.878  11.251   4.761
23945W        W88765  21.564   6.921   3.673
23946W        W88766  13.290  10.296  11.924
23947W        W88767  17.120  17.861  12.850
23948W        W88768  19.539   0.378   3.152
23949W        W88769  33.982  10.671   2.807
23950W        W88770  28.073  26.083  13.427
23951W        W88771  12.113  13.167   2.449
23952W        W88772   8.301  28.015  13.904
23953W        W88773  33.178  26.417  11.601
23954W        W88774  14.660  41.280  10.782
23955W        W88775  19.798  40.461   3.375
23956W        W88776  18.916  40.326  13.770
23957W        W88777  15.562  36.465  11.340
23958W        W88778  37.905  22.028  14.124
23959W        W88779   9.821   1.332   0.847
23960W        W88780  43.961  27.549  14.348
23961W        W88781  30.166   9.295  12.856
23962W        W88782  15.609  26.188   3.040
23963W        W88783  18.691  25.970   1.535
23964W        W88784   3.694  41.036   2.300
23965W        W88785  20.248  24.911  12.881
23966W        W88786  14.869  17.636   4.110
23967W        W88787  41.006  25.979  13.328
23968W        W88788   9.912  10.171   3.259
23969W        W88789  27.174  13.369   4.461
23970W        W88790  10.613  11.462   2.410
23971W        W88791  20.974  35.603  10.832
23972W        W88792  35.789  31.545  14.390
23973W        W88793  41.445   9.509  14.466
23974W        W88794  36.133  19.595   3.285
23975W        W88795   8.772  15.178  13.456
23976W        W88796  16.259  33.920   3.852
23977W        W88797  38.820  22.623   9.998
23978W        W88798  33.939  24.170   2.381
23979W        W88799  23.796  43.814  11.846
23980W        W88800  32.452  23.359  11.310
23981W        W88801  32.881  15.190  14.436
23982W        W88802  20.031  11.067  11.666
23983W        W88803  11.834   9.826  11.022
23984W        W88804  39.843  18.561   1.892
23985W        W88805  17.719  10.796  11.151
23986W        W88806   8.249   1.207   2.358
23987W        W88807  21.019  42.986   3.594
23988W        W88808  19.782  30.580   0.021
23989W        W88809  20.195  30.064   4.411
23990W        W88810  29.142  40.978   0.214
23991W        W88811  28.374  23.595   1.759
23992W        W88812  13.373  25.746  11.910
23993W        W88813  43.475   1.577  12.440
23994W        W88814  25.516  39.425   0.583
23995W        W88815  22.813   7.677  10.902
23996W        W88816   7.434  19.732  14.531
23997W        W88817  27.064   0.307  14.854
23998W        W88818   7.896  31.080  10.941
23999W        W88819  23.428  31.934  13.409
24000W        W88820  16.271   9.209   0.372
24001W        W88821  10.394   8.648  13.827
24002W        W88822  38.867  18.022   4.245
24003W        W88823  44.944  38.489   2.811
24004W        W88824  11.324  16.890  11.579
24005W        W88825  22.444  31.051  11.531
24006W        W88826   5.668  16.543  12.066
24007W        W88827  26.961   0.739  12.790
24008W        W88828  17.807   8.327  14.383
24009W        W88829  44.790  12.811  11.597
24010W        W88830  25.578  16.607   0.694
24011W        W88831  33.504  28.615   2.362
24012W        W88832  33.246  20.959   4.349
24013W        W88833  21.770  30.088   0.275
24014W        W88834   1.725  26.800  14.328
24015W        W88835  39.322  31.660   0.941
24016W        W88836  44.571  15.496   0.214
24017W        W88837  38.479  29.482  12.267
24018W        W88838  42.563  18.325  14.037
24019W        W88839   2.959   4.272  12.615
24020W        W88840  30.210  13.939   3.343
24021W        W88841  44.514  21.301  13.783
24022W        W88842  26.632  31.975  11.760
24023W        W88843  38.459  16.130   1.850
24024W        W88844  13.655  29.394  12.757
24025W        W88845  22.242  16.571   4.196
24026W        W88846  29.593  24.859  11.633
24027W        W88847  16.168  18.173  11.944
24028W        W88848  29.104   5.188  14.466
24029W        W88849   1.946  30.298   3.769
24030W        W88850  32.764   8.254   3.786
24031W        W88851  28.350  38.277   3.833
24032W        W88852  17.718   6.226  13.815
24033W        W88853   1.597  15.780   5.093
24034W        W88854  42.354  20.467  14.463
24035W        W88855  42.916  10.746   4.403
24036W        W88856   3.602  24.919   1.693
24037W        W88857  17.126  28.213  14.245
24038W        W88858  17.740  41.294   5.614
24039W        W88859  43.904  24.433   2.723
24040W        W88860  22.553  20.638  14.812
24041W        W88861  21.129  25.490   2.164
24042W        W88862  21.346  21.231   3.921
24043W        W88863  16.742  15.637  11.424
24044W        W88864  28.116  26.999  11.507
24045W        W88865  31.316  11.921   3.295
24046W        W88866  41.974   0.643  13.377
24047W        W88867  42.011  21.788  14.586
24048W        W88868  21.948  41.813   1.277
24049W        W88869  34.609  35.510   0.939
24050W        W88870   1.996  22.538  12.714
24051W        W88871  14.604  22.128   3.232
24052W        W88872   6.345  20.184   2.288
24053W        W88873   3.922  39.035   2.805
24054W        W88874  44.327  18.543   1.755
24055W        W88875  42.985  24.988   0.910
24056W        W88876  22.991  43.660  12.319
24057W        W88877  23.550  16.860   2.243
24058W        W88878  13.064   0.515  13.323
24059W        W88879  13.283  41.872  11.984
24060W        W88880  31.703  43.302  11.896
24061W        W88881  32.662  41.770   1.198
24062W        W88882  27.738  15.185   1.339
24063W        W88883   9.619  27.128  13.530
24064W        W88884   9.703  19.327   2.526
24065W        W88885  33.430  14.945  10.259
24066W        W88886   2.163  18.472  11.804
24067W        W88887  12.886  20.712  14.833
24068W        W88888  11.318  36.633   1.239
24069W        W88889  27.435   8.656   0.604
24070W        W88890  20.679  26.122  13.398
24071W        W88891  23.432  14.541  13.919
24072W        W88892  28.512  43.216  12.904
24073W        W88893  22.422  17.132   5.057
24074W        W88894   1.954  14.004  12.411
24075W        W88895  41.670   5.786  12.896
24076W        W88896  35.194  28.528  10.415
24077W        W88897   1.941  33.296  13.545
24078W        W88898   7.591  29.681   4.974
24079W        W88899   4.317  41.382   0.952
24080W        W88900  14.534   3.660  12.928
24081W        W88901  43.468  11.920  14.334
24082W        W88902  14.221   3.535  13.798
24083W        W88903  15.099  17.183   1.680
24084W        W88904   6.506  43.022  14.060
24085W        W88905  43.340  13.663  14.451
24086W        W88906  40.381   2.087  13.739
24087W        W88907  17.950  17.094   4.247
24088W        W88908   4.449  34.501  12.880
24089W        W88909  25.205  39.254   2.301
24090W        W88910   8.934  42.683   0.440
24091W        W88911  11.674  12.073   0.690
24092W        W88912  33.445  16.551   1.458
24093W        W88913  22.205  29.719  13.874
24094W        W88914   6.618   0.305   2.769
24095W        W88915  12.048  11.147   0.265
24096W        W88916  16.016  34.820  11.643
24097W        W88917   4.630  31.119   1.750
24098W        W88918  24.092  36.891  12.494
24099W        W88919   2.887  33.947  13.537
24100W        W88920  18.245  39.805   1.893
24101W        W88921  36.362  28.730  12.895
24102W        W88922   5.720   5.712   4.110
24103W        W88923  29.663   4.293   2.729
24104W        W88924  21.530  31.376  11.682
24105W        W88925   0.440  28.587   1.125
24106W        W88926  40.940  27.310  10.688
24107W        W88927  17.540  31.032  12.294
24108W        W88928  11.939   1.863  12.936
24109W        W88929  23.080  34.797   3.720
24110W        W88930  40.274  24.957   3.211
24111W        W88931  22.655  19.862   5.384
24112W        W88932   3.904  35.804   1.239
24113W        W88933  20.640   8.063   9.859
24114W        W88934   4.813  42.163   3.453
24115W        W88935  43.591  41.375  13.738
24116W        W88936  40.981  29.405  10.793
24117W        W88937  23.291  19.605  14.490
24118W        W88938  30.421  44.710  14.831
24119W        W88939   3.850  12.710   1.187
24120W        W88940  21.676  23.473   2.861
24121W        W88941   6.815  19.156   5.008
24122W        W88942   2.769  19.724   2.303
24123W        W88943  12.600  43.821   4.397
24124W        W88944   5.231  32.793  11.655
24125W        W88945   2.370  14.490  14.514
24126W        W88946  33.798   8.364   2.157
24127W        W88947  22.567  39.300  12.592
24128W        W88948  25.677  14.196   1.753
24129W        W88949   7.814  18.216   4.557
24130W        W88950  37.828  27.016   3.192
24131W        W88951   6.868  33.081   3.100
24132W        W88952  38.899  35.964  11.598
24133W        W88953  14.240  28.669   1.270
24134W        W88954  44.182  27.972  11.993
24135W        W88955  10.665  11.225   0.605
24136W        W88956  36.474  19.179   1.865
24137W        W88957  42.377  24.337  13.244
24138W        W88958   1.201  12.656  10.516
24139W        W88959   3.912   4.877  14.467
24140W        W88960  11.629  41.777  12.475
24141W        W88961  16.851  25.745  12.914
24142W        W88962  43.623  18.068   2.243
24143W        W88963  13.893   9.885  10.737
24144W        W88964  25.459  14.293   1.250
24145W        W88965  24.450  44.320   3.235
24146W        W88966  41.404  19.236   1.292
24147W        W88967   6.324   3.884   4.775
24148W        W88968   8.253  31.707   1.992
24149W        W88969  31.040  44.105   1.428
24150W        W88970   8.807   9.178   2.363
24151W        W88971  17.568  41.025  12.529
24152W        W88972  15.063  27.739  11.125
24153W        W88973  15.272  19.650  13.948
24154W        W88974  35.852   5.737   0.204
24155W        W88975   6.762  32.674   1.729
24156W        W88976  23.951  16.423   1.147
24157W        W88977  14.114   7.784   0.359
24158W        W88978  30.004  35.726   4.601
24159W        W88979   0.475  15.756   2.474
24160W        W88980   5.358  37.992  11.369
24161W        W88981   6.520  25.990  12.101
24162W        W88982  13.271  19.304  14.444
24163W        W88983  44.711  14.185  13.060
24164W        W88984  14.154  23.100   1.719
24165W        W88985  17.434  38.511   2.818
24166W        W88986  29.040  20.085   3.982
24167W        W88987  12.001  33.949  13.759
24168W        W88988   0.498  30.200   2.123
24169W        W88989   9.265  41.015   0.780
24170W        W88990  15.812  13.697  11.229
24171W        W88991  38.527  11.739  12.187
24172W        W88992  44.055  38.419  12.883
24173W        W88993  16.771  43.986  12.946
24174W        W88994  26.256   5.892  12.914
24175W        W88995   4.978  38.918   1.813
24176W        W88996  15.597  26.402   2.568
24177W        W88997   9.254  30.413   1.417
24178W        W88998   3.126  11.141  12.679
24179W        W88999  34.401  36.960   1.292
24180W        W89000  11.715   4.253  14.094
24181W        W89001  19.181  10.215  13.027
24182W        W89002  27.476  14.326  14.347
24183W        W89003  16.006  35.576  11.146
24184W        W89004  44.922  10.262  13.860
24185W        W89005  34.620  20.515   3.714
24186W        W89006  41.337  28.677  14.976
24187W        W89007  28.596  17.052  13.543
24188W        W89008  11.732  19.565  14.543
24189W        W89009   5.790  32.444   1.146
24190W        W89010  29.415   1.767  10.702
24191W        W89011  38.462  13.105   2.221
24192W        W89012  38.786  28.890  11.168
24193W        W89013   6.875  40.411  14.973
24194W        W89014   9.515  15.276  11.784
24195W        W89015   3.831  35.410   3.033
24196W        W89016  11.518  44.973   1.517
24197W        W89017  36.101  38.962  13.554
24198W        W89018  18.235  37.756   2.774
24199W        W89019  35.357  29.351  14.478
24200W        W89020   8.186   8.871   2.730
24201W        W89021  20.085  36.986  12.843
24202W        W89022  24.562  11.074  13.104
24203W        W89023  23.401  11.342  13.151
24204W        W89024  16.879  16.084   1.391
24205W        W89025  35.828  31.480   0.304
24206W        W89026  17.087  14.672   1.387
24207W        W89027  42.441  35.203   3.173
24208W        W89028  38.555  21.692  12.522
24209W        W89029  35.681  13.206  14.066
24210W        W89030  44.732  27.169   4.110
24211W        W89031  41.322  10.920   0.442
24212W        W89032  12.067  37.035  11.858
24213W        W89033  11.566   2.527  11.059
24214W        W89034  43.486  17.225   4.153
24215W        W89035  17.676   7.862  11.195
24216W        W89036  15.166  33.290   3.852
24217W        W89037  44.639  31.050  10.408
24218W        W89038  42.981   7.775   3.267
24219W        W89039   9.843   4.465  12.892
24220W        W89040  41.304  17.775   3.204
24221W        W89041  23.017  27.252  13.028
24222W        W89042   0.014  36.300  12.519
24223W        W89043  23.702  16.790   4.670
24224W        W89044   5.900  19.769   1.027
24225W        W89045  39.592  29.199  10.907
24226W        W89046  37.915  20.658   1.268
24227W        W89047  44.974   1.635   5.034
24228W        W89048   2.702  38.165   4.298
24229W        W89049  37.521  31.373  13.566
24230W        W89050   7.230  14.390  12.957
24231W        W89051  29.784   0.951   4.639
24232W        W89052  27.607  20.647   4.300
24233W        W89053   6.662  14.250  13.841
24234W        W89054   4.660  26.045   5.089
24235W        W89055  13.160  35.650  11.181
24236W        W89056  16.659  15.664  10.610
24237W        W89057  33.455  36.078   1.318
24238W        W89058  11.628   7.270  13.694
24239W        W89059  35.479  30.636  13.298
24240W        W89060  32.028   5.766  14.963
24241W        W89061   4.949   4.944   0.778
24242W        W89062  24.087  15.822   1.770
24243W        W89063   8.191  43.302   4.077
24244W        W89064  12.542  24.549   0.750
24245W        W89065   9.779  14.310   2.201
24246W        W89066  39.008  10.967  13.496
24247W        W89067  31.130  24.223   0.247
24248W        W89068  24.139   1.905  10.704
24249W        W89069  23.739   2.220  13.946
24250W        W89070  30.912  12.946   2.926
24251W        W89071   6.956  13.637   0.120
24252W        W89072   2.559  10.306  12.564
24253W        W89073  22.804  26.420  12.159
24254W        W89074  34.561  16.599  13.975
24255W        W89075  14.262  14.541  14.021
24256W        W89076  32.597   9.118   4.634
24257W        W89077   2.768  32.099   0.461
24258W        W89078  42.108  16.979  11.139
24259W        W89079  34.822  44.428  11.015
24260W        W89080  28.714  35.413   2.727
24261W        W89081   8.840  33.461   5.123
24262W        W89082  25.171  39.045  11.928
24263W        W89083  20.149   3.796   4.630
24264W        W89084  13.052  10.053  11.500
24265W        W89085  12.865  26.990  12.494
24266W        W89086  24.080   1.750   2.019
24267W        W89087  20.624  15.290  13.819
24268W        W89088  28.757  18.215   1.787
24269W        W89089  16.306  33.535  14.243
24270W        W89090   1.794  39.095  11.708
24271W        W89091  22.880  40.897  13.932
24272W        W89092  17.061  39.776  12.514
24273W        W89093  18.530  19.231  12.848
24274W        W89094   2.840  44.869   3.324
24275W        W89095  37.042  33.986  10.712
24276W        W89096  21.477  43.547  13.041
24277W        W89097  27.735   6.827   0.429
24278W        W89098  17.364  28.121  11.983
24279W        W89099  42.611  32.217   4.300
24280W        W89100   5.694  32.989  11.866
24281W        W89101  37.872  37.781  13.890
24282W        W89102  32.925   0.218   3.414
24283W        W89103   5.186  40.769   4.334
24284W        W89104  30.664  39.150  11.241
24285W        W89105  30.988  12.719  13.485
24286W        W89106  20.058   2.239  13.919
24287W        W89107  38.962  32.616   0.953
24288W        W89108  18.321  38.909  12.076
24289W        W89109  15.277  44.524  10.962
24290W        W89110  17.221  32.958   1.727
24291W        W89111   8.628  26.962   2.199
24292W        W89112   6.109  44.818  13.668
24293W        W89113   6.091  22.542  10.744
24294W        W89114  34.869  27.044  13.124
24295W        W89115  29.417  13.317   2.724
24296W        W89116  25.683  44.843  14.973
24297W        W89117  25.678   1.450   0.181
24298W        W89118  33.840  40.597   2.888
24299W        W89119  26.238  21.054  14.097
24300W        W89120  34.784  34.897  14.802
24301W        W89121   2.899  13.013  11.651
24302W        W89122  17.114  40.406   0.493
24303W        W89123  44.185  39.764  14.508
24304W        W89124   3.903   0.801   1.403
24305W        W89125  27.696   8.272   4.549
24306W        W89126  16.685  11.766  10.397
24307W        W89127  40.612  32.191  14.938
24308W        W89128  43.266  29.090   4.633
24309W        W89129  14.214  40.453   4.589
24310W        W89130  19.245  40.427  10.939
24311W        W89131  35.110   9.834  10.276
24312W        W89132  39.317  21.980  14.724
24313W        W89133  42.584  37.050   3.152
24314W        W89134  15.657   1.000   5.037
24315W        W89135  25.532  31.991   3.242
24316W        W89136  15.681  19.737   4.591
24317W        W89137  17.104  25.652  13.356
24318W        W89138  27.134   3.849   4.060
24319W        W89139  17.950  15.232   2.684
24320W        W89140  31.307  31.582   1.727
24321W        W89141  16.161  20.706  11.608
24322W        W89142  22.790  26.175   0.724
24323W        W89143  29.011  28.029   4.653
24324W        W89144  43.217  44.300   1.970
24325W        W89145  31.799   7.284   0.892
24326W        W89146  44.071  34.125   1.381
24327W        W89147  15.079  38.044   2.884
24328W        W89148   1.407  13.317   2.182
24329W        W89149  33.650  21.991   4.162
24330W        W89150   6.794   8.429  13.479
24331W        W89151  41.459  26.482  12.638
24332W        W89152   1.807  20.242   3.193
24333W        W89153  26.152   5.792  14.875
24334W        W89154   3.872  37.033   0.540
24335W        W89155   7.312  31.931   1.861
24336W        W89156  43.734  11.485   1.423
24337W        W89157   9.291  43.917  10.501
24338W        W89158  34.994  18.308   0.473
24339W        W89159  14.334  40.063   3.439
24340W        W89160  39.025  29.995  11.045
24341W        W89161  42.329   6.784   0.649
24342W        W89162  17.157   1.302   0.725
24343W        W89163  30.053  38.061   2.385
24344W        W89164   4.140  32.489   1.718
24345W        W89165  27.111  10.809  11.192
24346W        W89166  19.978  44.900   0.996
24347W        W89167  41.926   3.861  12.686
24348W        W89168  40.739   8.150  11.670
24349W        W89169   7.839  37.321   0.500
24350W        W89170  28.384   6.639  13.643
24351W        W89171   8.211  22.711  12.147
24352W        W89172  11.529  11.147   0.181
24353W        W89173  25.878  43.740   2.411
24354W        W89174  20.946  33.275   4.185
24355W        W89175  14.794  41.015   1.098
24356W        W89176  40.783   7.872  12.985
24357W        W89177  18.709  35.525  13.387
24358W        W89178   9.693  34.889  12.517
24359W        W89179  16.743  29.719  12.225
24360W        W89180  21.551  11.021   0.037
24361W        W89181  38.681  39.495   0.008
24362W        W89182  44.318  24.169  13.444
24363W        W89183  33.895  31.177   3.583
24364W        W89184  27.321  39.090   1.669
24365W        W89185   1.889   8.388  11.847
24366W        W89186  10.598  17.094   2.312
24367W        W89187  13.857   6.228  10.714
24368W        W89188  22.533  15.658   0.036
24369W        W89189  22.564  22.785  11.605
24370W        W89190  28.033   5.229   4.888
24371W        W89191  11.877   3.405   4.206
24372W        W89192  31.598  19.046   3.958
24373W        W89193  28.537   2.898   1.332
24374W        W89194  29.588  26.822  11.147
24375W        W89195  38.436  31.412   0.818
24376W        W89196  30.460  16.605  12.676
24377W        W89197   7.354  20.464  13.800
24378W        W89198  36.058   3.360   4.687
24379W        W89199  18.483  15.318  13.993
24380W        W89200  15.153   8.334   4.139
24381W        W89201  42.444  41.447  12.792
24382W        W89202   9.874  39.035  11.619
24383W        W89203  22.147  15.591  11.675
24384W        W89204  18.361   5.934   2.112
24385W        W89205  38.353  27.070  14.488
24386W        W89206  13.629  43.726  11.983
24387W        W89207  18.824  24.685   2.707
24388W        W89208   7.082  22.310  11.573
24389W        W89209  37.516  27.395   3.613
24390W        W89210  29.621  36.212   2.305
24391W        W89211  14.804  40.940  11.582
24392W        W89212   0.238   4.413  12.050
24393W        W89213  40.596  21.803  13.416
24394W        W89214  13.617  15.419  10.537
24395W        W89215  29.848  41.574  12.412
24396W        W89216  37.747   7.751  13.967
24397W        W89217  31.067  39.048   1.369
24398W        W89218  10.332  17.273   3.215
24399W        W89219  22.629  18.225   4.488
24400W        W89220  31.904  13.863   3.215
24401W        W89221  27.502  34.165   1.850
24402W        W89222  28.477   9.847  13.056
24403W        W89223   5.689  14.896  12.040
24404W        W89224  31.072  29.391  12.487
24405W        W89225  42.568  39.829  11.638
24406W        W89226   4.890   2.359   2.301
24407W        W89227  12.579  15.064  12.961
24408W        W89228  29.223  34.499   4.643
24409W        W89229  43.889  24.971  12.662
24410W        W89230  36.519  14.349   2.258
24411W        W89231  35.763  15.558   4.643
24412W        W89232   9.248  26.483  11.853
24413W        W89233  17.157   4.920  12.159
24414W        W89234  15.735   4.674   1.281
24415W        W89235  18.280  44.207  12.062
24416W        W89236  39.916  21.483   0.065
24417W        W89237  23.230  38.556   3.301
24418W        W89238  16.881  26.119   0.676
24419W        W89239  18.014  39.579   4.678
24420W        W89240  28.463   8.677   5.143
24421W        W89241  23.665  41.918   0.048
24422W        W89242  15.716  33.436  12.455
24423W        W89243  30.018   2.464  12.030
24424W        W89244  31.581  28.549   3.704
24425W        W89245  15.171  35.735  12.919
24426W        W89246  33.520   9.769   4.032
24427W        W89247   9.892  38.044   4.481
24428W        W89248  28.904  39.969  10.775
24429W        W89249  15.233  39.930  14.309
24430W        W89250  12.282  27.411   0.799
24431W        W89251  24.010   6.371   1.186
24432W        W89252  28.615  31.169   0.673
24433W        W89253  12.926   6.319  12.212
24434W        W89254  28.122  43.839   2.868
24435W        W89255  43.469  18.624   1.452
24436W        W89256  17.295   3.895   3.487
24437W        W89257  32.492   5.728   2.690
24438W        W89258  12.796  29.367  14.958
24439W        W89259  18.982  27.877  11.134
24440W        W89260  36.934   2.659   3.529
24441W        W89261  40.369  26.626  13.391
24442W        W89262  12.748  40.748  12.480
24443W        W89263  19.673   7.084   1.242
24444W        W89264  13.219  23.588  13.402
24445W        W89265  20.295  11.776   4.469
24446W        W89266  37.983   9.359   2.677
24447W        W89267  32.859   7.323   4.409
24448W        W89268   2.739  30.981   0.940
24449W        W89269  19.104   3.828   1.462
24450W        W89270  27.067   3.680   2.289
24451W        W89271  42.051  15.012  12.635
24452W        W89272  41.348  34.864  13.041
24453W        W89273  29.621  34.461  12.542
24454W        W89274   0.604   9.330   2.805
24455W        W89275   4.672   7.183   2.824
24456W        W89276  27.703  31.061  11.616
24457W        W89277  23.758  25.272   3.459
24458W        W89278  24.875  31.926  13.405
24459W        W89279  33.851   4.398   3.299
24460W        W89280  33.605  38.655  14.371
24461W        W89281   3.531  32.377   3.320
24462W        W89282   6.306  10.300   1.693
24463W        W89283  42.926  10.729   3.889
24464W        W89284  29.799  31.932  12.501
24465W        W89285  37.786  38.040  10.495
24466W        W89286  11.034   8.849   1.418
24467W        W89287  36.415  25.247  12.196
24468W        W89288  17.828  36.684  13.380
24469W        W89289  24.073   9.803  14.444
24470W        W89290  32.045  14.466   1.022
24471W        W89291  20.693   5.732   3.098
24472W        W89292  30.902  12.037  11.378
24473W        W89293  37.887  41.367   4.553
24474W        W89294   1.606  21.315   2.443
24475W        W89295  38.450  30.952  12.475
24476W        W89296  25.783  41.112   3.266
24477W        W89297  31.019  41.929   4.506
24478W        W89298  37.756  36.853  13.155
24479W        W89299   8.493  23.328   0.760
24480W        W89300  21.356  38.787   2.276
24481W        W89301  38.981  32.339   0.380
24482W        W89302  38.569  17.321   3.533
24483W        W89303  44.767  17.202  11.047
24484W        W89304  26.046  20.634   1.816
24485W        W89305  20.850  29.261   4.178
24486W        W89306  20.343  10.883   4.687
24487W        W89307  34.623  21.664   0.996
24488W        W89308   3.218  35.600  13.493
24489W        W89309  37.656  28.023  13.986
24490W        W89310  15.317   2.554   0.389
24491W        W89311  23.530  19.754   1.297
24492W        W89312  20.344  19.082   0.301
24493W        W89313   4.149  24.734  11.099
24494W        W89314  35.989  13.173   0.326
24495W        W89315   6.776  13.597   1.369
24496W        W89316  26.507  17.845  12.944
24497W        W89317  17.057  38.873  12.590
24498W        W89318   6.188  29.542  13.501
24499W        W89319  16.075  14.991   2.828
24500W        W89320  44.982  32.532  11.429
24501W        W89321   1.502  35.064  12.027
24502W        W89322  15.925  30.195  13.328
24503W        W89323  16.427  14.089   2.604
24504W        W89324   5.954   1.721  12.937
24505W        W89325   6.604  28.439  11.081
24506W        W89326   3.526  28.967   4.171
24507W        W89327  42.397   3.662   1.805
24508W        W89328   3.879  16.631  12.294
24509W        W89329  13.072  25.257   0.375
24510W        W89330   5.456  26.995  13.592
24511W        W89331  43.281  43.552   2.647
24512W        W89332  34.206  44.809  13.432
24513W        W89333  35.873  23.733   2.017
24514W        W89334  32.812  28.605  11.605
24515W        W89335  14.620  17.350  14.297
24516W        W89336   4.314  12.700  12.884
24517W        W89337  16.034  21.726  13.927
24518W        W89338   8.252  18.171  11.142
24519W        W89339   5.568   1.060  11.235
24520W        W89340  14.710   6.714  14.900
24521W        W89341  19.090  11.138  12.977
24522W        W89342  27.147  36.296  13.337
24523W        W89343  15.673  13.304  14.544
24524W        W89344   0.780   4.874   1.640
24525W        W89345  20.970  19.771  14.852
24526W        W89346   9.815  27.670   1.895
24527W        W89347   1.013  33.470  11.250
24528W        W89348  35.526  12.677   3.756
24529W        W89349   0.966   1.809  13.899
24530W        W89350  44.692  12.596  13.927
24531W        W89351  20.023  35.098   3.172
24532W        W89352  32.854  22.014   5.501
24533W        W89353   3.659  15.522   1.369
24534W        W89354  28.744   4.599  11.459
24535W        W89355   3.409  37.037   3.423
24536W        W89356   9.871  42.877   0.495
24537W        W89357   2.479  36.500   1.739
24538W        W89358  14.621  36.290   3.322
24539W        W89359   3.040  17.056   2.358
24540W        W89360   1.709  42.503   4.241
24541W        W89361   0.212  19.061   3.741
24542W        W89362   9.904  15.060   4.137
24543W        W89363  40.806   8.700   2.060
24544W        W89364  14.414  14.755   4.825
24545W        W89365   8.129  21.684   3.725
24546W        W89366  24.072  19.698   1.498
24547W        W89367  21.074  18.013  12.290
24548W        W89368  22.721  33.604  11.185
24549W        W89369  28.111  44.610  12.057
24550W        W89370  20.653  19.789  12.558
24551W        W89371  38.631  23.536  13.502
24552W        W89372  19.090   3.703  13.914
24553W        W89373  17.895   1.906  13.175
24554W        W89374   0.403  22.318  13.522
24555W        W89375  15.062  30.282   3.158
24556W        W89376   4.764  17.016   4.016
24557W        W89377  27.705  22.655   0.411
24558W        W89378  40.789   5.115   4.384
24559W        W89379  20.171   1.449   2.805
24560W        W89380   1.636  16.773   4.676
24561W        W89381  11.417  28.996  13.836
24562W        W89382   8.471   8.371   2.615
24563W        W89383  22.633  11.877  11.532
24564W        W89384  40.459   0.926  12.190
24565W        W89385  33.611  11.307  13.309
24566W        W89386  38.683  24.572   1.732
24567W        W89387   2.822  15.580   4.371
24568W        W89388   4.303  41.052  14.952
24569W        W89389  12.330  11.374   1.835
24570W        W89390  10.152  38.731  14.027
24571W        W89391  33.574  10.789  13.332
24572W        W89392  44.715  44.379   0.988
24573W        W89393  12.129  23.743  11.540
24574W        W89394  18.841   6.396  12.291
24575W        W89395  27.104  11.738  12.646
24576W        W89396   8.155  18.775  13.907
24577W        W89397   2.350  14.608   2.775
24578W        W89398  41.110   1.989   1.937
24579W        W89399   1.698  40.940  13.923
24580W        W89400  15.900  19.809  11.115
24581W        W89401  27.047  39.548  13.651
24582W        W89402  28.741  28.121   1.679
24583W        W89403  10.919  21.082  11.065
24584W        W89404   3.284   2.722  13.042
24585W        W89405  42.861  42.522   0.907
24586W        W89406  30.032  23.262  11.002
24587W        W89407   0.713  20.613   2.525
24588W        W89408  37.489  26.264  12.065
24589W        W89409  13.155  12.828  12.029
24590W        W89410  14.155  16.443  13.981
24591W        W89411  22.395  38.474  10.755
24592W        W89412  44.508   7.928  14.802
24593W        W89413  11.095  11.562   1.409
24594W        W89414  21.000  31.585  12.001
24595W        W89415   2.995  22.936   0.657
24596W        W89416  25.141   1.698  11.104
24597W        W89417  18.262  35.556  11.844
24598W        W89418  15.592  11.484  13.332
24599W        W89419  18.315  31.111   3.156
24600W        W89420  27.203  31.712  13.834
24601W        W89421   2.414  22.448   3.127
24602W        W89422   9.492   3.583  14.587
24603W        W89423  16.589  29.763   4.117
24604W        W89424  22.142  16.719  13.051
24605W        W89425   9.839  14.894   0.411
24606W        W89426  10.578  18.239  12.359
24607W        W89427  40.847  43.822  12.088
24608W        W89428  42.060  14.676   2.341
24609W        W89429  43.916  28.988  13.663
24610W        W89430  34.915   5.688   0.525
24611W        W89431  15.691  10.766  12.890
24612W        W89432   2.988  33.158  10.576
24613W        W89433  13.261   6.008   3.373
24614W        W89434   1.759   9.198  11.693
24615W        W89435  10.210  34.035  12.519
24616W        W89436   6.900  41.394   4.397
24617W        W89437  17.910  37.515  13.746
24618W        W89438  10.344  32.374   0.127
24619W        W89439  25.978   5.789   1.784
24620W        W89440  30.035   0.854   3.370
24621W        W89441  39.382  44.785   2.385
24622W        W89442   9.412   8.800  12.821
24623W        W89443  19.816   8.198  13.796
24624W        W89444  16.593   4.690   0.784
24625W        W89445   3.711   7.362  12.846
24626W        W89446  11.277  42.571   5.097
24627W        W89447  43.190  43.837   2.219
24628W        W89448  27.185  30.711   2.887
24629W        W89449  26.926  32.017  12.970
24630W        W89450  34.592  27.556   3.764
24631W        W89451  41.975  26.248   3.418
24632W        W89452   3.743  10.183  13.992
24633W        W89453   9.193  24.048  11.483
24634W        W89454  32.436  34.811  11.177
24635W        W89455  37.931  41.464   3.502
24636W        W89456  37.652  25.976  12.930
24637W        W89457   8.157  19.009  12.930
24638W        W89458  28.103  40.877   3.407
24639W        W89459  39.021  42.707  13.479
24640W        W89460  44.520   0.128  12.024
24641W        W89461  24.013  27.619   4.104
24642W        W89462  33.170  43.855   4.153
24643W        W89463  34.379  24.393   1.389
24644W        W89464   6.185  17.201   4.327
24645W        W89465   1.811  30.790  14.844
24646W        W89466   3.835   1.112   2.750
24647W        W89467  24.700  44.213  13.190
24648W        W89468   0.531   9.307  12.560
24649W        W89469  17.784  10.735   2.785
24650W        W89470  37.639   3.804  13.787
24651W        W89471   4.665  19.322  13.088
24652W        W89472  36.044  14.527   2.325
24653W        W89473   1.055   0.589  11.097
24654W        W89474   4.527  44.385   9.937
24655W        W89475  19.774  23.499  11.036
24656W        W89476  10.112  28.888  12.060
24657W        W89477  14.256  24.116   3.213
24658W        W89478  29.707  29.765   4.132
24659W        W89479   3.821  20.778  10.597
24660W        W89480   1.606  25.485  11.170
24661W        W89481  32.142  40.389   5.128
24662W        W89482  44.030  11.272   1.791
24663W        W89483  14.462   9.955  12.838
24664W        W89484  25.670  23.729  14.339
24665W        W89485  35.800  19.588   2.894
24666W        W89486   7.288  36.465   3.864
24667W        W89487   1.890  26.531   2.534
24668W        W89488  31.553  17.395  12.045
24669W        W89489  21.557   1.747  13.402
24670W        W89490   4.942  12.492  14.983
24671W        W89491   9.173  12.826   1.369
24672W        W89492   2.497   9.056   0.869
24673W        W89493   6.305  31.916  12.864
24674W        W89494  44.365  19.992   1.023
24675W        W89495  41.933  34.046   3.377
24676W        W89496  43.818  29.721   3.627
24677W        W89497   6.773  38.881   1.257
24678W        W89498  29.347  35.217   2.383
24679W        W89499  31.447   4.371  13.820
24680W        W89500  37.121  13.114   4.080
24681W        W89501   8.353  39.285   3.203
24682W        W89502  24.250  28.966  10.471
24683W        W89503  35.409   5.408  13.472
24684W        W89504   3.291  29.849  11.945
24685W        W89505  42.755   5.287  10.691
24686W        W89506   9.680  13.476  13.411
24687W        W89507  43.618  17.180  12.580
24688W        W89508  25.668  40.121   2.344
24689W        W89509  27.585   2.972  14.340
24690W        W89510  42.985  23.270   2.174
24691W        W89511   9.298  40.851  13.207
24692W        W89512  25.909  16.566   5.620
24693W        W89513   1.335  13.204   0.700
24694W        W89514  22.069  10.819  10.870
24695W        W89515  38.390   5.589  14.761
24696W        W89516  14.067  32.338  11.158
24697W        W89517  13.312  35.072  14.895
24698W        W89518  22.007   1.691  13.865
24699W        W89519   0.361  37.326  13.525
24700W        W89520   6.941  19.221   3.608
24701W        W89521  16.516  16.725   0.825
24702W        W89522   5.673   1.847  13.366
24703W        W89523  39.998  44.987  11.497
24704W        W89524  21.075   2.919  14.599
24705W        W89525  32.040  29.975  12.006
24706W        W89526  24.662  18.762   9.857
24707W        W89527   4.467  17.037  13.345
24708W        W89528  34.708  10.743  12.511
24709W        W89529  22.259   8.594   0.801
24710W        W89530  33.583   3.015   3.709
24711W        W89531  37.494   4.757  13.304
24712W        W89532   3.457  25.044   2.905
24713W        W89533  28.609  24.144   3.707
24714W        W89534  31.960  43.080   0.426
24715W        W89535   4.436  16.873   0.000
24716W        W89536   8.848  39.310   1.478
24717W        W89537   2.705  12.020  12.467
24718W        W89538   1.499  35.461   0.220
24719W        W89539  18.599  24.956   3.101
24720W        W89540   3.781  39.418   3.615
24721W        W89541   3.407  27.452   1.162
24722W        W89542  25.454  17.089   4.296
24723W        W89543  32.897   6.757  10.542
24724W        W89544   5.915  12.220   2.984
24725W        W89545  42.036   5.863  14.282
24726W        W89546  42.875   3.452   1.793
24727W        W89547  34.879  43.486  13.746
24728W        W89548  29.378  31.950  14.461
24729W        W89549  23.233   9.835   2.268
24730W        W89550  28.605  29.965  14.261
24731W        W89551  38.942  34.292  12.114
24732W        W89552  18.267  22.049  12.535
24733W        W89553   8.866  10.880   0.358
24734W        W89554   1.427  41.565  10.536
24735W        W89555  29.997  43.071   0.165
24736W        W89556  18.869  11.841   4.152
24737W        W89557  44.888  42.456   4.973
24738W        W89558  18.347  28.497   0.901
24739W        W89559   7.921   2.802   1.784
24740W        W89560  31.017  36.847  12.078
24741W        W89561   2.494  43.187   2.810
24742W        W89562  33.934  33.981   2.227
24743W        W89563  42.401   4.945   2.305
24744W        W89564  30.752  34.440  13.361
24745W        W89565  32.260  18.256  12.072
24746W        W89566  33.296  22.028  14.307
24747W        W89567  37.541  17.304  12.361
24748W        W89568  26.412  34.361  12.357
24749W        W89569  23.366  19.260   3.653
24750W        W89570  14.992  17.040  13.458
24751W        W89571  26.527  21.545  12.055
24752W        W89572   8.284  27.127  12.627
24753W        W89573   6.415  11.990   3.948
24754W        W89574  24.661  43.724  11.495
24755W        W89575  24.448   2.457  14.821
24756W        W89576  11.640  19.110  13.871
24757W        W89577  11.837  16.688  14.891
24758W        W89578  28.739  36.426   2.175
24759W        W89579  40.891   5.118  14.354
24760W        W89580  32.550  27.235  12.469
24761W        W89581  16.707  12.778   1.236
24762W        W89582  10.007  42.992  13.713
24763W        W89583  44.280  15.696  10.760
24764W        W89584  32.612  26.732   4.432
24765W        W89585  43.051  10.493   0.841
24766W        W89586   3.523  17.153   3.656
24767W        W89587  42.075  38.554  14.562
24768W        W89588   3.114  40.250   0.775
24769W        W89589  41.644  23.089   0.509
24770W        W89590  11.772   1.132   2.962
24771W        W89591  40.441  30.520  13.526
24772W        W89592  35.057  44.531   3.799
24773W        W89593  19.561  40.013   4.597
24774W        W89594  23.973  14.340   0.828
24775W        W89595   0.469  31.234   1.771
24776W        W89596   0.508  38.851   3.628
24777W        W89597  12.025  42.317  13.444
24778W        W89598   3.201  19.163  11.634
24779W        W89599  11.664  33.993   3.256
24780W        W89600  40.875  38.130   1.886
24781W        W89601  39.032   3.736  12.130
24782W        W89602   9.404  12.996   3.262
24783W        W89603  33.470  17.335  14.359
24784W        W89604  35.090  14.946   2.470
24785W        W89605  29.018  26.710   5.013
24786W        W89606   5.746  18.858  13.964
24787W        W89607  26.506  15.096  10.088
24788W        W89608  40.521   8.409   2.975
24789W        W89609   7.417  14.619  11.910
24790W        W89610   4.684   7.028  14.806
24791W        W89611  13.528  12.707  13.370
24792W        W89612  35.092  43.899   3.084
24793W        W89613   1.553  31.554  13.313
24794W        W89614  44.473   5.689  14.423
24795W        W89615  43.971   4.059   2.632
24796W        W89616   2.706  44.852   0.080
24797W        W89617  23.897  42.705   3.747
24798W        W89618  19.791   6.968   1.828
24799W        W89619  41.111  38.364  14.324
24800W        W89620  44.870  37.724  12.133
24801W        W89621  38.631  21.898   3.340
24802W        W89622   8.223  36.457   3.236
24803W        W89623  16.857  36.541  14.864
24804W        W89624   4.952  21.149  14.984
24805W        W89625   4.337  43.338  14.318
24806W        W89626  17.267  33.869  11.622
24807W        W89627  10.602  16.045  14.757
24808W        W89628  35.427  23.977  10.588
24809W        W89629  14.901  26.886  14.081
24810W        W89630  26.104  28.781   1.825
24811W        W89631  10.196  29.289  13.411
24812W        W89632  13.176  12.830  13.961
24813W        W89633  10.542  18.184  13.885
24814W        W89634  23.232  31.481   1.157
24815W        W89635  36.632  44.575   2.760
24816W        W89636  23.261  28.232   2.302
24817W        W89637   3.406   1.356   2.562
24818W        W89638   6.417  13.780  13.883
24819W        W89639   5.073  16.622  10.117
24820W        W89640  27.040  39.025   2.609
24821W        W89641  30.605  40.098  14.341
24822W        W89642  41.195   1.379  14.404
24823W        W89643  30.063  13.677   3.823
24824W        W89644  35.375  17.533   3.586
24825W        W89645   3.428  17.198  12.644
24826W        W89646  40.055   1.981   4.180
24827W        W89647   2.241  27.550  14.364
24828W        W89648  28.354  44.379   3.785
24829W        W89649   6.820   5.416  12.852
24830W        W89650  44.962  20.575  11.459
24831W        W89651  30.732  35.670   1.919
24832W        W89652  44.303  21.996   3.288
24833W        W89653  36.272  39.286   3.852
24834W        W89654  34.498  17.298  13.039
24835W        W89655  23.550   6.223  11.250
24836W        W89656   1.144  10.750  14.290
24837W        W89657  31.019  39.967  13.411
24838W        W89658   1.810  40.454  11.426
24839W        W89659  32.200   8.102  12.409
24840W        W89660  42.785  13.711   3.751
24841W        W89661  37.483  13.533  13.274
24842W        W89662  28.719  38.613   0.564
24843W        W89663   5.699   4.306   3.344
24844W        W89664  12.104   9.805   1.353
24845W        W89665  14.387  38.755   3.146
24846W        W89666  36.402  27.195  12.859
24847W        W89667   3.935  41.810  12.112
24848W        W89668  36.560  32.061   1.690
24849W        W89669  10.195  21.290  11.438
24850W        W89670   3.920  14.402   3.177
24851W        W89671   5.809  28.602   1.686
24852W        W89672  21.779   8.333  14.301
24853W        W89673  28.726  20.769   5.095
24854W        W89674  36.460  33.094  14.942
24855W        W89675   9.488  22.126   2.760
24856W        W89676  17.320  21.734   3.293
24857W        W89677  40.426   2.416   4.374
24858W        W89678  32.234  23.098   3.805
24859W        W89679  30.627  34.411   0.288
24860W        W89680   2.254   7.010  13.963
24861W        W89681   0.838   9.607   4.374
24862W        W89682  23.574  29.572   1.871
24863W        W89683  17.281  11.033  12.033
24864W        W89684  13.050   8.233  11.309
24865W        W89685   1.381  30.329  14.665
24866W        W89686  18.561  32.444   2.687
24867W        W89687   0.256  10.345   2.266
24868W        W89688  20.770  17.627  14.403
24869W        W89689  21.635  40.571  13.903
24870W        W89690  44.810  29.793  12.022
24871W        W89691  15.880  38.450   2.839
24872W        W89692  33.091  37.540   4.083
24873W        W89693  32.947   9.078  14.440
24874W        W89694   3.428   6.147   4.109
24875W        W89695  33.360  31.178  13.506
24876W        W89696  34.086  21.223  13.568
24877W        W89697  36.266  30.134  12.124
24878W        W89698  33.469   9.727  14.051
24879W        W89699  12.137  26.093  10.490
24880W        W89700   4.092  33.050   2.926
24881W        W89701  38.508  37.861  14.273
24882W        W89702  37.556  44.670  11.979
24883W        W89703  38.427  24.220   0.351
24884W        W89704  37.337   7.720  11.527
24885W        W89705  16.768  39.786   1.212
24886W        W89706   5.890  31.551   2.236
24887W        W89707  15.343   0.036  13.808
24888W        W89708  20.660   3.900  14.257
24889W        W89709  36.550  18.241   0.720
24890W        W89710  36.608  16.833  13.363
24891W        W89711  42.022  18.536  13.386
24892W        W89712  28.966  29.181  10.658
24893W        W89713  26.952  40.034   2.476
24894W        W89714  33.509   7.969  14.839
24895W        W89715  30.589  36.836   0.013
24896W        W89716  14.268  29.610   2.299
24897W        W89717  42.986  34.860  13.330
24898W        W89718  33.667  26.217   1.643
24899W        W89719  36.784  27.664  11.193
24900W        W89720  41.430  11.963   9.968
24901W        W89721  18.750  25.001   4.005
24902W        W89722  21.610  19.582  12.839
24903W        W89723   2.461  17.181  11.174
24904W        W89724   4.050  18.187  11.583
24905W        W89725  29.334  10.176   3.295
24906W        W89726  12.598  30.006   0.973
24907W        W89727  10.262   0.756   1.278
24908W        W89728  26.022  18.545  13.003
24909W        W89729   8.800  15.018  12.493
24910W        W89730  42.821  39.302   4.178
24911W        W89731  30.611  13.273  14.740
24912W        W89732  14.239   7.318   2.736
24913W        W89733  14.714  33.172   2.827
24914W        W89734  25.668  35.914  14.938
24915W        W89735   2.687   8.255   1.597
24916W        W89736  29.988  33.522  10.733
24917W        W89737  43.405  31.771   0.376
24918W        W89738  44.112   5.020  11.036
24919W        W89739  37.270  33.989  14.058
24920W        W89740  17.333   2.990   4.124
24921W        W89741  17.129   4.268  11.550
24922W        W89742  20.667  29.277   4.709
24923W        W89743  25.006  44.863   3.661
24924W        W89744  29.589  15.132   4.202
24925W        W89745   5.377   8.362  13.370
24926W        W89746  44.704  20.478   1.308
24927W        W89747  22.436  25.458   3.002
24928W        W89748  43.772  28.025  14.463
24929W        W89749   0.854  27.347  14.948
24930W        W89750  13.656  23.276  10.850
24931W        W89751  36.050   4.493  10.605
24932W        W89752  22.157  21.235   0.050
24933W        W89753  28.576  29.624   0.208
24934W        W89754  38.019  18.487  13.049
24935W        W89755  25.251  18.034   5.390
24936W        W89756  18.473  38.917  10.221
24937W        W89757  42.467  37.020  13.246
24938W        W89758  43.906   2.222   2.384
24939W        W89759  41.562  44.877   4.182
24940W        W89760  43.082   7.831  10.839
24941W        W89761   7.769  25.111   1.299
24942W        W89762  13.277  25.430   2.683
24943W        W89763  24.630  25.610   4.532
24944W        W89764  30.578  20.973  12.771
24945W        W89765  38.455  39.972  14.831
24946W        W89766  21.228   6.616  11.345
24947W        W89767  16.653  35.111  13.893
24948W        W89768  17.921  28.747   4.165
24949W        W89769  12.335  11.344  11.092
24950W        W89770   7.600  36.351  11.984
24951W        W89771   2.421  20.742  12.591
24952W        W89772  16.197  16.549   4.614
24953W        W89773  15.892  40.519   2.834
24954W        W89774   0.240  22.466  12.912
24955W        W89775  21.518  32.318  12.504
24956W        W89776   6.738  30.116  13.632
24957W        W89777   4.702  31.071  11.599
24958W        W89778   1.526   6.976  10.592
24959W        W89779  41.459  14.136  10.832
24960W        W89780  24.834   3.457   1.386
24961W        W89781  23.813  17.218  12.624
24962W        W89782  38.320  30.912   2.347
24963W        W89783   3.804  38.914   3.750
24964W        W89784  43.709   1.222   0.129
24965W        W89785  17.108  19.361   4.333
24966W        W89786  28.223   5.409  12.156
24967W        W89787  24.553   5.667   3.944
24968W        W89788   1.552  34.212  11.080
24969W        W89789  18.900  22.063   3.687
24970W        W89790  21.520  28.354  12.469
24971W        W89791   6.169  18.157   4.179
24972W        W89792  24.017  15.282  12.841
24973W        W89793  16.040  23.754  14.850
24974W        W89794   1.314   2.893   1.171
24975W        W89795  39.481  30.847  13.493
24976W        W89796  26.407   6.256   3.367
24977W        W89797  35.936  16.985   1.984
24978W        W89798  24.478  13.107  11.160
24979W        W89799  34.995  38.906  14.000
24980W        W89800  11.340   2.000  12.051
24981W        W89801  24.078   9.478  11.771
24982W        W89802  43.211  36.094  12.448
24983W        W89803  31.714   8.867   0.405
24984W        W89804   6.344  36.631   4.022
24985W        W89805  32.437  44.020  14.455
24986W        W89806   2.997   8.678  12.044
24987W        W89807   0.414  17.132   2.099
24988W        W89808  29.668  28.606  13.321
24989W        W89809  27.475  10.665   4.416
24990W        W89810  41.994  26.644   3.738
24991W        W89811  14.373  26.085  11.609
24992W        W89812  19.811  12.606  10.659
24993W        W89813  43.821  33.134  14.724
24994W        W89814  35.039  42.650   0.400
24995W        W89815   4.949  40.701  12.536
24996W        W89816  30.748   1.794  11.053
24997W        W89817   7.088   4.458  13.621
24998W        W89818  32.238  33.427   4.778
24999W        W89819   2.445  44.909   1.354
25000W        W89820  42.719  43.386   2.801
25001W        W89821  36.266   7.157  14.484
25002W        W89822  38.910  29.465  11.985
25003W        W89823  26.019  27.647  12.031
25004W        W89824  23.277  17.362  11.066
25005W        W89825  32.034  30.288   1.170
25006W        W89826   5.908  39.286  13.549
25007W        W89827  17.930  13.718   0.920
25008W        W89828   1.736  10.892   3.790
25009W        W89829  29.102  23.106   4.397
25010W        W89830  38.926  31.012  14.901
25011W        W89831  33.635  38.521   1.980
25012W        W89832   9.206  37.830  14.374
25013W        W89833   9.904  24.333   5.071
25014W        W89834  23.424   1.048   0.811
25015W        W89835  11.548  24.692  13.311
25016W        W89836  12.709  38.942   2.719
25017W        W89837  25.463  12.529  11.002
25018W        W89838   4.792  13.164   5.052
25019W        W89839  32.394   2.239   0.090
25020W        W89840  16.733   7.464   3.181
25021W        W89841  28.769  13.341   3.360
25022W        W89842  28.529  18.705   1.728
25023W        W89843  31.337  25.855  10.772
25024W        W89844  44.751  13.663   2.299
25025W        W89845  32.574   8.830  11.633
25026W        W89846   8.140  22.955   3.038
25027W        W89847  35.156  37.255   3.593
25028W        W89848  23.071  28.957  12.453
25029W        W89849  34.999  13.067  11.134
25030W        W89850  43.079  25.510   1.832
25031W        W89851  19.788  11.790   3.786
25032W        W89852   6.732  22.103   1.924
25033W        W89853  21.531   4.972  12.866
25034W        W89854  33.215  22.202  10.126
25035W        W89855  40.447  21.110   1.154
25036W        W89856   9.989   5.407   1.357
25037W        W89857  27.918  37.536  10.198
25038W        W89858  41.851  24.655  14.819
25039W        W89859  14.702  34.660   0.129
25040W        W89860  34.664  13.221   3.185
25041W        W89861   3.219  11.266   4.162
25042W        W89862  43.358  24.893   4.948
25043W        W89863  38.088   9.197  10.542
25044W        W89864  40.472  32.476  11.451
25045W        W89865   2.908  33.162   2.189
25046W        W89866  14.010  40.895  13.405
25047W        W89867  32.437   4.452  10.745
25048W        W89868  21.515  42.469   0.588
25049W        W89869  41.339  43.731   3.253
25050W        W89870  38.026   7.906   0.020
25051W        W89871  33.936  22.040  12.404
25052W        W89872  29.316   5.263  14.988
25053W        W89873   7.440  16.780  14.756
25054W        W89874  16.673  25.246   4.054
25055W        W89875  38.827  28.015  14.832
25056W        W89876  15.174   1.469   1.020
25057W        W89877  29.189  32.219  14.893
25058W        W89878  16.582   9.219   5.485
25059W        W89879  39.319  37.591  14.912
25060W        W89880   6.185  20.921   0.326
25061W        W89881   2.473  13.122   2.738
25062W        W89882   1.015  32.452  13.921
25063W        W89883  31.547   9.890  11.684
25064W        W89884   7.127  24.407   3.054
25065W        W89885  16.609  36.779   1.683
25066W        W89886  18.190  19.813   4.598
25067W        W89887  40.506  39.582  10.979
25068W        W89888  35.865  15.013  12.663
25069W        W89889  37.993   2.753   1.686
25070W        W89890  28.490  13.681   0.480
25071W        W89891   7.560  18.994   4.142
25072W        W89892  16.025   7.477   2.891
25073W        W89893  19.458   7.259  12.278
25074W        W89894  28.578  36.750  12.994
25075W        W89895  27.218  38.475   0.765
25076W        W89896  40.239   6.817  11.232
25077W        W89897   2.830  16.094   0.380
25078W        W89898  38.677  21.670  13.879
25079W        W89899  34.596   7.744   4.087
25080W        W89900  35.602  11.818   3.689
25081W        W89901  13.621  32.622   0.276
25082W        W89902  33.605   3.901   2.569
25083W        W89903   8.951  18.635   3.695
25084W        W89904  36.406  24.892  14.443
25085W        W89905  41.919  10.807   0.110
25086W        W89906  38.491  16.321   1.012
25087W        W89907  13.639  19.271   3.786
25088W        W89908  30.172  11.790  12.342
25089W        W89909  24.006   0.409  10.794
25090W        W89910  38.403  19.539   3.784
25091W        W89911  27.417  37.045   0.696
25092W        W89912  27.371  24.243   3.241
25093W        W89913  41.093  37.605  13.468
25094W        W89914  19.155   1.527   4.129
25095W        W89915  28.708  42.790   3.478
25096W        W89916   0.899  23.070  13.442
25097W        W89917  24.991   7.658  14.351
25098W        W89918  24.269   5.421   0.284
25099W        W89919  35.021  10.183  12.327
25100W        W89920  17.079   5.323   4.823
25101W        W89921  33.758  26.951  13.844
25102W        W89922  10.324   3.241  12.668
25103W        W89923  11.787  23.738   4.031
25104W        W89924  44.355  36.494  12.087
25105W        W89925  25.045  21.769   4.255
25106W        W89926  30.509  20.127   0.317
25107W        W89927  34.105  19.819  10.711
25108W        W89928  17.751  17.152   3.240
25109W        W89929  41.234  43.231  10.668
25110W        W89930  16.215  24.022  13.058
25111W        W89931  40.966  28.051  12.511
25112W        W89932  28.280   0.700  14.337
25113W        W89933   3.964  32.092   3.356
25114W        W89934  13.153  38.503  10.918
25115W        W89935  28.730  42.878   2.229
25116W        W89936  16.261  13.502  13.001
25117W        W89937  21.633  30.008  10.948
25118W        W89938  44.238   2.286   1.568
25119W        W89939  39.096  27.029  12.809
25120W        W89940  19.140   8.133   3.611
25121W        W89941  44.817  24.715   2.585
25122W        W89942  19.159  29.110  13.763
25123W        W89943  39.435  20.781   1.995
25124W        W89944  15.252  36.874   1.266
25125W        W89945   5.260  13.385   2.273
25126W        W89946  35.587  15.217  10.269
25127W        W89947  12.627  44.604  13.517
25128W        W89948  20.008   9.027  14.573
25129W        W89949  11.336  37.353   3.687
25130W        W89950  36.624  38.073  11.152
25131W        W89951  31.590  19.663  13.496
25132W        W89952  25.588  13.806  11.093
25133W        W89953  10.291  28.389   3.561
25134W        W89954  37.996  21.091  14.063
25135W        W89955  18.021  36.199  12.569
25136W        W89956  21.709   0.805  13.904
25137W        W89957  25.904   6.773   0.876
25138W        W89958  36.884   4.193  11.151
25139W        W89959  14.273  13.600  11.931
25140W        W89960   4.363  38.021  10.397
25141W        W89961  29.656  32.638  10.927
25142W        W89962  14.499   1.417  11.624
25143W        W89963  36.852   7.213  12.106
25144W        W89964  14.884   6.737  13.451
25145W        W89965   3.557   7.234  14.284
25146W        W89966   2.922  34.700  12.844
25147W        W89967  35.987   9.848  12.611
25148W        W89968  41.132  35.578   4.193
25149W        W89969  36.523  24.989   1.697
25150W        W89970   8.371  21.552  11.632
25151W        W89971  17.257   1.487   3.634
25152W        W89972  19.081  27.063   2.242
25153W        W89973  31.475   8.642   3.598
25154W        W89974  21.027  11.104   0.972
25155W        W89975  20.318  33.394   2.421
25156W        W89976  34.077  37.056   2.325
25157W        W89977   6.698  34.490  12.354
25158W        W89978  34.058   9.139  11.824
25159W        W89979  30.055   7.968   0.089
25160W        W89980  34.115  30.578  13.459
25161W        W89981   8.457   9.841  11.541
25162W        W89982  17.615   2.740  14.399
25163W        W89983  43.458  38.927   4.097
25164W        W89984   4.615  38.595  11.052
25165W        W89985  24.326  10.252  14.283
25166W        W89986   3.793  24.751   1.262
25167W        W89987   3.540  32.530  11.108
25168W        W89988  13.628  20.918  13.668
25169W        W89989  18.142  17.519   3.256
25170W        W89990  41.559  22.662   1.815
25171W        W89991   1.865  41.543   3.037
25172W        W89992  42.446  39.770   1.357
25173W        W89993  23.924  44.051  10.529
25174W        W89994  39.357  14.306  12.477
25175W        W89995   2.700  23.310  14.730
25176W        W89996  33.312  28.783   1.818
25177W        W89997  27.913  20.213  14.765
25178W        W89998  36.540   2.540   3.161
25179W        W89999  32.665  39.856   3.521
25180W        W90000  31.549   6.281  11.460
25181W        W90001   4.254  18.286   0.911
25182W        W90002   0.931  32.673   2.337
25183W        W90003  18.279  11.944   1.650
25184W        W90004  28.226   4.309   2.792
25185W        W90005  32.589  20.188  12.748
25186W        W90006  12.216  32.551  11.516
25187W        W90007  34.558  17.139  11.026
25188W        W90008  35.897  39.327  12.460
25189W        W90009  33.203   9.843  14.480
25190W        W90010   5.981  40.286   4.579
25191W        W90011   5.611  15.716  10.428
25192W        W90012   5.017  10.256  11.600
25193W        W90013  18.747  42.763  12.010
25194W        W90014   4.312  31.995  13.553
25195W        W90015   7.621  11.319  13.603
25196W        W90016  34.419   8.906   4.622
25197W        W90017  12.143  43.748  14.928
25198W        W90018   1.629  21.974   3.669
25199W        W90019  20.615  34.063   0.900
25200W        W90020   1.539  32.939   2.115
25201W        W90021  44.285   0.342   4.057
25202W        W90022  31.996  42.395  14.838
25203W        W90023  20.274  14.655   1.959
25204W        W90024  10.977  11.542  11.169
25205W        W90025  31.528  15.149   4.581
25206W        W90026  20.700  34.083   3.970
25207W        W90027  10.056  30.457   2.644
25208W        W90028   7.067  27.099   5.326
25209W        W90029  11.714  10.730   2.870
25210W        W90030  30.640  14.634   2.189
25211W        W90031  14.598  35.474   3.666
25212W        W90032   1.659  44.429   4.412
25213W        W90033  23.095  30.085   1.694
25214W        W90034   9.088  20.785   4.504
25215W        W90035  16.078  35.406   1.831
25216W        W90036   9.364  37.836  14.892
25217W        W90037   0.436  35.976   3.940
25218W        W90038  23.361  10.863  11.120
25219W        W90039  33.476  27.890  14.459
25220W        W90040  34.186  24.101  14.898
25221W        W90041  30.934  36.601   2.672
25222W        W90042   9.918  33.298   4.614
25223W        W90043   6.948  35.004  14.909
25224W        W90044   5.192   9.481   3.558
25225W        W90045   2.778  23.054  11.212
25226W        W90046  13.571  34.235  14.984
25227W        W90047  16.807  19.514  12.559
25228W        W90048   7.260  15.795  11.078
25229W        W90049  11.197  41.898   3.301
25230W        W90050  14.155   3.776   3.376
25231W        W90051  37.484  17.100   1.344
25232W        W90052  33.569  28.483   0.550
25233W        W90053  30.166  34.801  10.956
25234W        W90054  18.271  16.801  12.388
25235W        W90055  37.170  25.620  13.931
25236W        W90056  42.381  26.954  12.505
25237W        W90057  36.988  15.093  12.123
25238W        W90058  42.059  28.220  11.628
25239W        W90059  38.759  44.826   2.413
25240W        W90060  14.153  11.846   2.538
25241W        W90061   3.496  42.482  13.432
25242W        W90062  34.169  32.709  13.612
25243W        W90063  38.573  35.369  12.496
25244W        W90064   5.705  32.499  13.109
25245W        W90065  12.023  12.786   2.835
25246W        W90066  19.133  31.670  12.939
25247W        W90067  26.117  21.566  14.953
25248W        W90068  22.599  33.181   4.083
25249W        W90069  34.564  44.415   0.445
25250W        W90070  19.694   8.183  14.315
25251W        W90071  39.440  15.187   3.392
25252W        W90072  18.107  42.371   4.198
25253W        W90073  11.970  16.235  11.672
25254W        W90074  26.145  29.041   3.208
25255W        W90075   3.225  43.935   3.672
25256W        W90076   8.293  38.055   1.859
25257W        W90077  43.811  22.115  12.925
25258W        W90078  43.548  19.737   3.238
25259W        W90079  22.255  12.330  12.089
25260W        W90080  16.999  20.142   0.381
25261W        W90081  32.120  15.159  14.922
25262W        W90082  36.072  26.715  10.237
25263W        W90083  30.350  30.547  12.261
25264W        W90084   5.845   2.448   0.659
25265W        W90085  23.006  20.552   5.388
25266W        W90086  41.277  18.296  11.632
25267W        W90087  12.472   5.837  11.903
25268W        W90088  29.916  26.186  13.719
25269W        W90089  20.199  31.510   1.682
25270W        W90090  22.813  29.952  14.329
25271W        W90091  14.286  27.337  13.865
25272W        W90092  17.109  23.928  12.910
25273W        W90093   3.131  41.440  12.441
25274W        W90094   1.411   0.988   3.572
25275W        W90095  44.367  13.636   3.220
25276W        W90096  44.424  39.799   4.923
25277W        W90097   4.935  23.001  12.494
25278W        W90098  13.836  44.288   1.467
25279W        W90099  10.640  15.740  13.446
25280W        W90100  39.978  44.338   1.258
25281W        W90101  30.740  14.626  12.080
25282W        W90102  37.490  25.156   4.741
25283W        W90103  17.951   5.364   2.865
25284W        W90104  26.007  26.887  12.509
25285W        W90105  20.272   5.393  10.742
25286W        W90106  28.270  34.617  12.183
25287W        W90107   1.645  22.890  12.095
25288W        W90108  24.452  23.392   4.542
25289W        W90109  37.388  41.554   4.659
25290W        W90110  20.780   1.495   4.303
25291W        W90111  22.679  19.727   1.952
25292W        W90112   9.228  23.859   3.512
25293W        W90113   6.430  26.721  11.500
25294W        W90114   3.692  20.088  11.605
25295W        W90115  36.412   4.173   1.657
25296W        W90116   0.543  23.370  11.605
25297W        W90117  35.475   9.517  13.885
25298W        W90118  37.777  43.868  10.424
25299W        W90119   7.837  44.832   4.608
25300W        W90120  12.613   7.294  13.855
25301W        W90121  20.818   6.009  12.490
25302W        W90122  11.683  22.022   4.631
25303W        W90123  43.367  10.046   3.414
25304W        W90124  41.388   2.493   0.662
25305W        W90125  44.233  26.731   2.788
25306W        W90126  20.087  37.539  14.365
25307W        W90127  29.956   2.791   5.018
25308W        W90128   7.845  35.167   2.915
25309W        W90129  26.518  12.886   3.078
25310W        W90130  13.246  18.064   0.883
25311W        W90131  18.291  36.555   2.148
25312W        W90132  22.581  39.878   2.326
25313W        W90133  16.006  42.173   4.088
25314W        W90134  30.110  38.330  13.067
25315W        W90135  14.114  34.470   2.764
25316W        W90136  33.166  21.909  11.935
25317W        W90137  12.679  28.493   5.115
25318W        W90138  20.486  31.951  11.359
25319W        W90139  21.711   8.302   2.497
25320W        W90140   0.097  35.687   3.605
25321W        W90141  23.291  41.860  14.482
25322W        W90142  10.238  42.869  12.175
25323W        W90143  43.772  37.106  12.813
25324W        W90144  38.926  33.517  12.910
25325W        W90145   4.860   9.637   1.297
25326W        W90146  35.421  14.568   2.853
25327W        W90147  10.322  21.661   1.145
25328W        W90148   8.705  34.020   2.393
25329W        W90149  42.335  29.187  12.886
25330W        W90150   2.200   4.032   4.473
25331W        W90151   3.816  38.525   0.616
25332W        W90152   9.961  18.754   1.133
25333W        W90153  36.455   9.176  13.431
25334W        W90154   8.559  21.988  10.387
25335W        W90155   8.959  25.568   4.981
25336W        W90156  23.950  13.226  13.470
25337W        W90157  22.922  39.925   1.473
25338W        W90158  19.701   6.246   5.056
25339W        W90159  18.068  18.797   0.197
25340W        W90160  43.112  38.500   0.832
25341W        W90161  39.219  39.034  13.662
25342W        W90162  12.560  42.112  13.543
25343W        W90163  28.947  18.711  10.729
25344W        W90164  21.594  39.212  11.200
25345W        W90165  27.297  14.613   1.857
25346W        W90166  22.544  22.611   1.020
25347W        W90167  20.750  19.006   4.689
25348W        W90168  12.044  44.335   3.352
25349W        W90169  38.008   3.892   2.464
25350W        W90170  13.279  22.991   0.596
25351W        W90171  25.905  30.961   3.215
25352W        W90172  24.504  14.200  10.915
25353W        W90173  39.569  26.437  12.319
25354W        W90174   7.800  14.229   2.100
25355W        W90175  34.697  30.596   3.699
25356W        W90176   1.632  42.944  14.994
25357W        W90177  42.924  17.922  11.637
25358W        W90178  41.452   9.573  11.406
25359W        W90179   1.939  29.123   1.723
25360W        W90180  23.851  41.731   4.154
25361W        W90181   8.753   0.192   1.444
25362W        W90182  15.286  39.936   3.463
25363W        W90183  24.580  16.908  11.101
25364W        W90184  38.031  36.917   0.955
25365W        W90185  30.905  26.969  11.130
25366W        W90186  28.870  34.434  14.004
25367W        W90187   4.978  40.620   3.121
25368W        W90188  10.236   9.176  13.692
25369W        W90189  44.462  10.418   1.395
25370W        W90190  39.399  22.052  14.235
25371W        W90191  12.440  25.930   5.466
25372W        W90192   2.375  29.407   1.718
25373W        W90193  36.132   8.844   4.592
25374W        W90194   2.702   5.190  10.717
25375W        W90195  37.999  19.823   3.653
25376W        W90196  30.919  12.788   1.275
25377W        W90197  21.772  25.552   4.807
25378W        W90198   3.125  34.860   0.669
25379W        W90199  29.084   0.907   4.163
25380W        W90200  20.232  42.784   2.735
25381W        W90201  15.998   0.426  12.472
25382W        W90202  43.974  39.605   2.857
25383W        W90203  15.191  13.689  12.200
25384W        W90204  41.324  35.999   0.462
25385W        W90205  33.516  36.365  14.752
25386W        W90206  30.037  42.058   3.203
25387W        W90207  40.357  13.790   2.086
25388W        W90208  32.638  22.888   1.285
25389W        W90209  40.899   7.400   0.445
25390W        W90210  15.786  32.373   2.319
25391W        W90211  22.259  26.227   3.413
25392W        W90212  40.201  39.491   0.380
25393W        W90213  18.736  21.522  13.297
25394W        W90214  28.211   2.696   2.905
25395W        W90215  41.113  13.141   0.338
25396W        W90216  44.860  36.153   1.561
25397W        W90217  18.993  29.992  13.084
25398W        W90218   4.739  12.325   4.586
25399W        W90219  23.550  39.102   1.921
25400W        W90220  19.945  19.359  14.244
25401W        W90221  18.062  21.902  12.062
25402W        W90222  34.911  44.963   0.851
25403W        W90223  16.829  16.058   2.393
25404W        W90224   7.299  18.684   1.878
25405W        W90225  16.762  33.648  11.533
25406W        W90226   9.325  38.029  11.423
25407W        W90227  18.369  39.318   9.886
25408W        W90228  16.017   0.893   4.671
25409W        W90229  29.438  16.699   3.051
25410W        W90230  19.782  38.131   3.639
25411W        W90231  11.773   7.426   3.113
25412W        W90232   8.749   5.945  11.386
25413W        W90233  33.408  26.213   1.187
25414W        W90234   2.799  26.558  13.000
25415W        W90235  22.418  29.006   1.505
25416W        W90236  12.308  29.607   0.670
25417W        W90237  29.851  17.327  14.001
25418W        W90238  28.852  26.199  10.292
25419W        W90239  13.794  11.728   1.480
25420W        W90240  43.771  23.778  14.912
25421W        W90241  16.285  23.728  14.368
25422W        W90242   8.222  44.302   2.297
25423W        W90243  12.041  41.925  10.367
25424W        W90244  30.833  20.296   4.362
25425W        W90245  13.380  28.221   0.821
25426W        W90246   9.625  16.553   1.767
25427W        W90247  26.788   7.729  11.596
25428W        W90248  30.001  37.341   1.812
25429W        W90249   0.780  16.019  10.524
25430W        W90250  21.945   1.586   0.541
25431W        W90251   0.011  34.942  11.657
25432W        W90252   4.908   3.245   1.970
25433W        W90253  18.961  18.682  13.545
25434W        W90254  38.423  21.705   2.523
25435W        W90255  11.819  23.643   3.154
25436W        W90256   8.045  29.162   1.881
25437W        W90257  12.255  16.227  13.433
25438W        W90258  14.834   4.785   3.474
25439W        W90259  32.144  17.106  13.513
25440W        W90260  43.390  35.428   0.966
25441W        W90261  28.127  14.227  11.306
25442W        W90262  26.637  39.873  11.390
25443W        W90263   1.850  19.764   3.382
25444W        W90264  35.799  27.350  12.075
25445W        W90265  19.640   6.382  10.141
25446W        W90266  43.784  13.125   2.786
25447W        W90267  22.569  39.397   0.206
25448W        W90268  42.697  31.697  12.011
25449W        W90269  11.105  43.205   4.383
25450W        W90270  38.276  11.899   2.720
25451W        W90271  42.922  11.021  11.425
25452W        W90272  30.148  38.973  10.361
25453W        W90273   8.253  20.199  12.498
25454W        W90274   1.866   5.431  14.467
25455W        W90275   9.270   8.843  10.102
25456W        W90276  11.198  23.648  13.890
25457W        W90277   1.668   3.702   0.780
25458W        W90278  21.517  15.902  11.625
25459W        W90279  22.114  14.819   0.017
25460W        W90280   5.012  36.768  11.409
25461W        W90281  39.933  10.886   5.457
25462W        W90282  12.583  44.959  12.863
25463W        W90283   3.175  24.538   5.015
25464W        W90284  41.894  13.185   1.135
25465W        W90285  40.562  24.202  13.104
25466W        W90286   9.178  26.810   1.057
25467W        W90287   2.916   0.284  11.255
25468W        W90288  41.828  20.681   1.818
25469W        W90289  33.552  36.987  14.012
25470W        W90290  26.635   3.193   2.006
25471W        W90291  20.068  34.561   4.073
25472W        W90292  34.378   0.841  11.448
25473W        W90293   4.716  38.375  11.530
25474W        W90294  36.362  20.688  14.085
25475W        W90295  34.688  17.675  14.775
25476W        W90296  23.132  14.306   2.668
25477W        W90297   3.968  28.352  14.386
25478W        W90298   2.505  43.204  12.550
25479W        W90299  17.653  34.412   3.111
25480W        W90300  23.875   6.193  14.814
25481W        W90301  39.748  18.620   4.214
25482W        W90302  40.990  10.171   3.250
25483W        W90303   4.328  19.181  14.030
25484W        W90304  43.340  42.056   2.951
25485W        W90305  13.322   1.309   0.832
25486W        W90306  20.763   9.205  11.378
25487W        W90307  29.489  11.299   2.706
25488W        W90308   2.409  21.487   4.834
25489W        W90309   8.721  27.604  11.619
25490W        W90310  30.147  43.812   3.186
25491W        W90311  29.871  24.791  12.514
25492W        W90312  18.712  26.773  12.128
25493W        W90313  31.142  26.312  11.636
25494W        W90314  39.361  24.704  12.418
25495W        W90315  12.432  35.024   1.868
25496W        W90316  10.778  22.770  13.558
25497W        W90317   8.396  14.326  14.413
25498W        W90318  42.029  29.999  12.576
25499W        W90319  23.213  34.966  14.621
25500W        W90320  22.213  24.721   4.669
25501W        W90321   9.148  38.947   4.619
25502W        W90322   6.810  37.311  11.297
25503W        W90323   7.958   9.760  11.446
25504W        W90324  13.698  39.351   1.254
25505W        W90325  33.122  21.632  14.043
25506W        W90326  17.377   1.674   4.192
25507W        W90327  32.199  34.054   0.637
25508W        W90328  29.077  33.592  13.073
25509W        W90329  26.433  29.334  13.418
25510W        W90330  33.058  17.624   4.877
25511W        W90331  28.308  23.733   3.104
25512W        W90332  17.602  28.734  14.921
25513W        W90333   6.925  25.705   0.921
25514W        W90334  20.773  19.226   3.638
25515W        W90335   0.069  39.842  10.892
25516W        W90336  29.521  39.108   3.228
25517W        W90337  20.016   2.088   4.013
25518W        W90338  44.299   7.406   0.866
25519W        W90339  30.601   8.178  14.063
25520W        W90340  21.873  27.962   0.415
25521W        W90341   0.551   6.898  10.663
25522W        W90342  34.668  42.811  12.513
25523W        W90343  20.796  32.995   4.654
25524W        W90344  33.894  26.218  12.413
25525W        W90345   2.161   8.143   1.651
25526W        W90346  44.422   5.712   0.317
25527W        W90347  34.143  36.311   2.140
25528W        W90348  32.515  30.558  14.026
25529W        W90349  33.456  11.808   1.618
25530W        W90350  12.034  24.780  13.481
25531W        W90351  18.950   2.960   2.244
25532W        W90352  32.309  14.810   4.289
25533W        W90353   0.877   2.960  11.540
25534W        W90354  18.201  26.031   3.937
25535W        W90355  44.290  17.592   0.656
25536W        W90356  34.719  20.519  12.862
25537W        W90357  15.405  28.672   0.463
25538W        W90358  28.343  44.716   0.128
25539W        W90359  41.504   3.411   4.083
25540W        W90360  30.466  27.673  14.954
25541W        W90361   4.725  36.171  12.606
25542W        W90362  44.419   3.423   3.493
25543W        W90363  32.349   0.812  13.542
25544W        W90364  11.855  23.346  14.902
25545W        W90365  19.696  43.276  14.953
25546W        W90366   7.081  12.667  13.140
25547W        W90367  17.247   9.683   1.434
25548W        W90368   2.289  34.522  13.575
25549W        W90369  25.535  41.433   1.866
25550W        W90370  27.023  37.127  10.283
25551W        W90371  43.217  31.345  14.516
25552W        W90372  22.043  30.064  12.423
25553W        W90373   9.696   9.957   4.763
25554W        W90374  26.772  29.867   2.460
25555W        W90375  23.514  34.229   1.326
25556W        W90376  20.123  20.473   0.268
25557W        W90377  38.059  29.105  14.466
25558W        W90378   2.180  20.627  14.048
25559W        W90379  21.735   1.407   4.153
25560W        W90380  15.666  33.124   5.032
25561W        W90381  42.226  13.844   4.541
25562W        W90382  30.669  43.448   0.331
25563W        W90383  26.388  39.494   2.770
25564W        W90384  17.334  15.178   3.709
25565W        W90385  44.296  26.475   0.020
25566W        W90386  16.025  44.437   2.760
25567W        W90387  26.046  22.669  11.851
25568W        W90388  16.730  33.279  13.440
25569W        W90389  38.646  17.190   1.354
25570W        W90390  10.250  30.719   3.514
25571W        W90391  43.723  34.589  11.995
25572W        W90392  31.923   2.440   3.179
25573W        W90393   3.249  23.501   4.496
25574W        W90394  20.059  20.704   1.337
25575W        W90395  33.903  18.547  12.918
25576W        W90396  27.251  23.898   1.223
25577W        W90397  17.100   9.231  13.255
25578W        W90398  21.954  43.825   2.303
25579W        W90399  22.706  27.533  13.573
25580W        W90400  27.717  36.112  10.263
25581W        W90401   1.915   4.870   0.397
25582W        W90402  10.354  27.002  12.122
25583W        W90403  18.063   1.407   2.789
25584W        W90404   4.641  44.550  11.125
25585W        W90405  17.260  26.995  14.898
25586W        W90406  26.718   7.136  12.848
25587W        W90407  16.027   5.361  11.570
25588W        W90408  35.388  34.076  10.913
25589W        W90409  20.340  38.045   1.931
25590W        W90410  41.488  11.391  13.790
25591W        W90411   8.240  19.348  13.361
25592W        W90412  33.953  19.805   2.377
25593W        W90413  30.165  28.937   3.375
25594W        W90414  14.896   1.890  11.204
25595W        W90415  15.923  22.270  12.468
25596W        W90416  11.274  42.141  13.921
25597W        W90417  27.119  32.820  10.141
25598W        W90418   0.279   0.423  13.118
25599W        W90419  15.540  31.899   1.389
25600W        W90420  36.397   7.383   1.393
25601W        W90421  31.400  10.298  13.372
25602W        W90422  17.443   7.251   4.594
25603W        W90423  19.060   4.913  12.548
25604W        W90424  24.089  39.076  11.650
25605W        W90425  27.151  35.862  13.634
25606W        W90426  38.028  19.045   1.740
25607W        W90427  19.488  44.308  13.363
25608W        W90428   5.050  39.961   2.876
25609W        W90429   9.660  44.774  13.484
25610W        W90430   7.973  25.641   3.103
25611W        W90431  17.116  20.456  12.137
25612W        W90432  13.737  34.829  10.944
25613W        W90433  28.644   3.686   3.928
25614W        W90434  36.688   4.327  14.379
25615W        W90435  40.858  21.024   3.304
25616W        W90436  16.321  44.026   1.932
25617W        W90437  15.667  27.425   4.971
25618W        W90438  36.596  20.031   1.366
25619W        W90439  20.262  13.178   1.706
25620W        W90440   8.806   9.662   4.472
25621W        W90441  16.638  18.947  12.829
25622W        W90442  24.234   3.115  14.104
25623W        W90443  41.897  36.685  14.390
25624W        W90444  40.998   6.405   4.485
25625W        W90445  16.765  13.111   2.392
25626W        W90446   3.930   7.588   2.684
25627W        W90447   7.617  27.683   2.817
25628W        W90448  18.378  25.505   1.642
25629W        W90449  17.691  22.533   4.865
25630W        W90450  41.838  22.841  14.239
25631W        W90451  19.329   4.304   4.648
25632W        W90452  17.499   8.123   3.322
25633W        W90453  31.637  29.891   4.212
25634W        W90454   4.339   6.365  12.465
25635W        W90455  31.612  22.206   1.878
25636W        W90456   6.736  18.516  11.830
25637W        W90457  13.182  28.436  10.644
25638W        W90458   3.275  32.697  11.541
25639W        W90459  14.392   6.392   0.705
25640W        W90460  10.660  33.594   3.233
25641W        W90461  32.983   5.028   3.300
25642W        W90462  38.444   3.181  14.838
25643W        W90463  29.761  21.986  13.076
25644W        W90464   3.267  41.876   2.922
25645W        W90465  13.562  43.336   2.958
25646W        W90466  43.669  15.960   1.753
25647W        W90467   5.444  26.379   3.899
25648W        W90468   8.162   6.549   1.781
25649W        W90469  26.425  37.542   2.750
25650W        W90470  22.219  28.915  11.436
25651W        W90471  31.428   7.668  11.700
25652W        W90472  31.131  34.127  12.525
25653W        W90473  14.827  25.024  10.349
25654W        W90474  41.370  37.819   0.349
25655W        W90475  43.987  31.751  13.479
25656W        W90476   1.259   0.027  12.437
25657W        W90477  25.288  33.021   4.588
25658W        W90478  39.313   9.170   2.286
25659W        W90479  14.086  28.944  14.377
25660W        W90480  29.634  42.271  12.540
25661W        W90481  26.578  20.275   3.081
25662W        W90482  39.214  11.331  12.931
25663W        W90483  21.337  18.057  11.862
25664W        W90484  25.721   3.049  11.462
25665W        W90485  32.301  25.268  12.531
25666W        W90486  34.447  41.563  13.046
25667W        W90487   6.908  40.016  11.202
25668W        W90488   9.749   9.752   0.709
25669W        W90489   5.472  17.453  13.080
25670W        W90490  10.212  14.915   1.719
25671W        W90491  44.186   5.400  14.938
25672W        W90492   9.139  23.727   1.751
25673W        W90493  34.741   0.983  14.350
25674W        W90494  38.921  39.783  13.859
25675W        W90495   5.506  35.313   2.243
25676W        W90496  23.176  17.521   4.147
25677W        W90497  25.838  27.909   3.402
25678W        W90498  30.184   4.685  12.846
25679W        W90499  14.224  11.306  14.827
25680W        W90500  35.955  38.018   2.905
25681W        W90501  12.633   6.426   0.824
25682W        W90502  21.643  21.447  12.086
25683W        W90503  12.086  43.291   9.959
25684W        W90504  21.277  36.334   1.369
25685W        W90505  15.113  32.930  12.408
25686W        W90506  38.840  29.139  13.419
25687W        W90507  27.066   3.437  13.409
25688W        W90508  24.264   8.942  11.072
25689W        W90509   1.831   6.345   2.765
25690W        W90510   4.382  15.702   2.180
25691W        W90511  33.910  44.507  10.549
25692W        W90512   6.286  12.165   0.703
25693W        W90513   5.407  21.207  10.263
25694W        W90514  27.930   3.312   0.356
25695W        W90515   2.367  33.951   0.232
25696W        W90516   4.209  38.332   0.903
25697W        W90517  23.192  39.151  14.448
25698W        W90518  20.974  40.893   1.360
25699W        W90519  27.590   4.774   0.525
25700W        W90520   9.866  36.483   2.374
25701W        W90521  13.141  33.307   2.536
25702W        W90522  38.592  35.377   0.416
25703W        W90523  22.682  15.575   1.801
25704W        W90524  34.360  22.639  13.069
25705W        W90525  35.637  21.902  10.007
25706W        W90526  10.384   3.452   0.033
25707W        W90527  42.977  12.986   2.326
25708W        W90528  11.695   4.802   5.134
25709W        W90529  21.560  28.556   1.427
25710W        W90530  37.010   2.743   2.272
25711W        W90531   0.553  21.719  13.079
25712W        W90532  34.981  14.133  12.090
25713W        W90533  21.306  32.172   5.025
25714W        W90534  14.836  41.827   1.238
25715W        W90535   6.982  22.270   1.302
25716W        W90536  10.647  11.317  13.854
25717W        W90537  36.040   0.654   2.454
25718W        W90538  11.388  25.115  11.831
25719W        W90539   3.352   9.784   1.759
25720W        W90540  19.870  14.081  10.772
25721W        W90541  17.055   4.491  13.409
25722W        W90542  19.504  20.407   0.497
25723W        W90543  26.761   1.231   2.125
25724W        W90544  11.925  15.173  14.536
25725W        W90545  19.298   1.423   3.260
25726W        W90546  34.083  29.146   2.839
25727W        W90547  21.317   6.874  14.510
25728W        W90548  22.640  30.922   1.439
25729W        W90549  39.324  27.524  10.255
25730W        W90550  18.774  13.580   0.318
25731W        W90551   5.399  43.126   3.698
25732W        W90552  24.433   6.345   4.500
25733W        W90553  41.015   3.041   3.524
25734W        W90554  19.532  19.258  11.332
25735W        W90555  23.596  10.653   0.753
25736W        W90556  21.514  13.614   3.614
25737W        W90557  34.630  43.800  11.962
25738W        W90558   9.154  11.265   3.656
25739W        W90559  18.702   4.993  14.977
25740W        W90560  23.005  18.810   1.943
25741W        W90561  25.140  37.687  13.008
25742W        W90562  44.019  34.015   2.844
25743W        W90563  40.571  24.558   4.042
25744W        W90564  42.568  40.532  14.902
25745W        W90565  43.940  15.081   2.069
25746W        W90566   8.761  31.583   3.690
25747W        W90567  31.567  28.390  13.946
25748W        W90568  19.617  11.323   0.821
25749W        W90569   6.906  20.665   0.929
25750W        W90570  10.252  10.083  10.424
25751W        W90571  40.351  23.151   1.116
25752W        W90572  13.174  36.196  11.248
25753W        W90573  13.096   6.417   3.110
25754W        W90574  41.472  34.096   3.585
25755W        W90575   1.804  44.404   2.747
25756W        W90576   1.405  21.538   3.864
25757W        W90577  36.865  11.819  13.352
25758W        W90578  41.020  43.310  14.757
25759W        W90579  31.652  33.221  12.926
25760W        W90580   1.417  19.234   2.271
25761W        W90581  40.699   1.306  14.097
25762W        W90582  42.333  18.758  13.750
25763W        W90583   3.366  10.753  11.688
25764W        W90584  16.984  15.717  13.624
25765W        W90585  17.086  42.241  12.846
25766W        W90586   2.138  10.804   2.957
25767W        W90587  25.493  40.733  10.854
25768W        W90588  27.609  43.998   1.664
25769W        W90589  38.636  11.880   4.027
25770W        W90590   1.867  35.764  13.138
25771W        W90591  32.952  21.946  10.555
25772W        W90592   2.933  29.021  13.810
25773W        W90593  19.701  16.960  11.190
25774W        W90594  34.920   9.945   1.799
25775W        W90595  40.454  25.770  14.927
25776W        W90596  11.764  36.664   0.933
25777W        W90597  30.680  31.559   0.757
25778W        W90598  29.531  43.513   4.168
25779W        W90599  15.593  15.380  10.631
25780W        W90600  26.729  13.859  14.476
25781W        W90601   9.484   0.919   2.564
25782W        W90602   5.316  41.093  14.087
25783W        W90603  21.231   6.140  11.114
25784W        W90604  40.761  28.549  12.427
25785W        W90605  11.355  30.226  13.878
25786W        W90606  16.240  35.907   0.334
25787W        W90607  31.837  25.623   1.164
25788W        W90608   8.521  10.618  11.738
25789W        W90609   0.802   8.827  12.573
25790W        W90610   9.784  28.095   4.056
25791W        W90611  20.497  17.814   2.202
25792W        W90612   3.920  39.331   5.095
25793W        W90613   2.020   7.167  10.456
25794W        W90614   6.943   3.704   2.320
25795W        W90615  25.139  22.504  13.028
25796W        W90616  18.653  18.041   0.424
25797W        W90617  36.047  22.791   1.389
25798W        W90618  18.385  35.878   1.799
25799W        W90619  15.241  19.990   1.395
25800W        W90620  28.834  19.476   2.205
25801W        W90621  44.703  39.395  12.613
25802W        W90622   5.549  44.105  13.465
25803W        W90623  23.156  14.564   3.604
25804W        W90624  30.897  30.573  14.080
25805W        W90625  36.402   2.363  14.062
25806W        W90626   1.319  39.675  11.218
25807W        W90627  20.276   0.937  12.439
25808W        W90628  10.695  35.879   2.348
25809W        W90629   0.983   9.937   3.976
25810W        W90630  19.729  26.470   0.739
25811W        W90631  32.575  19.644   1.335
25812W        W90632  30.909  41.503   2.172
25813W        W90633   7.454  26.493   2.253
25814W        W90634  23.606  26.677  13.589
25815W        W90635  14.709  10.735   4.247
25816W        W90636  15.695  26.564  11.643
25817W        W90637  44.328   3.398  11.977
25818W        W90638  24.098  42.798   2.824
25819W        W90639  19.755  14.763  14.486
25820W        W90640  30.092  19.075   0.988
25821W        W90641  13.665  30.997   3.378
25822W        W90642  21.208   3.097   1.045
25823W        W90643  21.472  27.170  13.837
25824W        W90644  42.994  14.208  11.853
25825W        W90645   8.424  33.593   2.866
25826W        W90646  27.098   0.230  12.768
25827W        W90647  35.902   6.781  14.339
25828W        W90648   3.599  43.541  11.445
25829W        W90649   6.175  27.715   2.228
25830W        W90650  26.512  34.836   1.862
25831W        W90651  19.664  13.066   2.087
25832W        W90652  39.711  37.366   2.998
25833W        W90653  11.953  17.089  13.522
25834W        W90654  44.472  18.204   4.588
25835W        W90655  16.581  30.056  11.866
25836W        W90656  22.796  36.803  11.292
25837W        W90657  29.256  25.382  14.729
25838W        W90658  13.329  24.878  11.686
25839W        W90659  39.920  39.273  10.988
25840W        W90660   6.556  27.715  14.942
25841W        W90661   5.179  33.517   3.647
25842W        W90662  16.075  20.127  14.331
25843W        W90663  34.853   8.610  13.971
25844W        W90664  44.122  41.073   4.303
25845W        W90665  17.576  36.847  12.945
25846W        W90666  22.015  29.902   0.736
25847W        W90667  21.409  21.857   5.406
25848W        W90668   3.296  35.298   4.522
25849W        W90669  41.223  30.050   2.208
25850W        W90670  39.378  27.537  11.994
25851W        W90671  10.577  32.832   3.501
25852W        W90672  43.882  20.026   2.405
25853W        W90673  18.594   8.245  12.275
25854W        W90674  34.769  35.908   3.765
25855W        W90675   9.266   3.784   1.362
25856W        W90676  19.485   7.256  12.783
25857W        W90677  42.797  24.146   3.710
25858W        W90678   7.845   3.151   4.109
25859W        W90679  31.912  35.455   4.776
25860W        W90680   4.422  15.341  13.190
25861W        W90681  27.241  11.692   2.820
25862W        W90682   4.279   5.167   4.245
25863W        W90683  28.083   5.559  12.671
25864W        W90684   5.231  11.302  13.800
25865W        W90685  26.879  44.539   1.858
25866W        W90686  30.633  10.160   0.153
25867W        W90687  44.335  40.758   3.164
25868W        W90688   9.215  33.306   2.303
25869W        W90689  23.029  18.071   4.193
25870W        W90690   4.885  34.000  13.455
25871W        W90691  29.208  18.653  13.519
25872W        W90692  27.212  20.549   5.291
25873W        W90693  39.569  21.263  13.829
25874W        W90694  20.741  18.407   3.298
25875W        W90695  43.210  44.860  13.396
25876W        W90696   8.266  30.741  13.115
25877W        W90697  43.485  24.917   0.760
25878W        W90698  11.300  34.883  14.760
25879W        W90699   3.743  15.321  13.580
25880W        W90700  31.395  17.849  11.914
25881W        W90701  42.307  14.370   4.401
25882W        W90702  11.130  13.963  11.095
25883W        W90703  33.670  17.640  14.886
25884W        W90704  42.574   5.032   3.226
25885W        W90705   3.824  32.741   2.567
25886W        W90706  28.876  25.081  13.415
25887W        W90707  40.469  23.156  14.705
25888W        W90708   9.179  42.874   5.117
25889W        W90709   4.439   2.393  11.564
25890W        W90710   3.368   5.872   0.450
25891W        W90711  15.176   5.291  12.607
25892W        W90712  24.281   9.627  14.918
25893W        W90713  13.608  28.030  12.861
25894W        W90714   6.492  16.834   0.948
25895W        W90715  41.869   2.984   4.107
25896W        W90716   3.378  15.040   0.943
25897W        W90717  15.588  18.356   0.852
25898W        W90718  37.473  24.661  12.019
25899W        W90719   3.265  15.712  10.561
25900W        W90720  37.458  42.811   0.061
25901W        W90721  31.143   6.844   4.779
25902W        W90722  20.774   2.919   4.759
25903W        W90723  16.916  27.349   3.262
25904W        W90724  42.080  22.059  11.505
25905W        W90725  21.610  12.583   1.617
25906W        W90726  39.756  37.041  13.476
25907W        W90727  23.766  26.471   9.793
25908W        W90728  10.774  21.531  11.623
25909W        W90729   0.725  38.049  14.406
25910W        W90730  34.391  30.080   0.890
25911W        W90731  37.091   6.893  14.255
25912W        W90732  16.621  34.864   1.743
25913W        W90733  42.269  30.654  13.112
25914W        W90734   5.639  33.266   2.817
25915W        W90735  10.627  17.558  14.536
25916W        W90736   9.433  16.917  13.872
25917W        W90737   6.195   3.299   3.170
25918W        W90738  21.132  44.526  11.063
25919W        W90739  33.233  15.122  11.005
25920W        W90740  14.587   1.487   3.961
25921W        W90741  39.602  40.907  10.420
25922W        W90742  39.298  26.009  12.030
25923W        W90743  19.210  39.021  14.668
25924W        W90744   4.417   0.620  13.938
25925W        W90745  21.054  19.803   2.874
25926W        W90746   5.760  35.103  10.436
25927W        W90747  16.530  21.058  12.524
25928W        W90748  11.694  23.411   4.502
25929W        W90749   3.858  25.309   3.175
25930W        W90750  21.259  25.478   4.610
25931W        W90751   6.069  44.006   3.238
25932W        W90752  22.884  39.034  14.865
25933W        W90753   1.183  18.826  12.347
25934W        W90754  43.569  44.475  13.863
25935W        W90755  40.244  19.644   2.800
25936W        W90756  31.137   8.117  12.845
25937W        W90757  19.578  41.914   4.137
25938W        W90758  10.156  27.461  11.030
25939W        W90759   7.478  28.143  10.959
25940W        W90760   3.011  19.657  13.468
25941W        W90761   7.333  20.648   4.903
25942W        W90762  35.373  44.886   2.266
25943W        W90763  27.488  22.535  14.916
25944W        W90764  29.870  34.876  12.830
25945W        W90765  39.534  12.598   3.146
25946W        W90766  30.027   4.666   1.206
25947W        W90767  29.890  18.322   0.420
25948W        W90768  29.359  39.883   1.831
25949W        W90769  35.887  10.817  11.650
25950W        W90770  27.404   8.648  11.860
25951W        W90771   1.364   2.800  12.846
25952W        W90772  38.541  29.548   3.124
25953W        W90773  38.897  33.329   0.260
25954W        W90774  38.935  30.250  11.580
25955W        W90775  30.211   9.380   0.187
25956W        W90776  14.764   4.728  11.464
25957W        W90777  34.420   0.141   3.742
25958W        W90778  26.567  40.597   1.758
25959W        W90779  16.404  11.847   2.229
25960W        W90780  12.830  36.239   4.964
25961W        W90781  42.538   8.140   0.863
25962W        W90782   0.470  36.338  14.630
25963W        W90783  31.838  42.008   0.909
25964W        W90784  35.421  36.218  12.575
25965W        W90785  24.707  13.615  11.548
25966W        W90786   5.015   4.212   4.119
25967W        W90787   6.702  10.040  12.267
25968W        W90788  11.871  35.624  10.367
25969W        W90789  27.033  44.971  13.598
25970W        W90790  11.377  27.841  11.585
25971W        W90791  28.736  14.038  12.080
25972W        W90792  11.701   1.416  13.070
25973W        W90793  14.526   1.927   1.772
25974W        W90794  10.179  27.633  10.513
25975W        W90795   3.746  38.494   4.056
25976W        W90796  21.544  23.477  11.086
25977W        W90797  41.939  20.548  13.380
25978W        W90798  35.525  10.330  12.358
25979W        W90799  18.830  36.347  12.181
25980W        W90800  12.287  21.605  14.985
25981W        W90801  21.133  12.918  11.006
25982W        W90802   6.454  18.539  14.669
25983W        W90803  12.925  26.400   2.860
25984W        W90804  44.410  23.472  13.066
25985W        W90805   6.827  39.371   4.600
25986W        W90806  26.410   1.833  10.475
25987W        W90807  21.042  23.282  12.107
25988W        W90808  20.886   8.074   1.807
25989W        W90809  28.493  42.283   4.458
25990W        W90810  34.583  40.507  13.341
25991W        W90811  41.044   3.924  12.683
25992W        W90812  33.473  27.502   2.435
25993W        W90813  27.071  42.747   3.159
25994W        W90814   6.896  42.793  14.850
25995W        W90815  29.406   5.165   1.795
25996W        W90816   2.390  32.253   1.215
25997W        W90817  38.024  29.549   4.799
25998W        W90818  14.078   5.128  14.903
25999W        W90819  11.239  26.920  14.490
26000W        W90820  38.569   1.404  13.614
26001W        W90821   5.160  37.876  14.989
26002W        W90822  32.594  16.686  13.052
26003W        W90823  28.723  12.159   1.264
26004W        W90824  12.989  31.375  13.476
26005W        W90825  42.457  33.547   1.906
26006W        W90826   9.768  28.107  10.891
26007W        W90827  13.427   8.442  12.500
26008W        W90828  29.487   1.865   0.406
26009W        W90829  31.380   2.888   4.043
26010W        W90830  36.980  18.532  14.010
26011W        W90831   2.778  20.191   2.044
26012W        W90832   4.400  16.958   2.191
26013W        W90833  24.478  14.189  11.884
26014W        W90834  18.288  14.577   1.856
26015W        W90835  31.731   9.283   0.131
26016W        W90836   4.916  36.064  12.149
26017W        W90837  40.109  16.021  13.944
26018W        W90838  42.868   3.774  12.648
26019W        W90839  12.787  44.474  10.120
26020W        W90840  30.842  19.582  11.121
26021W        W90841   1.439  32.974  10.759
26022W        W90842  24.701  27.001   4.390
26023W        W90843  20.500   3.556   0.801
26024W        W90844  22.527   6.434   4.574
26025W        W90845  31.584  17.404   1.782
26026W        W90846   1.720  37.429   0.252
26027W        W90847  38.464  25.592  14.234
26028W        W90848  28.950  15.534  13.578
26029W        W90849  39.871  22.927   0.325
26030W        W90850   1.803  27.471  14.976
26031W        W90851  12.736   1.318  11.930
26032W        W90852   6.379  32.784  14.194
26033W        W90853  20.639  22.456   1.928
26034W        W90854   5.629  34.928   1.921
26035W        W90855  44.711  24.242  11.306
26036W        W90856  36.542  38.824  13.324
26037W        W90857   6.484  23.563  11.992
26038W        W90858  38.798  27.482  12.126
26039W        W90859  31.595  41.763  12.086
26040W        W90860  41.340  17.457  13.889
26041W        W90861  37.848  29.792   9.918
26042W        W90862  28.179  26.060  10.468
26043W        W90863  25.933   1.970   1.463
26044W        W90864  37.849  32.416  14.550
26045W        W90865   6.322   0.887   4.137
26046W        W90866  13.845   4.453  12.964
26047W        W90867   3.491  34.139  14.428
26048W        W90868  20.308  23.315   3.743
26049W        W90869   8.519   9.203  13.118
26050W        W90870  37.059   0.974   2.911
26051W        W90871  23.485  31.843   3.673
26052W        W90872  39.407  14.698   3.621
26053W        W90873  17.150  10.145  11.554
26054W        W90874  34.484  44.373   9.671
26055W        W90875  32.994  40.910   2.843
26056W        W90876  24.565   2.933  13.230
26057W        W90877  37.860  41.300   0.810
26058W        W90878  13.451  21.020   4.971
26059W        W90879  21.596  29.711  14.904
26060W        W90880  18.210   7.378  13.602
26061W        W90881  44.692  24.082   4.729
26062W        W90882  20.092  35.980   2.615
26063W        W90883   2.291  16.542  12.055
26064W        W90884  23.334  43.951  12.057
26065W        W90885   7.136  38.030  11.976
26066W        W90886   7.243  10.354   1.688
26067W        W90887   2.741  40.956   3.171
26068W        W90888  13.149  20.643   4.633
26069W        W90889  38.530  12.094   4.478
26070W        W90890  41.504  43.220  11.917
26071W        W90891   7.161  14.892  11.104
26072W        W90892  38.048  22.120   2.200
26073W        W90893   1.922  14.149   4.486
26074W        W90894   0.882  44.739   1.321
26075W        W90895  22.569  31.652  13.560
26076W        W90896   5.303  17.378   0.001
26077W        W90897  23.656  37.316   3.233
26078W        W90898  13.888   2.666   0.844
26079W        W90899  41.595  38.303   4.397
26080W        W90900  35.521  43.015   3.150
26081W        W90901  42.645  40.286   4.766
26082W        W90902  42.965  22.628   4.532
26083W        W90903  10.643   8.093   1.618
26084W        W90904   4.331  44.719   2.848
26085W        W90905  37.529  32.681   3.183
26086W        W90906  24.158  22.036   1.753
26087W        W90907  44.225   5.879   0.765
26088W        W90908  41.876  44.848  13.856
26089W        W90909   9.145   0.900   2.052
26090W        W90910   0.480  30.180  13.794
26091W        W90911  42.523   8.391   1.328
26092W        W90912  31.646  23.532  14.137
26093W        W90913  43.776  39.441  13.456
26094W        W90914  11.706  44.404   2.944
26095W        W90915  15.754  22.319  10.258
26096W        W90916  20.831  40.049   3.688
26097W        W90917  13.259  24.166   0.508
26098W        W90918  15.709   3.526  12.910
26099W        W90919  24.964  23.382  12.949
26100W        W90920  26.280  36.630   4.962
26101W        W90921  22.705  24.276  14.006
26102W        W90922   4.913  26.664   3.390
26103W        W90923  20.294  30.562   4.633
26104W        W90924   6.167  11.614  11.482
26105W        W90925   8.426  28.598  12.127
26106W        W90926   8.668  44.281   2.828
26107W        W90927  23.250   3.750   3.262
26108W        W90928  37.944  17.283   2.677
26109W        W90929  40.525   7.969  14.761
26110W        W90930  27.221  25.061   2.001
26111W        W90931  19.729  42.256  12.264
26112W        W90932  14.157  39.121   1.915
26113W        W90933  23.634  34.164   4.336
26114W        W90934  39.515  42.271  12.890
26115W        W90935  11.359  36.629   2.183
26116W        W90936  37.696  20.221   3.770
26117W        W90937   6.867  32.493  13.483
26118W        W90938  10.776  13.611  12.870
26119W        W90939  30.464  36.977  13.517
26120W        W90940   6.368  35.354   0.132
26121W        W90941  32.100   5.936  12.106
26122W        W90942  29.615  11.650   3.284
26123W        W90943  19.376   9.311   1.337
26124W        W90944  19.263   0.310   1.882
26125W        W90945  23.058   1.308  10.737
26126W        W90946  14.562  40.914   2.092
26127W        W90947   5.354   9.012   4.637
26128W        W90948  13.574  40.828  13.051
26129W        W90949  25.174  34.269  10.575
26130W        W90950  25.136  27.471  10.402
26131W        W90951  29.123  29.608  10.888
26132W        W90952  35.424   8.760  12.304
26133W        W90953  13.092  34.881   0.343
26134W        W90954  33.913  15.795   1.376
26135W        W90955  37.619   2.918  12.891
26136W        W90956  14.022   1.741  11.562
26137W        W90957  35.579  15.253  14.356
26138W        W90958  12.229   2.436   0.079
26139W        W90959  18.496   0.800   4.494
26140W        W90960  20.555   8.301   3.305
26141W        W90961  29.696  17.275  12.536
26142W        W90962  13.351  38.987   1.378
26143W        W90963   0.553  25.671   3.180
26144W        W90964  37.023  20.638   2.742
26145W        W90965  44.372  34.976   1.104
26146W        W90966  33.211  21.009  14.358
26147W        W90967  27.399  29.717  11.465
26148W        W90968  26.008  13.547  12.294
26149W        W90969   1.871  25.257  12.501
26150W        W90970   5.289  11.247  11.839
26151W        W90971   6.186   1.739   0.798
26152W        W90972  35.055   0.984   2.712
26153W        W90973   1.191   2.267  12.885
26154W        W90974  44.832  40.893   1.069
26155W        W90975   7.381  21.628   3.125
26156W        W90976   4.480  22.063  13.886
26157W        W90977  12.834  34.397   0.227
26158W        W90978  35.594  36.386   3.776
26159W        W90979  42.421  25.982  12.598
26160W        W90980  21.969  19.156   4.981
26161W        W90981  15.319  36.030  14.355
26162W        W90982   5.456  41.704   1.851
26163W        W90983  44.056  30.537   1.887
26164W        W90984  40.689  37.434  11.587
26165W        W90985  19.499  30.393  11.639
26166W        W90986   3.687  19.343  13.792
26167W        W90987  41.232   7.844   0.334
26168W        W90988  43.469  14.909   1.867
26169W        W90989  16.391  11.910   0.927
26170W        W90990   3.953  28.195  11.485
26171W        W90991  44.800  39.093   0.539
26172W        W90992  19.840  34.401  13.410
26173W        W90993  14.006  14.104   2.584
26174W        W90994   1.818  40.933  11.087
26175W        W90995   8.045  27.877   2.131
26176W        W90996   6.170  12.631  11.634
26177W        W90997   3.296  32.517   4.316
26178W        W90998   4.594  10.095   1.199
26179W        W90999  30.690   1.721   0.842
26180W        W91000  23.568  15.851   0.355
26181W        W91001  35.277  31.219   3.106
26182W        W91002  26.172  35.871  14.813
26183W        W91003  33.847  19.902  12.346
26184W        W91004   2.531  35.709  12.881
26185W        W91005  15.325  12.128  12.393
26186W        W91006  25.062  24.144   2.706
26187W        W91007  36.674  16.095   2.630
26188W        W91008  17.692  19.883   3.857
26189W        W91009  25.694   7.911   0.435
26190W        W91010   4.843  44.852  14.117
26191W        W91011  36.359  29.698  13.129
26192W        W91012  24.718  13.280  10.715
26193W        W91013   5.358  34.157  12.581
26194W        W91014   3.995  41.318  10.782
26195W        W91015  39.572  15.089  14.052
26196W        W91016  42.864  36.370  11.252
26197W        W91017  15.130  44.869   0.869
26198W        W91018  41.210  39.005  11.140
26199W        W91019  39.641  26.803   4.111
26200W        W91020  32.474  31.726   0.393
26201W        W91021  25.206  42.776   0.808
26202W        W91022  27.001  18.026  12.944
26203W        W91023  27.735  12.149   3.387
26204W        W91024   0.919  27.152   3.993
26205W        W91025  40.171   0.571   3.712
26206W        W91026   7.767   2.684  11.525
26207W        W91027  19.340  11.682   4.049
26208W        W91028  24.194  12.830   1.802
26209W        W91029   8.679  40.230  11.279
26210W        W91030  13.538   5.251  14.812
26211W        W91031   9.993  40.563  11.247
26212W        W91032  13.033  27.445   5.043
26213W        W91033  13.939  40.056   2.514
26214W        W91034  37.793  21.206   1.414
26215W        W91035  18.367  33.517  14.971
26216W        W91036  26.936   6.751   1.808
26217W        W91037   3.443   8.275  12.091
26218W        W91038  30.970  24.557  13.718
26219W        W91039   8.762  26.133  14.465
26220W        W91040  27.416   2.772  10.667
26221W        W91041   0.414  31.198  12.079
26222W        W91042  37.549  42.051   0.413
26223W        W91043  25.169   2.324  12.874
26224W        W91044  33.354  17.909   3.248
26225W        W91045   3.175   9.149   0.390
26226W        W91046  22.867   4.377  12.374
26227W        W91047  20.171   6.342  13.134
26228W        W91048  27.095  16.566   1.181
26229W        W91049   6.666   5.979  12.157
26230W        W91050  26.989  36.688   4.438
26231W        W91051  23.348  22.675  10.562
26232W        W91052  36.464   4.414   3.570
26233W        W91053  33.685   5.491   4.037
26234W        W91054  33.567  12.716   4.158
26235W        W91055  40.352  35.150   2.404
26236W        W91056  18.814   4.063   1.839
26237W        W91057  12.747  20.495   4.916
26238W        W91058   4.167  25.501  14.410
26239W        W91059   2.987  34.890  10.517
26240W        W91060  28.169   0.990  10.777
26241W        W91061  25.066  18.475  13.986
26242W        W91062  34.418  10.063   1.665
26243W        W91063  18.297  30.287  11.243
26244W        W91064   2.911  36.681   2.860
26245W        W91065  19.537  44.038   3.399
26246W        W91066  28.430  17.186   0.925
26247W        W91067  34.592  22.267   1.814
26248W        W91068  42.842  39.868   4.527
26249W        W91069   7.133   0.711  12.000
26250W        W91070  29.489   1.641   4.097
26251W        W91071  27.232  35.941  10.196
26252W        W91072  18.818  28.388   4.277
26253W        W91073  12.701   4.119   0.431
26254W        W91074  32.576  36.664  14.779
26255W        W91075  42.536  33.372   3.398
26256W        W91076  15.670  34.103  12.946
26257W        W91077   7.530  25.557   2.145
26258W        W91078  24.129  31.212   4.694
26259W        W91079  24.238  37.005   3.127
26260W        W91080  39.871  11.214   2.266
26261W        W91081  32.860   8.271  13.504
26262W        W91082   7.909  26.856   0.893
26263W        W91083  24.254  36.270  11.502
26264W        W91084  42.279   9.431  14.089
26265W        W91085  24.003   7.705  11.770
26266W        W91086   4.888  14.653   3.830
26267W        W91087  26.956   3.946  14.916
26268W        W91088  14.233  20.742   4.335
26269W        W91089  11.872  38.468  14.752
26270W        W91090   6.433  25.715   4.627
26271W        W91091  13.752  10.787   1.418
26272W        W91092  22.822  13.119   2.783
26273W        W91093  36.178   6.151   0.453
26274W        W91094  29.989  21.687   4.697
26275W        W91095  26.618   9.410   0.638
26276W        W91096  37.037  25.398   4.593
26277W        W91097  44.346  25.561  10.712
26278W        W91098  23.837  17.727  12.637
26279W        W91099  20.039  39.996   3.323
26280W        W91100  14.501   8.962   2.411
26281W        W91101   2.334  34.303   2.401
26282W        W91102  32.484  36.799  13.404
26283W        W91103  44.595  30.926  13.594
26284W        W91104  15.549  44.427  11.659
26285W        W91105  21.587  22.960   2.948
26286W        W91106  32.929  39.939   4.641
26287W        W91107  11.054  24.505   4.290
26288W        W91108  16.119  36.960  14.102
26289W        W91109  38.137  42.705   4.040
26290W        W91110  10.425  33.376   4.301
26291W        W91111  11.151  43.615  11.621
26292W        W91112  43.759  42.068  13.287
26293W        W91113  22.673  44.730   0.328
26294W        W91114  26.771  22.581  14.353
26295W        W91115   6.505  20.274   4.208
26296W        W91116  29.119  24.901  11.454
26297W        W91117   5.298  12.834  10.590
26298W        W91118  44.691  36.193  10.514
26299W        W91119  23.998   3.516   2.698
26300W        W91120  19.782  16.668  10.781
26301W        W91121  29.038  33.339  11.732
26302W        W91122  16.730  13.451  14.944
26303W        W91123  33.192  12.535   0.918
26304W        W91124  11.611  23.245   1.843
26305W        W91125   3.439  30.514  14.878
26306W        W91126  44.563  15.267   3.224
26307W        W91127  36.975   0.772  12.565
26308W        W91128  42.085   1.002   3.496
26309W        W91129   1.451  31.603  11.983
26310W        W91130  28.510  15.357   1.689
26311W        W91131   6.633   9.633   0.456
26312W        W91132  42.946  23.279   2.687
26313W        W91133  19.693   6.292   3.759
26314W        W91134  25.617  16.910  11.877
26315W        W91135  25.669  33.959  10.668
26316W        W91136  24.758  16.640  13.417
26317W        W91137  26.357  14.274   4.382
26318W        W91138  15.900  42.797   4.061
26319W        W91139   8.632  13.850   3.761
26320W        W91140  39.917  22.045   2.483
26321W        W91141   6.489   7.888   1.906
26322W        W91142  29.870  33.541  14.064
26323W        W91143  11.097   1.396   0.446
26324W        W91144  44.345   9.658  12.760
26325W        W91145  41.747  24.956  11.185
26326W        W91146  12.824  23.584  12.106
26327W        W91147   9.401  21.041   1.678
26328W        W91148  29.193  17.016   0.282
26329W        W91149  35.053   5.544   1.748
26330W        W91150  13.884  39.631   3.980
26331W        W91151  26.839   3.687  10.879
26332W        W91152  14.823  36.930  11.153
26333W        W91153  12.172   3.471   2.832
26334W        W91154  12.608   8.740  12.474
26335W        W91155  10.522  31.098   3.319
26336W        W91156  19.712   7.752  13.503
26337W        W91157  12.898   2.590  12.557
26338W        W91158  17.220   1.649   2.315
26339W        W91159  42.891  13.359  14.965
26340W        W91160  44.058  15.578   2.231
26341W        W91161  15.242  20.524  12.435
26342W        W91162  42.178  31.235  13.595
26343W        W91163  19.884  43.849   3.710
26344W        W91164  40.249  15.027  11.114
26345W        W91165   7.694  28.879   2.147
26346W        W91166  22.567  20.727  13.461
26347W        W91167  39.824  20.807   3.143
26348W        W91168   0.845  10.092   4.580
26349W        W91169  28.678   4.359   1.787
26350W        W91170   8.294   9.844   2.708
26351W        W91171   1.309  35.090   2.946
26352W        W91172  25.438  37.599  14.937
26353W        W91173   6.220   7.838  11.571
26354W        W91174  17.989  38.639  10.389
26355W        W91175  40.400  31.969   4.120
26356W        W91176  41.776  20.707   0.343
26357W        W91177  24.301  23.571   2.763
26358W        W91178  29.159  43.489   1.050
26359W        W91179  23.098  32.156   3.844
26360W        W91180  26.982  19.564   0.308
26361W        W91181  20.484  32.869   1.232
26362W        W91182   6.606  43.281   1.430
26363W        W91183   2.131   6.877  12.134
26364W        W91184   2.723  38.042  12.981
26365W        W91185  34.970  29.316   3.332
26366W        W91186  26.595   7.868   1.348
26367W        W91187   7.406  32.888   4.187
26368W        W91188  19.571   5.789  11.096
26369W        W91189  30.681   6.217   0.845
26370W        W91190  39.409  18.557   0.716
26371W        W91191   8.401  26.364  10.304
26372W        W91192  25.179  12.070  10.980
26373W        W91193  22.649   3.302   0.945
26374W        W91194  36.426   3.228   0.538
26375W        W91195   6.753  11.887  14.073
26376W        W91196  28.097  15.251  12.649
26377W        W91197  31.599  13.416   3.153
26378W        W91198  32.762  13.025  13.473
26379W        W91199   3.719  28.538   2.923
26380W        W91200  43.489  21.586   2.185
26381W        W91201  20.658   7.830  12.629
26382W        W91202  39.492  31.962   3.253
26383W        W91203  11.214  22.849  11.895
26384W        W91204  15.170  12.109  11.130
26385W        W91205  22.655  32.236   2.985
26386W        W91206  27.159  44.334   2.236
26387W        W91207  34.254   6.753  14.732
26388W        W91208  28.005  20.828   3.932
26389W        W91209  11.463  39.877   3.721
26390W        W91210  21.117   5.357  13.270
26391W        W91211  43.963  36.165   2.830
26392W        W91212  39.543  44.791  12.095
26393W        W91213  10.519  29.981   0.005
26394W        W91214  22.665  24.365   4.511
26395W        W91215   1.516  30.606   1.629
26396W        W91216  27.199  17.666  10.875
26397W        W91217  13.326   0.374   1.935
26398W        W91218  21.720  24.597   4.727
26399W        W91219   9.366  28.700  13.566
26400W        W91220  34.972  16.876   2.520
26401W        W91221  16.509   6.581  12.440
26402W        W91222  41.473  31.830  13.000
26403W        W91223  41.912  37.686   1.963
26404W        W91224  36.548  12.667  14.775
26405W        W91225  15.306   7.213  14.564
26406W        W91226  28.675   2.913   2.793
26407W        W91227  37.851  36.951  10.702
26408W        W91228   3.492  22.143   4.741
26409W        W91229  21.770   0.268   3.638
26410W        W91230  33.280  15.137   5.004
26411W        W91231  17.200  35.385   2.342
26412W        W91232  16.907  25.523   4.411
26413W        W91233  43.731   9.170  11.332
26414W        W91234   1.832   5.841   3.275
26415W        W91235  34.931  43.540  10.722
26416W        W91236  35.432  15.074   2.814
26417W        W91237  18.582  13.740   4.516
26418W        W91238  35.783  38.635  10.967
26419W        W91239   9.622  44.273   2.661
26420W        W91240  35.284   7.504   3.092
26421W        W91241   2.866  25.888   0.261
26422W        W91242  21.092  41.358   3.086
26423W        W91243  34.772   9.260   2.426
26424W        W91244  12.572  34.218   1.113
26425W        W91245  11.832  32.870  12.656
26426W        W91246  31.998  36.005  14.899
26427W        W91247  37.635  38.994  14.330
26428W        W91248  12.889   2.196  13.798
26429W        W91249  26.560  26.147   1.764
26430W        W91250  24.794  24.592   2.581
26431W        W91251   2.254  16.698  11.177
26432W        W91252  30.449  38.035   0.850
26433W        W91253  21.141  41.922   2.304
26434W        W91254  31.752  34.526   1.297
26435W        W91255  15.214  17.301   1.175
26436W        W91256   7.723   0.695   4.439
26437W        W91257   8.369   4.917  14.499
26438W        W91258  29.944  19.334  13.576
26439W        W91259  23.923  13.633  11.214
26440W        W91260  37.787   9.356   4.512
26441W        W91261   3.301   9.877  11.130
26442W        W91262  44.419  34.565   1.391
26443W        W91263  32.218  43.736  11.185
26444W        W91264  30.493  42.297   3.355
26445W        W91265  16.970  11.599  13.497
26446W        W91266  26.639  17.326  13.806
26447W        W91267   3.197  20.497  10.790
26448W        W91268  10.677  25.091  11.670
26449W        W91269  15.820   1.058  12.916
26450W        W91270  23.830   6.228   2.003
26451W        W91271  41.907  17.095  12.806
26452W        W91272   6.270  17.221  10.146
26453W        W91273  21.804  40.402   0.374
26454W        W91274  20.026  39.102   3.237
26455W        W91275  43.301  38.587  11.940
26456W        W91276   4.419   2.509   1.183
26457W        W91277  40.937   8.311   4.634
26458W        W91278  22.761  36.024   0.418
26459W        W91279  12.342  17.681   2.166
26460W        W91280  15.698  25.183  12.867
26461W        W91281  27.137  38.713  13.794
26462W        W91282  21.894  43.907   2.814
26463W        W91283  20.600  25.957   4.123
26464W        W91284   4.706  29.421  11.620
26465W        W91285   1.736  20.882  13.896
26466W        W91286   6.586  41.568  12.535
26467W        W91287  35.370  33.363   4.546
26468W        W91288  42.523  33.078  10.585
26469W        W91289   8.570  25.227  14.374
26470W        W91290  11.749  42.944   2.154
26471W        W91291  44.352  20.298   0.345
26472W        W91292  21.238   5.639  11.076
26473W        W91293  32.724  31.770   2.715
26474W        W91294   1.139   7.646  12.197
26475W        W91295  20.644  34.874   0.222
26476W        W91296  37.272   5.694  11.163
26477W        W91297  25.450  18.735  10.312
26478W        W91298  14.517  19.036   1.293
26479W        W91299  18.860  35.322  12.918
26480W        W91300  25.719  22.523   1.833
26481W        W91301  43.834  35.381   3.171
26482W        W91302   7.733  41.613   0.405
26483W        W91303  13.058   5.240   4.033
26484W        W91304  43.705  37.856   4.567
26485W        W91305  35.988  42.035   3.776
26486W        W91306   3.375  41.776   2.423
26487W        W91307  14.783  25.511   4.828
26488W        W91308  33.938  16.542  14.427
26489W        W91309  35.203  37.909   4.191
26490W        W91310  19.820  24.594   1.829
26491W        W91311  12.313  37.286  14.928
26492W        W91312  18.009  34.715  11.054
26493W        W91313  24.125  35.034  14.866
26494W        W91314  20.136  11.620   1.633
26495W        W91315  36.442  17.786   4.114
26496W        W91316   0.320   4.187  12.498
26497W        W91317  11.624   5.988  12.473
26498W        W91318   7.436  17.862   4.583
26499W        W91319  19.445  12.771   0.671
26500W        W91320  37.918  20.796  10.668
26501W        W91321  32.165  28.174   4.824
26502W        W91322  33.185   7.291  12.425
26503W        W91323  27.595  12.591  12.527
26504W        W91324  40.912  38.271  12.999
26505W        W91325   1.321  30.126   1.395
26506W        W91326  19.168  33.042   4.901
26507W        W91327  22.994  40.395  11.271
26508W        W91328  16.108  24.654  13.437
26509W        W91329  44.482  33.478  11.874
26510W        W91330   1.918  20.244  10.766
26511W        W91331  43.652  16.760  14.903
26512W        W91332  20.808   8.323   2.273
26513W        W91333  24.690  31.158  10.788
26514W        W91334  40.442  33.175  14.148
26515W        W91335  22.357  24.483   3.290
26516W        W91336  24.730  44.762   3.215
26517W        W91337  38.368   3.764  13.239
26518W        W91338   4.341  34.929  11.609
26519W        W91339  17.703  13.245   1.903
26520W        W91340  12.430  23.443  14.934
26521W        W91341  44.905   1.401  12.490
26522W        W91342  28.778  39.010  12.878
26523W        W91343  40.180  33.252  11.640
26524W        W91344   1.967  14.088   2.236
26525W        W91345  33.790  31.148   2.270
26526W        W91346  22.500  34.815  10.168
26527W        W91347  23.601  39.314   4.572
26528W        W91348  35.146  31.444   0.965
26529W        W91349   8.449  41.394  11.676
26530W        W91350  24.540  28.707   3.164
26531W        W91351  37.510  41.930  13.648
26532W        W91352  39.851  33.667  11.650
26533W        W91353  14.852  32.327   3.752
26534W        W91354  27.144   1.269   2.501
26535W        W91355   6.094   1.370   0.428
26536W        W91356   2.948  36.526   2.005
26537W        W91357  15.581  29.334  12.920
26538W        W91358  36.946  27.443  12.635
26539W        W91359   7.214  37.055   3.182
26540W        W91360  22.958  18.055   1.384
26541W        W91361  30.959   0.702  14.840
26542W        W91362   7.409  32.935  12.117
26543W        W91363   8.163  13.802   0.628
26544W        W91364  12.809  29.403   1.245
26545W        W91365  15.841  19.689   4.107
26546W        W91366  43.294   5.280  12.025
26547W        W91367   8.806   6.300   3.571
26548W        W91368  12.448   7.299   2.433
26549W        W91369   8.271   4.343   4.246
26550W        W91370  25.309   5.894   2.284
26551W        W91371  36.386  29.635  12.094
26552W        W91372  19.711  37.234  13.104
26553W        W91373  34.004   1.082   3.704
26554W        W91374  35.498  26.206  12.633
26555W        W91375  33.544  13.098  13.218
26556W        W91376  40.306   9.850  12.893
26557W        W91377  25.063  13.862   3.699
26558W        W91378  33.985  28.458   5.654
26559W        W91379   7.875  19.499  10.663
26560W        W91380  18.221   4.234   3.228
26561W        W91381  13.232  23.993   2.893
26562W        W91382   0.473   2.724   3.065
26563W        W91383  32.332  38.582   1.466
26564W        W91384   3.275  31.813   1.347
26565W        W91385   3.224  43.355   3.234
26566W        W91386  43.412  28.524  10.725
26567W        W91387  11.002  35.404   1.893
26568W        W91388  13.393  18.716  11.619
26569W        W91389   7.637  25.203   3.096
26570W        W91390  34.303  39.948   1.400
26571W        W91391  26.866  18.961   4.743
26572W        W91392  40.512   9.162   0.255
26573W        W91393  36.414  29.248   1.924
26574W        W91394  36.522   0.440   5.369
26575W        W91395  34.336  33.062  11.057
26576W        W91396   4.709  17.530   4.147
26577W        W91397  10.341   8.187   0.299
26578W        W91398  21.892  21.758   5.584
26579W        W91399  15.765  30.078   3.077
26580W        W91400  31.412  32.810  14.355
26581W        W91401  22.769  15.628  10.928
26582W        W91402   1.471  35.379   4.209
26583W        W91403  18.741  12.480  10.629
26584W        W91404  28.331  12.769   0.523
26585W        W91405  33.236  25.228   4.690
26586W        W91406   3.683   9.164   2.857
26587W        W91407   2.629  28.121   4.098
26588W        W91408  37.305   9.901   3.122
26589W        W91409  33.728  27.121  10.293
26590W        W91410  25.908  23.992  13.467
26591W        W91411  35.003  43.789  13.302
26592W        W91412  19.496   8.847  13.813
26593W        W91413  19.079  17.578  11.194
26594W        W91414  41.554  16.183  13.500
26595W        W91415  13.189  28.068   3.209
26596W        W91416   5.908  18.971  11.097
26597W        W91417   7.785   9.638   1.347
26598W        W91418  18.630  40.116   1.729
26599W        W91419  28.823  18.930   2.743
26600W        W91420  17.268  25.627   4.754
26601W        W91421  37.943  39.330  14.041
26602W        W91422  44.271  19.034   1.600
26603W        W91423  38.699   2.037  10.224
26604W        W91424  12.327  26.230  12.361
26605W        W91425  42.970  21.791   2.237
26606W        W91426   2.288  35.051  13.390
26607W        W91427  17.568  29.952   3.284
26608W        W91428  36.404  21.642  11.634
26609W        W91429   2.970   6.666  13.898
26610W        W91430  31.811  44.923   3.826
26611W        W91431  19.546  11.260  12.769
26612W        W91432  21.252  28.014  13.407
26613W        W91433  39.346   5.631   2.221
26614W        W91434  29.918  44.458   1.897
26615W        W91435  14.591  34.485   4.356
26616W        W91436  10.858  19.642  14.844
26617W        W91437   4.333  25.232   9.900
26618W        W91438  27.409  18.240   2.176
26619W        W91439   1.547  29.971   0.932
26620W        W91440  35.718  36.558  11.159
26621W        W91441  14.786  39.946   2.156
26622W        W91442   2.507   7.813   1.810
26623W        W91443  37.054  39.467  10.951
26624W        W91444  17.558  23.582   3.239
26625W        W91445  31.670  27.496   2.289
26626W        W91446  29.669  11.167   4.235
26627W        W91447  14.174  41.265   1.055
26628W        W91448  33.669  28.099   1.426
26629W        W91449  40.505   2.419  13.317
26630W        W91450  40.498  36.521  10.945
26631W        W91451  43.862  10.634   2.860
26632W        W91452  32.729  14.884  12.920
26633W        W91453   9.729  22.090  12.580
26634W        W91454   6.797  15.633  12.904
26635W        W91455  39.370  33.149   0.423
26636W        W91456  30.617   2.646  14.015
26637W        W91457  31.573  19.898  13.986
26638W        W91458  20.800  35.673  10.332
26639W        W91459   5.919  44.868   2.143
26640W        W91460  36.806  24.504   2.353
26641W        W91461  21.726  27.328  12.527
26642W        W91462  44.815  15.140   1.027
26643W        W91463  23.302  17.788   4.568
26644W        W91464  19.284  43.869  14.420
26645W        W91465   5.825  43.707  14.404
26646W        W91466  26.516  17.305   0.188
26647W        W91467  38.800   1.059   1.668
26648W        W91468  28.167  12.557   3.176
26649W        W91469   1.933  25.903  11.190
26650W        W91470  19.016  30.882  13.464
26651W        W91471  36.486  18.214  12.111
26652W        W91472  22.863   9.665  11.983
26653W        W91473  29.096  37.527  13.235
26654W        W91474  29.873  14.166   2.940
26655W        W91475   0.437  41.751  12.813
26656W        W91476  35.478  38.359   1.309
26657W        W91477  34.977  17.124  10.735
26658W        W91478  42.008   0.265  12.128
26659W        W91479  28.619  28.509   0.413
26660W        W91480   2.726  17.216   1.955
26661W        W91481  12.150  19.217   2.253
26662W        W91482   3.229  43.530  14.381
26663W        W91483  25.043  35.371   0.326
26664W        W91484  42.069  37.531   4.639
26665W        W91485  36.517  18.339   3.251
26666W        W91486   3.267  41.979   1.469
26667W        W91487  39.796   0.486   3.039
26668W        W91488   1.440  27.927   1.674
26669W        W91489  43.710  16.965   4.544
26670W        W91490  43.274  30.396   1.475
26671W        W91491   9.130  24.698   2.312
26672W        W91492  35.858  17.840  13.879
26673W        W91493  22.614  20.305   4.598
26674W        W91494  15.550  21.188  12.926
26675W        W91495  17.209   8.774  12.478
26676W        W91496   3.602  21.018   3.362
26677W        W91497  13.480   3.368   2.253
26678W        W91498  16.759  40.927   4.207
26679W        W91499  27.904  29.112  12.543
26680W        W91500  26.012  41.575   4.115
26681W        W91501  23.590   9.468  11.098
26682W        W91502  32.583  27.893  14.519
26683W        W91503  41.735  20.646   3.861
26684W        W91504  15.842  42.268  10.748
26685W        W91505  25.569  32.117  10.569
26686W        W91506   9.433   8.664   2.413
26687W        W91507  38.831  16.082   0.694
26688W        W91508  36.314  38.366   4.956
26689W        W91509  18.511   3.795   1.465
26690W        W91510  20.415  14.675  13.791
26691W        W91511  42.305  38.783  11.150
26692W        W91512  26.800  28.136   0.288
26693W        W91513  19.843  22.306  11.494
26694W        W91514  30.404  43.895  12.426
26695W        W91515  34.024  32.032   5.005
26696W        W91516  25.261  39.994   0.860
26697W        W91517   4.331  22.682   0.046
26698W        W91518   1.468  44.894  13.793
26699W        W91519  34.047   6.256  12.379
26700W        W91520  13.900  15.777  10.848
26701W        W91521  14.845  37.615   0.229
26702W        W91522  17.152   1.193   3.229
26703W        W91523   3.380  23.715   3.505
26704W        W91524  21.547   1.945  13.878
26705W        W91525  12.766   0.788  14.108
26706W        W91526  29.114  30.482   0.798
26707W        W91527  40.955   9.330  13.890
26708W        W91528  10.381  36.410   3.151
26709W        W91529   7.844   4.026  10.719
26710W        W91530  13.472  12.050  13.071
26711W        W91531   2.196   2.424  12.938
26712W        W91532  40.155  28.165  14.464
26713W        W91533  30.085  32.922   4.583
26714W        W91534  20.625  40.181   0.283
26715W        W91535   3.529   2.951  11.585
26716W        W91536  24.549   9.169  14.898
26717W        W91537  12.892  33.170  12.173
26718W        W91538  41.487  29.341  10.769
26719W        W91539   1.009   6.238  10.739
26720W        W91540  17.637  30.712  13.345
26721W        W91541   6.458  15.266   0.903
26722W        W91542  29.173  41.613  11.433
26723W        W91543  23.601  41.825   3.691
26724W        W91544   5.773  28.753  11.952
26725W        W91545  12.285   6.191  14.842
26726W        W91546  11.579  14.257  13.434
26727W        W91547  24.123  32.513  11.960
26728W        W91548   6.423  20.005   0.336
26729W        W91549  16.627  32.075  11.432
26730W        W91550   4.225  14.925  12.877
26731W        W91551   2.303  14.042  12.040
26732W        W91552  10.064  41.562   3.174
26733W        W91553  18.032   8.766  13.371
26734W        W91554  43.311  34.167  14.026
26735W        W91555  23.095  22.257   0.711
26736W        W91556  32.381  19.594   3.659
26737W        W91557  43.306  31.584  11.568
26738W        W91558  26.490  24.526  14.168
26739W        W91559  14.746  15.131  14.878
26740W        W91560  36.101   6.249   4.453
26741W        W91561   7.448   9.280   3.139
26742W        W91562  17.695  40.796   3.579
26743W        W91563   6.719  28.226   1.685
26744W        W91564  29.604  19.795   1.195
26745W        W91565   6.867  33.568   1.750
26746W        W91566  11.696  29.878   0.477
26747W        W91567  19.455  37.343   4.995
26748W        W91568  16.816  32.945  12.982
26749W        W91569   6.096  24.612   1.590
26750W        W91570  17.284   0.530  14.467
26751W        W91571  25.415   8.240   3.185
26752W        W91572  19.382   0.818  11.180
26753W        W91573  17.035   7.322  12.456
26754W        W91574  21.560   4.895  12.344
26755W        W91575  24.187  29.715   2.613
26756W        W91576  31.128  14.982  13.539
26757W        W91577   4.690  43.410   4.357
26758W        W91578  37.801  18.958   3.878
26759W        W91579  12.699  32.374   3.317
26760W        W91580  11.960  21.932   1.750
26761W        W91581   3.402  30.868   0.269
26762W        W91582  31.104   6.442  10.685
26763W        W91583   9.429   9.302  12.631
26764W        W91584   1.284   2.786  13.871
26765W        W91585  28.902  20.796  11.069
26766W        W91586  28.712   6.848  12.906
26767W        W91587  42.317  44.400   0.738
26768W        W91588   1.578  17.864   2.239
26769W        W91589   9.208  39.071   1.173
26770W        W91590  23.147  15.603  13.801
26771W        W91591  28.992  40.581  11.663
26772W        W91592   7.422  27.942   5.005
26773W        W91593  15.323  15.768  11.552
26774W        W91594   5.729  22.672  11.120
26775W        W91595  20.385  29.381  13.835
26776W        W91596  24.049  34.995  13.726
26777W        W91597   6.496  15.321  14.168
26778W        W91598  37.502  39.245  12.963
26779W        W91599  29.394  34.059  11.150
26780W        W91600  10.146   9.924  11.736
26781W        W91601  38.544  29.041  12.510
26782W        W91602  11.856  32.910  14.398
26783W        W91603  12.027   9.733   2.681
26784W        W91604  30.307  40.964  12.889
26785W        W91605  11.186  12.974  11.036
26786W        W91606  36.616  25.453  12.624
26787W        W91607  26.607  13.311  12.555
26788W        W91608  30.535   9.858   3.843
26789W        W91609  14.576  12.698   4.736
26790W        W91610  14.749  44.448   2.352
26791W        W91611  36.077  40.316   2.356
26792W        W91612  14.061  18.121   0.544
26793W        W91613  14.746  35.062  12.256
26794W        W91614  39.280  10.674  14.345
26795W        W91615  31.984  10.688  13.142
26796W        W91616   0.316  32.122   2.021
26797W        W91617  16.083  30.916   1.249
26798W        W91618  11.825   8.369   0.184
26799W        W91619  26.604  43.231  14.460
26800W        W91620  20.017  39.336  13.347
26801W        W91621   9.892   7.405  14.065
26802W        W91622  22.920  25.680   1.804
26803W        W91623  44.480  22.490   3.260
26804W        W91624  38.359  41.971   1.428
26805W        W91625  14.284   5.607  14.789
26806W        W91626  37.584  42.289   2.297
26807W        W91627  31.189  11.349   1.327
26808W        W91628   4.731  30.177   1.386
26809W        W91629  18.571   0.559  12.024
26810W        W91630  19.708   7.433   1.640
26811W        W91631  40.764  32.002   3.752
26812W        W91632  21.168  40.469  14.576
26813W        W91633   9.076   4.451  13.404
26814W        W91634   6.330  17.742   1.821
26815W        W91635  24.245  18.265  12.004
26816W        W91636  29.949   7.008  14.941
26817W        W91637  22.681  36.813  10.337
26818W        W91638  24.014  31.039   3.227
26819W        W91639   1.191   5.296  11.606
26820W        W91640  11.549  14.532   1.736
26821W        W91641  44.783  36.785  14.891
26822W        W91642   9.284   0.054  12.970
26823W        W91643  27.266  37.325   2.208
26824W        W91644  27.047  16.161  10.714
26825W        W91645  17.374   5.328  14.864
26826W        W91646  28.060  37.790   1.177
26827W        W91647   2.381  36.556  14.390
26828W        W91648   2.039   7.355  11.834
26829W        W91649  40.460   8.282  10.237
26830W        W91650   5.285  21.642   1.714
26831W        W91651  22.940  22.311  12.150
26832W        W91652  35.190  44.873  13.588
26833W        W91653  34.954  28.549  13.579
26834W        W91654  40.078  34.101   3.355
26835W        W91655   6.801  19.173  13.602
26836W        W91656  42.374  39.821  14.340
26837W        W91657  16.298  41.336  14.053
26838W        W91658  39.825  12.506   2.472
26839W        W91659  40.795  34.941  14.754
26840W        W91660  30.361  15.799   4.198
26841W        W91661  24.529   6.251  12.368
26842W        W91662  44.744  10.348   0.000
26843W        W91663  21.001  17.001  14.313
26844W        W91664  11.938   2.845  14.494
26845W        W91665   8.597  29.410  13.082
26846W        W91666  19.642   5.475  14.478
26847W        W91667  17.181  24.148   2.201
26848W        W91668  41.969  40.780  12.365
26849W        W91669  21.241  26.935  14.244
26850W        W91670  28.629  10.569  11.526
26851W        W91671  31.972  42.921  12.962
26852W        W91672  30.717  18.776   4.486
26853W        W91673   1.848  24.119   1.401
26854W        W91674  36.062   0.994  10.457
26855W        W91675  33.845   5.976  12.984
26856W        W91676  12.673  15.764   1.449
26857W        W91677  40.018  42.898   1.316
26858W        W91678  32.939  13.423  12.525
26859W        W91679  10.263   3.708   2.677
26860W        W91680  12.035   5.562  10.324
26861W        W91681  11.554  35.880   0.789
26862W        W91682   5.807  20.659  13.850
26863W        W91683   1.454  21.069  11.105
26864W        W91684  17.697  15.838   1.809
26865W        W91685  40.859  20.158  14.085
26866W        W91686  12.283  40.355  13.943
26867W        W91687  25.464   9.160  14.644
26868W        W91688  28.903  40.120   2.753
26869W        W91689  28.502  40.457   2.081
26870W        W91690  22.176  15.902  11.253
26871W        W91691  41.366  44.967  14.377
26872W        W91692  27.234  36.522  11.577
26873W        W91693  39.094  41.560  14.437
26874W        W91694  25.492  34.769  11.907
26875W        W91695  27.888  17.173   3.494
26876W        W91696  18.534  37.265  14.801
26877W        W91697   1.675  20.768   4.863
26878W        W91698  13.810  33.916   4.076
26879W        W91699  14.558  13.117  11.726
26880W        W91700   1.751  20.794  13.067
26881W        W91701  33.465  36.185   3.437
26882W        W91702  15.067  19.168   2.498
26883W        W91703  37.026  44.549  14.727
26884W        W91704  38.498  24.506  11.914
26885W        W91705  36.387  20.669   4.058
26886W        W91706  24.981  11.790  13.104
26887W        W91707  38.551  29.498   2.598
26888W        W91708  35.093  14.375   2.123
26889W        W91709  21.667  30.894   4.675
26890W        W91710   8.058  30.038  12.629
26891W        W91711  22.881  21.143  14.539
26892W        W91712   5.447   3.679   0.348
26893W        W91713  14.702  23.771  11.144
26894W        W91714  26.654  38.446   4.595
26895W        W91715  40.508  22.195  12.945
26896W        W91716  12.148  24.153   0.747
26897W        W91717  16.618   5.011  14.452
26898W        W91718   6.599  26.502  13.506
26899W        W91719   4.666  24.716  12.496
26900W        W91720  39.349  41.313   1.839
26901W        W91721  23.531  10.169  12.445
26902W        W91722  18.849  41.640   1.809
26903W        W91723  40.858  25.641   1.380
26904W        W91724  13.274  39.777  12.983
26905W        W91725  10.497  38.800  11.017
26906W        W91726  35.764  25.760   2.539
26907W        W91727   5.281  35.273  10.213
26908W        W91728   9.638  33.062   0.524
26909W        W91729  14.571  17.789   1.803
26910W        W91730   7.196  44.361  14.382
26911W        W91731   3.457  41.796   1.918
26912W        W91732  26.182  10.261   4.905
26913W        W91733  25.883  30.498   0.738
26914W        W91734  39.504  34.954  12.323
26915W        W91735   6.243  39.376   4.032
26916W        W91736  38.059   3.482   3.636
26917W        W91737  20.688  26.706   0.199
26918W        W91738  39.508  12.970  11.558
26919W        W91739  16.804   2.780  10.670
26920W        W91740   4.891   3.675   0.276
26921W        W91741  42.299  44.910  12.390
26922W        W91742  40.209  18.649  10.697
26923W        W91743  38.309   1.201   4.562
26924W        W91744  21.079  19.172  13.844
26925W        W91745  43.308   0.358  12.595
26926W        W91746  14.510   0.856   0.539
26927W        W91747   0.347  27.720  13.714
26928W        W91748   3.294  44.781   3.803
26929W        W91749  40.391  37.974   2.846
26930W        W91750  13.058  44.560   0.483
26931W        W91751  19.499  29.315   4.534
26932W        W91752  35.879  37.794   0.793
26933W        W91753  20.740  21.976  10.552
26934W        W91754  34.812  31.214   3.359
26935W        W91755  43.441  23.717  14.457
26936W        W91756   3.033  41.287  13.854
26937W        W91757  43.364   5.450  14.001
26938W        W91758  31.076   7.544   2.883
26939W        W91759  11.021   9.295  13.707
26940W        W91760  21.820   8.335   1.772
26941W        W91761  39.413  14.944  13.121
26942W        W91762  38.108  16.592   1.908
26943W        W91763  28.610  33.045  14.022
26944W        W91764  19.830  30.079  10.442
26945W        W91765  33.388  14.602   1.554
26946W        W91766   0.877  29.131  13.222
26947W        W91767  15.241  25.047  11.078
26948W        W91768  35.928  38.985   3.562
26949W        W91769   9.760  36.918   1.884
26950W        W91770  38.123   4.519  14.367
26951W        W91771  23.254  38.028   4.898
26952W        W91772  41.041  28.283   0.181
26953W        W91773  30.010  44.930   2.092
26954W        W91774  20.815   9.143   2.629
26955W        W91775   4.844  37.226   0.545
26956W        W91776  22.726  13.248   2.257
26957W        W91777  14.636  30.326   0.606
26958W        W91778  34.023   8.274  13.987
26959W        W91779  29.658  31.565  13.221
26960W        W91780  14.131  17.260  13.560
26961W        W91781  31.530   2.929   2.218
26962W        W91782  25.996  12.356   4.097
26963W        W91783  15.154  34.750   1.267
26964W        W91784  42.522   7.071   3.574
26965W        W91785   8.798  26.996   3.793
26966W        W91786  14.173  14.338  13.014
26967W        W91787  35.356   1.592  13.882
26968W        W91788  43.374   5.911  13.430
26969W        W91789  44.877  41.265   0.285
26970W        W91790  37.793  19.221   0.393
26971W        W91791  40.635   6.933  14.936
26972W        W91792   1.328  43.251   4.488
26973W        W91793  34.539  19.303   4.160
26974W        W91794  43.443   1.284  11.640
26975W        W91795   4.856  14.898  11.556
26976W        W91796   9.809  27.182   1.706
26977W        W91797  16.385   3.425   3.722
26978W        W91798   6.240  21.476   0.414
26979W        W91799  23.158   9.254  11.907
26980W        W91800  10.453  23.561   0.987
26981W        W91801   3.293   6.558  14.299
26982W        W91802  25.827  13.601  11.752
26983W        W91803   4.878  13.864   4.510
26984W        W91804   7.594  24.619  12.266
26985W        W91805   1.769  10.203  12.070
26986W        W91806  13.116  36.350   2.207
26987W        W91807  40.403  18.745   0.590
26988W        W91808  38.593  17.736   2.353
26989W        W91809  21.972  18.740   1.796
26990W        W91810  10.867  30.382   2.153
26991W        W91811  34.041  24.508  14.121
26992W        W91812  16.817  25.031  14.940
26993W        W91813  20.226  32.444   1.446
26994W        W91814  39.950  17.553   3.438
26995W        W91815   2.753  33.620   4.938
26996W        W91816  16.006   1.718  11.649
26997W        W91817   6.382  32.454   0.333
26998W        W91818  29.816  15.981   1.636
26999W        W91819  20.962   6.651   0.819
27000W        W91820  30.367  39.882  14.917
27001W        W91821  43.608  18.181  13.927
27002W        W91822   8.138  15.018   4.820
27003W        W91823   8.206  13.282   2.849
27004W        W91824  28.946  32.275  14.010
27005W        W91825  24.196  26.452   0.282
27006W        W91826  31.852  11.049   0.176
27007W        W91827  15.182  11.232   3.834
27008W        W91828  44.946  32.764  13.089
27009W        W91829   7.755  19.865  13.331
27010W        W91830  25.023  27.383  13.364
27011W        W91831  35.127  12.590  13.644
27012W        W91832  31.208  17.303   2.139
27013W        W91833  18.314  36.448   0.312
27014W        W91834  13.626  17.931   3.134
27015W        W91835  37.585  25.549   2.430
27016W        W91836  28.373  31.855  14.588
27017W        W91837  39.973  30.224   2.879
27018W        W91838  15.586  14.151  14.427
27019W        W91839  36.917   5.178   1.167
27020W        W91840  30.647  18.162  14.920
27021W        W91841  24.734  15.033  14.862
27022W        W91842  25.068  19.195  12.596
27023W        W91843   7.337  33.421   1.864
27024W        W91844  28.907  36.693  13.391
27025W        W91845  16.722   2.176   3.651
27026W        W91846  30.230  40.914  13.405
27027W        W91847  37.865  10.139  12.144
27028W        W91848  42.248  36.016  14.838
27029W        W91849  11.816   9.855   0.450
27030W        W91850  26.180  44.438   4.559
27031W        W91851  29.230   7.386  14.434
27032W        W91852   5.883  15.674  11.911
27033W        W91853  22.489   5.891  12.985
27034W        W91854   0.941  32.888  14.940
27035W        W91855  37.415  21.016  10.797
27036W        W91856   8.132   0.761   2.130
27037W        W91857  25.660  27.605   1.207
27038W        W91858  23.155  29.354  12.815
27039W        W91859  11.712  17.000  11.239
27040W        W91860   0.895  27.776  11.610
27041W        W91861  28.289  23.038   4.602
27042W        W91862  22.564  25.441  10.403
27043W        W91863  40.190  26.231  14.546
27044W        W91864  11.772   5.418   0.397
27045W        W91865  26.105  18.185  10.899
27046W        W91866  30.584  23.246  11.148
27047W        W91867   3.228  19.723  13.950
27048W        W91868   5.180  11.292   2.141
27049W        W91869   4.948  30.893   3.719
27050W        W91870  15.816  41.743  10.748
27051W        W91871  14.785   9.990  11.539
27052W        W91872   8.854  25.907  14.936
27053W        W91873   3.176  35.164  13.785
27054W        W91874  13.443  15.519   1.772
27055W        W91875   9.300  38.737  10.216
27056W        W91876   7.742   0.915  10.746
27057W        W91877  34.815  17.645   1.268
27058W        W91878  11.689  20.795  13.950
27059W        W91879  13.350   1.553   1.298
27060W        W91880  16.157   0.490   2.012
27061W        W91881  28.529   6.944   4.309
27062W        W91882   9.922  10.142  12.347
27063W        W91883  43.540   6.461   4.294
27064W        W91884  22.346   5.824  11.453
27065W        W91885  41.467   9.904   0.868
27066W        W91886  33.092  32.152  14.264
27067W        W91887  17.191  22.513   4.764
27068W        W91888  17.205  32.962   0.316
27069W        W91889  29.192  39.142   2.805
27070W        W91890  14.837   0.647   1.422
27071W        W91891  31.878  11.198  14.243
27072W        W91892  38.287  15.657  14.008
27073W        W91893  41.521  16.252   4.105
27074W        W91894  16.367   9.532  13.716
27075W        W91895  33.318  12.447  11.561
27076W        W91896  15.612  17.740   2.897
27077W        W91897   7.857  41.342  14.379
27078W        W91898  12.488  28.929   0.084
27079W        W91899  31.254  20.980   3.706
27080W        W91900   2.773   7.940  12.511
27081W        W91901   7.087   0.895   3.328
27082W        W91902   2.714   6.331   4.753
27083W        W91903  43.537  34.963  10.947
27084W        W91904  21.917  39.527   2.310
27085W        W91905   6.818  21.760   2.827
27086W        W91906  38.797  18.676   0.768
27087W        W91907  26.973  30.387   1.414
27088W        W91908   0.883  39.761  10.417
27089W        W91909  20.439   0.308   4.193
27090W        W91910   2.863   5.858   0.619
27091W        W91911  42.071   6.483   3.120
27092W        W91912  35.396  19.211   2.893
27093W        W91913   3.860  39.840  11.029
27094W        W91914  30.950  33.118   4.156
27095W        W91915  23.628  34.701   0.450
27096W        W91916  28.221   4.615   2.327
27097W        W91917  10.914  36.370   1.412
27098W        W91918  25.567  17.034  14.882
27099W        W91919  36.717   3.267  13.790
27100W        W91920  32.486  11.182   3.020
27101W        W91921   4.962   5.718  10.692
27102W        W91922  21.974  40.571   2.356
27103W        W91923   5.281   5.787   2.839
27104W        W91924  15.148   6.808   3.734
27105W        W91925   6.005  33.471   3.388
27106W        W91926  12.781  16.166  12.559
27107W        W91927  13.148  27.981  11.010
27108W        W91928  18.746   1.660  11.192
27109W        W91929  17.334  40.781   0.223
27110W        W91930  44.912  37.448   2.393
27111W        W91931  42.955   4.844   3.731
27112W        W91932  12.804  28.847   1.216
27113W        W91933  21.736  40.995   0.796
27114W        W91934  36.177  25.014   9.549
27115W        W91935  28.684  13.746  14.454
27116W        W91936  19.166   5.676  14.676
27117W        W91937   4.804   4.634  11.136
27118W        W91938  34.613  29.704  11.523
27119W        W91939  36.026   6.448   2.352
27120W        W91940  10.374  22.761  11.445
27121W        W91941   7.073  33.474   0.891
27122W        W91942  16.230  19.420   0.425
27123W        W91943   9.219  16.453  12.359
27124W        W91944  38.730  27.994  13.886
27125W        W91945  10.890  33.572  12.116
27126W        W91946  41.798  41.267   3.189
27127W        W91947  38.282   6.164   3.433
27128W        W91948  23.704  35.879  13.863
27129W        W91949  33.987  33.352   1.774
27130W        W91950  16.651  28.947   4.685
27131W        W91951  27.188  41.335   4.624
27132W        W91952  39.103  16.032  14.127
27133W        W91953  35.280  32.552  12.553
27134W        W91954  29.434  10.345   3.837
27135W        W91955  29.543  21.586   0.915
27136W        W91956   6.332  39.137   4.533
27137W        W91957  29.186  25.082  13.834
27138W        W91958  20.149  25.438   1.163
27139W        W91959  17.565  36.348  13.100
27140W        W91960  22.225  29.251  13.318
27141W        W91961  16.320  17.180  14.836
27142W        W91962   1.666   8.481  10.743
27143W        W91963   1.377  22.776   4.099
27144W        W91964  37.418   2.430   1.018
27145W        W91965  23.246   3.244   3.061
27146W        W91966  14.257   0.570   1.674
27147W        W91967  33.383  31.771   2.354
27148W        W91968  18.047  26.363   2.567
27149W        W91969  37.317  36.494   0.849
27150W        W91970  31.928  35.143  14.277
27151W        W91971  30.007  36.265  10.800
27152W        W91972   6.674   4.730   1.399
27153W        W91973  37.103  12.239   4.042
27154W        W91974  39.042   8.825  11.075
27155W        W91975  13.351  39.059   3.921
27156W        W91976  13.174  38.426   4.656
27157W        W91977  31.454  18.024  13.849
27158W        W91978   3.497  43.839  14.746
27159W        W91979  32.975  19.971  14.816
27160W        W91980  28.566  17.739   4.179
27161W        W91981  18.532  40.962  13.501
27162W        W91982  33.409  19.835  12.801
27163W        W91983  42.387  22.475   0.503
27164W        W91984  37.233  14.473  13.082
27165W        W91985  23.478  35.679   1.445
27166W        W91986  41.843  44.700  10.067
27167W        W91987   1.558   4.642   4.300
27168W        W91988  17.734  24.921  14.419
27169W        W91989   3.912  21.077  13.345
27170W        W91990  28.270  13.533   3.360
27171W        W91991  26.233   5.165  14.122
27172W        W91992  35.423  13.603   3.573
27173W        W91993  44.796  30.988   4.058
27174W        W91994   7.872   3.271   0.833
27175W        W91995  30.914  27.643  13.853
27176W        W91996  44.515  40.060  14.781
27177W        W91997   7.572  20.771  13.430
27178W        W91998  29.521  14.569   4.121
27179W        W91999  30.684  18.536  14.233
27180W        W92000   1.930  36.462   4.984
27181W        W92001  10.385  42.407   1.764
27182W        W92002   6.906  26.555  12.679
27183W        W92003  40.533  16.833  14.010
27184W        W92004  38.963  29.453   4.546
27185W        W92005   0.223  41.420  10.835
27186W        W92006   5.633  42.437  10.897
27187W        W92007  21.637  26.993   4.084
27188W        W92008   1.988  27.033   2.694
27189W        W92009  38.327  20.816   4.319
27190W        W92010  19.061  41.895   3.270
27191W        W92011   2.336  19.375   4.934
27192W        W92012  42.591   1.874  13.318
27193W        W92013  11.812  25.661  10.332
27194W        W92014  28.196  23.119  10.558
27195W        W92015  30.413  29.441  13.058
27196W        W92016  42.297  37.364   1.644
27197W        W92017   3.133  42.742  13.738
27198W        W92018  42.838  40.413  13.896
27199W        W92019  14.539  38.329  11.180
27200W        W92020   4.239  44.723   1.769
27201W        W92021  12.265   9.574   0.466
27202W        W92022  27.998  12.755  14.214
27203W        W92023   0.020  35.338   3.211
27204W        W92024   1.999  37.371  14.300
27205W        W92025  39.442   6.924  14.930
27206W        W92026  42.282  18.343   2.637
27207W        W92027  11.406  23.737   2.134
27208W        W92028  44.451  36.196  11.663
27209W        W92029   8.140  22.969   0.761
27210W        W92030   3.230  11.506  11.316
27211W        W92031   8.142  41.343  13.911
27212W        W92032  41.292   0.018   1.798
27213W        W92033  44.190  30.361   2.391
27214W        W92034  26.239  11.553   4.778
27215W        W92035   0.719  19.061   3.815
27216W        W92036  14.780  25.455   3.160
27217W        W92037  16.988  24.535  14.841
27218W        W92038   8.420  16.018  13.055
27219W        W92039  41.589  32.698  10.758
27220W        W92040  16.569  26.744   2.270
27221W        W92041   9.259  28.478   3.839
27222W        W92042  20.691  14.438  14.383
27223W        W92043  10.078  42.244  13.507
27224W        W92044  13.723  39.385  10.586
27225W        W92045  32.070  39.525   2.692
27226W        W92046  38.479   5.992  11.887
27227W        W92047  41.861   0.829  10.746
27228W        W92048   0.870  21.944  10.240
27229W        W92049  24.446  17.177   4.548
27230W        W92050  20.227  30.394  12.971
27231W        W92051   9.335  22.499  12.490
27232W        W92052  24.209  31.783   5.023
27233W        W92053  37.238   0.189   3.775
27234W        W92054  33.771  33.605   2.650
27235W        W92055  21.437  12.271   2.845
27236W        W92056  44.912  20.293   3.270
27237W        W92057  14.349  28.119   0.870
27238W        W92058  22.090  29.009   3.000
27239W        W92059  12.033  37.917   1.542
27240W        W92060  43.899   5.150  11.473
27241W        W92061  17.496  31.880  11.006
27242W        W92062  42.622  21.176  13.467
27243W        W92063  35.130  32.671   2.250
27244W        W92064   1.195  32.571   2.799
27245W        W92065   0.367  31.755   1.649
27246W        W92066  24.548  30.198   0.337
27247W        W92067  36.411   0.269  10.812
27248W        W92068  41.319   5.150   4.213
27249W        W92069  25.438  36.074   5.355
27250W        W92070  40.931  34.939   0.257
27251W        W92071  34.586   2.135   0.089
27252W        W92072  10.347  12.903  14.339
27253W        W92073  12.092  44.071   4.389
27254W        W92074  32.846  36.981   0.233
27255W        W92075  23.559  35.478   4.680
27256W        W92076  14.141  34.469  11.709
27257W        W92077  13.526  33.832  11.150
27258W        W92078   4.466  10.351   3.715
27259W        W92079   4.942  21.316   3.780
27260W        W92080  18.489  34.268  10.306
27261W        W92081  14.891  20.401  13.726
27262W        W92082  25.919  27.163   3.267
27263W        W92083  14.292   9.821   4.147
27264W        W92084  38.214   5.589   1.865
27265W        W92085  21.027   5.813  13.029
27266W        W92086  17.567  20.708   2.300
27267W        W92087   4.323  32.895   1.448
27268W        W92088   6.883  35.876   0.874
27269W        W92089  34.250  22.652   4.427
27270W        W92090  33.400  18.829  14.685
27271W        W92091  16.537   0.264   2.367
27272W        W92092  27.052   2.200   4.082
27273W        W92093  32.112  17.759  10.633
27274W        W92094  31.437  23.491  12.628
27275W        W92095  27.999  27.992  12.070
27276W        W92096  37.327   1.422   4.593
27277W        W92097  41.057  28.590   0.992
27278W        W92098  37.298   9.834   0.805
27279W        W92099  38.475  10.912  13.866
27280W        W92100  34.418  31.906  14.388
27281W        W92101  22.338  13.748   1.783
27282W        W92102  35.877  16.651  13.437
27283W        W92103  33.481  42.303   2.439
27284W        W92104  30.314  25.269  14.396
27285W        W92105   1.761  20.564   3.610
27286W        W92106  14.743  12.538  11.101
27287W        W92107  15.840  11.359  13.806
27288W        W92108   2.521  17.773   3.264
27289W        W92109  33.018  35.876  13.342
27290W        W92110  22.449  23.949   1.740
27291W        W92111   2.425  33.338   2.069
27292W        W92112  27.066  18.600   1.531
27293W        W92113  29.139  12.304   0.320
27294W        W92114  13.892   7.273   1.878
27295W        W92115  10.768  10.881  10.413
27296W        W92116  11.756  39.585  14.227
27297W        W92117  32.523  37.423  10.223
27298W        W92118  22.164  21.878  12.934
27299W        W92119   3.468  34.338  13.956
27300W        W92120  15.069  12.867   1.783
27301W        W92121  42.515  34.030   1.702
27302W        W92122  24.779  18.013   4.052
27303W        W92123  21.043   1.833   3.243
27304W        W92124  25.218  44.269   4.518
27305W        W92125  38.346  20.767   4.831
27306W        W92126  36.071   9.605  14.529
27307W        W92127  26.697  31.634   0.068
27308W        W92128  17.595  39.194  13.447
27309W        W92129  34.893  24.498  13.076
27310W        W92130  15.671  14.557   1.426
27311W        W92131   8.398  26.128   0.707
27312W        W92132  40.913  40.309   3.585
27313W        W92133  22.256   1.372  11.756
27314W        W92134  42.045  42.048   0.640
27315W        W92135   7.216  35.525   4.501
27316W        W92136   2.541  35.549   1.232
27317W        W92137  29.738  11.777   0.336
27318W        W92138   9.645  44.716  14.867
27319W        W92139  14.892  16.038  11.620
27320W        W92140  33.172  29.831  11.232
27321W        W92141  17.470  29.610  10.044
27322W        W92142  14.031  24.996   3.144
27323W        W92143  17.851  26.243   4.286
27324W        W92144  17.710  44.931   1.791
27325W        W92145   4.330  17.420   3.822
27326W        W92146  16.046   2.775   1.843
27327W        W92147  41.953  30.561   2.281
27328W        W92148  32.153   3.671  11.143
27329W        W92149  37.916   8.736   5.048
27330W        W92150  36.538  37.207  12.899
27331W        W92151  31.184  24.949   2.102
27332W        W92152  27.475  27.501  11.428
27333W        W92153  34.051   9.409  11.367
27334W        W92154  22.138  33.643   0.957
27335W        W92155  33.820  16.787   1.737
27336W        W92156  33.969  31.450   4.529
27337W        W92157   4.152  20.640   2.730
27338W        W92158  26.380   5.832  11.755
27339W        W92159  31.149  44.367  12.550
27340W        W92160  35.125  39.879   4.838
27341W        W92161   5.964   3.333   1.948
27342W        W92162  41.914  43.254  12.204
27343W        W92163  34.454   0.752  11.953
27344W        W92164  13.554   9.807   1.302
27345W        W92165  25.232  43.402  12.479
27346W        W92166  36.607  43.987  12.964
27347W        W92167  25.147  17.202   3.917
27348W        W92168  25.026  18.006   0.506
27349W        W92169   7.811  11.361   3.151
27350W        W92170  22.194  41.441  11.000
27351W        W92171  33.665  15.419   1.116
27352W        W92172  25.462   5.748   1.791
27353W        W92173  16.113  32.839  12.997
27354W        W92174   8.169   6.221   4.950
27355W        W92175  32.103  23.457  12.857
27356W        W92176  20.842   5.760  11.435
27357W        W92177  36.564  39.735   1.606
27358W        W92178  42.747   8.636   4.370
27359W        W92179  11.080  39.576   4.723
27360W        W92180  27.555   6.295   2.941
27361W        W92181  13.980   0.307  14.826
27362W        W92182  33.596  25.055   2.949
27363W        W92183   5.356  15.215  14.508
27364W        W92184  20.987  30.153   1.303
27365W        W92185  43.806  18.553  12.447
27366W        W92186  39.319  40.110  14.954
27367W        W92187  19.603  29.421   1.910
27368W        W92188   8.132  15.823   1.305
27369W        W92189  30.215  28.414  13.328
27370W        W92190  29.907   8.305  10.713
27371W        W92191   1.397   9.543  13.763
27372W        W92192   5.050   1.210  11.132
27373W        W92193   6.159  16.667   4.227
27374W        W92194  11.876   1.312   4.940
27375W        W92195  26.937  44.259  11.889
27376W        W92196  32.099  39.818  14.510
27377W        W92197   3.200  19.335  14.860
27378W        W92198  14.843  30.207   2.699
27379W        W92199  44.244  27.953   0.730
27380W        W92200  23.251   4.732   0.885
27381W        W92201  22.943  44.499   1.838
27382W        W92202  28.708  13.788   0.980
27383W        W92203  40.002  41.102   2.211
27384W        W92204  36.428  24.220   0.130
27385W        W92205   4.786   8.334   3.370
27386W        W92206  39.984  39.732  14.447
27387W        W92207  33.852  17.178  11.926
27388W        W92208  28.430  26.057   1.169
27389W        W92209   8.499   5.927   3.304
27390W        W92210  12.265   7.622   0.133
27391W        W92211  19.734  22.801  11.466
27392W        W92212  22.811  16.347  12.013
27393W        W92213  13.613  38.401   3.356
27394W        W92214  44.932  22.922  12.325
27395W        W92215   4.519   7.088   3.309
27396W        W92216  29.734   5.610   9.925
27397W        W92217  23.483  30.596  11.441
27398W        W92218  43.578   6.001  12.947
27399W        W92219  19.760   5.609   2.973
27400W        W92220  14.117  39.896  13.114
27401W        W92221  24.098  38.511   3.311
27402W        W92222  25.878  37.943   3.777
27403W        W92223   0.930  24.738   4.546
27404W        W92224  12.319  27.011  10.256
27405W        W92225   0.351  36.695  11.610
27406W        W92226  44.483  41.516   0.060
27407W        W92227  41.359   8.748  14.983
27408W        W92228  32.417   0.295  11.181
27409W        W92229   7.390  16.476   0.628
27410W        W92230  44.355  12.505   4.540
27411W        W92231  27.343  43.054   4.621
27412W        W92232  40.036  27.689   1.324
27413W        W92233  39.955   2.218  10.441
27414W        W92234   9.349  10.172  14.276
27415W        W92235  22.586  42.970   4.088
27416W        W92236  23.665  22.040  11.225
27417W        W92237  40.691  14.273  13.029
27418W        W92238  28.633  40.716   0.836
27419W        W92239  20.156  18.874  14.271
27420W        W92240   2.152  41.499   2.223
27421W        W92241  16.322  16.904   2.120
27422W        W92242  29.541  23.140  14.703
27423W        W92243  26.768  16.191  11.181
27424W        W92244  27.771  18.073   1.746
27425W        W92245  30.130  10.663   1.642
27426W        W92246  29.610  26.738  10.261
27427W        W92247   2.656  41.684  12.376
27428W        W92248   5.546  21.932   3.241
27429W        W92249  10.462   3.370   4.480
27430W        W92250  14.035  23.976  12.023
27431W        W92251  42.830  18.826  14.775
27432W        W92252  31.999   2.821  13.384
27433W        W92253  15.958   1.373  14.833
27434W        W92254   3.992  21.827   0.603
27435W        W92255   9.777  35.628  11.038
27436W        W92256   5.410  13.690   3.623
27437W        W92257  43.234  10.643   0.371
27438W        W92258   7.302  24.263   1.212
27439W        W92259  44.021  42.374   1.880
27440W        W92260  26.628  10.284  10.741
27441W        W92261  37.582  28.827  12.515
27442W        W92262  43.033  42.347  14.804
27443W        W92263  35.449  19.030   1.827
27444W        W92264  43.720  30.499  13.029
27445W        W92265  13.542  36.489  14.815
27446W        W92266  10.825  20.578  13.124
27447W        W92267  16.725  44.855   0.273
27448W        W92268  27.614  41.218  12.575
27449W        W92269  20.007  21.983  12.315
27450W        W92270  16.041  38.598   1.895
27451W        W92271  24.465   8.278  10.617
27452W        W92272  35.637  32.101  11.826
27453W        W92273  24.210  13.377  10.808
27454W        W92274   2.258  33.478  12.500
27455W        W92275   0.709   0.921  13.399
27456W        W92276  10.253   7.091  13.880
27457W        W92277  44.842   7.915   4.944
27458W        W92278  35.173  44.316  14.331
27459W        W92279  10.821  29.022   4.091
27460W        W92280  43.451   4.703   1.899
27461W        W92281  34.654  12.631  11.497
27462W        W92282  31.203  43.264  13.023
27463W        W92283  40.197  42.735  12.086
27464W        W92284   3.365  38.689   3.485
27465W        W92285  39.565  22.013   0.321
27466W        W92286   2.811   3.187   2.889
27467W        W92287  22.931  34.505  12.950
27468W        W92288  27.276  41.715  12.980
27469W        W92289  34.079  28.912  14.638
27470W        W92290  24.739  41.315   4.453
27471W        W92291   0.195  38.969  14.435
27472W        W92292  19.469  12.639  13.925
27473W        W92293  23.143   3.700  14.836
27474W        W92294  29.796  31.631  11.459
27475W        W92295  32.598  36.896   0.950
27476W        W92296   4.809  37.800  11.528
27477W        W92297  12.449   9.413  12.204
27478W        W92298  17.065   0.389   4.079
27479W        W92299   6.091  26.683   1.414
27480W        W92300  32.928  24.626   1.878
27481W        W92301   5.212  35.657   4.239
27482W        W92302  21.227  37.011  11.480
27483W        W92303  17.566  40.356   3.822
27484W        W92304  29.617   5.308   0.951
27485W        W92305  37.876  21.040  14.567
27486W        W92306  41.768  40.346   2.471
27487W        W92307  43.266  15.186  14.826
27488W        W92308   0.097  11.718   4.589
27489W        W92309  42.130  28.052  13.427
27490W        W92310  13.701  39.980  11.033
27491W        W92311   6.860  22.626  11.938
27492W        W92312   6.425   6.242  11.646
27493W        W92313   9.833  19.393   3.032
27494W        W92314  41.871  27.218  12.535
27495W        W92315  27.661  38.547   0.464
27496W        W92316   6.339  25.013   1.821
27497W        W92317  19.838  41.074  13.099
27498W        W92318  13.377  24.242  12.631
27499W        W92319  41.864  17.763  10.718
27500W        W92320  31.808  40.780  12.873
27501W        W92321  16.336  25.747  12.153
27502W        W92322  14.061  13.086   1.687
27503W        W92323  42.787   6.432   1.505
27504W        W92324  28.622   0.046  11.538
27505W        W92325  11.738  18.447  10.291
27506W        W92326  39.840  40.799   0.339
27507W        W92327  20.517  39.455  13.318
27508W        W92328  33.363   6.892   2.464
27509W        W92329   7.221  19.153  13.308
27510W        W92330   1.972  30.109  11.563
27511W        W92331  41.051  26.092  11.100
27512W        W92332   2.909  20.853  12.484
27513W        W92333  22.603  41.562   3.769
27514W        W92334  23.475   3.855   0.648
27515W        W92335  38.368   1.440  14.948
27516W        W92336   5.817  35.710  11.980
27517W        W92337  41.749   0.889   1.004
27518W        W92338  23.588  40.552  10.665
27519W        W92339  18.209  30.649   2.872
27520W        W92340  34.131  12.736   1.873
27521W        W92341  13.350  34.873  12.365
27522W        W92342   0.404   1.312  12.602
27523W        W92343  14.362  19.832   2.782
27524W        W92344  30.091  12.644   2.877
27525W        W92345  28.062   4.201   4.259
27526W        W92346   5.787  38.045  12.394
27527W        W92347  27.203  18.998   3.868
27528W        W92348   8.494  16.524  14.665
27529W        W92349  40.607  29.672  13.971
27530W        W92350  13.168  38.757   2.876
27531W        W92351   8.717  44.727  11.864
27532W        W92352  38.862  41.369   1.699
27533W        W92353  20.809  21.213   1.345
27534W        W92354   9.692  17.582   3.750
27535W        W92355  34.335  30.969   3.290
27536W        W92356  32.033  31.358   3.295
27537W        W92357  41.397  32.488   0.925
27538W        W92358  12.768   3.317  14.868
27539W        W92359  37.886  44.976   2.539
27540W        W92360  15.700   4.125   4.152
27541W        W92361  34.122   9.724  10.205
27542W        W92362  10.840  23.120  10.779
27543W        W92363  22.290  37.373  12.965
27544W        W92364  24.272  26.352   1.923
27545W        W92365  29.576   4.752   0.878
27546W        W92366   1.170  13.273   1.701
27547W        W92367  22.011  22.110   2.811
27548W        W92368  34.786   3.267  10.456
27549W        W92369  36.904  28.501  14.030
27550W        W92370  23.059  31.584  13.428
27551W        W92371   8.352  21.408   2.823
27552W        W92372   1.396  15.100  14.374
27553W        W92373  28.092   4.009   5.112
27554W        W92374  29.580  33.623  12.976
27555W        W92375  42.825   2.507  11.809
27556W        W92376  13.711   7.658   3.678
27557W        W92377  43.289  36.328  10.839
27558W        W92378  28.172  27.240   0.818
27559W        W92379  28.222  15.896   5.120
27560W        W92380  19.713  43.583   0.393
27561W        W92381  24.136  23.161  11.659
27562W        W92382   7.602  11.778   4.890
27563W        W92383  17.757   4.951   3.133
27564W        W92384  25.551   1.977   1.892
27565W        W92385  10.437  22.589  14.825
27566W        W92386  28.010  22.741  13.591
27567W        W92387   0.383  41.235  14.273
27568W        W92388  23.178   2.015  13.299
27569W        W92389   7.350  32.613  12.519
27570W        W92390   5.201   7.924   2.117
27571W        W92391  19.102  32.570   0.579
27572W        W92392  14.393   1.197  10.944
27573W        W92393  27.447   7.253   1.280
27574W        W92394  13.774  12.103   1.894
27575W        W92395  21.778  44.755   0.405
27576W        W92396  23.272  34.405   5.013
27577W        W92397  12.561  18.343   3.314
27578W        W92398  27.036  27.998   2.743
27579W        W92399  27.171   2.383  10.912
27580W        W92400   7.114   4.336   0.509
27581W        W92401  42.734  25.977   0.637
27582W        W92402   3.036  10.455   0.227
27583W        W92403  35.042  13.363  11.543
27584W        W92404  34.505   3.544  10.770
27585W        W92405  41.713  39.135  12.442
27586W        W92406  33.586  27.196  11.679
27587W        W92407  31.131   9.571  11.569
27588W        W92408  13.662  35.808  11.054
27589W        W92409  14.653  36.324  13.970
27590W        W92410  29.855  26.878   9.792
27591W        W92411   4.822  31.638  10.598
27592W        W92412  16.298  32.498   0.047
27593W        W92413  33.972  36.448  13.891
27594W        W92414  41.843  27.980   2.356
27595W        W92415   3.812  33.610   2.388
27596W        W92416  20.745  36.048   3.756
27597W        W92417  38.303   8.876  14.267
27598W        W92418  37.783   4.956  12.914
27599W        W92419  20.001  19.629   2.708
27600W        W92420  39.351  21.017  11.677
27601W        W92421  39.057  21.707   3.683
27602W        W92422  35.216  37.389  14.482
27603W        W92423  32.315  44.929   4.571
27604W        W92424   1.778  24.447   2.377
27605W        W92425  19.214  13.137   3.024
27606W        W92426  20.514  21.588   4.177
27607W        W92427  32.540  24.209  14.000
27608W        W92428  34.117  11.420  12.380
27609W        W92429  39.111  17.876   2.402
27610W        W92430  13.854  22.974   3.296
27611W        W92431   2.020   0.824  12.955
27612W        W92432  28.163  18.513   0.727
27613W        W92433   4.403  40.628  12.864
27614W        W92434  24.955  40.467   3.630
27615W        W92435   3.844   8.896   3.258
27616W        W92436  42.398  29.088  14.801
27617W        W92437  19.391  29.928  13.488
27618W        W92438  24.507  17.772  13.990
27619W        W92439  26.508  10.724   1.393
27620W        W92440  42.225  39.309   3.164
27621W        W92441  43.668  11.833   3.488
27622W        W92442  44.755  23.586  13.953
27623W        W92443   7.221  36.445   0.208
27624W        W92444  23.748  21.272   3.894
27625W        W92445  26.667  10.326   1.708
27626W        W92446  38.940  31.466  13.026
27627W        W92447  30.126  21.079  13.520
27628W        W92448  43.458   0.952   3.211
27629W        W92449   5.706  13.420  10.953
27630W        W92450  27.918   6.544  12.683
27631W        W92451  41.742  42.538  10.742
27632W        W92452   3.210  33.478  12.452
27633W        W92453  12.349   3.222  11.365
27634W        W92454  38.572  42.361  10.701
27635W        W92455  13.103   9.213  11.079
27636W        W92456   7.949  31.743  11.621
27637W        W92457  30.125  23.120   2.746
27638W        W92458  12.772  27.455   0.945
27639W        W92459  41.794  22.800  11.638
27640W        W92460   7.035  19.823   3.319
27641W        W92461  27.631  15.389   0.277
27642W        W92462  20.200   4.333   1.432
27643W        W92463  22.645  41.462   1.463
27644W        W92464  19.901  34.453  14.535
27645W        W92465  16.501  39.952  14.430
27646W        W92466  11.938  27.230   1.552
27647W        W92467  37.748   5.759   1.699
27648W        W92468   9.063  37.256  13.839
27649W        W92469  40.267  31.015  12.474
27650W        W92470  31.950  31.008   1.163
27651W        W92471  29.966  27.065   4.252
27652W        W92472  20.896  14.101  10.775
27653W        W92473  37.473  20.287  11.383
27654W        W92474  16.065   1.817  12.582
27655W        W92475   0.734   1.861  10.791
27656W        W92476   0.314  37.853  13.369
27657W        W92477  40.058   2.842  10.781
27658W        W92478  21.447  19.983  11.870
27659W        W92479   0.068  23.241   4.788
27660W        W92480  15.874  21.810  11.158
27661W        W92481  43.873   5.005   3.670
27662W        W92482  39.139  33.308  13.556
27663W        W92483  30.540  30.759   0.927
27664W        W92484  36.179  39.622   1.234
27665W        W92485   9.475  33.483   0.802
27666W        W92486  34.452  26.228   3.688
27667W        W92487  23.497   6.872  12.011
27668W        W92488  13.777   3.638  12.080
27669W        W92489   4.288  20.758  13.270
27670W        W92490  32.816   6.085  11.673
27671W        W92491   8.796  12.156  13.407
27672W        W92492   0.822   9.051   0.975
27673W        W92493   6.369  10.390  12.020
27674W        W92494  24.726  42.511   3.347
27675W        W92495  26.118  27.494   0.336
27676W        W92496  20.596  19.302  10.569
27677W        W92497  37.358  15.321   2.678
27678W        W92498   3.268  35.797   4.348
27679W        W92499   5.432   7.796   1.654
27680W        W92500  13.010  19.679   4.768
27681W        W92501  30.035  15.874   0.300
27682W        W92502   5.262  38.140   1.690
27683W        W92503  43.470  26.596  14.524
27684W        W92504   6.734  32.780   4.660
27685W        W92505  21.696  40.290  14.356
27686W        W92506  33.111   3.043   4.585
27687W        W92507  25.567   4.230   3.156
27688W        W92508  25.220  26.050  11.096
27689W        W92509  43.263   0.806   1.731
27690W        W92510  10.404  22.294   2.856
27691W        W92511  10.361   4.162   1.723
27692W        W92512  14.711  20.680   2.555
27693W        W92513  27.666  27.045  14.064
27694W        W92514  38.432   3.136  11.572
27695W        W92515  29.534  44.324  10.753
27696W        W92516   5.125  37.971   3.145
27697W        W92517  22.703  24.069   0.803
27698W        W92518  23.666  13.002   0.710
27699W        W92519  44.020   1.841   4.154
27700W        W92520   0.532  32.949   2.108
27701W        W92521  36.959  10.189  12.539
27702W        W92522  14.721  27.959   1.837
27703W        W92523  41.010  36.837   2.714
27704W        W92524  31.955   9.824  12.035
27705W        W92525   6.278   9.462   2.980
27706W        W92526   8.316  17.276  14.359
27707W        W92527   1.213  26.387  13.888
27708W        W92528  28.480  12.270   0.435
27709W        W92529  22.043  24.977  14.821
27710W        W92530  25.772  37.687   3.336
27711W        W92531  22.507  21.490  13.320
27712W        W92532  21.817   4.959  14.451
27713W        W92533  37.316  20.865   3.569
27714W        W92534  32.519  19.119   3.621
27715W        W92535  28.696   8.681   4.649
27716W        W92536  22.753  35.459   4.253
27717W        W92537  33.960  38.961  10.814
27718W        W92538  35.847  15.325  13.927
27719W        W92539   8.646   7.629  13.966
27720W        W92540   3.686  42.357  10.636
27721W        W92541  41.345  16.396   3.575
27722W        W92542  29.433  39.557   2.993
27723W        W92543   7.449  28.913  11.962
27724W        W92544  27.116   5.314  11.551
27725W        W92545  10.658  22.933  12.214
27726W        W92546  30.867  38.922  14.044
27727W        W92547   9.353  19.977   3.719
27728W        W92548  27.094  10.875  12.180
27729W        W92549  12.092  18.134  13.863
27730W        W92550  15.233  39.655  11.128
27731W        W92551  13.186  18.718  11.144
27732W        W92552  15.903   8.250   1.900
27733W        W92553  36.048  40.483  12.209
27734W        W92554  28.039  24.783   1.440
27735W        W92555  16.098  31.596   4.117
27736W        W92556  42.673  40.819   4.056
27737W        W92557   2.514  40.495   3.292
27738W        W92558  26.670   2.835   2.801
27739W        W92559  43.271  38.548  13.410
27740W        W92560   5.975  31.670  13.172
27741W        W92561  36.082  42.003   0.242
27742W        W92562  37.891   5.452   3.752
27743W        W92563  41.298  28.206   3.206
27744W        W92564  21.073  26.776  14.721
27745W        W92565  32.711  18.571  12.090
27746W        W92566  26.736  33.465   2.130
27747W        W92567  35.578  26.407  13.534
27748W        W92568  28.829  16.899  11.057
27749W        W92569  21.193  17.784   2.777
27750W        W92570  11.498  35.633   3.166
27751W        W92571   5.221  18.990   3.692
27752W        W92572  21.773  37.391  14.783
27753W        W92573  24.163  40.199   1.016
27754W        W92574  13.850  25.309  13.509
27755W        W92575  12.440  20.033  13.051
27756W        W92576  22.685  44.190   0.597
27757W        W92577  24.915   5.746   0.808
27758W        W92578  17.106  38.384  10.910
27759W        W92579  18.557  33.557  11.092
27760W        W92580   4.218   4.826   0.030
27761W        W92581  25.055  41.472   0.945
27762W        W92582  26.882  24.595  10.732
27763W        W92583  20.291  18.507  12.592
27764W        W92584   6.690  20.669  12.927
27765W        W92585  40.134   4.252  12.905
27766W        W92586  30.016  39.520   4.669
27767W        W92587  22.685   9.292  12.622
27768W        W92588  25.929   6.783   1.860
27769W        W92589  24.306  34.859   2.721
27770W        W92590  22.294  34.399   0.369
27771W        W92591  38.334  12.713  10.285
27772W        W92592  37.543  15.331   0.331
27773W        W92593  32.024   5.168  13.043
27774W        W92594  22.530  12.715  11.175
27775W        W92595   4.217  25.788   5.326
27776W        W92596  22.129  43.241   4.272
27777W        W92597  29.530  20.330  12.373
27778W        W92598  25.574   2.859   3.759
27779W        W92599   1.355   5.028   0.963
27780W        W92600  37.971  44.890  12.767
27781W        W92601  34.075  18.144   4.086
27782W        W92602  32.501  18.976   1.968
27783W        W92603  15.334  33.242   0.318
27784W        W92604  16.591  28.502   4.439
27785W        W92605  37.342  21.227  14.953
27786W        W92606  39.312  17.362  12.554
27787W        W92607  10.689  19.287  13.445
27788W        W92608   1.749  23.383  13.924
27789W        W92609   7.798  25.632   1.210
27790W        W92610   6.425   2.903   4.540
27791W        W92611  22.124  34.189   4.850
27792W        W92612  38.877   4.886   2.319
27793W        W92613   7.789  43.188  14.723
27794W        W92614  23.726  40.768  12.817
27795W        W92615  40.233  44.184  13.824
27796W        W92616   3.449   2.368  12.409
27797W        W92617  23.722  43.437  12.871
27798W        W92618   4.830  41.919   2.479
27799W        W92619  26.058  33.164  12.617
27800W        W92620  21.993  37.099  12.567
27801W        W92621   2.638   3.441  11.463
27802W        W92622  40.201   1.849   0.193
27803W        W92623   9.676  40.333  14.362
27804W        W92624  25.765  14.737  13.997
27805W        W92625   9.683  40.135  13.863
27806W        W92626  34.122  14.532   4.468
27807W        W92627  38.585   4.492   4.197
27808W        W92628  34.052  33.267  11.463
27809W        W92629  29.704   5.492   1.452
27810W        W92630  30.000   3.931  10.689
27811W        W92631  23.571  16.311  14.427
27812W        W92632   3.755  20.681  14.966
27813W        W92633  11.145  42.877   0.945
27814W        W92634  33.817  12.387  11.611
27815W        W92635  12.693  40.632  11.200
27816W        W92636  15.816  23.223  14.884
27817W        W92637  14.398  12.817  10.803
27818W        W92638  24.138  31.261  13.351
27819W        W92639  33.329  40.922   2.450
27820W        W92640  22.053  35.307   3.750
27821W        W92641  27.559  29.907   0.917
27822W        W92642  20.305  25.038  10.605
27823W        W92643  30.749  23.192  14.416
27824W        W92644   6.237  27.474   0.888
27825W        W92645  15.709  31.363   3.162
27826W        W92646  13.408  23.508   2.251
27827W        W92647  40.511  36.017  10.830
27828W        W92648  21.538  25.755   2.382
27829W        W92649  28.148  26.481  11.592
27830W        W92650  42.476  20.226   4.370
27831W        W92651  13.149  37.872  14.495
27832W        W92652   4.187  23.119  12.994
27833W        W92653  27.990  15.107  10.771
27834W        W92654  29.935  43.943   0.196
27835W        W92655  22.698  28.573   0.420
27836W        W92656  16.706  11.195   1.317
27837W        W92657  16.049  31.992  10.989
27838W        W92658   0.873   0.325   4.655
27839W        W92659  37.935  39.441   1.138
27840W        W92660  40.714  29.595  12.628
27841W        W92661  29.258  27.018   2.114
27842W        W92662  38.593  38.095   0.891
27843W        W92663  24.497  44.964   2.781
27844W        W92664  34.176  43.108  10.641
27845W        W92665  19.103  39.857  14.136
27846W        W92666  17.376   0.839   2.280
27847W        W92667  13.266  32.512   3.576
27848W        W92668  40.514   7.920   9.878
27849W        W92669  39.423  41.007  14.378
27850W        W92670  23.901  43.019   4.180
27851W        W92671  44.077  32.873  12.458
27852W        W92672  40.991  22.747  13.344
27853W        W92673  34.037   8.805   1.964
27854W        W92674  13.884  38.817   3.219
27855W        W92675  29.448  13.535  11.244
27856W        W92676  36.751  34.391   1.978
27857W        W92677  27.016  43.150  13.856
27858W        W92678  43.388  29.069   4.132
27859W        W92679  22.218  28.946   3.833
27860W        W92680  37.625  29.995  14.118
27861W        W92681  41.533  41.188   4.357
27862W        W92682  11.586  18.957  12.597
27863W        W92683   8.206   3.157  12.258
27864W        W92684  28.285  36.018  13.543
27865W        W92685  36.863   6.453  14.428
27866W        W92686   4.331  32.084   3.765
27867W        W92687  34.581  30.283  12.146
27868W        W92688  17.838  44.833  12.372
27869W        W92689   5.313  39.619  13.753
27870W        W92690  36.476   1.735   3.796
27871W        W92691  25.015   8.422  12.477
27872W        W92692  16.330  27.499   2.443
27873W        W92693  35.649  13.056   1.323
27874W        W92694   0.983  42.556   1.793
27875W        W92695  29.045  17.742  12.154
27876W        W92696   3.992  13.311   0.817
27877W        W92697  37.410  19.063   2.765
27878W        W92698  39.142  20.012   2.306
27879W        W92699  29.916  12.800   0.435
27880W        W92700  14.086  42.412  12.120
27881W        W92701  25.142  24.546  10.773
27882W        W92702  37.346  10.381   1.700
27883W        W92703   4.880  37.855   2.710
27884W        W92704  10.172  28.035  13.605
27885W        W92705   7.658  37.580   2.237
27886W        W92706  38.934   3.225  12.392
27887W        W92707  15.172  41.439   4.710
27888W        W92708  33.493  29.676   4.648
27889W        W92709  42.038  42.384   1.942
27890W        W92710  32.390  23.868   1.647
27891W        W92711  36.002   9.818   1.363
27892W        W92712  41.980  33.894  13.407
27893W        W92713  32.184   9.197  11.736
27894W        W92714  13.898   5.363   3.629
27895W        W92715  26.879   7.455  11.174
27896W        W92716  10.178  22.339   5.060
27897W        W92717  15.883   6.618  13.533
27898W        W92718  43.487   3.969   2.369
27899W        W92719  19.556   4.470   3.238
27900W        W92720  30.902   1.563   4.319
27901W        W92721  18.602  10.489  11.564
27902W        W92722  10.832  21.555  13.964
27903W        W92723  41.398  27.967   2.769
27904W        W92724  39.908  43.211   3.730
27905W        W92725  16.382  33.334  10.124
27906W        W92726  38.964  36.615   1.414
27907W        W92727   9.010  30.246   3.293
27908W        W92728  18.500  14.329  11.181
27909W        W92729  22.300  21.713   2.703
27910W        W92730  22.013  34.922   2.048
27911W        W92731  35.923   3.982  12.396
27912W        W92732  31.979   3.315  13.220
27913W        W92733  36.549  38.767  10.730
27914W        W92734  36.067   7.622  12.130
27915W        W92735   0.655  29.220  11.750
27916W        W92736  20.237  35.405   1.269
27917W        W92737  12.741  29.888   1.462
27918W        W92738  31.058  22.254   0.331
27919W        W92739  17.746  35.829   5.025
27920W        W92740  16.875  33.472  12.980
27921W        W92741  37.215   6.706   2.525
27922W        W92742  13.762   7.883   4.638
27923W        W92743  33.496  19.618   1.842
27924W        W92744  37.292  35.587   1.881
27925W        W92745   3.332  44.269  13.064
27926W        W92746  10.194  39.637   3.516
27927W        W92747   1.536  41.178   4.218
27928W        W92748  17.803   3.680  12.521
27929W        W92749  29.083  41.241   4.375
27930W        W92750  28.985  22.363   3.135
27931W        W92751  37.261  34.891  11.540
27932W        W92752  11.756  22.630   1.103
27933W        W92753  11.650  39.922  12.688
27934W        W92754  16.951  15.054   2.641
27935W        W92755  21.990  25.953   1.668
27936W        W92756   0.802  32.818  13.110
27937W        W92757  10.455  36.306   1.633
27938W        W92758  24.622  26.497   4.617
27939W        W92759  21.676  21.138   1.151
27940W        W92760  20.221   8.463   2.695
27941W        W92761  37.450  15.323   3.211
27942W        W92762  31.657  17.880  13.003
27943W        W92763  32.419  17.232  11.939
27944W        W92764  33.071  36.531   0.507
27945W        W92765  38.383   4.103  12.423
27946W        W92766  26.206  29.631  10.727
27947W        W92767   2.836   8.561   1.198
27948W        W92768  37.413  26.554   1.152
27949W        W92769  14.423  19.964   1.693
27950W        W92770   9.624   9.410   3.890
27951W        W92771   2.914   2.024   1.988
27952W        W92772  11.285  44.525   2.437
27953W        W92773  41.084   5.845   3.646
27954W        W92774   9.808  20.488  11.634
27955W        W92775  44.786  43.933  14.035
27956W        W92776   8.669   4.766   4.717
27957W        W92777  33.341  37.946   2.738
27958W        W92778   2.259  30.029   3.001
27959W        W92779  41.641  33.605  10.557
27960W        W92780  20.720  20.579   3.427
27961W        W92781  43.843  43.890   1.371
27962W        W92782   1.311  29.437   2.797
27963W        W92783  44.888  22.795  11.439
27964W        W92784   5.154   0.337  12.574
27965W        W92785  10.546  22.662  10.957
27966W        W92786  17.934   4.375   0.553
27967W        W92787  41.348  44.901   3.691
27968W        W92788  15.624  26.684   0.722
27969W        W92789  23.046  23.659   3.205
27970W        W92790  15.088  33.393  11.633
27971W        W92791  41.327  15.320  12.878
27972W        W92792  39.824   4.244  11.197
27973W        W92793   9.811  29.238   5.463
27974W        W92794   3.375  15.282   2.309
27975W        W92795  41.474  19.936  14.918
27976W        W92796  41.958  44.792   0.419
27977W        W92797  29.117   0.527  11.092
27978W        W92798   8.250   4.839  10.616
27979W        W92799   5.759   7.275   2.829
27980W        W92800  25.583  23.702   2.388
27981W        W92801  10.694  27.995   4.847
27982W        W92802  27.021  10.758  12.663
27983W        W92803  24.970   9.766   1.336
27984W        W92804  27.010  41.829   2.944
27985W        W92805  35.397  14.394  11.174
27986W        W92806  42.712  33.376  13.339
27987W        W92807  32.750  11.125  13.540
27988W        W92808  29.735  16.023   1.121
27989W        W92809  21.592  25.663   1.880
27990W        W92810   8.883  36.890  11.226
27991W        W92811  35.889  11.158  12.331
27992W        W92812  20.668   9.883   3.695
27993W        W92813  12.894  34.885   1.691
27994W        W92814  19.766   5.065   1.732
27995W        W92815   7.661   9.147   4.613
27996W        W92816  29.131   6.868   2.600
27997W        W92817   6.004  44.713  11.640
27998W        W92818  17.998   5.280  11.722
27999W        W92819   5.732  27.955  14.363
28000W        W92820   4.587  23.952   4.506
28001W        W92821   5.315  19.824   1.679
28002W        W92822  10.795  12.327  14.020
28003W        W92823   7.946  23.124   4.042
28004W        W92824  15.763  34.992   0.419
28005W        W92825   5.322  13.624  14.549
28006W        W92826  23.166   3.773   1.486
28007W        W92827  30.095  15.333  10.745
28008W        W92828  38.055   4.029   4.227
28009W        W92829  21.209   5.804   2.834
28010W        W92830   4.725   0.014   2.687
28011W        W92831  29.283  36.276   4.774
28012W        W92832   7.970  34.498   0.279
28013W        W92833  14.897  38.818  11.167
28014W        W92834  32.873  31.028   2.295
28015W        W92835   4.838  26.606   4.571
28016W        W92836  11.728  24.210  14.362
28017W        W92837  22.509   8.160  11.734
28018W        W92838  15.096   3.865  10.935
28019W        W92839  36.643  17.481  10.753
28020W        W92840  26.135  23.946  14.322
28021W        W92841   9.731  16.674  11.678
28022W        W92842   1.918   1.887  14.511
28023W        W92843   0.870   3.362   3.759
28024W        W92844  33.411  32.432  13.923
28025W        W92845  41.864  32.107   3.256
28026W        W92846  36.150  22.062   1.851
28027W        W92847  16.359   0.495  13.823
28028W        W92848   2.247  21.791  13.412
28029W        W92849  28.559   0.564   1.700
28030W        W92850  38.903  14.203  10.693
28031W        W92851  40.877  23.232   0.006
28032W        W92852   7.871  32.503   2.378
28033W        W92853  11.197  32.889   4.593
28034W        W92854  13.775  13.591   3.084
28035W        W92855   4.303  36.441  11.665
28036W        W92856  40.517  41.800  11.242
28037W        W92857  33.753  40.820   4.155
28038W        W92858   8.120   1.687  14.592
28039W        W92859  36.876  21.008  11.560
28040W        W92860  32.253  29.912   5.088
28041W        W92861  37.082  31.650   1.346
28042W        W92862   7.962  39.562   4.088
28043W        W92863   1.411  22.540   4.567
28044W        W92864  23.075  15.890  10.209
28045W        W92865  34.410  12.647  14.286
28046W        W92866  10.931  40.638  14.829
28047W        W92867  35.103  15.337   0.250
28048W        W92868   9.007   8.282   2.466
28049W        W92869  36.856   4.381   1.824
28050W        W92870  36.823  37.759   0.704
28051W        W92871  16.731  37.983  14.071
28052W        W92872  29.396  38.605  14.806
28053W        W92873  18.414   1.821   0.939
28054W        W92874  15.273  30.528   3.753
28055W        W92875   1.755  42.303  10.797
28056W        W92876  18.562  15.278   1.422
28057W        W92877  34.850  14.696   3.374
28058W        W92878  39.225  35.334  12.087
28059W        W92879  35.917  34.568   3.061
28060W        W92880  16.787  26.855  11.506
28061W        W92881  12.301  36.806   3.498
28062W        W92882  22.115  43.913  14.978
28063W        W92883  28.233  23.041  14.683
28064W        W92884  22.634   5.773   2.471
28065W        W92885  37.118  23.347   3.131
28066W        W92886  14.708  26.555  12.312
28067W        W92887  12.257  35.934  13.521
28068W        W92888  34.786  28.128  11.573
28069W        W92889  36.623  14.110   1.797
28070W        W92890  27.493   2.063  11.127
28071W        W92891  12.360  31.266  11.287
28072W        W92892  37.856  41.493   1.663
28073W        W92893  10.684   3.739  12.007
28074W        W92894   2.267  42.370   4.857
28075W        W92895  13.563   3.901  12.470
28076W        W92896  44.191  19.557   1.334
28077W        W92897  19.646   1.468   1.219
28078W        W92898  40.349  37.410   4.533
28079W        W92899  40.766   1.420   4.229
28080W        W92900  13.783  26.691  12.008
28081W        W92901   0.273   7.542   1.756
28082W        W92902  31.035  32.105   2.383
28083W        W92903  23.987   8.793  14.259
28084W        W92904  16.246  30.053   4.918
28085W        W92905  32.076   1.785   4.934
28086W        W92906  19.324  15.238   2.495
28087W        W92907  38.045   9.890   0.366
28088W        W92908   7.917  33.984  14.345
28089W        W92909  16.567  42.362  10.523
28090W        W92910   6.331   0.743   2.703
28091W        W92911  10.874  18.967  12.175
28092W        W92912  44.989   6.197   3.813
28093W        W92913  13.058  38.285   0.315
28094W        W92914  40.530   2.358   3.375
28095W        W92915  18.624  12.698  10.162
28096W        W92916  37.464   0.010   4.905
28097W        W92917  31.792   8.418  14.553
28098W        W92918  35.379  42.491  14.476
28099W        W92919   3.220   2.698   3.210
28100W        W92920  34.693  43.774  11.107
28101W        W92921   2.851  20.022   4.655
28102W        W92922  17.661  12.907   0.940
28103W        W92923  32.809  11.906  14.770
28104W        W92924  28.496   3.889   1.199
28105W        W92925  38.311   5.239   4.702
28106W        W92926  21.760  34.587   1.647
28107W        W92927  23.769   6.691  10.632
28108W        W92928  37.012  28.174  14.990
28109W        W92929  35.383  28.099   4.668
28110W        W92930  18.805  20.514   1.792
28111W        W92931  32.097  13.480  11.199
28112W        W92932  27.396  44.019  11.426
28113W        W92933  26.054  37.486  13.386
28114W        W92934  21.101  24.776   0.820
28115W        W92935  14.385  39.898  13.997
28116W        W92936  12.815  12.352  11.973
28117W        W92937  40.463   2.976  12.455
28118W        W92938  35.445  33.402  13.650
28119W        W92939  12.126  24.061   1.733
28120W        W92940  11.473  38.807   2.754
28121W        W92941  41.038   2.503  12.894
28122W        W92942  22.004   2.258  11.862
28123W        W92943  17.140  15.820   2.071
28124W        W92944  10.507  20.792   3.235
28125W        W92945  43.514  17.223   3.157
28126W        W92946  20.051  21.086   3.672
28127W        W92947  23.336  13.385   4.561
28128W        W92948   3.673  12.373   0.784
28129W        W92949  15.992  18.270   2.333
28130W        W92950  16.374   6.058  14.007
28131W        W92951  19.698  23.226  12.641
28132W        W92952  32.789  14.136  10.204
28133W        W92953   1.337  34.399  10.643
28134W        W92954  39.463   8.577  12.656
28135W        W92955   6.277   3.280  14.004
28136W        W92956  22.666   0.952  13.984
28137W        W92957  26.436  18.102   3.310
28138W        W92958  42.981  37.210   4.821
28139W        W92959  31.478   2.204   0.496
28140W        W92960  40.237   6.961  12.033
28141W        W92961   7.320   4.173  12.849
28142W        W92962  40.822   8.717   3.958
28143W        W92963  17.124  24.380  12.004
28144W        W92964  39.897  12.664  13.759
28145W        W92965   4.391  20.827   0.844
28146W        W92966  26.119  43.748  10.582
28147W        W92967   8.787   1.474  10.767
28148W        W92968  24.987  35.709   1.707
28149W        W92969  36.941  20.989   4.671
28150W        W92970   3.630  33.555  10.944
28151W        W92971  37.751  23.210   3.836
28152W        W92972   1.962  14.588  14.846
28153W        W92973  16.990  33.325  12.491
28154W        W92974  35.544  14.583   1.081
28155W        W92975  38.418  15.201   4.294
28156W        W92976  35.301  11.220   3.137
28157W        W92977  39.138  21.918   3.187
28158W        W92978  44.638   8.825   4.907
28159W        W92979  23.211  19.751  11.747
28160W        W92980   6.957  42.493  12.124
28161W        W92981  43.007   9.873  11.167
28162W        W92982  13.559  14.021   2.869
28163W        W92983  42.851   2.441  12.846
28164W        W92984  32.994  24.108   1.897
28165W        W92985  18.675   8.708   1.926
28166W        W92986  35.329  18.257  14.379
28167W        W92987  25.182  24.549  11.710
28168W        W92988  36.445  44.780  10.661
28169W        W92989  34.507  11.447   2.611
28170W        W92990  34.810  26.572   2.616
28171W        W92991  19.694  36.672   2.293
28172W        W92992  23.127   4.990  10.681
28173W        W92993  25.069  29.070  13.399
28174W        W92994  24.120  30.855  13.001
28175W        W92995  36.038  18.891  12.852
28176W        W92996   5.607  26.195  10.352
28177W        W92997   4.096  19.463   3.662
28178W        W92998  16.786  40.252  12.010
28179W        W92999  24.926  14.826  14.416
28180W        W93000  14.070  43.737  12.939
28181W        W93001  26.807   7.925   2.188
28182W        W93002  24.162  42.030   1.391
28183W        W93003  14.791  31.014  12.003
28184W        W93004  34.776  38.892  12.981
28185W        W93005  25.413  44.357  11.002
28186W        W93006   4.128  24.010  10.344
28187W        W93007  27.635  30.542   0.051
28188W        W93008  23.484   1.056   4.143
28189W        W93009  31.934  32.849  13.598
28190W        W93010  33.910   2.875   3.281
28191W        W93011  20.159   0.778  10.687
28192W        W93012  41.810   5.588  10.655
28193W        W93013   9.257  21.719  13.457
28194W        W93014  31.256  16.551  12.513
28195W        W93015  44.850  44.104   0.038
28196W        W93016   9.352  30.590  11.990
28197W        W93017  16.246   7.414  10.726
28198W        W93018  38.119  31.193  11.968
28199W        W93019  40.487  19.288   3.338
28200W        W93020  20.009  16.672   0.608
28201W        W93021  42.447  41.005  13.723
28202W        W93022   5.937  31.041  11.133
28203W        W93023  44.166   2.891   2.808
28204W        W93024  32.246  25.488  12.988
28205W        W93025   4.562   0.879   3.166
28206W        W93026  31.805  12.376  11.562
28207W        W93027  28.588  39.567   1.505
28208W        W93028  36.459  15.735  14.554
28209W        W93029  21.493   1.255  12.856
28210W        W93030   5.873  35.361   0.502
28211W        W93031  42.147  37.518  13.891
28212W        W93032  33.483  25.997   3.142
28213W        W93033  15.787  31.469   2.287
28214W        W93034  14.581  21.012  11.982
28215W        W93035  28.811  20.600   3.837
28216W        W93036  39.561  13.710  13.909
28217W        W93037  38.285  33.373  12.098
28218W        W93038  43.067  30.380   2.834
28219W        W93039  24.629  34.565   0.494
28220W        W93040  22.693  28.600  11.897
28221W        W93041   9.878  11.176  12.491
28222W        W93042  17.313  18.395  11.147
28223W        W93043  23.521  15.619   0.819
28224W        W93044  44.152  21.067   3.183
28225W        W93045  10.118  16.674  13.654
28226W        W93046  40.027  37.151  14.852
28227W        W93047  24.952  17.512  13.869
28228W        W93048  28.070   9.881   3.346
28229W        W93049  16.511  41.565   1.969
28230W        W93050   9.153   6.235   0.368
28231W        W93051  25.694  42.498  13.850
28232W        W93052  27.876   1.303   0.701
28233W        W93053  23.588   1.947  11.252
28234W        W93054  44.322  38.213  10.549
28235W        W93055  31.237  31.362   5.006
28236W        W93056   6.148  44.323   3.723
28237W        W93057  29.669  26.182  13.045
28238W        W93058  30.364   4.093  11.641
28239W        W93059  25.355  21.986   5.005
28240W        W93060  24.402   7.184   2.366
28241W        W93061  18.744   3.957  12.374
28242W        W93062  29.631  14.175   0.047
28243W        W93063   3.435  13.047   4.262
28244W        W93064   9.112  34.788   2.365
28245W        W93065  37.389  14.205   1.336
28246W        W93066  12.533  12.359   1.429
28247W        W93067  33.358  35.424   4.157
28248W        W93068  40.485  19.608  11.628
28249W        W93069  42.029  38.932  11.608
28250W        W93070  28.043  36.269  13.971
28251W        W93071  31.627  17.588   2.283
28252W        W93072  41.515  39.456  14.257
28253W        W93073  20.622  16.572   4.441
28254W        W93074   7.416  11.366  11.538
28255W        W93075  43.162   4.751  10.724
28256W        W93076  14.605  17.382  13.340
28257W        W93077  29.697  24.473  14.623
28258W        W93078  15.298  11.885  12.914
28259W        W93079  23.717  43.827   0.883
28260W        W93080  37.857  17.179  13.641
28261W        W93081  37.930  30.129   0.659
28262W        W93082  31.919  32.067   2.170
28263W        W93083   7.407  20.037  14.105
28264W        W93084  41.533   7.144   2.219
28265W        W93085   3.846  11.376  13.022
28266W        W93086  25.096   8.703  13.462
28267W        W93087  36.585  34.165   2.408
28268W        W93088  16.076   0.667   3.360
28269W        W93089   8.199  21.307   4.073
28270W        W93090  26.983  17.513   2.689
28271W        W93091  36.881  39.736   3.251
28272W        W93092  29.789  15.476   1.674
28273W        W93093  21.910  24.736   3.234
28274W        W93094  17.352  41.300  14.927
28275W        W93095  17.989   6.147   3.212
28276W        W93096  23.949  40.965   0.372
28277W        W93097   9.114  22.965  10.533
28278W        W93098   9.343  13.818  12.819
28279W        W93099  35.585  33.398   2.761
28280W        W93100  23.323  44.965  11.105
28281W        W93101   1.115  19.346  11.598
28282W        W93102  42.430  17.559   3.633
28283W        W93103  39.782  29.700   3.729
28284W        W93104  12.724  13.254   4.208
28285W        W93105  36.833  26.136  14.830
28286W        W93106  29.122   4.572   1.011
28287W        W93107   0.279  43.576  11.704
28288W        W93108  19.485  13.836  14.558
28289W        W93109   8.456  14.653   2.583
28290W        W93110   6.305  12.680  10.732
28291W        W93111  31.005  14.246   0.085
28292W        W93112   2.227   4.696   1.903
28293W        W93113  13.127   0.241  11.590
28294W        W93114   8.225  34.047  12.889
28295W        W93115  28.686  36.144   3.099
28296W        W93116   1.038  41.601  14.849
28297W        W93117  18.510  28.237  14.421
28298W        W93118  18.681   7.714   4.845
28299W        W93119  33.002  32.858  11.448
28300W        W93120  18.103  15.217   0.445
28301W        W93121  13.638   4.547   4.280
28302W        W93122   8.945  14.911  11.158
28303W        W93123  18.077  38.975  13.340
28304W        W93124  38.479  18.486  12.823
28305W        W93125   1.869  31.866   1.935
28306W        W93126   0.984  13.437  11.568
28307W        W93127   1.116  29.164  12.094
28308W        W93128  38.196  23.152   2.361
28309W        W93129  10.093  26.626   4.147
28310W        W93130  11.487   3.368  11.045
28311W        W93131  24.041   9.928   1.705
28312W        W93132   2.637  41.470  12.918
28313W        W93133   3.855  21.323  14.295
28314W        W93134  41.383  34.886   2.274
28315W        W93135  27.731  20.205  13.071
28316W        W93136   0.752  44.662  14.901
28317W        W93137  17.555  37.920   2.295
28318W        W93138   9.726  19.782  10.683
28319W        W93139  12.194  11.683   2.250
28320W        W93140  11.641  19.946  10.616
28321W        W93141  22.496  41.396   4.997
28322W        W93142  11.610   3.781  13.858
28323W        W93143   5.721  20.725   0.423
28324W        W93144  23.434  28.928  12.825
28325W        W93145  13.462  14.506   1.701
28326W        W93146  32.450  40.807  10.553
28327W        W93147  44.896  35.969   3.989
28328W        W93148  40.422  13.118   3.402
28329W        W93149  43.921  17.844  14.780
28330W        W93150  29.664  43.971   4.740
28331W        W93151  19.752  13.211   0.861
28332W        W93152   4.925   3.739   1.271
28333W        W93153  42.563  16.039  13.939
28334W        W93154  10.903  37.179  14.746
28335W        W93155  19.588  20.054   0.887
28336W        W93156  43.548  32.935  12.549
28337W        W93157  23.514   2.272   0.711
28338W        W93158   1.261  31.397  11.486
28339W        W93159  20.798   2.584   2.614
28340W        W93160   5.435  40.381  11.566
28341W        W93161  31.686  15.101  11.519
28342W        W93162  42.383  28.617   2.900
28343W        W93163   6.296   5.357   0.885
28344W        W93164  29.616   9.803  13.415
28345W        W93165  41.868  30.708   4.061
28346W        W93166  19.301  27.884  10.747
28347W        W93167  24.573  23.683  13.177
28348W        W93168   5.787  39.774  11.945
28349W        W93169  42.559  23.621   2.852
28350W        W93170  35.181  21.232  14.462
28351W        W93171  27.434  43.510  11.446
28352W        W93172  37.117  35.026   3.190
28353W        W93173   8.081   3.733  12.993
28354W        W93174  28.878  21.092   4.067
28355W        W93175  29.496  18.665  12.527
28356W        W93176  22.772  20.703   4.937
28357W        W93177  25.602  44.643  14.247
28358W        W93178  21.968  16.924  12.084
28359W        W93179   5.368  26.497  14.150
28360W        W93180   0.353   2.925   0.255
28361W        W93181   9.376  26.044  11.045
28362W        W93182  29.563  43.195   3.256
28363W        W93183   8.310  33.988   3.662
28364W        W93184   4.404  40.560   0.544
28365W        W93185  17.788  19.996   1.753
28366W        W93186  16.816   8.189  14.078
28367W        W93187  40.041  31.623   1.441
28368W        W93188  35.382  11.914  12.505
28369W        W93189   8.447  27.532   0.522
28370W        W93190  10.127  18.215  13.089
28371W        W93191  33.997  12.472   3.305
28372W        W93192  18.576  24.446  10.758
28373W        W93193   6.313  38.101   4.518
28374W        W93194  20.251   0.771   2.515
28375W        W93195  15.725  38.954   0.972
28376W        W93196  41.430   4.201  12.478
28377W        W93197  25.466  12.185   1.735
28378W        W93198  41.433  34.748  12.547
28379W        W93199  14.086  18.306  11.405
28380W        W93200  26.176  27.914   4.338
28381W        W93201  24.551  22.270   3.671
28382W        W93202  30.613  17.184   3.291
28383W        W93203  34.449  34.652  14.384
28384W        W93204  22.338  30.917   2.300
28385W        W93205  25.392  16.759   1.562
28386W        W93206  16.113  27.011   2.350
28387W        W93207   0.851  23.467   3.122
28388W        W93208   1.773   3.319   4.119
28389W        W93209  33.713   0.345   4.498
28390W        W93210  21.817  39.004   2.927
28391W        W93211   6.393  39.458  13.578
28392W        W93212  34.056  38.475  14.577
28393W        W93213   5.949  17.672   0.228
28394W        W93214  20.503  27.906  14.329
28395W        W93215   1.528  25.043   1.752
28396W        W93216  37.923  12.396  12.661
28397W        W93217  33.608  12.297   3.011
28398W        W93218  43.987  17.140  14.367
28399W        W93219  44.790  42.791   1.999
28400W        W93220  16.525  32.338   2.736
28401W        W93221  22.651  34.403  10.854
28402W        W93222   5.014   6.218  12.786
28403W        W93223  43.792  34.914   2.918
28404W        W93224  18.929  37.942  13.136
28405W        W93225  34.932  21.810   3.602
28406W        W93226   5.781  24.770   1.190
28407W        W93227  15.823  12.789  13.887
28408W        W93228  17.787  39.249  12.969
28409W        W93229  29.084   4.138   3.935
28410W        W93230  11.304  31.509   0.398
28411W        W93231  26.389   0.241  10.260
28412W        W93232  19.805  19.383   1.066
28413W        W93233  23.751  44.262  14.514
28414W        W93234   3.754  33.698  12.853
28415W        W93235  20.350   9.262  13.874
28416W        W93236   5.791  19.504  11.119
28417W        W93237   3.311  17.714   2.816
28418W        W93238  39.598   5.698  10.755
28419W        W93239  33.444  23.307  10.619
28420W        W93240  18.943  26.076  13.497
28421W        W93241  26.878   4.910  13.281
28422W        W93242  35.046  35.793   0.806
28423W        W93243  18.154   2.315  11.523
28424W        W93244   4.957  29.180  13.983
28425W        W93245  36.852  24.703  13.915
28426W        W93246  43.993  17.859  13.812
28427W        W93247  18.755   0.305   4.563
28428W        W93248  44.167  38.835   1.296
28429W        W93249  25.921  24.906  14.416
28430W        W93250  24.283  11.918   4.132
28431W        W93251  14.879   2.164   0.259
28432W        W93252   1.294  31.105   4.546
28433W        W93253   4.893  32.074   5.024
28434W        W93254  31.482  35.880  11.210
28435W        W93255  38.420   6.851   1.202
28436W        W93256   1.302  14.215   2.820
28437W        W93257  42.557   9.059   3.358
28438W        W93258  37.840   1.469  11.183
28439W        W93259   1.819  27.591  13.060
28440W        W93260  18.230  26.704  11.961
28441W        W93261   8.157  21.240  14.985
28442W        W93262  39.479   8.905   1.697
28443W        W93263  19.125  18.654   3.439
28444W        W93264   9.265  18.210  14.456
28445W        W93265  33.994  11.306   1.949
28446W        W93266   2.490  29.206  13.520
28447W        W93267  29.414  42.430  12.099
28448W        W93268  12.292  17.334   5.550
28449W        W93269  22.000  10.766   0.168
28450W        W93270  20.744  40.548   4.066
28451W        W93271  44.303  45.000   1.745
28452W        W93272  11.475  36.539  13.449
28453W        W93273   7.333  41.242   3.614
28454W        W93274  10.365  27.919  13.095
28455W        W93275  36.870   4.913   1.721
28456W        W93276  36.866   8.318   2.802
28457W        W93277  14.264  32.035  12.142
28458W        W93278  30.769  16.881  13.415
28459W        W93279  13.625  10.776  10.710
28460W        W93280  10.430  27.144  11.623
28461W        W93281  27.428  29.667  13.505
28462W        W93282  15.258  28.382  12.903
28463W        W93283  36.341   9.751  14.125
28464W        W93284  26.687  44.964  14.731
28465W        W93285   1.865  13.084   2.481
28466W        W93286   5.677  38.989  14.365
28467W        W93287  35.404  30.642   2.594
28468W        W93288  25.731  34.683   3.100
28469W        W93289  18.236  33.765   3.276
28470W        W93290  15.346  38.915  12.097
28471W        W93291  42.971  30.665   2.434
28472W        W93292  41.035  16.438  11.710
28473W        W93293  39.114  27.109  11.991
28474W        W93294  34.049   7.028  11.522
28475W        W93295  28.155  39.892   3.111
28476W        W93296  43.410  16.137  11.119
28477W        W93297  34.335  13.406   1.747
28478W        W93298  24.213  33.348  11.092
28479W        W93299   9.955  27.136   0.969
28480W        W93300  14.795  31.398  12.333
28481W        W93301   6.276  21.080  11.499
28482W        W93302  25.941  34.783  14.064
28483W        W93303  13.224   2.926   0.792
28484W        W93304  22.568   7.384   2.449
28485W        W93305  19.687  21.209  14.805
28486W        W93306  18.722  27.721  14.378
28487W        W93307  21.802  19.591   3.228
28488W        W93308   6.291  32.919   4.952
28489W        W93309   5.585  25.657  13.351
28490W        W93310  26.754   4.102   1.905
28491W        W93311  29.789  17.110  11.782
28492W        W93312   6.973  30.879  11.144
28493W        W93313  31.467  14.599   1.223
28494W        W93314  28.069  17.895   4.195
28495W        W93315  13.171  22.682  14.992
28496W        W93316   1.473  12.748   3.346
28497W        W93317  26.672   3.991   3.709
28498W        W93318  23.330  32.500   2.213
28499W        W93319  10.673  10.745   4.592
28500W        W93320   2.759  42.198  12.471
28501W        W93321  35.793   2.192   3.322
28502W        W93322  28.239  39.276  12.114
28503W        W93323  29.437  10.922   4.645
28504W        W93324  31.908  35.909   3.265
28505W        W93325  14.451  43.375  13.855
28506W        W93326  43.561  23.974  10.720
28507W        W93327  34.541  19.081  10.755
28508W        W93328  36.037  38.217  12.837
28509W        W93329   1.968  15.091  13.046
28510W        W93330   9.077  29.506   2.875
28511W        W93331  30.003   5.463  14.831
28512W        W93332   9.136   0.241   3.757
28513W        W93333  34.634  43.272  11.947
28514W        W93334  13.129  10.839   1.927
28515W        W93335   0.866  27.460  13.547
28516W        W93336  17.689  12.689  11.581
28517W        W93337  35.817  27.367   0.448
28518W        W93338  16.518  20.308  14.498
28519W        W93339  22.575  34.022   2.465
28520W        W93340  42.205  29.394  14.352
28521W        W93341   8.639  35.351  14.019
28522W        W93342  15.493   9.485  14.923
28523W        W93343  14.938  33.215  11.102
28524W        W93344  31.127  29.472  11.129
28525W        W93345  22.966   3.705  12.056
28526W        W93346  32.381   7.299  11.627
28527W        W93347  40.285  24.640  14.351
28528W        W93348  34.332   4.023  11.657
28529W        W93349   7.280  43.483  11.579
28530W        W93350  18.290  32.016  14.125
28531W        W93351  20.580  24.617   3.884
28532W        W93352  12.997  34.099  14.035
28533W        W93353  27.202  23.188  12.128
28534W        W93354  10.000  29.912  14.868
28535W        W93355  18.144  13.683  14.820
28536W        W93356  29.564  22.151  10.235
28537W        W93357  40.453   0.486   4.124
28538W        W93358  24.646   2.894  12.709
28539W        W93359  34.937   0.103  13.038
28540W        W93360  23.523  21.193  12.214
28541W        W93361  30.886  38.522  12.498
28542W        W93362  13.213  35.035   1.315
28543W        W93363  44.744  35.162  11.219
28544W        W93364  15.373  40.241  12.048
28545W        W93365   7.270  22.320  13.599
28546W        W93366  43.058  29.679   2.298
28547W        W93367   0.817  36.383  12.939
28548W        W93368  29.759  14.121   0.541
28549W        W93369  17.042   2.983   3.668
28550W        W93370  35.521  21.567   1.408
28551W        W93371  44.619  32.458   4.491
28552W        W93372   7.772  42.807   2.877
28553W        W93373  31.999  15.820   1.293
28554W        W93374  19.179  22.195   2.200
28555W        W93375  11.363  10.174  11.078
28556W        W93376  30.551  26.730  13.929
28557W        W93377   7.865  36.790  11.143
28558W        W93378   5.759   3.627   5.116
28559W        W93379  16.158  29.198   2.708
28560W        W93380  11.838   5.275   4.908
28561W        W93381  34.707   1.431  12.582
28562W        W93382  34.764   5.604  11.109
28563W        W93383  36.221   9.308   0.775
28564W        W93384   9.091  24.316  11.039
28565W        W93385  31.600  11.606  11.225
28566W        W93386  17.767  21.212   0.150
28567W        W93387  16.276  28.084  13.139
28568W        W93388  43.796  31.435  10.744
28569W        W93389  33.472  15.324  10.600
28570W        W93390   5.676  41.056  13.724
28571W        W93391  12.129  43.873  11.585
28572W        W93392  37.107   5.184  13.983
28573W        W93393  22.772  41.133   2.846
28574W        W93394  21.702  28.255  11.585
28575W        W93395  23.286  39.980  11.147
28576W        W93396  22.040  30.083   4.111
28577W        W93397  11.564   3.204  14.437
28578W        W93398  39.921   5.415   1.205
28579W        W93399  15.202  19.459   1.422
28580W        W93400  33.993   8.762   2.489
28581W        W93401  35.502  24.125   1.428
28582W        W93402  19.898  44.873   2.419
28583W        W93403  42.412   0.174   2.806
28584W        W93404  33.487  35.465   2.799
28585W        W93405  17.808  13.159  12.667
28586W        W93406  14.511   3.121   0.091
28587W        W93407  15.554  16.792  10.776
28588W        W93408  28.413   8.296  11.236
28589W        W93409  36.390  43.237   0.735
28590W        W93410   2.169  32.898  11.840
28591W        W93411  19.865  16.224  12.129
28592W        W93412  42.361  15.875   4.182
28593W        W93413  34.571   1.249  11.727
28594W        W93414  22.083  39.192  12.244
28595W        W93415  23.612  39.357   4.059
28596W        W93416  25.049  26.584  13.805
28597W        W93417  41.487  32.395   2.508
28598W        W93418  30.880   0.063   0.468
28599W        W93419  44.344  35.471   1.000
28600W        W93420   9.353   4.504  11.423
28601W        W93421  19.004   9.169  12.272
28602W        W93422  41.858  24.451  11.867
28603W        W93423  10.934  23.384   0.961
28604W        W93424  36.497  11.376  13.900
28605W        W93425  36.153  12.364   0.743
28606W        W93426  15.648  22.642  14.029
28607W        W93427  10.911  25.723   4.378
28608W        W93428  34.445   5.027  13.522
28609W        W93429   3.931  36.809   4.580
28610W        W93430  40.058  28.575  11.611
28611W        W93431  35.519   7.094   4.464
28612W        W93432  39.406  43.771  12.190
28613W        W93433  23.138  42.239   1.341
28614W        W93434  39.249  41.286   3.133
28615W        W93435  14.752   9.167  13.602
28616W        W93436  38.387  26.717  12.481
28617W        W93437  12.330   6.757  11.087
28618W        W93438   9.104  35.054   0.236
28619W        W93439  36.878  23.120  13.931
28620W        W93440  42.682  10.309  10.269
28621W        W93441  33.916  28.390  13.774
28622W        W93442  36.539  15.337   0.467
28623W        W93443  44.309  31.397  11.140
28624W        W93444  14.266  15.355   1.787
28625W        W93445   9.622  27.421  11.729
28626W        W93446   8.811   8.424  11.229
28627W        W93447   1.210  35.526  12.028
28628W        W93448  44.145  25.052   4.487
28629W        W93449  39.075  38.056  14.958
28630W        W93450  35.499  26.098   1.002
28631W        W93451  18.796  37.763   1.197
28632W        W93452  29.047   0.349   1.652
28633W        W93453  34.620  32.445   3.109
28634W        W93454  17.523  23.594  12.984
28635W        W93455  43.287  43.299   1.379
28636W        W93456  13.262   3.173  13.963
28637W        W93457  22.459   5.397  13.125
28638W        W93458   0.165  14.898  11.394
28639W        W93459   3.386  30.709  14.391
28640W        W93460  26.806  25.117  11.598
28641W        W93461   5.360  36.447  13.973
28642W        W93462  23.226  17.813  14.863
28643W        W93463  44.795  41.074  12.508
28644W        W93464  37.652   5.925   3.690
28645W        W93465   5.705  24.807  13.468
28646W        W93466   9.069  22.045  10.217
28647W        W93467  32.503  43.708  13.864
28648W        W93468  34.754   1.656  10.944
28649W        W93469  32.577   8.489  14.840
28650W        W93470  11.649  34.356   1.012
28651W        W93471  10.834  26.261   2.211
28652W        W93472  28.012  19.724   0.860
28653W        W93473  16.652  38.923  12.918
28654W        W93474  34.572   9.800   1.252
28655W        W93475  17.977   9.935   0.331
28656W        W93476  43.237  42.180  13.254
28657W        W93477  27.756   7.690   2.224
28658W        W93478  16.350   6.804  13.373
28659W        W93479  36.321   3.397  12.844
28660W        W93480  44.360  12.440   2.720
28661W        W93481  39.851   3.337   3.356
28662W        W93482  33.432  29.959  10.796
28663W        W93483  25.551  18.988  13.388
28664W        W93484   2.220  30.085  14.383
28665W        W93485  30.497   1.014  11.995
28666W        W93486   8.192   1.484  12.427
28667W        W93487  26.542  34.142  10.235
28668W        W93488   8.121  15.890   4.158
28669W        W93489  40.991  12.237  14.558
28670W        W93490  24.516  32.714   0.911
28671W        W93491   6.942  29.408  11.129
28672W        W93492  24.153  15.562   4.788
28673W        W93493  30.705  39.573   4.330
28674W        W93494  14.795  22.536  11.225
28675W        W93495   7.904  32.218   0.939
28676W        W93496   0.731  19.039   2.910
28677W        W93497  28.112   1.506   3.859
28678W        W93498   6.204  12.961   4.313
28679W        W93499  38.216  37.755  12.509
28680W        W93500  28.630  31.036  14.054
28681W        W93501  34.448  20.792   1.190
28682W        W93502   5.321  17.052   1.363
28683W        W93503  11.945  10.294   1.365
28684W        W93504  18.195   0.265  14.957
28685W        W93505  15.253  40.255  13.907
28686W        W93506  15.368  10.661  11.265
28687W        W93507   9.427  40.461   1.460
28688W        W93508  26.717  34.775  12.490
28689W        W93509   0.292  36.396  12.035
28690W        W93510  40.815  42.949  10.852
28691W        W93511  27.954  32.450   2.278
28692W        W93512   5.328  22.634  14.673
28693W        W93513  22.014   6.598   4.556
28694W        W93514  34.100  15.824  13.649
28695W        W93515  19.813  18.985   1.405
28696W        W93516   6.999  24.618  13.892
28697W        W93517  30.441  27.055  11.509
28698W        W93518  43.797  12.322   1.478
28699W        W93519  41.835  33.062  11.163
28700W        W93520  17.186   1.973  14.420
28701W        W93521  10.123  14.657  13.555
28702W        W93522  23.135  19.265   9.514
28703W        W93523  18.866  21.237  12.012
28704W        W93524  39.949  29.378  12.897
28705W        W93525  38.654  30.434   1.670
28706W        W93526  22.790   5.270  14.482
28707W        W93527  26.751  43.522   3.289
28708W        W93528  12.158   2.661   3.204
28709W        W93529  23.690  19.075   5.235
28710W        W93530  16.200  14.609  10.892
28711W        W93531   1.747  35.060  14.040
28712W        W93532  22.064  28.469  14.652
28713W        W93533  13.004  10.670   0.808
28714W        W93534  30.216  39.308   2.817
28715W        W93535  13.659  39.570  12.048
28716W        W93536  27.668  31.953  10.187
28717W        W93537   7.738  22.677   2.784
28718W        W93538  35.457  35.562   2.238
28719W        W93539  38.835  38.764  13.937
28720W        W93540  41.222  33.949  14.665
28721W        W93541  40.372  26.077   4.157
28722W        W93542   8.312  31.340   3.840
28723W        W93543   5.402  10.530  13.848
28724W        W93544  11.866  31.809  12.937
28725W        W93545  32.512  27.104   4.091
28726W        W93546   7.345   1.507  12.985
28727W        W93547  44.944  34.433  10.692
28728W        W93548  18.283  14.470   3.933
28729W        W93549  21.608  16.570   3.741
28730W        W93550  13.063  10.273   3.297
28731W        W93551   4.837  18.101  13.466
28732W        W93552  23.523   1.753  12.018
28733W        W93553   8.620  18.182   0.550
28734W        W93554   4.478  39.078  11.096
28735W        W93555   4.867  38.721   0.762
28736W        W93556  13.742  29.507  14.902
28737W        W93557  29.036  13.308  10.731
28738W        W93558  34.449  21.593  13.614
28739W        W93559  35.039  37.442  13.146
28740W        W93560  24.901  44.188  10.951
28741W        W93561  33.702  11.690  13.723
28742W        W93562  35.086  12.176  12.031
28743W        W93563   7.172   7.657  14.951
28744W        W93564  21.090   5.273  11.389
28745W        W93565  41.925  38.584  14.068
28746W        W93566   0.032  32.430  14.920
28747W        W93567   8.307  14.846  14.503
28748W        W93568  19.542  13.372   5.158
28749W        W93569  28.063  32.921  12.955
28750W        W93570  24.176  13.631   3.145
28751W        W93571  28.035  39.471  11.097
28752W        W93572   9.089  26.574  14.528
28753W        W93573  20.749   0.344   0.780
28754W        W93574  20.962  41.829  12.996
28755W        W93575  10.352  11.163   2.876
28756W        W93576  30.010  37.294   0.232
28757W        W93577  35.699   1.486  12.863
28758W        W93578  10.748  18.236  13.364
28759W        W93579  29.586  14.857  13.057
28760W        W93580  38.946  16.523   0.433
28761W        W93581  16.628  11.214  11.442
28762W        W93582  27.914  27.080   0.389
28763W        W93583  16.549   7.776  12.008
28764W        W93584   8.110  10.283   4.578
28765W        W93585  30.811  18.763  12.840
28766W        W93586  21.836  32.686   1.299
28767W        W93587  43.762   6.271   2.390
28768W        W93588  36.561  23.776   3.828
28769W        W93589  28.859  18.447   4.186
28770W        W93590   0.975  17.034   2.752
28771W        W93591  13.097   6.877   3.911
28772W        W93592  29.226   1.789   1.752
28773W        W93593  14.365  29.952   1.797
28774W        W93594  35.518  20.539  14.145
28775W        W93595   7.641  23.103  11.606
28776W        W93596  19.801  12.325  11.146
28777W        W93597   5.503  35.046  12.609
28778W        W93598  35.567  12.262  14.871
28779W        W93599  31.287  24.893   4.219
28780W        W93600  39.990  28.443   3.085
28781W        W93601  33.961  22.256   3.787
28782W        W93602  14.713   3.658   1.944
28783W        W93603  20.922  43.531  11.021
28784W        W93604   3.784  19.452   0.429
28785W        W93605  27.054  18.144  12.067
28786W        W93606  18.220  36.643   1.258
28787W        W93607  26.334  21.972  13.207
28788W        W93608  29.132  38.756  11.149
28789W        W93609  19.835  20.081   4.895
28790W        W93610  33.136  29.120  13.004
28791W        W93611  20.699  22.150   0.395
28792W        W93612  12.093  39.988   2.908
28793W        W93613   0.958  41.746   2.238
28794W        W93614  25.710  37.402  14.064
28795W        W93615   1.026  44.961   0.866
28796W        W93616  20.909   6.353   5.568
28797W        W93617  38.905  25.017  13.525
28798W        W93618  30.939  24.076   0.738
28799W        W93619  41.508  14.364  14.481
28800W        W93620   2.558  25.630  13.076
28801W        W93621   6.230  13.442   4.484
28802W        W93622  10.749   3.028  13.897
28803W        W93623  37.981   2.574   1.189
28804W        W93624   0.226  19.221   2.834
28805W        W93625   1.401  23.103  14.305
28806W        W93626  11.046  20.012   3.031
28807W        W93627  22.985  35.016  10.254
28808W        W93628  35.044  34.245  11.276
28809W        W93629  37.860  19.963   1.860
28810W        W93630  35.059   1.312  11.201
28811W        W93631  18.584  44.362   3.093
28812W        W93632  21.249  33.088  14.009
28813W        W93633   0.999  38.933  11.529
28814W        W93634   5.370   0.343  12.119
28815W        W93635  43.464  38.449   3.879
28816W        W93636   0.334   8.054   1.659
28817W        W93637  44.282   6.473   5.068
28818W        W93638  28.115  16.182   4.727
28819W        W93639  33.914  33.327   0.341
28820W        W93640  34.849  33.862  12.581
28821W        W93641  38.766  24.338   0.714
28822W        W93642  40.865  11.765  12.881
28823W        W93643  20.814   6.733  14.435
28824W        W93644  27.395  44.247   3.580
28825W        W93645   5.002  44.221  10.891
28826W        W93646   4.330  18.369  11.184
28827W        W93647  33.708  31.753  12.631
28828W        W93648  38.318  13.443   3.889
28829W        W93649  28.904  19.219  12.022
28830W        W93650   0.367  22.014   2.252
28831W        W93651  43.175  38.560   4.927
28832W        W93652   1.275   3.294   1.946
28833W        W93653  30.601   8.668  14.315
28834W        W93654  17.184  41.730   1.217
28835W        W93655   8.221  32.216  13.397
28836W        W93656   2.776  25.225  12.439
28837W        W93657   3.840   5.191   0.418
28838W        W93658  12.695  43.325   2.030
28839W        W93659  18.909   6.014  14.375
28840W        W93660  27.073  25.088  10.648
28841W        W93661  18.862   6.821   4.589
28842W        W93662  19.739  21.368  13.316
28843W        W93663  33.925  34.332  12.080
28844W        W93664   4.869  27.355  14.415
28845W        W93665  12.377   0.351  11.997
28846W        W93666  26.197  20.932   5.425
28847W        W93667   7.467   3.035   0.403
28848W        W93668  24.154   4.329   2.126
28849W        W93669  12.762  40.175   4.601
28850W        W93670  31.320  20.513  14.882
28851W        W93671   3.765  12.547   3.635
28852W        W93672  21.172  35.261   2.686
28853W        W93673   7.622  38.566   2.579
28854W        W93674  17.835  12.066   2.716
28855W        W93675  17.708  43.928  10.822
28856W        W93676  20.213  39.411  12.865
28857W        W93677  35.800   9.593   0.935
28858W        W93678   2.024   2.367   0.271
28859W        W93679  12.892  35.570   0.403
28860W        W93680  37.618  21.147  11.240
28861W        W93681   0.420  32.795   1.385
28862W        W93682  15.734   6.106  10.635
28863W        W93683   0.500  31.045  13.113
28864W        W93684   4.808  23.898   1.287
28865W        W93685  21.006  35.313  14.478
28866W        W93686  44.300  37.505   2.864
28867W        W93687  27.348  44.265   0.131
28868W        W93688  38.737  36.879  12.142
28869W        W93689  27.999  26.742   4.662
28870W        W93690   0.691   4.329  10.726
28871W        W93691  16.044   8.067   1.103
28872W        W93692  40.311  34.089   0.904
28873W        W93693  23.163  34.640  12.061
28874W        W93694  42.281  19.296   3.389
28875W        W93695   9.960  24.697  11.895
28876W        W93696  44.003   6.697   4.208
28877W        W93697  37.364  26.544  11.609
28878W        W93698  42.486  33.848  14.224
28879W        W93699  17.557  29.690   4.269
28880W        W93700   5.963  38.749   1.752
28881W        W93701  39.905  34.345   0.724
28882W        W93702   0.890  33.416   0.005
28883W        W93703  11.768   1.297  10.726
28884W        W93704  36.273   0.283  12.151
28885W        W93705  24.220  25.055  12.879
28886W        W93706  23.034  25.112  11.508
28887W        W93707  31.201   6.845  13.484
28888W        W93708  37.600  43.424   1.353
28889W        W93709   9.864  30.128   1.808
28890W        W93710   0.001  10.241   4.273
28891W        W93711  41.376  16.488   4.821
28892W        W93712  27.227  25.756   3.196
28893W        W93713  44.820   4.544  10.612
28894W        W93714  30.895  33.516   0.876
28895W        W93715  10.898  16.549  14.118
28896W        W93716  33.336   8.622   2.276
28897W        W93717   6.720  37.793  14.813
28898W        W93718  21.459  26.467  12.434
28899W        W93719  22.592  23.452   3.941
28900W        W93720   6.083  35.469  13.360
28901W        W93721   6.410   2.828   3.119
28902W        W93722   9.176  39.802  14.930
28903W        W93723   7.791  27.411  12.531
28904W        W93724  42.281  26.771   0.827
28905W        W93725  22.117  21.158  12.099
28906W        W93726   4.331  12.434  10.593
28907W        W93727  39.594  29.001  12.850
28908W        W93728  42.050   9.536   5.144
28909W        W93729  17.653  32.115  11.430
28910W        W93730   2.686  10.876  14.349
28911W        W93731   0.267   6.520   4.601
28912W        W93732  17.315   8.222  14.284
28913W        W93733  25.224  43.497   0.337
28914W        W93734  16.103   9.094   1.839
28915W        W93735  26.757  25.801  10.309
28916W        W93736  20.465  15.786   3.282
28917W        W93737  44.742   6.308   0.130
28918W        W93738  18.014  22.357   1.771
28919W        W93739   6.355  28.010   4.638
28920W        W93740  17.715  12.569   4.628
28921W        W93741  21.796  13.819   0.231
28922W        W93742  35.821  32.605  13.061
28923W        W93743  31.730  44.935  10.724
28924W        W93744   8.401  30.112  14.990
28925W        W93745   0.451   0.694  10.702
28926W        W93746  23.671  17.352  13.422
28927W        W93747  24.850   2.656  14.543
28928W        W93748  22.938  23.135  12.399
28929W        W93749  29.525  25.850   1.243
28930W        W93750  31.330  29.976  14.480
28931W        W93751  40.898  43.626   4.857
28932W        W93752  27.609  16.143   4.571
28933W        W93753  38.363   3.416  12.021
28934W        W93754   4.222  30.071  12.586
28935W        W93755  20.572   2.416  11.226
28936W        W93756  16.773  17.864  11.619
28937W        W93757  34.361  43.782   1.693
28938W        W93758  43.536  40.718  11.692
28939W        W93759  25.140  41.018  11.129
28940W        W93760  16.270  19.275  13.385
28941W        W93761  23.294  19.624   9.861
28942W        W93762  37.065   8.516  13.406
28943W        W93763  35.652  39.226  12.889
28944W        W93764  17.955   3.955   2.852
28945W        W93765  18.586  16.780  14.822
28946W        W93766  25.482  34.048   2.729
28947W        W93767  40.897  41.711  13.939
28948W        W93768  21.251  37.275  14.880
28949W        W93769  32.338  15.719   9.870
28950W        W93770  39.019  30.790  13.270
28951W        W93771   7.220  43.961  12.468
28952W        W93772  27.550   9.441  11.083
28953W        W93773   7.168  29.876  13.349
28954W        W93774  36.307   4.794  12.436
28955W        W93775  18.970  33.465  11.454
28956W        W93776  27.132  37.504   3.372
28957W        W93777  42.685   9.336  12.250
28958W        W93778  15.983  34.972  14.953
28959W        W93779  29.651  16.894   0.508
28960W        W93780  43.937  16.533  10.360
28961W        W93781  42.401   0.338  14.172
28962W        W93782  42.281  11.314  13.128
28963W        W93783   1.081  34.362  11.477
28964W        W93784  21.928  20.434  12.557
28965W        W93785   4.291  32.200  13.066
28966W        W93786  20.751  28.708   0.012
28967W        W93787  31.125   2.744  14.796
28968W        W93788  36.867  31.066   4.660
28969W        W93789   7.614  22.673   4.256
28970W        W93790  28.650  26.218  13.156
28971W        W93791  29.418  41.514  12.136
28972W        W93792  17.805  28.139   2.666
28973W        W93793  31.421  19.621   2.410
28974W        W93794  17.692  19.168  13.317
28975W        W93795  12.630   3.673  11.197
28976W        W93796  13.193  36.832  14.266
28977W        W93797  21.563  28.454  13.441
28978W        W93798  13.814   0.924  13.766
28979W        W93799  43.619  38.898   3.616
28980W        W93800  41.409  34.591   0.324
28981W        W93801  33.904   0.220  14.414
28982W        W93802  33.164  22.069  11.037
28983W        W93803  30.949  43.037   0.242
28984W        W93804  34.748  44.257  14.029
28985W        W93805  15.175  44.373  14.877
28986W        W93806   9.222   7.183   3.040
28987W        W93807   4.930  40.541  11.657
28988W        W93808  24.100   5.083   4.572
28989W        W93809  17.143  11.135   4.362
28990W        W93810  24.140  20.794   4.579
28991W        W93811  13.384  26.980  10.120
28992W        W93812  43.334  27.784  11.940
28993W        W93813  26.954  14.670  14.456
28994W        W93814  34.911  18.419  11.925
28995W        W93815   2.019   1.296  13.582
28996W        W93816  39.836  20.055   1.889
28997W        W93817  37.730  23.748  13.447
28998W        W93818  34.837  27.804   2.168
28999W        W93819   6.972   8.139   1.372
29000W        W93820  42.920  42.438  13.837
29001W        W93821   0.730  15.280   4.160
29002W        W93822  28.533  26.855   4.800
29003W        W93823  31.557  29.768  11.107
29004W        W93824  38.074  12.166   0.073
29005W        W93825  21.705  10.187  12.616
29006W        W93826  14.759  42.830   3.248
29007W        W93827  41.520   1.260  11.505
29008W        W93828  38.746  27.422   1.694
29009W        W93829  37.072  29.897   0.757
29010W        W93830  26.724  10.194  14.289
29011W        W93831  39.497  17.800   3.410
29012W        W93832  21.535  16.823   1.404
29013W        W93833  37.447   9.109  14.760
29014W        W93834  28.898   5.899   2.844
29015W        W93835  11.960  43.976  13.670
29016W        W93836  42.950  15.624  10.474
29017W        W93837  34.572  37.820   0.897
29018W        W93838  41.685  14.148  14.001
29019W        W93839   8.407  22.226   1.188
29020W        W93840  26.391  39.933  14.816
29021W        W93841  27.414   3.807  11.645
29022W        W93842  13.908  27.011  10.889
29023W        W93843  33.584  16.454   2.033
29024W        W93844  12.707  13.381  14.304
29025W        W93845  21.555  23.937  10.707
29026W        W93846   3.648  33.212   2.699
29027W        W93847  28.905  32.990  13.557
29028W        W93848   3.202  44.024  14.364
29029W        W93849  35.246   2.053   4.618
29030W        W93850  29.906  25.748  14.132
29031W        W93851  12.714  13.828   1.248
29032W        W93852  21.710  23.337  12.584
29033W        W93853  43.345  33.396   2.326
29034W        W93854  14.184  37.674   4.177
29035W        W93855  38.291  16.773   4.215
29036W        W93856  24.220  20.366  12.515
29037W        W93857   8.747  19.691  10.561
29038W        W93858  19.730   4.782   0.723
29039W        W93859   3.136  25.947  10.583
29040W        W93860  30.544   7.974   3.209
29041W        W93861  11.880  42.125   4.100
29042W        W93862  25.505  26.159  11.529
29043W        W93863  21.647  15.412  11.653
29044W        W93864  26.219  40.284  11.625
29045W        W93865  35.340  35.509  14.384
29046W        W93866  24.055  42.965  11.337
29047W        W93867  16.208  24.396   4.249
29048W        W93868  14.685   3.054   3.943
29049W        W93869  21.515   8.936  13.285
29050W        W93870   0.189   1.483  14.823
29051W        W93871  40.587  17.378   2.520
29052W        W93872  10.382  23.465   2.277
29053W        W93873   6.427   0.854   1.275
29054W        W93874  42.974  20.541   3.982
29055W        W93875  13.110  34.438  12.546
29056W        W93876  15.869   8.850  14.322
29057W        W93877  33.514  40.756  12.640
29058W        W93878  25.467  36.599   0.687
29059W        W93879  22.220  16.272  14.321
29060W        W93880  12.266  26.840   1.615
29061W        W93881   2.653  14.909  12.152
29062W        W93882   9.675  42.630  12.847
29063W        W93883  27.176  26.499   1.418
29064W        W93884  10.668  30.767  10.303
29065W        W93885  44.333  28.629   3.906
29066W        W93886  21.262  33.003   0.775
29067W        W93887   0.527  30.158  10.685
29068W        W93888  14.388  42.198   0.840
29069W        W93889  28.270  43.360   0.331
29070W        W93890  41.348  37.907  14.433
29071W        W93891  39.519  28.084   0.259
29072W        W93892  37.540  26.035  10.774
29073W        W93893   5.404   8.185  10.759
29074W        W93894  34.659  12.408  14.746
29075W        W93895  28.007  29.958   0.102
29076W        W93896  14.688  43.720  13.389
29077W        W93897  20.153  20.072   2.947
29078W        W93898  42.437  24.486   1.972
29079W        W93899  16.112  25.378  12.633
29080W        W93900  28.109  30.015  14.116
29081W        W93901   7.778  43.282  14.218
29082W        W93902  20.713  41.458   0.740
29083W        W93903  26.056  17.615  13.068
29084W        W93904   4.815  18.703   1.785
29085W        W93905  33.538  44.982  13.010
29086W        W93906  17.215  25.888   1.486
29087W        W93907   3.278  27.915  13.835
29088W        W93908  35.784   1.647   4.569
29089W        W93909  41.158  12.706  10.361
29090W        W93910  20.950  32.211  11.398
29091W        W93911  44.260  17.842  12.130
29092W        W93912  40.971  27.706   4.109
29093W        W93913  29.490  33.406   3.190
29094W        W93914  22.139  25.990  14.742
29095W        W93915   6.425  35.400   1.882
29096W        W93916  30.848  15.666  12.098
29097W        W93917  13.843  19.724   2.897
29098W        W93918  30.032  38.278  11.711
29099W        W93919  15.051  36.108   3.723
29100W        W93920  41.218  15.718   4.198
29101W        W93921  26.538   0.067   2.913
29102W        W93922  36.816  40.986   1.375
29103W        W93923  35.481  27.754   1.679
29104W        W93924  16.365  18.639  12.105
29105W        W93925  36.437   5.667   4.326
29106W        W93926  19.446  15.509   4.133
29107W        W93927   1.226  42.118   2.752
29108W        W93928  18.186  22.673   4.338
29109W        W93929  24.953  29.452  12.587
29110W        W93930   3.399  23.794   2.974
29111W        W93931  44.872  41.863  14.461
29112W        W93932  23.653  38.125  10.651
29113W        W93933   7.184  31.341  13.822
29114W        W93934  44.789  29.100  11.193
29115W        W93935   4.877  41.654   3.273
29116W        W93936  10.372   2.884  11.467
29117W        W93937   8.427  20.066  13.802
29118W        W93938  11.622   1.275   4.008
29119W        W93939  44.249  39.370  12.090
29120W        W93940  33.512  10.864  14.403
29121W        W93941  10.658   6.905   2.391
29122W        W93942  11.360  31.371   1.964
29123W        W93943   0.200  40.018   4.489
29124W        W93944   6.743  30.980   2.366
29125W        W93945  30.568  18.145  11.159
29126W        W93946  34.592  28.894  13.456
29127W        W93947  32.812   5.845  10.511
29128W        W93948  23.709  15.620   4.225
29129W        W93949   8.394  27.989   4.162
29130W        W93950   0.266  39.567   2.357
29131W        W93951   7.415  44.073   3.338
29132W        W93952  44.189  11.698   3.537
29133W        W93953   6.328  32.548   3.638
29134W        W93954  44.391  43.752  12.216
29135W        W93955  24.070  37.981   3.219
29136W        W93956   5.126  30.927  10.740
29137W        W93957   0.111  40.334  11.058
29138W        W93958   6.127  40.394   2.764
29139W        W93959  23.560  35.396   2.822
29140W        W93960  16.036   1.328  13.361
29141W        W93961  42.615   6.692  13.851
29142W        W93962   7.416   0.069  13.919
29143W        W93963  27.046  41.722   0.904
29144W        W93964  27.216   5.889   1.719
29145W        W93965   8.137  27.907   0.744
29146W        W93966  16.283  27.685   4.278
29147W        W93967  39.798  40.521  14.871
29148W        W93968  26.752  41.633  14.814
29149W        W93969   8.928  26.014   4.037
29150W        W93970  22.306  39.304  11.796
29151W        W93971   8.384   5.156  11.768
29152W        W93972  24.445   5.310  11.130
29153W        W93973  14.727  42.212   3.749
29154W        W93974  37.996  11.352  11.635
29155W        W93975  40.293  25.700  13.516
29156W        W93976   8.983  41.070  12.117
29157W        W93977  25.619  19.463  10.951
29158W        W93978   8.179  37.523   4.619
29159W        W93979   3.322  14.570   2.784
29160W        W93980  38.761  32.310  14.891
29161W        W93981   6.157  44.567   0.364
29162W        W93982   6.668  19.614   1.575
29163W        W93983  43.548  15.226  14.359
29164W        W93984  14.461   9.578  13.969
29165W        W93985   8.332  37.023   4.903
29166W        W93986   0.361  35.177   2.217
29167W        W93987  28.590  40.977  10.808
29168W        W93988  13.776  35.191  13.078
29169W        W93989  32.553   4.882  13.989
29170W        W93990  33.670  44.581   3.783
29171W        W93991  10.409   4.842  14.550
29172W        W93992  27.262   8.813  14.010
29173W        W93993   5.270   0.842  13.779
29174W        W93994  21.468  11.268   3.683
29175W        W93995  34.063  41.286  14.931
29176W        W93996   6.483  25.380  13.626
29177W        W93997  38.605  16.236   2.739
29178W        W93998  15.774  42.555  14.873
29179W        W93999  42.816  35.485  11.035
29180W        W94000  33.087  41.782   0.232
29181W        W94001  33.871  27.310  11.202
29182W        W94002  30.593  24.161   0.361
29183W        W94003  13.345   4.739   1.154
29184W        W94004  40.824  26.155   1.300
29185W        W94005  21.312  13.831   3.164
29186W        W94006  19.307  35.947  13.849
29187W        W94007  16.685  26.414   0.278
29188W        W94008   2.529  40.472   0.795
29189W        W94009  37.387  13.868  10.965
29190W        W94010  26.429  25.562   4.604
29191W        W94011  31.083  17.064   3.031
29192W        W94012   1.394  35.414  14.206
29193W        W94013  29.428  32.389   3.400
29194W        W94014   9.798  18.020  11.989
29195W        W94015   6.353  22.467   5.325
29196W        W94016  18.754  24.142  14.793
29197W        W94017   3.830   8.065   2.854
29198W        W94018  40.727  14.662   0.881
29199W        W94019  42.974  16.126  11.372
29200W        W94020   7.167  40.916   0.063
29201W        W94021  20.837   7.058   4.934
29202W        W94022  15.890  44.048   0.807
29203W        W94023  23.896  24.033  12.808
29204W        W94024  11.699  24.724  14.732
29205W        W94025   3.282   0.490   1.229
29206W        W94026  32.316  34.199  11.709
29207W        W94027  31.947  12.733   1.411
29208W        W94028   9.324  15.488   2.504
29209W        W94029  19.679  29.965   0.697
29210W        W94030  11.194  43.789  12.098
29211W        W94031  44.011  30.926  12.907
29212W        W94032   8.755  41.236  12.542
29213W        W94033  16.857  22.655   3.297
29214W        W94034  25.098  16.289  14.984
29215W        W94035   6.780   2.335   2.748
29216W        W94036   5.780   1.255   3.772
29217W        W94037  30.526  19.618   1.234
29218W        W94038  13.727   0.095   4.240
29219W        W94039  38.650  12.835   0.300
29220W        W94040  35.543  13.586  12.937
29221W        W94041  14.729  15.626   5.112
29222W        W94042  30.097   5.473   0.839
29223W        W94043   7.924  10.995   4.142
29224W        W94044  16.680   3.765   0.921
29225W        W94045   7.228  28.983   1.906
29226W        W94046  12.335  42.973   4.189
29227W        W94047  10.170  27.340   1.377
29228W        W94048  15.351  33.778  12.383
29229W        W94049   3.189  20.479   2.129
29230W        W94050  25.660  12.744  14.319
29231W        W94051  16.716  17.802   1.880
29232W        W94052  16.262  11.827  10.675
29233W        W94053  19.761  22.170  10.757
29234W        W94054  39.622  19.318   1.062
29235W        W94055  29.940   9.852   0.270
29236W        W94056  16.027   0.552   4.274
29237W        W94057  21.191  10.309  14.512
29238W        W94058  21.179  29.504  14.446
29239W        W94059   8.316  18.614  11.388
29240W        W94060  32.945  35.947  14.778
29241W        W94061  33.662  35.374  14.790
29242W        W94062  20.172  42.389   3.636
29243W        W94063   9.443  34.623  11.786
29244W        W94064  34.890  14.035  13.496
29245W        W94065  16.602  39.210   2.311
29246W        W94066  21.700  16.027  13.399
29247W        W94067   3.752  28.629  12.448
29248W        W94068  14.720  37.316  10.351
29249W        W94069   0.448   4.023  11.652
29250W        W94070  30.038  12.461  11.240
29251W        W94071   9.832  32.390   3.582
29252W        W94072  14.200  29.528   0.169
29253W        W94073  38.859  24.501  13.222
29254W        W94074  12.235  12.539   4.554
29255W        W94075  15.062  38.128   5.558
29256W        W94076   5.058  34.642  14.055
29257W        W94077   4.907  27.863   3.624
29258W        W94078  39.500  34.091  14.162
29259W        W94079  26.728  17.117   2.373
29260W        W94080  32.097  23.225  10.234
29261W        W94081  43.927   4.771   3.182
29262W        W94082  44.878  37.573  10.757
29263W        W94083   0.046  42.436  14.454
29264W        W94084  17.600   9.038  11.039
29265W        W94085   7.217  30.503  14.321
29266W        W94086   2.302  24.945  12.433
29267W        W94087   1.929  39.158  13.557
29268W        W94088   7.016  35.992   1.372
29269W        W94089   6.209  29.499   4.729
29270W        W94090   5.877  28.471  12.853
29271W        W94091  29.119  26.361   5.382
29272W        W94092  14.170  41.358  12.702
29273W        W94093  42.529   1.139  10.811
29274W        W94094  27.864   6.708  13.621
29275W        W94095   1.231   6.505   3.148
29276W        W94096  18.538  26.046  12.586
29277W        W94097  13.380  25.997   3.966
29278W        W94098  16.270  19.948   4.052
29279W        W94099  40.395   3.328  10.403
29280W        W94100  30.759  21.663  14.286
29281W        W94101  42.967  42.505  12.054
29282W        W94102  15.254  17.782  11.658
29283W        W94103  28.342  28.399  12.075
29284W        W94104  28.687  25.141   0.445
29285W        W94105   2.865  38.866  13.602
29286W        W94106  17.231   6.122  14.688
29287W        W94107  33.446  30.754   2.616
29288W        W94108  36.762  29.077   2.759
29289W        W94109   4.277  15.399  12.687
29290W        W94110   0.504  31.489  14.978
29291W        W94111  41.480   3.190   3.283
29292W        W94112   2.120   3.932  13.547
29293W        W94113  17.219  38.320   2.352
29294W        W94114  44.307  14.666  11.748
29295W        W94115  33.492  44.922  11.226
29296W        W94116  21.250  34.445   2.365
29297W        W94117  34.270  20.338  12.972
29298W        W94118  28.420  17.442   1.757
29299W        W94119  32.033  18.178   4.170
29300W        W94120  26.800   9.861   0.961
29301W        W94121   5.805  41.965  13.616
29302W        W94122  37.852  23.889   2.676
29303W        W94123  18.752  39.100  10.630
29304W        W94124  34.084  24.045  13.875
29305W        W94125   4.404  19.608   1.273
29306W        W94126   2.080  29.420   1.300
29307W        W94127  12.367  17.082   1.349
29308W        W94128  26.955  34.327  12.407
29309W        W94129  21.428  22.337  11.230
29310W        W94130   1.738  21.417   0.540
29311W        W94131  28.941  35.921   2.684
29312W        W94132  44.535  30.796   1.803
29313W        W94133  12.399   7.300   1.795
29314W        W94134  28.143   8.538  10.140
29315W        W94135   4.217   1.860   2.404
29316W        W94136  25.286  29.686   3.646
29317W        W94137  38.949  17.328  12.901
29318W        W94138  11.284  34.404   1.650
29319W        W94139   6.911   3.751   1.422
29320W        W94140  15.272  40.117   2.457
29321W        W94141  23.001  43.813   1.400
29322W        W94142   8.109  20.825  13.478
29323W        W94143  39.027  43.300   3.700
29324W        W94144  16.715  18.047  13.163
29325W        W94145  33.676   3.755  10.693
29326W        W94146  20.945   9.257  14.780
29327W        W94147  21.966   0.395   4.090
29328W        W94148   5.356  13.883   3.108
29329W        W94149  16.209  23.563   2.889
29330W        W94150  17.963   4.471   1.850
29331W        W94151   8.578   6.781   3.445
29332W        W94152  31.421  11.256  13.969
29333W        W94153  22.613  20.695  11.483
29334W        W94154  31.158  42.969  13.487
29335W        W94155   6.184  35.343   2.856
29336W        W94156  31.209  23.033  11.676
29337W        W94157   5.946  17.225   5.125
29338W        W94158  44.884  14.923   0.369
29339W        W94159  34.260  17.394   3.503
29340W        W94160   6.224  30.186   2.226
29341W        W94161   7.690  17.651  10.703
29342W        W94162  38.299  25.442  13.619
29343W        W94163  21.065  30.026   3.356
29344W        W94164  40.444   1.864  10.916
29345W        W94165  43.923  10.948  13.937
29346W        W94166   5.508  24.049  14.960
29347W        W94167   8.082  19.611   2.544
29348W        W94168  13.752  41.771  10.635
29349W        W94169  44.856  40.611  10.183
29350W        W94170  17.543   7.367  11.162
29351W        W94171  17.114  43.194   2.786
29352W        W94172  14.635  20.203   1.017
29353W        W94173   9.802  12.719  11.824
29354W        W94174  22.562  17.956   2.574
29355W        W94175  22.534   0.917   0.959
29356W        W94176   4.170  20.031  12.504
29357W        W94177  42.635  16.384   1.192
29358W        W94178   0.960  31.929   1.424
29359W        W94179  18.835  35.115  12.452
29360W        W94180  29.043  13.488   2.351
29361W        W94181  40.554   4.852   0.917
29362W        W94182   6.423  28.714   3.296
29363W        W94183  40.559  22.728  13.028
29364W        W94184  18.101  25.719   1.228
29365W        W94185  24.704   0.463   3.646
29366W        W94186   8.855   1.776  13.438
29367W        W94187  18.638  13.320  14.859
29368W        W94188  11.657  32.545  11.457
29369W        W94189   5.994  35.757  11.499
29370W        W94190  25.363  24.214   0.065
29371W        W94191  38.318  44.259   1.782
29372W        W94192  29.515  41.258   2.391
29373W        W94193  27.690  31.370   4.142
29374W        W94194  33.191   4.412   4.126
29375W        W94195  37.032  39.504  10.352
29376W        W94196  14.677  36.523  11.941
29377W        W94197  36.624  39.354   1.265
29378W        W94198   3.572  10.364  13.529
29379W        W94199  38.929  18.540  12.527
29380W        W94200  27.641  41.139   3.337
29381W        W94201  35.826  30.449  14.374
29382W        W94202  35.333  30.628   3.081
29383W        W94203  19.826  30.471   3.813
29384W        W94204   5.806  14.865  14.485
29385W        W94205  37.106  25.318   2.540
29386W        W94206  35.630  14.843   3.225
29387W        W94207  37.167  26.029  11.675
29388W        W94208   8.502  26.671  12.847
29389W        W94209  26.044  35.303  13.926
29390W        W94210  19.744  40.464  12.380
29391W        W94211  32.456  15.140   3.696
29392W        W94212   4.743  42.551   4.092
29393W        W94213   6.728  36.658  13.884
29394W        W94214  44.396  44.343  10.529
29395W        W94215  30.386  39.950  10.599
29396W        W94216  26.204  22.936   4.576
29397W        W94217  26.103  24.428  14.512
29398W        W94218  37.901  18.811  14.395
29399W        W94219   8.998  16.276   3.708
29400W        W94220  31.096  25.959  11.255
29401W        W94221   1.647  14.656  11.054
29402W        W94222  10.647  31.231  12.050
29403W        W94223  19.190  24.136  11.251
29404W        W94224  15.676  42.695  10.494
29405W        W94225  15.220  17.822  13.876
29406W        W94226   5.654  36.912  14.952
29407W        W94227  23.590  19.135   2.724
29408W        W94228  14.353  16.207   4.392
29409W        W94229  32.778  39.661   4.223
29410W        W94230  10.271  17.212  12.104
29411W        W94231  19.400  33.428   0.767
29412W        W94232  11.753  26.815   1.806
29413W        W94233   4.387   4.786  12.863
29414W        W94234  10.660  12.216   2.622
29415W        W94235  26.956  21.658  11.029
29416W        W94236   5.607   6.287  14.511
29417W        W94237  43.127  26.603   1.263
29418W        W94238  32.929  24.664  14.738
29419W        W94239   1.703  36.532   0.082
29420W        W94240   0.413  21.201  14.036
29421W        W94241  26.333   0.097   4.052
29422W        W94242   4.447  24.488   2.192
29423W        W94243  33.032  18.694  11.721
29424W        W94244  37.764  27.986  10.847
29425W        W94245  30.361  37.042   3.277
29426W        W94246  27.599  37.387  12.526
29427W        W94247  35.409  31.965  13.683
29428W        W94248  21.033   1.306   2.406
29429W        W94249  37.412  12.184   2.634
29430W        W94250   1.731  43.561  11.063
29431W        W94251  40.379   8.513   0.608
29432W        W94252  38.034  15.716  11.991
29433W        W94253  22.559   9.771   1.167
29434W        W94254   8.800  42.821  13.232
29435W        W94255  27.315   7.191  10.414
29436W        W94256   1.481  24.423  12.406
29437W        W94257  39.268  39.451   2.883
29438W        W94258  42.622  16.550  11.980
29439W        W94259   4.950  22.070   2.266
29440W        W94260   6.957  43.411  13.283
29441W        W94261   1.219   1.736  10.649
29442W        W94262  30.170  11.170  13.460
29443W        W94263   2.352  37.426   2.853
29444W        W94264  33.865  22.922   1.646
29445W        W94265  42.753  44.949   0.772
29446W        W94266  16.721  42.483  13.172
29447W        W94267  43.759  23.173  13.483
29448W        W94268  36.936  21.837  10.566
29449W        W94269  21.768  33.462  13.448
29450W        W94270  11.173  21.520  11.973
29451W        W94271  36.618  27.647   3.502
29452W        W94272  10.716  22.540   0.805
29453W        W94273  19.326   5.637   4.249
29454W        W94274   6.890  36.380  14.280
29455W        W94275  33.410  40.537  13.094
29456W        W94276  40.423  44.045   0.088
29457W        W94277   9.371  25.079  11.147
29458W        W94278  32.378  39.519   3.785
29459W        W94279  23.453  43.253   4.080
29460W        W94280  38.945  41.455  11.485
29461W        W94281   9.415  17.059  11.183
29462W        W94282  19.736  15.555   2.793
29463W        W94283  39.459  40.780  11.555
29464W        W94284  38.609  10.287  12.625
29465W        W94285  33.859  20.584   3.108
29466W        W94286  13.449  43.247  12.070
29467W        W94287  21.146   2.749  12.020
29468W        W94288  13.602  34.385   2.629
29469W        W94289  42.598  33.088   2.151
29470W        W94290   6.163   0.306  12.514
29471W        W94291   3.582  15.576   2.712
29472W        W94292  25.745  15.509   2.364
29473W        W94293   2.418  41.014  10.652
29474W        W94294  20.328  10.705  10.440
29475W        W94295  28.570  43.046   4.995
29476W        W94296  38.687   7.496  12.608
29477W        W94297  22.506   9.815  14.354
29478W        W94298   2.451  29.615   3.241
29479W        W94299   8.458  33.818  10.963
29480W        W94300  33.350  24.565   0.048
29481W        W94301  37.006  13.757  13.165
29482W        W94302   6.222  25.011  14.850
29483W        W94303   7.630   9.674   4.508
29484W        W94304  27.764  39.714   2.819
29485W        W94305   0.519  38.859   1.748
29486W        W94306  20.086   1.970   2.919
29487W        W94307   5.316   1.728   4.124
29488W        W94308   2.226  43.505  14.227
29489W        W94309  15.272  20.793   1.845
29490W        W94310  42.695   8.758   4.884
29491W        W94311  19.044  10.584   1.756
29492W        W94312  11.432   9.219   3.249
29493W        W94313   0.769   4.878   4.898
29494W        W94314   3.236  28.980   0.330
29495W        W94315  21.166  30.144   2.684
29496W        W94316   3.989  16.602  11.456
29497W        W94317  11.365  17.251  12.107
29498W        W94318  20.543  41.527  12.206
29499W        W94319  23.231  27.462  13.754
29500W        W94320   8.732  42.061  12.184
29501W        W94321  40.190  34.769  11.264
29502W        W94322  33.989  28.192  13.312
29503W        W94323  17.801  22.049  11.053
29504W        W94324  34.408  26.592   4.242
29505W        W94325  29.663  18.715  14.327
29506W        W94326  34.627  41.842  13.465
29507W        W94327  22.494  10.989  14.971
29508W        W94328  19.999  22.090   0.019
29509W        W94329   0.785   9.673   3.577
29510W        W94330  34.090  18.181   5.396
29511W        W94331  39.409  44.352  10.808
29512W        W94332   0.440  42.751  11.084
29513W        W94333  16.717  24.257   4.237
29514W        W94334  29.937  25.357   3.210
29515W        W94335  28.228  39.793  13.894
29516W        W94336  14.999  36.675  12.991
29517W        W94337  34.004  24.747   1.419
29518W        W94338   8.611  29.586   3.136
29519W        W94339  23.910  18.575   4.322
29520W        W94340  38.677   1.691   0.379
29521W        W94341  25.980  28.171  12.027
29522W        W94342   0.917  24.481   0.245
29523W        W94343  32.950  23.494   4.579
29524W        W94344  28.620   9.289   3.852
29525W        W94345   9.379  10.218  12.353
29526W        W94346  35.129  11.841   4.532
29527W        W94347  30.610  12.673   5.191
29528W        W94348  24.709  42.770  13.093
29529W        W94349  17.141  34.026   0.172
29530W        W94350  11.694  14.892   4.614
29531W        W94351  42.115  13.743  11.154
29532W        W94352  18.492  22.168   1.676
29533W        W94353   5.797  27.019   2.804
29534W        W94354   7.165  35.887   3.706
29535W        W94355  27.748  36.029   1.720
29536W        W94356   1.535  31.190  14.655
29537W        W94357  44.964   6.227  10.731
29538W        W94358  27.991  28.614  11.099
29539W        W94359  20.276  33.920  12.351
29540W        W94360  28.595  11.138   2.479
29541W        W94361  28.266  27.899  11.601
29542W        W94362  17.540   0.062  13.710
29543W        W94363  19.664  35.441  10.653
29544W        W94364   2.747  44.299   0.250
29545W        W94365  24.801  34.579   0.001
29546W        W94366  37.875  36.877   3.709
29547W        W94367  13.939  15.919   4.204
29548W        W94368  24.060   0.882   2.616
29549W        W94369   9.057   2.522   4.036
29550W        W94370  42.835  38.615   2.767
29551W        W94371   1.250  41.400  12.799
29552W        W94372  15.551  24.228   4.976
29553W        W94373  12.129  38.064  12.352
29554W        W94374  35.739  21.013  12.060
29555W        W94375  43.830  16.522   0.347
29556W        W94376  38.419   0.452   1.009
29557W        W94377   5.828   0.623  13.924
29558W        W94378  23.653  16.091   1.880
29559W        W94379  32.091  10.228  12.853
29560W        W94380  10.278   1.595  11.559
29561W        W94381  40.770  15.409   4.171
29562W        W94382  19.446  16.263  13.917
29563W        W94383   7.742  13.978   2.683
29564W        W94384  18.443  23.066   4.655
29565W        W94385  32.326  39.044   1.701
29566W        W94386  42.452   4.136  13.300
29567W        W94387  13.780  17.454   4.589
29568W        W94388   7.418   3.271  10.792
29569W        W94389  21.104  14.322  11.172
29570W        W94390   9.157  21.739   2.719
29571W        W94391  35.809  43.415  14.315
29572W        W94392  44.997  29.643  12.488
29573W        W94393  24.548   6.786   0.021
29574W        W94394  23.755  39.537  13.432
29575W        W94395  35.797  20.629   2.193
29576W        W94396   7.835  22.347  12.137
29577W        W94397  23.614   3.896  14.801
29578W        W94398  15.132  15.639  10.690
29579W        W94399  35.443  25.333  11.027
29580W        W94400   8.782  24.997   1.184
29581W        W94401  11.640   2.965  14.910
29582W        W94402   1.793  41.340  11.430
29583W        W94403  37.703  23.544  11.114
29584W        W94404  16.214  40.515  10.912
29585W        W94405  41.703   8.982   3.121
29586W        W94406   3.910  11.013   1.911
29587W        W94407  36.545  31.424  14.036
29588W        W94408  22.121  16.103   1.313
29589W        W94409  14.573  21.640   1.900
29590W        W94410   8.811  18.883   1.710
29591W        W94411  30.967  39.904   3.068
29592W        W94412  27.461   5.239  11.946
29593W        W94413   9.705  19.121  14.263
29594W        W94414  22.778  33.642   3.790
29595W        W94415  32.322  12.771   4.943
29596W        W94416  21.256  44.970  10.770
29597W        W94417  38.402  23.702   1.109
29598W        W94418  42.247  19.278   1.959
29599W        W94419   2.908  43.245  13.538
29600W        W94420  29.545  14.603   1.277
29601W        W94421  33.016  11.693   1.339
29602W        W94422  34.153   6.395  12.873
29603W        W94423  13.590  37.964   0.497
29604W        W94424  30.648  38.408  13.855
29605W        W94425  22.207  22.112   4.618
29606W        W94426  21.704  35.831   3.307
29607W        W94427  21.417  18.306   1.133
29608W        W94428  37.842  39.465   2.835
29609W        W94429  32.623  33.613   3.566
29610W        W94430  36.611  15.220   4.624
29611W        W94431  35.950  16.019   3.583
29612W        W94432   6.362  36.406   1.951
29613W        W94433  26.956  20.842  13.480
29614W        W94434  31.140   4.561  11.126
29615W        W94435   5.273  27.947   2.779
29616W        W94436   6.732  35.513  14.341
29617W        W94437  32.837  14.248  11.600
29618W        W94438  19.047  11.918  12.616
29619W        W94439  25.997  44.148   0.509
29620W        W94440  25.590   3.741   0.168
29621W        W94441   5.545  28.688   5.040
29622W        W94442   5.388  42.716   1.920
29623W        W94443  16.611  32.790  11.901
29624W        W94444  44.054   4.203  12.942
29625W        W94445   1.963   7.786   1.279
29626W        W94446  22.702   4.467  10.583
29627W        W94447  39.602  10.220   1.246
29628W        W94448   3.525  14.168   1.217
29629W        W94449  23.486  35.097   3.864
29630W        W94450   7.164  19.556  11.211
29631W        W94451  43.839  24.239   2.241
29632W        W94452  16.815   5.760   1.313
29633W        W94453  27.684  29.164   4.685
29634W        W94454  37.133  10.662  12.461
29635W        W94455  33.142  10.166  14.005
29636W        W94456  43.050  11.815  11.266
29637W        W94457  28.482  25.559  10.981
29638W        W94458  44.334  29.825   3.772
29639W        W94459  38.011  22.933  13.566
29640W        W94460  35.293   5.045  12.601
29641W        W94461  40.838  12.324   1.890
29642W        W94462  44.015  23.681   3.524
29643W        W94463  11.780   7.633   3.997
29644W        W94464  10.173  33.088   2.564
29645W        W94465  31.039  26.773   1.388
29646W        W94466  23.991  44.563   0.491
29647W        W94467   5.660  29.590  14.449
29648W        W94468   6.263  13.972  14.712
29649W        W94469  10.425  23.104  14.810
29650W        W94470  39.520  34.595   4.547
29651W        W94471  10.140  39.362  14.247
29652W        W94472   4.191   8.678  13.832
29653W        W94473  19.995  37.883  14.721
29654W        W94474  43.261  13.185  13.973
29655W        W94475  39.911  33.009  12.973
29656W        W94476  27.028  38.213  13.196
29657W        W94477  10.917  33.133   3.252
29658W        W94478  12.481  44.145  13.744
29659W        W94479   9.281   1.271  10.761
29660W        W94480  28.628  35.841  10.920
29661W        W94481  33.698  39.579   2.295
29662W        W94482  42.998  44.591  13.809
29663W        W94483  33.079  34.527   1.461
29664W        W94484  18.227  19.559  14.014
29665W        W94485   1.342  27.776   2.951
29666W        W94486  25.524  30.178   1.707
29667W        W94487  12.099  15.684   0.452
29668W        W94488  34.488  19.952   1.478
29669W        W94489  21.063  15.586  12.899
29670W        W94490  19.997  32.462   0.049
29671W        W94491  14.300  29.735  13.046
29672W        W94492   2.297  20.213   1.330
29673W        W94493  12.585   3.781  14.997
29674W        W94494  18.812  20.992  12.465
29675W        W94495  23.703  44.835   3.159
29676W        W94496  21.400  10.424   5.433
29677W        W94497  14.019   1.482   0.408
29678W        W94498   3.160  15.319  13.600
29679W        W94499  37.535  17.222  10.462
29680W        W94500   5.946  29.645  11.090
29681W        W94501  38.401  14.199  10.627
29682W        W94502  37.903  32.035  14.966
29683W        W94503  23.116  23.776   1.005
29684W        W94504   8.635  35.507  11.846
29685W        W94505  42.506  35.812  13.844
29686W        W94506  19.002  17.815  12.948
29687W        W94507   9.484  43.237  14.804
29688W        W94508   9.264  37.986   3.237
29689W        W94509  24.944  12.808   0.866
29690W        W94510  41.911  15.131   3.789
29691W        W94511   2.254   6.135  12.998
29692W        W94512  28.659   9.720   1.890
29693W        W94513  31.411  24.321  11.981
29694W        W94514  43.820  34.582  14.538
29695W        W94515  17.155  29.270  10.423
29696W        W94516  16.088  21.019   1.264
29697W        W94517  16.328   9.418  11.539
29698W        W94518  37.306  22.977   5.348
29699W        W94519  24.824   0.859  14.599
29700W        W94520  35.431   2.963  14.560
29701W        W94521  10.642   8.919  11.514
29702W        W94522  16.306  37.167  14.540
29703W        W94523   1.570  28.193  11.211
29704W        W94524  31.118   7.256   0.278
29705W        W94525  29.984  18.828  12.425
29706W        W94526  25.606   6.395  12.297
29707W        W94527   2.205  37.410  12.462
29708W        W94528  33.523  28.181  13.076
29709W        W94529   0.665  40.234   4.565
29710W        W94530  35.964  26.448  12.672
29711W        W94531   2.498   6.622  11.580
29712W        W94532  28.624  19.402  10.177
29713W        W94533  15.510  39.938   1.920
29714W        W94534  20.902   7.326   3.119
29715W        W94535   1.531  31.589  13.825
29716W        W94536  11.916   4.301   4.032
29717W        W94537  44.962  24.387   2.205
29718W        W94538  42.743  11.868  13.735
29719W        W94539  24.113   6.237   2.579
29720W        W94540  32.663   4.848   9.924
29721W        W94541   9.370  27.939   1.802
29722W        W94542  12.232   9.713  11.344
29723W        W94543  20.261  34.047  10.616
29724W        W94544   0.427  37.189  12.547
29725W        W94545  31.430  36.485   3.742
29726W        W94546  18.749  21.689   0.735
29727W        W94547  17.698  10.014  13.832
29728W        W94548   8.136  21.808   0.251
29729W        W94549  17.031   4.322   3.633
29730W        W94550  25.546  30.937  12.723
29731W        W94551  40.452  15.986  12.409
29732W        W94552  21.436  38.134   5.066
29733W        W94553  28.140   3.782   0.165
29734W        W94554   7.837  16.767  11.630
29735W        W94555  43.255  38.787   1.271
29736W        W94556  26.971  11.252   2.756
29737W        W94557   2.962  41.807   4.729
29738W        W94558  19.238  25.751  14.032
29739W        W94559  11.547   5.479   3.422
29740W        W94560  27.589  10.124  11.901
29741W        W94561  12.734  40.073   3.431
29742W        W94562   9.566  17.307  13.337
29743W        W94563  37.304  24.551  10.548
29744W        W94564  20.064  12.007  14.439
29745W        W94565  20.060  13.465  14.986
29746W        W94566  24.564  22.545   3.234
29747W        W94567  11.253   7.398   2.925
29748W        W94568  16.719  44.291  14.353
29749W        W94569   4.967  17.648   3.200
29750W        W94570   2.780  27.504   1.800
29751W        W94571  15.906  39.832   1.626
29752W        W94572  37.510  27.698  14.398
29753W        W94573  41.846  18.593  12.855
29754W        W94574  23.205   8.354   2.745
29755W        W94575   6.636  21.945  12.495
29756W        W94576  16.711  10.637   2.738
29757W        W94577  31.304  13.206   2.716
29758W        W94578  43.857  21.803   4.556
29759W        W94579   3.055   8.711   4.674
29760W        W94580  42.696  43.063   0.976
29761W        W94581  41.471  25.078  14.835
29762W        W94582  32.086  39.913   4.867
29763W        W94583  22.104   7.896  11.918
29764W        W94584  44.286  27.438  11.989
29765W        W94585   2.350  37.271  10.329
29766W        W94586  29.646   3.860   0.477
29767W        W94587   2.817   9.177   3.118
29768W        W94588  11.082   5.246  10.975
29769W        W94589  10.795  22.271   2.500
29770W        W94590  22.595  21.568   2.202
29771W        W94591  44.500   4.357  11.625
29772W        W94592   5.124  17.823  12.400
29773W        W94593  33.021   3.716   1.939
29774W        W94594  11.829  34.255   3.720
29775W        W94595  31.058  11.299  12.438
29776W        W94596  13.789  17.065   2.895
29777W        W94597  39.893  44.396   4.736
29778W        W94598  21.954  29.066   0.396
29779W        W94599  24.423  34.822   3.703
29780W        W94600  44.049  41.784  12.372
29781W        W94601   1.131  16.305  14.869
29782W        W94602  34.652  38.477   3.669
29783W        W94603  12.610  24.680   2.382
29784W        W94604  40.897  43.389   3.374
29785W        W94605  23.195  25.253   1.469
29786W        W94606  43.377  29.043  10.803
29787W        W94607  14.116  15.652  11.667
29788W        W94608  24.061  18.634   3.383
29789W        W94609  33.551  41.434  10.308
29790W        W94610   3.892  33.727   4.133
29791W        W94611  19.317  37.367   0.358
29792W        W94612  41.944  16.354  12.433
29793W        W94613  13.918   6.912   4.274
29794W        W94614  32.163  19.049  14.858
29795W        W94615  24.511  32.432   1.371
29796W        W94616  25.030   8.672  10.675
29797W        W94617  37.710  28.167   2.852
29798W        W94618  17.714  11.027   4.969
29799W        W94619   5.490  44.805   4.375
29800W        W94620  28.505  35.509  13.602
29801W        W94621  21.221   2.196  13.416
29802W        W94622   9.732   4.474  10.513
29803W        W94623  18.046  29.566   4.495
29804W        W94624  11.686  20.481  14.419
29805W        W94625   9.872   5.697   3.555
29806W        W94626  10.870  10.191   1.408
29807W        W94627   1.751   1.716  13.438
29808W        W94628  10.216  26.546   1.830
29809W        W94629  23.663   8.155  11.125
29810W        W94630   1.938  11.218   2.725
29811W        W94631  21.977  26.063   4.736
29812W        W94632   0.301  41.811  12.330
29813W        W94633  35.446  30.122   4.307
29814W        W94634  43.341  21.479  14.368
29815W        W94635  23.233  30.163   4.943
29816W        W94636  38.506  15.405  12.571
29817W        W94637  38.151   0.899   3.393
29818W        W94638  41.938  43.876  11.176
29819W        W94639  40.331  37.140   2.423
29820W        W94640  20.592   1.858   1.952
29821W        W94641  24.965  42.060   3.335
29822W        W94642  33.640  29.320   5.039
29823W        W94643  16.950   6.896  11.601
29824W        W94644   4.570  11.343   0.734
29825W        W94645   6.240  28.230   2.291
29826W        W94646  13.314  35.615   2.704
29827W        W94647  43.828  15.563  10.552
29828W        W94648  18.542  12.666  14.055
29829W        W94649  27.200  31.518   4.250
29830W        W94650   3.910  16.733   0.862
29831W        W94651  18.010  22.781  14.512
29832W        W94652   5.235   8.448  13.864
29833W        W94653  42.346   2.304   3.779
29834W        W94654  22.642  22.028   3.141
29835W        W94655  35.436  15.875  13.490
29836W        W94656  33.400  37.237   2.059
29837W        W94657  22.835  18.605  12.528
29838W        W94658  35.478  38.070   3.151
29839W        W94659  13.687  16.692  14.257
29840W        W94660  28.433  18.756  10.574
29841W        W94661  25.717  33.649   2.464
29842W        W94662   2.537  42.746  13.875
29843W        W94663   7.297   7.943   2.252
29844W        W94664  25.981  30.706  12.912
29845W        W94665  41.575   4.736  11.950
29846W        W94666  15.859   1.386  10.488
29847W        W94667  36.540  29.925   0.834
29848W        W94668  30.772  33.133  13.421
29849W        W94669  18.353   7.166   0.753
29850W        W94670  38.315   0.109  12.468
29851W        W94671   4.489  28.410   3.227
29852W        W94672  25.129  31.037  14.748
29853W        W94673   8.553   9.439  14.931
29854W        W94674  16.894  34.105   1.348
29855W        W94675   6.652   6.275  14.286
29856W        W94676  13.307   1.871  13.136
29857W        W94677  29.955  10.024  12.171
29858W        W94678   2.175  30.438  14.003
29859W        W94679  13.319  17.806   4.097
29860W        W94680  20.176  41.983  14.805
29861W        W94681  18.576  22.011  13.338
29862W        W94682  22.037  44.267  14.252
29863W        W94683  26.664  30.997   0.643
29864W        W94684   6.233   3.650  14.354
29865W        W94685   1.785  36.834   0.788
29866W        W94686  11.764  23.788   2.670
29867W        W94687  36.431  31.050  11.612
29868W        W94688  23.461  23.019   5.053
29869W        W94689  42.381  27.924  11.326
29870W        W94690  39.142  31.894   4.677
29871W        W94691  16.967  27.462  10.217
29872W        W94692  33.390   2.088  13.438
29873W        W94693   0.756  28.718  12.426
29874W        W94694  43.034   2.152   2.261
29875W        W94695   7.306  33.407  13.590
29876W        W94696  38.170  17.532  13.039
29877W        W94697  39.603  41.807   4.351
29878W        W94698  34.103  14.607  12.563
29879W        W94699  36.472  15.211  14.557
29880W        W94700   3.889  37.338  14.798
29881W        W94701  43.401  33.769  14.349
29882W        W94702   9.837  15.278  14.589
29883W        W94703  38.549  14.647   4.981
29884W        W94704  34.796  25.474  13.037
29885W        W94705   0.121   0.335  14.526
29886W        W94706  21.758  37.858   9.899
29887W        W94707  27.997  16.554   4.409
29888W        W94708   3.320  33.828  14.003
29889W        W94709  43.343   4.201   0.574
29890W        W94710  26.457  41.816   4.230
29891W        W94711  24.113  23.199  12.532
29892W        W94712   5.364   9.314   1.933
29893W        W94713  22.324  33.490  14.323
29894W        W94714  35.445  42.866  13.201
29895W        W94715  23.110   0.435   4.587
29896W        W94716  32.370  18.989  14.372
29897W        W94717   6.826  24.785  14.774
29898W        W94718  29.109  14.358  14.923
29899W        W94719  44.988  44.877  11.596
29900W        W94720  30.372  27.723   4.351
29901W        W94721  24.504  28.922   2.703
29902W        W94722   2.375  30.039   0.231
29903W        W94723   5.362  18.868   0.954
29904W        W94724  15.410  21.753   3.367
29905W        W94725  17.867  27.171  11.153
29906W        W94726   6.090  44.985   3.062
29907W        W94727  19.356   3.290  13.058
29908W        W94728  43.256  35.547   1.821
29909W        W94729   2.450   4.247  14.897
29910W        W94730  19.688  23.663   4.113
29911W        W94731  33.030  11.585   2.427
29912W        W94732  11.106   2.369  11.207
29913W        W94733  17.773  32.997   2.248
29914W        W94734  21.189  44.018   3.578
29915W        W94735   7.360  43.790   2.896
29916W        W94736   7.375  20.827  11.612
29917W        W94737  40.281  38.514  11.961
29918W        W94738  20.212   3.734  14.061
29919W        W94739   7.740  22.275  13.357
29920W        W94740  44.701  31.851   0.061
29921W        W94741   9.990  39.353   3.138
29922W        W94742  24.011   7.771  12.267
29923W        W94743  21.304  10.849   1.351
29924W        W94744  28.507  33.908  10.851
29925W        W94745  15.645  31.180  12.453
29926W        W94746  11.370  39.409   0.711
29927W        W94747  43.033  35.526   2.285
29928W        W94748  11.090   4.839  11.262
29929W        W94749  24.235  16.284  12.042
29930W        W94750  16.204  20.658  12.440
29931W        W94751  29.671  34.219   3.722
29932W        W94752  26.550  33.201   4.975
29933W        W94753  10.376  26.669  13.367
29934W        W94754  27.277  11.346   1.535
29935W        W94755   4.861  15.146   3.591
29936W        W94756   9.242  22.495   4.104
29937W        W94757  39.992  35.179  12.525
29938W        W94758   4.957  28.917  14.815
29939W        W94759   6.447   3.073   5.040
29940W        W94760   8.675  20.841   1.688
29941W        W94761  29.104  44.311  14.803
29942W        W94762  40.849  37.420   1.299
29943W        W94763  41.553   8.518  12.720
29944W        W94764   7.739  40.495  11.263
29945W        W94765  12.209  29.027   0.521
29946W        W94766  10.211  27.993  11.084
29947W        W94767  22.406  16.368  11.318
29948W        W94768   6.808  11.704  13.077
29949W        W94769  20.107  37.916  13.215
29950W        W94770  17.221  27.724   1.300
29951W        W94771  27.650   7.357   4.078
29952W        W94772  22.926  36.998   3.413
29953W        W94773  17.699  31.187  13.594
29954W        W94774   4.530  43.170   2.075
29955W        W94775  40.198  23.282  12.482
29956W        W94776  10.831  32.582  11.913
29957W        W94777   7.956  25.666   4.891
29958W        W94778  19.627   3.209   3.291
29959W        W94779  13.600  42.298  12.010
29960W        W94780  11.872  24.427   2.052
29961W        W94781   1.556  31.656  14.908
29962W        W94782  23.472  20.280   1.338
29963W        W94783  39.496  38.865   1.420
29964W        W94784   2.372  18.125   4.470
29965W        W94785   4.349  44.534  13.051
29966W        W94786  10.373  17.571  14.979
29967W        W94787  15.081  43.869  10.747
29968W        W94788  41.600  23.589  12.378
29969W        W94789  28.983   6.630   1.728
29970W        W94790  30.742  34.026   3.149
29971W        W94791  42.505  40.401   2.680
29972W        W94792   0.865  32.499  11.249
29973W        W94793  27.985  20.210  14.059
29974W        W94794  13.618  18.684   1.860
29975W        W94795   8.719  18.669  11.057
29976W        W94796  14.434  33.056  11.163
29977W        W94797  16.114  16.319  13.538
29978W        W94798  13.857  28.500  12.835
29979W        W94799  39.455  28.584   3.856
29980W        W94800  36.892   0.975   4.397
29981W        W94801  17.818   8.766  12.040
29982W        W94802  28.876  29.278   4.049
29983W        W94803  42.099  28.083  10.500
29984W        W94804  25.713  42.234  13.416
29985W        W94805  21.184  20.881   0.877
29986W        W94806  44.361  35.475   1.910
29987W        W94807  18.684   3.533   4.492
29988W        W94808   6.803  16.734  11.839
29989W        W94809  41.375  11.230   5.555
29990W        W94810   4.718   0.258   2.207
29991W        W94811   0.918  42.547  11.241
29992W        W94812   8.372   8.735   1.288
29993W        W94813   0.603   7.085   9.988
29994W        W94814   2.781  33.210  14.855
29995W        W94815  35.643  40.609   2.331
29996W        W94816  18.182  23.521   4.616
29997W        W94817  23.049  21.665   3.353
29998W        W94818  17.673  10.876  11.702
29999W        W94819  38.618  37.877   4.782
30000W        W94820   4.667  32.393  14.296
30001W        W94821  32.043   7.941   4.157
30002W        W94822   1.336  41.369  11.657
30003W        W94823  22.501  35.044   1.337
30004W        W94824   7.776  40.942  12.988
30005W        W94825  37.329  32.922   3.699
30006W        W94826  36.480  24.999   4.183
30007W        W94827  21.231  39.988   0.974
30008W        W94828  12.587  28.593   1.879
30009W        W94829  15.615  32.087  11.247
30010W        W94830  34.039  18.186   1.610
30011W        W94831  10.802  20.629   4.169
30012W        W94832  13.746   8.849   3.568
30013W        W94833  28.573  35.611   0.958
30014W        W94834   2.241   2.413   4.970
30015W        W94835   9.239  21.921   3.663
30016W        W94836  28.651   2.443   4.549
30017W        W94837  21.844  36.333  10.212
30018W        W94838  34.936  31.022  11.514
30019W        W94839   1.330  23.290   3.950
30020W        W94840  29.632  40.965   3.737
30021W        W94841  31.392  25.480  12.628
30022W        W94842  27.556  11.647   3.227
30023W        W94843   0.700  41.269  12.935
30024W        W94844  25.971   4.452   1.314
30025W        W94845  14.436  41.572   1.863
30026W        W94846  43.828  29.608   1.719
30027W        W94847  40.238  11.251  13.094
30028W        W94848   1.449  30.542  11.086
30029W        W94849  32.652  31.765   3.916
30030W        W94850  36.442   6.307   5.036
30031W        W94851  13.470  41.528  14.488
30032W        W94852  35.868  43.863  12.727
30033W        W94853   7.789  27.241  13.387
30034W        W94854  32.033  24.385  12.986
30035W        W94855   3.622  21.639  13.905
30036W        W94856  42.712  12.619   0.650
30037W        W94857  14.488  40.005  13.471
30038W        W94858  25.845  13.046   2.170
30039W        W94859  32.429  32.822   4.295
30040W        W94860  23.335  31.339   3.643
30041W        W94861  19.376  22.176   2.675
30042W        W94862   4.281  28.500  11.216
30043W        W94863  14.566  21.738  12.826
30044W        W94864   5.196  29.362  13.527
30045W        W94865  20.169  19.095   1.777
30046W        W94866  33.601  39.999  12.026
30047W        W94867  28.554  12.287  10.739
30048W        W94868  34.824  14.666   1.770
30049W        W94869  22.233  14.591  11.887
30050W        W94870   7.163  17.682  12.500
30051W        W94871   5.201   2.331  11.892
30052W        W94872  17.831  24.909  12.501
30053W        W94873  25.567  42.840   1.952
30054W        W94874  22.666  44.692   4.217
30055W        W94875  27.388  41.901   3.789
30056W        W94876  41.877  18.083  12.941
30057W        W94877   7.264  39.775  13.931
30058W        W94878   5.363  21.191  13.854
30059W        W94879   1.862  28.054   0.033
30060W        W94880  23.293   6.818   4.481
30061W        W94881  44.384   7.289   2.800
30062W        W94882  14.879  43.950   0.756
30063W        W94883  18.762  34.092  12.520
30064W        W94884  24.322  43.197  12.102
30065W        W94885  25.217  33.417   3.270
30066W        W94886  34.404  42.392   1.919
30067W        W94887  23.076  22.547   3.669
30068W        W94888  14.573   1.352   0.309
30069W        W94889  40.043  37.550   4.113
30070W        W94890  14.426   3.500   4.119
30071W        W94891  11.409  18.039   5.110
30072W        W94892   6.069  43.836  11.109
30073W        W94893  28.771  30.107  12.489
30074W        W94894  13.978  37.309   4.558
30075W        W94895   2.651  22.197  11.515
30076W        W94896  25.616   1.867   4.183
30077W        W94897  33.200  20.159   0.235
30078W        W94898   1.903  43.370   2.050
30079W        W94899   5.312  27.650  14.428
30080W        W94900  40.592  11.982   4.185
30081W        W94901   4.766  20.078  12.467
30082W        W94902  38.678  33.454  13.363
30083W        W94903   9.943  34.005   1.422
30084W        W94904  43.122  29.515  11.311
30085W        W94905   6.149   9.800   3.813
30086W        W94906   2.437  19.061  11.155
30087W        W94907  23.587  37.635  14.882
30088W        W94908  10.253  11.186   4.891
30089W        W94909  41.616  29.260   0.767
30090W        W94910   6.173   5.421  14.192
30091W        W94911  44.071  37.420  12.530
30092W        W94912   9.664   3.986   2.606
30093W        W94913   6.512   7.659   0.758
30094W        W94914  32.509  25.116  11.818
30095W        W94915  35.688  11.840  11.174
30096W        W94916  14.184   4.059  12.935
30097W        W94917  24.883  39.613   3.688
30098W        W94918  20.981  40.992   2.715
30099W        W94919  30.555  39.153  11.734
30100W        W94920  31.561  34.459  11.545
30101W        W94921  11.899  25.215   2.824
30102W        W94922  42.618   8.861  12.460
30103W        W94923   1.707  44.020  14.039
30104W        W94924  31.046  12.364  11.022
30105W        W94925  39.325  16.154   0.876
30106W        W94926  37.085  32.509   2.431
30107W        W94927   2.536   2.296  12.592
30108W        W94928  15.892   9.684   4.181
30109W        W94929  40.010  36.582   4.036
30110W        W94930   1.062  41.427   3.722
30111W        W94931   1.711  27.968   3.683
30112W        W94932   6.879  10.198   2.210
30113W        W94933  23.385  23.719  14.065
30114W        W94934  33.405  31.598  10.906
30115W        W94935  29.606  24.670  12.943
30116W        W94936  27.047  27.170  14.942
30117W        W94937   4.643   0.314  12.718
30118W        W94938  40.134  42.045   1.781
30119W        W94939  38.343  37.059   2.456
30120W        W94940  25.488  13.223  14.485
30121W        W94941   1.729   8.359   3.807
30122W        W94942   9.940  43.361   4.564
30123W        W94943   5.444  42.686   0.091
30124W        W94944  29.465  28.190   2.781
30125W        W94945   0.242  11.168  10.923
30126W        W94946   8.353   7.656  11.707
30127W        W94947  14.330  39.365   4.635
30128W        W94948  44.221   9.249   2.202
30129W        W94949  40.979   2.058   1.449
30130W        W94950   8.636  22.398  12.175
30131W        W94951  10.064  36.220   2.807
30132W        W94952   1.891   2.130  13.766
30133W        W94953  33.449  27.167   4.817
30134W        W94954  39.299  19.028  12.000
30135W        W94955   0.120  31.687   2.859
30136W        W94956   5.182  23.986  13.059
30137W        W94957   2.137   3.395  11.551
30138W        W94958  17.610  43.762   2.320
30139W        W94959  40.419   2.424   2.554
30140W        W94960  35.772   9.214   5.468
30141W        W94961  16.953   2.313  10.531
30142W        W94962  33.699  29.528   4.199
30143W        W94963  16.221  22.817  14.896
30144W        W94964   3.298  39.334   0.897
30145W        W94965  12.431   2.334   0.557
30146W        W94966  17.965  36.691  10.850
30147W        W94967  41.962  22.522  11.208
30148W        W94968   1.861   7.698   2.803
30149W        W94969  43.430  20.506   3.645
30150W        W94970  34.923  44.257   2.747
30151W        W94971   8.283  36.567  10.963
30152W        W94972  33.869   5.366   4.812
30153W        W94973  20.475  31.387   3.734
30154W        W94974   9.450   3.490   4.302
30155W        W94975  34.793   9.370  11.373
30156W        W94976  42.276  20.637   0.267
30157W        W94977  40.533  30.490   2.899
30158W        W94978   3.267   8.642   4.144
30159W        W94979  40.015  35.856   1.936
30160W        W94980  43.481   4.168  14.568
30161W        W94981  34.436  19.515  11.027
30162W        W94982  39.312  25.792   2.725
30163W        W94983  23.061  19.248   2.643
30164W        W94984  17.272   3.884  10.726
30165W        W94985   9.097  18.011   4.512
30166W        W94986  26.615  38.014   4.054
30167W        W94987  26.921  28.149  13.513
30168W        W94988   2.471   8.913  14.464
30169W        W94989  13.393  32.930  14.368
30170W        W94990  44.818  36.534  14.412
30171W        W94991  15.755  11.068  11.130
30172W        W94992  31.916  19.638   1.488
30173W        W94993   0.211  10.801   4.729
30174W        W94994  18.627  40.230   3.574
30175W        W94995   6.211  26.973  11.098
30176W        W94996  38.981   0.450   1.087
30177W        W94997  42.355  43.303   4.810
30178W        W94998  13.890  23.351   1.343
30179W        W94999  25.117  31.322  12.064
30180W        W95000  37.412  29.577  12.063
30181W        W95001  16.746  30.587  10.703
30182W        W95002  31.187  42.127   2.737
30183W        W95003  10.799  42.407   1.179
30184W        W95004  32.503   6.530   0.751
30185W        W95005  35.015   4.291   0.477
30186W        W95006  35.553  14.753   4.061
30187W        W95007  12.201  44.358   2.815
30188W        W95008  42.344  28.104  13.954
30189W        W95009   0.591  17.300  12.927
30190W        W95010  10.953   2.335   4.098
30191W        W95011  20.989  39.114  14.836
30192W        W95012  12.811  13.903  14.339
30193W        W95013   1.030  11.341   3.683
30194W        W95014  14.682  22.614   0.090
30195W        W95015   9.706  32.852   4.476
30196W        W95016  21.679  12.275   3.290
30197W        W95017   9.304   6.442   1.311
30198W        W95018  28.451   5.194  12.570
30199W        W95019  10.335   7.686   2.884
30200W        W95020  27.679  33.063   1.377
30201W        W95021  29.100   8.128   0.853
30202W        W95022  15.960  34.649   3.227
30203W        W95023   6.272  17.647  14.837
30204W        W95024   1.988  31.037  13.018
30205W        W95025  29.650  14.172  12.093
30206W        W95026  16.001  19.815  10.360
30207W        W95027  19.118  33.494  13.908
30208W        W95028  12.063  26.147   3.647
30209W        W95029  14.595  36.572  11.441
30210W        W95030  17.742  30.826   2.898
30211W        W95031  37.382  33.404   2.362
30212W        W95032  10.324  42.078  14.435
30213W        W95033  32.631  31.890  13.508
30214W        W95034  27.605  16.635   4.719
30215W        W95035  20.284  10.817   2.771
30216W        W95036  30.467  16.530  13.188
30217W        W95037  22.050  36.133  14.914
30218W        W95038  37.363  18.210  12.960
30219W        W95039  19.230   4.643   0.594
30220W        W95040  14.316  17.537  14.887
30221W        W95041   2.182  25.034   2.991
30222W        W95042  23.600  39.579  11.250
30223W        W95043  43.770  38.511   1.316
30224W        W95044  10.334  42.347  10.476
30225W        W95045  20.628   5.203  11.621
30226W        W95046  41.850  10.883   1.514
30227W        W95047   9.243  27.866  13.201
30228W        W95048  40.551  31.351  11.159
30229W        W95049  20.869   6.896   2.332
30230W        W95050  10.992  42.572  13.349
30231W        W95051  30.958  32.626  14.006
30232W        W95052  34.641  18.560   2.251
30233W        W95053  37.941  38.804  13.781
30234W        W95054  17.080  15.199   0.321
30235W        W95055  12.593  11.017  12.551
30236W        W95056   5.085  25.627  13.550
30237W        W95057   1.774  11.466   5.174
30238W        W95058   9.806  18.863   3.846
30239W        W95059  44.421   6.627   0.421
30240W        W95060   1.506  21.052  13.458
30241W        W95061  41.899  10.631  13.477
30242W        W95062  37.277  22.602   0.394
30243W        W95063  44.781  26.271  14.937
30244W        W95064   6.639   9.131   1.349
30245W        W95065  15.891  12.590  11.710
30246W        W95066  36.873   7.825   1.875
30247W        W95067  35.720  15.628  10.685
30248W        W95068  13.663  33.891   9.788
30249W        W95069  31.393   2.363  10.766
30250W        W95070  23.189  38.802  10.785
30251W        W95071  44.848  11.625   3.362
30252W        W95072  19.188  11.811  11.581
30253W        W95073  29.714   3.077  11.666
30254W        W95074   3.290  22.344   0.046
30255W        W95075  36.954  32.422  10.505
30256W        W95076  23.008  24.896   2.296
30257W        W95077   2.746  27.672  12.003
30258W        W95078  22.571  43.656   2.166
30259W        W95079   6.739  36.067  13.875
30260W        W95080   9.826  44.050   4.067
30261W        W95081  11.280  21.235   3.739
30262W        W95082  41.816  34.487   1.573
30263W        W95083  13.348  33.096   3.138
30264W        W95084  26.771  43.940  12.281
30265W        W95085  24.908  22.639   4.646
30266W        W95086  32.065  20.683  13.996
30267W        W95087   9.713   9.227  14.410
30268W        W95088  14.964  44.822  10.620
30269W        W95089   9.892   0.251  11.103
30270W        W95090  23.422  44.908  11.638
30271W        W95091  11.867  14.096   0.810
30272W        W95092  35.940   6.559   4.058
30273W        W95093  22.265  35.878   2.826
30274W        W95094  32.774   8.291   1.452
30275W        W95095  29.398  10.501   0.028
30276W        W95096  30.205   4.177  13.526
30277W        W95097  19.765  17.335  12.557
30278W        W95098  26.732  28.336   2.300
30279W        W95099  38.592  17.792  11.662
30280W        W95100  17.908  44.848  12.865
30281W        W95101  20.150  41.327  12.535
30282W        W95102   3.384  23.279   2.879
30283W        W95103  32.092  33.919   4.601
30284W        W95104  40.517  24.000   1.264
30285W        W95105  24.440  23.077   4.117
30286W        W95106  28.547  33.493  11.833
30287W        W95107  22.671  17.843  14.774
30288W        W95108  17.229  32.995   4.343
30289W        W95109  10.833  42.349  13.782
30290W        W95110  27.239  14.120   1.220
30291W        W95111   4.880  21.161   1.538
30292W        W95112  21.515   0.904   4.124
30293W        W95113  44.059  10.207  14.413
30294W        W95114   8.597  25.434  13.243
30295W        W95115  17.806   5.804   4.734
30296W        W95116  31.486  28.748  14.337
30297W        W95117  20.172  17.196  12.864
30298W        W95118  26.924  18.248   3.220
30299W        W95119   0.130  20.112  11.624
30300W        W95120  39.269  33.084  11.756
30301W        W95121  20.924  18.550  12.947
30302W        W95122  21.211  41.567  13.495
30303W        W95123  43.211  25.622  12.342
30304W        W95124   8.422  14.948  11.031
30305W        W95125  15.908  37.593   2.731
30306W        W95126   4.636  29.613  12.094
30307W        W95127  24.561  16.122  10.673
30308W        W95128  12.706  27.644   2.376
30309W        W95129  17.545  10.275   2.795
30310W        W95130  31.025   7.036   0.764
30311W        W95131  21.257  27.147   1.684
30312W        W95132  21.755   0.484  11.584
30313W        W95133  17.366  21.217  14.816
30314W        W95134   2.653  43.753   0.769
30315W        W95135  17.151   0.947  12.580
30316W        W95136  44.841  18.076   3.424
30317W        W95137  36.659  32.012   4.801
30318W        W95138  15.821  38.304  12.119
30319W        W95139  29.892  43.116   3.652
30320W        W95140  30.007  37.853   1.910
30321W        W95141   1.894  35.119   2.391
30322W        W95142  37.040  24.876   4.457
30323W        W95143  28.528   7.749   4.887
30324W        W95144  19.404   8.082   4.783
30325W        W95145   4.812  12.706  10.724
30326W        W95146   8.535  23.833  12.293
30327W        W95147   6.934   5.442   2.693
30328W        W95148  14.785   3.355  11.477
30329W        W95149  27.855  31.042   0.131
30330W        W95150  12.405   5.977   4.570
30331W        W95151   6.588  40.930  13.354
30332W        W95152  39.536  37.724  12.541
30333W        W95153  10.404  23.710  13.478
30334W        W95154   7.840  19.224   3.455
30335W        W95155  32.588  44.251  14.028
30336W        W95156  37.375  16.595  11.616
30337W        W95157   6.607  31.809  11.234
30338W        W95158  13.813  27.847  11.589
30339W        W95159  24.340   6.072   2.150
30340W        W95160   5.429   5.733  14.412
30341W        W95161  15.800  31.729   4.554
30342W        W95162  37.027  42.655  12.477
30343W        W95163   9.496  37.483   1.596
30344W        W95164   7.632   8.454  13.188
30345W        W95165  29.713  12.142  10.998
30346W        W95166  37.102  22.004   4.606
30347W        W95167  32.006  11.141   1.629
30348W        W95168  24.564  41.276   1.783
30349W        W95169  34.535  13.364  11.270
30350W        W95170   7.929  32.223  11.768
30351W        W95171  37.261  36.393   2.336
30352W        W95172  31.961   4.779  14.834
30353W        W95173  12.348  11.546   0.437
30354W        W95174  43.821  14.356   1.343
30355W        W95175  34.936   6.268  14.926
30356W        W95176  18.864  30.177   0.077
30357W        W95177   1.526  12.400  14.440
30358W        W95178  37.567  42.851   1.778
30359W        W95179   5.972  19.556  10.644
30360W        W95180  38.292  31.587  11.529
30361W        W95181  28.587  11.929  11.124
30362W        W95182  13.395  37.293   1.043
30363W        W95183  12.802  19.190  14.829
30364W        W95184   7.322  41.470   4.087
30365W        W95185  26.077   4.724   1.764
30366W        W95186  21.205  43.992   4.158
30367W        W95187  34.831  36.015   4.257
30368W        W95188  16.039  36.563   3.193
30369W        W95189  28.447   1.305  14.027
30370W        W95190  25.562  18.490   4.031
30371W        W95191  44.093  43.999  13.399
30372W        W95192  36.117  12.853   1.427
30373W        W95193  24.943   2.312  13.352
30374W        W95194  35.558  29.406  11.023
30375W        W95195  25.048  44.453  12.898
30376W        W95196   2.353   2.190  11.151
30377W        W95197   7.855  18.399  13.516
30378W        W95198  44.299  42.786  11.356
30379W        W95199   7.950  12.169   4.185
30380W        W95200  21.062  31.134   4.865
30381W        W95201  42.305  21.272  13.852
30382W        W95202  34.359  18.273  13.662
30383W        W95203  34.120  20.767  13.844
30384W        W95204  26.020  18.653   0.477
30385W        W95205  22.596  17.676   1.154
30386W        W95206  41.331  41.391   4.781
30387W        W95207  19.003  13.950  12.807
30388W        W95208  33.071  20.551   3.443
30389W        W95209  36.605  26.487  10.807
30390W        W95210  35.891  30.478   0.279
30391W        W95211  42.455  17.521  11.984
30392W        W95212  14.715   8.942  14.929
30393W        W95213  34.068  34.122  13.614
30394W        W95214   1.148  19.836  10.964
30395W        W95215  22.676  34.738  14.350
30396W        W95216   7.275   3.147  12.068
30397W        W95217   0.974  32.632   3.266
30398W        W95218  38.491  34.870  12.432
30399W        W95219  44.996   1.846  11.524
30400W        W95220  11.553  43.953  10.859
30401W        W95221  32.433  37.687   3.381
30402W        W95222   9.638   3.568  13.811
30403W        W95223  37.588  34.740   4.035
30404W        W95224  37.614  39.401  11.614
30405W        W95225  43.556  18.835  12.106
30406W        W95226  20.600  32.724  13.459
30407W        W95227  35.931  35.367   4.497
30408W        W95228   0.556  44.499  14.126
30409W        W95229  28.033   9.914   0.903
30410W        W95230  30.645   9.810  13.411
30411W        W95231  39.255  11.844   3.847
30412W        W95232  21.804   5.322   1.498
30413W        W95233  34.705  19.106   2.251
30414W        W95234  18.779  43.030  10.303
30415W        W95235  26.507  33.919   9.752
30416W        W95236   0.340  35.054   1.184
30417W        W95237  42.387  19.014  12.216
30418W        W95238   7.664  35.021  11.696
30419W        W95239  24.185  41.745   0.927
30420W        W95240   3.901  31.411   3.736
30421W        W95241  31.959  10.694  13.631
30422W        W95242  33.677  33.053  12.113
30423W        W95243   6.671  44.838   0.779
30424W        W95244   0.019   7.468   1.302
30425W        W95245   7.311  39.556  10.906
30426W        W95246  31.648   7.097  13.641
30427W        W95247  34.108   8.319  10.824
30428W        W95248  33.515  39.844   3.485
30429W        W95249  15.059  10.464  11.680
30430W        W95250   5.720  11.898  10.670
30431W        W95251   9.762  25.699  12.686
30432W        W95252  41.014  42.370  12.174
30433W        W95253  20.133  18.577   0.675
30434W        W95254  41.231  41.963  11.948
30435W        W95255  41.068  19.674  13.310
30436W        W95256  33.089  18.233   2.104
30437W        W95257  39.333  11.491  10.724
30438W        W95258  14.121  31.528  12.107
30439W        W95259  18.174   0.060   4.347
30440W        W95260  21.873  19.132   9.749
30441W        W95261  12.329  32.312  14.006
30442W        W95262  17.123   5.141  14.409
30443W        W95263  31.559   2.023  12.601
30444W        W95264  26.983   1.691   4.234
30445W        W95265  14.599  37.518   2.900
30446W        W95266  27.583  12.706   1.258
30447W        W95267  39.237   6.282  11.422
30448W        W95268   6.159  38.045  11.946
30449W        W95269  44.905  12.169   3.283
30450W        W95270  38.998  27.146   4.356
30451W        W95271  13.950   5.808   0.933
30452W        W95272  15.302  36.401   2.229
30453W        W95273  28.144   5.332   0.973
30454W        W95274  29.174  31.828  13.953
30455W        W95275   4.200  40.540   4.232
30456W        W95276  39.913   9.183  12.191
30457W        W95277  36.503   0.080   2.895
30458W        W95278  11.175  33.638  13.432
30459W        W95279  41.591  20.673   3.349
30460W        W95280  20.055   1.977   3.516
30461W        W95281  12.774  40.622   4.244
30462W        W95282  32.041  16.727   1.484
30463W        W95283  33.447  22.403   0.906
30464W        W95284  17.215   0.925   2.773
30465W        W95285  21.241  27.131  13.389
30466W        W95286  18.321  39.490  10.893
30467W        W95287   7.870  17.805  10.253
30468W        W95288  40.484  26.688  12.052
30469W        W95289  24.904  30.445  12.502
30470W        W95290  18.802  35.542   3.131
30471W        W95291   6.772  12.138   0.412
30472W        W95292  21.595   1.598  12.448
30473W        W95293  43.870  29.242   2.365
30474W        W95294  29.968  24.099  10.033
30475W        W95295  20.390   7.631   1.320
30476W        W95296  41.075  42.014  13.515
30477W        W95297   8.850   3.797  10.466
30478W        W95298  16.772  40.698   2.151
30479W        W95299  26.685  27.890  12.722
30480W        W95300  28.160  43.809   4.638
30481W        W95301  28.402  24.275  11.248
30482W        W95302  21.168  28.268   1.153
30483W        W95303   4.125   2.556  13.908
30484W        W95304  44.466  27.617   4.204
30485W        W95305  12.352  17.432   0.918
30486W        W95306  41.907  33.494   0.765
30487W        W95307  10.165   9.698  11.253
30488W        W95308  37.272  34.992  12.624
30489W        W95309  33.337   6.515   3.330
30490W        W95310  23.990  34.154  13.489
30491W        W95311  36.079  25.315   9.973
30492W        W95312  16.331  29.615   5.184
30493W        W95313  38.092  42.327   2.272
30494W        W95314  23.525  22.908   4.529
30495W        W95315  24.546  30.887   4.799
30496W        W95316  28.557   7.120  11.592
30497W        W95317   2.834  32.074   3.181
30498W        W95318   3.345  12.796   1.003
30499W        W95319  21.777   3.374   3.196
30500W        W95320   1.966  37.520  12.967
30501W        W95321  29.936   8.916   2.941
30502W        W95322   2.317  30.028  11.093
30503W        W95323  10.769  19.568  11.400
30504W        W95324  25.030  37.461   2.381
30505W        W95325   5.939   5.680   0.653
30506W        W95326  12.072  17.714   1.258
30507W        W95327  40.778  40.479   4.081
30508W        W95328  30.544  27.835  10.983
30509W        W95329  30.120  18.052   0.825
30510W        W95330  13.583  39.060   2.865
30511W        W95331  21.799  34.195   0.346
30512W        W95332  42.931  25.532  13.151
30513W        W95333  11.148  11.641  14.748
30514W        W95334  18.718  29.374  13.867
30515W        W95335  12.531  12.795   1.153
30516W        W95336  42.943   3.716   0.894
30517W        W95337  36.149  44.412  13.461
30518W        W95338  26.574  17.160  14.699
30519W        W95339  12.104  43.740   0.812
30520W        W95340   5.337  43.512  14.569
30521W        W95341  38.905  41.415   0.832
30522W        W95342  32.439   3.541   0.806
30523W        W95343  17.784  36.513  14.647
30524W        W95344  31.691   4.960  14.412
30525W        W95345  24.141  10.255   3.086
30526W        W95346  24.494  16.746   3.539
30527W        W95347   7.916  13.557  12.900
30528W        W95348   7.043  19.654  12.439
30529W        W95349  36.430  33.410   3.677
30530W        W95350  10.286  13.019  10.597
30531W        W95351   4.160  35.625   1.671
30532W        W95352  12.132  28.124   2.115
30533W        W95353   5.089  32.102  14.994
30534W        W95354  36.621  35.568   1.310
30535W        W95355  20.946  10.335   3.615
30536W        W95356  21.174  43.732   4.624
30537W        W95357  12.400  16.159   1.216
30538W        W95358  42.337  27.735   4.525
30539W        W95359  19.980  13.075   4.176
30540W        W95360  18.056  27.947   4.531
30541W        W95361  36.487  36.960  13.843
30542W        W95362  39.420  41.570  11.954
30543W        W95363   3.783  35.109  12.953
30544W        W95364  44.456  42.581  13.186
30545W        W95365  33.225  22.714   9.975
30546W        W95366  31.108  12.270  13.802
30547W        W95367  32.672   0.901  13.966
30548W        W95368   7.998  43.269  12.032
30549W        W95369   6.712  39.480  11.564
30550W        W95370  10.480  42.482  11.955
30551W        W95371   6.808   8.672  14.428
30552W        W95372  43.413  17.358  12.122
30553W        W95373  20.111  33.942   0.992
30554W        W95374  12.299  40.841   2.154
30555W        W95375  26.144  18.972   1.796
30556W        W95376  42.307   7.470   1.323
30557W        W95377   1.400  11.207   2.798
30558W        W95378   1.811   9.290  13.932
30559W        W95379  34.592  41.064   2.971
30560W        W95380  18.021   8.786  11.189
30561W        W95381  42.815   8.772   2.287
30562W        W95382  26.888  36.498   3.163
30563W        W95383  34.829  31.989  10.603
30564W        W95384  21.630  28.035   2.447
30565W        W95385   2.924  10.342  10.578
30566W        W95386  35.509  19.615  13.574
30567W        W95387  28.065  44.544   4.180
30568W        W95388  35.730  29.692  13.626
30569W        W95389   2.114  34.807   0.812
30570W        W95390  25.845  36.046  13.089
30571W        W95391  28.954  18.484   0.442
30572W        W95392  44.798  32.089   2.699
30573W        W95393  40.624   0.369   5.000
30574W        W95394  34.943   0.064   3.736
30575W        W95395  34.946  23.022   0.646
30576W        W95396  25.945  19.603   3.133
30577W        W95397   6.696  20.092  13.591
30578W        W95398  32.000  19.242   3.669
30579W        W95399  15.171  21.503   1.319
30580W        W95400  23.860   9.913  11.015
30581W        W95401  10.788  24.052   4.539
30582W        W95402   6.677   2.516   0.753
30583W        W95403  28.140  21.760  11.210
30584W        W95404   9.312  26.702  13.564
30585W        W95405  17.084   9.551  11.839
30586W        W95406  31.668  29.099   1.935
30587W        W95407   0.955  31.019  13.894
30588W        W95408  27.237   4.674   2.285
30589W        W95409  20.094  37.099  14.644
30590W        W95410   0.576   3.957   1.610
30591W        W95411  21.916  43.439  14.818
30592W        W95412  43.472  30.339   3.651
30593W        W95413  34.930  30.162  10.533
30594W        W95414  25.977  40.555   0.897
30595W        W95415  37.115  23.600   1.671
30596W        W95416  10.895  18.293   1.052
30597W        W95417  12.020  15.723  12.430
30598W        W95418  37.261  11.530  14.568
30599W        W95419  41.350  28.525  13.255
30600W        W95420  11.906  36.453   4.999
30601W        W95421   7.138  40.841  11.349
30602W        W95422  23.662  11.256   2.754
30603W        W95423   2.254  40.357  11.674
30604W        W95424   6.833  11.228  13.499
30605W        W95425  25.450  11.083  13.928
30606W        W95426   9.759  25.036  14.358
30607W        W95427  18.682  12.295  11.140
30608W        W95428  37.375  16.038   1.441
30609W        W95429  41.261  17.646  12.370
30610W        W95430   7.832   3.738   2.605
30611W        W95431   8.898  17.761   3.236
30612W        W95432  40.899  43.819   2.848
30613W        W95433   1.649   7.698  11.104
30614W        W95434  44.867   7.889   3.427
30615W        W95435   1.504   1.784  13.893
30616W        W95436   5.450  44.842   3.837
30617W        W95437  40.987  15.336  10.667
30618W        W95438  12.618  30.414   2.920
30619W        W95439  31.551  43.027  12.303
30620W        W95440  40.332   8.324   1.972
30621W        W95441  41.898  25.787   3.645
30622W        W95442  19.949  21.961   0.856
30623W        W95443  35.866  12.574  12.910
30624W        W95444   9.903  35.370   3.592
30625W        W95445  39.002  35.201   4.900
30626W        W95446  35.657  14.334   3.321
30627W        W95447  32.540  20.631  13.038
30628W        W95448  34.047  16.782   4.456
30629W        W95449  25.944  41.764   0.271
30630W        W95450   2.416   8.923  12.549
30631W        W95451  31.545   9.558  11.260
30632W        W95452  20.378   0.290  13.797
30633W        W95453  29.741  30.550   1.123
30634W        W95454  22.671  23.518  13.345
30635W        W95455  32.370   2.181  13.613
30636W        W95456  37.665  39.010   3.209
30637W        W95457  28.127   9.365  12.013
30638W        W95458   4.654  22.044  10.243
30639W        W95459  30.961  16.933  11.611
30640W        W95460  27.504  38.503  11.975
30641W        W95461  25.231  23.235   3.568
30642W        W95462  13.049  20.638  11.635
30643W        W95463   1.054  14.418   5.202
30644W        W95464  28.959  29.412  11.890
30645W        W95465   1.861   2.362   1.352
30646W        W95466  25.127  26.530   0.333
30647W        W95467  11.159  40.149   3.411
30648W        W95468  26.707  36.548  12.495
30649W        W95469  19.249  12.185   1.825
30650W        W95470  19.030  33.465   2.024
30651W        W95471  37.087  28.949  12.557
30652W        W95472  30.469  13.225  11.098
30653W        W95473   9.766  30.220  14.363
30654W        W95474   6.503  43.173  11.196
30655W        W95475  17.598  44.563  13.809
30656W        W95476   4.893  16.686  14.091
30657W        W95477   0.709  36.039   0.792
30658W        W95478  41.862  21.041  11.715
30659W        W95479  11.147   4.451   2.743
30660W        W95480  13.677  26.922   3.500
30661W        W95481  10.300   7.687   3.653
30662W        W95482  10.774  10.561  13.445
30663W        W95483  40.903  43.973  11.141
30664W        W95484  35.842  44.758   0.009
30665W        W95485   8.172  20.614  12.995
30666W        W95486   9.744  41.281  12.501
30667W        W95487  13.130   5.000   3.419
30668W        W95488  28.857  39.054  11.838
30669W        W95489   6.664  29.623  13.311
30670W        W95490  42.673  12.133   4.596
30671W        W95491  32.077  32.021  10.637
30672W        W95492   0.941  21.032   1.197
30673W        W95493  31.401  25.966   1.265
30674W        W95494  41.355   7.823   1.471
30675W        W95495  43.485  33.393  12.830
30676W        W95496  12.724   1.753  10.973
30677W        W95497  16.819  41.548  12.366
30678W        W95498   4.918  12.030  14.057
30679W        W95499  17.491  19.666   1.359
30680W        W95500  21.255  32.138   0.880
30681W        W95501  23.682   6.426  13.483
30682W        W95502  15.529  23.146   0.310
30683W        W95503  16.242  38.616   1.417
30684W        W95504  32.655  44.651  12.131
30685W        W95505   2.231  34.936  13.910
30686W        W95506   0.763  43.724  12.607
30687W        W95507  27.964  27.486  11.506
30688W        W95508   0.878  10.634  12.928
30689W        W95509  22.077   2.257   2.804
30690W        W95510  26.482   4.163   4.685
30691W        W95511  18.951   0.877  14.872
30692W        W95512  21.381   4.282  10.367
30693W        W95513  10.648  21.039  11.501
30694W        W95514  34.937  24.443  14.113
30695W        W95515   4.683   1.583   0.386
30696W        W95516   1.743  37.872  11.979
30697W        W95517  23.666  22.994  14.526
30698W        W95518   1.950  37.046  13.885
30699W        W95519  37.039  13.190   2.189
30700W        W95520   3.739   0.284   1.375
30701W        W95521  21.518   7.774  14.979
30702W        W95522   2.496  28.168   1.955
30703W        W95523  13.658   5.703   3.283
30704W        W95524  27.052  26.616   4.740
30705W        W95525  33.469  25.838   4.179
30706W        W95526  33.366  36.530  12.856
30707W        W95527  24.651  20.399   1.775
30708W        W95528   1.715   6.249   4.536
30709W        W95529  43.991   4.316  11.610
30710W        W95530  20.506  35.018  11.449
30711W        W95531   9.140   3.697  14.172
30712W        W95532  43.073  40.948   3.755
30713W        W95533  10.739   3.495   2.790
30714W        W95534  32.698  10.675  11.667
30715W        W95535  14.218  43.507  13.398
30716W        W95536  12.678  31.709   3.941
30717W        W95537   0.194   2.490   2.709
30718W        W95538   4.395  40.741   3.808
30719W        W95539  24.583  26.647  10.673
30720W        W95540   5.967  19.806   0.492
30721W        W95541  37.470  20.211  12.876
30722W        W95542  22.216  41.300   0.153
30723W        W95543  12.675  33.102   1.435
30724W        W95544  29.472  11.907   3.738
30725W        W95545   2.283  44.980  13.309
30726W        W95546  20.234   3.397  13.080
30727W        W95547  10.794  37.583   1.674
30728W        W95548  37.340  31.147  11.227
30729W        W95549  33.845  25.770   1.338
30730W        W95550  25.113  41.742   4.578
30731W        W95551  38.751  24.861   5.062
30732W        W95552  11.488   8.769  14.991
30733W        W95553  37.087  33.892   2.360
30734W        W95554  35.671  26.376   2.316
30735W        W95555  36.774  11.598   2.706
30736W        W95556  33.521  21.502   4.148
30737W        W95557   7.950  43.182   0.215
30738W        W95558  40.104  10.092   4.960
30739W        W95559  25.909  29.485   1.506
30740W        W95560  41.057  23.062  11.197
30741W        W95561  39.295   1.789  12.327
30742W        W95562   5.680   7.839  14.864
30743W        W95563   4.815   3.685  14.352
30744W        W95564  20.992  27.569  13.472
30745W        W95565  29.840  25.187  13.461
30746W        W95566  44.926  19.029  10.934
30747W        W95567  34.112   3.889   4.026
30748W        W95568  17.294   7.288  13.564
30749W        W95569   4.766  15.737   3.311
30750W        W95570   7.459  33.633   0.578
30751W        W95571  42.050  10.326   0.267
30752W        W95572  42.977  20.577   3.061
30753W        W95573   2.774  26.168   4.248
30754W        W95574  11.610  38.020  13.281
30755W        W95575  44.161  42.810  14.994
30756W        W95576  37.347  32.500   1.444
30757W        W95577   0.309  44.977  13.395
30758W        W95578  16.098  26.838   0.875
30759W        W95579  43.499  34.910  13.363
30760W        W95580  41.797  34.550   3.062
30761W        W95581  21.161   2.272   1.362
30762W        W95582  43.353  26.735  13.508
30763W        W95583  35.014  20.123  11.153
30764W        W95584  11.888  36.199   1.684
30765W        W95585   2.967  27.921   0.834
30766W        W95586   3.144   0.612  10.946
30767W        W95587   0.214  40.034   0.420
30768W        W95588  25.027   9.249  13.830
30769W        W95589  24.979  38.132   3.762
30770W        W95590  37.501  36.425  11.145
30771W        W95591  34.328   9.505   4.172
30772W        W95592  36.814  25.975   3.283
30773W        W95593   1.201  25.850   2.231
30774W        W95594  32.817  20.853  12.000
30775W        W95595  37.000  39.872  14.003
30776W        W95596  43.499   1.296  10.719
30777W        W95597  20.491  39.109   4.726
30778W        W95598  22.742  10.168  11.967
30779W        W95599   3.530  28.657   2.445
30780W        W95600  33.064  35.603   1.901
30781W        W95601  13.719  15.088   2.881
30782W        W95602   4.927  16.849   0.327
30783W        W95603   2.476   3.274  13.334
30784W        W95604  36.248   8.343   4.478
30785W        W95605  26.431  31.566  11.532
30786W        W95606  28.684  20.757  14.413
30787W        W95607   7.168  21.455   4.085
30788W        W95608  44.783  21.837  11.018
30789W        W95609  34.695  33.080   0.921
30790W        W95610  21.786  26.374  14.848
30791W        W95611  15.113  25.892   4.668
30792W        W95612   1.556  13.607   2.802
30793W        W95613  33.201  20.030  14.354
30794W        W95614  34.912  18.574   0.004
30795W        W95615   2.741  27.917   4.545
30796W        W95616   3.893  19.945   0.470
30797W        W95617   4.945  38.003  12.319
30798W        W95618  33.762  24.486  12.104
30799W        W95619  39.366   4.646   2.338
30800W        W95620  13.014  30.682   2.700
30801W        W95621  40.955  40.480   1.550
30802W        W95622  10.773   8.368   2.640
30803W        W95623  17.369  16.574   3.642
30804W        W95624  19.080  38.674  12.285
30805W        W95625  15.235  14.236  13.894
30806W        W95626  16.355  25.935  11.639
30807W        W95627   6.490  33.663  12.572
30808W        W95628   8.237  30.210  13.083
30809W        W95629  36.016  27.144  13.879
30810W        W95630  21.260  25.127  10.568
30811W        W95631  43.704   1.146   1.912
30812W        W95632  15.639  43.344   4.730
30813W        W95633  20.203   5.171   2.339
30814W        W95634  11.061  37.562   2.326
30815W        W95635  31.769  41.489  14.027
30816W        W95636  26.338  37.123  11.248
30817W        W95637  25.107  28.998  10.921
30818W        W95638  30.431  24.003  14.903
30819W        W95639  28.015   8.417   1.929
30820W        W95640  20.110  14.854  13.371
30821W        W95641  27.991  13.892   3.626
30822W        W95642  42.005  33.363   2.727
30823W        W95643  39.191  34.738  13.035
30824W        W95644  17.697  26.994  14.260
30825W        W95645  39.412  26.247  10.619
30826W        W95646  31.382  39.941  10.798
30827W        W95647  41.864  29.952   0.826
30828W        W95648  42.686  40.039  14.778
30829W        W95649  30.212   7.782  11.600
30830W        W95650   9.261  44.303   3.380
30831W        W95651  39.613  44.939  14.009
30832W        W95652  36.000  34.961   1.875
30833W        W95653  23.546  15.349  13.556
30834W        W95654  10.800  41.608  14.567
30835W        W95655  11.819  26.841  11.831
30836W        W95656  26.524  10.824   4.404
30837W        W95657   0.443  36.751  13.821
30838W        W95658  25.178   5.327  13.440
30839W        W95659  41.786  11.190   1.095
30840W        W95660  39.497  17.638   3.902
30841W        W95661  32.403   2.334  14.592
30842W        W95662  24.677  20.406  13.024
30843W        W95663  19.311  34.865   3.703
30844W        W95664   5.423  30.878   1.054
30845W        W95665   7.340  36.539  13.416
30846W        W95666  29.904  30.084   1.297
30847W        W95667  13.178  16.669  13.471
30848W        W95668  23.171  13.179   1.503
30849W        W95669  17.651   3.403  11.711
30850W        W95670  30.851  17.926   4.634
30851W        W95671  36.983   4.701  14.903
30852W        W95672   7.855  28.178  13.713
30853W        W95673  32.811  10.687   2.349
30854W        W95674  42.412  15.113  11.075
30855W        W95675  43.475  11.641  13.922
30856W        W95676  37.793  15.252  14.884
30857W        W95677   3.092   1.050  12.742
30858W        W95678  43.574  37.983  14.898
30859W        W95679  33.881  33.492  11.052
30860W        W95680  23.749  34.625  13.521
30861W        W95681  20.655  28.721  12.178
30862W        W95682  13.235  16.875   5.490
30863W        W95683  41.965  39.858   4.123
30864W        W95684  29.074  18.112  12.542
30865W        W95685  28.919   3.711  11.600
30866W        W95686  26.145  43.308  11.406
30867W        W95687  40.933   0.649   0.623
30868W        W95688  12.947  17.830   3.718
30869W        W95689  23.550  42.316  14.263
30870W        W95690  14.598  24.511   3.795
30871W        W95691  33.000   5.536   3.357
30872W        W95692   0.796  35.186  12.027
30873W        W95693  10.230  38.563  12.901
30874W        W95694  12.745   0.393  13.734
30875W        W95695  40.278  27.732  10.993
30876W        W95696  30.983  15.261  12.900
30877W        W95697  36.127  15.162   3.623
30878W        W95698   7.275  44.334   1.065
30879W        W95699  22.984  31.454  14.770
30880W        W95700   9.843   5.415  11.980
30881W        W95701  40.837  42.435   4.345
30882W        W95702   6.843  41.760  10.521
30883W        W95703  32.766  43.115  10.289
30884W        W95704   7.171  44.629   1.748
30885W        W95705  17.314   4.317  14.734
30886W        W95706  12.067  11.482  10.174
30887W        W95707  39.103  26.021  14.878
30888W        W95708  22.892  33.131  11.156
30889W        W95709  22.603  15.914   0.498
30890W        W95710  42.463   6.067   1.717
30891W        W95711  14.377   6.303   4.971
30892W        W95712  38.594  22.590  10.989
30893W        W95713  39.450  33.282   2.566
30894W        W95714   6.753   7.792   3.604
30895W        W95715  41.551  18.577   4.586
30896W        W95716  44.879  20.802   1.859
30897W        W95717   1.356  38.902  11.921
30898W        W95718  40.177  36.928   4.379
30899W        W95719  26.126  10.278   4.333
30900W        W95720  25.185   5.528   1.226
30901W        W95721  43.736   9.842   1.863
30902W        W95722  15.351  33.210  13.598
30903W        W95723  22.496  28.200   4.903
30904W        W95724  20.970   4.635  14.858
30905W        W95725   2.180  26.814   3.329
30906W        W95726  31.130  31.068   3.612
30907W        W95727  20.522   4.843  12.468
30908W        W95728  44.540  44.026  13.606
30909W        W95729  20.181  32.605  11.256
30910W        W95730   2.988  39.645   0.614
30911W        W95731  40.910  42.057  11.029
30912W        W95732   8.849  39.356  12.463
30913W        W95733   2.557  42.656   4.552
30914W        W95734   8.806  34.190   4.406
30915W        W95735  23.200  13.706  11.636
30916W        W95736  18.158   3.441  14.509
30917W        W95737  23.534   5.626   0.708
30918W        W95738  25.082  26.682  12.885
30919W        W95739  34.518  36.959   0.737
30920W        W95740  39.621  21.833  12.500
30921W        W95741  25.000  43.467  12.937
30922W        W95742  18.054  34.181   4.906
30923W        W95743  27.749  25.276   5.232
30924W        W95744  44.826  28.101   2.858
30925W        W95745  32.461  29.965   2.786
30926W        W95746  30.016   1.368   2.653
30927W        W95747   9.332  40.391   4.356
30928W        W95748  18.720  40.881  14.995
30929W        W95749  38.897   7.987  13.076
30930W        W95750  37.911  15.297  13.864
30931W        W95751   7.597  26.651  14.206
30932W        W95752  11.055  27.550  11.321
30933W        W95753  33.392  21.425   0.809
30934W        W95754  10.220  37.441   0.901
30935W        W95755  11.558  34.096   2.363
30936W        W95756  39.817  25.197  13.040
30937W        W95757  36.848   2.181  14.328
30938W        W95758  39.988  10.256  12.636
30939W        W95759   6.552  18.727  10.501
30940W        W95760  33.155  24.982  13.489
30941W        W95761  23.522  36.152  12.457
30942W        W95762  10.629   9.054   3.747
30943W        W95763  40.469  30.030  13.368
30944W        W95764  12.847  25.161   2.526
30945W        W95765  44.311  17.486  10.537
30946W        W95766  16.338  12.627  12.926
30947W        W95767   8.137  26.984  13.661
30948W        W95768  33.014  27.004   4.064
30949W        W95769  36.836  31.066   2.687
30950W        W95770  19.185  12.174   3.878
30951W        W95771  25.148   7.773  10.657
30952W        W95772  39.313  39.240  12.591
30953W        W95773  32.855  19.592  11.514
30954W        W95774  27.991  15.293  13.144
30955W        W95775  40.454  13.967   4.187
30956W        W95776  23.579  18.978  10.680
30957W        W95777   2.823  22.556  11.149
30958W        W95778   4.925  17.030  14.820
30959W        W95779  43.317  31.055  11.570
30960W        W95780  23.559  32.860   3.771
30961W        W95781  41.769  17.788  13.895
30962W        W95782  15.565  22.745   1.057
30963W        W95783  29.139   4.216   3.422
30964W        W95784  34.145  40.372   0.425
30965W        W95785  34.413  42.336  12.397
30966W        W95786  13.765  35.792  13.927
30967W        W95787  18.054  32.347   1.669
30968W        W95788  39.763  14.179   1.999
30969W        W95789  10.745  39.761  13.372
30970W        W95790   2.864  42.338  13.875
30971W        W95791  35.559  33.924  11.862
30972W        W95792   9.723   3.066   4.192
30973W        W95793  15.044  41.260  14.008
30974W        W95794   6.229  38.863   3.250
30975W        W95795  12.634   7.759   3.616
30976W        W95796   3.818  41.827   0.410
30977W        W95797  40.993   3.893   0.942
30978W        W95798  10.166  33.390  10.330
30979W        W95799  10.754   6.384   2.279
30980W        W95800  29.395  21.362  12.466
30981W        W95801  16.682  20.067   2.806
30982W        W95802  39.256  26.716   1.977
30983W        W95803  14.819  18.363   3.658
30984W        W95804  18.121  11.302   4.368
30985W        W95805  30.630   2.666  14.944
30986W        W95806   5.422  11.834   1.260
30987W        W95807  41.399   7.691   0.935
30988W        W95808   3.694  25.226  12.504
30989W        W95809  40.489  17.214   0.391
30990W        W95810  42.001  32.393  10.614
30991W        W95811  41.796  41.469  13.424
30992W        W95812  44.649  12.297  11.580
30993W        W95813   9.643   2.199   4.751
30994W        W95814  29.939  35.647   1.350
30995W        W95815  27.800  28.069  13.525
30996W        W95816  29.266   7.120   0.243
30997W        W95817  35.512  32.029  12.306
30998W        W95818   9.460  40.531   0.437
30999W        W95819   4.500  10.228  11.519
31000W        W95820  44.512   1.302   2.347
31001W        W95821  12.332  30.678   1.335
31002W        W95822  33.875  20.660  12.908
31003W        W95823  36.377  44.297   3.135
31004W        W95824   2.844  21.526   3.575
31005W        W95825  37.375   2.758   3.750
31006W        W95826  18.930   1.416  13.048
31007W        W95827  20.061  15.462  11.452
31008W        W95828  27.837   4.494   1.482
31009W        W95829  24.005   9.336   2.168
31010W        W95830  18.494  37.886  13.941
31011W        W95831  20.962  41.002  11.146
31012W        W95832  13.623  19.325   0.924
31013W        W95833  10.277  40.685  13.430
31014W        W95834  43.050  26.929   2.349
31015W        W95835  33.422   9.378  14.469
31016W        W95836  23.478   0.016  14.961
31017W        W95837  16.019  44.879   2.185
31018W        W95838  28.335  35.805  14.008
31019W        W95839   4.801   2.023  11.026
31020W        W95840  24.003  39.821   1.343
31021W        W95841  34.416  17.345   0.966
31022W        W95842  10.138  12.836  11.416
31023W        W95843  35.099   6.411   4.878
31024W        W95844   4.266  41.868  13.498
31025W        W95845  37.444  30.138   1.973
31026W        W95846   1.849  23.280  12.996
31027W        W95847   6.158  28.749  14.152
31028W        W95848  21.206   1.033  11.371
31029W        W95849  22.979  25.988   4.841
31030W        W95850  38.105  16.058  10.861
31031W        W95851  10.927  39.889  14.302
31032W        W95852   9.759  24.079  11.190
31033W        W95853  18.921  29.895   3.087
31034W        W95854  31.514  34.438   2.109
31035W        W95855  18.838  38.895   3.840
31036W        W95856  19.505  27.115   3.629
31037W        W95857  13.555  39.897   1.916
31038W        W95858  22.211   1.353   4.381
31039W        W95859  31.113  16.190   5.071
31040W        W95860  44.785  38.053  14.525
31041W        W95861   5.869  33.550   1.880
31042W        W95862  40.600  38.521   3.182
31043W        W95863   2.254  25.722   1.888
31044W        W95864  35.413  21.574  11.608
31045W        W95865  22.652  30.295   1.834
31046W        W95866  32.583   4.732  11.198
31047W        W95867  23.245  15.644   1.275
31048W        W95868  25.485  39.719   1.413
31049W        W95869  27.673  44.844  12.701
31050W        W95870  24.525  42.883  12.443
31051W        W95871  43.439  27.144   4.739
31052W        W95872  42.964  21.124  14.905
31053W        W95873   2.513  31.542  14.726
31054W        W95874  32.969  14.150   2.114
31055W        W95875  29.745  32.946   2.514
31056W        W95876  35.057   1.987   9.636
31057W        W95877  14.141   2.867   0.418
31058W        W95878  19.906  14.562   0.340
31059W        W95879  32.612  28.247  12.552
31060W        W95880  37.941  13.736  12.140
31061W        W95881  30.098  27.942   1.729
31062W        W95882   5.175  41.685   3.770
31063W        W95883  18.087  31.127  14.825
31064W        W95884   9.538  43.801   1.413
31065W        W95885  38.959  19.867  12.066
31066W        W95886   3.755  44.986   4.090
31067W        W95887  28.120  12.396   2.383
31068W        W95888   9.833  36.453   0.858
31069W        W95889   7.186  27.933   1.007
31070W        W95890  38.628  32.552   1.451
31071W        W95891  40.349   8.756   1.661
31072W        W95892  43.648  43.311   1.802
31073W        W95893  31.922  11.167   3.695
31074W        W95894   3.350  10.212   0.807
31075W        W95895  35.623  36.625  12.051
31076W        W95896  40.606   4.639  12.030
31077W        W95897  41.821  21.130   3.252
31078W        W95898  22.594  16.354   4.515
31079W        W95899  19.019  36.316  14.500
31080W        W95900  18.969   7.220  12.529
31081W        W95901  44.305   5.273  12.168
31082W        W95902   0.549  36.903  12.067
31083W        W95903  27.040   4.615  13.914
31084W        W95904  32.350  39.369   2.307
31085W        W95905   0.290  29.149  13.977
31086W        W95906  16.913   9.235   2.082
31087W        W95907  10.771  36.286  12.528
31088W        W95908  35.284  31.607   4.294
31089W        W95909  15.893   6.197  13.898
31090W        W95910  18.238  28.460  12.374
31091W        W95911  24.704  10.737  14.043
31092W        W95912  39.887   8.374   4.691
31093W        W95913  33.629  11.340   3.495
31094W        W95914  21.464  20.759  14.951
31095W        W95915  41.372  15.755   0.281
31096W        W95916   7.632  36.968   4.344
31097W        W95917   9.711  22.703   0.937
31098W        W95918  14.834  19.210  12.517
31099W        W95919  13.123  14.688   0.378
31100W        W95920  28.663  35.344  14.072
31101W        W95921  16.848  44.410  13.268
31102W        W95922  26.074  37.013   3.539
31103W        W95923  16.756  37.512   2.873
31104W        W95924  30.495  13.608  12.134
31105W        W95925  40.291  27.613  13.356
31106W        W95926  35.957  14.106  13.727
31107W        W95927  23.179  35.481  11.583
31108W        W95928  28.581  20.183   0.474
31109W        W95929  23.165  30.870   3.697
31110W        W95930  15.644  44.354   5.022
31111W        W95931  33.086  14.688   1.149
31112W        W95932  30.374  27.285   4.637
31113W        W95933  44.244  19.782   4.578
31114W        W95934  24.817   7.117  12.290
31115W        W95935  40.292  12.443  12.592
31116W        W95936  30.346  35.535  11.882
31117W        W95937   6.642  26.758   5.250
31118W        W95938  37.441  23.689   2.923
31119W        W95939  23.181  43.278  14.500
31120W        W95940  16.041  35.533   4.082
31121W        W95941  14.203  30.861  14.943
31122W        W95942  33.343  21.109  11.185
31123W        W95943  42.912  14.938  11.119
31124W        W95944  14.299  31.940   3.256
31125W        W95945  40.108   4.604   4.140
31126W        W95946  26.730  32.161  11.292
31127W        W95947  24.069  41.028  13.979
31128W        W95948  27.359  12.137  12.424
31129W        W95949  21.969  37.449  11.166
31130W        W95950  38.580   4.213  14.582
31131W        W95951   1.595  43.076  11.788
31132W        W95952  15.791   8.301   3.750
31133W        W95953   7.941  29.645  12.269
31134W        W95954  15.092  16.838  14.862
31135W        W95955  29.634   6.238   2.609
31136W        W95956  36.021  15.799   5.047
31137W        W95957   7.345  44.777  12.892
31138W        W95958  43.027  23.563   4.679
31139W        W95959  40.604   6.467  11.179
31140W        W95960   7.991  12.832   4.604
31141W        W95961  25.164   9.129   3.812
31142W        W95962  11.452   6.977  11.199
31143W        W95963  26.544   4.381  10.827
31144W        W95964  42.817  39.337   0.862
31145W        W95965  43.774  41.946   0.188
31146W        W95966  25.925  18.692  14.520
31147W        W95967  22.581   0.961   0.434
31148W        W95968  12.187  12.610  10.322
31149W        W95969   0.393  35.665  11.552
31150W        W95970  20.123  10.265   2.976
31151W        W95971   7.834  26.195  14.306
31152W        W95972  43.051  20.119   3.702
31153W        W95973  27.855  23.622   1.828
31154W        W95974   0.701  12.654  10.662
31155W        W95975  35.862   4.787  12.816
31156W        W95976  21.740  35.864  13.970
31157W        W95977   7.377  27.091  12.550
31158W        W95978   0.802  17.334  14.107
31159W        W95979  39.858   3.228  12.093
31160W        W95980  36.128  17.937  11.136
31161W        W95981  12.641  40.014   2.929
31162W        W95982  10.673  17.041  14.446
31163W        W95983  19.807  28.374  12.966
31164W        W95984  41.017  44.904   2.372
31165W        W95985   8.447   0.042  10.671
31166W        W95986  38.544  16.304  11.061
31167W        W95987  36.928   1.426   1.770
31168W        W95988   0.020  32.862  14.056
31169W        W95989  12.311   8.879   4.219
31170W        W95990   3.266  26.477  13.243
31171W        W95991  20.191  21.808  12.785
31172W        W95992  40.413  22.758   3.624
31173W        W95993   1.534  29.804  11.568
31174W        W95994  17.011  23.661   2.131
31175W        W95995  28.539   8.537   3.321
31176W        W95996  24.713   7.280  11.810
31177W        W95997  30.372  26.423  13.539
31178W        W95998  44.818  11.626  14.198
31179W        W95999  14.984  36.377   9.971
31180W        W96000  33.691  31.810   3.620
31181W        W96001  21.117  14.218  10.307
31182W        W96002  43.115  33.689  14.770
31183W        W96003  19.626  29.843  14.285
31184W        W96004  23.116  27.043  11.000
31185W        W96005  38.704  33.758  14.423
31186W        W96006  32.698  10.932  14.025
31187W        W96007  16.734  22.793  11.503
31188W        W96008  37.613   5.305  12.580
31189W        W96009  35.899  33.582  14.266
31190W        W96010  18.607  18.249  13.287
31191W        W96011  41.904  36.471  13.925
31192W        W96012  29.889  18.673   2.628
31193W        W96013  28.443  10.148  14.325
31194W        W96014  10.744   5.737   2.588
31195W        W96015  28.206  13.782  12.893
31196W        W96016  25.711  18.695   2.172
31197W        W96017   6.821  13.847  13.544
31198W        W96018  19.255  44.134  11.209
31199W        W96019   3.808  42.479   3.923
31200W        W96020  24.648  33.555  14.490
31201W        W96021  10.070   5.761  11.376
31202W        W96022  19.989   3.387   2.935
31203W        W96023  11.003  27.477  13.526
31204W        W96024  16.736  10.353  13.978
31205W        W96025  24.512   5.860   2.605
31206W        W96026   2.230  33.670   1.208
31207W        W96027   2.656  31.937   3.669
31208W        W96028   3.505  31.408  12.047
31209W        W96029  42.149  12.633  13.501
31210W        W96030  25.109   9.677  14.076
31211W        W96031  13.367  36.410   0.355
31212W        W96032  19.684  31.658  14.957
31213W        W96033  24.225  25.653  13.267
31214W        W96034  14.568  18.671   0.347
31215W        W96035   0.164   3.629   0.730
31216W        W96036  18.689  27.623   2.672
31217W        W96037  24.798  26.513  12.473
31218W        W96038  33.061  23.773  12.713
31219W        W96039  29.497  20.674  14.100
31220W        W96040  13.407   1.281  13.905
31221W        W96041  24.499   7.385   3.806
31222W        W96042  13.809  36.913   2.704
31223W        W96043  35.563  41.832  11.636
31224W        W96044  17.147  28.091   4.592
31225W        W96045  43.389  41.604  12.397
31226W        W96046  25.956  26.513  13.300
31227W        W96047  28.120  40.091   2.621
31228W        W96048  44.269  33.977   3.303
31229W        W96049  25.500  22.359  14.791
31230W        W96050  12.630  10.447  10.862
31231W        W96051  24.712   1.852   3.812
31232W        W96052  41.424  32.312   0.382
31233W        W96053  23.208   2.172   2.949
31234W        W96054   7.452   2.318   2.126
31235W        W96055  25.060   2.965  11.942
31236W        W96056  28.133  13.574   4.030
31237W        W96057  19.707   3.726  12.477
31238W        W96058  10.721  40.822  12.435
31239W        W96059  33.647  21.789   1.056
31240W        W96060  14.317  16.832  12.083
31241W        W96061  15.244  28.105   2.746
31242W        W96062  34.181  34.555   1.434
31243W        W96063  19.352  36.347  13.510
31244W        W96064   2.957  36.598   0.281
31245W        W96065   5.066  30.583   5.099
31246W        W96066  25.391   3.736  13.443
31247W        W96067   2.924   4.888   1.256
31248W        W96068  11.336  40.999   2.294
31249W        W96069  14.849  16.520   5.104
31250W        W96070  44.617  19.253  11.598
31251W        W96071  24.044  40.849   3.678
31252W        W96072  28.548  39.113  13.353
31253W        W96073  26.052  33.236  13.323
31254W        W96074  22.278  28.196   3.260
31255W        W96075  24.965  11.629  11.208
31256W        W96076  24.663  19.517  14.314
31257W        W96077  23.648  14.396  12.953
31258W        W96078  18.129   7.809  13.873
31259W        W96079  33.200  16.583  14.825
31260W        W96080  44.806  31.911  14.063
31261W        W96081  32.813  10.803   1.830
31262W        W96082  25.294  38.776   1.530
31263W        W96083  12.684  33.383   4.155
31264W        W96084  41.895  44.844  11.884
31265W        W96085  36.796  33.644  12.844
31266W        W96086  16.254  43.477   4.217
31267W        W96087  20.247  16.665  14.113
31268W        W96088  15.179  21.006   1.351
31269W        W96089  14.148  36.434  14.192
31270W        W96090  21.545  11.599   9.905
31271W        W96091  30.155  14.162   0.205
31272W        W96092  27.697   6.083  11.255
31273W        W96093  27.521  35.088   3.273
31274W        W96094  16.085  16.821  11.920
31275W        W96095  44.928  11.331   2.913
31276W        W96096  34.876  19.753  14.407
31277W        W96097  14.779  18.751   3.253
31278W        W96098  19.981   3.935   0.885
31279W        W96099  20.624  31.098   4.566
31280W        W96100   6.759  17.013  13.846
31281W        W96101  38.902  32.056  10.112
31282W        W96102   7.835  37.106   2.706
31283W        W96103  12.164  39.856   4.201
31284W        W96104  28.056   6.964  11.455
31285W        W96105  20.624  11.364   1.187
31286W        W96106  29.251   0.699  13.489
31287W        W96107  18.800  37.861   0.325
31288W        W96108  38.626  34.576   2.804
31289W        W96109  23.122  42.767   1.382
31290W        W96110  28.738   3.968   2.665
31291W        W96111  20.575  27.457   2.845
31292W        W96112  33.730  20.252  10.764
31293W        W96113  41.561   1.890  12.496
31294W        W96114  22.248  10.317  12.101
31295W        W96115  23.656  25.833   4.082
31296W        W96116  20.569  29.455   0.664
31297W        W96117  37.421  26.107  14.337
31298W        W96118  27.930  30.246  10.243
31299W        W96119   8.768   0.324  10.143
31300W        W96120  19.896  25.142  10.882
31301W        W96121  40.950  12.852   4.380
31302W        W96122  10.103  27.664   2.663
31303W        W96123   9.286  17.995  11.239
31304W        W96124  38.415   3.110  10.307
31305W        W96125  12.397  28.644   4.684
31306W        W96126   9.106  31.886   0.304
31307W        W96127  24.304  30.920   2.081
31308W        W96128  36.789  28.811   3.662
31309W        W96129  37.258  21.794   1.796
31310W        W96130  43.765  23.554   4.515
31311W        W96131  25.158  42.369  14.980
31312W        W96132   9.248  20.202   3.272
31313W        W96133  41.954  17.688   1.284
31314W        W96134  29.504  12.251   0.676
31315W        W96135  16.448  35.660  13.478
31316W        W96136  21.207  39.421   4.065
31317W        W96137  10.685  13.742   3.640
31318W        W96138  37.046  11.123  11.713
31319W        W96139  34.124  39.954   0.734
31320W        W96140   6.622  15.418   0.144
31321W        W96141  34.985  18.185   2.410
31322W        W96142   4.621  38.067  11.935
31323W        W96143  38.478  23.637  14.494
31324W        W96144  16.077  38.045  10.599
31325W        W96145  42.420  26.442  13.341
31326W        W96146  20.223  42.847   0.249
31327W        W96147  21.700  41.529   0.829
31328W        W96148  28.991  18.036   2.667
31329W        W96149   4.299  11.580   3.314
31330W        W96150  44.267  35.925  13.240
31331W        W96151  15.523  30.596   1.902
31332W        W96152  37.879  32.233   3.680
31333W        W96153  18.632   2.953   3.079
31334W        W96154  13.623  38.788  11.681
31335W        W96155  22.635  16.683   1.007
31336W        W96156  11.052  31.094   2.388
31337W        W96157  18.811  19.930  11.559
31338W        W96158  33.410  25.250   1.717
31339W        W96159  44.505  11.949   2.654
31340W        W96160  26.238   4.337  14.476
31341W        W96161  23.155  34.415   0.941
31342W        W96162  43.517  14.015  13.365
31343W        W96163  14.828   3.318   9.763
31344W        W96164  24.769   1.822   0.456
31345W        W96165  15.581  13.295   0.433
31346W        W96166  20.739  13.586  13.912
31347W        W96167  34.639  34.540  11.159
31348W        W96168  19.491  15.721   2.340
31349W        W96169  28.947  22.797  14.106
31350W        W96170   9.916  30.638  11.050
31351W        W96171  11.680   9.310   2.297
31352W        W96172  22.988   1.215   2.125
31353W        W96173  19.065   0.722   3.210
31354W        W96174  23.043   2.602   2.712
31355W        W96175  10.104  28.885   3.600
31356W        W96176   1.803  11.786   3.989
31357W        W96177  35.911  30.578   3.159
31358W        W96178  32.375  31.601  12.756
31359W        W96179  25.172   5.168   1.712
31360W        W96180  20.120  40.955  13.852
31361W        W96181  43.768  11.271   2.239
31362W        W96182  31.097  39.378  13.778
31363W        W96183   1.359  40.207  11.434
31364W        W96184  28.617  44.569  11.937
31365W        W96185  24.202  30.533   2.430
31366W        W96186  40.556  35.030   1.949
31367W        W96187  20.537  18.725   2.486
31368W        W96188  23.421  10.173   0.903
31369W        W96189  44.458  37.744  11.564
31370W        W96190  26.957   8.099  14.406
31371W        W96191   8.863   6.604   1.007
31372W        W96192  25.337  32.174  14.350
31373W        W96193  30.029  35.756  10.662
31374W        W96194   2.805  29.436  12.805
31375W        W96195  43.216  13.869  10.320
31376W        W96196  28.120  15.824   2.453
31377W        W96197  36.980   4.189  14.854
31378W        W96198  19.561   7.180   0.326
31379W        W96199  43.415  15.727  14.479
31380W        W96200  23.200  24.431  12.369
31381W        W96201  20.619  44.806   4.095
31382W        W96202  44.986   3.386   4.313
31383W        W96203  37.964  20.713   0.701
31384W        W96204  41.551   3.293   1.420
31385W        W96205  43.045  12.445  13.017
31386W        W96206  19.690   6.784   9.811
31387W        W96207  32.594  11.769  12.075
31388W        W96208  35.280  12.588   3.275
31389W        W96209  22.735  30.553   2.337
31390W        W96210  14.278  14.172  14.943
31391W        W96211  18.835  31.084  12.905
31392W        W96212  44.028   3.253  11.177
31393W        W96213   7.522  43.545   3.334
31394W        W96214  13.057  21.645  10.681
31395W        W96215  15.075  13.835  14.855
31396W        W96216  24.600   2.724  11.490
31397W        W96217  41.278  24.647  10.583
31398W        W96218  17.669  40.423   2.702
31399W        W96219   7.957  19.505  12.955
31400W        W96220  32.847  41.566   2.477
31401W        W96221  33.826   1.610  12.883
31402W        W96222  28.812  12.249  12.989
31403W        W96223  30.451  40.556   0.525
31404W        W96224   2.166  31.963   0.843
31405W        W96225   2.418  24.473  12.177
31406W        W96226  23.754  20.763  12.027
31407W        W96227  25.989  36.774   3.098
31408W        W96228  14.626  13.072  11.189
31409W        W96229  41.808  11.724  13.543
31410W        W96230   2.403  43.679  12.904
31411W        W96231  17.820  41.722   4.602
31412W        W96232  34.910   1.082  12.921
31413W        W96233   5.948  24.828   3.325
31414W        W96234  37.356  12.171  11.374
31415W        W96235  37.850  19.396   2.723
31416W        W96236  33.519  27.706  12.561
31417W        W96237  35.737  22.089   3.605
31418W        W96238   2.826  38.734  14.989
31419W        W96239   0.429  31.510  14.447
31420W        W96240  32.630  13.789  10.727
31421W        W96241  21.761  32.382   2.573
31422W        W96242  44.795  16.614  11.061
31423W        W96243   2.540  12.215  10.530
31424W        W96244   7.605   2.213   4.063
31425W        W96245  27.435  31.603  10.511
31426W        W96246   2.383  29.341   5.066
31427W        W96247  30.122  38.535   4.594
31428W        W96248  31.645  35.582  14.180
31429W        W96249  43.852   1.980   1.447
31430W        W96250  10.630  35.845  10.745
31431W        W96251  36.069  32.342   2.396
31432W        W96252   1.235  38.964   4.811
31433W        W96253  27.836   0.345   4.543
31434W        W96254  29.861  33.668   0.904
31435W        W96255  43.845  21.777  13.386
31436W        W96256  38.841  22.725   1.979
31437W        W96257  13.428  29.720  10.698
31438W        W96258  23.732  22.067   2.532
31439W        W96259   1.278  17.942  12.891
31440W        W96260  22.210  34.516   0.896
31441W        W96261  11.829  26.950  10.469
31442W        W96262  27.630  34.986  12.212
31443W        W96263   5.317  20.798  14.839
31444W        W96264   7.865  44.187   0.321
31445W        W96265  37.068  17.466  14.908
31446W        W96266  38.604  12.587   2.211
31447W        W96267  21.238  20.277  14.909
31448W        W96268  36.005   6.650  14.822
31449W        W96269  36.058   6.149  10.676
31450W        W96270  16.566  24.407   3.757
31451W        W96271  11.394  37.300  13.993
31452W        W96272  44.312  37.225  14.472
31453W        W96273  30.454  29.496   1.216
31454W        W96274  34.305  28.993  12.129
31455W        W96275  43.694  40.438   2.153
31456W        W96276  36.492   3.340  14.906
31457W        W96277  38.572  35.350   1.264
31458W        W96278  30.447  41.840  12.894
31459W        W96279  33.557  15.318   2.783
31460W        W96280  32.508   4.937  14.813
31461W        W96281  44.016  28.390   0.457
31462W        W96282  12.680  28.767   0.571
31463W        W96283  24.134  22.609  13.392
31464W        W96284  38.824  41.485  12.854
31465W        W96285  29.835  38.474   2.638
31466W        W96286  17.683  31.692  11.722
31467W        W96287  20.119  25.095  14.615
31468W        W96288  16.188   9.891   1.496
31469W        W96289  10.977  44.164   3.330
31470W        W96290  18.582  10.332   1.885
31471W        W96291  40.787  38.906   0.140
31472W        W96292  37.085  20.088  11.116
31473W        W96293  25.866  26.575   3.704
31474W        W96294  11.623  12.892  12.940
31475W        W96295  10.502  44.235   1.868
31476W        W96296  10.150  31.049   2.354
31477W        W96297  25.022   3.678  11.024
31478W        W96298  21.591  44.924  12.990
31479W        W96299   5.891  11.112  13.378
31480W        W96300  18.168  42.587  10.653
31481W        W96301   9.439  14.059   1.150
31482W        W96302  30.190   5.410   2.145
31483W        W96303  28.119  18.273   2.358
31484W        W96304  18.801  24.612  11.574
31485W        W96305  26.929  23.554  12.549
31486W        W96306  16.016  29.148  10.637
31487W        W96307  38.056  11.770  11.909
31488W        W96308   2.881   8.282  13.903
31489W        W96309  15.644  27.258  14.987
31490W        W96310  38.953  23.756  13.845
31491W        W96311  14.755  33.419  10.650
31492W        W96312  37.552  43.212  12.130
31493W        W96313   8.439  36.407   2.280
31494W        W96314  18.783  18.572  12.181
31495W        W96315  17.171  36.319   2.768
31496W        W96316  34.311  10.182  13.133
31497W        W96317  22.130  17.321   3.636
31498W        W96318   6.556  35.063  14.570
31499W        W96319   1.159  25.765  12.794
31500W        W96320  14.986   6.649  12.556
31501W        W96321  29.877   3.624  11.608
31502W        W96322  23.703  15.350   1.236
31503W        W96323  35.898  25.048   3.586
31504W        W96324   1.219  38.029   2.952
31505W        W96325  33.576  36.023  10.747
31506W        W96326  27.278  40.942   3.011
31507W        W96327  42.767   1.367  13.402
31508W        W96328  24.236  15.243   3.914
31509W        W96329   6.285   8.327   1.728
31510W        W96330   3.876   9.296   1.830
31511W        W96331  11.348   3.993  11.023
31512W        W96332  25.068  43.772  10.678
31513W        W96333  10.124  14.745  14.065
31514W        W96334   1.721  23.321   0.762
31515W        W96335  40.329   2.485   4.853
31516W        W96336  41.754   0.283   1.744
31517W        W96337  15.884  22.593   2.353
31518W        W96338  10.483   3.961  14.874
31519W        W96339   2.293  13.236   2.231
31520W        W96340  15.231  14.830   3.882
31521W        W96341  43.521  23.501   0.927
31522W        W96342  18.824  42.040   0.358
31523W        W96343  36.389   7.669  14.470
31524W        W96344  31.291  17.793   1.936
31525W        W96345  39.726  29.382  14.131
31526W        W96346  35.683  18.012   4.485
31527W        W96347  18.697  16.462  14.383
31528W        W96348  41.726  44.909  10.828
31529W        W96349  32.831  37.442   4.583
31530W        W96350  22.445  25.750   1.514
31531W        W96351  31.023   8.596  12.188
31532W        W96352   3.204  37.393  13.979
31533W        W96353  21.620  21.136   0.638
31534W        W96354  22.331  30.684   1.802
31535W        W96355   7.352   4.864  10.749
31536W        W96356  16.807  18.607  14.889
31537W        W96357  40.762  21.267  12.594
31538W        W96358  43.470  30.476  10.888
31539W        W96359  30.932   7.894  14.576
31540W        W96360   9.874   6.353   3.318
31541W        W96361   6.788   0.270  13.981
31542W        W96362  13.413  36.091   1.848
31543W        W96363   3.924   6.633   0.410
31544W        W96364  20.566  20.204  13.471
31545W        W96365  22.593  15.766   2.273
31546W        W96366  10.261  17.316  10.773
31547W        W96367  36.905  24.751  11.353
31548W        W96368  25.952  15.315  10.618
31549W        W96369  35.842  28.334   4.799
31550W        W96370   1.117  10.776  13.395
31551W        W96371  40.586  31.473   4.130
31552W        W96372  38.770  38.317   3.274
31553W        W96373  29.665  36.419   4.039
31554W        W96374  17.197  10.345  10.599
31555W        W96375   7.269  27.345   2.289
31556W        W96376  15.588  26.278  14.746
31557W        W96377  41.822  32.526   4.615
31558W        W96378   9.353  33.079  13.615
31559W        W96379  12.344  42.760  10.532
31560W        W96380  33.348  43.252   0.839
31561W        W96381  32.711  41.044   3.242
31562W        W96382  18.823  27.572  12.492
31563W        W96383  17.984  30.228   2.134
31564W        W96384   2.212  10.176  13.920
31565W        W96385  24.040  39.731   0.790
31566W        W96386  43.955  44.753   3.378
31567W        W96387  34.138  25.588   3.399
31568W        W96388  43.047  19.575  11.682
31569W        W96389  33.186  42.993   1.863
31570W        W96390  10.650  44.167   0.774
31571W        W96391   6.276  43.065  11.661
31572W        W96392  38.039  17.171  12.155
31573W        W96393  43.740  22.434  14.213
31574W        W96394  12.520  41.207   0.479
31575W        W96395  32.366  21.143  14.064
31576W        W96396   1.388   8.603  11.170
31577W        W96397  44.822  35.783   1.162
31578W        W96398  16.929  33.518   3.078
31579W        W96399  34.876  11.286   0.232
31580W        W96400   4.213  12.313  11.078
31581W        W96401   5.399  29.943  13.914
31582W        W96402  13.543  22.508   2.737
31583W        W96403  33.953  14.719   0.388
31584W        W96404  27.786  39.058   0.361
31585W        W96405  42.778  25.865  12.220
31586W        W96406  26.428  27.200   3.195
31587W        W96407  19.309  29.510  14.546
31588W        W96408  33.346  34.369  13.609
31589W        W96409  28.540   7.665  11.633
31590W        W96410   4.348  16.265   2.939
31591W        W96411  20.428  18.460  13.079
31592W        W96412  42.213  34.407   0.471
31593W        W96413  24.975  24.760  14.206
31594W        W96414  12.829   8.218  10.837
31595W        W96415   1.453   1.999   1.435
31596W        W96416  33.213  38.468   1.717
31597W        W96417   8.725  16.227  12.465
31598W        W96418  10.700  28.131   4.354
31599W        W96419  16.484   8.735   4.003
31600W        W96420  41.301  38.919   1.914
31601W        W96421  12.262  22.091   2.849
31602W        W96422  44.927  22.532   4.152
31603W        W96423  12.089  38.442  11.454
31604W        W96424  33.818   1.642  11.147
31605W        W96425  41.438  15.021   3.493
31606W        W96426  25.123  12.838  14.336
31607W        W96427  27.228   9.708   4.029
31608W        W96428  23.222  32.957  10.613
31609W        W96429  44.856   1.908   1.562
31610W        W96430   8.107  31.929  10.384
31611W        W96431  42.335   3.201   2.743
31612W        W96432  29.862  17.526   1.746
31613W        W96433   1.056  13.760   2.787
31614W        W96434  26.343  27.974   2.187
31615W        W96435  35.413  36.731  12.524
31616W        W96436   9.481   7.714  14.258
31617W        W96437   5.758  11.170  14.966
31618W        W96438   4.787  14.592   2.176
31619W        W96439  18.878  35.524  14.948
31620W        W96440   6.156  23.144  12.050
31621W        W96441  44.929  18.492   4.621
31622W        W96442  25.204  25.381  14.980
31623W        W96443  12.091  23.855  14.347
31624W        W96444   6.248  35.429   3.372
31625W        W96445   5.391  38.425  13.583
31626W        W96446  26.567  37.512   3.286
31627W        W96447  40.639  41.722   0.890
31628W        W96448  25.961   7.944   0.894
31629W        W96449   3.733  15.404  10.660
31630W        W96450  23.253  20.135   0.004
31631W        W96451   1.402  10.370   3.125
31632W        W96452  28.709  39.708  14.112
31633W        W96453  16.929  11.826   3.689
31634W        W96454  34.581   8.843  14.416
31635W        W96455  10.315  31.594  11.206
31636W        W96456  18.186  30.651  10.491
31637W        W96457   0.171  44.545   2.813
31638W        W96458  42.549  34.984  11.084
31639W        W96459   8.857  27.608  13.454
31640W        W96460   6.561  36.636   0.501
31641W        W96461  30.366  20.037   1.789
31642W        W96462  38.377  24.407   4.304
31643W        W96463  38.478  38.601  12.542
31644W        W96464   2.769  20.335   3.290
31645W        W96465  16.001  23.096  12.663
31646W        W96466   4.690   7.672  10.365
31647W        W96467  43.022  38.098  11.601
31648W        W96468  36.589  20.292   2.227
31649W        W96469  44.145  18.858   3.234
31650W        W96470  26.349  39.462  10.066
31651W        W96471   3.215  34.125   3.232
31652W        W96472   9.443   0.406   0.893
31653W        W96473   5.694   8.208  11.180
31654W        W96474  42.477   0.474  13.020
31655W        W96475  21.901  38.847  12.595
31656W        W96476  41.475   2.963  11.250
31657W        W96477  40.505   8.695  11.049
31658W        W96478  15.670  41.932  12.064
31659W        W96479  13.405  33.073   0.397
31660W        W96480  37.744  44.212  12.194
31661W        W96481  27.427  42.881  13.611
31662W        W96482  16.534  17.015   3.247
31663W        W96483   3.049  27.806   9.781
31664W        W96484  31.429  21.406  12.701
31665W        W96485  24.881  34.978  11.134
31666W        W96486   6.558  40.321   3.019
31667W        W96487  12.644  18.747   1.996
31668W        W96488  16.929  38.404   2.771
31669W        W96489  23.531  20.945  13.204
31670W        W96490  35.088  33.285  14.560
31671W        W96491   9.244  42.900  12.978
31672W        W96492  16.770  34.122   4.220
31673W        W96493  33.073  32.022  13.776
31674W        W96494  23.420  39.094  11.144
31675W        W96495  37.081  32.190  12.860
31676W        W96496  29.891   0.249  14.433
31677W        W96497   2.971  23.715   1.742
31678W        W96498  15.866   8.515  14.743
31679W        W96499  27.936  26.514   3.724
31680W        W96500  14.887   2.326  11.632
31681W        W96501   9.880   4.508  11.524
31682W        W96502  31.961  29.445  12.417
31683W        W96503  37.962  29.954  11.506
31684W        W96504   7.371  30.914   2.697
31685W        W96505  13.626  11.810  12.056
31686W        W96506  23.627   0.719  14.210
31687W        W96507   8.398  27.605  14.222
31688W        W96508  44.291   4.359  13.982
31689W        W96509  44.246  29.952   1.766
31690W        W96510  19.233   0.983   4.151
31691W        W96511  21.037  22.192  13.920
31692W        W96512  30.206   9.298   2.756
31693W        W96513  26.572   8.213  14.745
31694W        W96514  10.858  19.655   1.726
31695W        W96515  11.349  23.121   3.739
31696W        W96516  11.694  12.810  10.285
31697W        W96517  11.155  19.223  13.096
31698W        W96518  28.864  29.988   1.232
31699W        W96519  15.227  16.491  12.563
31700W        W96520  41.421  28.186  14.443
31701W        W96521   6.240  36.031  11.907
31702W        W96522  25.204   8.610  11.171
31703W        W96523  43.733   8.319   2.677
31704W        W96524  36.508  44.416  13.864
31705W        W96525  30.217  42.470   2.970
31706W        W96526  30.613  25.450  13.968
31707W        W96527   7.081  36.673   0.651
31708W        W96528  25.551  11.826  14.481
31709W        W96529  39.424  32.389   2.660
31710W        W96530  31.405  37.020  12.378
31711W        W96531  24.521  31.852  11.218
31712W        W96532  43.279  37.991  12.508
31713W        W96533  11.663  41.007  14.403
31714W        W96534  42.466  28.253  13.008
31715W        W96535  31.456   0.326  13.413
31716W        W96536  16.190  16.612  12.389
31717W        W96537   6.760  44.001   2.522
31718W        W96538   3.737  43.361  13.610
31719W        W96539   1.909  25.827   3.280
31720W        W96540  34.492  18.662  10.442
31721W        W96541  34.497  38.020   3.455
31722W        W96542   7.723  36.993   4.883
31723W        W96543  13.339  31.426  12.528
31724W        W96544  11.231  38.071   2.349
31725W        W96545   2.096   6.169   3.599
31726W        W96546  38.816  19.114   0.046
31727W        W96547  25.158  21.808   0.412
31728W        W96548  18.638   0.892  14.468
31729W        W96549  29.052   0.295   1.127
31730W        W96550  22.716  17.831  11.046
31731W        W96551  25.159  31.882  13.853
31732W        W96552   9.216  29.683  11.496
31733W        W96553  24.450  26.887  12.560
31734W        W96554  34.652  15.164   3.244
31735W        W96555  12.107  11.842  10.558
31736W        W96556  20.977  12.657   2.821
31737W        W96557   3.514  38.633  11.950
31738W        W96558  37.089  42.793   3.981
31739W        W96559  34.668  23.295  10.625
31740W        W96560  15.196   5.343  13.991
31741W        W96561  14.759  38.043   1.442
31742W        W96562  41.305   3.464  11.220
31743W        W96563   0.283  13.074   3.610
31744W        W96564   8.162  18.355   3.334
31745W        W96565  41.755  37.502   2.854
31746W        W96566   0.239  33.159   1.729
31747W        W96567  38.390  19.634  10.653
31748W        W96568   8.525  36.981   2.218
31749W        W96569  25.977   3.246  14.852
31750W        W96570  31.650  39.985   2.288
31751W        W96571  11.375  18.569   5.112
31752W        W96572  42.257  13.139   3.212
31753W        W96573  12.055  16.093  13.901
31754W        W96574   0.768  25.603  13.413
31755W        W96575   4.293   5.862   2.659
31756W        W96576  14.200  20.809  12.840
31757W        W96577   9.599  41.032   1.366
31758W        W96578  37.434   2.454   5.141
31759W        W96579  39.900  39.149  13.747
31760W        W96580   3.756  32.516  11.570
31761W        W96581  44.731   7.933  14.339
31762W        W96582  35.873  39.432  13.348
31763W        W96583   7.791  21.030   1.435
31764W        W96584  11.751  25.649  14.412
31765W        W96585  40.962  29.030   2.617
31766W        W96586  38.515  34.397  14.938
31767W        W96587   4.408  43.473   0.860
31768W        W96588  21.726  36.828   4.297
31769W        W96589  26.510  41.072  13.302
31770W        W96590  38.037  34.220  14.857
31771W        W96591   9.435  12.148  12.044
31772W        W96592  18.095  19.247   3.195
31773W        W96593  15.608  26.115  12.534
31774W        W96594  36.562   1.401  12.583
31775W        W96595  16.229  32.857  11.525
31776W        W96596  13.551  31.115  12.916
31777W        W96597   7.159  27.592   4.116
31778W        W96598  11.614  42.423  14.365
31779W        W96599  13.178  10.081  10.205
31780W        W96600  36.432  40.722   0.566
31781W        W96601   9.875  18.606  13.828
31782W        W96602  16.441  33.252   5.377
31783W        W96603  11.711  13.232  10.593
31784W        W96604  33.583  12.137  11.230
31785W        W96605  17.603  22.724   0.808
31786W        W96606  14.141  26.767   3.240
31787W        W96607  17.503  13.739  12.040
31788W        W96608  23.191   2.881   1.643
31789W        W96609  18.120   3.915  12.025
31790W        W96610  24.472  18.468  10.260
31791W        W96611  17.054  27.942  12.395
31792W        W96612  42.905   3.913  11.621
31793W        W96613  19.560   0.522   0.386
31794W        W96614  14.082   4.913   3.855
31795W        W96615  31.791  24.272   1.172
31796W        W96616  25.458  39.349   4.225
31797W        W96617  12.842  35.943  10.923
31798W        W96618   7.413   1.272  13.438
31799W        W96619   6.792   3.259  11.086
31800W        W96620  41.516   2.373  12.666
31801W        W96621  41.427   7.343   0.423
31802W        W96622   1.458  18.349  12.394
31803W        W96623  31.452  33.195   4.727
31804W        W96624  39.862   7.962   1.176
31805W        W96625  18.471  40.410   4.025
31806W        W96626   1.267  40.367  13.995
31807W        W96627   5.317   3.800  14.363
31808W        W96628  15.572  16.299  14.364
31809W        W96629   3.411  13.883   3.903
31810W        W96630  40.073  26.575  12.396
31811W        W96631  16.518  33.475   4.277
31812W        W96632  18.153   0.423  14.030
31813W        W96633  31.093  31.007   0.205
31814W        W96634  17.173  40.721   3.911
31815W        W96635  23.957  43.019  13.797
31816W        W96636   8.654  10.639  12.526
31817W        W96637  12.343  27.068  12.555
31818W        W96638   7.406   1.792   1.394
31819W        W96639  35.484  31.352  11.018
31820W        W96640  32.593  41.524   4.044
31821W        W96641  27.022  38.466  10.991
31822W        W96642   5.756  31.045   3.267
31823W        W96643  16.744  12.647   2.155
31824W        W96644   4.834  19.143  13.940
31825W        W96645  43.566  24.718  14.442
31826W        W96646  30.574   3.711   4.842
31827W        W96647   8.089  19.169  14.720
31828W        W96648  27.624  31.713   4.518
31829W        W96649  27.656  14.669   4.213
31830W        W96650  33.887  30.652   3.476
31831W        W96651  44.946  37.052  13.449
31832W        W96652  17.906  19.135  12.331
31833W        W96653  19.281  32.937  13.610
31834W        W96654  35.834   4.822  13.370
31835W        W96655  14.324  39.363  11.113
31836W        W96656  12.674  42.917  11.212
31837W        W96657   0.928  30.854   3.743
31838W        W96658  30.899  36.320   0.483
31839W        W96659   3.769  34.178  11.671
31840W        W96660  22.756   8.865  12.911
31841W        W96661  27.062  44.745   3.162
31842W        W96662  12.051  38.027  11.093
31843W        W96663   0.004   5.391  13.720
31844W        W96664  32.224   0.184  11.649
31845W        W96665  16.759   9.937   3.798
31846W        W96666  11.256  28.769   4.991
31847W        W96667  35.602  38.094  13.931
31848W        W96668  12.829  26.677   4.134
31849W        W96669  32.309  22.738  10.677
31850W        W96670  21.337  38.989   2.743
31851W        W96671  34.029  10.153  13.565
31852W        W96672  13.924  24.159  14.736
31853W        W96673  11.794   3.317  13.639
31854W        W96674  17.743  27.476   0.401
31855W        W96675  15.895   9.788  13.754
31856W        W96676  37.413  23.651   3.424
31857W        W96677  25.690  34.212   1.742
31858W        W96678  35.209  43.080  11.063
31859W        W96679  15.774   5.964   0.308
31860W        W96680  35.064  40.948   3.775
31861W        W96681   8.361  12.241  13.723
31862W        W96682  13.468   5.007  10.290
31863W        W96683   2.333   8.976  11.175
31864W        W96684  18.304  39.336  12.936
31865W        W96685  35.596  10.428   1.441
31866W        W96686  29.842  44.309   4.315
31867W        W96687  28.228  19.946  14.446
31868W        W96688  42.251  27.437  13.493
31869W        W96689  10.770  36.848   0.499
31870W        W96690  21.036   3.398   1.756
31871W        W96691   7.164   1.881   1.863
31872W        W96692  12.736   8.400  12.106
31873W        W96693  23.607  39.345  12.566
31874W        W96694   1.609  12.852   0.454
31875W        W96695  25.794   7.542  14.851
31876W        W96696  32.817  11.639   0.802
31877W        W96697   5.215   2.607   2.655
31878W        W96698  36.354  31.161   4.803
31879W        W96699  44.462  20.574  12.622
31880W        W96700  15.257  20.548   3.568
31881W        W96701  31.067  12.542  12.461
31882W        W96702  32.956  30.075  12.158
31883W        W96703   0.254  29.487  12.064
31884W        W96704  34.165  42.390   1.329
31885W        W96705  25.401  19.965   4.013
31886W        W96706   8.429  40.547   1.860
31887W        W96707  32.984  25.502   0.405
31888W        W96708  30.591  41.833   4.790
31889W        W96709  19.270  38.657  11.295
31890W        W96710  24.759  10.823   0.813
31891W        W96711  37.927  14.394   4.486
31892W        W96712  14.715  41.319   4.054
31893W        W96713  13.608   8.614  11.995
31894W        W96714  12.179   8.381   4.127
31895W        W96715  18.348  34.091   1.409
31896W        W96716   5.422  31.351   4.457
31897W        W96717  20.760  38.635   2.860
31898W        W96718  10.409   0.951   1.873
31899W        W96719  34.829  10.123   9.962
31900W        W96720  10.394   9.252  12.407
31901W        W96721  36.836   5.866   4.031
31902W        W96722  35.289  34.077   3.142
31903W        W96723  16.208   9.378  12.361
31904W        W96724   5.664   5.633  10.747
31905W        W96725  24.177   3.575   0.341
31906W        W96726  37.813  31.580  14.699
31907W        W96727  42.758  23.029  12.961
31908W        W96728  23.330  41.753   1.289
31909W        W96729  10.236   0.152   3.928
31910W        W96730  41.465  20.359   2.666
31911W        W96731  14.283   4.042  13.941
31912W        W96732  20.554  33.080   0.407
31913W        W96733  23.539  13.644   3.736
31914W        W96734  24.774  39.951  14.314
31915W        W96735   3.987  28.022   0.788
31916W        W96736  30.694  11.785   4.154
31917W        W96737   6.535   3.238  14.537
31918W        W96738  29.906  17.847   4.595
31919W        W96739  22.513  20.632   3.806
31920W        W96740  10.622  25.058   3.198
31921W        W96741  13.931  43.785   1.560
31922W        W96742   3.272  40.330  12.691
31923W        W96743  31.004  14.353   0.583
31924W        W96744  14.531  11.444  12.495
31925W        W96745  14.545  38.940  12.848
31926W        W96746   1.943  38.654   4.540
31927W        W96747  40.046  40.785   1.771
31928W        W96748  25.578   7.391  11.644
31929W        W96749  37.858  23.986   0.798
31930W        W96750   1.200  16.620   1.136
31931W        W96751  25.078   6.108   3.622
31932W        W96752  43.801  27.627  12.019
31933W        W96753  22.957  19.782  10.231
31934W        W96754  29.344  34.547   0.812
31935W        W96755  24.391  26.037   4.378
31936W        W96756  35.671  24.013  13.010
31937W        W96757  10.048  44.721  11.849
31938W        W96758  12.175  27.981  11.295
31939W        W96759  44.306  35.272  11.571
31940W        W96760  29.679  41.768   2.424
31941W        W96761  43.416  11.400  11.649
31942W        W96762  12.990  39.846   3.813
31943W        W96763   3.892  18.061   4.500
31944W        W96764   8.908  10.181   2.382
31945W        W96765  19.717  38.800  14.712
31946W        W96766  21.246   4.990   4.283
31947W        W96767  27.924  12.370  12.863
31948W        W96768  21.349  14.068  14.975
31949W        W96769   4.108  19.321   0.972
31950W        W96770   1.086  36.907  12.008
31951W        W96771   2.270   9.195  11.633
31952W        W96772   6.805  25.692  13.906
31953W        W96773  12.755  10.275  11.852
31954W        W96774   1.298  20.014   1.710
31955W        W96775  15.645  25.338   2.655
31956W        W96776  17.364  22.650   3.325
31957W        W96777  38.906  41.682  11.957
31958W        W96778  34.132  16.874   3.557
31959W        W96779  19.889  28.340  12.054
31960W        W96780  23.296  36.985   3.040
31961W        W96781  15.197  36.156   0.354
31962W        W96782  33.501  11.744  14.214
31963W        W96783  35.029   7.405  12.467
31964W        W96784  38.977  31.425   0.563
31965W        W96785  25.132   9.395  10.986
31966W        W96786  39.699  35.931  11.467
31967W        W96787  12.235   2.719   1.800
31968W        W96788   7.187  30.400   0.917
31969W        W96789  14.206  26.599  14.971
31970W        W96790   0.289  32.685   2.834
31971W        W96791   1.625  38.733  10.895
31972W        W96792   5.435  29.916  11.935
31973W        W96793  25.747  20.869  11.587
31974W        W96794  37.210   1.898  12.127
31975W        W96795  19.620  38.388   0.010
31976W        W96796  42.023  34.458  13.720
31977W        W96797  40.843  29.319  13.676
31978W        W96798  20.670   5.788   0.330
31979W        W96799  24.488  23.753   1.404
31980W        W96800  35.458  20.271  10.899
31981W        W96801   8.736  26.240   0.343
31982W        W96802  17.489  23.575   2.358
31983W        W96803   6.456  29.606  13.973
31984W        W96804  44.892  37.591  13.485
31985W        W96805  24.659  41.422   3.960
31986W        W96806  36.037   9.853  13.140
31987W        W96807  18.511   9.998   0.382
31988W        W96808  33.319  36.698   1.913
31989W        W96809  41.317  26.674  14.340
31990W        W96810  34.545  14.679   4.229
31991W        W96811  11.574  17.650   1.103
31992W        W96812  21.098   1.442  12.517
31993W        W96813  12.892  16.669   2.143
31994W        W96814   4.680  19.663  13.963
31995W        W96815  40.340  43.488   0.770
31996W        W96816  40.487  19.685   1.802
31997W        W96817  40.472   6.267  10.710
31998W        W96818  24.492  12.610  13.029
31999W        W96819  12.170  42.686  13.772
32000W        W96820  37.988  39.418   3.921
32001W        W96821  10.892  44.318  12.280
32002W        W96822  14.269   9.550   4.606
32003W        W96823   2.004  42.261   3.891
32004W        W96824  17.497  13.248  14.361
32005W        W96825  18.355  41.273  14.989
32006W        W96826  19.657  17.701   0.904
32007W        W96827   9.660   5.350   3.204
32008W        W96828  31.834   4.429  12.443
32009W        W96829   1.659  32.526   0.312
32010W        W96830  13.781   1.988   2.767
32011W        W96831  29.903   8.757  14.070
32012W        W96832   9.864  43.790  14.027
32013W        W96833  26.475  27.904  11.972
32014W        W96834  11.629  34.356  11.671
32015W        W96835  19.623  12.656   2.383
32016W        W96836  41.963  37.104   4.969
32017W        W96837  38.909  15.113   4.136
32018W        W96838  20.526  31.866   4.756
32019W        W96839  18.167  12.687   2.252
32020W        W96840  28.371  32.001   4.101
32021W        W96841  12.110  27.943   5.278
32022W        W96842  36.927   4.427   0.845
32023W        W96843  25.213  42.435  11.395
32024W        W96844  22.649  35.539  11.571
32025W        W96845  18.962  19.739  12.013
32026W        W96846  43.691  12.314   0.411
32027W        W96847  29.762  32.405   1.042
32028W        W96848  33.201  34.142   3.779
32029W        W96849  21.085  32.861  13.543
32030W        W96850  24.620  42.749  11.925
32031W        W96851  29.651  41.959   0.239
32032W        W96852   2.420  12.732  14.970
32033W        W96853  31.031  16.118  11.867
32034W        W96854  25.231  35.935   2.758
32035W        W96855   3.697  13.785   2.394
32036W        W96856  24.140   0.676  14.773
32037W        W96857  21.183  19.018  12.526
32038W        W96858  27.531  39.980   1.913
32039W        W96859   2.375  41.274  12.075
32040W        W96860  23.595  16.299   4.787
32041W        W96861   1.698  36.107  14.792
32042W        W96862  41.205  30.992   2.210
32043W        W96863  29.688   0.498  12.247
32044W        W96864  17.504   7.157   3.708
32045W        W96865  31.626   0.493   4.929
32046W        W96866  30.448  40.898  14.800
32047W        W96867  27.244  13.112  14.828
32048W        W96868  37.269  25.646  12.913
32049W        W96869  17.060  13.833   1.788
32050W        W96870  17.070  22.523   3.763
32051W        W96871  14.960  20.631  11.613
32052W        W96872  18.155   1.243   2.306
32053W        W96873  36.341   3.459   2.297
32054W        W96874   8.764  36.391   4.297
32055W        W96875  28.148  39.299   1.538
32056W        W96876  44.467  41.044   5.107
32057W        W96877  37.980   3.610   4.508
32058W        W96878  24.537  19.611   1.245
32059W        W96879  18.037   7.268  14.059
32060W        W96880  26.676  16.622  14.525
32061W        W96881  20.257  38.379  11.741
32062W        W96882  13.238  23.721  13.915
32063W        W96883  21.088  26.447  13.373
32064W        W96884  13.627  43.252   2.436
32065W        W96885  30.557  10.193  11.640
32066W        W96886  39.326   8.293  13.071
32067W        W96887  10.208  14.147   0.974
32068W        W96888  37.529  26.661  10.608
32069W        W96889  15.239  25.953  13.801
32070W        W96890  33.667   2.907  10.678
32071W        W96891  11.304  20.443   4.231
32072W        W96892  29.564  34.388  14.426
32073W        W96893   0.043  39.542   0.463
32074W        W96894   1.787  11.206   2.228
32075W        W96895   2.760  24.359  12.999
32076W        W96896   8.720  16.216  10.633
32077W        W96897  42.566  22.302   2.698
32078W        W96898  10.336   8.264  14.179
32079W        W96899  36.593  15.420   3.192
32080W        W96900  23.410  36.354  11.910
32081W        W96901   7.307  11.871  12.981
32082W        W96902  12.706  36.233  13.613
32083W        W96903  24.513   1.779  14.042
32084W        W96904  31.055  13.448   3.107
32085W        W96905  17.659  25.689   3.676
32086W        W96906  18.893  40.550   3.152
32087W        W96907  28.143  14.701  14.902
32088W        W96908  28.066  15.118  11.710
32089W        W96909  23.623  44.066   4.583
32090W        W96910   3.227  26.435   2.672
32091W        W96911   6.743  38.839  11.101
32092W        W96912  11.566  37.369   4.142
32093W        W96913  44.780  41.949  14.978
32094W        W96914  44.243   4.439   2.382
32095W        W96915   0.350   8.821  12.853
32096W        W96916  21.172  29.005   2.349
32097W        W96917  39.495  28.566   1.709
32098W        W96918  41.956  42.983   4.988
32099W        W96919   8.773  34.103  12.150
32100W        W96920   4.547  29.468  10.785
32101W        W96921  24.021  38.853   1.918
32102W        W96922  43.280  11.093   2.226
32103W        W96923  33.416  35.665   3.290
32104W        W96924   2.433  32.830   1.099
32105W        W96925  37.959  28.113  13.570
32106W        W96926  20.146  38.259   0.781
32107W        W96927  35.517   2.272   0.528
32108W        W96928  35.333  43.381  14.070
32109W        W96929  36.610   0.516  14.938
32110W        W96930  43.450  10.947  11.406
32111W        W96931  31.559  29.154  12.525
32112W        W96932  40.883  35.449  13.394
32113W        W96933   8.350  16.136   0.942
32114W        W96934  33.993  11.093  11.077
32115W        W96935  13.081   5.491  11.142
32116W        W96936  37.429   5.276   2.335
32117W        W96937   8.636  23.312  14.680
32118W        W96938  15.086  33.924  13.962
32119W        W96939  38.437  30.423  12.435
32120W        W96940  20.582   0.443  10.760
32121W        W96941  10.100  21.414   4.202
32122W        W96942   6.223  19.144  13.896
32123W        W96943  28.473  25.564  11.499
32124W        W96944   5.851   4.775   4.556
32125W        W96945  16.113  27.591  13.131
32126W        W96946  32.197  10.537   1.080
32127W        W96947  16.826  23.474   4.580
32128W        W96948  36.430  27.139  14.352
32129W        W96949  44.912   6.200   4.843
32130W        W96950  23.195  18.669   2.419
32131W        W96951   4.777  39.749  12.890
32132W        W96952  15.674   6.872   1.803
32133W        W96953  14.167   0.806   3.396
32134W        W96954  25.476  42.769  12.568
32135W        W96955   5.800  23.047   3.182
32136W        W96956  26.842  39.969  13.437
32137W        W96957  27.432  34.322  12.580
32138W        W96958   6.462  12.342  11.942
32139W        W96959  39.380  27.883   3.318
32140W        W96960   5.366  12.823   3.904
32141W        W96961  28.962   0.914   3.669
32142W        W96962  33.876  31.057   0.270
32143W        W96963  11.155  21.543  11.076
32144W        W96964  19.708   7.994   0.416
32145W        W96965   0.993  11.661   1.387
32146W        W96966  33.463   0.463  11.378
32147W        W96967  25.063   4.444   1.225
32148W        W96968  34.432  11.754  13.182
32149W        W96969  18.776   8.604  14.601
32150W        W96970  18.125  11.209  13.081
32151W        W96971  33.784   3.454   0.460
32152W        W96972  22.757  14.090  12.591
32153W        W96973  44.958  25.885  10.934
32154W        W96974  29.443  22.797  14.321
32155W        W96975  26.974  36.576   4.943
32156W        W96976  20.386  44.209   0.478
32157W        W96977  19.423  15.325  13.003
32158W        W96978  35.565  19.201  14.749
32159W        W96979  11.122  19.075   0.473
32160W        W96980  36.069  25.543   3.460
32161W        W96981   3.572  24.811   4.186
32162W        W96982  41.924   7.899  14.007
32163W        W96983  32.172   6.006  11.150
32164W        W96984  33.373  27.496  13.022
32165W        W96985  12.218  14.712   2.707
32166W        W96986  14.656  22.685   1.073
32167W        W96987  43.367  17.207   2.619
32168W        W96988  14.536  24.269  11.103
32169W        W96989  16.085   3.983  12.099
32170W        W96990  20.612  38.918  13.405
32171W        W96991   3.832  21.552   2.463
32172W        W96992  10.097  29.696  11.525
32173W        W96993  35.344  21.453  13.131
32174W        W96994  10.282  25.121   2.319
32175W        W96995  26.987  40.606  12.438
32176W        W96996  17.098  10.690   1.782
32177W        W96997  41.315   7.986  14.336
32178W        W96998   4.499  16.514   2.455
32179W        W96999   2.714  28.684   2.025
32180W        W97000  35.547  29.668  13.124
32181W        W97001  38.897   6.883   4.295
32182W        W97002  20.255  26.961   0.044
32183W        W97003  42.867  18.511   2.089
32184W        W97004  11.310  14.754  14.836
32185W        W97005  11.167   1.300   4.288
32186W        W97006  17.335  27.765  11.448
32187W        W97007   6.001  19.018   3.165
32188W        W97008  34.964   1.213   4.233
32189W        W97009  39.404   6.409   1.688
32190W        W97010  36.531  19.541   0.015
32191W        W97011  12.324  26.704  12.163
32192W        W97012  17.323  36.885   1.181
32193W        W97013  14.631   2.304  11.193
32194W        W97014  18.985  20.277   2.243
32195W        W97015  23.983  41.539  13.855
32196W        W97016   5.447  29.895   2.667
32197W        W97017  34.210  12.685  14.785
32198W        W97018  12.216  40.253   3.885
32199W        W97019  33.581  33.532  13.473
32200W        W97020  36.325   6.188   1.351
32201W        W97021  18.785  20.273  12.823
32202W        W97022   3.196  34.424  10.697
32203W        W97023  23.137  44.931   0.434
32204W        W97024   6.915  40.946   3.703
32205W        W97025  38.030  43.449  11.148
32206W        W97026   2.248   3.720  14.952
32207W        W97027   3.305  43.686   4.645
32208W        W97028   7.727   8.510   1.911
32209W        W97029  18.134  12.655   0.999
32210W        W97030  34.524  30.105  14.848
32211W        W97031   2.925   6.765   4.578
32212W        W97032   5.480   5.599   0.425
32213W        W97033  21.742  20.285  14.888
32214W        W97034  15.781  34.559   1.708
32215W        W97035  33.092  43.960  11.464
32216W        W97036  43.444  11.703  12.578
32217W        W97037  43.489  34.988   3.763
32218W        W97038  44.374  20.875  13.519
32219W        W97039   8.105  44.839  13.394
32220W        W97040  22.178   0.442  11.872
32221W        W97041  21.622  12.755   4.528
32222W        W97042  10.300  14.713  10.192
32223W        W97043  14.331   7.226  13.092
32224W        W97044  13.851  21.755   4.082
32225W        W97045  40.334  28.962  13.780
32226W        W97046  19.800   2.267  12.379
32227W        W97047   1.657  30.966   4.888
32228W        W97048  44.562  14.695   0.866
32229W        W97049   3.384  43.023  13.392
32230W        W97050   8.133  28.659   1.309
32231W        W97051  36.510  14.109  10.681
32232W        W97052  42.668  11.665   0.026
32233W        W97053  30.877   5.037  10.695
32234W        W97054  33.826  38.315   0.532
32235W        W97055  37.490  36.382   3.169
32236W        W97056  23.695  23.532  12.631
32237W        W97057  16.625  30.486   2.772
32238W        W97058  10.838  14.790   4.545
32239W        W97059   7.615  21.550  10.953
32240W        W97060  33.090  10.034   3.292
32241W        W97061  41.789   6.264   2.683
32242W        W97062  24.308  15.367  12.418
32243W        W97063  42.788  38.997   3.301
32244W        W97064  38.535   9.430   1.155
32245W        W97065   8.646  28.163   0.807
32246W        W97066   1.434   0.478  13.064
32247W        W97067  38.885  11.471   2.215
32248W        W97068  13.050  32.270  10.615
32249W        W97069  10.193   6.688   4.594
32250W        W97070  21.472  35.046   0.342
32251W        W97071  39.121  37.074   4.221
32252W        W97072   1.830  18.095  12.987
32253W        W97073  42.467   4.614  13.112
32254W        W97074  18.644   2.265  13.838
32255W        W97075  32.856  17.994  14.443
32256W        W97076  22.543  10.920  14.464
32257W        W97077  41.013  13.319  13.347
32258W        W97078  34.530  36.459   4.678
32259W        W97079  23.163  21.054   1.387
32260W        W97080  30.520  23.531   0.515
32261W        W97081  19.465  41.843  13.590
32262W        W97082  30.142  12.953   0.910
32263W        W97083  17.339  25.067  11.564
32264W        W97084  40.335  34.918  13.855
32265W        W97085  36.375  15.875   2.261
32266W        W97086   2.883  44.769   2.363
32267W        W97087  24.177   2.415  10.628
32268W        W97088   7.634  32.488   1.918
32269W        W97089   6.685  42.828   2.284
32270W        W97090  25.697  20.226  13.884
32271W        W97091  37.321  41.196   2.546
32272W        W97092  25.040  15.978   1.738
32273W        W97093   9.309  11.436   2.268
32274W        W97094   0.798  38.061   4.641
32275W        W97095   4.781  37.531   1.407
32276W        W97096  20.684  35.489  13.008
32277W        W97097  20.954  40.392   0.830
32278W        W97098  42.356   6.829  10.990
32279W        W97099  27.349  33.073   0.947
32280W        W97100   8.323  38.056   0.279
32281W        W97101  43.548  20.277  11.177
32282W        W97102   7.860  18.240  12.531
32283W        W97103  36.084   1.898  10.667
32284W        W97104  27.456  19.252   1.680
32285W        W97105   7.800  19.760   3.587
32286W        W97106  26.157  11.047   2.273
32287W        W97107  40.431  17.038   4.626
32288W        W97108  20.303   9.266  11.164
32289W        W97109  11.603  19.085   2.718
32290W        W97110  40.790  44.757   1.030
32291W        W97111  11.256  37.516   3.200
32292W        W97112  32.408  39.356  12.703
32293W        W97113  28.488  17.544   3.717
32294W        W97114   3.327  30.808   1.530
32295W        W97115   1.706  41.410   0.722
32296W        W97116  38.854   8.793   3.271
32297W        W97117   8.759  29.109  11.453
32298W        W97118   3.322  43.771  12.884
32299W        W97119  32.940  14.687  11.094
32300W        W97120  17.506   5.449  14.249
32301W        W97121  21.496  10.897  13.081
32302W        W97122   5.909  10.940   4.236
32303W        W97123   6.361  24.553  11.887
32304W        W97124  36.146  25.678  13.931
32305W        W97125   0.497  29.570   4.124
32306W        W97126  29.337  19.286   9.902
32307W        W97127   6.079  31.878  10.501
32308W        W97128  17.583  23.082   3.092
32309W        W97129  27.216  44.242  14.625
32310W        W97130  12.272  19.618  12.119
32311W        W97131  18.125  38.797  14.385
32312W        W97132  40.050  35.979   0.486
32313W        W97133  33.096  29.136  14.951
32314W        W97134  23.253   7.603   0.800
32315W        W97135  26.070  40.200  13.904
32316W        W97136  29.573  38.121   1.829
32317W        W97137   9.355  44.532  13.007
32318W        W97138   6.325  33.882  14.933
32319W        W97139  31.578  29.482  12.912
32320W        W97140  37.506   9.623  14.946
32321W        W97141  29.477  16.751   1.547
32322W        W97142  10.184   2.185   3.830
32323W        W97143  11.469  31.042  11.628
32324W        W97144  40.168  29.168   1.936
32325W        W97145  26.088  14.829  10.769
32326W        W97146  42.883  18.051   1.739
32327W        W97147  29.350  37.711  14.693
32328W        W97148   1.795  38.093  14.735
32329W        W97149  26.147  35.693   1.780
32330W        W97150  20.085   9.861  12.276
32331W        W97151  20.634  30.939   3.561
32332W        W97152   5.294  41.938   3.319
32333W        W97153  20.002  39.603   1.322
32334W        W97154  18.081   0.383   1.972
32335W        W97155  18.340  17.313  12.436
32336W        W97156  36.258  27.735   2.211
32337W        W97157   7.970  40.082   4.231
32338W        W97158   4.504  17.302  11.461
32339W        W97159   7.480  42.006  12.503
32340W        W97160  29.008  42.867   0.305
32341W        W97161  26.958   7.105  13.633
32342W        W97162   3.891  23.993   1.014
32343W        W97163  30.253  10.384  14.870
32344W        W97164   7.801  15.205   3.074
32345W        W97165  24.096  36.448   1.447
32346W        W97166  40.623   9.721   1.122
32347W        W97167   2.399   3.637   3.588
32348W        W97168  31.955  10.806   2.476
32349W        W97169  26.586  41.333   3.429
32350W        W97170   5.995   6.519  11.605
32351W        W97171   0.018  32.774  12.542
32352W        W97172  12.117   3.129   0.880
32353W        W97173  43.090  18.053   2.219
32354W        W97174  33.884  28.214   2.429
32355W        W97175  38.218  21.699  12.958
32356W        W97176  26.439   9.584  12.554
32357W        W97177  21.120   8.165   4.563
32358W        W97178   0.390  10.335   4.591
32359W        W97179  37.294  18.223   3.636
32360W        W97180  28.584  39.512  12.408
32361W        W97181  30.601  40.297  12.582
32362W        W97182   0.730  22.275   4.701
32363W        W97183  38.774  36.105   4.048
32364W        W97184  35.138  18.761  11.595
32365W        W97185  41.522  27.229   1.274
32366W        W97186   2.010  43.383  12.541
32367W        W97187  11.483  39.008  13.503
32368W        W97188  17.867  33.417   3.216
32369W        W97189  17.229  33.890   4.024
32370W        W97190   8.108  24.106   1.865
32371W        W97191  44.497  35.312   3.244
32372W        W97192  20.106  43.160   0.694
32373W        W97193  18.858  39.530  10.886
32374W        W97194  38.556  25.956  13.145
32375W        W97195  25.081  21.825  11.118
32376W        W97196   6.756  28.466   1.239
32377W        W97197   4.724   9.803   0.805
32378W        W97198  26.409  21.595   4.638
32379W        W97199  40.646  26.521   2.562
32380W        W97200  37.393  16.052  12.325
32381W        W97201   7.404  18.354  12.885
32382W        W97202  20.602  35.089   2.812
32383W        W97203  39.031   3.684  13.612
32384W        W97204   6.320  33.659   9.737
32385W        W97205  28.647  33.077   1.324
32386W        W97206  38.401   4.225  14.049
32387W        W97207   6.694  12.676  11.641
32388W        W97208  12.060  24.682   4.112
32389W        W97209  40.341   9.760   4.547
32390W        W97210  38.467  44.719  12.096
32391W        W97211  30.463   0.334  13.593
32392W        W97212  31.398   6.741   4.204
32393W        W97213   8.112  38.514   0.673
32394W        W97214  20.501  37.249   0.887
32395W        W97215   9.278  37.564   3.627
32396W        W97216  37.813  10.653  12.189
32397W        W97217  20.995  16.033  11.584
32398W        W97218  37.979   3.278   1.758
32399W        W97219  34.917  32.599  14.865
32400W        W97220  20.189   0.435  13.348
32401W        W97221  35.499  27.535  14.479
32402W        W97222  33.623  25.032   0.763
32403W        W97223   0.096  17.377  13.755
32404W        W97224  43.444  29.419  11.709
32405W        W97225   5.866  39.632  13.140
32406W        W97226  37.274  19.281   0.412
32407W        W97227  14.382  29.081  13.471
32408W        W97228  29.906  18.970  11.863
32409W        W97229  33.513  32.183   1.489
32410W        W97230  18.528  20.987   1.813
32411W        W97231  29.422  34.483  10.838
32412W        W97232  10.403  40.301  11.493
32413W        W97233  32.562   3.445   4.524
32414W        W97234  17.319   4.326  13.846
32415W        W97235  11.670  36.101  14.387
32416W        W97236  11.220   7.362  14.003
32417W        W97237  11.125  42.065  13.384
32418W        W97238  44.700  19.023   2.938
32419W        W97239   3.865  31.913   4.726
32420W        W97240  25.636  29.878   4.361
32421W        W97241  19.819  27.576   4.429
32422W        W97242  11.230  21.441   0.058
32423W        W97243  32.143  33.556   1.386
32424W        W97244   1.392   9.869   2.209
32425W        W97245  14.276  10.625  13.853
32426W        W97246  32.643   1.828   1.665
32427W        W97247  27.418  37.872  12.391
32428W        W97248  31.304  14.155  11.232
32429W        W97249   1.681  37.515  11.125
32430W        W97250  44.709  43.978  12.586
32431W        W97251  10.364  16.151  14.322
32432W        W97252  32.790   0.923  12.351
32433W        W97253  30.707  38.076  14.330
32434W        W97254  40.986  17.986   1.759
32435W        W97255  17.129   8.766  13.493
32436W        W97256  39.851  37.335   2.484
32437W        W97257  11.020   4.727   0.774
32438W        W97258   2.393  38.766  11.545
32439W        W97259  42.242  33.209   4.207
32440W        W97260   2.417  19.283   1.743
32441W        W97261  31.614  28.642  12.507
32442W        W97262  38.623  17.384  13.805
32443W        W97263  18.111  30.600   1.814
32444W        W97264   9.109  17.236  13.583
32445W        W97265  32.212  27.773   5.126
32446W        W97266  36.012  12.026   1.667
32447W        W97267  17.735  35.867   9.766
32448W        W97268  33.471  26.732   5.098
32449W        W97269  18.410  28.456  13.805
32450W        W97270  41.541   6.744   1.294
32451W        W97271  12.382  26.742  10.718
32452W        W97272   8.305  13.638  10.912
32453W        W97273  16.024  41.430   3.720
32454W        W97274  30.616  27.138   1.699
32455W        W97275  28.699   3.194   0.058
32456W        W97276   6.478  28.719  14.551
32457W        W97277  23.655  24.726  10.461
32458W        W97278  35.660  36.872  10.717
32459W        W97279  17.027  44.152   3.777
32460W        W97280  37.594  39.511  11.122
32461W        W97281  44.049   8.388  14.005
32462W        W97282   9.315  43.558  12.364
32463W        W97283  11.511  23.005   3.270
32464W        W97284  39.819  38.448   0.712
32465W        W97285  42.534  32.061  10.596
32466W        W97286  44.384  19.422  10.439
32467W        W97287   1.006  38.995  12.665
32468W        W97288  13.674  11.760   4.571
32469W        W97289  28.580  21.504  11.407
32470W        W97290   9.097  31.963   5.096
32471W        W97291  11.756   8.819   0.444
32472W        W97292   2.794  34.390   3.206
32473W        W97293  29.323   3.400  11.622
32474W        W97294  23.466  41.077  10.616
32475W        W97295  41.178  24.791   3.227
32476W        W97296  40.505  34.096  14.489
32477W        W97297  32.075  21.707   4.917
32478W        W97298  42.286  28.021   1.307
32479W        W97299   3.366  38.299   0.655
32480W        W97300   3.159  38.434   1.656
32481W        W97301   9.441  44.315  10.830
32482W        W97302  14.160  39.466  11.987
32483W        W97303  35.803  24.558   1.237
32484W        W97304  12.779  33.794  13.074
32485W        W97305  35.386   3.690  14.036
32486W        W97306  39.777  41.337   4.523
32487W        W97307   0.329   0.195  10.817
32488W        W97308  24.133  13.165   4.592
32489W        W97309   9.429   3.231  14.185
32490W        W97310  37.502  36.855   2.116
32491W        W97311  24.231  44.277   0.844
32492W        W97312   7.413   9.955  10.778
32493W        W97313  23.107   2.547   0.255
32494W        W97314   7.073  12.646   2.255
32495W        W97315  43.846  40.498   3.168
32496W        W97316  37.954  40.121  10.380
32497W        W97317  43.427   3.259  11.986
32498W        W97318   4.766   0.866  10.587
32499W        W97319  41.215   8.171  11.372
32500W        W97320   3.121  34.665   1.978
32501W        W97321  18.178  40.859  13.871
32502W        W97322  24.311  39.994  11.055
32503W        W97323   4.466  44.714   0.280
32504W        W97324  40.924  42.651   2.242
32505W        W97325   1.444  41.944   1.322
32506W        W97326  31.400  34.056  13.084
32507W        W97327  26.997  20.494   1.774
32508W        W97328  22.210  40.563   2.922
32509W        W97329  19.548   7.313   2.614
32510W        W97330  22.037   1.283  10.871
32511W        W97331  38.470  19.807   0.297
32512W        W97332  18.149  12.769   4.843
32513W        W97333  31.027  26.605   4.661
32514W        W97334   4.391   7.272  10.534
32515W        W97335   3.547  24.906  12.948
32516W        W97336  43.092  32.932   2.227
32517W        W97337  43.388  17.708   4.310
32518W        W97338  37.138  32.843   4.189
32519W        W97339  15.945  10.183   2.714
32520W        W97340   3.023  41.596   3.700
32521W        W97341  32.225  19.759   2.820
32522W        W97342  11.650  28.050  11.202
32523W        W97343   8.686  35.962  12.522
32524W        W97344  39.560  44.321   3.270
32525W        W97345  14.101   6.020   0.351
32526W        W97346  12.693   2.243  13.327
32527W        W97347  33.547  23.029   4.097
32528W        W97348   3.523   3.491  14.639
32529W        W97349  41.467  42.948  12.417
32530W        W97350  32.505   9.292  12.855
32531W        W97351  28.874   2.321   4.088
32532W        W97352  24.148  12.801  14.993
32533W        W97353  39.526  20.643   1.352
32534W        W97354  18.044   5.177   2.381
32535W        W97355  15.124  41.917  14.828
32536W        W97356   8.918  22.932  14.889
32537W        W97357  34.406  29.829  14.441
32538W        W97358  14.544  40.370  10.960
32539W        W97359  24.055   7.988   0.999
32540W        W97360  36.567  12.828   1.968
32541W        W97361  39.030  20.166  12.516
32542W        W97362  22.005   6.896  11.917
32543W        W97363  30.013  35.528   0.835
32544W        W97364  11.805  20.690   3.100
32545W        W97365  27.471  30.523  12.366
32546W        W97366  25.971  26.122  11.788
32547W        W97367   5.846  24.630  11.875
32548W        W97368  25.141   6.632  14.431
32549W        W97369  40.380  17.944  11.928
32550W        W97370  33.993  23.309   3.639
32551W        W97371  39.787  18.216   4.559
32552W        W97372  25.939  27.402  12.491
32553W        W97373   3.644  31.478  14.641
32554W        W97374  31.550  17.099  12.460
32555W        W97375   9.788  44.462   0.847
32556W        W97376  31.006   5.350  12.865
32557W        W97377  25.948  43.033  14.368
32558W        W97378  24.801  41.262   1.332
32559W        W97379   4.241  17.636  12.476
32560W        W97380   2.591   3.353   2.021
32561W        W97381  12.224  12.396   0.970
32562W        W97382  43.520  35.948   3.832
32563W        W97383   0.275  22.649  12.022
32564W        W97384  40.831   9.847  13.787
32565W        W97385  42.022  42.387  12.200
32566W        W97386  29.683  43.480   0.204
32567W        W97387  27.567  15.797   4.970
32568W        W97388  39.110  43.773  14.886
32569W        W97389  16.290  23.332   0.132
32570W        W97390   4.918  35.055   1.394
32571W        W97391  24.434  13.719  11.124
32572W        W97392  37.838  14.545   3.098
32573W        W97393  39.286   8.022  11.636
32574W        W97394   2.004  30.467   1.818
32575W        W97395   2.271   2.312   2.476
32576W        W97396   4.289  36.069  14.490
32577W        W97397   8.233   5.825   4.171
32578W        W97398  16.042  25.660   2.819
32579W        W97399  27.153  27.733   0.369
32580W        W97400  24.474  41.676   5.029
32581W        W97401  27.667  34.606  13.505
32582W        W97402  38.299  14.950  12.465
32583W        W97403  12.257  20.623  10.592
32584W        W97404   6.727  11.529   3.915
32585W        W97405  29.929  39.042  11.952
32586W        W97406  33.353  23.491  13.945
32587W        W97407  15.810  14.926  11.940
32588W        W97408  12.183  25.934   4.984
32589W        W97409  14.606  37.957   4.159
32590W        W97410  32.224   2.835  12.410
32591W        W97411   8.607   4.802  11.437
32592W        W97412  42.792  26.880   0.851
32593W        W97413  21.141   5.489   4.264
32594W        W97414   2.784   9.434  11.796
32595W        W97415   1.436  13.684  14.122
32596W        W97416  41.656   4.760   4.175
32597W        W97417   6.196   7.978  14.837
32598W        W97418  31.878  33.389  10.809
32599W        W97419  18.082  38.939   0.484
32600W        W97420  34.293   1.404   0.717
32601W        W97421   4.440  41.482   0.448
32602W        W97422   9.278  21.499  10.910
32603W        W97423  19.867  23.059   2.856
32604W        W97424   3.283  30.837  10.738
32605W        W97425  30.180   4.309   3.070
32606W        W97426  19.082  16.528  12.807
32607W        W97427  31.610  22.478   1.427
32608W        W97428   0.263  18.709  12.172
32609W        W97429  18.572  15.696  13.037
32610W        W97430  35.382   9.815   3.003
32611W        W97431  18.064  24.649  12.938
32612W        W97432  21.273  24.446   4.571
32613W        W97433  40.873  17.562   3.383
32614W        W97434  18.502  23.827  14.014
32615W        W97435   7.884  16.891  12.571
32616W        W97436  40.810  40.992  11.131
32617W        W97437   6.891  34.093  14.356
32618W        W97438  24.040  10.440   1.657
32619W        W97439   5.288  13.052  13.305
32620W        W97440  24.141  12.856  10.773
32621W        W97441   1.337  20.073   3.365
32622W        W97442  21.559  18.352   0.105
32623W        W97443  44.510  29.544   3.348
32624W        W97444  29.962   8.923   2.408
32625W        W97445  37.922  35.239   4.027
32626W        W97446   6.958  31.111  14.248
32627W        W97447   9.685  43.403  13.110
32628W        W97448  10.840  36.166  11.133
32629W        W97449   8.641  40.144   3.732
32630W        W97450  30.503   5.414  13.089
32631W        W97451  28.009  43.837   0.387
32632W        W97452  42.882  28.964   4.320
32633W        W97453   1.171   8.305  11.550
32634W        W97454  35.580  21.808   0.571
32635W        W97455  13.126   0.290  12.440
32636W        W97456  39.642  29.051   1.944
32637W        W97457  25.575  32.405  12.968
32638W        W97458  13.174  22.582  13.708
32639W        W97459  28.441  13.886  13.986
32640W        W97460  33.146  29.921   1.447
32641W        W97461  25.181  29.618  14.993
32642W        W97462  29.670   0.765   0.703
32643W        W97463  37.687  14.150  14.574
32644W        W97464  16.409  19.787  11.166
32645W        W97465  32.109  37.173   0.782
32646W        W97466  30.075   3.431  14.783
32647W        W97467   0.839  15.791   4.198
32648W        W97468  10.256   0.203   4.488
32649W        W97469   9.772   9.859  14.233
32650W        W97470  27.336  28.454  14.932
32651W        W97471   4.628  31.651  11.104
32652W        W97472   8.868  25.015  13.977
32653W        W97473   7.447  41.328  11.015
32654W        W97474   2.330  16.192   0.233
32655W        W97475   6.426   1.050  10.354
32656W        W97476  23.501   1.360   3.228
32657W        W97477  36.240  11.374   0.998
32658W        W97478  33.668  17.787  10.657
32659W        W97479   6.324  21.027   5.064
32660W        W97480   9.762   4.386   0.287
32661W        W97481  37.625  18.853  12.435
32662W        W97482   0.424  37.919   3.338
32663W        W97483   0.190  31.366   1.353
32664W        W97484  22.175  23.484   1.895
32665W        W97485  39.018  43.741  13.542
32666W        W97486  31.352  35.324  13.392
32667W        W97487  28.611  27.368   4.944
32668W        W97488   3.245  24.006   4.835
32669W        W97489  24.238   7.295  12.036
32670W        W97490  40.487   8.783   1.144
32671W        W97491  26.136  17.237  13.913
32672W        W97492  13.241  29.118   1.329
32673W        W97493   7.101   5.248   4.562
32674W        W97494  35.606  28.995  14.830
32675W        W97495  14.874  21.787  12.381
32676W        W97496  17.806   8.415   0.272
32677W        W97497  39.412  30.008   4.490
32678W        W97498  28.409  37.465   2.779
32679W        W97499   5.422  37.535   2.306
32680W        W97500  41.374  43.191   4.225
32681W        W97501   4.428  21.217  13.498
32682W        W97502  23.014  42.803   3.845
32683W        W97503  12.252   2.043  13.571
32684W        W97504  32.500  28.376   9.739
32685W        W97505   5.497  44.757  12.862
32686W        W97506  41.643  25.042   3.009
32687W        W97507  15.252  18.829  10.590
32688W        W97508  27.538  13.177   2.090
32689W        W97509  42.551  36.254   1.840
32690W        W97510   6.740  32.747  11.073
32691W        W97511   7.282  13.675   0.952
32692W        W97512  24.546   4.843  10.930
32693W        W97513   2.338  25.555   3.176
32694W        W97514  34.888  27.932   0.287
32695W        W97515  40.422  12.955   4.235
32696W        W97516  28.545   1.071  11.627
32697W        W97517  12.639  33.394  13.445
32698W        W97518  26.440  15.730  14.053
32699W        W97519  14.397  17.781   0.351
32700W        W97520  36.548  41.779  14.352
32701W        W97521   1.016  35.472   3.955
32702W        W97522   5.277  29.997   1.343
32703W        W97523  37.758  18.244   3.379
32704W        W97524  18.558  26.317   4.170
32705W        W97525   6.012   3.735  13.875
32706W        W97526   5.898  34.789  13.857
32707W        W97527  44.862  13.598  11.999
32708W        W97528  42.858  34.925   1.361
32709W        W97529  14.790  43.195   1.185
32710W        W97530  17.500   1.480   1.502
32711W        W97531  40.962  30.013   0.302
32712W        W97532  37.487  42.530   3.679
32713W        W97533  32.674  17.737  12.959
32714W        W97534   9.862  20.569   1.326
32715W        W97535  44.235  17.047   4.599
32716W        W97536  42.778   0.237   2.126
32717W        W97537  26.520  27.155   0.499
32718W        W97538  25.424  42.250  12.597
32719W        W97539  16.637  44.420  10.049
32720W        W97540   2.003  11.708   4.453
32721W        W97541  16.741  35.693   3.181
32722W        W97542  37.265  23.072  10.621
32723W        W97543  28.193  35.130  14.361
32724W        W97544  17.163   2.404  14.079
32725W        W97545  41.719  44.506   2.967
32726W        W97546  38.123  26.508  12.044
32727W        W97547  21.282  29.552   3.300
32728W        W97548  24.110   4.907  10.134
32729W        W97549  10.202  31.338  13.062
32730W        W97550  18.822  29.614  14.315
32731W        W97551   2.934   2.879   1.872
32732W        W97552  19.476  15.726  13.323
32733W        W97553  13.371  16.349  11.980
32734W        W97554  30.814  10.240  12.071
32735W        W97555  12.261  27.717   3.674
32736W        W97556  25.314  25.892  14.884
32737W        W97557   7.884  34.645   2.874
32738W        W97558  28.485  42.878   0.370
32739W        W97559  42.484   2.352   3.268
32740W        W97560   4.726  13.160  11.099
32741W        W97561   1.369  22.050  14.322
32742W        W97562  14.843   3.563   2.791
32743W        W97563   3.902  14.127  12.477
32744W        W97564  33.558  44.786  14.843
32745W        W97565  21.651   4.565   0.304
32746W        W97566  25.488  38.791  11.558
32747W        W97567  23.272  18.572  10.797
32748W        W97568  28.258  35.941  11.800
32749W        W97569   4.797  33.889  14.373
32750W        W97570  23.477   4.841   3.635
32751W        W97571  42.463  28.433  13.501
32752W        W97572  21.833  16.299  12.836
32753W        W97573  21.017   1.373  11.693
32754W        W97574  33.665   0.397   2.619
32755W        W97575  34.039   9.287   1.709
32756W        W97576  29.519  11.149  11.542
32757W        W97577  20.089   1.237   2.311
32758W        W97578  34.981  35.630  12.992
32759W        W97579  15.813   6.277  11.130
32760W        W97580  21.336  26.317   9.800
32761W        W97581  16.017   5.954  12.837
32762W        W97582  21.637  34.089   1.483
32763W        W97583   0.143  11.582  12.499
32764W        W97584  43.690  28.894   3.302
32765W        W97585  12.859  24.412   0.298
32766W        W97586   6.461  41.866   3.739
32767W        W97587  32.373  32.210   0.508
32768W        W97588  31.147   5.411   0.824
32769W        W97589  27.644  19.008  13.400
32770W        W97590  11.524   7.966  13.093
32771W        W97591  21.969  33.198   1.223
32772W        W97592  42.438  37.823   1.867
32773W        W97593   7.126  26.456  14.199
32774W        W97594   6.017  14.915   0.833
32775W        W97595  44.756  42.460  10.658
32776W        W97596  29.349  34.642  14.023
32777W        W97597   8.610  37.654  10.244
32778W        W97598   7.800   0.699  11.587
32779W        W97599  36.703   6.982   9.912
32780W        W97600  16.012   0.932   1.235
32781W        W97601   3.396  38.777   0.373
32782W        W97602  26.389  34.665   1.281
32783W        W97603   1.670   1.445  14.830
32784W        W97604  42.056  41.429  14.899
32785W        W97605  37.832   4.812  14.683
32786W        W97606   4.776  33.489   3.024
32787W        W97607  27.257  18.160   1.683
32788W        W97608  11.477  39.900   0.916
32789W        W97609  21.993   5.619  13.357
32790W        W97610  20.237  40.297  13.595
32791W        W97611  22.459  32.597   1.702
32792W        W97612  14.224  30.659  13.360
32793W        W97613   4.541  21.940  14.823
32794W        W97614   3.744  29.603   4.616
32795W        W97615  36.760  27.926  10.753
32796W        W97616   9.171  13.263   2.612
32797W        W97617  22.648  37.752  14.543
32798W        W97618   7.010  31.113   3.918
32799W        W97619  37.555   8.066   1.732
32800W        W97620  24.621   6.623   3.190
32801W        W97621  27.356  11.525  13.635
32802W        W97622   0.455  20.101   3.135
32803W        W97623   5.144   2.825   1.652
32804W        W97624   4.090  44.322  14.416
32805W        W97625  34.012  34.580  13.856
32806W        W97626  26.495  37.413   4.609
32807W        W97627   1.818  11.741  12.967
32808W        W97628  11.736   6.695  14.255
32809W        W97629  28.459  23.750   4.012
32810W        W97630  32.113  39.423   1.315
32811W        W97631   4.338  37.126   0.283
32812W        W97632  14.579  34.837   4.745
32813W        W97633  24.154   4.410  11.442
32814W        W97634  40.251   0.385   3.243
32815W        W97635   0.955  19.617   4.697
32816W        W97636  21.412  19.173   0.485
32817W        W97637  28.180  16.584   3.724
32818W        W97638  13.119   3.441   0.862
32819W        W97639  29.411  27.743  11.514
32820W        W97640  36.036  33.542  10.683
32821W        W97641  43.950  19.858  14.980
32822W        W97642  27.201  40.739   0.779
32823W        W97643  12.302  30.142  11.957
32824W        W97644   3.700   5.975  12.956
32825W        W97645  24.666  21.804  11.447
32826W        W97646  29.959  32.899  14.887
32827W        W97647  28.852  28.485  12.041
32828W        W97648  35.826  42.489   4.281
32829W        W97649  15.504   0.928   2.910
32830W        W97650  36.521  30.948  12.609
32831W        W97651  32.835  26.686   3.265
32832W        W97652  35.408  10.356   0.975
32833W        W97653  38.784  23.628   4.748
32834W        W97654  42.057  39.809  13.596
32835W        W97655  31.882  32.522   1.402
32836W        W97656  20.182  14.355  13.426
32837W        W97657  13.024  31.647  12.174
32838W        W97658  10.462  31.758   1.873
32839W        W97659  16.094   3.460   4.570
32840W        W97660  26.257   2.623   3.102
32841W        W97661  29.906  41.309   3.221
32842W        W97662  38.896   5.804   0.654
32843W        W97663   7.516  39.782   4.202
32844W        W97664   2.194   4.503   1.443
32845W        W97665  35.194  37.502  13.631
32846W        W97666  40.146  32.344   3.157
32847W        W97667   7.143  29.615  12.424
32848W        W97668  32.048  12.324  12.567
32849W        W97669  30.350  17.647  11.176
32850W        W97670  42.338  34.276  13.351
32851W        W97671  18.713  16.717   4.651
32852W        W97672   0.861   8.739  11.635
32853W        W97673   2.271   6.063  10.235
32854W        W97674  29.376  43.362   2.038
32855W        W97675  21.269  15.166  13.076
32856W        W97676  41.949  32.318   2.776
32857W        W97677  15.295  24.453   4.207
32858W        W97678  31.883  17.665  13.425
32859W        W97679  15.355  26.992   4.885
32860W        W97680   8.536  15.660  13.434
32861W        W97681  27.164  23.172  13.570
32862W        W97682  17.624  44.299  12.506
32863W        W97683  18.176   0.887   4.091
32864W        W97684   7.134   1.662   3.644
32865W        W97685  35.006  31.473   2.384
32866W        W97686  18.954  23.706  12.640
32867W        W97687  21.482   6.246  13.795
32868W        W97688  34.160  30.324   3.806
32869W        W97689  15.171   6.453  14.819
32870W        W97690  42.765  24.911   2.833
32871W        W97691  38.054  35.273  14.880
32872W        W97692  13.073   1.106   1.241
32873W        W97693  29.045   9.725   1.517
32874W        W97694   7.121  36.038  10.797
32875W        W97695  26.955  24.830  12.630
32876W        W97696  30.572  21.246  13.300
32877W        W97697   2.475  18.756  11.554
32878W        W97698  35.627  21.113  11.460
32879W        W97699  17.748   7.646   4.555
32880W        W97700  11.897   9.792   2.204
32881W        W97701  26.854  40.371   0.592
32882W        W97702   2.825  13.518  11.632
32883W        W97703  23.403   3.980   3.698
32884W        W97704  11.739  13.275  11.108
32885W        W97705  25.081  34.107  14.040
32886W        W97706  23.487  26.499   3.137
32887W        W97707  14.370  31.710  13.650
32888W        W97708   1.800  29.985  11.087
32889W        W97709   8.405   3.222   0.683
32890W        W97710  44.897  40.066   4.023
32891W        W97711  33.100  27.240  14.905
32892W        W97712  37.111  40.812   3.224
32893W        W97713  34.982  19.781   4.531
32894W        W97714  42.911   9.841   2.347
32895W        W97715  18.092  12.651   3.207
32896W        W97716  29.724   5.395   3.126
32897W        W97717  31.397   3.830  11.543
32898W        W97718  14.300  42.073  11.440
32899W        W97719  25.952  43.293   0.757
32900W        W97720   8.799  29.519  11.735
32901W        W97721  21.603  25.172  12.622
32902W        W97722  30.156  14.289  13.756
32903W        W97723  34.111  36.965  12.717
32904W        W97724  27.058  39.562   4.808
32905W        W97725  21.015  28.102   0.658
32906W        W97726  30.692  17.362  11.466
32907W        W97727  12.624  27.869   5.399
32908W        W97728  40.405  28.087  12.471
32909W        W97729  41.759  11.316  12.762
32910W        W97730   8.102  22.465  13.004
32911W        W97731  26.123  43.310  12.435
32912W        W97732  45.000   2.795  13.418
32913W        W97733  42.747  24.994   4.350
32914W        W97734  35.070   5.494  13.846
32915W        W97735  11.618   4.726  11.197
32916W        W97736  22.589  36.076  12.859
32917W        W97737   1.721  15.298   0.342
32918W        W97738   4.994  23.599  12.006
32919W        W97739  25.328  12.357  14.456
32920W        W97740  19.729  22.473  13.108
32921W        W97741  39.397  13.280  13.679
32922W        W97742   6.581  34.873   4.780
32923W        W97743  31.486   9.182   1.468
32924W        W97744  41.015  10.604   0.724
32925W        W97745  27.119  38.963  10.803
32926W        W97746  26.847  18.759  10.795
32927W        W97747   7.126  36.895   4.142
32928W        W97748   3.362  42.266  13.923
32929W        W97749   8.303  10.189  12.509
32930W        W97750  41.902   2.488  11.950
32931W        W97751  42.021  42.465  14.066
32932W        W97752  10.180   4.683   2.854
32933W        W97753  28.933  37.649   3.802
32934W        W97754  20.284  24.528   0.891
32935W        W97755   2.315  20.162  12.684
32936W        W97756  44.890  24.868  11.271
32937W        W97757  11.721   3.259  13.128
32938W        W97758  15.875   0.062  10.408
32939W        W97759  41.463  21.706  12.820
32940W        W97760  38.761   4.075  13.375
32941W        W97761  40.948  40.066   1.862
32942W        W97762   3.013   9.909  11.732
32943W        W97763  20.546  44.896   3.186
32944W        W97764  39.779  30.165   0.930
32945W        W97765  12.740   9.128  13.886
32946W        W97766  34.250  27.037  13.934
32947W        W97767   0.954  40.502  11.602
32948W        W97768   2.346  40.288  12.578
32949W        W97769   8.747  26.190   3.127
32950W        W97770  36.528  35.427  11.511
32951W        W97771  15.862   6.755   2.273
32952W        W97772  24.715   8.294   1.351
32953W        W97773  25.222  38.378   4.164
32954W        W97774   5.919  32.900  12.843
32955W        W97775  41.018  14.146  12.629
32956W        W97776  39.494   7.883  13.448
32957W        W97777  14.738   9.248   1.459
32958W        W97778  41.938  15.472   3.136
32959W        W97779  16.130  26.697  10.551
32960W        W97780  23.466  41.795  11.102
32961W        W97781  27.599  43.573   3.399
32962W        W97782  12.896  22.741   2.209
32963W        W97783  21.674  26.725   0.524
32964W        W97784  27.994   5.383  13.944
32965W        W97785  12.342   6.351   1.455
32966W        W97786  12.671   0.875   1.515
32967W        W97787  30.527  33.571  10.653
32968W        W97788  18.156  14.320  12.531
32969W        W97789  14.202  41.563  11.491
32970W        W97790  16.976  10.796  10.475
32971W        W97791  42.697  36.279  13.748
32972W        W97792  24.974  34.835  11.768
32973W        W97793  10.339  13.823  13.093
32974W        W97794  32.220  36.334  12.525
32975W        W97795  30.702  44.798  14.386
32976W        W97796  38.918  22.023  10.807
32977W        W97797  14.312  22.568   3.268
32978W        W97798  15.037  40.042  13.479
32979W        W97799  13.843   5.036   2.706
32980W        W97800  11.355   7.911   3.113
32981W        W97801  12.071   9.169   0.226
32982W        W97802  18.218  27.948   0.845
32983W        W97803  42.982  17.163   2.980
32984W        W97804  14.736  20.349   3.563
32985W        W97805  18.053   6.425  13.459
32986W        W97806  31.959  31.099   4.582
32987W        W97807  10.800   0.382  11.673
32988W        W97808   6.956  10.757   4.106
32989W        W97809  24.562  32.826  13.946
32990W        W97810  32.043  37.528  12.641
32991W        W97811   1.316  14.512  11.893
32992W        W97812   6.005   2.985   2.780
32993W        W97813  27.419  12.663   2.873
32994W        W97814  16.762  25.543   1.828
32995W        W97815   0.714   0.966  11.068
32996W        W97816  25.015  14.904   3.691
32997W        W97817  30.975  19.076   0.948
32998W        W97818   8.617  41.202   0.405
32999W        W97819   0.966   2.649  11.131
33000W        W97820   8.864   1.255   1.144
33001W        W97821   1.332  11.330   0.382
33002W        W97822  37.723  30.901  13.592
33003W        W97823   0.115   9.929  14.990
33004W        W97824  13.129  31.687  14.986
33005W        W97825  28.427  24.536   0.175
33006W        W97826   0.377  17.407  11.169
33007W        W97827  32.124  34.351   3.309
33008W        W97828  43.027   1.414   4.598
33009W        W97829   3.373  25.165  10.024
33010W        W97830   9.910  44.407  13.213
33011W        W97831  44.719   7.415  11.370
33012W        W97832  26.164  38.619   4.307
33013W        W97833  41.853  16.774  11.544
33014W        W97834  37.335  23.448  11.532
33015W        W97835   9.213  31.748  13.557
33016W        W97836  12.205   6.122   3.451
33017W        W97837  34.455  11.841  12.204
33018W        W97838   5.180  28.614   4.636
33019W        W97839  40.380  32.487   2.483
33020W        W97840  19.639  41.307  11.818
33021W        W97841  24.066  31.443   2.871
33022W        W97842  21.256   8.659   0.786
33023W        W97843  43.327  37.324  12.950
33024W        W97844  30.182   7.316  14.386
33025W        W97845  22.677  42.443   4.091
33026W        W97846   2.038  17.346   3.704
33027W        W97847  19.251   9.943   9.350
33028W        W97848   0.890  32.403   4.182
33029W        W97849  32.156  29.909   4.138
33030W        W97850  23.255  40.388   2.911
33031W        W97851   6.179  21.641  13.751
33032W        W97852  41.006  42.740  13.928
33033W        W97853   4.231   3.883  12.569
33034W        W97854  14.695  31.084   3.373
33035W        W97855  41.139  30.355   0.945
33036W        W97856  34.852  10.334  14.460
33037W        W97857   9.723  34.748   1.533
33038W        W97858  16.395  28.216   0.725
33039W        W97859  29.129  31.690  14.871
33040W        W97860  38.813  21.505  10.744
33041W        W97861  34.533  10.401   3.823
33042W        W97862   8.910  30.163  14.830
33043W        W97863  39.988  30.517  11.659
33044W        W97864  40.292  22.253  12.474
33045W        W97865  27.411  27.263  12.723
33046W        W97866  17.205  20.187  11.053
33047W        W97867   0.504  17.062  13.786
33048W        W97868  18.592  15.314   4.249
33049W        W97869   5.331  43.408  14.028
33050W        W97870  34.555  28.262   1.264
33051W        W97871   9.154  32.403  14.581
33052W        W97872  44.760  19.054   0.845
33053W        W97873  36.492  21.819   2.852
33054W        W97874   0.876  32.358  12.893
33055W        W97875   8.820   8.450   1.328
33056W        W97876   4.700  38.922   4.638
33057W        W97877   4.468  16.701  12.953
33058W        W97878   7.506   8.252  13.690
33059W        W97879   5.930  44.862   4.100
33060W        W97880  27.639  16.332   0.063
33061W        W97881  17.732  38.385  14.004
33062W        W97882  38.549   0.004  11.148
33063W        W97883  44.513   6.035   4.134
33064W        W97884  43.573   6.972   4.227
33065W        W97885  23.634  28.587  12.460
33066W        W97886  24.143  44.970   1.417
33067W        W97887  33.549   5.181  12.437
33068W        W97888  23.217  14.889  11.012
33069W        W97889  43.327  18.507   2.359
33070W        W97890  10.869  29.926  13.847
33071W        W97891  33.978   3.331  10.607
33072W        W97892  38.054   5.824   0.829
33073W        W97893   0.154   3.594  11.649
33074W        W97894  29.632   1.309  10.542
33075W        W97895  15.729  15.999   1.645
33076W        W97896  24.596  39.796  10.671
33077W        W97897  37.310  15.819   1.959
33078W        W97898  32.020  44.804  14.009
33079W        W97899   1.080  31.428  13.086
33080W        W97900  24.914  14.099   4.630
33081W        W97901   3.500  42.224   2.631
33082W        W97902  37.097   2.884  14.981
33083W        W97903  30.275  23.908   1.328
33084W        W97904   4.745  14.393   3.427
33085W        W97905   1.191   7.524  11.221
33086W        W97906   4.919  26.146  12.917
33087W        W97907   6.716  35.346  11.932
33088W        W97908   6.008   7.558   3.607
33089W        W97909  33.492  25.068   3.444
33090W        W97910  13.765  22.138  13.043
33091W        W97911  28.701  16.623  14.338
33092W        W97912  44.051   8.435  13.086
33093W        W97913   6.956  32.500   5.101
33094W        W97914  35.395  12.611   1.399
33095W        W97915  31.168  44.336   0.151
33096W        W97916  20.060  18.645   2.705
33097W        W97917  15.166  32.378   0.595
33098W        W97918  40.304  13.699   1.567
33099W        W97919  37.556  44.528  10.980
33100W        W97920  31.183   8.230  11.101
33101W        W97921  15.552  40.532   1.829
33102W        W97922  32.331   0.437   4.513
33103W        W97923  22.053  13.927   4.767
33104W        W97924  33.674  26.699   3.562
33105W        W97925  42.990  31.844   4.461
33106W        W97926  31.159  28.446   0.436
33107W        W97927   7.804  33.152   2.961
33108W        W97928   3.947  33.365  11.331
33109W        W97929  38.366  43.144   4.206
33110W        W97930  41.494  27.532   3.576
33111W        W97931  15.100  21.515  12.771
33112W        W97932  26.203  24.980  13.973
33113W        W97933  27.636   6.456   2.447
33114W        W97934  11.326   3.664  10.631
33115W        W97935   4.894   7.799  13.354
33116W        W97936   8.991  36.504   4.775
33117W        W97937  12.152  17.160  11.693
33118W        W97938  39.872  40.902   3.317
33119W        W97939  25.393  18.219   3.625
33120W        W97940  23.657  21.162  10.709
33121W        W97941   9.367  18.791   0.910
33122W        W97942  34.689  12.657  13.387
33123W        W97943  24.202  23.017  11.106
33124W        W97944   3.333  22.834   0.185
33125W        W97945  37.394   4.141   3.635
33126W        W97946  24.508   2.274   0.745
33127W        W97947   6.255  10.748  10.327
33128W        W97948  19.242   7.241   4.071
33129W        W97949   0.800  33.287   5.052
33130W        W97950   6.004  41.757   0.050
33131W        W97951  24.012  32.459  11.468
33132W        W97952  15.609  21.784   1.374
33133W        W97953  11.784  27.581   3.492
33134W        W97954  37.548  30.943   4.623
33135W        W97955  32.012   2.743   2.330
33136W        W97956  17.244  32.523  14.988
33137W        W97957  42.050   1.448  11.624
33138W        W97958  14.762  14.304   4.874
33139W        W97959  44.727  26.360  10.181
33140W        W97960  12.223   5.901   2.954
33141W        W97961  41.392  26.846   2.226
33142W        W97962   0.252  38.585   1.343
33143W        W97963  12.140  25.193  13.827
33144W        W97964  27.526  25.053   3.650
33145W        W97965  21.006  20.441   2.134
33146W        W97966  39.475  18.120   2.756
33147W        W97967  24.456  29.937  13.373
33148W        W97968   8.414   8.928  11.933
33149W        W97969   6.136  20.291  13.551
33150W        W97970  29.029  41.086   3.054
33151W        W97971   5.261   8.799   1.131
33152W        W97972   1.358  43.915   2.022
33153W        W97973   3.461   2.442  11.426
33154W        W97974   6.711  17.861   3.482
33155W        W97975  33.205  13.446  11.239
33156W        W97976   9.819  40.495  12.160
33157W        W97977  37.850  16.979   4.070
33158W        W97978  15.340  25.546  12.955
33159W        W97979  31.702  25.449  14.939
33160W        W97980  14.279  10.597   4.576
33161W        W97981  11.147  12.096   1.347
33162W        W97982   7.153  10.659   2.083
33163W        W97983  30.911  39.096   3.690
33164W        W97984  15.582  16.972   1.799
33165W        W97985  24.231   6.004   4.161
33166W        W97986  28.005   6.386   4.701
33167W        W97987  37.186  14.290  14.424
33168W        W97988  12.665   0.861   0.996
33169W        W97989  29.431  23.499   9.888
33170W        W97990  10.848  15.077   2.150
33171W        W97991  26.457  22.889  12.379
33172W        W97992  38.405  23.759   0.122
33173W        W97993  44.772   6.686   4.695
33174W        W97994   7.374  28.467   5.015
33175W        W97995  39.990  30.216  13.415
33176W        W97996   3.816  24.684  10.661
33177W        W97997  15.686  27.376  11.980
33178W        W97998  38.784  41.951  11.527
33179W        W97999  11.269  28.573   2.428
33180W        W98000   5.385   5.201  13.710
33181W        W98001   9.639  28.602   4.225
33182W        W98002   1.808   2.438   4.113
33183W        W98003  17.532   2.348   0.545
33184W        W98004  44.979   0.820  13.918
33185W        W98005  36.840  10.754   1.671
33186W        W98006  20.040  10.713   3.222
33187W        W98007  21.100  23.735  11.146
33188W        W98008  16.579  22.908  14.392
33189W        W98009  23.441  31.352  10.751
33190W        W98010  13.750  18.347   3.494
33191W        W98011  29.536   1.507  11.132
33192W        W98012   8.773  26.832  10.642
33193W        W98013   5.388  14.061   4.750
33194W        W98014   7.301  39.370  14.864
33195W        W98015  18.257  16.606   2.613
33196W        W98016  33.118  37.028   4.820
33197W        W98017   9.157  39.460  13.420
33198W        W98018   4.419  30.504  12.405
33199W        W98019  20.250  31.934  11.850
33200W        W98020  20.775  33.810   4.850
33201W        W98021  23.260  36.230   4.547
33202W        W98022  18.051   5.562  13.022
33203W        W98023   6.210  24.887  13.523
33204W        W98024  25.131  41.023  13.557
33205W        W98025   2.440   5.180   1.979
33206W        W98026  42.863  14.476  14.451
33207W        W98027  32.331  28.868   4.226
33208W        W98028  15.466  27.831  11.956
33209W        W98029  11.286  34.925   2.937
33210W        W98030  44.039   2.934  10.476
33211W        W98031  33.825  20.774  12.047
33212W        W98032  34.186   5.381  11.678
33213W        W98033  39.458  25.198   2.088
33214W        W98034  25.161  37.501   0.958
33215W        W98035  15.120  23.454   4.447
33216W        W98036  14.153  34.346   4.153
33217W        W98037  29.815   6.252  12.444
33218W        W98038  32.600  31.583  12.284
33219W        W98039  28.765  17.241   0.026
33220W        W98040  18.156  18.256   1.414
33221W        W98041  35.401   7.368   4.009
33222W        W98042  34.563  30.570  11.469
33223W        W98043  22.355  37.874   2.738
33224W        W98044  31.670   1.359  10.804
33225W        W98045  11.106  37.147  12.054
33226W        W98046   6.901  37.295  12.119
33227W        W98047  34.506   2.691   4.684
33228W        W98048  20.861  27.541  11.613
33229W        W98049  27.152  11.263  10.959
33230W        W98050  30.908  28.644  14.437
33231W        W98051  18.212   3.213   3.259
33232W        W98052   3.866  27.534  13.741
33233W        W98053  12.326   9.762  10.824
33234W        W98054  19.599  21.669   0.077
33235W        W98055  35.090  26.669   3.481
33236W        W98056   8.442   8.446   4.122
33237W        W98057  12.596  31.353  12.128
33238W        W98058   5.516  32.622  12.152
33239W        W98059   8.753  19.049  14.370
33240W        W98060  44.026  29.958  14.133
33241W        W98061  33.850  30.977  12.238
33242W        W98062  44.958  29.966  13.799
33243W        W98063  22.338   9.997   5.497
33244W        W98064  41.802  22.532   1.347
33245W        W98065  31.181   5.498  12.002
33246W        W98066   4.501  16.504   0.364
33247W        W98067   8.128  21.010   3.100
33248W        W98068   3.717  31.818  12.309
33249W        W98069  10.692   5.352   2.968
33250W        W98070  16.844  20.733   0.374
33251W        W98071  30.612  28.234  10.005
33252W        W98072  33.564  24.279  14.217
33253W        W98073   7.129  30.247   3.352
33254W        W98074   3.210   8.372   3.681
33255W        W98075  27.301  32.487  10.726
33256W        W98076  33.853  30.718   0.873
33257W        W98077  23.089  16.403   0.880
33258W        W98078  36.605  17.631   2.822
33259W        W98079  22.990  36.046  11.865
33260W        W98080  42.743  30.100  14.684
33261W        W98081   3.554  32.569   0.824
33262W        W98082  20.992  37.374   1.149
33263W        W98083   2.829  29.192   1.970
33264W        W98084   0.310   9.992  11.584
33265W        W98085  20.562   2.291   0.753
33266W        W98086  33.354   2.301  11.932
33267W        W98087   5.844  15.621  12.474
33268W        W98088   9.736   5.166   3.690
33269W        W98089  21.554   0.212   0.411
33270W        W98090  24.996  13.591   1.271
33271W        W98091  25.464  38.422   1.026
33272W        W98092  19.455  40.509   3.012
33273W        W98093  17.399  24.521  13.997
33274W        W98094  12.056   0.071  10.314
33275W        W98095  26.632  44.496   3.031
33276W        W98096  23.050  31.939   1.368
33277W        W98097  38.133   1.282   2.207
33278W        W98098   1.329  27.473  14.760
33279W        W98099  28.979  34.689   3.331
33280W        W98100   7.266  27.085  11.070
33281W        W98101  35.197  41.336   3.494
33282W        W98102   7.355  24.618  12.985
33283W        W98103  37.064  14.085  12.325
33284W        W98104   4.420   9.810   2.816
33285W        W98105  18.283  32.502   3.246
33286W        W98106  27.807   0.605  10.600
33287W        W98107  14.575  29.138  13.964
33288W        W98108   1.992  31.614  13.601
33289W        W98109  23.565  24.190   2.600
33290W        W98110  31.355  42.276  13.818
33291W        W98111   6.451  32.389   2.487
33292W        W98112   3.869   4.225  12.461
33293W        W98113   8.268  36.949  14.030
33294W        W98114  24.220  44.801   3.183
33295W        W98115  10.889  37.677  14.809
33296W        W98116  41.066   7.671   1.860
33297W        W98117  34.273  36.100  14.459
33298W        W98118   5.540   9.671  12.363
33299W        W98119  25.062  41.510   0.012
33300W        W98120  42.929  39.005   5.023
33301W        W98121   5.815  41.782  11.943
33302W        W98122  23.681   7.213   3.160
33303W        W98123  17.375  44.230  11.197
33304W        W98124  14.436   7.879  12.975
33305W        W98125  16.535   8.767  10.789
33306W        W98126   1.082   9.173   2.872
33307W        W98127   2.282   9.370   1.383
33308W        W98128  12.428  28.422  11.156
33309W        W98129  28.576  42.801  13.537
33310W        W98130  36.584  35.050   0.288
33311W        W98131  30.095   0.725   4.273
33312W        W98132   5.508  35.289   4.056
33313W        W98133  33.450  36.290   0.823
33314W        W98134  22.734  32.897  10.737
33315W        W98135  16.776  14.594   4.767
33316W        W98136  26.002  41.316  14.457
33317W        W98137  39.351  24.119  13.870
33318W        W98138   1.037  16.275   3.189
33319W        W98139  43.969  34.895  11.651
33320W        W98140   4.744  11.529  12.002
33321W        W98141  10.605  28.593   1.805
33322W        W98142  29.584   1.317  13.625
33323W        W98143  35.389   0.256  13.291
33324W        W98144  42.812   9.884   4.976
33325W        W98145   0.504  12.029  11.152
33326W        W98146  40.446  24.478   0.891
33327W        W98147  37.340   0.192  12.113
33328W        W98148  23.615   8.388   0.440
33329W        W98149  31.898   7.147   3.531
33330W        W98150   7.727   3.279   2.386
33331W        W98151  14.180  10.902   2.733
33332W        W98152   6.981  20.582  10.689
33333W        W98153   9.960  24.662   5.491
33334W        W98154   3.771  16.995  14.969
33335W        W98155  26.770  18.896  11.287
33336W        W98156  41.557  22.185   0.379
33337W        W98157  23.047  43.029   2.770
33338W        W98158   3.170  17.053   0.487
33339W        W98159  24.509   8.613   1.727
33340W        W98160  23.114  38.457  14.233
33341W        W98161  19.343  27.510   4.246
33342W        W98162  25.399  32.181  11.867
33343W        W98163  20.335  28.331  13.068
33344W        W98164  25.470  15.053   2.323
33345W        W98165   8.190   2.249  10.673
33346W        W98166  20.176  22.284   0.501
33347W        W98167  42.324  34.969   1.304
33348W        W98168  33.852  10.401   5.040
33349W        W98169  38.571   6.000   1.736
33350W        W98170  26.185  34.218   4.045
33351W        W98171  26.957  31.895   0.518
33352W        W98172  43.846  13.792  12.149
33353W        W98173  30.638  36.132   3.802
33354W        W98174  23.671  35.207   1.363
33355W        W98175   9.812  26.695  10.355
33356W        W98176   2.492  38.049  11.033
33357W        W98177   0.398  15.135   0.391
33358W        W98178  11.798  44.509   1.315
33359W        W98179   5.659  16.016   2.591
33360W        W98180   2.008  36.450   1.954
33361W        W98181  42.146  44.018  10.688
33362W        W98182  34.515  42.514   0.485
33363W        W98183  25.282   9.417  12.441
33364W        W98184  44.870   1.952  13.607
33365W        W98185  29.915  11.596  13.594
33366W        W98186  26.978  13.752  14.925
33367W        W98187  33.385   3.736   4.245
33368W        W98188  17.633   5.531   2.486
33369W        W98189   8.090  15.761  14.277
33370W        W98190  30.171   2.664  12.512
33371W        W98191   3.903  36.108  12.879
33372W        W98192  24.988  26.165  11.563
33373W        W98193   4.276  15.714   3.140
33374W        W98194  15.569  23.142   1.377
33375W        W98195   7.948  44.298  11.993
33376W        W98196   1.804  40.056   2.859
33377W        W98197  13.128   1.265  11.586
33378W        W98198   3.820  31.618   3.250
33379W        W98199  23.796  41.536  12.178
33380W        W98200  40.985  11.096   3.150
33381W        W98201  36.423  34.441  13.415
33382W        W98202  20.794  14.524   1.869
33383W        W98203  10.945  25.204  12.097
33384W        W98204  12.109  40.510  11.888
33385W        W98205  30.085  28.495   3.596
33386W        W98206  24.684  12.389  13.482
33387W        W98207  30.164  32.908   3.656
33388W        W98208  11.206  10.722   4.610
33389W        W98209  38.058  10.075   1.418
33390W        W98210  14.172   9.191  12.875
33391W        W98211  14.962   1.678   0.497
33392W        W98212  41.720   4.397  12.849
33393W        W98213  15.343  29.999   3.910
33394W        W98214  43.681   3.409   1.180
33395W        W98215   2.415   6.111  11.567
33396W        W98216  44.724  39.313   3.217
33397W        W98217  27.773   5.279  12.362
33398W        W98218  37.104  39.028  14.383
33399W        W98219  34.542  15.422  14.436
33400W        W98220   9.208  30.763  12.637
33401W        W98221  43.408  15.182  12.159
33402W        W98222   7.394  32.483  13.302
33403W        W98223  25.144  40.661  12.576
33404W        W98224   4.635  28.946   0.226
33405W        W98225  20.487   2.244  14.841
33406W        W98226   8.115  30.008   4.112
33407W        W98227   6.978  24.670   1.263
33408W        W98228   8.789  38.981   4.246
33409W        W98229   6.471  29.157  12.081
33410W        W98230  38.243  14.131  12.899
33411W        W98231  19.119  37.686  11.126
33412W        W98232   9.168  42.512  13.984
33413W        W98233  15.682  40.979  12.592
33414W        W98234  19.588  33.144   1.294
33415W        W98235  35.609  14.250   2.130
33416W        W98236  41.510   9.217   4.426
33417W        W98237   8.000   3.318  10.923
33418W        W98238  25.728  39.118   3.270
33419W        W98239  26.068  12.209  13.657
33420W        W98240  32.930   3.913  11.600
33421W        W98241  41.594  28.670  13.695
33422W        W98242   6.410  17.257  12.560
33423W        W98243   2.358  32.442  11.634
33424W        W98244   6.698  11.270  14.443
33425W        W98245  38.754  29.512   3.619
33426W        W98246  25.176  28.756  13.833
33427W        W98247  20.176  42.020  13.922
33428W        W98248  13.336  17.554   0.748
33429W        W98249  14.115  42.359   1.252
33430W        W98250  15.578  37.417   3.649
33431W        W98251  38.497  11.902  14.976
33432W        W98252  19.522  30.048  12.394
33433W        W98253  24.704  25.535  13.127
33434W        W98254  42.737   0.205  12.575
33435W        W98255  19.122  15.206  11.145
33436W        W98256  20.020  23.214  14.589
33437W        W98257  24.118  43.967  14.301
33438W        W98258  16.601  26.041  12.528
33439W        W98259  15.747  33.561   0.395
33440W        W98260   9.809   6.609   2.333
33441W        W98261  39.611  44.667  11.176
33442W        W98262  29.134  26.513   3.262
33443W        W98263   4.368   6.914   0.513
33444W        W98264  36.003  41.083  11.570
33445W        W98265  34.515  39.535   0.463
33446W        W98266   3.343  38.269   3.811
33447W        W98267   2.910  27.718  13.396
33448W        W98268  35.908  16.139  14.378
33449W        W98269  19.224  22.078  12.619
33450W        W98270  17.309  19.707  10.920
33451W        W98271   3.008  44.254   1.226
33452W        W98272  28.926  42.281  11.217
33453W        W98273  10.369  35.446  10.437
33454W        W98274  12.873  20.280   1.896
33455W        W98275  23.632   3.515  11.572
33456W        W98276  22.126  41.610   2.153
33457W        W98277   6.263  43.408  14.394
33458W        W98278   7.473  39.267   0.385
33459W        W98279  11.818  42.353   0.015
33460W        W98280  10.496  35.394  11.438
33461W        W98281   4.330  10.662   4.574
33462W        W98282  30.972  30.195   1.869
33463W        W98283  12.301  26.896  11.662
33464W        W98284   9.220   8.913   2.831
33465W        W98285  23.579  24.803   3.427
33466W        W98286  26.739  37.110   0.025
33467W        W98287  19.147  14.404   4.713
33468W        W98288  42.346  27.119   1.212
33469W        W98289  20.457  17.269   4.072
33470W        W98290  13.257  42.969   2.756
33471W        W98291   3.392  12.493  10.370
33472W        W98292  26.497   1.090   4.124
33473W        W98293  13.295  10.410   2.854
33474W        W98294   1.407   5.255  13.489
33475W        W98295   8.934  14.077  12.522
33476W        W98296   7.224  11.393   1.866
33477W        W98297  31.162  38.408   2.542
33478W        W98298   3.667  36.495  12.506
33479W        W98299  11.706  18.598  12.011
33480W        W98300   3.824  38.613   3.120
33481W        W98301  19.171  44.663  13.806
33482W        W98302   2.176  43.231  13.016
33483W        W98303  17.592  23.041  12.273
33484W        W98304  20.066  38.115  12.153
33485W        W98305   1.174  22.506  12.979
33486W        W98306  22.007  34.077  14.030
33487W        W98307  13.315  28.690  12.107
33488W        W98308  41.820  35.951   1.675
33489W        W98309  21.228  17.103   0.385
33490W        W98310   4.860   5.783   3.150
33491W        W98311  42.794  31.597   0.765
33492W        W98312  26.192  38.914   2.355
33493W        W98313  22.024   4.457   1.796
33494W        W98314  29.290  24.202   4.021
33495W        W98315  33.826  44.242  10.996
33496W        W98316  42.503  37.056   1.231
33497W        W98317  26.543  37.136   3.760
33498W        W98318  42.671  27.074  11.607
33499W        W98319  19.515  10.508   3.144
33500W        W98320  10.388  33.478   2.816
33501W        W98321  17.748  32.777   1.765
33502W        W98322  44.950   7.398  13.027
33503W        W98323   4.869  16.110  11.368
33504W        W98324   7.866  17.029  13.517
33505W        W98325  28.148  33.852   3.715
33506W        W98326  21.180   9.155  14.336
33507W        W98327  14.862  16.032  14.837
33508W        W98328  17.646  21.136  11.998
33509W        W98329  29.063  15.207   0.535
33510W        W98330   7.719   0.447   4.905
33511W        W98331  19.272  19.136   3.643
33512W        W98332   5.928  23.198   0.404
33513W        W98333  33.772  27.623   4.188
33514W        W98334  41.367  40.411  14.547
33515W        W98335  11.275  28.530   0.437
33516W        W98336  27.498  12.496  13.442
33517W        W98337   6.834   0.486  13.465
33518W        W98338  16.197   6.616  11.135
33519W        W98339  36.337  25.036   3.279
33520W        W98340  25.084  16.771  11.260
33521W        W98341   3.466   6.850  13.906
33522W        W98342  29.050  38.636  12.094
33523W        W98343  10.866  27.162  12.109
33524W        W98344  30.129   8.817  14.534
33525W        W98345  19.264  31.109  10.892
33526W        W98346  32.520   9.609   3.821
33527W        W98347  20.112  29.696   0.646
33528W        W98348  34.099  15.716  14.148
33529W        W98349  24.722  20.764  14.467
33530W        W98350   0.203  20.779  11.070
33531W        W98351  42.143  11.711  14.875
33532W        W98352  36.613   3.182  10.644
33533W        W98353  44.190   0.812  12.496
33534W        W98354   1.403  29.890  14.962
33535W        W98355  39.315  20.118  14.775
33536W        W98356   3.989  28.520   5.125
33537W        W98357  29.558  22.561  11.049
33538W        W98358  11.700  30.875   3.190
33539W        W98359  38.866  42.751  10.866
33540W        W98360   8.546  40.284   1.427
33541W        W98361  14.463  41.987   2.188
33542W        W98362   4.457  41.413   4.676
33543W        W98363  43.080  43.851   4.527
33544W        W98364  26.005   1.717  10.796
33545W        W98365  30.625  40.441   0.041
33546W        W98366  44.135  41.475   2.315
33547W        W98367  21.617  26.049  12.668
33548W        W98368  26.906   2.323   2.742
33549W        W98369  25.144   7.906  13.910
33550W        W98370  36.004  22.031   4.063
33551W        W98371  18.718  27.617   1.258
33552W        W98372   2.178  16.883   0.957
33553W        W98373  33.384  14.657   5.131
33554W        W98374  39.134  39.380  14.786
33555W        W98375  31.385  43.408   1.968
33556W        W98376  13.559   3.748  11.606
33557W        W98377   1.223   2.813   3.794
33558W        W98378  41.398  19.158   3.170
33559W        W98379  39.504  30.675  10.801
33560W        W98380  31.536  16.273   4.501
33561W        W98381  39.532  41.905  14.277
33562W        W98382   9.654  30.900  11.443
33563W        W98383  31.112  30.498   0.455
33564W        W98384   8.421  39.077  11.467
33565W        W98385   3.261  30.387   2.360
33566W        W98386  31.415   1.957   2.204
33567W        W98387  12.655   8.914   4.616
33568W        W98388  38.261  33.512  14.321
33569W        W98389  43.815   7.829   2.370
33570W        W98390  33.156  22.079   1.808
33571W        W98391  44.482  41.775   0.925
33572W        W98392  12.038  23.550   1.869
33573W        W98393  25.393  39.511   3.740
33574W        W98394  41.176   6.574   4.030
33575W        W98395  39.972  18.929   0.276
33576W        W98396  33.468  32.046  11.185
33577W        W98397   7.854   0.511   3.975
33578W        W98398  27.586  36.390  13.080
33579W        W98399  14.411  16.669   3.257
33580W        W98400  21.002  39.505   1.168
33581W        W98401  32.673  22.420   3.950
33582W        W98402  43.083  13.527   3.298
33583W        W98403  17.756  20.207  13.813
33584W        W98404  23.772  25.520  10.562
33585W        W98405  19.715  21.136  10.348
33586W        W98406  12.148   3.328  12.808
33587W        W98407  16.011  35.624  12.373
33588W        W98408  18.793  27.568   4.662
33589W        W98409  16.067  42.086  13.012
33590W        W98410  26.146  16.871   3.618
33591W        W98411  33.205   1.684  14.277
33592W        W98412  12.784  40.713   2.285
33593W        W98413   6.609   9.285  10.723
33594W        W98414  20.746  24.440  14.451
33595W        W98415  24.850  10.277  14.225
33596W        W98416  13.430  40.223  12.455
33597W        W98417  18.058  34.897   0.914
33598W        W98418   6.347  27.883   0.389
33599W        W98419  26.683  40.860   3.651
33600W        W98420  34.922  13.309  14.752
33601W        W98421  30.607  14.597  12.938
33602W        W98422  11.303   9.602  11.851
33603W        W98423  29.144   0.438  13.917
33604W        W98424  40.903  10.801   5.109
33605W        W98425  28.525   8.205  10.744
33606W        W98426  14.380  23.411   2.053
33607W        W98427  20.450  33.345   3.278
33608W        W98428  31.102  26.801   0.042
33609W        W98429   3.361   5.952  14.932
33610W        W98430  35.620  18.637  13.562
33611W        W98431  37.073  12.965   1.272
33612W        W98432  43.241   3.780   2.801
33613W        W98433  39.408  34.519  12.599
33614W        W98434   0.661  10.592   1.425
33615W        W98435  37.730  40.095  13.577
33616W        W98436   8.193  12.325   3.761
33617W        W98437   2.328  23.552  11.248
33618W        W98438  44.859  38.386  11.279
33619W        W98439  25.480  20.698  10.268
33620W        W98440  29.000  28.709  11.614
33621W        W98441  18.808  14.625  14.505
33622W        W98442  10.389  35.629   3.556
33623W        W98443  42.882  42.831  14.977
33624W        W98444  25.136  20.989  12.029
33625W        W98445   0.228   5.395   2.709
33626W        W98446  38.459  33.133  10.853
33627W        W98447  33.409   2.736   3.293
33628W        W98448  13.720  30.389   1.145
33629W        W98449  32.970  36.093   0.796
33630W        W98450  33.856  34.184   4.297
33631W        W98451  14.736  24.644   1.832
33632W        W98452  38.137  19.644  12.446
33633W        W98453  37.421  23.671   2.418
33634W        W98454  39.496  13.718  11.177
33635W        W98455   6.072  23.333   4.901
33636W        W98456  40.629  18.209   2.106
33637W        W98457  11.937  22.379   2.550
33638W        W98458  17.377  30.627   1.033
33639W        W98459  13.198   5.292  14.009
33640W        W98460  29.874  18.439   1.620
33641W        W98461  36.694  15.190  10.634
33642W        W98462  20.658   5.647  10.508
33643W        W98463  44.363  37.959  13.927
33644W        W98464  14.695   2.439   4.628
33645W        W98465  13.173  34.596  10.177
33646W        W98466  35.081  31.532  11.297
33647W        W98467   6.961  35.063   2.912
33648W        W98468  17.486  11.773   2.475
33649W        W98469  42.295  32.538   0.430
33650W        W98470   4.676  14.873  13.545
33651W        W98471  14.766  12.376   2.097
33652W        W98472  15.731  19.314   3.784
33653W        W98473  20.210  16.788   2.711
33654W        W98474  44.185  12.337  11.760
33655W        W98475  34.410  44.402   2.453
33656W        W98476  42.896  40.789   2.206
33657W        W98477  28.382  33.752  11.347
33658W        W98478  43.832   3.822  11.567
33659W        W98479  25.517  37.883  13.285
33660W        W98480  15.540  38.629   3.608
33661W        W98481  15.234  26.502  11.895
33662W        W98482   4.358  13.910  12.451
33663W        W98483  34.609   4.001  13.479
33664W        W98484   7.616  29.865   4.136
33665W        W98485   6.192  34.017   4.279
33666W        W98486   5.829  23.302   9.647
33667W        W98487  33.752  41.220  12.553
33668W        W98488  25.379   5.712  10.289
33669W        W98489  20.431   5.801  14.557
33670W        W98490  40.818  41.317  13.557
33671W        W98491  27.086  28.426   1.665
33672W        W98492  36.943   8.796   1.888
33673W        W98493  35.048  40.895   4.565
33674W        W98494  41.006  14.746  11.945
33675W        W98495  39.948  24.531  10.741
33676W        W98496  41.603  25.150  12.086
33677W        W98497  28.167   3.158  11.654
33678W        W98498  27.405  11.412   4.107
33679W        W98499  17.326  25.205  14.277
33680W        W98500   2.728  19.101  14.807
33681W        W98501  41.402  36.994  10.723
33682W        W98502  17.385  28.889   4.101
33683W        W98503  11.849  13.817   1.229
33684W        W98504  31.651  30.265  13.261
33685W        W98505  38.360  41.251  12.749
33686W        W98506  27.119   9.901  14.993
33687W        W98507   3.926   1.313  10.695
33688W        W98508  25.586   7.786   4.548
33689W        W98509  26.521   8.773   1.809
33690W        W98510  31.917  32.341  13.766
33691W        W98511  17.697  32.425  13.145
33692W        W98512  32.437  44.800   2.303
33693W        W98513  42.084   9.916  14.931
33694W        W98514   8.215   6.242  14.705
33695W        W98515  17.725  17.572  14.988
33696W        W98516  10.454  15.087   9.850
33697W        W98517  39.753  28.414  11.209
33698W        W98518  42.565  16.427   2.839
33699W        W98519  29.978   4.482  14.844
33700W        W98520  22.979  29.706  14.981
33701W        W98521  33.578  44.069  11.643
33702W        W98522  24.983  26.991  12.469
33703W        W98523  24.209  15.128   0.499
33704W        W98524  41.717  17.458   3.235
33705W        W98525  10.676  37.521  11.868
33706W        W98526  43.022  28.502   4.517
33707W        W98527  42.028  13.621   2.335
33708W        W98528  16.588  38.818   2.672
33709W        W98529  14.687  21.059  14.919
33710W        W98530  35.138  30.237   1.310
33711W        W98531  26.152  31.634   3.596
33712W        W98532  27.183  13.902   3.210
33713W        W98533  38.898   3.944   1.298
33714W        W98534  25.623  35.674   1.693
33715W        W98535   2.964  25.084  14.833
33716W        W98536  14.917   4.168   2.808
33717W        W98537  14.352   6.227  10.850
33718W        W98538  36.583  28.536   4.048
33719W        W98539  13.788  24.950   1.436
33720W        W98540  34.452  42.851   2.166
33721W        W98541  32.134   9.078  12.549
33722W        W98542  38.148   2.248   1.640
33723W        W98543  40.528  13.997  10.260
33724W        W98544   3.267  25.991  12.525
33725W        W98545  35.378  27.088  12.992
33726W        W98546  17.858  25.210   3.555
33727W        W98547   2.720  27.900   3.635
33728W        W98548   3.364  29.568  11.070
33729W        W98549  41.049  10.413  13.006
33730W        W98550   6.407   2.351  13.089
33731W        W98551  18.227  21.743  14.484
33732W        W98552  24.427  15.223   2.282
33733W        W98553  12.762  37.089  12.311
33734W        W98554   8.428   5.171   2.728
33735W        W98555  14.630  13.867  10.622
33736W        W98556  10.975  11.383  11.635
33737W        W98557   7.172  21.040  12.494
33738W        W98558  17.375   1.705   5.096
33739W        W98559  23.663  23.378  14.978
33740W        W98560   7.129  26.507   0.353
33741W        W98561  29.415   9.407  12.478
33742W        W98562  39.128  15.298  11.256
33743W        W98563   8.746  20.352   1.878
33744W        W98564  12.429   1.995   3.973
33745W        W98565   1.525  16.771   1.511
33746W        W98566  25.593  16.983   3.212
33747W        W98567  13.363  23.635  11.131
33748W        W98568  16.532  24.133   0.921
33749W        W98569  19.705  20.630   3.291
33750W        W98570   0.826  43.253  13.441
33751W        W98571  37.387   4.657  12.804
33752W        W98572  12.623  24.252  11.212
33753W        W98573  12.794   5.000   0.957
33754W        W98574  41.862   9.274  13.303
33755W        W98575  28.928  22.654  10.682
33756W        W98576   2.437  34.140   1.309
33757W        W98577  23.515   6.464   4.830
33758W        W98578  13.655  24.135  11.203
33759W        W98579  25.807  18.222  11.917
33760W        W98580   4.000   3.452  12.019
33761W        W98581  38.325  35.426  12.037
33762W        W98582  13.389  25.493   4.138
33763W        W98583  44.461   2.801   3.239
33764W        W98584  12.785   1.599  12.362
33765W        W98585  23.562  23.532  14.507
33766W        W98586  16.432  40.275  12.883
33767W        W98587  34.591  31.255  10.740
33768W        W98588   9.394  21.436  13.885
33769W        W98589  30.005  41.696  14.933
33770W        W98590  23.189  11.346  12.157
33771W        W98591   9.931  33.104  14.511
33772W        W98592  40.019   4.877  14.022
33773W        W98593   6.195   9.940  13.007
33774W        W98594  22.044  24.361   2.879
33775W        W98595  42.442   8.125  12.088
33776W        W98596  42.524  35.061  13.600
33777W        W98597  41.918  22.075   0.014
33778W        W98598  21.512  17.856  13.174
33779W        W98599   6.886  12.182  14.895
33780W        W98600  19.486  17.113  12.188
33781W        W98601  28.599  20.268   4.210
33782W        W98602   7.353  15.090   2.133
33783W        W98603  29.217  33.923   3.739
33784W        W98604  30.790  16.717   4.187
33785W        W98605  23.215   5.439   0.313
33786W        W98606  44.727  18.126   0.452
33787W        W98607  28.100  16.617  12.377
33788W        W98608  38.805  16.313  14.437
33789W        W98609  10.075  28.568   3.992
33790W        W98610   5.890  16.633  11.562
33791W        W98611  43.740  20.612  14.018
33792W        W98612  38.954  12.915   4.572
33793W        W98613   8.284  39.510   3.681
33794W        W98614  17.681   6.286   1.278
33795W        W98615  30.949   8.215   3.426
33796W        W98616  32.874  12.790  10.139
33797W        W98617  20.261  31.776   0.774
33798W        W98618   2.251  18.057   0.497
33799W        W98619  34.392   1.379  12.179
33800W        W98620  30.447   0.732  14.906
33801W        W98621  30.854  39.028  10.767
33802W        W98622   1.574  43.522  13.978
33803W        W98623   1.678  14.251  12.782
33804W        W98624  13.550  22.542   1.363
33805W        W98625   3.419  42.221  14.756
33806W        W98626  27.474   4.795  10.499
33807W        W98627  18.101  22.536   2.924
33808W        W98628  11.072  30.055  10.042
33809W        W98629  15.400   2.033  13.940
33810W        W98630   6.853  35.068  11.526
33811W        W98631   2.254  42.159  14.377
33812W        W98632   0.733  21.235   0.750
33813W        W98633   3.886  17.201   1.244
33814W        W98634  31.169  38.374   3.896
33815W        W98635   1.021  32.970  11.085
33816W        W98636  22.249  41.481   4.507
33817W        W98637  25.417   8.961  10.855
33818W        W98638  12.952  43.557   1.657
33819W        W98639  19.075  20.215  10.668
33820W        W98640  32.858   7.797   1.201
33821W        W98641  26.453   7.239   0.262
33822W        W98642   7.783  35.035  11.200
33823W        W98643  43.668  18.491   2.768
33824W        W98644  43.817   1.200   3.503
33825W        W98645  18.663  17.940  10.376
33826W        W98646  40.112  37.131   3.257
33827W        W98647  31.945  24.321  14.015
33828W        W98648   6.842  42.089  13.776
33829W        W98649  12.786  42.068   1.358
33830W        W98650  21.232  20.196  13.979
33831W        W98651  36.617  38.933   4.061
33832W        W98652  10.820  13.111  13.349
33833W        W98653  27.419   1.898   3.288
33834W        W98654  16.809  13.790   0.338
33835W        W98655  18.746  42.305   4.602
33836W        W98656  35.066  26.989  12.589
33837W        W98657  17.044  17.726  12.038
33838W        W98658   5.295  28.569  11.912
33839W        W98659  14.884   1.246  14.899
33840W        W98660  41.748   4.264  11.783
33841W        W98661   3.932  24.461   2.309
33842W        W98662   3.151  40.042   0.300
33843W        W98663  17.727  22.665   1.339
33844W        W98664  21.020   0.898  13.317
33845W        W98665  17.403  18.646   3.155
33846W        W98666   7.704  26.230   0.963
33847W        W98667  43.317  34.518  14.403
33848W        W98668  24.754  27.663  10.697
33849W        W98669  27.918  28.993   1.685
33850W        W98670  40.787   3.939   3.694
33851W        W98671   7.768  15.413  11.600
33852W        W98672  22.793   5.788   4.069
33853W        W98673  21.686   0.515   3.199
33854W        W98674  27.581  13.726   0.833
33855W        W98675  21.208  17.942  11.400
33856W        W98676  36.320  43.848   3.808
33857W        W98677  30.896  40.994   2.263
33858W        W98678   7.775  39.515  11.525
33859W        W98679   0.856  21.485  12.217
33860W        W98680  39.319  27.958  12.888
33861W        W98681  32.521  14.597   0.836
33862W        W98682  36.255   0.111  14.910
33863W        W98683  21.765  29.900   4.587
33864W        W98684  38.889   1.198  10.571
33865W        W98685  36.675  28.099  12.394
33866W        W98686  22.115  31.055   2.762
33867W        W98687   8.317  44.295   0.829
33868W        W98688  38.151  10.217   2.189
33869W        W98689  29.713  20.726  10.622
33870W        W98690  42.879  35.811   3.820
33871W        W98691  43.333  21.858  13.415
33872W        W98692   7.066   4.728   3.735
33873W        W98693   4.351  26.498  14.347
33874W        W98694  12.088  16.250  14.733
33875W        W98695  39.734  40.041  10.975
33876W        W98696  16.849  41.757   2.865
33877W        W98697  41.920  21.962  11.984
33878W        W98698  41.572  16.754  12.424
33879W        W98699  34.547  39.159  12.563
33880W        W98700  35.989  30.428  12.560
33881W        W98701  43.097  17.284   3.456
33882W        W98702  25.986  11.298   1.761
33883W        W98703   1.218  26.997   3.612
33884W        W98704  20.600  41.996   4.631
33885W        W98705   3.755  18.997   1.213
33886W        W98706  26.757   1.314   3.713
33887W        W98707   4.893  43.918   0.007
33888W        W98708  14.239  29.600   2.807
33889W        W98709  39.228   5.345  12.569
33890W        W98710  25.349  36.059   0.792
33891W        W98711   4.919  19.764  13.048
33892W        W98712  21.137  36.887  14.213
33893W        W98713  39.218  28.609  13.392
33894W        W98714  18.765  30.489  12.935
33895W        W98715  44.211  39.576  11.596
33896W        W98716  20.989  40.903   3.794
33897W        W98717  33.895  41.726   1.676
33898W        W98718  20.361  14.117  11.680
33899W        W98719  16.560   7.109  12.406
33900W        W98720  29.365  21.260   9.967
33901W        W98721  36.512  40.873  11.619
33902W        W98722  38.588  14.104   4.119
33903W        W98723  38.006  13.755   1.452
33904W        W98724  40.066   2.915   0.863
33905W        W98725  33.612   2.424   2.927
33906W        W98726   3.667  27.609  12.158
33907W        W98727  25.115  41.000  11.650
33908W        W98728   9.489   9.193   3.326
33909W        W98729  17.755   0.511  13.701
33910W        W98730  34.338  11.316  13.452
33911W        W98731   6.510  27.085   4.082
33912W        W98732  28.785  13.009  12.244
33913W        W98733  27.147  20.662  11.623
33914W        W98734  17.564  20.782   4.108
33915W        W98735  28.379  41.802   3.730
33916W        W98736  40.056  17.142  14.709
33917W        W98737  43.865  29.152   0.922
33918W        W98738   3.345  11.279  10.487
33919W        W98739  27.018   6.430   0.210
33920W        W98740  14.189  33.948  14.128
33921W        W98741   0.731  38.143  13.480
33922W        W98742  35.511  20.314   4.241
33923W        W98743  13.736   7.484   2.868
33924W        W98744   1.918  31.123   3.347
33925W        W98745  32.560  25.065   1.443
33926W        W98746  13.033  16.648  12.591
33927W        W98747   0.960   1.720  13.043
33928W        W98748  34.820  15.730   1.237
33929W        W98749   2.697  36.346   4.239
33930W        W98750  32.489   5.734  12.545
33931W        W98751  31.936   4.209   2.045
33932W        W98752  38.062  22.711  11.508
33933W        W98753  36.685  38.022   4.197
33934W        W98754  44.571  33.104   1.394
33935W        W98755  31.734  34.595  11.070
33936W        W98756  26.574  32.916   0.529
33937W        W98757  33.116  34.807  14.261
33938W        W98758  38.554  12.843  13.729
33939W        W98759   0.457   5.924   0.312
33940W        W98760   1.304  40.128   2.907
33941W        W98761  24.053  25.904  12.450
33942W        W98762  14.227  30.505   3.366
33943W        W98763  38.304  37.377   1.758
33944W        W98764  30.124  44.054   3.625
33945W        W98765   1.795   5.955  11.378
33946W        W98766  17.207  23.390   4.242
33947W        W98767   6.719  10.676   2.371
33948W        W98768  36.498  25.993  10.901
33949W        W98769  18.399  28.544   3.988
33950W        W98770  14.828  21.275  12.378
33951W        W98771  23.790  14.782   4.528
33952W        W98772  35.512  38.835   3.839
33953W        W98773  33.022  29.351   0.758
33954W        W98774  34.037  27.217  12.483
33955W        W98775  30.093  19.325  12.521
33956W        W98776  38.814   4.970   3.117
33957W        W98777  27.045  42.293   3.712
33958W        W98778  32.648  36.831  11.026
33959W        W98779  44.324  29.864   2.639
33960W        W98780  13.160   2.662  13.850
33961W        W98781  36.336  32.315   2.843
33962W        W98782  30.908  13.350  12.350
33963W        W98783  31.909  29.507  14.903
33964W        W98784  36.424  30.415  11.239
33965W        W98785  36.100  23.999  14.755
33966W        W98786  39.278  34.440  14.510
33967W        W98787  40.798  21.727   2.711
33968W        W98788  26.709  14.291  11.019
33969W        W98789  28.699  43.663   3.297
33970W        W98790   8.366   4.476   1.265
33971W        W98791  39.573  39.143   0.979
33972W        W98792  14.654  23.083   4.422
33973W        W98793  13.224   9.304   3.291
33974W        W98794  35.499  43.812  12.093
33975W        W98795  37.334   3.915  11.143
33976W        W98796   6.923  41.858   0.034
33977W        W98797  13.711  16.640   2.593
33978W        W98798  42.762  16.547   4.603
33979W        W98799   5.161  25.950  14.985
33980W        W98800  19.503   9.920  14.438
33981W        W98801  36.531  27.633  11.654
33982W        W98802  22.936  36.523  11.685
33983W        W98803   8.870   1.320  14.339
33984W        W98804  28.981  35.464   1.351
33985W        W98805  17.803  39.761  14.453
33986W        W98806  13.803  35.657   5.365
33987W        W98807  24.530  39.438   4.500
33988W        W98808  33.681  31.245  13.102
33989W        W98809  23.545  30.718   3.223
33990W        W98810   1.797  20.031   1.501
33991W        W98811  28.270  40.879   3.891
33992W        W98812   4.293  35.360  11.954
33993W        W98813  36.412  10.230   2.225
33994W        W98814  11.789  11.097  12.252
33995W        W98815  21.245  31.396  13.451
33996W        W98816  19.356  39.921  11.646
33997W        W98817  32.405  20.831  11.072
33998W        W98818   4.716  42.044   2.961
33999W        W98819  28.766  23.059   2.793
34000W        W98820   0.270  42.466   2.274
34001W        W98821  19.658   8.162  11.463
34002W        W98822  25.391  41.575   5.004
34003W        W98823  20.184  41.663   0.718
34004W        W98824   3.872  20.838  14.039
34005W        W98825  12.466  35.535   1.721
34006W        W98826  43.793   1.430   2.806
34007W        W98827  40.840  32.541  14.626
34008W        W98828  27.179  44.230   3.112
34009W        W98829  37.964  13.332  13.079
34010W        W98830   2.212  27.102   2.232
34011W        W98831  11.371  38.418   0.953
34012W        W98832  18.724  24.180  12.675
34013W        W98833  27.469  16.459  10.807
34014W        W98834   8.787  19.140   3.577
34015W        W98835  18.737  43.901   0.866
34016W        W98836  39.894  40.764  14.416
34017W        W98837  12.283   2.629   4.584
34018W        W98838  38.512  20.653  14.289
34019W        W98839  35.880  42.389  14.448
34020W        W98840  31.671  29.009   1.426
34021W        W98841  25.815   7.000  13.985
34022W        W98842  40.382  38.536   3.687
34023W        W98843  15.077   6.510   2.614
34024W        W98844  40.434  37.859  11.123
34025W        W98845  18.268  32.678  11.182
34026W        W98846  21.018  10.046  11.371
34027W        W98847   9.292  15.252  10.952
34028W        W98848  23.161  22.218  13.159
34029W        W98849   8.792  25.416   0.101
34030W        W98850  24.629  35.051   0.270
34031W        W98851  32.135  20.198  14.749
34032W        W98852  29.384   7.804   4.865
34033W        W98853  13.191  27.753   1.644
34034W        W98854  18.044   7.190   1.575
34035W        W98855  23.715  38.185  13.557
34036W        W98856   7.212   9.936   4.839
34037W        W98857  40.912  35.512  11.457
34038W        W98858  40.343  10.960  11.509
34039W        W98859  44.982  23.153  14.107
34040W        W98860  15.162   2.596   4.734
34041W        W98861  40.408  33.154  14.739
34042W        W98862  21.226  17.516   2.329
34043W        W98863   5.841  29.858  13.171
34044W        W98864  13.329  34.415   0.411
34045W        W98865   6.697  14.185  12.366
34046W        W98866   9.712  43.465   3.179
34047W        W98867  36.512  37.894   2.744
34048W        W98868   0.832  13.795  11.095
34049W        W98869   6.848   5.355   3.587
34050W        W98870  11.801  15.758   1.905
34051W        W98871  11.175  30.897   3.764
34052W        W98872  21.532   0.739  14.532
34053W        W98873  28.254  32.466  13.125
34054W        W98874  10.831  42.636   2.704
34055W        W98875   7.368  36.876  12.849
34056W        W98876  10.772  11.057  11.297
34057W        W98877  26.235  21.728   5.114
34058W        W98878  40.520  36.862   3.926
34059W        W98879  13.006  16.220   0.301
34060W        W98880  10.100  16.586   2.710
34061W        W98881  27.621  11.778   3.746
34062W        W98882   6.833  37.707   4.544
34063W        W98883  39.081  26.990   4.949
34064W        W98884  12.393  12.575  11.663
34065W        W98885  33.867  21.201   2.399
34066W        W98886  37.434  21.789  14.211
34067W        W98887  39.553  26.152   1.036
34068W        W98888  26.610   4.015  11.239
34069W        W98889  27.219   2.180   0.558
34070W        W98890   2.375  33.569  13.686
34071W        W98891  11.394   2.912   3.668
34072W        W98892  26.483   5.415  12.881
34073W        W98893   4.636  24.629   0.254
34074W        W98894  20.799  17.048   0.684
34075W        W98895  12.693   9.299  14.390
34076W        W98896   6.758  32.152   3.468
34077W        W98897  19.755  26.583   4.722
34078W        W98898  12.384  34.484  10.760
34079W        W98899  33.858  33.097   4.251
34080W        W98900  32.197  36.298   4.191
34081W        W98901  33.820  42.710  14.924
34082W        W98902  31.453   3.487  13.291
34083W        W98903  18.497  26.212   2.796
34084W        W98904  30.853  12.553  11.493
34085W        W98905  28.871  30.541   4.227
34086W        W98906  12.387  40.935   1.655
34087W        W98907  24.267  27.276  14.875
34088W        W98908   9.365  37.285  14.831
34089W        W98909  31.870  16.795   0.954
34090W        W98910  43.400  13.810  10.816
34091W        W98911  20.240  32.539   4.088
34092W        W98912  44.667  12.539   4.094
34093W        W98913  30.919  24.049  13.917
34094W        W98914   1.456   9.376  10.606
34095W        W98915  28.413  17.527   4.659
34096W        W98916  44.997   4.876  14.459
34097W        W98917  24.785  23.604  10.859
34098W        W98918  37.492  27.053  11.408
34099W        W98919  34.354  12.944   4.555
34100W        W98920  22.775  41.473   4.555
34101W        W98921   9.530  20.909   3.731
34102W        W98922  33.940  14.710  10.216
34103W        W98923  21.192  41.010   1.824
34104W        W98924  26.278  14.767  14.036
34105W        W98925  40.049   5.821  14.313
34106W        W98926  42.368  26.501   4.078
34107W        W98927  15.142  37.422  11.614
34108W        W98928  18.719  22.955  12.480
34109W        W98929  18.754   1.403   3.131
34110W        W98930   8.110   3.445  14.921
34111W        W98931   9.237  35.936   4.140
34112W        W98932  35.517  20.640  11.668
34113W        W98933  44.202  11.340   1.250
34114W        W98934   7.430   0.317  11.938
34115W        W98935  22.623  22.558   1.803
34116W        W98936  10.964  27.745   3.618
34117W        W98937   3.009   1.456  13.716
34118W        W98938  30.577   3.765   2.850
34119W        W98939  16.796  42.127  13.501
34120W        W98940  27.658   9.658  13.844
34121W        W98941  28.443  44.362  12.406
34122W        W98942   8.916  42.793   9.665
34123W        W98943   1.848   1.055   3.237
34124W        W98944  13.212  36.132   2.726
34125W        W98945  20.515  35.448  14.342
34126W        W98946   2.687  18.262  11.569
34127W        W98947   9.936  42.500   3.150
34128W        W98948  38.272  10.863  12.060
34129W        W98949   6.239  21.566   2.175
34130W        W98950  27.151  26.188  13.104
34131W        W98951  32.818  38.841   1.638
34132W        W98952  21.826   2.295   1.332
34133W        W98953  11.422  33.670  12.145
34134W        W98954  30.205  10.365   4.315
34135W        W98955  30.655  21.647   2.191
34136W        W98956  31.978  12.317   4.087
34137W        W98957  25.389   2.273  11.186
34138W        W98958  31.913  42.907  10.616
34139W        W98959  20.801  42.055   1.927
34140W        W98960  24.589   5.806  14.383
34141W        W98961  10.325  24.894   0.591
34142W        W98962   7.873  14.819  13.400
34143W        W98963   6.329  40.505   4.247
34144W        W98964   4.483   9.027  13.496
34145W        W98965  38.564  28.425  14.134
34146W        W98966  26.646  33.995  12.085
34147W        W98967  26.779  37.944   5.476
34148W        W98968   2.685  32.942  11.998
34149W        W98969  10.651  42.005   4.173
34150W        W98970  22.178  23.265  13.362
34151W        W98971  33.559  10.756  13.898
34152W        W98972  28.254   2.895  12.944
34153W        W98973   9.305  24.556   9.928
34154W        W98974  30.362  39.379   3.346
34155W        W98975   7.851  42.388   0.808
34156W        W98976  15.161  10.726  14.483
34157W        W98977  33.116  30.608  11.527
34158W        W98978   5.171  36.377   4.556
34159W        W98979  42.626  18.225  11.338
34160W        W98980  38.183  40.078  10.867
34161W        W98981  20.195   6.830  13.306
34162W        W98982  32.115  44.353  13.793
34163W        W98983   6.697  14.675  11.165
34164W        W98984  17.524  23.827   4.162
34165W        W98985  35.043  22.383  13.386
34166W        W98986  28.979   0.544  14.405
34167W        W98987  40.345  11.945   0.490
34168W        W98988  27.120  38.162   4.116
34169W        W98989  36.399   8.327  12.066
34170W        W98990  34.274  10.772   4.775
34171W        W98991   8.502  42.967   3.780
34172W        W98992  39.019  38.867  10.321
34173W        W98993  20.591  32.510  14.355
34174W        W98994  35.786  42.973   3.602
34175W        W98995  33.035   2.511  13.891
34176W        W98996  27.441  12.007  13.567
34177W        W98997  19.555  24.523  12.915
34178W        W98998  42.959   0.341  10.282
34179W        W98999  34.468  10.398   2.638
34180W        W99000  38.241   5.746  10.869
34181W        W99001  17.860  12.290  10.523
34182W        W99002   8.614  13.229  14.952
34183W        W99003   2.323   0.742  10.900
34184W        W99004  17.248  26.646  12.179
34185W        W99005   5.788  10.415   4.289
34186W        W99006  16.354  36.082   3.206
34187W        W99007  32.173   2.255  11.095
34188W        W99008  32.161  41.496  14.897
34189W        W99009  44.472  17.288   1.102
34190W        W99010  19.604  26.628   3.404
34191W        W99011  42.471  12.752   4.704
34192W        W99012  24.668   4.407  11.175
34193W        W99013  16.786   3.108  14.675
34194W        W99014  24.674  10.576  10.634
34195W        W99015  35.070  29.257  14.898
34196W        W99016  26.935  34.158   9.887
34197W        W99017  35.830   0.568   1.081
34198W        W99018  25.164   2.015   0.204
34199W        W99019  44.069  24.910  13.960
34200W        W99020  44.718   7.716   0.976
34201W        W99021  10.218  14.399  11.070
34202W        W99022  25.802   0.964  11.933
34203W        W99023  42.518  41.408   0.203
34204W        W99024  42.450  22.764   4.655
34205W        W99025  33.216   2.360  10.996
34206W        W99026   9.732  32.275   2.698
34207W        W99027  25.201   3.408   4.588
34208W        W99028   5.921   6.099   2.339
34209W        W99029   1.861  23.708  14.457
34210W        W99030  18.652  21.869   4.102
34211W        W99031  39.086  34.778  12.105
34212W        W99032  30.105  38.516  11.242
34213W        W99033  33.918  42.181  11.685
34214W        W99034  12.671   2.837   0.058
34215W        W99035   1.899   7.651  10.625
34216W        W99036  29.232  35.124  14.732
34217W        W99037  20.636  41.577   4.911
34218W        W99038  40.272  33.000  12.614
34219W        W99039   9.110  10.370   2.835
34220W        W99040  36.702  43.156   2.580
34221W        W99041   5.854  23.971   0.797
34222W        W99042  32.420   3.227  11.214
34223W        W99043  25.950  15.815  11.353
34224W        W99044   8.137  15.547   3.282
34225W        W99045  24.109  14.757   3.173
34226W        W99046  33.987  35.191   0.185
34227W        W99047   1.292  39.793  11.717
34228W        W99048  11.403  19.953  13.377
34229W        W99049  18.911  23.854  13.470
34230W        W99050  12.842   0.690  11.152
34231W        W99051   0.425  31.605   2.167
34232W        W99052  11.176  32.389   3.737
34233W        W99053  33.566  30.403  14.222
34234W        W99054  27.482  23.951  11.597
34235W        W99055  11.536  33.918  11.389
34236W        W99056  31.613  21.551   1.283
34237W        W99057  13.235   6.404  11.358
34238W        W99058   2.970  12.976   2.499
34239W        W99059  39.585  41.853  13.724
34240W        W99060  16.404  34.395  13.916
34241W        W99061  31.506   6.847   0.877
34242W        W99062   5.494  11.638  12.497
34243W        W99063  34.915  19.267   4.516
34244W        W99064  22.977  34.080  13.950
34245W        W99065  35.715  24.815   9.737
34246W        W99066   1.775   5.633   0.932
34247W        W99067   1.634  17.596   0.909
34248W        W99068  18.909  43.427  12.797
34249W        W99069  11.022  34.249   2.426
34250W        W99070   3.802  33.923   1.666
34251W        W99071  27.558  33.442  10.706
34252W        W99072  29.244  31.991   3.712
34253W        W99073  22.360   3.240  12.304
34254W        W99074  28.221  37.613  12.896
34255W        W99075  41.081  21.557   4.059
34256W        W99076  25.270  42.410  10.881
34257W        W99077  32.638   5.870  12.081
34258W        W99078  26.131   0.979   4.949
34259W        W99079  10.839  15.909  12.996
34260W        W99080  38.229  27.874  13.949
34261W        W99081  43.314  35.957   0.937
34262W        W99082  21.117  44.379  12.377
34263W        W99083  40.858  12.102   3.224
34264W        W99084  42.042   6.977   0.222
34265W        W99085  16.614  43.860   4.547
34266W        W99086  26.079  32.686   4.297
34267W        W99087  44.227  41.936  14.930
34268W        W99088  43.255  40.784   0.135
34269W        W99089  43.274  37.920  11.191
34270W        W99090  20.333  27.067   1.533
34271W        W99091  25.456   0.067  11.736
34272W        W99092  32.335  35.347  13.492
34273W        W99093  27.040  33.950   3.692
34274W        W99094  15.246   1.917   4.060
34275W        W99095   1.971  16.860  14.304
34276W        W99096  27.543   5.781  10.866
34277W        W99097  15.212  34.207  14.372
34278W        W99098  17.168   2.122  13.610
34279W        W99099  40.979  22.336  12.151
34280W        W99100  27.274  22.319  13.945
34281W        W99101  37.846  23.683   4.770
34282W        W99102   6.635  30.605  13.416
34283W        W99103  40.960   8.673   2.748
34284W        W99104  13.358  39.544   4.054
34285W        W99105  41.198   0.899  11.268
34286W        W99106  19.012  10.679  14.304
34287W        W99107  29.727  35.295   2.782
34288W        W99108  39.658   0.689   3.667
34289W        W99109  12.522  43.295  12.004
34290W        W99110  11.403   7.096  10.703
34291W        W99111   2.242  28.237   4.417
34292W        W99112  15.306  27.264  13.724
34293W        W99113  23.139  37.039   4.430
34294W        W99114   2.279  24.999  11.006
34295W        W99115   5.968   2.965  12.039
34296W        W99116   9.390   0.218  13.450
34297W        W99117  30.536  11.227   2.615
34298W        W99118  27.540   3.915   3.221
34299W        W99119   6.665  36.828   4.408
34300W        W99120  32.620  22.579  11.947
34301W        W99121  24.682  44.538   2.244
34302W        W99122  11.553  22.136  14.373
34303W        W99123  43.407  32.352   4.255
34304W        W99124   0.674  10.471  11.180
34305W        W99125  22.020  35.621   4.650
34306W        W99126   5.200  41.001  10.760
34307W        W99127  14.754   1.916  10.321
34308W        W99128  32.829  38.352   0.847
34309W        W99129  10.422   8.836   4.815
34310W        W99130  14.568  34.442   3.361
34311W        W99131  27.348   9.313   2.229
34312W        W99132  39.569  33.518   0.741
34313W        W99133  41.007  43.119   4.917
34314W        W99134  27.494  36.232   0.240
34315W        W99135  18.393   8.852   3.753
34316W        W99136  18.560  10.856   0.814
34317W        W99137  31.608  15.235  14.026
34318W        W99138  10.616   9.306  11.161
34319W        W99139   7.597  33.932  10.759
34320W        W99140  31.824  34.404  13.427
34321W        W99141  41.949  36.528  11.097
34322W        W99142  10.691  34.927  13.474
34323W        W99143  15.472   2.386   5.063
34324W        W99144  32.516  30.506   5.039
34325W        W99145  12.610   4.303  11.998
34326W        W99146  11.782  34.852  13.975
34327W        W99147  27.578  33.316  13.203
34328W        W99148  37.072  22.348  11.888
34329W        W99149   7.171   1.524   0.478
34330W        W99150   4.343  23.168   0.934
34331W        W99151  30.680  10.303   4.067
34332W        W99152  31.441  15.789   5.068
34333W        W99153  11.312  13.782   1.150
34334W        W99154  33.925  33.457   4.658
34335W        W99155   3.896  30.691   1.639
34336W        W99156  28.435  28.401  12.863
34337W        W99157  40.023  37.632  12.707
34338W        W99158  25.301  25.145  14.252
34339W        W99159  35.838  22.924  11.943
34340W        W99160  44.172  41.155   1.535
34341W        W99161  27.821   2.745   2.569
34342W        W99162  38.304  35.526  10.737
34343W        W99163  20.163   8.563   1.404
34344W        W99164  44.407  44.511   1.832
34345W        W99165   4.492  16.278   3.942
34346W        W99166  27.053  20.273  11.981
34347W        W99167  18.643  20.736   3.116
34348W        W99168  37.095  29.619   4.634
34349W        W99169   3.637  30.688  11.985
34350W        W99170   6.203   5.907   4.107
34351W        W99171  35.673  35.870   3.405
34352W        W99172  24.463   4.133   4.273
34353W        W99173   4.463  22.488  14.599
34354W        W99174  31.178  35.871  12.012
34355W        W99175  38.827   6.982  11.024
34356W        W99176   3.969  41.796   1.809
34357W        W99177   1.319  13.392  13.250
34358W        W99178   5.261  22.886  11.153
34359W        W99179  26.667  21.148   4.563
34360W        W99180  17.980   3.292   1.341
34361W        W99181  26.716  33.520  11.028
34362W        W99182  44.270   2.404   2.975
34363W        W99183  23.236   8.996   2.591
34364W        W99184  18.952  12.155  13.180
34365W        W99185  25.182  29.180   3.756
34366W        W99186  29.733   5.646   1.979
34367W        W99187  15.252   5.877  13.979
34368W        W99188  23.133  40.548   0.706
34369W        W99189  20.474  20.071  11.227
34370W        W99190  42.252  10.660  10.967
34371W        W99191  44.476  38.842   3.217
34372W        W99192   5.804  12.953  10.720
34373W        W99193  38.043  11.978  10.634
34374W        W99194  44.433  24.645  11.143
34375W        W99195   5.491   8.146  12.433
34376W        W99196  38.398  27.741   4.075
34377W        W99197  38.358  18.406  13.436
34378W        W99198  29.395  19.163   4.413
34379W        W99199  13.335   4.448  13.074
34380W        W99200   0.777  41.031  11.210
34381W        W99201  29.550  19.221  14.309
34382W        W99202   7.450  39.502  12.960
34383W        W99203  40.991  40.903   1.275
34384W        W99204  20.080  18.751  10.789
34385W        W99205  43.298   3.843  14.921
34386W        W99206  22.629   3.266  10.206
34387W        W99207  41.518  43.056   1.908
34388W        W99208  22.972  31.704   3.651
34389W        W99209  13.110  14.154   0.333
34390W        W99210  22.683  21.990  13.005
34391W        W99211   9.602  40.873  14.446
34392W        W99212  43.465  30.058  11.946
34393W        W99213   0.433  17.554  12.488
34394W        W99214  34.264  25.755   3.871
34395W        W99215  44.044   5.813  13.018
34396W        W99216  29.539  31.066  14.451
34397W        W99217  35.677  19.094   1.341
34398W        W99218   5.924  15.303  10.273
34399W        W99219  17.680  21.302  11.504
34400W        W99220   9.365  42.939   1.378
34401W        W99221  38.661   6.423   1.066
34402W        W99222  39.630  23.287   2.428
34403W        W99223   3.006  43.921  11.098
34404W        W99224  23.366   6.362  13.048
34405W        W99225  11.740  33.625   4.547
34406W        W99226  11.152  44.415   3.748
34407W        W99227  16.782  30.082   1.879
34408W        W99228   8.436  40.568   4.782
34409W        W99229  12.349  22.263   4.872
34410W        W99230   4.737  20.658   4.551
34411W        W99231   2.029   2.908   4.276
34412W        W99232  22.269  14.105  11.702
34413W        W99233  31.602  21.383   3.610
34414W        W99234  17.103  43.725  13.292
34415W        W99235  36.100   5.201  11.085
34416W        W99236  21.580   7.019   5.597
34417W        W99237  32.009  18.823   2.072
34418W        W99238   2.348  39.283  12.377
34419W        W99239  36.209  38.450   2.161
34420W        W99240  41.930  17.793  11.602
34421W        W99241  27.410  36.816   2.343
34422W        W99242  34.845  33.380   4.491
34423W        W99243   7.173  13.094  13.407
34424W        W99244  25.188  11.665   1.797
34425W        W99245  10.925   8.853   2.799
34426W        W99246  10.904   5.728   0.855
34427W        W99247  28.777  26.665  12.886
34428W        W99248  23.150  28.680  11.679
34429W        W99249  20.546   6.844   4.555
34430W        W99250  44.968  16.134  11.044
34431W        W99251   5.326   9.185  14.567
34432W        W99252  32.008   8.987   4.166
34433W        W99253   4.335  17.461   2.078
34434W        W99254   9.143   8.652  14.674
34435W        W99255  32.619   1.352   3.684
34436W        W99256   8.467  11.784  12.486
34437W        W99257  35.908   1.020  12.092
34438W        W99258   6.802  14.677   1.466
34439W        W99259  19.825   3.283   4.701
34440W        W99260   3.625  25.636  10.267
34441W        W99261  42.005  37.782   3.318
34442W        W99262  10.045  32.481   4.659
34443W        W99263  13.779  34.113   0.872
34444W        W99264  26.717   6.410  11.026
34445W        W99265  19.199  44.034  14.903
34446W        W99266  32.210  42.036  10.709
34447W        W99267  20.573  43.370  14.036
34448W        W99268  16.076  26.650  14.481
34449W        W99269   3.801  14.071  13.524
34450W        W99270   8.637   0.757   2.110
34451W        W99271  38.910  27.696   3.085
34452W        W99272  44.489  42.497   0.306
34453W        W99273  40.861  38.585  14.744
34454W        W99274  35.634  25.548  10.612
34455W        W99275  30.446  34.142  12.874
34456W        W99276  43.455  43.428  10.724
34457W        W99277  25.609  28.482  14.061
34458W        W99278  21.210  23.995   3.208
34459W        W99279  32.902  42.677  12.446
34460W        W99280  41.058  34.382  12.445
34461W        W99281  16.889   6.159   5.219
34462W        W99282  44.763  36.290   3.017
34463W        W99283  14.749  14.746   4.077
34464W        W99284   7.356   4.356  14.082
34465W        W99285  10.134  12.866  13.493
34466W        W99286  33.717  28.623   1.563
34467W        W99287  15.101  24.824   4.749
34468W        W99288   8.659   1.453  12.186
34469W        W99289  32.061  30.120  14.423
34470W        W99290  32.398  29.993   1.744
34471W        W99291  39.562  43.516   4.631
34472W        W99292   6.556  35.512  11.449
34473W        W99293   7.797   6.141   3.287
34474W        W99294  39.047  20.719   1.650
34475W        W99295  36.482   9.581  12.619
34476W        W99296   7.104  39.974  14.858
34477W        W99297  28.132   9.248   0.511
34478W        W99298  22.943  26.637   0.881
34479W        W99299   4.916  20.198   2.740
34480W        W99300   1.919  31.357   2.872
34481W        W99301  34.025  42.249   3.109
34482W        W99302   1.262  41.303   2.239
34483W        W99303   4.139  20.699  11.113
34484W        W99304  44.422  34.208  14.924
34485W        W99305  20.353  26.628   3.246
34486W        W99306  36.965   2.240   2.378
34487W        W99307  19.717   6.668   0.489
34488W        W99308  28.996   3.611   1.233
34489W        W99309   1.135  26.184   3.611
34490W        W99310  42.230  43.741   2.169
34491W        W99311  42.503   4.549  13.621
34492W        W99312  39.570  30.387   4.171
34493W        W99313  32.566  21.229   1.800
34494W        W99314  22.248  41.179   3.723
34495W        W99315  34.499   5.620  10.668
34496W        W99316  23.539  11.813   3.846
34497W        W99317  20.091   9.867  12.858
34498W        W99318  20.657  43.755   1.471
34499W        W99319   6.345   2.963  13.555
34500W        W99320  22.418  19.995   4.945
34501W        W99321  33.242  27.923  11.659
34502W        W99322  37.803  11.821   0.397
34503W        W99323  42.333  14.619  13.507
34504W        W99324  13.080   2.955  13.423
34505W        W99325  29.930  27.045  11.623
34506W        W99326  35.377  10.310   5.026
34507W        W99327  27.427  23.558   2.819
34508W        W99328  25.066  23.823  12.145
34509W        W99329  24.423  40.619  12.871
34510W        W99330  16.034   1.815   1.861
34511W        W99331  30.008  33.908  13.113
34512W        W99332   9.652   2.325   3.175
34513W        W99333  17.425  23.103  13.091
34514W        W99334  11.196  31.435  14.862
34515W        W99335  22.544  37.827  12.830
34516W        W99336  16.865  12.124  14.335
34517W        W99337  40.407   1.390  12.380
34518W        W99338  32.009  18.977  11.566
34519W        W99339  22.314  35.989   1.923
34520W        W99340  42.553  31.743   0.093
34521W        W99341  27.417  22.110   1.341
34522W        W99342   5.341  28.152  11.588
34523W        W99343  33.915  44.442  12.028
34524W        W99344  19.840   7.965   4.538
34525W        W99345   0.619  14.748  11.235
34526W        W99346  18.002  43.039  10.950
34527W        W99347  17.700   2.347  12.968
34528W        W99348  41.452  35.648   3.714
34529W        W99349  27.611   5.276   0.390
34530W        W99350  41.121  28.702  11.540
34531W        W99351  28.139  44.422  11.140
34532W        W99352  44.972  34.951   0.265
34533W        W99353  12.082  26.470  14.111
34534W        W99354  44.005  38.292   4.626
34535W        W99355  19.509  33.552   2.170
34536W        W99356  24.253   8.280   3.683
34537W        W99357  19.102  21.060  11.188
34538W        W99358   0.194  37.485  11.193
34539W        W99359   8.688  32.244  11.023
34540W        W99360  21.831   4.501  10.470
34541W        W99361  25.450  30.703   3.298
34542W        W99362  27.012  44.467   0.475
34543W        W99363   1.791  35.149   1.380
34544W        W99364   9.801   1.216  10.743
34545W        W99365  40.969  16.083   2.650
34546W        W99366  41.294  32.519  13.374
34547W        W99367   4.178   4.161   2.289
34548W        W99368  22.209  34.806   3.658
34549W        W99369  27.117  25.302   2.438
34550W        W99370  19.588  41.386   2.816
34551W        W99371  27.041  42.752  11.416
34552W        W99372   7.702   2.945  12.237
34553W        W99373   4.904   7.804   9.894
34554W        W99374  22.254  24.525  13.923
34555W        W99375  38.052  11.728  12.402
34556W        W99376  37.870  18.014  13.948
34557W        W99377   9.710  27.990  13.396
34558W        W99378  31.553  38.510   0.783
34559W        W99379  37.831  13.263   1.646
34560W        W99380  40.019  21.604   3.480
34561W        W99381  23.660  14.325   1.249
34562W        W99382   0.915  21.551  13.533
34563W        W99383  29.474  41.598   4.564
34564W        W99384   4.406   8.068  11.515
34565W        W99385  11.629  19.787   2.215
34566W        W99386  20.165  16.235   0.338
34567W        W99387  26.227  21.640  11.520
34568W        W99388  35.317   6.487  11.603
34569W        W99389   4.225  23.660   4.067
34570W        W99390  21.750  19.777   1.786
34571W        W99391   8.810  32.171  11.972
34572W        W99392   1.319  43.744   3.633
34573W        W99393   6.405  38.502   1.917
34574W        W99394  41.392  23.966   2.367
34575W        W99395  32.436  43.518  14.358
34576W        W99396   5.178  12.895   3.207
34577W        W99397  39.064  33.611   0.690
34578W        W99398  35.574   0.101   1.291
34579W        W99399  11.690  25.188  13.371
34580W        W99400  25.899  43.750   4.592
34581W        W99401  11.102   3.198  10.710
34582W        W99402  25.723  24.130   4.157
34583W        W99403  15.990  26.719   2.823
34584W        W99404  38.399  28.470   4.119
34585W        W99405  13.796   2.344   3.349
34586W        W99406  14.805   7.649  13.930
34587W        W99407  42.331  36.532  11.927
34588W        W99408   5.780  30.080   0.056
34589W        W99409  32.264  33.556   2.773
34590W        W99410  40.080   5.903  13.782
34591W        W99411  17.393  27.590   3.248
34592W        W99412  37.128  32.569   0.494
34593W        W99413  38.875  19.848   4.999
34594W        W99414  13.356  32.635  11.496
34595W        W99415  16.244   5.421   4.746
34596W        W99416  43.443  38.056  13.457
34597W        W99417  37.948  32.714  13.511
34598W        W99418  21.451  44.049  11.518
34599W        W99419  29.831  22.366  11.956
34600W        W99420   9.429  39.756  12.112
34601W        W99421  23.200  34.288   2.281
34602W        W99422  16.797  42.743   4.238
34603W        W99423  40.400   1.630   2.736
34604W        W99424  41.634  28.677  11.593
34605W        W99425  11.784  44.271  11.537
34606W        W99426  27.040  40.928   4.051
34607W        W99427   2.424   6.313  13.457
34608W        W99428  22.417  43.514  14.876
34609W        W99429   1.504  16.396   4.266
34610W        W99430  19.184   0.455   0.022
34611W        W99431   5.945  24.342  13.466
34612W        W99432  18.405  14.640  11.582
34613W        W99433  15.063  20.668  13.323
34614W        W99434   0.937  39.787   9.873
34615W        W99435  32.315   7.592   1.304
34616W        W99436   9.436  36.039  11.175
34617W        W99437  44.292  10.801   0.365
34618W        W99438  18.297  10.777   2.645
34619W        W99439  21.215  11.432   2.306
34620W        W99440  18.980  19.118   3.238
34621W        W99441  44.798   1.975  10.717
34622W        W99442  32.160  44.258   4.999
34623W        W99443  42.363  19.162  10.693
34624W        W99444  15.240  43.099  14.384
34625W        W99445  43.864  30.925  11.525
34626W        W99446  36.056  17.136  10.189
34627W        W99447  25.530   8.289   0.773
34628W        W99448   3.575   8.761  10.759
34629W        W99449  32.302  34.897  10.303
34630W        W99450   2.095   1.895   1.345
34631W        W99451  27.871  12.146  13.334
34632W        W99452  32.642  28.061  13.059
34633W        W99453  37.470  23.195   0.284
34634W        W99454   7.706   6.871  11.747
34635W        W99455   9.137   7.654  13.883
34636W        W99456  25.310   6.875  13.971
34637W        W99457  23.593   9.116  14.028
34638W        W99458  38.969  16.592  14.023
34639W        W99459  23.165   0.006  12.092
34640W        W99460  30.619  23.193   3.268
34641W        W99461  28.684  18.571   0.905
34642W        W99462   1.430  10.708   1.805
34643W        W99463  44.966  27.193   1.252
34644W        W99464  21.159  14.238   2.744
34645W        W99465  40.628  38.100   2.375
34646W        W99466  15.431  23.264  10.984
34647W        W99467  41.817  16.521  11.107
34648W        W99468  15.158  26.984   0.921
34649W        W99469  25.188  24.974  13.787
34650W        W99470  43.288  28.925   0.174
34651W        W99471   2.559  34.404  13.110
34652W        W99472   1.262  42.205  11.359
34653W        W99473   6.372  15.528  13.173
34654W        W99474  27.991  38.078  11.123
34655W        W99475  14.750   1.530  14.488
34656W        W99476  12.802  41.455  12.986
34657W        W99477  17.607  26.523   2.358
34658W        W99478  42.006   7.124  10.716
34659W        W99479  40.402   2.377   3.880
34660W        W99480  35.246  35.429   0.331
34661W        W99481  19.330  19.761  10.702
34662W        W99482  35.491  15.627   0.535
34663W        W99483   6.913  11.740  14.559
34664W        W99484  25.154   1.405  11.558
34665W        W99485  21.124   0.247   4.746
34666W        W99486  17.081  19.280  13.020
34667W        W99487  36.545  41.919   0.467
34668W        W99488  36.077  37.094   2.252
34669W        W99489  18.650   2.443   3.158
34670W        W99490  22.306  28.462   3.696
34671W        W99491  18.763   1.765  13.734
34672W        W99492  16.535  20.031   2.303
34673W        W99493   2.853  27.085  10.869
34674W        W99494  10.453  32.977   3.987
34675W        W99495   6.435  29.382  12.867
34676W        W99496  23.669  28.529   1.330
34677W        W99497  19.106  16.462  11.839
34678W        W99498  24.710   7.908   4.845
34679W        W99499  28.519  15.589   4.833
34680W        W99500  28.217   8.463   3.834
34681W        W99501  29.974   5.212   0.282
34682W        W99502  13.207  44.680  10.740
34683W        W99503  11.628  12.311   1.215
34684W        W99504   2.920  42.847   0.710
34685W        W99505   4.353  18.787   2.800
34686W        W99506  25.785   2.618   0.661
34687W        W99507  19.058  15.033   3.315
34688W        W99508   4.256  25.571   0.772
34689W        W99509  20.118  29.313   0.295
34690W        W99510  30.051  42.563  12.605
34691W        W99511  35.375  11.675  14.371
34692W        W99512  19.023  18.243   3.816
34693W        W99513   5.460  39.855  11.553
34694W        W99514  37.047  19.042  13.638
34695W        W99515  11.739  16.774  10.256
34696W        W99516  36.334   4.091  14.050
34697W        W99517  34.220   5.631  12.976
34698W        W99518  31.395  10.291   0.735
34699W        W99519   8.728  23.232   3.653
34700W        W99520   5.230  11.211  12.336
34701W        W99521  20.116  23.037  11.171
34702W        W99522  34.847  27.606  11.033
34703W        W99523   6.730  34.552  10.776
34704W        W99524  43.004  20.033  12.569
34705W        W99525  27.038  10.295  11.105
34706W        W99526   2.513  44.528  13.379
34707W        W99527  39.565  38.510  13.105
34708W        W99528  33.920  32.865   3.759
34709W        W99529  10.554  16.704  12.698
34710W        W99530  18.908  31.721   3.149
34711W        W99531   7.423  39.912   3.005
34712W        W99532  15.321  16.276  11.550
34713W        W99533  35.085  15.842   0.783
34714W        W99534  43.613   5.306   1.263
34715W        W99535  22.734  43.461  11.946
34716W        W99536   5.503  19.659  12.344
34717W        W99537   9.764  38.143  11.187
34718W        W99538  44.536  18.551  13.983
34719W        W99539  23.684  23.217   2.313
34720W        W99540   8.656  25.739   0.474
34721W        W99541   5.484   9.299  14.050
34722W        W99542  13.021  10.158   4.082
34723W        W99543  32.357  12.830  14.783
34724W        W99544   5.945  25.490  11.917
34725W        W99545  15.341  21.909   0.088
34726W        W99546  26.580  12.719   3.580
34727W        W99547  39.360  30.933  11.233
34728W        W99548   3.612   9.088   1.429
34729W        W99549  37.573  39.030   9.832
34730W        W99550  44.298   3.724   3.899
34731W        W99551  44.261  41.120  14.210
34732W        W99552  35.921  23.109  14.710
34733W        W99553  26.525  40.270   2.178
34734W        W99554   4.183   8.047  11.961
34735W        W99555   7.332   2.583  14.370
34736W        W99556   4.705   1.072   2.633
34737W        W99557  27.124   4.415   0.073
34738W        W99558  16.761   2.685  11.629
34739W        W99559  22.248  21.357  12.906
34740W        W99560   8.671   6.290  14.352
34741W        W99561  19.717   6.177  13.878
34742W        W99562  39.995  23.063  12.047
34743W        W99563  12.599   3.538  11.687
34744W        W99564  27.943   6.111   2.657
34745W        W99565  19.515   8.002   0.922
34746W        W99566  13.888   2.273  14.941
34747W        W99567  18.272  35.946  12.982
34748W        W99568   7.991  19.816  11.124
34749W        W99569  37.025  36.531  13.572
34750W        W99570  41.473  31.567   1.407
34751W        W99571  32.557  38.498   2.454
34752W        W99572  44.371  19.709  12.329
34753W        W99573  33.646  29.005  10.632
34754W        W99574  35.834  28.733  13.940
34755W        W99575  30.514  36.437  10.606
34756W        W99576  25.032  33.067  14.018
34757W        W99577  22.170   9.369   1.299
34758W        W99578  44.142  36.100  11.243
34759W        W99579  37.893  36.341   3.675
34760W        W99580  31.707  28.130  12.631
34761W        W99581   0.037   0.069   2.584
34762W        W99582  35.377  37.348   1.311
34763W        W99583  31.400   8.242   4.843
34764W        W99584   8.275  35.021  12.943
34765W        W99585  25.723  17.502   3.192
34766W        W99586  10.594  34.123   3.262
34767W        W99587  14.292   2.184   4.470
34768W        W99588  15.260  18.553  10.154
34769W        W99589   4.189  28.090  10.950
34770W        W99590  39.266   8.613  13.930
34771W        W99591  16.063  42.388   1.930
34772W        W99592  16.315  16.569   1.289
34773W        W99593  21.672  17.589  11.272
34774W        W99594  31.535  15.642   0.459
34775W        W99595  36.156   4.949  13.901
34776W        W99596  38.570   7.621   3.618
34777W        W99597  29.913  17.166  13.019
34778W        W99598  41.155   6.922   1.001
34779W        W99599  37.938  38.563   4.877
34780W        W99600  33.514  20.905   0.812
34781W        W99601   4.684  26.287   2.627
34782W        W99602  43.837  19.623   2.764
34783W        W99603   9.281  31.118   0.909
34784W        W99604  42.449  13.813  13.942
34785W        W99605  10.221  12.380   3.524
34786W        W99606  42.971  16.296  14.104
34787W        W99607  26.620   4.884  13.800
34788W        W99608   3.253  21.609   2.753
34789W        W99609  27.656  29.827  13.980
34790W        W99610  43.503   2.217  14.130
34791W        W99611   6.700  25.555   9.817
34792W        W99612  18.315  21.320  13.071
34793W        W99613  10.196  37.553  12.815
34794W        W99614   1.262  29.432  14.031
34795W        W99615  27.156  38.424   0.228
34796W        W99616   0.829  12.974  14.975
34797W        W99617  39.034  23.063   0.678
34798W        W99618  28.900  37.030  14.985
34799W        W99619  22.743   0.867  10.688
34800W        W99620  31.950  42.387   2.205
34801W        W99621  13.636  18.085   2.174
34802W        W99622  23.639   2.153  11.715
34803W        W99623  12.786  17.129   5.564
34804W        W99624  43.262  23.244  13.284
34805W        W99625  19.201  20.202  13.168
34806W        W99626  28.657  31.475   1.728
34807W        W99627  36.785  15.232  11.671
34808W        W99628  39.809  34.469  14.468
34809W        W99629  21.178  29.395  13.474
34810W        W99630  18.049  28.320   1.293
34811W        W99631  26.832  20.541   0.457
34812W        W99632  24.108  21.310   2.208
34813W        W99633  27.891  24.726  10.764
34814W        W99634  15.335  44.379   4.243
34815W        W99635  33.871   2.126  12.756
34816W        W99636  14.195  13.519  13.871
34817W        W99637  41.112  23.496  14.403
34818W        W99638  44.782  24.472  13.948
34819W        W99639   7.920  15.666   2.845
34820W        W99640  25.985  18.592  14.021
34821W        W99641  20.265  17.536  12.457
34822W        W99642  10.577  11.107   2.036
34823W        W99643  20.482  23.063   1.274
34824W        W99644  16.566  30.190   0.891
34825W        W99645  39.733  26.545  13.133
34826W        W99646  43.210  38.905  14.703
34827W        W99647   7.224  31.340  12.000
34828W        W99648   7.853  18.217   2.460
34829W        W99649  25.512  28.422  12.019
34830W        W99650   9.856   7.363  12.161
34831W        W99651  19.642  28.653  13.807
34832W        W99652  31.876  44.235   2.603
34833W        W99653  30.521   7.714  14.303
34834W        W99654  10.410  11.609   5.158
34835W        W99655  27.065   9.340  10.768
34836W        W99656  10.309   6.376   1.256
34837W        W99657  25.580  17.583   1.444
34838W        W99658  31.489  31.666  12.991
34839W        W99659   0.330  21.616  10.908
34840W        W99660  11.323  31.380   2.876
34841W        W99661  20.123  15.128  14.386
34842W        W99662  22.008  42.700   3.705
34843W        W99663   8.273  34.027   3.153
34844W        W99664  31.911   1.937   1.386
34845W        W99665  26.152   6.108  13.748
34846W        W99666  38.080  31.043  10.681
34847W        W99667  21.141  25.568  13.242
34848W        W99668  25.587   6.571  11.821
34849W        W99669   7.015   4.668  11.090
34850W        W99670  37.015  42.090  13.536
34851W        W99671  10.809  28.534   4.676
34852W        W99672   9.779  25.318   4.364
34853W        W99673   9.144  20.208   1.108
34854W        W99674  36.780   1.843  12.961
34855W        W99675  39.283  20.333   4.634
34856W        W99676  13.265   8.414  14.499
34857W        W99677  20.958   5.887  10.151
34858W        W99678   4.923  39.315   2.690
34859W        W99679   0.305  41.081   4.705
34860W        W99680  24.694  23.085  10.930
34861W        W99681  10.202  35.519   4.009
34862W        W99682   6.252   8.915   2.379
34863W        W99683  21.018  11.137  12.860
34864W        W99684  41.040  41.703  10.686
34865W        W99685  21.757  21.580  10.639
34866W        W99686  26.166  40.010  11.166
34867W        W99687  38.826  35.565   0.864
34868W        W99688  25.474  44.576  11.505
34869W        W99689  30.424  34.172  11.982
34870W        W99690  43.854  41.871   1.672
34871W        W99691  26.791  35.868   0.962
34872W        W99692  20.026  22.519  11.067
34873W        W99693  12.569   9.822   0.806
34874W        W99694  35.825   1.429   0.849
34875W        W99695  13.303  31.662   3.196
34876W        W99696  29.646  23.957   0.328
34877W        W99697  14.755   9.369  13.128
34878W        W99698  13.315   8.567   3.693
34879W        W99699   8.647  19.978   4.181
34880W        W99700  40.847  32.922   1.908
34881W        W99701   4.288   4.911  12.326
34882W        W99702  36.082  31.410   4.239
34883W        W99703   2.773  31.682  11.579
34884W        W99704  10.239  43.966   3.766
34885W        W99705   6.616   4.294  13.453
34886W        W99706  36.492  11.268  10.491
34887W        W99707  15.369  17.747  13.016
34888W        W99708  11.724  13.943  12.991
34889W        W99709  14.580  17.023  10.494
34890W        W99710  43.971   0.134  11.153
34891W        W99711  35.506  17.624   1.371
34892W        W99712  29.681  24.940  13.902
34893W        W99713   6.089  18.860   0.896
34894W        W99714  39.424  15.670  11.074
34895W        W99715  30.929  26.596  12.025
34896W        W99716  17.843  28.121   1.781
34897W        W99717  10.086  37.743   2.868
34898W        W99718  37.069  11.437   2.297
34899W        W99719  33.741   0.544  12.391
34900W        W99720  42.234  32.182   1.968
34901W        W99721  33.820  12.011   5.193
34902W        W99722  21.146  37.745  10.337
34903W        W99723  28.011  12.186   2.853
34904W        W99724  42.557  22.449   4.258
34905W        W99725  11.915   3.707  10.198
34906W        W99726  37.333  23.699   4.929
34907W        W99727  21.231   6.951   3.270
34908W        W99728  13.128   5.528  13.080
34909W        W99729   0.537  15.312  14.804
34910W        W99730  31.878  15.679  12.117
34911W        W99731  38.885  25.361   4.479
34912W        W99732  16.833  19.071   4.678
34913W        W99733  19.249  14.309   3.721
34914W        W99734  36.531  29.146   1.409
34915W        W99735  11.576   4.275   3.641
34916W        W99736  20.091  41.254   2.833
34917W        W99737  20.317   7.137  11.042
34918W        W99738  10.559  42.001  14.906
34919W        W99739  28.580  39.588   3.235
34920W        W99740  42.775   2.726   0.007
34921W        W99741  40.248   2.188  11.281
34922W        W99742  15.592  21.116   4.081
34923W        W99743  32.018  34.941   0.270
34924W        W99744  43.979  24.093  12.864
34925W        W99745   8.201  16.402   5.476
34926W        W99746  16.944  17.321   2.817
34927W        W99747  12.351  23.449  12.980
34928W        W99748  22.704  34.500   0.703
34929W        W99749  25.475  34.159  14.380
34930W        W99750  18.224  10.681  13.070
34931W        W99751  14.285   8.494   0.833
34932W        W99752   6.773   5.229  13.405
34933W        W99753  42.823  33.570   1.187
34934W        W99754  44.506  13.594  12.576
34935W        W99755  34.008   6.251   0.894
34936W        W99756  16.353  22.526   1.196
34937W        W99757  31.336  21.947   0.039
34938W        W99758  39.804  33.620   2.727
34939W        W99759  18.578  11.647   1.320
34940W        W99760   1.146  14.704  11.092
34941W        W99761  33.371  17.870   2.352
34942W        W99762   3.970  20.583   4.182
34943W        W99763  29.175  43.367   0.084
34944W        W99764   5.302  35.914  13.910
34945W        W99765  13.622  44.352  10.721
34946W        W99766  12.165  23.574  12.462
34947W        W99767  24.657  42.477   1.795
34948W        W99768  29.762  37.575  13.303
34949W        W99769   0.210  35.858  12.035
34950W        W99770  42.287  40.509   0.366
34951W        W99771  19.006  18.609  11.723
34952W        W99772  33.621  28.997   3.524
34953W        W99773   0.248  14.382   1.693
34954W        W99774  26.894   7.739   0.929
34955W        W99775  16.821  39.415   0.207
34956W        W99776   2.754  35.682   3.151
34957W        W99777  44.953  43.265   0.216
34958W        W99778  26.203  32.027   3.276
34959W        W99779  39.040  44.393  14.301
34960W        W99780  20.034   0.636   4.147
34961W        W99781  30.030  39.243  12.415
34962W        W99782   7.151  10.220   2.771
34963W        W99783  23.198  21.650   0.331
34964W        W99784   8.836  19.348  12.055
34965W        W99785  43.572  16.909  11.896
34966W        W99786   4.526  35.760  12.152
34967W        W99787  30.277  16.675   4.136
34968W        W99788   0.827  28.673   0.770
34969W        W99789  23.983  28.160   4.190
34970W        W99790  14.196  26.248  14.560
34971W        W99791   6.687  35.987   3.856
34972W        W99792  12.659  28.161   2.226
34973W        W99793  15.715  23.025  10.644
34974W        W99794   7.823   9.877   0.845
34975W        W99795  36.346   9.501   1.574
34976W        W99796  29.388  38.213   2.708
34977W        W99797  36.552  38.434   3.921
34978W        W99798  38.956  14.421   4.682
34979W        W99799  28.982  10.451   3.588
34980W        W99800  37.932   8.189   9.723
34981W        W99801  15.569  32.066  12.259
34982W        W99802  26.485  16.098   2.697
34983W        W99803  36.352  37.922   3.783
34984W        W99804  43.257  32.622   1.778
34985W        W99805  35.158  10.643   2.246
34986W        W99806  18.450  15.146   2.795
34987W        W99807   7.742  10.681  12.325
34988W        W99808  39.681  30.962   2.180
34989W        W99809   2.262  17.982  10.721
34990W        W99810  25.992  32.822   1.384
34991W        W99811  10.278  30.410  10.167
34992W        W99812  40.385  37.603   1.122
34993W        W99813  27.742  16.798  11.915
34994W        W99814  30.501  13.408  12.650
34995W        W99815  41.355  16.673   0.297
34996W        W99816  31.795  20.219   3.545
34997W        W99817   7.453   5.749   3.233
34998W        W99818  27.669  22.518  11.060
34999W        W99819  20.538  44.689  14.501
35000W        W99820   8.158  30.105  12.143
35001W        W99821  24.044  36.240   0.896
35002W        W99822  41.044  15.770   0.761
35003W        W99823  15.170  43.693  13.582
35004W        W99824  19.604  27.070   3.099
35005W        W99825  41.206  42.482   0.526
35006W        W99826  24.624   3.436  10.772
35007W        W99827  33.873  32.433   4.715
35008W        W99828  28.850  40.836   2.059
35009W        W99829   7.220  41.495  12.326
35010W        W99830   5.617  36.873  10.732
35011W        W99831  38.767  14.924   4.614
35012W        W99832   3.966   6.733   4.659
35013W        W99833  43.527   6.236  10.933
35014W        W99834   1.246  40.355   1.939
35015W        W99835   6.159  23.318   4.128
35016W        W99836  32.456   0.420   2.798
35017W        W99837  17.933  12.327   5.046
35018W        W99838  12.392   2.875  12.123
35019W        W99839  25.741   1.685  12.474
35020W        W99840  40.335  28.604  10.693
35021W        W99841   5.382  15.975   0.314
35022W        W99842  43.168  13.161   0.356
35023W        W99843  29.159  41.284   1.219
35024W        W99844  16.263   9.333   2.280
35025W        W99845  28.251  37.899  14.712
35026W        W99846  15.573  43.298   2.852
35027W        W99847  13.123  39.817   2.785
35028W        W99848  36.360   4.902  12.944
35029W        W99849  41.325   3.194  12.472
35030W        W99850  43.527  41.951   4.810
35031W        W99851  20.089  24.685   4.698
35032W        W99852  25.158  33.487  13.518
35033W        W99853  11.944  24.402  13.123
35034W        W99854  26.128  27.467   2.105
35035W        W99855  16.404  36.274   3.674
35036W        W99856  35.597  23.834   3.212
35037W        W99857  30.895  10.187  10.318
35038W        W99858  43.279  22.151  12.985
35039W        W99859  21.030   0.246  14.454
35040W        W99860  44.366  32.614  13.440
35041W        W99861   2.411  25.124   4.007
35042W        W99862  39.806  21.590  14.505
35043W        W99863  37.462  44.322   4.105
35044W        W99864  27.327  23.628   1.996
35045W        W99865  37.213  25.999   1.271
35046W        W99866  35.444  27.051  14.330
35047W        W99867  20.580  12.675  13.775
35048W        W99868  23.620   9.141   1.811
35049W        W99869   9.378  37.331  11.609
35050W        W99870  26.072  27.945  14.391
35051W        W99871  19.291  10.629  12.188
35052W        W99872  30.946  19.833   1.435
35053W        W99873   9.138  29.924  11.947
35054W        W99874   2.754  41.029   0.329
35055W        W99875  37.663   6.164   0.854
35056W        W99876  44.487  24.932   1.568
35057W        W99877  25.750  31.190   2.741
35058W        W99878  43.628  37.760   3.796
35059W        W99879   5.408  25.009   1.483
35060W        W99880  23.988  24.702  14.767
35061W        W99881   2.518  26.262  12.079
35062W        W99882  37.927  15.489   3.076
35063W        W99883  39.895  15.379   5.008
35064W        W99884  43.252  35.341  10.740
35065W        W99885  25.294  22.322   9.958
35066W        W99886  44.792  37.339  13.018
35067W        W99887  43.895  32.941   4.681
35068W        W99888  33.412  32.043   0.985
35069W        W99889  41.929  16.054  12.852
35070W        W99890   2.286   7.807   4.079
35071W        W99891  40.795  15.745  14.004
35072W        W99892  21.594  17.892  14.838
35073W        W99893  14.306  34.077   4.605
35074W        W99894  30.025  20.215  12.556
35075W        W99895  26.587  39.997  13.880
35076W        W99896  42.287  11.797   4.731
35077W        W99897  10.235  42.212   4.805
35078W        W99898  39.580   7.294  12.350
35079W        W99899  38.843  19.423  10.748
35080W        W99900  35.149  42.876   0.856
35081W        W99901  33.089  39.583   3.327
35082W        W99902   5.318  17.083   2.288
35083W        W99903   0.820  43.303  12.915
35084W        W99904  44.158  16.901  12.635
35085W        W99905  38.982  37.401  10.696
35086W        W99906  43.887   5.912  11.158
35087W        W99907  19.979  28.856   3.309
35088W        W99908  22.732  29.316  13.130
35089W        W99909  28.841  17.161   3.639
35090W        W99910  28.991  36.452  12.943
35091W        W99911  41.928   7.244   4.210
35092W        W99912   9.056  38.025  12.261
35093W        W99913  28.254  17.888   1.537
35094W        W99914  38.802  34.424  13.071
35095W        W99915  16.119  29.669  10.668
35096W        W99916  42.228  38.035   0.888
35097W        W99917  14.402  19.738   3.861
35098W        W99918  17.280  12.877  12.315
35099W        W99919   6.180  10.920   1.573
35100W        W99920  19.873  32.783  13.984
35101W        W99921   0.505  33.432  14.353
35102W        W99922  15.176   7.180   0.528
35103W        W99923   6.365  37.520   3.421
35104W        W99924  36.736  17.673   1.986
35105W        W99925   5.875   5.742  13.301
35106W        W99926   0.268  23.157  11.993
35107W        W99927  13.802  17.384  14.835
35108W        W99928  31.598  42.342   4.051
35109W        W99929  30.416  12.831   1.344
35110W        W99930  31.668   5.434   0.864
35111W        W99931  40.950  30.021   3.747
35112W        W99932  27.918  12.154   1.945
35113W        W99933  29.178  29.674   4.128
35114W        W99934  13.105  19.164   3.811
35115W        W99935  38.892  31.880   0.136
35116W        W99936  15.659  40.749  10.241
35117W        W99937   2.299   8.525  14.112
35118W        W99938  25.203  20.462   9.877
35119W        W99939  33.190  33.038  14.970
35120W        W99940   4.448  14.257  14.337
35121W        W99941  23.252  18.305   0.014
35122W        W99942  21.485  15.520  10.761
35123W        W99943   6.456  29.647  14.918
35124W        W99944  21.482  26.033  12.164
35125W        W99945  24.466  22.458  14.728
35126W        W99946  33.910  38.000  14.719
35127W        W99947   3.175  14.613  13.949
35128W        W99948  30.216   2.957  14.847
35129W        W99949  41.424   8.091   2.634
35130W        W99950   9.782  31.446  11.662
35131W        W99951   4.129  13.260  12.098
35132W        W99952  25.739  31.596   1.948
35133W        W99953  17.043  33.168   1.213
35134W        W99954  33.470  15.210  12.635
35135W        W99955  14.620  15.254  10.672
35136W        W99956  13.235   2.709   0.293
35137W        W99957   5.847  14.253   3.931
35138W        W99958   3.168  24.603  12.215
35139W        W99959  31.019   0.668  12.628
35140W        W99960  16.293  35.823  11.525
35141W        W99961  20.477  27.988   4.533
35142W        W99962  44.897  11.725   2.422
35143W        W99963  20.439  11.357  10.217
35144W        W99964  11.748   5.362   0.981
35145W        W99965   1.506  18.719   1.348
35146W        W99966  41.995  12.811  10.939
35147W        W99967  42.444  13.294   2.341
35148W        W99968  17.623  37.883  13.938
35149W        W99969  44.338  36.551   4.602
35150W        W99970  31.174  42.611   0.418
35151W        W99971  42.439   4.439  11.009
35152W        W99972  28.179  33.895  14.002
35153W        W99973  27.987  29.966   3.838
35154W        W99974  37.018  38.614  13.438
35155W        W99975  15.769  12.381   2.379
35156W        W99976  35.569  44.265  10.747
35157W        W99977   7.741  24.314  14.547
35158W        W99978   8.333  25.839  10.332
35159W        W99979  30.971  40.663   0.414
35160W        W99980   5.931  24.647  13.912
35161W        W99981  18.724  10.572  14.717
35162W        W99982   6.779  20.276   2.644
35163W        W99983  19.721  21.121  13.773
35164W        W99984   7.674  12.265   4.619
35165W        W99985  35.543  31.200  11.659
35166W        W99986  43.403  42.547  13.572
35167W        W99987  10.911  29.060  13.891
35168W        W99988  12.100  21.454  10.509
35169W        W99989   1.344  14.554  14.423
35170W        W99990   4.400   1.944  12.556
35171W        W99991  43.270  12.814  14.801
35172W        W99992  27.418  10.919   3.973
35173W        W99993  12.633  31.944  14.194
35174W        W99994  21.208  40.423   4.515
35175W        W99995   9.728  30.334   9.995
35176W        W99996  33.566  15.191   4.568
35177W        W99997  20.262  44.441   0.919
35178W        W99998  12.393  44.008   0.451
35179W        W99999  13.303   4.371  12.404
35180W        W    0  13.321  28.592   4.533
35181W        W    1  28.155   6.950   4.693
35182W        W    2   0.657  38.815  13.009
35183W        W    3  33.976   2.834   1.704
35184W        W    4   3.465  21.228   4.571
35185W        W    5  18.834  38.656  14.443
35186W        W    6   7.104   7.173   4.764
35187W        W    7  41.266  20.775   0.379
35188W        W    8   6.884   3.922  12.898
35189W        W    9  34.690   2.265   3.901
35190W        W   10   3.315  18.065   1.893
35191W        W   11   7.873  41.492   4.149
35192W        W   12  13.020   3.494  13.392
35193W        W   13  13.311  15.525  11.583
35194W        W   14  20.361  33.915  14.920
35195W        W   15  21.040  37.461  12.552
35196W        W   16  40.021  22.177   1.429
35197W        W   17  12.007  44.106   2.077
35198W        W   18  17.172  18.293   5.097
35199W        W   19  44.470  38.532   4.690
35200W        W   20  44.338  40.908  10.329
35201W        W   21  23.677  44.823   4.014
35202W        W   22  25.423   1.451  12.133
35203W        W   23  19.408   3.347  11.240
35204W        W   24   8.270   3.452   1.163
35205W        W   25  18.948  29.195  14.774
35206W        W   26  34.557   3.521  11.673
35207W        W   27  37.088  16.750   5.404
35208W        W   28  10.989  15.581   3.267
35209W        W   29   4.251  43.390   3.218
35210W        W   30  27.041  33.421  10.638
35211W        W   31  15.649  37.297   0.934
35212W        W   32  27.428  43.889  10.917
35213W        W   33   4.469  18.735   4.121
35214W        W   34  39.144  25.006   4.750
35215W        W   35  28.513   6.756  14.134
35216W        W   36  42.953  32.426   4.614
35217W        W   37   0.412  34.611   1.449
35218W        W   38  12.271  17.647  11.857
35219W        W   39  25.174  28.247  14.745
35220W        W   40  16.779   8.620   1.198
35221W        W   41   3.085   8.133   1.269
35222W        W   42   9.838  19.870  12.469
35223W        W   43  42.450   3.993  12.398
35224W        W   44   2.009  14.638  13.459
35225W        W   45  22.254   5.767  10.937
35226W        W   46  13.519  22.018  14.706
35227W        W   47  10.769  16.543   2.333
35228W        W   48  17.129   8.961   4.542
35229W        W   49  44.830  41.975  10.832
35230W        W   50  30.693  34.003   0.868
35231W        W   51  28.335  43.276   2.246
35232W        W   52  11.447   6.393   0.351
35233W        W   53   9.931  19.123  11.448
35234W        W   54  23.472   3.889  11.207
35235W        W   55  12.220   9.715  10.321
35236W        W   56  34.565  30.691  12.470
35237W        W   57  12.843  29.372   3.049
35238W        W   58  44.995   7.388  10.906
35239W        W   59  21.009   4.294   1.707
35240W        W   60   1.392  41.904  12.986
35241W        W   61  42.440  27.245  12.052
35242W        W   62   8.242   0.275  12.576
35243W        W   63  12.378  13.899  12.085
35244W        W   64  37.021  18.529   3.286
35245W        W   65  12.400   8.335  12.719
35246W        W   66  12.763  10.875   3.628
35247W        W   67   3.018  11.241  14.569
35248W        W   68  11.882  28.068   2.563
35249W        W   69   4.639  23.105   3.985
35250W        W   70   4.538   1.073   0.365
35251W        W   71  41.299  35.403  13.095
35252W        W   72   2.333  11.672   4.047
35253W        W   73   2.038  15.863   3.792
35254W        W   74  15.225  17.027   3.065
35255W        W   75  24.655  30.218  14.275
35256W        W   76  44.486  44.716   1.306
35257W        W   77  26.604  43.282   0.492
35258W        W   78  37.153  38.151   0.785
35259W        W   79   6.201  43.374  13.742
35260W        W   80   1.852   1.324  13.086
35261W        W   81  29.253  16.124   1.410
35262W        W   82  39.563  35.989  10.967
35263W        W   83   7.590  12.596   2.266
35264W        W   84  31.953  37.117   1.745
35265W        W   85  14.774  32.708  12.026
35266W        W   86  21.529  43.150   3.147
35267W        W   87  17.596  27.735  13.742
35268W        W   88  37.113  18.843  12.276
35269W        W   89  10.780   7.328  12.994
35270W        W   90  28.208  17.557   9.985
35271W        W   91   6.612  44.534   3.747
35272W        W   92  26.229  17.064   4.443
35273W        W   93  19.655  28.375   4.979
35274W        W   94  32.936   0.423   0.435
35275W        W   95  38.516  20.071   4.073
35276W        W   96   9.935  19.250   0.986
35277W        W   97  44.757  21.216   3.704
35278W        W   98  20.893  24.801  11.231
35279W        W   99   9.383  28.940  13.092
35280W        W  100  35.417  14.584  13.973
35281W        W  101  20.924   5.725  14.418
35282W        W  102   3.367  32.126   4.652
35283W        W  103  18.251  12.443   1.468
35284W        W  104  34.641  14.734   2.364
35285W        W  105  34.323  24.892  10.810
35286W        W  106  26.975   9.227  12.545
35287W        W  107  25.187  41.992  11.676
35288W        W  108  40.210  14.266  13.954
35289W        W  109  19.221  37.785  12.264
35290W        W  110  31.187  44.892  13.235
35291W        W  111  26.574  19.866   0.394
35292W        W  112  38.273  13.407  12.405
35293W        W  113  12.619  26.616   1.916
35294W        W  114  43.487   4.495   3.282
35295W        W  115  41.966  20.965  12.895
35296W        W  116  11.697  21.599   3.835
35297W        W  117  33.447  12.936   3.706
35298W        W  118   0.395  42.827  14.353
35299W        W  119  23.117   3.481  11.413
35300W        W  120  44.381  14.733  14.392
35301W        W  121   3.416   1.294   3.062
35302W        W  122  16.683  15.518   3.260
35303W        W  123  15.558  34.551  11.728
35304W        W  124   6.160  39.562  11.352
35305W        W  125  39.819  38.339  10.520
35306W        W  126  34.326  23.612  14.923
35307W        W  127  42.490  28.170   2.700
35308W        W  128  15.612   2.760  11.219
35309W        W  129  25.704   6.711  14.425
35310W        W  130  20.748  11.733  10.402
35311W        W  131  43.345  16.100   1.298
35312W        W  132  36.512  43.660   1.717
35313W        W  133  28.118   7.481   4.718
35314W        W  134  32.851  22.175  14.861
35315W        W  135  32.607  27.268   2.235
35316W        W  136  19.702   7.324   3.644
35317W        W  137   6.918  21.200  12.081
35318W        W  138  13.637  16.677   1.161
35319W        W  139  29.542   2.177   0.815
35320W        W  140  33.838  15.073   0.762
35321W        W  141  11.008  18.017  12.580
35322W        W  142  30.556  28.302  11.134
35323W        W  143  31.183  21.147   0.459
35324W        W  144  23.485   0.078   4.440
35325W        W  145  15.300  37.631  10.699
35326W        W  146  11.610   5.876   0.221
35327W        W  147  13.430  14.847  12.826
35328W        W  148  35.166   9.119  12.567
35329W        W  149  37.439  34.033  12.093
35330W        W  150  14.128  44.282  14.807
35331W        W  151  28.571   9.188  14.302
35332W        W  152  42.191  29.721  12.148
35333W        W  153  35.523  19.030  12.821
35334W        W  154  25.464  38.813  12.288
35335W        W  155   6.629   6.099  11.182
35336W        W  156  28.966  35.286   0.846
35337W        W  157   4.413  32.311   0.775
35338W        W  158  30.035  19.340   0.551
35339W        W  159  22.469  18.666  12.099
35340W        W  160   2.125  28.576   4.031
35341W        W  161  12.758  39.340  14.216
35342W        W  162  24.581  39.780   4.125
35343W        W  163  31.159  28.539  12.095
35344W        W  164   6.338  32.003   1.672
35345W        W  165  10.355   4.006  10.779
35346W        W  166  36.964   4.485  10.728
35347W        W  167  17.310   1.948  12.566
35348W        W  168  41.875  38.974   2.579
35349W        W  169  16.266  29.147   4.425
35350W        W  170  39.322  15.317  13.593
35351W        W  171  11.870  42.322   1.831
35352W        W  172  40.896  15.713  13.471
35353W        W  173  37.926  41.400   5.100
35354W        W  174   5.295  38.515  11.626
35355W        W  175  17.696  33.130   0.397
35356W        W  176  38.856   1.706  14.839
35357W        W  177   4.472   3.307  14.373
35358W        W  178  34.458  19.852   0.671
35359W        W  179  30.394   7.457   4.092
35360W        W  180  24.108  43.809  10.966
35361W        W  181  35.343  20.454   2.010
35362W        W  182  32.525  28.989  14.199
35363W        W  183  32.063  34.559  11.443
35364W        W  184  41.574  10.449  11.185
35365W        W  185   4.789  24.733  14.303
35366W        W  186  13.135  28.000  13.067
35367W        W  187  41.475  25.981  13.552
35368W        W  188  14.071  37.932  11.187
35369W        W  189   2.885  19.454  12.987
35370W        W  190   6.046  28.287  11.083
35371W        W  191  38.027  40.817   0.795
35372W        W  192  20.059  32.567  11.765
35373W        W  193   0.010  16.255   0.963
35374W        W  194  44.651  23.504   4.596
35375W        W  195  16.973  38.577   4.647
35376W        W  196  12.779   7.867   0.814
35377W        W  197   3.381  17.524   4.640
35378W        W  198  37.372  39.728   1.959
35379W        W  199   8.593  22.523   5.085
35380W        W  200  21.610  22.173  14.595
35381W        W  201  37.330  43.805  11.627
35382W        W  202  20.764  40.557  10.618
35383W        W  203  33.463  32.152   0.422
35384W        W  204  19.208  30.884   3.194
35385W        W  205  40.952  44.658   0.539
35386W        W  206  11.754  29.147  14.235
35387W        W  207  37.515  37.326  13.366
35388W        W  208   2.380  31.060   4.060
35389W        W  209   8.624   0.191   3.687
35390W        W  210  35.909  16.092   0.269
35391W        W  211   4.742  14.760  10.609
35392W        W  212  10.548  27.550  12.241
35393W        W  213  18.632   2.215  11.306
35394W        W  214  24.612  40.357   1.844
35395W        W  215  36.892   8.380  14.938
35396W        W  216  43.461   0.444  11.161
35397W        W  217  18.568   6.000  10.549
35398W        W  218  26.722  25.618  11.657
35399W        W  219   5.828  25.044   1.766
35400W        W  220  36.022  39.347   2.199
35401W        W  221  39.333  22.704   1.875
35402W        W  222  10.229  33.226  14.062
35403W        W  223  25.213  41.329   2.256
35404W        W  224  10.833  18.834   1.425
35405W        W  225  32.116  29.880   3.555
35406W        W  226  34.198   2.619  13.834
35407W        W  227  34.820  39.522   4.593
35408W        W  228  15.809   2.449   0.673
35409W        W  229   2.817  25.256   4.328
35410W        W  230  33.642  41.977   3.792
35411W        W  231  15.005   4.688   4.278
35412W        W  232   6.344  17.060   1.397
35413W        W  233  25.575  31.891  12.287
35414W        W  234   8.035  41.820  11.673
35415W        W  235  21.131  30.163   0.758
35416W        W  236  41.467  23.972  14.988
35417W        W  237  17.044   6.306  11.575
35418W        W  238  27.933  41.009   2.467
35419W        W  239  23.877  29.145   3.165
35420W        W  240  11.336  37.468  13.509
35421W        W  241  42.348  23.384  13.027
35422W        W  242   9.763  33.867  13.460
35423W        W  243  33.487  38.922   1.034
35424W        W  244  43.750  27.744  12.944
35425W        W  245   3.396  39.562   3.317
35426W        W  246   9.129   7.169   4.012
35427W        W  247   2.387  29.509  13.110
35428W        W  248   6.110  23.474  11.159
35429W        W  249  24.184   0.751   0.721
35430W        W  250   5.461  22.758   0.962
35431W        W  251   2.222   1.404   1.280
35432W        W  252  24.088  26.088   3.953
35433W        W  253  29.216   1.007  14.353
35434W        W  254  10.749  43.862   3.889
35435W        W  255   8.677   7.296   4.312
35436W        W  256  15.507  30.392  14.538
35437W        W  257  26.206  20.650   3.097
35438W        W  258  21.182  27.356   4.166
35439W        W  259  16.369   1.966  12.997
35440W        W  260   7.887   1.915   2.325
35441W        W  261  18.324  28.951  13.648
35442W        W  262  13.026  26.446  11.591
35443W        W  263  37.010  25.134  10.528
35444W        W  264  37.011  23.469   2.187
35445W        W  265  22.667   5.176  11.789
35446W        W  266  11.062   9.878  14.015
35447W        W  267  33.610  13.743  11.012
35448W        W  268  19.300  41.492   4.556
35449W        W  269  38.535  15.716   0.909
35450W        W  270  14.213  11.885  12.479
35451W        W  271   0.993  38.923  13.828
35452W        W  272  37.488  30.220  11.562
35453W        W  273  20.660  12.370   4.010
35454W        W  274  33.238   7.050  10.294
35455W        W  275  10.645  33.637  13.356
35456W        W  276  29.977   9.819   3.159
35457W        W  277  24.280  18.244  13.909
35458W        W  278   1.249  32.166   0.824
35459W        W  279  16.122  29.900  11.656
35460W        W  280  14.707  33.415  12.583
35461W        W  281  11.711  44.878  10.669
35462W        W  282   8.279  10.833  13.583
35463W        W  283   3.797   2.699  13.327
35464W        W  284  22.045  19.138   4.070
35465W        W  285   9.970  22.635   3.694
35466W        W  286   8.631  12.528   2.417
35467W        W  287  41.900  11.345  10.246
35468W        W  288  16.311  18.705  14.912
35469W        W  289  22.252   8.154   4.518
35470W        W  290  25.362  36.710   4.618
35471W        W  291   2.514  11.706  13.801
35472W        W  292   4.820  20.711  14.092
35473W        W  293  44.625   3.048   4.470
35474W        W  294  42.323  25.044   4.050
35475W        W  295   9.939   2.815   2.773
35476W        W  296  34.807  19.234   0.832
35477W        W  297   3.363  44.994   2.248
35478W        W  298   6.423  20.589   3.093
35479W        W  299  13.664  12.809   1.269
35480W        W  300  36.641  30.074  12.914
35481W        W  301  30.908  22.968   4.030
35482W        W  302  18.336  26.481   0.787
35483W        W  303  43.718  29.877   4.841
35484W        W  304  23.258  12.674  11.591
35485W        W  305  14.932  13.101  12.158
35486W        W  306   8.074  27.447   2.785
35487W        W  307  37.619  37.343   2.336
35488W        W  308  37.161  16.248   2.704
35489W        W  309  33.719   3.012   0.782
35490W        W  310  33.152  21.578  11.155
35491W        W  311  15.824   5.299  11.072
35492W        W  312  21.738  27.499  11.175
35493W        W  313  39.567  17.182   4.578
35494W        W  314  19.071  41.817   4.199
35495W        W  315  13.272   6.927   4.982
35496W        W  316  39.905  10.098   2.806
35497W        W  317  38.957  21.920   2.384
35498W        W  318   2.821  15.197   3.206
35499W        W  319  37.928  39.947   1.241
35500W        W  320   9.930  11.425   2.781
35501W        W  321   3.663  43.914  13.274
35502W        W  322  37.460  42.862  10.269
35503W        W  323  32.923  21.083   3.526
35504W        W  324   7.652  39.697   3.704
35505W        W  325   1.817  41.896  14.491
35506W        W  326  15.637  22.551   1.860
35507W        W  327  15.276   6.915  15.000
35508W        W  328  41.376  20.852  12.135
35509W        W  329  38.078  32.420   0.443
35510W        W  330  26.602  28.962  13.748
35511W        W  331  36.302   6.880  14.017
35512W        W  332  40.428  44.095   3.159
35513W        W  333   4.637  30.324   4.688
35514W        W  334  12.250  20.583  13.755
35515W        W  335   7.357   9.907   1.444
35516W        W  336   2.770   0.921  11.099
35517W        W  337  26.646  35.364   1.784
35518W        W  338   0.794  10.955  14.622
35519W        W  339  26.525  42.380   0.940
35520W        W  340  23.499   9.371   2.280
35521W        W  341  43.330  12.832   3.631
35522W        W  342  25.197  22.607   0.407
35523W        W  343  35.038   5.624   3.068
35524W        W  344   2.656  30.973   2.735
35525W        W  345  20.648  25.605   4.830
35526W        W  346  15.689  14.200  13.047
35527W        W  347  15.524  32.928   3.719
35528W        W  348   0.334  30.981   3.087
35529W        W  349  25.054  14.864  11.497
35530W        W  350   4.440  31.069   3.646
35531W        W  351   7.732  31.994  10.776
35532W        W  352  11.685  41.277   1.378
35533W        W  353  41.793  34.578   2.069
35534W        W  354  26.411  32.431   0.671
35535W        W  355  31.022  37.360  11.159
35536W        W  356  25.960  25.297  13.588
35537W        W  357  10.556  29.205   3.667
35538W        W  358  10.109   9.847   1.061
35539W        W  359  32.561  33.994  10.800
35540W        W  360  15.315  31.552  10.655
35541W        W  361  23.981  38.316  12.197
35542W        W  362   4.211   5.278   2.345
35543W        W  363   1.500   3.187   0.731
35544W        W  364  37.895  13.837  13.144
35545W        W  365   6.407  39.538  14.512
35546W        W  366  13.152  19.085   0.749
35547W        W  367  11.863  13.579   0.764
35548W        W  368   7.292   2.077   2.786
35549W        W  369  39.370   6.414  14.984
35550W        W  370  25.541   7.663  11.214
35551W        W  371  14.785  43.745  13.918
35552W        W  372  42.051  22.073   0.537
35553W        W  373   0.168  37.353   3.711
35554W        W  374  30.055  31.092  13.844
35555W        W  375  30.376  37.851  11.635
35556W        W  376   5.330  41.211   3.615
35557W        W  377  44.804  39.303   2.339
35558W        W  378  11.251  17.308   4.800
35559W        W  379  25.529  31.233  14.502
35560W        W  380  28.813   2.132   1.370
35561W        W  381   1.689  36.475   2.408
35562W        W  382  35.745  37.787  14.402
35563W        W  383   9.651  13.786   4.234
35564W        W  384  10.636   6.930   3.224
35565W        W  385   9.759  28.815  11.635
35566W        W  386  37.306  17.546  11.979
35567W        W  387  25.839  25.237  11.292
35568W        W  388  29.610  24.874  10.116
35569W        W  389   9.350  27.443   1.646
35570W        W  390   9.850  33.070   3.178
35571W        W  391  30.425  34.051  14.337
35572W        W  392  32.030   6.269  12.688
35573W        W  393  36.201  24.145   3.801
35574W        W  394  36.904  29.711  12.030
35575W        W  395  24.520  40.390  13.813
35576W        W  396   8.435  17.728  10.976
35577W        W  397  34.616   8.790   1.311
35578W        W  398  21.102  33.189  14.931
35579W        W  399  21.679  27.446   2.857
35580W        W  400  38.462  11.629  12.703
35581W        W  401   9.174   7.447  12.532
35582W        W  402  16.504  13.013  14.418
35583W        W  403  35.492  11.697  12.983
35584W        W  404  34.867  30.657   0.467
35585W        W  405  40.084  24.617  12.596
35586W        W  406  26.456  34.087  13.580
35587W        W  407   2.162   5.331   0.332
35588W        W  408  23.282  10.799   2.279
35589W        W  409  28.108  21.712   0.570
35590W        W  410   9.685  12.758   1.471
35591W        W  411  38.777  36.408   3.637
35592W        W  412  26.659  11.272   4.637
35593W        W  413  36.058  27.047   2.789
35594W        W  414  23.125   3.965   2.521
35595W        W  415  30.211  31.961   4.429
35596W        W  416   0.414  35.869  11.077
35597W        W  417  19.655  14.034   2.488
35598W        W  418  44.177   5.285   0.481
35599W        W  419  35.150   5.191   2.137
35600W        W  420  34.860   9.295  14.564
35601W        W  421  28.924  30.876  11.099
35602W        W  422  37.943  13.515  14.120
35603W        W  423   3.965  30.887   3.619
35604W        W  424   1.383   0.538  12.547
35605W        W  425  43.847   2.836  11.478
35606W        W  426  10.807  42.053  14.236
35607W        W  427  34.036  26.967  11.601
35608W        W  428   4.000  27.138   3.318
35609W        W  429  39.050   3.426   0.428
35610W        W  430   9.677  36.269   4.011
35611W        W  431  22.070  13.439  11.051
35612W        W  432  22.549  30.764   2.785
35613W        W  433  21.314   1.768  10.294
35614W        W  434  40.557  13.009  11.640
35615W        W  435  32.239  41.706   2.784
35616W        W  436  34.846  39.613  14.547
35617W        W  437  29.276  42.665   4.250
35618W        W  438  25.552   0.042  13.899
35619W        W  439  42.975  15.110  12.972
35620W        W  440  17.569  28.695  13.512
35621W        W  441  10.624  29.405   1.242
35622W        W  442  15.655  35.570  14.244
35623W        W  443  32.896   7.767   2.580
35624W        W  444  31.566  19.689  14.465
35625W        W  445  27.137  27.062  14.075
35626W        W  446  19.598   6.526   4.638
35627W        W  447  14.254  30.805   5.533
35628W        W  448  28.474  44.790   1.313
35629W        W  449   7.981  30.449  14.814
35630W        W  450  30.409  24.005  10.760
35631W        W  451  10.845   6.201   3.209
35632W        W  452  20.571   2.731  11.625
35633W        W  453   0.445  24.676   4.227
35634W        W  454  14.794  32.066   3.250
35635W        W  455  12.298  20.494  13.232
35636W        W  456   6.808   6.238   4.663
35637W        W  457  19.205   0.446  13.130
35638W        W  458  44.973  15.376   0.583
35639W        W  459  39.790  26.003   2.803
35640W        W  460  37.425  28.424   0.876
35641W        W  461   6.330  16.614   2.310
35642W        W  462  22.007  41.457   3.118
35643W        W  463  35.089  40.788  11.287
35644W        W  464  11.642   0.719   3.236
35645W        W  465  30.073  22.088  11.561
35646W        W  466   2.264   5.677   0.731
35647W        W  467  40.898  17.955  11.453
35648W        W  468  42.410  43.578  14.296
35649W        W  469  11.652  16.223   1.766
35650W        W  470  17.853  10.807   9.616
35651W        W  471  10.866  39.124  14.849
35652W        W  472  42.899  15.867  14.409
35653W        W  473  29.688  29.232   3.364
35654W        W  474  13.487   2.452  11.175
35655W        W  475  24.566  22.207   2.144
35656W        W  476  10.956  41.834   4.573
35657W        W  477  13.327  26.588   2.616
35658W        W  478  22.491  31.041   4.124
35659W        W  479  40.054  19.256  11.635
35660W        W  480  38.977  38.171  11.065
35661W        W  481  22.511  31.443   2.327
35662W        W  482  16.758   7.186  10.357
35663W        W  483  44.536   6.442  13.813
35664W        W  484   4.371  24.192   1.782
35665W        W  485   7.683   5.884  13.688
35666W        W  486   3.607  22.117   4.104
35667W        W  487  10.135  44.290   4.495
35668W        W  488   6.604  26.571   1.259
35669W        W  489  34.815  30.732   3.150
35670W        W  490  14.542   9.277  12.504
35671W        W  491  41.421  22.620  12.503
35672W        W  492   6.542   7.341  13.583
35673W        W  493   6.393   1.335   0.002
35674W        W  494  14.279   9.199  14.983
35675W        W  495  30.843   0.876   1.085
35676W        W  496  20.077  20.171   3.898
35677W        W  497  35.529  43.955   4.206
35678W        W  498  35.485  35.540   4.287
35679W        W  499  33.195  29.238  11.679
35680W        W  500  41.611  22.191   2.858
35681W        W  501   9.632   1.022   3.030
35682W        W  502  12.136  12.391  11.242
35683W        W  503   0.777  24.292   2.611
35684W        W  504  44.193  16.240   4.588
35685W        W  505  32.132  30.939   3.618
35686W        W  506  19.544  20.997   3.629
35687W        W  507  32.096  19.976   4.246
35688W        W  508   8.239   7.388   0.684
35689W        W  509   0.472  23.044  14.294
35690W        W  510  12.766  24.355   4.212
35691W        W  511  29.357   0.739  11.655
35692W        W  512   7.845  40.496  12.530
35693W        W  513  33.004  44.504  13.811
35694W        W  514  14.376  33.650  10.382
35695W        W  515  26.994   5.353   0.014
35696W        W  516  30.000  40.470  14.296
35697W        W  517  11.742  33.411  14.288
35698W        W  518  17.038  39.398   3.672
35699W        W  519   2.023  22.760   0.759
35700W        W  520  36.431  31.086  10.635
35701W        W  521  32.460   1.892   2.739
35702W        W  522  43.916  30.053  12.825
35703W        W  523  24.979  44.013   0.321
35704W        W  524   2.815  34.995   2.452
35705W        W  525  27.550  42.514  13.267
35706W        W  526  11.122  25.907  14.401
35707W        W  527  17.289  16.642  11.500
35708W        W  528  37.605  36.538   0.408
35709W        W  529   3.621   4.030  11.541
35710W        W  530  10.887  31.127   1.838
35711W        W  531   1.190  15.045  10.636
35712W        W  532  15.337  21.793   0.914
35713W        W  533  44.997   1.507   2.443
35714W        W  534  23.492  17.680   2.978
35715W        W  535  27.191  13.768   4.106
35716W        W  536   3.678  29.219  13.520
35717W        W  537  21.272  30.704   5.064
35718W        W  538  26.144  38.362  12.663
35719W        W  539   8.295  36.106   4.437
35720W        W  540  29.480  41.227  12.567
35721W        W  541  41.747   3.368   4.522
35722W        W  542   1.396   6.920   3.860
35723W        W  543  12.513  13.820   4.107
35724W        W  544  34.769  40.934  12.821
35725W        W  545  37.229   8.010  12.392
35726W        W  546   1.407  33.864   1.323
35727W        W  547   6.930  26.671   0.832
35728W        W  548   5.317  26.896   3.672
35729W        W  549  21.572  30.103   3.300
35730W        W  550   4.660  35.901  10.419
35731W        W  551  37.349  16.103  14.522
35732W        W  552  36.678   5.177  12.582
35733W        W  553   4.820  42.273  14.599
35734W        W  554  40.701   3.418   3.698
35735W        W  555   3.846   8.870  11.176
35736W        W  556   3.044  24.427  13.515
35737W        W  557  34.087  41.919   4.971
35738W        W  558  36.676  31.891  10.192
35739W        W  559  11.944  43.411   4.781
35740W        W  560  29.907  22.985   4.026
35741W        W  561   3.041  23.445   3.228
35742W        W  562  24.008  18.067   0.431
35743W        W  563  20.145  34.958   2.637
35744W        W  564  13.751   7.336  14.041
35745W        W  565  26.054   4.436   3.070
35746W        W  566   8.922  29.202   1.689
35747W        W  567  36.879  24.522  14.972
35748W        W  568   8.630  14.436  11.139
35749W        W  569  36.293  31.586   3.365
35750W        W  570  33.852   7.470   4.158
35751W        W  571  21.933  38.800  10.942
35752W        W  572  20.558  27.125   2.415
35753W        W  573  17.383  16.642  14.533
35754W        W  574   1.041   5.526   2.256
35755W        W  575  15.746  30.542   1.452
35756W        W  576  20.026   8.678   2.280
35757W        W  577  24.154  35.793  14.166
35758W        W  578  33.395  40.071  11.550
35759W        W  579  25.524  28.681  13.461
35760W        W  580  14.222  42.255   5.018
35761W        W  581  21.410  38.578  13.211
35762W        W  582   9.893  12.439  13.816
35763W        W  583  29.944  10.210  13.280
35764W        W  584   9.620  10.384   3.675
35765W        W  585  42.636   1.718  13.812
35766W        W  586  42.757  28.724  14.906
35767W        W  587   8.278  21.637  13.135
35768W        W  588   7.868  42.543   3.323
35769W        W  589  10.158  27.723  12.535
35770W        W  590  40.787  39.937   0.918
35771W        W  591   2.308   0.997   2.226
35772W        W  592  44.975  33.552  11.767
35773W        W  593   3.734  28.990   5.104
35774W        W  594  39.524  41.325  10.687
35775W        W  595  10.815  40.584  10.755
35776W        W  596  14.808  16.258   3.209
35777W        W  597  37.016  22.020   3.178
35778W        W  598  36.753  16.392  13.070
35779W        W  599  40.255   4.711   3.640
35780W        W  600   4.237   8.370   2.829
35781W        W  601  15.545  20.604  14.973
35782W        W  602   8.330  19.286   3.249
35783W        W  603  32.665  37.602  13.137
35784W        W  604   5.271  14.971   0.465
35785W        W  605  44.783   8.854   4.396
35786W        W  606   3.154  31.200   2.717
35787W        W  607  39.929  36.193  13.583
35788W        W  608   5.344   0.807   1.279
35789W        W  609  33.455  41.004  12.202
35790W        W  610  43.012  13.698   1.256
35791W        W  611  25.524  28.524   4.843
35792W        W  612  31.936   2.961   0.363
35793W        W  613   0.754  22.185  12.844
35794W        W  614  20.854   7.720   4.545
35795W        W  615  37.998  23.903  14.295
35796W        W  616  10.714  26.377  14.084
35797W        W  617  41.758   2.286   1.999
35798W        W  618  38.073  42.514  10.677
35799W        W  619  32.903   3.437   4.135
35800W        W  620  31.509  41.889  13.041
35801W        W  621  32.110  13.188  12.121
35802W        W  622  11.574  38.574  11.597
35803W        W  623  30.302  25.593   1.276
35804W        W  624  22.499  26.304   2.935
35805W        W  625   0.248  19.148   1.242
35806W        W  626  13.627  37.067   3.773
35807W        W  627   8.645  42.514   0.003
35808W        W  628  42.009  13.163   2.596
35809W        W  629  36.901  20.326  10.689
35810W        W  630  17.523  35.886   2.068
35811W        W  631  35.453  33.094   1.426
35812W        W  632  36.037  32.833  12.101
35813W        W  633   5.946  42.068  12.785
35814W        W  634  11.816  22.206  12.413
35815W        W  635   9.935   2.575   2.159
35816W        W  636   2.761   8.575   4.146
35817W        W  637  39.468  27.987   0.766
35818W        W  638  29.916  34.436  10.690
35819W        W  639  43.554   4.523  11.773
35820W        W  640  21.536   7.269  13.551
35821W        W  641   8.847  20.303  14.073
35822W        W  642   4.181  31.344  10.731
35823W        W  643   2.870  22.791  14.272
35824W        W  644  37.676   2.641   2.843
35825W        W  645  36.034  23.795   5.466
35826W        W  646  18.852   5.792   2.070
35827W        W  647  26.679  31.563   4.332
35828W        W  648  20.509  29.935   1.342
35829W        W  649   6.304  33.897   2.224
35830W        W  650   7.709  42.201  11.555
35831W        W  651  20.635  18.951  14.040
35832W        W  652  22.559  16.769  13.829
35833W        W  653   4.952  16.615  13.083
35834W        W  654   3.681  16.835  10.599
35835W        W  655  35.458  33.934  11.379
35836W        W  656  29.655  11.546   0.801
35837W        W  657  21.938  39.520  13.280
35838W        W  658   8.718  21.181   4.204
35839W        W  659  34.578  40.242  12.039
35840W        W  660  41.396  43.361   2.393
35841W        W  661  27.457   8.675   4.331
35842W        W  662  23.268  14.070   3.599
35843W        W  663  22.542  29.684  11.058
35844W        W  664  26.560  31.336   3.473
35845W        W  665   3.904   3.224  13.286
35846W        W  666  44.399  25.516  11.725
35847W        W  667  31.908  43.786  11.745
35848W        W  668  22.299  33.250   2.921
35849W        W  669   3.355  18.119  13.160
35850W        W  670  26.147  27.073   1.764
35851W        W  671   9.374  27.592  13.627
35852W        W  672  37.325  19.060  10.949
35853W        W  673  13.581   7.206  13.553
35854W        W  674  24.906   4.725   1.620
35855W        W  675   7.210  31.553  14.335
35856W        W  676   4.181  29.298  13.591
35857W        W  677  39.992  11.565   1.726
35858W        W  678   0.739   2.390   4.118
35859W        W  679  11.835   9.339   1.315
35860W        W  680   0.698  40.254   0.251
35861W        W  681  41.724  43.586   4.099
35862W        W  682   3.797  31.125   3.168
35863W        W  683  40.301   3.724   3.844
35864W        W  684   0.391  25.612   4.113
35865W        W  685  25.932  12.172  12.737
35866W        W  686   6.848   2.865   2.819
35867W        W  687   1.020  16.949  13.825
35868W        W  688  41.687  44.379   0.090
35869W        W  689  19.984  34.821   2.165
35870W        W  690  10.173   6.918   4.115
35871W        W  691   3.982  16.344   4.221
35872W        W  692  37.491   8.441  14.296
35873W        W  693  13.615  40.807  13.977
35874W        W  694  19.754  15.200   4.904
35875W        W  695  42.589  11.757  14.510
35876W        W  696   5.792  16.079  12.252
35877W        W  697  13.225   2.395   4.129
35878W        W  698  38.794  18.765   4.789
35879W        W  699   1.196  37.934  12.824
35880W        W  700  22.447   3.740  11.109
35881W        W  701  16.327  35.829   2.007
35882W        W  702   4.179   7.746   0.429
35883W        W  703  24.890  31.449  14.023
35884W        W  704   2.394  21.193  11.585
35885W        W  705  37.526  32.286   0.316
35886W        W  706   4.951  35.473  10.595
35887W        W  707  15.581   3.133   1.426
35888W        W  708  15.670   7.783   2.616
35889W        W  709  21.158  22.266  12.135
35890W        W  710  34.833  12.124  11.517
35891W        W  711  36.303   5.632   0.474
35892W        W  712  38.306  13.232  11.137
35893W        W  713  29.153  41.998   3.279
35894W        W  714  43.801  32.710  13.427
35895W        W  715  40.772  37.272   3.611
35896W        W  716  22.573  21.106  14.112
35897W        W  717  38.249  44.593  13.907
35898W        W  718  23.808  40.352  13.605
35899W        W  719  32.369  36.807  12.450
35900W        W  720  32.377  10.742   3.267
35901W        W  721  18.996  35.164   3.418
35902W        W  722  29.807   8.480   2.663
35903W        W  723  15.311  38.831   1.331
35904W        W  724  20.930  23.396  13.031
35905W        W  725  14.595  27.437  11.134
35906W        W  726  20.080  44.974  14.437
35907W        W  727  31.195  10.690  14.849
35908W        W  728  37.032   8.871   9.721
35909W        W  729  26.173  26.041   3.842
35910W        W  730  20.107  11.226  11.156
35911W        W  731  37.591  30.604  12.913
35912W        W  732  27.961  41.815   0.007
35913W        W  733  17.650  41.081  11.606
35914W        W  734  42.137  13.726  14.699
35915W        W  735  19.250  24.208   4.291
35916W        W  736  24.728  35.020   3.329
35917W        W  737   2.433  39.483  11.908
35918W        W  738  32.467  28.181  13.525
35919W        W  739  34.455  44.379  13.242
35920W        W  740  28.100  43.026   4.159
35921W        W  741  23.558   3.009   0.281
35922W        W  742  17.487   4.746   1.896
35923W        W  743  39.324  33.779   2.678
35924W        W  744   1.482  21.508   1.720
35925W        W  745  18.702  14.717   2.683
35926W        W  746  38.067   9.355   0.429
35927W        W  747  38.971  13.452   4.549
35928W        W  748  37.038  36.409   2.841
35929W        W  749  30.255  32.601  14.514
35930W        W  750   8.346  27.806  14.703
35931W        W  751  39.272  31.560   1.908
35932W        W  752  27.808   7.344   2.614
35933W        W  753  38.873  13.846  12.116
35934W        W  754  16.196  20.624   4.562
35935W        W  755  23.967  26.302  11.625
35936W        W  756  12.994  25.219   4.952
35937W        W  757  34.158   6.742   0.955
35938W        W  758   9.711  42.316   2.192
35939W        W  759  30.641   0.845   2.708
35940W        W  760   7.863  43.225  13.312
35941W        W  761  20.311   1.381  12.215
35942W        W  762  21.066   1.194   0.486
35943W        W  763  23.723  25.937  10.865
35944W        W  764  15.301  43.705   2.679
35945W        W  765  21.565  25.253  14.080
35946W        W  766  41.774   6.302   1.075
35947W        W  767  20.108  17.620  13.566
35948W        W  768  14.942  23.279  11.178
35949W        W  769  12.268  38.257   0.729
35950W        W  770   5.450  20.506   3.142
35951W        W  771  37.636  44.555   2.697
35952W        W  772  38.759  14.003  10.242
35953W        W  773   1.717  12.959   0.968
35954W        W  774  10.861  38.500  12.209
35955W        W  775  26.084  23.408  14.299
35956W        W  776  15.235  31.632   4.498
35957W        W  777  27.491  17.877   1.320
35958W        W  778  35.010   7.787   0.639
35959W        W  779  35.074   2.980  12.484
35960W        W  780  18.318   2.804   1.280
35961W        W  781  31.890   7.740  14.936
35962W        W  782  31.534  40.953   3.588
35963W        W  783  11.525   0.465  12.291
35964W        W  784  38.860  37.645  14.639
35965W        W  785  39.466  24.612  14.055
35966W        W  786   8.061  33.378   2.583
35967W        W  787  26.681  41.321   1.200
35968W        W  788   3.461  20.835  13.309
35969W        W  789  35.488   8.764   2.203
35970W        W  790  25.238   2.439   3.650
35971W        W  791  17.027   0.444   2.285
35972W        W  792   7.879   7.823  12.469
35973W        W  793  24.693   0.563  12.840
35974W        W  794  15.397  14.231   1.145
35975W        W  795  20.172  21.779   0.420
35976W        W  796  29.503  10.104  13.001
35977W        W  797   7.687   9.607  14.021
35978W        W  798  43.838   0.459  13.135
35979W        W  799  11.289  39.045   2.312
35980W        W  800  36.393   6.128  14.600
35981W        W  801  17.210   5.707   2.719
35982W        W  802  11.224  26.401   3.867
35983W        W  803  26.917  26.481   3.714
35984W        W  804  36.422  35.898  11.280
35985W        W  805  12.237  23.241  10.671
35986W        W  806   8.614  14.774  11.506
35987W        W  807  31.939  17.584   2.833
35988W        W  808   4.729  35.473   4.392
35989W        W  809  12.737   2.217   0.957
35990W        W  810  42.102  35.551   2.974
35991W        W  811  41.430  33.711  11.398
35992W        W  812  36.242  40.787  11.201
35993W        W  813  41.737  22.052  13.501
35994W        W  814   3.146  41.797  13.971
35995W        W  815  13.685  10.284  10.432
35996W        W  816  21.551  24.629  13.772
35997W        W  817  18.796  38.069   0.782
35998W        W  818  20.697  13.877  12.044
35999W        W  819  15.913  28.573   0.383
36000W        W  820  18.123  37.738   4.720
36001W        W  821  12.241   6.666   0.012
36002W        W  822  20.032  28.118  14.503
36003W        W  823  32.085  28.375  11.077
36004W        W  824  22.685  15.863   5.173
36005W        W  825  23.650  36.181   1.410
36006W        W  826  38.742  37.144  14.861
36007W        W  827  27.699  35.348   0.178
36008W        W  828  21.466  28.982   1.737
36009W        W  829   9.868  41.431  13.531
36010W        W  830  10.249  33.297   3.408
36011W        W  831   4.755  19.217  11.701
36012W        W  832   5.326   7.029   2.337
36013W        W  833  41.377   2.614  11.669
36014W        W  834  28.389  31.095   0.179
36015W        W  835  27.684  17.859  10.749
36016W        W  836  25.488   2.894   1.595
36017W        W  837  19.732  15.011   2.801
36018W        W  838  35.390   6.894  13.317
36019W        W  839   2.058  16.215   1.924
36020W        W  840  44.598  27.615  13.720
36021W        W  841   6.298  27.770  11.487
36022W        W  842  31.472  23.547   9.831
36023W        W  843  38.853   4.591   2.733
36024W        W  844   3.830  16.348   1.654
36025W        W  845  11.004   2.780   1.468
36026W        W  846  19.113  35.162   2.890
36027W        W  847  11.279  14.522   0.329
36028W        W  848  32.360  21.360  11.098
36029W        W  849  10.648  18.728   2.904
36030W        W  850  40.454  28.110  10.683
36031W        W  851   2.823  36.708   0.791
36032W        W  852   1.800   2.828   0.453
36033W        W  853  26.193   2.543  11.144
36034W        W  854  22.225  13.320  14.479
36035W        W  855  20.790   1.954  10.325
36036W        W  856   4.883  39.476  13.975
36037W        W  857  28.358  37.008   4.029
36038W        W  858  27.585  35.872   2.187
36039W        W  859  35.115  10.649   1.333
36040W        W  860  20.579  33.942  13.986
36041W        W  861  10.779  31.489  11.599
36042W        W  862  19.806  32.185   1.636
36043W        W  863   9.591  27.165   4.604
36044W        W  864  31.876  14.189  13.483
36045W        W  865  11.437  25.211  12.342
36046W        W  866  36.833  33.300   0.241
36047W        W  867   4.980  30.612   2.589
36048W        W  868  40.572  21.542   1.441
36049W        W  869   8.362  34.569   2.650
36050W        W  870  16.619   6.367   4.242
36051W        W  871  32.293  35.080  13.925
36052W        W  872  31.147   7.368   4.688
36053W        W  873  40.514   2.822  10.521
36054W        W  874  44.487  27.896  13.297
36055W        W  875   9.459  23.302   1.880
36056W        W  876  12.760  18.112  11.695
36057W        W  877   2.786  16.428  12.050
36058W        W  878  36.879  32.624  11.958
36059W        W  879  25.234  42.351   0.494
36060W        W  880  38.449  22.104  14.095
36061W        W  881  31.821  35.825   0.358
36062W        W  882  16.498  12.108  11.668
36063W        W  883  24.476  31.568  14.319
36064W        W  884  41.213   8.923   2.363
36065W        W  885   3.861  15.096  12.560
36066W        W  886  20.793  20.214   1.679
36067W        W  887  17.474  34.871   1.675
36068W        W  888   2.883  17.767  11.560
36069W        W  889  38.877   2.713  12.461
36070W        W  890   8.878  23.679   3.142
36071W        W  891  42.489   8.172  14.884
36072W        W  892  11.279  39.080   4.855
36073W        W  893  41.342  20.238  13.015
36074W        W  894  34.910  33.989  14.742
36075W        W  895  19.507  22.809   4.122
36076W        W  896  23.119  40.924  11.858
36077W        W  897  20.220   4.981  10.391
36078W        W  898  29.750  27.433   1.139
36079W        W  899  39.222  11.859   2.341
36080W        W  900  24.355   3.027  10.574
36081W        W  901  42.720  29.688  12.052
36082W        W  902   8.141  26.193   1.690
36083W        W  903  19.659  33.042   1.832
36084W        W  904  11.127  28.664  10.616
36085W        W  905  14.938  38.019   3.735
36086W        W  906  31.390  13.686  14.010
36087W        W  907  41.762  37.270  10.377
36088W        W  908  44.474  39.002  11.803
36089W        W  909  43.493  23.505  10.499
36090W        W  910   2.295  21.022   3.140
36091W        W  911  16.287  15.627   0.362
36092W        W  912  26.649  27.393  11.977
36093W        W  913  20.807  40.034  11.928
36094W        W  914  13.647  44.917   1.192
36095W        W  915  13.561  17.136   2.445
36096W        W  916  16.588  42.659  11.384
36097W        W  917  23.577  35.884   4.365
36098W        W  918  19.184  28.011   0.591
36099W        W  919  20.847  19.172   1.212
36100W        W  920  21.180  16.583  14.574
36101W        W  921   2.784  29.305  10.494
36102W        W  922  37.689  35.187  14.520
36103W        W  923  44.496  32.165  11.929
36104W        W  924  15.754   6.667  14.049
36105W        W  925  16.896   3.015  10.197
36106W        W  926  25.990  19.960  12.611
36107W        W  927  42.866  13.124  11.618
36108W        W  928   1.207  20.598  11.914
36109W        W  929  30.658  10.705   1.694
36110W        W  930  33.131   3.422  11.859
36111W        W  931  29.195  34.160   3.272
36112W        W  932   2.444  28.894  13.944
36113W        W  933   6.319  37.052  14.355
36114W        W  934  20.728   5.854   1.207
36115W        W  935  12.120   7.205   0.826
36116W        W  936   8.874  44.739  12.941
36117W        W  937  40.550  13.480  13.543
36118W        W  938  28.230  40.818  11.149
36119W        W  939  32.375  36.520  13.832
36120W        W  940  40.446  19.271   1.436
36121W        W  941  33.911   0.665  11.450
36122W        W  942  17.976   6.869   2.862
36123W        W  943   4.937  25.513   3.665
36124W        W  944  19.171  44.278   3.809
36125W        W  945  26.991  28.632  14.572
36126W        W  946  28.048   0.018  13.007
36127W        W  947  35.118  29.032  13.400
36128W        W  948  42.391  22.024  14.347
36129W        W  949   8.869  30.168   0.823
36130W        W  950  29.037  35.856   1.721
36131W        W  951  11.668  35.096  13.490
36132W        W  952  32.380   2.676   3.169
36133W        W  953   6.233   8.906  13.083
36134W        W  954  21.042  40.862   3.263
36135W        W  955   7.096   5.279   0.255
36136W        W  956   7.378  33.438   5.021
36137W        W  957  32.930  13.093   3.222
36138W        W  958  32.020  32.542   0.087
36139W        W  959  43.740  19.234  11.861
36140W        W  960  23.527  33.370   1.519
36141W        W  961  35.641  17.340   2.287
36142W        W  962  10.944  31.898   3.260
36143W        W  963  34.105  16.730  12.035
36144W        W  964  19.812  44.930   3.066
36145W        W  965  43.003   3.946   3.731
36146W        W  966   2.417  20.893  10.291
36147W        W  967  12.698  43.973  10.898
36148W        W  968  11.138  32.661  13.270
36149W        W  969   8.592  19.059   4.085
36150W        W  970  26.284   9.874  14.974
36151W        W  971  19.419  13.269   3.579
36152W        W  972  31.366  36.052   0.505
36153W        W  973  43.258  25.493  14.896
36154W        W  974  31.923  11.680   3.745
36155W        W  975  28.449  33.932   3.128
36156W        W  976  29.943   0.791   1.146
36157W        W  977  15.431  30.395   4.579
36158W        W  978  27.566  38.690   1.427
36159W        W  979  40.103   3.988  12.474
36160W        W  980  14.989  16.922  12.473
36161W        W  981  37.871  15.043   3.366
36162W        W  982  20.783  39.480   3.301
36163W        W  983  35.998  26.931   3.675
36164W        W  984  22.488   1.320  14.912
36165W        W  985  23.311   2.752   0.675
36166W        W  986  33.343  20.194  13.874
36167W        W  987  31.459   5.380  13.486
36168W        W  988  21.571  16.709  10.278
36169W        W  989   0.237  26.041  11.601
36170W        W  990  16.063  28.181  11.564
36171W        W  991  12.428  27.933   0.897
36172W        W  992  35.719  24.522  10.173
36173W        W  993  16.582  35.792  14.710
36174W        W  994   4.187  28.903   0.528
36175W        W  995  42.502  12.786   2.242
36176W        W  996  36.938   0.522  14.363
36177W        W  997  29.180  38.770  13.813
36178W        W  998  27.551   8.244  11.543
36179W        W  999   4.924  19.200   1.893
36180W        W 1000  41.037  20.813  14.901
36181W        W 1001  18.332  35.338   0.867
36182W        W 1002   2.797   9.931   4.723
36183W        W 1003  14.539  18.016  12.871
36184W        W 1004  44.703   5.473   3.272
36185W        W 1005   2.233  17.825  14.989
36186W        W 1006  25.461   2.349  13.329
36187W        W 1007  18.154  39.776  13.790
36188W        W 1008  41.952  12.730   3.351
36189W        W 1009  43.744  40.605  14.367
36190W        W 1010  40.415  38.252  13.111
36191W        W 1011  13.299  15.023   1.725
36192W        W 1012  39.852   3.482   3.853
36193W        W 1013  32.974  11.344   2.891
36194W        W 1014  32.089  28.026   4.337
36195W        W 1015   7.848  12.216   0.449
36196W        W 1016  42.976  16.157  11.893
36197W        W 1017  14.691  20.659  12.918
36198W        W 1018  17.311  38.926  12.085
36199W        W 1019  29.106  38.149  14.753
36200W        W 1020  23.323  30.100  14.292
36201W        W 1021  27.698   8.729   4.807
36202W        W 1022   0.005  16.540   3.653
36203W        W 1023  12.768  24.036   2.134
36204W        W 1024  30.469  34.041   2.665
36205W        W 1025  28.728  20.825   1.204
36206W        W 1026   2.199  26.710  10.223
36207W        W 1027  13.721  16.723   5.395
36208W        W 1028   0.974  35.857   2.234
36209W        W 1029  14.336  26.546  10.705
36210W        W 1030  17.090   6.717  10.879
36211W        W 1031  13.678  12.555  12.606
36212W        W 1032  43.531  26.375   1.986
36213W        W 1033  43.249   9.073   2.384
36214W        W 1034  18.740  31.408  12.089
36215W        W 1035  11.864  19.599   0.053
36216W        W 1036  36.903  40.951   0.811
36217W        W 1037  31.172  16.152   0.602
36218W        W 1038  17.037   9.284   0.780
36219W        W 1039  21.834  11.566  11.886
36220W        W 1040   0.421  38.911  10.568
36221W        W 1041  12.966   9.837   3.655
36222W        W 1042  11.244  36.136  11.745
36223W        W 1043  29.589  13.795  11.682
36224W        W 1044  11.178  36.918  11.069
36225W        W 1045  23.023  22.599   4.531
36226W        W 1046  17.091  37.587  11.892
36227W        W 1047   2.669  25.274  14.428
36228W        W 1048   4.309  37.513   2.414
36229W        W 1049  27.389  26.481  14.484
36230W        W 1050  23.255   8.201  14.368
36231W        W 1051   7.738  28.170   2.717
36232W        W 1052  42.393  30.533  11.619
36233W        W 1053  42.266  30.968   3.844
36234W        W 1054   3.313   5.792  12.003
36235W        W 1055  25.638  22.210  10.345
36236W        W 1056  10.546  38.524  11.761
36237W        W 1057  14.325  36.085  12.972
36238W        W 1058  36.905  27.471   4.421
36239W        W 1059  30.281  11.696   2.763
36240W        W 1060  11.105  18.711   3.108
36241W        W 1061  29.190   6.205   4.101
36242W        W 1062  22.776  26.542  14.038
36243W        W 1063  11.262   7.984  14.426
36244W        W 1064  15.673  35.683  11.536
36245W        W 1065  39.335  30.978  12.454
36246W        W 1066   1.774  28.639  13.438
36247W        W 1067  28.593  24.707   4.225
36248W        W 1068  44.831  17.737   4.147
36249W        W 1069  26.729  23.007  11.962
36250W        W 1070  25.057  35.678   3.786
36251W        W 1071  35.670  21.360   5.040
36252W        W 1072  36.484  16.827  12.563
36253W        W 1073   1.714  37.521  13.889
36254W        W 1074  17.498  28.544   4.465
36255W        W 1075  37.554  39.647   3.754
36256W        W 1076  23.545  34.037   2.845
36257W        W 1077  11.386   4.775   3.746
36258W        W 1078  16.107   5.538   0.570
36259W        W 1079   9.457  37.082   3.608
36260W        W 1080   9.744  34.635  10.655
36261W        W 1081  10.463   4.115  11.663
36262W        W 1082  25.374  31.646   0.962
36263W        W 1083  28.507  14.250  14.376
36264W        W 1084  16.081  33.994   1.857
36265W        W 1085  35.046  11.288   4.509
36266W        W 1086  27.549  37.516   0.525
36267W        W 1087  13.947  33.933  10.232
36268W        W 1088  11.696  16.270   3.211
36269W        W 1089   1.914  18.033   2.613
36270W        W 1090   2.282  27.936   4.847
36271W        W 1091  20.902  11.890  12.219
36272W        W 1092  35.114  30.947   1.825
36273W        W 1093   1.477   4.672  14.410
36274W        W 1094   7.183  12.665  11.752
36275W        W 1095  25.077   4.706  10.033
36276W        W 1096  34.606  28.236   1.866
36277W        W 1097  42.384  20.208   2.402
36278W        W 1098   1.708  30.722  13.312
36279W        W 1099   2.320  31.991  11.897
36280W        W 1100  40.447   4.216  10.689
36281W        W 1101  43.874  19.652  14.515
36282W        W 1102  19.073  16.091   2.266
36283W        W 1103   1.505  42.547   1.778
36284W        W 1104  16.627  44.565  10.975
36285W        W 1105  33.077  25.558   3.915
36286W        W 1106  30.944   9.293   1.485
36287W        W 1107   4.885  32.244  13.387
36288W        W 1108  15.665   9.444   4.597
36289W        W 1109  39.778  42.645   4.453
36290W        W 1110  19.254   8.760   0.240
36291W        W 1111   8.832   2.198  12.493
36292W        W 1112  33.400  37.481  14.051
36293W        W 1113   3.224  30.619  12.573
36294W        W 1114  24.552  28.625   0.562
36295W        W 1115  17.983  39.596  12.595
36296W        W 1116  37.472  17.745  14.736
36297W        W 1117  21.856  14.738   4.157
36298W        W 1118  27.671  43.425  14.447
36299W        W 1119  23.446  13.822  11.191
36300W        W 1120  32.427  22.117   4.716
36301W        W 1121  18.316   4.165  12.640
36302W        W 1122  17.808  17.552   2.880
36303W        W 1123  15.647   3.452   2.406
36304W        W 1124  12.640  34.508   4.363
36305W        W 1125   3.843  24.571   2.819
36306W        W 1126  11.171   7.837   4.704
36307W        W 1127  13.105   0.965  12.026
36308W        W 1128  30.121   4.665   3.484
36309W        W 1129   1.409   4.872   0.357
36310W        W 1130  37.041  13.625  12.615
36311W        W 1131  21.864  33.959  11.015
36312W        W 1132  38.602  11.477   0.444
36313W        W 1133   8.403  19.996   1.802
36314W        W 1134  10.231  18.261  11.964
36315W        W 1135  28.931  32.388   3.552
36316W        W 1136  14.857   7.319  11.684
36317W        W 1137  29.850  36.902   4.159
36318W        W 1138  19.675   9.324  12.114
36319W        W 1139  33.487  36.373  11.986
36320W        W 1140  35.870   5.002  11.533
36321W        W 1141  10.807   3.949  14.438
36322W        W 1142  12.272  31.788  13.852
36323W        W 1143  31.164  15.764   1.304
36324W        W 1144   1.193  11.186  14.889
36325W        W 1145  11.892   0.451  11.939
36326W        W 1146  32.199  34.671   1.505
36327W        W 1147  19.361  16.170  13.038
36328W        W 1148  29.334  36.873   4.146
36329W        W 1149  19.633  42.058   1.500
36330W        W 1150   4.379   1.182  12.952
36331W        W 1151  43.058  34.018   3.818
36332W        W 1152  42.977  33.833   4.662
36333W        W 1153  24.281  39.891   0.353
36334W        W 1154  26.169  21.892  13.685
36335W        W 1155  25.779  29.999   0.360
36336W        W 1156  10.714  11.816  13.959
36337W        W 1157  44.202  32.187   3.182
36338W        W 1158  26.893  23.845   4.169
36339W        W 1159  21.605  12.209  10.607
36340W        W 1160  26.650  44.768   0.224
36341W        W 1161  24.592  33.676   1.797
36342W        W 1162  11.369  17.882   2.382
36343W        W 1163  31.041  34.350   3.458
36344W        W 1164  25.203  16.207  11.990
36345W        W 1165  35.503   2.871  11.179
36346W        W 1166  39.577   4.290  12.946
36347W        W 1167   0.786  36.792   2.228
36348W        W 1168   8.758  24.110  10.688
36349W        W 1169  19.799   4.249  14.916
36350W        W 1170   9.127  28.563  12.812
36351W        W 1171  18.853  41.755  10.828
36352W        W 1172   3.560  28.406  14.069
36353W        W 1173   4.797  40.123  14.922
36354W        W 1174  43.101  29.602  13.841
36355W        W 1175  10.568  15.305   1.702
36356W        W 1176   3.132  17.199  11.821
36357W        W 1177  33.871  32.619  12.341
36358W        W 1178  35.842  12.300   2.079
36359W        W 1179  21.518  12.728  14.674
36360W        W 1180  16.594  25.515  12.529
36361W        W 1181   0.899  17.686  14.706
36362W        W 1182  23.682  14.349   0.387
36363W        W 1183  11.712  40.741  11.623
36364W        W 1184  23.632  37.193   4.677
36365W        W 1185   4.264  29.450  14.069
36366W        W 1186  24.103  30.343  12.716
36367W        W 1187  26.254  33.449   3.846
36368W        W 1188  42.761  24.591  13.885
36369W        W 1189  40.874  32.825  11.271
36370W        W 1190  35.491   2.027   3.813
36371W        W 1191  14.837  29.166  14.935
36372W        W 1192   1.774  39.931  11.298
36373W        W 1193  36.546  22.761   3.125
36374W        W 1194  32.195  38.103   3.093
36375W        W 1195  43.208  22.090  10.704
36376W        W 1196  14.306   3.950  10.754
36377W        W 1197  43.524  11.938   2.759
36378W        W 1198  41.729  14.640   0.698
36379W        W 1199  35.958   4.424   0.501
36380W        W 1200  19.866   7.644  14.098
36381W        W 1201  38.789  38.496   0.079
36382W        W 1202  15.341   1.017   2.422
36383W        W 1203   0.742   4.331  14.381
36384W        W 1204  39.773   2.022  13.104
36385W        W 1205   2.447  38.775  13.296
36386W        W 1206  35.498  23.283  14.944
36387W        W 1207  31.072   3.330   3.785
36388W        W 1208  13.113  21.293   2.354
36389W        W 1209  39.082  14.230   4.219
36390W        W 1210  32.007  19.852   0.153
36391W        W 1211   3.627  14.356  13.963
36392W        W 1212  10.689   8.980   0.392
36393W        W 1213   0.668  21.973  12.333
36394W        W 1214  44.919  16.928  11.452
36395W        W 1215  39.871  33.352   2.256
36396W        W 1216  39.817   2.765  13.012
36397W        W 1217  18.189  12.305   0.051
36398W        W 1218  25.060   9.211   2.364
36399W        W 1219   5.792  17.841  13.035
36400W        W 1220   4.319  15.482   0.470
36401W        W 1221  28.526  21.882   0.296
36402W        W 1222   1.761  34.310   4.118
36403W        W 1223  10.176   5.636   0.401
36404W        W 1224  23.660  37.442  13.010
36405W        W 1225   7.499   8.754  11.031
36406W        W 1226  20.674   9.643  12.062
36407W        W 1227  35.921  37.299   0.961
36408W        W 1228   8.180   5.772   1.116
36409W        W 1229  21.939  34.924   4.106
36410W        W 1230  21.915  26.470   0.914
36411W        W 1231  44.337  24.966  12.403
36412W        W 1232  26.109  43.908  13.999
36413W        W 1233  10.096   1.941   4.674
36414W        W 1234  13.717  10.795   3.920
36415W        W 1235  34.900   6.392   2.341
36416W        W 1236   9.461  37.055   1.234
36417W        W 1237  24.654  27.227   2.052
36418W        W 1238   7.934   1.190   4.951
36419W        W 1239   0.276  38.970   4.389
36420W        W 1240  32.617   2.879   3.662
36421W        W 1241  28.390  32.836   3.953
36422W        W 1242   8.826  31.420   0.294
36423W        W 1243   8.156  40.027  13.052
36424W        W 1244  44.398  44.688   4.920
36425W        W 1245  28.961  19.618  12.832
36426W        W 1246   2.615  38.992   0.844
36427W        W 1247  39.247   7.216   5.053
36428W        W 1248  19.602  40.011   3.602
36429W        W 1249  17.246  19.664  13.446
36430W        W 1250  25.949  12.908   4.225
36431W        W 1251   2.191  24.667  13.800
36432W        W 1252   6.617  23.702   2.844
36433W        W 1253  42.642  12.789   1.151
36434W        W 1254  19.244  10.741  13.314
36435W        W 1255  11.775  31.120   1.848
36436W        W 1256  39.999  44.698   0.370
36437W        W 1257  38.778   0.718  14.771
36438W        W 1258   2.178  19.461  13.865
36439W        W 1259  44.826  28.900  11.666
36440W        W 1260  30.501  15.777   0.118
36441W        W 1261  23.764   5.825   4.247
36442W        W 1262  14.594  10.998   0.024
36443W        W 1263   0.673  20.599  12.013
36444W        W 1264  15.466  29.004  11.494
36445W        W 1265  27.660  33.867  13.997
36446W        W 1266  29.600  34.235  13.832
36447W        W 1267  16.840  27.631   2.331
36448W        W 1268  18.976  43.870   0.408
36449W        W 1269  36.022   1.264   4.269
36450W        W 1270  40.431  39.508  12.493
36451W        W 1271  31.085  27.273   1.488
36452W        W 1272   6.316  26.824  14.695
36453W        W 1273   2.322  25.923   2.801
36454W        W 1274  39.279  14.561  14.894
36455W        W 1275  21.056   2.074   0.766
36456W        W 1276  13.153   1.772   4.555
36457W        W 1277  41.620  25.769  11.394
36458W        W 1278  34.583  41.438  14.002
36459W        W 1279  14.736   9.445   0.030
36460W        W 1280  19.615   3.592   1.687
36461W        W 1281   4.084  33.033   0.186
36462W        W 1282  31.083  23.426   4.206
36463W        W 1283  42.537  31.398  11.220
36464W        W 1284  21.194  25.820   4.151
36465W        W 1285  43.508  16.772   2.857
36466W        W 1286  39.302  36.158   3.071
36467W        W 1287  36.019  23.962   0.319
36468W        W 1288  33.724   2.221  10.968
36469W        W 1289   7.225  23.910   2.878
36470W        W 1290   8.929   5.288   1.193
36471W        W 1291   7.352   6.138   4.680
36472W        W 1292  27.119  33.207  14.904
36473W        W 1293  39.319  13.312   4.043
36474W        W 1294  11.912  37.637  12.505
36475W        W 1295  33.522  39.414  13.352
36476W        W 1296  30.825  26.465   0.408
36477W        W 1297  37.831  26.143   3.305
36478W        W 1298   4.077  43.544  11.239
36479W        W 1299  26.261  40.506   3.474
36480W        W 1300  35.139   2.773   1.254
36481W        W 1301  21.484  18.761   1.940
36482W        W 1302  44.136   0.135   2.659
36483W        W 1303   3.223   5.190  11.470
36484W        W 1304  41.143   1.628  12.371
36485W        W 1305  28.058  38.801  14.984
36486W        W 1306  12.610  19.478   2.239
36487W        W 1307   3.974   0.766   0.450
36488W        W 1308  12.205  30.119   3.064
36489W        W 1309  34.083  29.423   1.328
36490W        W 1310  19.252  42.611  11.028
36491W        W 1311  27.411   8.383  11.067
36492W        W 1312  33.201  17.684   4.379
36493W        W 1313  12.922  24.573   1.642
36494W        W 1314  16.830   2.613  14.854
36495W        W 1315   3.470  14.883  13.579
36496W        W 1316  12.102  35.797   4.319
36497W        W 1317  29.900   9.208   4.664
36498W        W 1318  42.947   4.977  11.547
36499W        W 1319  10.430   1.748  13.418
36500W        W 1320  34.823  18.277  14.532
36501W        W 1321  40.460  13.686   3.180
36502W        W 1322  26.832  38.910  12.898
36503W        W 1323  43.932  14.610   4.354
36504W        W 1324   6.759   5.311   5.052
36505W        W 1325  29.602  11.597  14.454
36506W        W 1326  23.667  13.080   4.303
36507W        W 1327   3.398   2.897  12.464
36508W        W 1328  12.420   2.256  13.998
36509W        W 1329  32.043  27.461  12.661
36510W        W 1330  10.859  21.071   1.894
36511W        W 1331  24.120   3.611  14.054
36512W        W 1332  44.734  27.219  11.126
36513W        W 1333  20.618  35.284  10.637
36514W        W 1334   8.768  35.641   1.395
36515W        W 1335  23.185  19.177  12.407
36516W        W 1336  22.936  38.838   3.743
36517W        W 1337  38.753  12.449  11.012
36518W        W 1338  10.532  23.296   3.454
36519W        W 1339  40.369  13.368  14.007
36520W        W 1340  26.054  10.777   2.715
36521W        W 1341  35.100  37.998  13.787
36522W        W 1342   9.938  40.283  13.446
36523W        W 1343  29.060  34.523   1.320
36524W        W 1344  13.549   3.529  14.237
36525W        W 1345  41.257  15.518  12.381
36526W        W 1346   0.412  39.817   1.919
36527W        W 1347  43.429  26.563   2.481
36528W        W 1348  38.076  20.683  11.515
36529W        W 1349  41.280  35.420  13.811
36530W        W 1350  16.668  36.625  13.097
36531W        W 1351  25.461  24.050  10.384
36532W        W 1352   8.881  24.850   9.881
36533W        W 1353   9.751  35.284   4.092
36534W        W 1354   2.967  38.174  12.504
36535W        W 1355   7.133  43.492   3.761
36536W        W 1356  15.054   9.413  13.933
36537W        W 1357  25.614  36.950  13.792
36538W        W 1358  44.220  35.950  14.803
36539W        W 1359   3.954  25.551   3.632
36540W        W 1360  19.216  31.569  11.900
36541W        W 1361   8.142  40.868  13.578
36542W        W 1362  12.006  29.244   1.145
36543W        W 1363  40.489  12.131   1.342
36544W        W 1364  11.889   6.648   2.675
36545W        W 1365  20.506  22.550   0.993
36546W        W 1366  22.659  44.436   1.376
36547W        W 1367   6.236  14.381   4.271
36548W        W 1368   0.246  21.019  12.608
36549W        W 1369   8.811  41.947  13.047
36550W        W 1370  39.479  13.231   3.545
36551W        W 1371  37.585  18.296  11.545
36552W        W 1372  12.722  39.007  10.256
36553W        W 1373  28.844  32.309   0.782
36554W        W 1374   3.665  27.057  13.814
36555W        W 1375  31.515   4.246   1.257
36556W        W 1376  15.209  44.765  11.932
36557W        W 1377   2.912   4.437  11.204
36558W        W 1378  36.045  11.481   0.395
36559W        W 1379  39.430  32.860   2.877
36560W        W 1380  40.899  25.818  12.837
36561W        W 1381  24.922  42.434  10.491
36562W        W 1382   8.461  12.137   4.221
36563W        W 1383   0.529   4.839  12.030
36564W        W 1384  42.784  26.588  11.615
36565W        W 1385  27.607  39.735  12.798
36566W        W 1386  36.091  38.506  13.288
36567W        W 1387  15.382  22.937  14.717
36568W        W 1388  38.559   0.772   2.958
36569W        W 1389  27.567  37.177   3.116
36570W        W 1390   7.441   8.561  11.496
36571W        W 1391  21.278  11.404   3.231
36572W        W 1392  21.449  19.698   0.736
36573W        W 1393  41.841  34.350  11.876
36574W        W 1394   0.644   8.336  14.449
36575W        W 1395  44.328  28.955   1.587
36576W        W 1396  43.938  15.316  11.952
36577W        W 1397   5.312  32.811   0.733
36578W        W 1398   6.634  32.259   2.001
36579W        W 1399  35.696  16.813   3.564
36580W        W 1400  44.977  44.286  13.505
36581W        W 1401  21.629  13.076  10.715
36582W        W 1402  32.912  32.456  12.970
36583W        W 1403  27.658   2.798  11.577
36584W        W 1404   4.898  37.019   1.462
36585W        W 1405  18.635  32.900  14.884
36586W        W 1406  17.780  41.226   3.226
36587W        W 1407  29.383   6.244  11.636
36588W        W 1408   7.353  39.279  13.939
36589W        W 1409  29.155  38.220  13.781
36590W        W 1410   5.653  25.936  14.807
36591W        W 1411  43.507  39.407  13.914
36592W        W 1412  44.792  38.410  10.346
36593W        W 1413   4.309  29.471   2.250
36594W        W 1414  30.757  34.348  10.243
36595W        W 1415  18.466  33.277  12.070
36596W        W 1416   1.364  21.523  14.349
36597W        W 1417  13.151  44.371  14.229
36598W        W 1418   0.404   2.850   1.198
36599W        W 1419   0.876  44.018   2.796
36600W        W 1420   4.023   9.266  12.588
36601W        W 1421  10.340  36.529   2.101
36602W        W 1422  21.134  15.767   2.806
36603W        W 1423  34.054   5.794   4.531
36604W        W 1424  37.679  19.394  11.161
36605W        W 1425  16.131  14.823  11.379
36606W        W 1426  16.131  25.277  12.144
36607W        W 1427   8.456  11.867   4.667
36608W        W 1428  19.529  25.761  12.537
36609W        W 1429  40.581  28.478  13.726
36610W        W 1430  26.259  33.575   0.306
36611W        W 1431  42.072  40.604  14.749
36612W        W 1432  34.796  43.828  14.890
36613W        W 1433  12.302  19.676   3.608
36614W        W 1434   9.187  10.653   2.293
36615W        W 1435   3.253  13.041  12.038
36616W        W 1436  28.070  27.988  13.064
36617W        W 1437  28.603  43.489   2.760
36618W        W 1438  21.295  14.678   1.739
36619W        W 1439  12.773  24.763   1.175
36620W        W 1440  37.629  21.442  13.871
36621W        W 1441  36.321  43.237  14.370
36622W        W 1442  22.304  23.986  13.103
36623W        W 1443   5.454  38.755  10.081
36624W        W 1444  19.575   8.761  14.358
36625W        W 1445  20.621  42.784  11.896
36626W        W 1446  42.716  23.700  11.583
36627W        W 1447   3.858  24.117  13.399
36628W        W 1448   3.824  23.528   2.814
36629W        W 1449  20.009  35.872  10.734
36630W        W 1450  17.569   3.734  12.087
36631W        W 1451  18.306  19.100  14.827
36632W        W 1452  13.611   3.683   3.240
36633W        W 1453   1.097  11.667   4.665
36634W        W 1454  41.501  35.836   2.456
36635W        W 1455   2.506   2.549   0.425
36636W        W 1456  21.651  16.805  12.862
36637W        W 1457  28.997  26.979  12.063
36638W        W 1458  39.333  20.680  13.947
36639W        W 1459  10.211   3.831  11.238
36640W        W 1460  28.678  36.892  11.677
36641W        W 1461   1.766  39.481  13.938
36642W        W 1462  43.429   1.124  12.683
36643W        W 1463   7.643  11.857   3.172
36644W        W 1464  23.537  20.948  12.672
36645W        W 1465   0.291  11.618   1.707
36646W        W 1466  34.963   7.862   1.339
36647W        W 1467  37.427   5.358  10.769
36648W        W 1468  36.682  21.450   4.328
36649W        W 1469   8.623  11.643  11.688
36650W        W 1470   2.398  24.196  13.906
36651W        W 1471   6.101   4.479  13.443
36652W        W 1472  22.136  19.564   1.203
36653W        W 1473  31.953  30.597  12.376
36654W        W 1474  32.433  28.983  11.912
36655W        W 1475  15.266  37.709   4.661
36656W        W 1476   7.243   7.256  14.343
36657W        W 1477   5.318   0.842  12.357
36658W        W 1478  31.158  11.978   4.082
36659W        W 1479   5.754   1.940   3.172
36660W        W 1480  22.995  26.701   2.257
36661W        W 1481   9.296  41.290   2.861
36662W        W 1482   4.444   5.045  14.320
36663W        W 1483  27.847  44.250  13.486
36664W        W 1484  23.678  11.220  13.551
36665W        W 1485  22.250  30.962  12.009
36666W        W 1486   4.653  23.938   3.948
36667W        W 1487  19.246  20.429   2.650
36668W        W 1488  17.152  44.575  14.430
36669W        W 1489  20.116   9.742   3.101
36670W        W 1490   1.067  44.893   1.778
36671W        W 1491  21.755   4.892  10.821
36672W        W 1492   0.502  38.341   3.671
36673W        W 1493  17.930  28.619  13.902
36674W        W 1494   7.164   3.519  13.427
36675W        W 1495  23.191  34.274   0.354
36676W        W 1496  20.747   5.560   0.782
36677W        W 1497  23.737  14.895  13.054
36678W        W 1498  15.735  40.508   0.796
36679W        W 1499  20.071  28.310   3.362
36680W        W 1500  21.787  11.126   4.469
36681W        W 1501  30.384  36.498  13.724
36682W        W 1502  26.427  18.108   1.162
36683W        W 1503  26.120  25.363  14.517
36684W        W 1504  25.854  21.118   1.666
36685W        W 1505  37.053  19.562   0.010
36686W        W 1506   5.723  16.638   4.937
36687W        W 1507  11.643  26.114   4.913
36688W        W 1508  42.701  21.982  13.566
36689W        W 1509  16.001   3.012  12.843
36690W        W 1510  17.812  33.727   4.632
36691W        W 1511  34.425  37.203  11.049
36692W        W 1512  26.576  30.714   4.111
36693W        W 1513  19.616  18.875  14.327
36694W        W 1514   0.169  12.085  14.144
36695W        W 1515  31.853  33.103  14.498
36696W        W 1516  23.017   5.389  12.105
36697W        W 1517  22.639   4.434  13.866
36698W        W 1518  34.926  27.093  14.396
36699W        W 1519  41.307  19.724  12.863
36700W        W 1520   7.777  23.173  13.825
36701W        W 1521  18.660  18.308  13.819
36702W        W 1522  30.721  10.426   2.508
36703W        W 1523  33.281  37.473   0.827
36704W        W 1524  14.014   9.135  11.208
36705W        W 1525   4.142  10.656   2.331
36706W        W 1526  33.373  13.269   2.747
36707W        W 1527  34.397   9.285   3.723
36708W        W 1528  35.903  29.403  14.458
36709W        W 1529   8.434  37.544   0.975
36710W        W 1530  33.889  28.502  12.886
36711W        W 1531  43.467  22.706  13.023
36712W        W 1532  43.369   0.553   4.478
36713W        W 1533   6.350  37.136   1.192
36714W        W 1534   4.818  42.547   3.115
36715W        W 1535  42.951  36.592   1.822
36716W        W 1536  42.034  41.536  12.030
36717W        W 1537  25.397  27.495   4.067
36718W        W 1538   2.330  40.821  13.287
36719W        W 1539  40.863   3.847  13.132
36720W        W 1540  14.352  23.567   2.539
36721W        W 1541   8.664  39.367  13.509
36722W        W 1542  30.740  37.503   2.163
36723W        W 1543   5.918  25.795   1.294
36724W        W 1544  25.683  29.343   3.684
36725W        W 1545  24.643  19.648   2.215
36726W        W 1546  41.187  28.014  12.027
36727W        W 1547  13.425   4.405   0.793
36728W        W 1548  18.063  43.403  14.828
36729W        W 1549  42.827  39.869   0.723
36730W        W 1550  19.269  33.071   3.944
36731W        W 1551  18.966   8.285  10.825
36732W        W 1552  12.772  44.879  11.489
36733W        W 1553  25.509  14.368   4.287
36734W        W 1554  32.166  13.709  14.239
36735W        W 1555  15.167  20.088   3.399
36736W        W 1556  31.097  14.212   2.076
36737W        W 1557  35.338   1.416   2.975
36738W        W 1558  36.142  39.553  10.721
36739W        W 1559  36.321  40.377   2.815
36740W        W 1560  42.379   8.675  14.830
36741W        W 1561   3.336  42.448   4.134
36742W        W 1562  20.483  17.804   0.386
36743W        W 1563   8.367   5.488   3.634
36744W        W 1564   0.340  22.988   0.954
36745W        W 1565   5.653  12.514   2.370
36746W        W 1566  13.143  12.967   2.542
36747W        W 1567  43.729  13.671   4.667
36748W        W 1568   9.236   2.869   2.350
36749W        W 1569  12.958  30.030   3.681
36750W        W 1570  31.392  18.286   1.761
36751W        W 1571  40.752  26.023  12.385
36752W        W 1572  13.809  29.708  13.184
36753W        W 1573  21.027  26.145   1.451
36754W        W 1574   3.189   0.679  14.862
36755W        W 1575  18.770  40.234   9.808
36756W        W 1576  40.022  27.162   1.329
36757W        W 1577  35.013  12.432  13.025
36758W        W 1578  33.663  44.500   0.267
36759W        W 1579  11.062   3.145  14.315
36760W        W 1580   8.173  25.361  12.928
36761W        W 1581  27.473  41.499  13.465
36762W        W 1582  19.338  29.959  11.886
36763W        W 1583  17.209   9.217  13.750
36764W        W 1584   4.729  43.426  13.310
36765W        W 1585  13.849  13.291  14.915
36766W        W 1586   0.093   9.078   4.796
36767W        W 1587  19.169  18.085  13.816
36768W        W 1588  37.978   8.916  13.145
36769W        W 1589   2.788  33.448   2.920
36770W        W 1590   2.963  44.486   2.780
36771W        W 1591  36.062  43.412   3.727
36772W        W 1592  39.093  44.146   4.824
36773W        W 1593  16.269  11.570   0.518
36774W        W 1594  34.084  31.002   1.833
36775W        W 1595  33.547  33.621  14.450
36776W        W 1596  22.226  39.913  11.078
36777W        W 1597   0.306   6.596   3.558
36778W        W 1598  27.714  33.371  12.725
36779W        W 1599  38.600   8.832   2.819
36780W        W 1600  15.334   0.930  12.943
36781W        W 1601   1.548   8.915  14.640
36782W        W 1602   9.065  24.000  12.996
36783W        W 1603   2.195  26.031  11.601
36784W        W 1604  40.959  36.258  10.945
36785W        W 1605  29.492  22.320  13.411
36786W        W 1606  39.347  29.083  11.350
36787W        W 1607  41.991   9.257   4.705
36788W        W 1608  11.504   4.957  13.824
36789W        W 1609  20.702  27.960   2.807
36790W        W 1610  42.602  26.543   1.189
36791W        W 1611   2.524   6.269   1.740
36792W        W 1612  16.816   0.756  14.596
36793W        W 1613  23.695  31.459   4.888
36794W        W 1614  43.654  40.922   4.447
36795W        W 1615  25.470  15.165  13.790
36796W        W 1616  28.421  28.446  13.817
36797W        W 1617   5.387  36.107   0.526
36798W        W 1618  32.020  16.569   2.000
36799W        W 1619  13.261  11.436   2.789
36800W        W 1620  27.536  23.010  11.742
36801W        W 1621  25.987  33.178   2.327
36802W        W 1622  18.247   1.484  12.269
36803W        W 1623  16.231  40.756  13.493
36804W        W 1624  14.300  18.174   4.460
36805W        W 1625   3.498  35.167  13.386
36806W        W 1626  37.802  42.614  11.104
36807W        W 1627  35.263  23.397  12.448
36808W        W 1628  32.005  40.910   2.671
36809W        W 1629  19.217  21.547  13.061
36810W        W 1630  11.227  26.427   3.155
36811W        W 1631  31.861  28.393  14.368
36812W        W 1632   4.443  39.603   3.963
36813W        W 1633  44.019  22.064  11.938
36814W        W 1634  16.263  17.157  11.141
36815W        W 1635   7.375   7.410   3.136
36816W        W 1636  29.422  17.247   1.762
36817W        W 1637   4.207  36.457  12.550
36818W        W 1638  34.438  28.640   3.675
36819W        W 1639  21.000  10.034  14.061
36820W        W 1640  16.812  26.628   3.245
36821W        W 1641  15.253  25.112   5.160
36822W        W 1642  28.038   8.095   2.364
36823W        W 1643  13.336  26.040  11.473
36824W        W 1644  36.963  38.912  12.107
36825W        W 1645  33.153   1.654   2.839
36826W        W 1646  13.286  27.572   2.997
36827W        W 1647  19.626  16.742   0.940
36828W        W 1648  40.475  35.917  10.331
36829W        W 1649  14.226  16.103   0.961
36830W        W 1650   7.705  13.435   2.761
36831W        W 1651  26.702  39.387   0.015
36832W        W 1652   8.150  29.104   0.819
36833W        W 1653  25.305  18.375  12.064
36834W        W 1654  37.609  25.653  13.311
36835W        W 1655   6.202  31.003  14.697
36836W        W 1656  41.580  37.722   1.572
36837W        W 1657   5.006  10.625   2.884
36838W        W 1658  31.590   2.410   4.966
36839W        W 1659  23.308  17.153  12.471
36840W        W 1660  26.402  23.841  11.947
36841W        W 1661  43.740  36.996   1.783
36842W        W 1662   4.352  22.384  11.035
36843W        W 1663  15.841  25.717  12.020
36844W        W 1664  33.951   6.282   4.951
36845W        W 1665   2.111  22.950  13.906
36846W        W 1666  41.209  21.963   3.100
36847W        W 1667  16.249  33.554   4.701
36848W        W 1668  40.385  12.272   3.159
36849W        W 1669  23.169  13.255   3.467
36850W        W 1670  22.078  30.350   4.562
36851W        W 1671  35.058  33.115   0.548
36852W        W 1672  34.061  14.119   2.338
36853W        W 1673  20.638  11.746  11.350
36854W        W 1674   5.935  22.165  14.436
36855W        W 1675  32.072  28.878  14.429
36856W        W 1676   9.197  18.942   2.744
36857W        W 1677  24.194  10.751  13.957
36858W        W 1678  28.008  31.583  14.332
36859W        W 1679  15.884  22.979  14.412
36860W        W 1680   6.590  19.830  12.016
36861W        W 1681  28.087  13.940   3.110
36862W        W 1682  27.268   1.826   3.783
36863W        W 1683  19.777  22.612  11.929
36864W        W 1684  12.638   5.360  14.499
36865W        W 1685  13.913   3.176   1.363
36866W        W 1686  18.013   3.415  12.090
36867W        W 1687  34.423  14.547  10.160
36868W        W 1688  41.907  25.275   3.851
36869W        W 1689   3.633  19.105  12.498
36870W        W 1690   3.708  13.953  14.834
36871W        W 1691   3.954   6.079   0.429
36872W        W 1692  41.757   6.904   4.580
36873W        W 1693   6.382  13.626   0.979
36874W        W 1694  14.838   6.924   2.343
36875W        W 1695  23.642  40.264   4.015
36876W        W 1696  39.686  37.653  11.586
36877W        W 1697   3.205  11.713  10.778
36878W        W 1698   9.268   3.430   3.430
36879W        W 1699  28.391  17.044  13.083
36880W        W 1700   8.347  39.088  14.245
36881W        W 1701   3.394   8.397  13.907
36882W        W 1702  44.986  35.510  13.128
36883W        W 1703  16.624  32.023  13.058
36884W        W 1704  43.052  22.230  12.531
36885W        W 1705   6.664  39.814   1.850
36886W        W 1706  19.373   3.011   3.899
36887W        W 1707   6.428  37.446  10.817
36888W        W 1708  44.725  40.376   0.355
36889W        W 1709   4.902   7.370   2.394
36890W        W 1710  37.951   9.587  11.257
36891W        W 1711  16.639  38.463  13.271
36892W        W 1712  43.976  34.884   1.497
36893W        W 1713  17.157  38.370  13.314
36894W        W 1714  39.573  15.621   2.363
36895W        W 1715   4.476   0.111  13.867
36896W        W 1716   9.338   3.686  10.649
36897W        W 1717  30.616   5.445  12.070
36898W        W 1718  18.146   3.210   2.322
36899W        W 1719  15.317  25.137  14.393
36900W        W 1720  42.486  21.729  10.759
36901W        W 1721  20.460  34.539   2.425
36902W        W 1722  38.715  31.173  11.505
36903W        W 1723  10.455  20.266   3.214
36904W        W 1724  23.169  41.474   3.630
36905W        W 1725  13.664  43.900   3.667
36906W        W 1726  44.882  43.375  11.930
36907W        W 1727  17.752  38.170   4.537
36908W        W 1728   3.388  40.009  11.137
36909W        W 1729  11.145  30.679   3.257
36910W        W 1730  40.057  32.361   0.265
36911W        W 1731  15.196  43.240  13.309
36912W        W 1732  35.458   8.714   1.649
36913W        W 1733  18.452  17.101   1.749
36914W        W 1734  44.789  25.999  14.477
36915W        W 1735  13.850   1.343  14.910
36916W        W 1736  25.291   6.097  14.907
36917W        W 1737  42.736  44.439  11.736
36918W        W 1738  43.697  17.049   3.703
36919W        W 1739  44.204  37.584   4.633
36920W        W 1740   4.211  21.430  12.071
36921W        W 1741  15.822  29.152  14.638
36922W        W 1742  29.422  36.014   0.275
36923W        W 1743  31.032  34.065   1.367
36924W        W 1744  32.180  15.728  13.907
36925W        W 1745  14.743  18.608   4.128
36926W        W 1746   6.998  37.502   0.566
36927W        W 1747   6.686  15.799  14.256
36928W        W 1748   8.531  21.464   0.904
36929W        W 1749   9.774  38.397  11.632
36930W        W 1750  15.139  16.114  12.080
36931W        W 1751  42.530  20.648  10.691
36932W        W 1752  26.104  20.675  11.913
36933W        W 1753  25.956  27.915   0.865
36934W        W 1754  35.296   9.910   9.805
36935W        W 1755  20.463  33.581  13.618
36936W        W 1756  11.770  21.269   2.621
36937W        W 1757   8.942   0.902   2.518
36938W        W 1758  42.530  23.701   3.811
36939W        W 1759   7.622  13.630  11.552
36940W        W 1760  18.545  38.541   0.804
36941W        W 1761  42.480  36.299   1.019
36942W        W 1762  10.839  24.969   3.648
36943W        W 1763  42.785  11.248   2.808
36944W        W 1764  26.737  34.245   4.039
36945W        W 1765  25.053  32.551   4.563
36946W        W 1766  10.747  42.726  11.544
36947W        W 1767  36.298  25.984   3.219
36948W        W 1768  13.312   6.763  12.111
36949W        W 1769  16.672   1.435  14.051
36950W        W 1770  20.614  37.230  11.122
36951W        W 1771  32.104  14.631  13.727
36952W        W 1772   2.651  33.259  14.063
36953W        W 1773  40.969  33.357   1.623
36954W        W 1774  18.590  15.861  10.749
36955W        W 1775  39.471  27.164   2.230
36956W        W 1776  33.064  34.312  12.486
36957W        W 1777  26.130   9.603  10.474
36958W        W 1778  37.119  25.812   2.404
36959W        W 1779   2.675  31.134  13.569
36960W        W 1780  33.483  33.394   5.126
36961W        W 1781  14.594  17.277   1.752
36962W        W 1782  40.340  26.299   1.309
36963W        W 1783  17.741  28.014  11.647
36964W        W 1784  22.543  31.371  14.554
36965W        W 1785  39.544   2.441   2.133
36966W        W 1786  40.550  12.889  12.389
36967W        W 1787  20.704  42.622  10.942
36968W        W 1788  21.149   7.615  11.758
36969W        W 1789  37.459   3.495   4.468
36970W        W 1790  31.865  21.058   2.320
36971W        W 1791  39.454   0.298   3.374
36972W        W 1792   1.232  19.148  14.208
36973W        W 1793  40.967  44.949   2.902
36974W        W 1794  34.878  15.181  11.890
36975W        W 1795  17.629  33.031   3.560
36976W        W 1796  22.056   2.139   4.834
36977W        W 1797  26.146  24.416   4.951
36978W        W 1798  21.273  31.671   2.834
36979W        W 1799  35.823  14.149  11.015
36980W        W 1800  38.063  21.920  14.606
36981W        W 1801  44.237   9.741   1.820
36982W        W 1802   9.233  36.020   1.945
36983W        W 1803   8.024  15.329   0.195
36984W        W 1804  15.579  41.280  10.636
36985W        W 1805  29.273   8.317  12.020
36986W        W 1806  34.061  19.600  14.587
36987W        W 1807  15.645  43.885  11.554
36988W        W 1808  30.833  23.647   5.383
36989W        W 1809  24.000  43.800   3.647
36990W        W 1810  17.699   7.563  11.625
36991W        W 1811   8.638  10.856  11.298
36992W        W 1812  10.886  20.497  14.921
36993W        W 1813  35.019  42.758  13.496
36994W        W 1814   1.493  32.609   3.244
36995W        W 1815   1.950  22.152  10.839
36996W        W 1816  20.863  26.960   1.371
36997W        W 1817  36.356  43.523   2.429
36998W        W 1818  34.578  44.912  11.107
36999W        W 1819  26.121  27.920  11.584
37000W        W 1820   1.376  16.628   3.812
37001W        W 1821  28.942  44.070  10.966
37002W        W 1822  30.111   8.989  12.034
37003W        W 1823  34.102  36.316   1.399
37004W        W 1824  19.592   7.863  12.527
37005W        W 1825  38.410  26.945   2.850
37006W        W 1826  34.519   2.186  13.955
37007W        W 1827   0.205   8.927   4.104
37008W        W 1828   8.031  25.687   2.266
37009W        W 1829  17.551  43.255  11.920
37010W        W 1830  13.168  15.289  12.929
37011W        W 1831  36.025  10.532   0.352
37012W        W 1832  44.733  16.605  12.046
37013W        W 1833  31.106  38.420  12.047
37014W        W 1834  38.783  27.536   0.363
37015W        W 1835  36.853  34.702  12.793
37016W        W 1836  15.807  29.684   0.923
37017W        W 1837   4.954   5.514   3.644
37018W        W 1838  32.247   0.714  11.575
37019W        W 1839  20.688   4.723   0.312
37020W        W 1840  33.823  18.171  14.298
37021W        W 1841  35.637  41.899   4.157
37022W        W 1842  32.735   0.216   2.402
37023W        W 1843  16.409  34.341  12.841
37024W        W 1844  13.257   3.888   0.193
37025W        W 1845   8.316  27.936   0.228
37026W        W 1846  33.104  41.519   0.980
37027W        W 1847  10.411  26.550   3.666
37028W        W 1848   7.052  11.291   0.927
37029W        W 1849  11.595  25.613   2.316
37030W        W 1850  42.534   6.096   1.194
37031W        W 1851  18.008  38.957   1.373
37032W        W 1852  16.083   3.979   1.228
37033W        W 1853  22.990  40.998   0.207
37034W        W 1854  32.049  15.733   0.336
37035W        W 1855  39.039  17.290   3.727
37036W        W 1856  28.607   2.417   3.103
37037W        W 1857  29.468   3.987   3.089
37038W        W 1858  10.313  30.616   4.064
37039W        W 1859   5.923   8.831  12.661
37040W        W 1860  28.671  12.798   0.929
37041W        W 1861  25.716   6.433  12.826
37042W        W 1862  18.537  35.531  14.436
37043W        W 1863  34.266   6.865  11.004
37044W        W 1864  23.750   5.736   3.321
37045W        W 1865  16.819  31.051   1.718
37046W        W 1866  25.589  29.685   0.736
37047W        W 1867   7.149   2.271  13.433
37048W        W 1868  15.608  18.750   4.801
37049W        W 1869  30.468  29.703  13.741
37050W        W 1870   3.275  31.764  14.257
37051W        W 1871  27.488  25.295   3.190
37052W        W 1872  20.036  36.938   0.151
37053W        W 1873  17.075  40.803  10.396
37054W        W 1874  38.608  25.119  10.764
37055W        W 1875  19.519  43.453  10.943
37056W        W 1876  21.378  42.570  11.161
37057W        W 1877   4.709   8.893   2.305
37058W        W 1878  17.251  24.263  12.511
37059W        W 1879  44.500  18.294  12.011
37060W        W 1880   4.201   6.703   3.163
37061W        W 1881  41.993  19.182  12.569
37062W        W 1882  10.868  30.010   3.658
37063W        W 1883  43.899  26.996   0.221
37064W        W 1884  16.766  11.889  13.871
37065W        W 1885   3.318  33.870   2.342
37066W        W 1886   0.446   2.932  14.303
37067W        W 1887  22.062   3.946   2.840
37068W        W 1888   6.998  26.696   5.644
37069W        W 1889  32.175  20.007  10.154
37070W        W 1890  20.041  40.805  14.365
37071W        W 1891  26.119  20.330  13.604
37072W        W 1892  17.691  27.685  11.075
37073W        W 1893  23.808   4.752   0.831
37074W        W 1894  27.333  27.847  13.539
37075W        W 1895  41.044   5.940   0.347
37076W        W 1896  11.849  25.442  12.956
37077W        W 1897  40.609  14.155   0.329
37078W        W 1898  33.372  22.032   2.265
37079W        W 1899  16.538  26.623  14.271
37080W        W 1900  18.064  35.406   3.608
37081W        W 1901  15.159  17.526   4.525
37082W        W 1902  19.861  38.644   0.471
37083W        W 1903  26.387  33.379  13.751
37084W        W 1904  42.971  44.404  12.206
37085W        W 1905  14.247  23.721   4.466
37086W        W 1906  12.606  11.548  12.615
37087W        W 1907  11.560  27.253  13.335
37088W        W 1908  13.949  22.069   0.023
37089W        W 1909  26.917  26.212   2.249
37090W        W 1910  33.841  34.308   1.844
37091W        W 1911   7.542  42.732   4.666
37092W        W 1912  24.871   6.211  12.840
37093W        W 1913  10.617  23.915  13.056
37094W        W 1914  38.648  21.829   0.297
37095W        W 1915  25.158   4.599  12.852
37096W        W 1916  26.005   4.964   1.309
37097W        W 1917  28.413  27.512  13.304
37098W        W 1918  44.072   2.804  10.974
37099W        W 1919   6.382  12.334   3.181
37100W        W 1920  21.487  27.344   3.732
37101W        W 1921  37.718  15.250  10.702
37102W        W 1922  34.682   7.382  13.494
37103W        W 1923  19.602  19.587   4.878
37104W        W 1924  32.049  38.532  13.887
37105W        W 1925   9.345  38.321   0.745
37106W        W 1926  33.685  41.927   2.121
37107W        W 1927  30.968  18.574   1.828
37108W        W 1928  21.359  39.840   1.452
37109W        W 1929   4.145  40.254   2.459
37110W        W 1930  38.984  28.422  11.183
37111W        W 1931  33.120   3.510  11.353
37112W        W 1932  10.308  37.896  11.928
37113W        W 1933  10.884  27.990  11.549
37114W        W 1934  17.850   2.831   4.210
37115W        W 1935  18.205  13.124  11.222
37116W        W 1936   3.946  40.365  10.793
37117W        W 1937  33.980  42.232   0.409
37118W        W 1938  38.317   6.908  11.111
37119W        W 1939  17.863  26.278   0.845
37120W        W 1940  42.789  38.183   4.995
37121W        W 1941  37.082  34.564   3.968
37122W        W 1942   9.742  28.455   3.630
37123W        W 1943  40.286   9.309   3.311
37124W        W 1944  16.472  34.895  10.019
37125W        W 1945  31.680  13.748  14.437
37126W        W 1946  11.929  41.728  11.563
37127W        W 1947  36.581  42.206  14.035
37128W        W 1948  29.066  44.915   4.175
37129W        W 1949  43.814  25.718   3.939
37130W        W 1950  44.801   4.444   1.254
37131W        W 1951   6.654  12.405  10.448
37132W        W 1952  11.313   4.650  12.447
37133W        W 1953  43.037  30.856   4.534
37134W        W 1954  37.497  42.081   4.553
37135W        W 1955  12.303  11.812   2.770
37136W        W 1956   5.777  43.560   3.093
37137W        W 1957  42.005  38.566  10.753
37138W        W 1958  32.526  41.546  14.527
37139W        W 1959   7.882  14.457   2.553
37140W        W 1960  37.815  23.476  10.237
37141W        W 1961  22.629  42.900  10.757
37142W        W 1962  36.830  23.996  13.531
37143W        W 1963   2.532  40.025   4.507
37144W        W 1964  36.842   9.628   1.673
37145W        W 1965  24.563  12.807  14.325
37146W        W 1966   3.950  29.645   0.476
37147W        W 1967  42.818  34.865   4.868
37148W        W 1968  36.850  16.339  11.910
37149W        W 1969  24.187  22.530   3.982
37150W        W 1970  44.965  42.825   2.937
37151W        W 1971  14.458  32.928   0.510
37152W        W 1972   9.720  14.644  14.818
37153W        W 1973   3.290  44.813  14.449
37154W        W 1974   7.013  18.892  12.055
37155W        W 1975  19.643   6.499   1.949
37156W        W 1976  30.976  13.692   1.807
37157W        W 1977  29.400  37.455   2.417
37158W        W 1978  43.987  15.218   1.550
37159W        W 1979  17.492  14.206   4.191
37160W        W 1980  19.534  28.928   2.018
37161W        W 1981  37.367  41.015   1.333
37162W        W 1982  30.461   4.229   4.760
37163W        W 1983  16.099  39.015   2.225
37164W        W 1984  41.450  19.684   3.125
37165W        W 1985  37.586  29.417   4.555
37166W        W 1986  25.736  39.710   0.962
37167W        W 1987  16.172  24.010  11.549
37168W        W 1988  26.198   6.704   2.302
37169W        W 1989  40.961  41.742  12.669
37170W        W 1990   7.480  38.458   3.072
37171W        W 1991  41.764  12.636   1.058
37172W        W 1992  20.518  31.027  10.445
37173W        W 1993  30.212   6.504  12.712
37174W        W 1994   9.163  41.947   4.523
37175W        W 1995   3.442  43.457   1.020
37176W        W 1996  29.186  12.644   0.923
37177W        W 1997  15.493  37.344   1.432
37178W        W 1998  11.259  13.127  14.127
37179W        W 1999  24.108  24.130  10.786
37180W        W 2000  36.359  39.361   0.796
37181W        W 2001  15.090  16.786   1.216
37182W        W 2002   2.220   0.280   4.106
37183W        W 2003  15.221   4.008  11.844
37184W        W 2004  14.136  43.831   4.164
37185W        W 2005  41.261  17.625  14.788
37186W        W 2006  26.028   8.205   4.284
37187W        W 2007  31.066  38.833   0.285
37188W        W 2008  28.663  41.119   4.901
37189W        W 2009  40.762  35.063   4.261
37190W        W 2010  17.453  13.785   0.584
37191W        W 2011  23.962   0.288   3.167
37192W        W 2012  42.716  32.426   0.946
37193W        W 2013  21.521  30.381   4.659
37194W        W 2014   5.098  19.545   2.219
37195W        W 2015  34.845  27.484   2.574
37196W        W 2016  22.986   2.703  13.987
37197W        W 2017   6.177   7.900  12.942
37198W        W 2018  16.007   3.138  13.866
37199W        W 2019  41.873  21.530  13.633
37200W        W 2020  33.931   1.154  11.274
37201W        W 2021  23.706  13.530  11.678
37202W        W 2022   8.903  22.241   4.612
37203W        W 2023   6.190  31.008  13.301
37204W        W 2024  27.483   2.329  14.960
37205W        W 2025  19.235  30.710  12.987
37206W        W 2026   2.379   4.695   2.855
37207W        W 2027   1.082  35.914  13.897
37208W        W 2028  28.856   0.508   0.182
37209W        W 2029   9.631  32.873  11.094
37210W        W 2030   3.200   6.625   4.153
37211W        W 2031  40.787  18.002  14.332
37212W        W 2032   6.523  43.725  13.425
37213W        W 2033  19.369  10.336   1.413
37214W        W 2034  33.629  20.137   1.903
37215W        W 2035  10.880  20.305  13.561
37216W        W 2036  25.621  20.206   5.113
37217W        W 2037   5.890  33.160   0.383
37218W        W 2038  19.401  44.548   0.667
37219W        W 2039   5.505  42.851  13.257
37220W        W 2040  40.403  18.766   1.569
37221W        W 2041  24.977  23.361  12.345
37222W        W 2042   6.181  34.028  10.983
37223W        W 2043  37.510   6.020   2.834
37224W        W 2044  36.117  27.922   5.067
37225W        W 2045  31.353  13.641   1.422
37226W        W 2046   1.525  36.545  11.120
37227W        W 2047  10.817  34.422  13.997
37228W        W 2048  41.115  36.516   0.438
37229W        W 2049  12.037   4.603   1.894
37230W        W 2050  44.418  42.454   4.052
37231W        W 2051  12.096  34.158   0.819
37232W        W 2052  40.891  42.769  14.816
37233W        W 2053  10.673   7.491  12.520
37234W        W 2054  17.717  32.894  12.997
37235W        W 2055   1.242  44.981  13.321
37236W        W 2056  10.666   2.396  10.718
37237W        W 2057  44.988  27.360  13.958
37238W        W 2058  32.599  20.994  12.654
37239W        W 2059  20.218   6.295  12.039
37240W        W 2060  18.492  41.632   2.186
37241W        W 2061  36.464  43.952   2.167
37242W        W 2062  25.971   5.382   0.154
37243W        W 2063  44.843  25.753  11.418
37244W        W 2064  32.392  31.419   4.313
37245W        W 2065   1.219  14.392  13.050
37246W        W 2066  22.049  36.083   2.398
37247W        W 2067  26.076  17.157   0.939
37248W        W 2068   3.485  39.720  13.924
37249W        W 2069  35.268  14.849  14.398
37250W        W 2070   5.263  24.583   1.228
37251W        W 2071  34.577   1.250   0.317
37252W        W 2072  31.667  44.934   2.813
37253W        W 2073   8.256  18.462  12.750
37254W        W 2074  18.198  38.584  12.447
37255W        W 2075  30.371  23.113   2.286
37256W        W 2076  32.532   8.389  12.142
37257W        W 2077  31.414  27.100   3.035
37258W        W 2078  16.995  18.815  14.463
37259W        W 2079  44.326  28.893  13.358
37260W        W 2080  34.185   6.439   0.443
37261W        W 2081  37.054  42.075   0.985
37262W        W 2082  28.698  19.797   4.396
37263W        W 2083  21.127  12.621   1.910
37264W        W 2084  13.804  42.406   2.568
37265W        W 2085  44.909   8.678  11.231
37266W        W 2086  34.682   6.326  12.939
37267W        W 2087  38.370  39.678   1.349
37268W        W 2088  40.293  31.893   0.208
37269W        W 2089   8.750  33.120  12.214
37270W        W 2090  33.458   2.205  12.439
37271W        W 2091  25.759  31.939   1.197
37272W        W 2092  28.890  21.111  11.588
37273W        W 2093  22.627  37.262  11.412
37274W        W 2094  18.815  22.761  14.888
37275W        W 2095  18.141  26.764  14.421
37276W        W 2096  36.543  13.340   2.084
37277W        W 2097  11.044  44.105   1.601
37278W        W 2098  18.795  13.940   1.354
37279W        W 2099   3.799  33.110   2.214
37280W        W 2100   3.421  39.364  14.767
37281W        W 2101  36.940  14.819   4.514
37282W        W 2102  40.847  20.678   0.925
37283W        W 2103  31.378  35.983  12.556
37284W        W 2104   9.294  28.795   3.162
37285W        W 2105  28.417  17.652   2.954
37286W        W 2106   5.034  20.571   4.110
37287W        W 2107  17.623  22.183  13.839
37288W        W 2108   0.970  21.220   3.188
37289W        W 2109  38.100   0.042  11.926
37290W        W 2110  17.263  10.553  10.123
37291W        W 2111  29.151   2.773  14.888
37292W        W 2112  11.733   5.934   0.973
37293W        W 2113  32.928  27.170  12.918
37294W        W 2114  12.639  25.497  13.955
37295W        W 2115  17.725  38.934   3.245
37296W        W 2116   0.693  13.424   3.638
37297W        W 2117   8.232  28.514  12.893
37298W        W 2118   7.868   5.058  10.882
37299W        W 2119  27.978  31.512   2.282
37300W        W 2120  37.380   1.026   4.025
37301W        W 2121  43.242  10.343  12.436
37302W        W 2122  39.235  40.045   4.640
37303W        W 2123   9.310   7.465  10.415
37304W        W 2124  37.741  27.540   0.398
37305W        W 2125  31.878  12.375   3.211
37306W        W 2126   2.179  18.599   4.613
37307W        W 2127  23.533  28.725  14.495
37308W        W 2128  41.263  17.325  11.483
37309W        W 2129   2.366   7.502   1.430
37310W        W 2130  17.761   4.852   3.820
37311W        W 2131  37.531   7.171  13.466
37312W        W 2132  17.855   7.889  13.098
37313W        W 2133  44.682  10.039  12.665
37314W        W 2134   2.625  35.259  14.768
37315W        W 2135  13.378  12.686  10.612
37316W        W 2136   3.969   3.203  11.485
37317W        W 2137  30.430  20.250   2.282
37318W        W 2138  42.557   2.217  13.705
37319W        W 2139  27.576  19.717  13.249
37320W        W 2140   9.310   4.535   1.804
37321W        W 2141  36.184  20.125  13.351
37322W        W 2142  24.544  44.045   4.750
37323W        W 2143  16.009  13.608   1.219
37324W        W 2144  10.826  29.046   3.228
37325W        W 2145  17.664   4.091   2.453
37326W        W 2146  34.683  16.532  10.196
37327W        W 2147  19.696  18.229  13.851
37328W        W 2148  16.432   0.079   1.254
37329W        W 2149  15.866  31.327  14.590
37330W        W 2150  16.930  13.138  11.509
37331W        W 2151  42.248   5.215  14.962
37332W        W 2152  30.726   8.828   4.587
37333W        W 2153  41.408  36.901   1.784
37334W        W 2154  29.232  10.169   0.845
37335W        W 2155  43.749  16.844   2.413
37336W        W 2156   2.809  14.230  12.641
37337W        W 2157  39.168  21.396   2.394
37338W        W 2158  38.169  28.126  12.599
37339W        W 2159  12.891  35.301   2.765
37340W        W 2160   0.844  14.052  12.960
37341W        W 2161  18.654   1.391   2.172
37342W        W 2162  38.426  16.630  14.721
37343W        W 2163  36.859  23.432   4.991
37344W        W 2164  44.690  31.787   3.152
37345W        W 2165  31.936  12.841  13.869
37346W        W 2166   4.787   7.808   3.281
37347W        W 2167  39.262  13.799  14.479
37348W        W 2168  26.043   1.241  11.555
37349W        W 2169   4.645  36.011  13.452
37350W        W 2170  16.259  16.575   0.370
37351W        W 2171  38.097   1.814   2.844
37352W        W 2172  44.253  38.954   1.805
37353W        W 2173  44.929  42.780   0.354
37354W        W 2174  21.002   8.617  13.298
37355W        W 2175  22.036  11.773   1.768
37356W        W 2176  24.501   3.949  13.987
37357W        W 2177  12.339  14.347   0.919
37358W        W 2178  15.613  14.384  10.716
37359W        W 2179  36.669  14.349  14.409
37360W        W 2180  15.892  23.248  11.836
37361W        W 2181   2.603  26.035   1.004
37362W        W 2182  38.836   2.224  14.949
37363W        W 2183  21.457  33.014  12.398
37364W        W 2184  23.544   1.897   2.398
37365W        W 2185  44.243  11.904  11.354
37366W        W 2186   6.281  44.068  11.573
37367W        W 2187  24.034  24.636  13.823
37368W        W 2188  42.374  23.204   3.932
37369W        W 2189  35.534  24.982  14.520
37370W        W 2190  23.636   7.464   0.474
37371W        W 2191  15.447  15.598   2.360
37372W        W 2192   3.047   9.805  12.999
37373W        W 2193  22.084   1.387   3.387
37374W        W 2194  39.016   1.964  11.027
37375W        W 2195   6.267  42.042   2.330
37376W        W 2196  14.652  13.176   4.932
37377W        W 2197  19.562   8.672  12.882
37378W        W 2198  41.434  31.294   3.870
37379W        W 2199  10.475   0.916  12.032
37380W        W 2200  19.125  16.182  11.418
37381W        W 2201  17.512  26.238  12.040
37382W        W 2202  32.535   3.231   2.304
37383W        W 2203  10.344  15.131   1.268
37384W        W 2204  20.570  31.652  12.649
37385W        W 2205  38.002  31.930  10.582
37386W        W 2206  13.745  26.037  14.385
37387W        W 2207  24.093   0.306   4.496
37388W        W 2208  26.378   2.891   2.363
37389W        W 2209   9.409  43.516  11.321
37390W        W 2210  43.486  10.922  12.981
37391W        W 2211   5.615  16.687  14.412
37392W        W 2212  18.303  16.133  13.018
37393W        W 2213  35.675  30.219   2.859
37394W        W 2214  33.960   6.170   2.782
37395W        W 2215   4.255  27.782   2.803
37396W        W 2216   8.790  14.145   3.126
37397W        W 2217  10.635  27.122  12.565
37398W        W 2218  30.989   0.457   0.808
37399W        W 2219   6.930  38.198  14.567
37400W        W 2220  14.001  43.201  12.970
37401W        W 2221   6.013  16.002   0.741
37402W        W 2222   3.499  29.992  13.942
37403W        W 2223  44.480   8.332  13.326
37404W        W 2224  12.958  15.088  12.045
37405W        W 2225   7.308  41.876   4.407
37406W        W 2226   0.626  22.313   2.643
37407W        W 2227   9.696   0.201   1.305
37408W        W 2228  12.158  43.978  12.175
37409W        W 2229  10.379  36.574   0.249
37410W        W 2230  19.714  36.393  13.054
37411W        W 2231  39.412  35.433   0.044
37412W        W 2232   8.881   5.390  12.898
37413W        W 2233  10.680  10.568  14.343
37414W        W 2234  30.948  15.308   1.402
37415W        W 2235  37.452  18.784  13.802
37416W        W 2236  35.863  16.575   0.426
37417W        W 2237  39.456  39.452  11.199
37418W        W 2238  15.520  39.447   0.920
37419W        W 2239  33.192  41.854   2.191
37420W        W 2240   9.873  41.797   4.635
37421W        W 2241  13.380  35.433  12.071
37422W        W 2242  12.824  25.601   2.841
37423W        W 2243  23.269  20.749   0.546
37424W        W 2244  30.165  14.176  11.090
37425W        W 2245  39.244  26.190   1.890
37426W        W 2246  19.095  39.882   3.778
37427W        W 2247   2.531  38.558  11.995
37428W        W 2248  42.635  19.532   1.716
37429W        W 2249   6.384   4.066  12.981
37430W        W 2250  14.751  32.915  10.654
37431W        W 2251   5.618  17.156   2.707
37432W        W 2252  33.967   9.777   4.369
37433W        W 2253  31.639   0.986   4.115
37434W        W 2254  16.194  17.721   1.954
37435W        W 2255  15.332   0.521   1.314
37436W        W 2256  33.553  37.920   0.672
37437W        W 2257  15.605  32.537   4.191
37438W        W 2258  19.512  26.256  11.065
37439W        W 2259  31.288   8.742   4.619
37440W        W 2260  10.706  37.037  10.806
37441W        W 2261  41.608  28.066   1.872
37442W        W 2262  28.921  30.500   1.396
37443W        W 2263  12.784  18.191   2.857
37444W        W 2264  37.494   5.765  10.060
37445W        W 2265   6.798  26.453   3.336
37446W        W 2266  11.131   4.968   2.756
37447W        W 2267  23.544  26.173   0.189
37448W        W 2268  30.325  22.164   4.509
37449W        W 2269   6.906   4.404  10.436
37450W        W 2270  40.902  38.335   2.778
37451W        W 2271  19.107  15.544   3.296
37452W        W 2272  39.486  25.562  12.825
37453W        W 2273   3.126  41.748  14.768
37454W        W 2274  31.635  42.365   2.622
37455W        W 2275  44.127  11.501  12.118
37456W        W 2276   4.098  10.878  14.467
37457W        W 2277   0.003  41.750  13.577
37458W        W 2278  31.890   2.814  12.869
37459W        W 2279  24.377   8.936   0.745
37460W        W 2280   0.971  40.854   2.377
37461W        W 2281  33.572   3.929  14.079
37462W        W 2282  37.382  21.295   1.745
37463W        W 2283  27.748  31.984   2.333
37464W        W 2284  17.599  28.982  12.511
37465W        W 2285  44.954  35.804  12.509
37466W        W 2286  24.062  33.030   2.685
37467W        W 2287  19.273   6.957   0.733
37468W        W 2288  41.934  27.890   0.886
37469W        W 2289  12.406  40.860  11.590
37470W        W 2290   2.530  32.140   5.006
37471W        W 2291   1.721  13.894  10.660
37472W        W 2292  19.013   5.157   4.200
37473W        W 2293  34.614  13.862   0.930
37474W        W 2294  13.013  33.097   2.090
37475W        W 2295  33.849  16.223  12.051
37476W        W 2296   4.846  44.461  14.965
37477W        W 2297  35.085   7.461   2.245
37478W        W 2298  10.162  22.556  12.996
37479W        W 2299  28.582  30.991   4.112
37480W        W 2300  11.770  27.347  11.953
37481W        W 2301   1.606  41.522   3.846
37482W        W 2302  34.537   1.276  11.218
37483W        W 2303  25.049  41.023   2.657
37484W        W 2304  17.809  35.371   0.859
37485W        W 2305  29.881  27.553  12.335
37486W        W 2306  44.390  32.073  13.335
37487W        W 2307  43.750  26.629   4.578
37488W        W 2308  29.825  27.588  13.672
37489W        W 2309  18.676  28.494  12.709
37490W        W 2310  26.945  36.560  12.013
37491W        W 2311   7.596  17.154   2.728
37492W        W 2312   5.307  23.353   3.153
37493W        W 2313  39.849  29.434  12.148
37494W        W 2314   9.627  31.694   4.161
37495W        W 2315  33.004  10.732  13.300
37496W        W 2316   4.371  18.686  14.213
37497W        W 2317  18.126   8.594   0.855
37498W        W 2318  37.385  17.773   3.367
37499W        W 2319  25.504   9.468   3.585
37500W        W 2320  16.011  26.053   1.693
37501W        W 2321  10.749  29.911   0.855
37502W        W 2322  18.038  21.699   0.368
37503W        W 2323  26.175  15.017   4.710
37504W        W 2324  23.100   0.468  12.406
37505W        W 2325  22.224  22.054  13.826
37506W        W 2326  22.440  43.985  11.518
37507W        W 2327  29.319  28.990  14.463
37508W        W 2328   5.458  20.688   2.232
37509W        W 2329  16.290   0.628  12.104
37510W        W 2330  31.641   8.737   2.733
37511W        W 2331  16.081   5.385  10.616
37512W        W 2332  33.898  32.512   2.017
37513W        W 2333  23.983   6.288  11.538
37514W        W 2334  23.041  41.728   1.720
37515W        W 2335  12.140   5.540  14.583
37516W        W 2336  35.920  34.703   3.533
37517W        W 2337  36.372   2.713   4.111
37518W        W 2338   8.629   0.218  12.013
37519W        W 2339  15.561  18.545   0.353
37520W        W 2340  20.682  35.490  14.873
37521W        W 2341   9.396  38.499   3.185
37522W        W 2342   1.913   0.018  12.002
37523W        W 2343  22.663   0.815  14.921
37524W        W 2344  30.141  30.105   4.429
37525W        W 2345  42.512  29.574  10.706
37526W        W 2346  30.078  10.139   1.426
37527W        W 2347  40.711  30.206   1.510
37528W        W 2348   4.903  33.418   4.935
37529W        W 2349  10.303   5.162  13.736
37530W        W 2350  16.058  23.487   4.367
37531W        W 2351  23.630  42.034   3.217
37532W        W 2352   5.322   6.169  14.095
37533W        W 2353  27.153  35.856  13.108
37534W        W 2354  31.925  15.647  13.428
37535W        W 2355  24.024  41.663  10.053
37536W        W 2356  28.071  18.485  11.430
37537W        W 2357  40.839  39.434   3.681
37538W        W 2358  25.100   3.940  12.259
37539W        W 2359  15.687  14.204  11.190
37540W        W 2360  21.169  13.693   4.058
37541W        W 2361  41.337  22.699   4.593
37542W        W 2362  13.292  16.091  13.397
37543W        W 2363  22.694  17.435   2.610
37544W        W 2364   5.626  18.997   4.077
37545W        W 2365  10.283   5.216   1.780
37546W        W 2366  31.351   8.639  13.467
37547W        W 2367   2.416  18.263   2.545
37548W        W 2368   0.955  26.568  12.479
37549W        W 2369   4.675  42.347   0.118
37550W        W 2370  32.964   5.716   2.880
37551W        W 2371  21.157  14.750  13.357
37552W        W 2372  38.965  17.770   0.068
37553W        W 2373  22.309  42.341   1.686
37554W        W 2374  26.459   8.097   3.416
37555W        W 2375  24.106  11.900  12.941
37556W        W 2376   8.582  42.546   1.345
37557W        W 2377   3.300  39.529  10.971
37558W        W 2378  32.452   5.345   1.620
37559W        W 2379  17.006  15.831   5.410
37560W        W 2380   1.235  28.893  12.532
37561W        W 2381   6.426  24.097  12.488
37562W        W 2382  23.245  29.389   0.343
37563W        W 2383  33.672   1.277  10.787
37564W        W 2384  42.259  12.697   4.226
37565W        W 2385  12.313  20.396   0.110
37566W        W 2386  17.652   7.823   2.355
37567W        W 2387  37.391   9.622   4.027
37568W        W 2388  22.731   4.803  14.226
37569W        W 2389  32.488   2.417   4.588
37570W        W 2390   6.593  24.543   4.050
37571W        W 2391  12.759  39.716   1.321
37572W        W 2392   9.645  42.758  14.166
37573W        W 2393  13.530  42.616  14.811
37574W        W 2394  30.038  35.898  11.173
37575W        W 2395  15.617  39.061  13.902
37576W        W 2396  38.580  12.241  11.455
37577W        W 2397  11.713  21.678  13.640
37578W        W 2398  29.850  33.418  13.555
37579W        W 2399  26.506  39.314   3.630
37580W        W 2400   3.865  43.456   2.761
37581W        W 2401   0.310   4.663  11.593
37582W        W 2402  33.576  44.088   3.237
37583W        W 2403  34.549  10.835  13.339
37584W        W 2404  35.854  20.150  12.476
37585W        W 2405  18.552   1.525  12.693
37586W        W 2406   2.994  44.900   4.348
37587W        W 2407  12.390  29.592  12.058
37588W        W 2408  30.422  28.779   4.886
37589W        W 2409  30.642  16.176   2.420
37590W        W 2410  14.196  33.479  11.888
37591W        W 2411   9.285  43.003  13.869
37592W        W 2412  34.401  44.429   4.334
37593W        W 2413   7.431  35.957  12.249
37594W        W 2414  19.200   9.366  13.032
37595W        W 2415  24.151  35.375   1.421
37596W        W 2416  20.346  39.760   0.934
37597W        W 2417  39.448   3.923   4.233
37598W        W 2418   3.411  24.288   5.407
37599W        W 2419  28.544  38.601  12.551
37600W        W 2420  13.100  41.042  12.887
37601W        W 2421  37.008  29.226  14.991
37602W        W 2422  36.469  18.628  12.994
37603W        W 2423  42.997  17.109   4.251
37604W        W 2424   6.414   1.530   4.808
37605W        W 2425  24.883  26.009  14.518
37606W        W 2426  42.241  17.677   0.815
37607W        W 2427  12.088   9.840  12.947
37608W        W 2428  14.334  42.083  10.679
37609W        W 2429  10.131   1.272  12.999
37610W        W 2430   0.187  39.331  13.990
37611W        W 2431   9.818  19.609  12.906
37612W        W 2432  30.169  26.054  11.962
37613W        W 2433  36.963  40.342   4.775
37614W        W 2434  16.787  14.079   4.874
37615W        W 2435   3.880  29.108   3.281
37616W        W 2436  22.770  14.322   1.292
37617W        W 2437  32.123  27.877  12.314
37618W        W 2438  39.505  38.411   0.288
37619W        W 2439  13.345   7.882   4.347
37620W        W 2440   4.326  34.278  10.796
37621W        W 2441  31.562   7.307   2.673
37622W        W 2442   7.891  30.827  11.626
37623W        W 2443   6.823  23.852   3.726
37624W        W 2444   6.754   3.305   4.358
37625W        W 2445  31.386  33.908   0.088
37626W        W 2446   0.578  33.393  12.104
37627W        W 2447  33.400  39.831   0.923
37628W        W 2448  43.355  30.582   3.207
37629W        W 2449  18.296  31.456   4.462
37630W        W 2450  21.218  38.388  14.257
37631W        W 2451  21.212  32.931   3.400
37632W        W 2452  18.788   8.493   1.449
37633W        W 2453  20.812  12.618  11.546
37634W        W 2454  19.797  19.223   4.533
37635W        W 2455  38.052  27.649  14.405
37636W        W 2456  19.474  19.309  13.153
37637W        W 2457  37.713   2.210  14.067
37638W        W 2458  11.428  17.810   0.577
37639W        W 2459  39.046  40.153  14.220
37640W        W 2460  14.177  10.303   0.333
37641W        W 2461   8.343  17.905  10.101
37642W        W 2462   1.266   8.210   2.712
37643W        W 2463   4.338  32.964  11.586
37644W        W 2464  31.758  16.603  12.394
37645W        W 2465  25.046   3.203  13.819
37646W        W 2466   6.665   6.858  13.484
37647W        W 2467  24.108   1.078  10.773
37648W        W 2468  35.748   9.122   0.700
37649W        W 2469  37.295  41.911   3.219
37650W        W 2470  18.226  23.192   0.327
37651W        W 2471  24.719  29.931   1.315
37652W        W 2472  39.416   0.800  12.218
37653W        W 2473  17.205  21.050   3.095
37654W        W 2474  13.388  40.967   1.163
37655W        W 2475  31.072  29.163   3.683
37656W        W 2476  27.440  23.462  12.535
37657W        W 2477  24.920  16.723  14.487
37658W        W 2478  22.837  19.286   3.698
37659W        W 2479  33.449  40.047  13.897
37660W        W 2480   0.207  13.148   4.509
37661W        W 2481  33.057  18.731  14.300
37662W        W 2482   1.376  26.906   0.665
37663W        W 2483  26.707  21.575  13.019
37664W        W 2484  19.579  41.782   0.969
37665W        W 2485   3.208  13.757   2.204
37666W        W 2486  41.766  37.875   1.106
37667W        W 2487  41.705  13.235  10.919
37668W        W 2488  15.699  42.018  14.825
37669W        W 2489  43.882  18.227  10.678
37670W        W 2490  21.637   7.636  13.946
37671W        W 2491  39.257  38.314  11.973
37672W        W 2492  23.846  35.335  14.076
37673W        W 2493   9.603   3.855  12.887
37674W        W 2494  14.332  29.017   3.106
37675W        W 2495  27.548   5.893  13.610
37676W        W 2496  41.837  34.980  12.343
37677W        W 2497   8.687  19.528   0.687
37678W        W 2498  36.662  27.496   3.014
37679W        W 2499   6.872   5.877  10.770
37680W        W 2500   5.066  15.650   0.867
37681W        W 2501  22.668  20.327  10.222
37682W        W 2502  32.445  28.991   0.362
37683W        W 2503   3.319  29.404  13.878
37684W        W 2504   1.404  21.117  10.597
37685W        W 2505  10.732  25.522   1.234
37686W        W 2506   3.728   5.128  11.541
37687W        W 2507   8.505  21.864   2.148
37688W        W 2508  38.159  43.358   3.748
37689W        W 2509  10.406  29.485   2.434
37690W        W 2510   7.799   2.451  12.344
37691W        W 2511  30.575  10.072  14.613
37692W        W 2512   9.865  17.995   2.902
37693W        W 2513  14.202   2.381  14.533
37694W        W 2514  38.086  18.299  10.584
37695W        W 2515  16.123   8.713  12.075
37696W        W 2516  18.422  11.738  10.423
37697W        W 2517  35.169   2.176  12.774
37698W        W 2518  43.622  15.444   1.907
37699W        W 2519  37.617   0.565  11.863
37700W        W 2520  16.417   9.839  12.395
37701W        W 2521  37.027   9.167   0.953
37702W        W 2522  42.069  14.817  13.914
37703W        W 2523  31.146   1.105   4.274
37704W        W 2524  33.008  25.701   5.452
37705W        W 2525  36.293  11.220  10.963
37706W        W 2526  22.695  15.257   2.211
37707W        W 2527  32.600  37.141   2.881
37708W        W 2528  12.323  41.276   2.428
37709W        W 2529   5.181  14.710   2.853
37710W        W 2530  31.668   1.532  12.596
37711W        W 2531  19.446   5.955  14.338
37712W        W 2532  14.783  29.641  12.936
37713W        W 2533   4.601  36.704  10.080
37714W        W 2534   9.091  39.835  12.503
37715W        W 2535  36.652   0.135  13.042
37716W        W 2536   0.287  39.088   0.335
37717W        W 2537  30.141  24.056  14.473
37718W        W 2538  34.074  11.069   4.342
37719W        W 2539  29.522   3.368  14.473
37720W        W 2540   2.968  23.588   2.740
37721W        W 2541  18.517  13.064  11.895
37722W        W 2542  33.520  24.695   1.220
37723W        W 2543  17.101  42.177  14.838
37724W        W 2544  26.341  17.715   1.861
37725W        W 2545  43.032  41.534  12.028
37726W        W 2546  22.493  22.509  12.004
37727W        W 2547  26.495  21.433  11.126
37728W        W 2548  30.156  44.934   1.120
37729W        W 2549  25.950   3.781  10.410
37730W        W 2550   1.310  13.842   3.250
37731W        W 2551  31.853  27.660   1.822
37732W        W 2552  34.940  41.342   1.359
37733W        W 2553  32.668  42.348   4.291
37734W        W 2554   3.592  43.138   2.296
37735W        W 2555  29.879  17.592  11.944
37736W        W 2556  13.212  26.957  11.482
37737W        W 2557  15.204  37.207   0.180
37738W        W 2558  44.034  17.204   3.275
37739W        W 2559  29.899  37.347  12.822
37740W        W 2560  41.004   5.471  10.717
37741W        W 2561  26.925  13.640   3.634
37742W        W 2562  23.908  22.532  13.849
37743W        W 2563  23.121  43.006  14.950
37744W        W 2564   0.960  22.315  14.527
37745W        W 2565   7.387  28.634  10.789
37746W        W 2566  30.508   2.161  14.953
37747W        W 2567   4.252   6.987   1.855
37748W        W 2568  22.266  33.080   1.626
37749W        W 2569  28.388   5.243  11.339
37750W        W 2570  12.080  37.462   4.171
37751W        W 2571  39.030  22.243   1.952
37752W        W 2572  27.590  33.838  12.007
37753W        W 2573   3.369   0.719   4.642
37754W        W 2574   4.813  30.646  13.478
37755W        W 2575   7.584   7.440  11.083
37756W        W 2576  34.003  19.354   3.907
37757W        W 2577   7.696   1.466   0.478
37758W        W 2578  24.677   9.192  14.195
37759W        W 2579  42.059   2.718  13.105
37760W        W 2580  36.314  37.439   3.011
37761W        W 2581  28.222   7.416   2.938
37762W        W 2582  41.830   2.898  11.657
37763W        W 2583  39.063  44.011   3.506
37764W        W 2584   8.436  15.310  13.071
37765W        W 2585   1.958  30.967  14.391
37766W        W 2586   5.872  39.304  12.717
37767W        W 2587  24.552  15.887   0.277
37768W        W 2588  34.462  44.245   1.948
37769W        W 2589   7.256  32.588  10.763
37770W        W 2590  33.710  11.724   9.550
37771W        W 2591  12.257  34.845   4.220
37772W        W 2592  36.295  18.120  14.293
37773W        W 2593  14.357  44.570  14.418
37774W        W 2594  44.322  21.084  14.217
37775W        W 2595  30.069  36.229   4.521
37776W        W 2596  11.408  44.854   2.857
37777W        W 2597  29.100  22.485  14.524
37778W        W 2598  17.061  27.136   2.336
37779W        W 2599  31.887   7.457   3.990
37780W        W 2600   1.027  18.718  12.830
37781W        W 2601   0.588  35.378  11.161
37782W        W 2602  42.800  25.914   4.554
37783W        W 2603   3.954   3.780   3.084
37784W        W 2604   0.030  24.087   3.202
37785W        W 2605  15.533  34.506   3.011
37786W        W 2606  33.047  32.002   4.137
37787W        W 2607   8.097  39.294  12.208
37788W        W 2608  41.393  37.603  12.524
37789W        W 2609  14.801  24.743   2.710
37790W        W 2610  12.849  28.769   3.913
37791W        W 2611  27.945  17.743  13.856
37792W        W 2612  29.706  41.697  11.304
37793W        W 2613  10.427  25.365  14.486
37794W        W 2614   1.694  44.738  12.437
37795W        W 2615  14.306  26.452   1.619
37796W        W 2616   6.878   9.731  14.516
37797W        W 2617  14.233  31.379  14.032
37798W        W 2618   6.393  34.685  13.883
37799W        W 2619  41.349   5.744  11.934
37800W        W 2620   3.916   3.708   0.425
37801W        W 2621  26.465  35.162   1.327
37802W        W 2622  26.167  44.480   1.376
37803W        W 2623  20.640  19.521   4.607
37804W        W 2624   8.286  42.526   3.675
37805W        W 2625  30.150  13.753  12.968
37806W        W 2626  33.038  17.262  13.979
37807W        W 2627  23.520   7.976  10.627
37808W        W 2628  31.813  19.042  13.532
37809W        W 2629   4.977  32.741  13.312
37810W        W 2630   7.227  23.946   3.386
37811W        W 2631  13.512  21.408  10.914
37812W        W 2632  25.164  38.847   1.040
37813W        W 2633  13.647  37.122   2.276
37814W        W 2634  37.039   6.279   0.772
37815W        W 2635  42.337  25.674   3.337
37816W        W 2636   1.915   0.405  13.269
37817W        W 2637  16.235  14.247   2.114
37818W        W 2638  24.551  15.368  13.864
37819W        W 2639  30.411  36.535   1.268
37820W        W 2640   4.620  23.105  14.790
37821W        W 2641   5.872  12.818   0.857
37822W        W 2642   1.097  22.229  12.437
37823W        W 2643  21.099  10.924   3.181
37824W        W 2644  39.005  13.953   2.414
37825W        W 2645  14.334  11.611  11.097
37826W        W 2646  44.363  28.837  14.336
37827W        W 2647   8.551  10.932  12.952
37828W        W 2648  16.084  15.569  10.593
37829W        W 2649   3.205  36.079  10.219
37830W        W 2650  44.007  44.402  14.377
37831W        W 2651  36.954  36.517  12.592
37832W        W 2652  24.981  16.481   1.836
37833W        W 2653  38.265  29.120  12.011
37834W        W 2654  19.124   1.189   0.980
37835W        W 2655   4.874  40.576   4.734
37836W        W 2656  29.586  13.660   1.186
37837W        W 2657  23.405  42.821   2.437
37838W        W 2658  18.869  43.901  10.757
37839W        W 2659  42.510  17.240  12.518
37840W        W 2660  36.431   2.020  11.471
37841W        W 2661  28.361  39.625  13.392
37842W        W 2662   7.724  22.866  12.058
37843W        W 2663   4.908  13.074   2.784
37844W        W 2664  15.113  44.670   4.634
37845W        W 2665   2.065  42.813   4.559
37846W        W 2666  44.720   8.404   1.725
37847W        W 2667  13.911  39.300  13.469
37848W        W 2668  25.468  33.841   4.136
37849W        W 2669  23.859  22.977   4.077
37850W        W 2670   8.053   4.226  12.490
37851W        W 2671   1.182  41.846  12.280
37852W        W 2672  44.485  15.175   0.620
37853W        W 2673  20.529   4.091   1.742
37854W        W 2674   0.766   5.275  12.853
37855W        W 2675  25.458  38.325  12.036
37856W        W 2676  23.976   6.678  11.981
37857W        W 2677   8.869  28.143   4.020
37858W        W 2678  22.118  25.665   4.414
37859W        W 2679   6.562  11.381   2.902
37860W        W 2680   6.053  29.271  10.263
37861W        W 2681  36.468   8.476   1.274
37862W        W 2682  32.749   2.751  12.489
37863W        W 2683  18.124  40.268   1.134
37864W        W 2684  13.549   2.825   1.197
37865W        W 2685   0.979   1.714   2.167
37866W        W 2686  30.549  35.065  11.715
37867W        W 2687  38.333  36.750  12.455
37868W        W 2688   0.947  27.050   2.726
37869W        W 2689   5.267  20.550  14.373
37870W        W 2690   5.940  42.251  11.780
37871W        W 2691  21.560  18.179   2.859
37872W        W 2692  41.783  20.491   4.379
37873W        W 2693  39.666  29.577   1.814
37874W        W 2694   9.250   2.821   0.126
37875W        W 2695   9.661  11.850   2.730
37876W        W 2696  12.263  24.582  10.988
37877W        W 2697  24.993  35.486   5.337
37878W        W 2698  36.591  32.237  13.078
37879W        W 2699  22.488  28.665   4.148
37880W        W 2700  23.494  42.339  14.782
37881W        W 2701  29.575   5.710  14.967
37882W        W 2702  21.294  13.409  10.917
37883W        W 2703  43.553  37.703   1.217
37884W        W 2704  29.208  30.194   3.155
37885W        W 2705  32.497  38.979   1.203
37886W        W 2706  25.878  16.011   2.183
37887W        W 2707  16.690   6.288   2.428
37888W        W 2708   0.294  37.139   2.239
37889W        W 2709  41.866  31.393  11.509
37890W        W 2710  22.213   0.677  13.954
37891W        W 2711  10.433  25.418   0.391
37892W        W 2712  11.713   8.590   0.951
37893W        W 2713  40.861   3.366  10.650
37894W        W 2714  40.558  15.282  13.409
37895W        W 2715  29.470  36.972  10.998
37896W        W 2716  27.007  42.295  11.723
37897W        W 2717  22.618   3.398  10.721
37898W        W 2718  36.079  31.036  14.407
37899W        W 2719  14.007  11.950  12.967
37900W        W 2720  22.438   5.870   2.014
37901W        W 2721  27.537  17.297   4.361
37902W        W 2722   4.566   4.707  11.965
37903W        W 2723  13.385  19.550   2.719
37904W        W 2724  25.219  41.536  10.421
37905W        W 2725   3.666  28.980   0.770
37906W        W 2726   1.832  34.987   2.900
37907W        W 2727  10.442   8.133   4.593
37908W        W 2728   5.891  32.169   1.852
37909W        W 2729  44.192  40.617   2.294
37910W        W 2730  26.756  16.592  13.963
37911W        W 2731  22.151  32.939   3.301
37912W        W 2732  39.034  17.963  10.710
37913W        W 2733  34.454  32.908  12.335
37914W        W 2734  10.098  13.380   2.367
37915W        W 2735   8.623  21.038   2.165
37916W        W 2736  40.894   8.291  10.487
37917W        W 2737  26.123   8.736  12.550
37918W        W 2738  39.211  31.371   3.881
37919W        W 2739   9.688  41.496  11.151
37920W        W 2740  24.110  35.388   0.909
37921W        W 2741  37.318  13.605   3.752
37922W        W 2742  40.637  10.276  13.977
37923W        W 2743  14.733  16.443  12.041
37924W        W 2744  34.407  30.138  11.705
37925W        W 2745   0.615   6.613   1.890
37926W        W 2746  42.831  14.265  14.932
37927W        W 2747  19.825   5.867  11.518
37928W        W 2748  15.755  14.703   4.615
37929W        W 2749  31.416   8.056  14.534
37930W        W 2750  39.990  11.380  14.435
37931W        W 2751  38.745  40.023  10.980
37932W        W 2752  20.249  26.925  14.510
37933W        W 2753   2.380   7.012  14.844
37934W        W 2754   5.194   0.409   2.030
37935W        W 2755  16.755  13.376  12.860
37936W        W 2756  33.734  44.806   1.780
37937W        W 2757  39.297  30.145   1.234
37938W        W 2758  35.316  32.529  13.096
37939W        W 2759  10.747   9.739  13.610
37940W        W 2760  27.045   8.391  11.551
37941W        W 2761  33.147  10.103  11.959
37942W        W 2762  29.325  26.549  12.050
37943W        W 2763   2.863  34.119   2.157
37944W        W 2764  15.703   1.774  11.241
37945W        W 2765  26.706  17.669  11.113
37946W        W 2766  15.636  18.376   4.431
37947W        W 2767  11.607   0.998   4.571
37948W        W 2768  23.589  31.914  12.553
37949W        W 2769  31.576  35.393  11.348
37950W        W 2770  36.809  28.957   0.421
37951W        W 2771  25.734  35.325  13.513
37952W        W 2772  16.773  28.964  10.222
37953W        W 2773  43.977  25.676   2.119
37954W        W 2774   7.387  34.177   2.330
37955W        W 2775  23.275  42.318  13.545
37956W        W 2776  34.433  30.933  14.408
37957W        W 2777  41.278  31.947  11.198
37958W        W 2778  21.509   0.039  11.626
37959W        W 2779  41.700  22.321   4.284
37960W        W 2780  12.140  18.488   1.781
37961W        W 2781  32.426   6.296   1.853
37962W        W 2782  18.800   6.261  12.827
37963W        W 2783  33.944  19.497  11.197
37964W        W 2784  37.422  14.320  12.611
37965W        W 2785   6.142  29.403  12.438
37966W        W 2786  23.658  31.694  11.055
37967W        W 2787  29.598  35.428   3.271
37968W        W 2788  21.218  37.506   4.012
37969W        W 2789  22.221  27.096  14.365
37970W        W 2790  22.715   5.370  12.545
37971W        W 2791  12.478  11.197  13.956
37972W        W 2792  35.174  26.117  11.943
37973W        W 2793  38.487  42.413   1.233
37974W        W 2794  29.472  43.839   2.639
37975W        W 2795   8.240  32.727  13.090
37976W        W 2796   8.723   8.941  14.486
37977W        W 2797  11.183  37.218  10.651
37978W        W 2798  25.102   1.007   1.416
37979W        W 2799  30.350  41.847  11.477
37980W        W 2800  35.358  34.360   1.817
37981W        W 2801  29.670  13.310   3.215
37982W        W 2802  30.663  35.937  11.986
37983W        W 2803  12.246  18.740  10.275
37984W        W 2804  41.261  21.188   3.673
37985W        W 2805  32.707  43.717   4.304
37986W        W 2806  12.056   8.352  13.463
37987W        W 2807   9.418  31.143   4.997
37988W        W 2808  41.277  33.060  12.538
37989W        W 2809  44.364  12.467   9.917
37990W        W 2810   5.187  20.775  11.129
37991W        W 2811   6.733   7.781  11.543
37992W        W 2812   4.461  37.168  12.833
37993W        W 2813   5.789  27.978  12.637
37994W        W 2814  25.809   0.427  11.922
37995W        W 2815  24.312   0.246  11.202
37996W        W 2816  13.345  35.046  12.855
37997W        W 2817  17.987  13.871  11.932
37998W        W 2818  29.272  10.352  13.927
37999W        W 2819   9.711  11.178   3.179
38000W        W 2820   2.785  20.664   2.476
38001W        W 2821  10.140   3.324   1.466
38002W        W 2822  22.757  29.852  12.192
38003W        W 2823  17.675  23.430   4.506
38004W        W 2824  40.590  39.920  13.968
38005W        W 2825  14.186  12.110  13.626
38006W        W 2826  35.400   9.828  12.483
38007W        W 2827   8.652  33.584   1.279
38008W        W 2828  14.139  25.855   5.044
38009W        W 2829   2.159  27.988   2.376
38010W        W 2830   1.640   1.295   2.790
38011W        W 2831  22.706  27.432  12.637
38012W        W 2832   1.908   0.962  10.678
38013W        W 2833  27.164  10.477   1.723
38014W        W 2834  16.275  17.878  12.927
38015W        W 2835  29.634   0.421   4.510
38016W        W 2836  30.922  24.701  12.688
38017W        W 2837  33.593  17.923   0.818
38018W        W 2838   0.849  22.963   4.111
38019W        W 2839  33.826  25.623   2.341
38020W        W 2840  29.074  38.723   4.102
38021W        W 2841   1.280  22.433  11.244
38022W        W 2842  19.416  31.848   0.820
38023W        W 2843  12.239  14.295   2.377
38024W        W 2844  25.700  43.557  11.264
38025W        W 2845  30.183  42.482  11.546
38026W        W 2846  18.114  20.097  12.455
38027W        W 2847  10.246  32.839  12.986
38028W        W 2848  44.313  24.671  14.972
38029W        W 2849  39.349  30.164  14.058
38030W        W 2850  21.687  40.622  12.126
38031W        W 2851  33.109  20.498  11.583
38032W        W 2852  10.420  22.544  13.884
38033W        W 2853  41.464   2.151   3.228
38034W        W 2854  36.094   8.930  13.068
38035W        W 2855  42.365   2.788   3.585
38036W        W 2856   9.407  38.234  11.949
38037W        W 2857  29.804  25.333   9.914
38038W        W 2858  14.725  36.826   1.857
38039W        W 2859   6.290  34.504   0.397
38040W        W 2860  33.469  31.435   3.339
38041W        W 2861   0.744  30.627   2.282
38042W        W 2862  29.450  44.944  11.959
38043W        W 2863  24.158  25.645   2.482
38044W        W 2864  17.397  18.604  11.945
38045W        W 2865  20.782  26.505   1.732
38046W        W 2866  38.478   1.232   2.609
38047W        W 2867  19.411  38.955   1.612
38048W        W 2868  30.450  19.691  11.413
38049W        W 2869  13.881  26.821  13.350
38050W        W 2870  18.350  20.632   3.706
38051W        W 2871  31.124  32.129  12.600
38052W        W 2872   0.923  23.969   3.084
38053W        W 2873  13.789   7.439   4.290
38054W        W 2874  15.073  13.229   0.296
38055W        W 2875  38.857  41.240   0.337
38056W        W 2876  42.800  38.515  11.785
38057W        W 2877  43.575  14.774  14.887
38058W        W 2878  37.752   4.421   4.355
38059W        W 2879  31.573  35.817   1.885
38060W        W 2880  32.839  19.094  14.591
38061W        W 2881  23.706  32.708  14.909
38062W        W 2882  32.398  13.721  14.693
38063W        W 2883   4.884  22.649   4.988
38064W        W 2884  36.350   1.785  13.264
38065W        W 2885   8.829  37.021  12.064
38066W        W 2886  41.367  13.201   1.315
38067W        W 2887  31.725  34.181   0.905
38068W        W 2888  17.584  19.829   3.304
38069W        W 2889  28.513  10.913  13.806
38070W        W 2890  21.330  11.793  13.149
38071W        W 2891  21.282  24.733  12.073
38072W        W 2892  17.084   4.051   2.282
38073W        W 2893  43.376  31.323   4.318
38074W        W 2894  39.554  36.091   0.657
38075W        W 2895   6.688   0.881   2.254
38076W        W 2896  10.389  17.796   3.289
38077W        W 2897  12.697   9.122   3.014
38078W        W 2898  15.160  17.586  14.349
38079W        W 2899  30.078  43.443  14.234
38080W        W 2900  13.308  32.675   2.174
38081W        W 2901  10.250  43.306  10.194
38082W        W 2902   2.767  35.789   0.833
38083W        W 2903   6.930  33.966   1.421
38084W        W 2904  19.102   1.198   1.955
38085W        W 2905  15.763   0.424   0.675
38086W        W 2906  15.853  42.315  14.411
38087W        W 2907  44.104   2.385  11.253
38088W        W 2908  21.467  39.373  14.336
38089W        W 2909  12.045  44.524   4.681
38090W        W 2910  38.147  14.772   0.645
38091W        W 2911  16.075  24.459   2.413
38092W        W 2912   3.394  29.310   1.681
38093W        W 2913   7.216  24.965  13.345
38094W        W 2914  11.617  35.151   4.858
38095W        W 2915  42.192  38.070   0.310
38096W        W 2916  39.740  37.139   1.767
38097W        W 2917   9.315  41.062  12.720
38098W        W 2918   0.400  25.067   3.365
38099W        W 2919  30.639  21.690  12.466
38100W        W 2920   8.625  37.160   3.156
38101W        W 2921  40.080  33.537   4.602
38102W        W 2922  37.029  36.285   4.931
38103W        W 2923  41.919  34.756  14.703
38104W        W 2924  38.537  13.109  11.553
38105W        W 2925  32.702  14.607   2.066
38106W        W 2926  17.880   9.415   0.425
38107W        W 2927  28.676  25.996  12.254
38108W        W 2928  19.345  22.310   3.629
38109W        W 2929  26.715   2.314   3.670
38110W        W 2930   5.526  37.060  11.567
38111W        W 2931   2.937   1.869   3.424
38112W        W 2932  27.238  10.645   0.915
38113W        W 2933  37.321  14.107   0.834
38114W        W 2934   6.381  16.580   3.208
38115W        W 2935  25.031   0.025   1.769
38116W        W 2936  16.933  37.860   0.039
38117W        W 2937   3.338  43.210  13.897
38118W        W 2938  27.514  16.350  11.709
38119W        W 2939  15.231  18.657  12.907
38120W        W 2940   6.319  10.663   3.590
38121W        W 2941  41.063  42.922   3.568
38122W        W 2942   5.208   2.111   0.085
38123W        W 2943  28.548  27.088   3.839
38124W        W 2944  44.275  37.906  12.864
38125W        W 2945   8.105  18.249  12.058
38126W        W 2946  43.394  16.002  11.647
38127W        W 2947   9.344  28.969   1.891
38128W        W 2948  21.013  33.343   0.472
38129W        W 2949  14.169  15.993  11.235
38130W        W 2950  38.006  16.752   0.840
38131W        W 2951  27.663   9.122  12.084
38132W        W 2952  15.289  32.972   0.811
38133W        W 2953  40.394  15.159   2.197
38134W        W 2954  19.695   0.188  13.319
38135W        W 2955  20.020  37.112   2.225
38136W        W 2956  21.539  21.535  11.582
38137W        W 2957   1.317   7.645  13.423
38138W        W 2958  25.705  43.221  11.685
38139W        W 2959  37.529   3.951   4.215
38140W        W 2960  40.478  23.967   3.206
38141W        W 2961  12.839  41.990  11.566
38142W        W 2962  17.495  21.158   2.677
38143W        W 2963   4.839  15.357  14.725
38144W        W 2964  38.424  12.404   2.700
38145W        W 2965  24.900  24.842  12.079
38146W        W 2966  31.884  40.460   1.203
38147W        W 2967   7.292  33.933   3.574
38148W        W 2968  12.437  35.154  11.497
38149W        W 2969  37.366   1.404  14.843
38150W        W 2970   5.718  30.698   1.842
38151W        W 2971   4.859  36.547   4.928
38152W        W 2972  18.248  20.676  14.434
38153W        W 2973  28.028  41.743   4.986
38154W        W 2974  21.754  13.561   5.048
38155W        W 2975  25.777  32.575   9.874
38156W        W 2976  20.511  38.236   4.147
38157W        W 2977  37.479  22.727   3.939
38158W        W 2978  20.126   4.394  12.878
38159W        W 2979  10.669  33.856   0.532
38160W        W 2980  44.226  10.632  12.280
38161W        W 2981  29.317  20.494   3.755
38162W        W 2982  30.435   5.338  14.566
38163W        W 2983  16.627  39.379  13.725
38164W        W 2984   3.992  21.287  13.792
38165W        W 2985  33.082  25.714  11.052
38166W        W 2986   9.600  32.895  12.179
38167W        W 2987  33.508  11.822   4.051
38168W        W 2988  44.698  14.842  10.650
38169W        W 2989  11.419  30.060  12.639
38170W        W 2990   9.179  10.293   1.893
38171W        W 2991   7.180  39.058  12.071
38172W        W 2992  12.465  16.952   0.812
38173W        W 2993  21.142  11.790  12.678
38174W        W 2994  35.972  24.590  10.949
38175W        W 2995  43.657  13.223  12.770
38176W        W 2996  22.436  23.036   3.182
38177W        W 2997   2.676  43.855  11.989
38178W        W 2998   8.395  43.746   3.185
38179W        W 2999   4.946  43.200  11.406
38180W        W 3000  37.951   8.645   3.280
38181W        W 3001  41.420  17.965   0.821
38182W        W 3002   3.671  13.194  11.255
38183W        W 3003  24.287  11.075   4.171
38184W        W 3004   7.708  17.541   4.938
38185W        W 3005  29.182  26.305  11.624
38186W        W 3006  26.097  22.509   1.482
38187W        W 3007  13.705   8.799  10.981
38188W        W 3008  18.156  11.291  13.586
38189W        W 3009  38.540  43.541  10.443
38190W        W 3010  37.482  27.495  12.444
38191W        W 3011  18.122  31.450   1.868
38192W        W 3012  15.867  44.140  11.948
38193W        W 3013  26.449   6.547   3.819
38194W        W 3014  40.809  18.216  12.980
38195W        W 3015  29.847   2.996  10.312
38196W        W 3016  21.158  32.982  13.055
38197W        W 3017  27.547  40.722  12.576
38198W        W 3018  19.677  43.442   4.620
38199W        W 3019   6.484  34.925   2.692
38200W        W 3020  39.487  21.523   0.422
38201W        W 3021   2.669  25.288  11.926
38202W        W 3022  40.836  27.056   4.607
38203W        W 3023  17.702  30.937   4.652
38204W        W 3024   9.298  25.451   3.289
38205W        W 3025  33.656   6.450   1.835
38206W        W 3026  15.150  26.541  14.410
38207W        W 3027  27.143   5.477   0.509
38208W        W 3028  11.667  10.617  12.077
38209W        W 3029  30.954  29.459  14.526
38210W        W 3030  12.183  18.270   5.451
38211W        W 3031  21.742  21.509  12.972
38212W        W 3032  36.027  27.458   0.915
38213W        W 3033  30.727  33.130  12.072
38214W        W 3034  18.852  20.812  13.793
38215W        W 3035  12.121  32.574  12.368
38216W        W 3036   1.824  29.491   2.866
38217W        W 3037  25.445  27.581   1.674
38218W        W 3038  24.921  19.083   0.520
38219W        W 3039  31.135  15.514   4.523
38220W        W 3040  19.694  29.959  11.452
38221W        W 3041  38.394  12.837  10.775
38222W        W 3042   7.636   7.537  11.613
38223W        W 3043  41.085  28.452  12.816
38224W        W 3044  14.055  37.006  11.958
38225W        W 3045  35.381  40.426   1.953
38226W        W 3046  44.680  11.450  13.451
38227W        W 3047  23.776  23.542   2.770
38228W        W 3048   1.337  29.456   1.017
38229W        W 3049   5.845  36.634  11.487
38230W        W 3050  21.253  39.042   0.778
38231W        W 3051  22.538   2.085   5.039
38232W        W 3052  29.539  20.604   1.969
38233W        W 3053  10.361  34.265  14.212
38234W        W 3054  20.540  43.731   2.454
38235W        W 3055  31.030  28.512  14.922
38236W        W 3056  37.512  31.554  12.947
38237W        W 3057  13.857  41.489   2.887
38238W        W 3058  23.250   3.877  14.348
38239W        W 3059  28.201  17.337   4.221
38240W        W 3060  10.338  21.005  10.174
38241W        W 3061  16.956   5.454   0.412
38242W        W 3062  38.054  43.056  13.395
38243W        W 3063  39.440  34.565   0.428
38244W        W 3064   0.345  42.043   0.231
38245W        W 3065  42.111  35.156  11.596
38246W        W 3066  31.272  17.860   0.373
38247W        W 3067  16.357  25.054   0.752
38248W        W 3068  21.117   5.880   1.839
38249W        W 3069  35.529  15.430   9.789
38250W        W 3070  34.148  38.541  11.083
38251W        W 3071  22.251  29.428   0.731
38252W        W 3072   4.945  10.538  14.076
38253W        W 3073  27.504  40.573   4.182
38254W        W 3074  21.001  37.397  10.690
38255W        W 3075  32.728   4.028  13.488
38256W        W 3076  27.568  32.390   3.191
38257W        W 3077  12.190  15.156   0.495
38258W        W 3078   3.939   4.176  11.166
38259W        W 3079  39.102  34.009   2.240
38260W        W 3080   6.837  33.970   2.384
38261W        W 3081  21.615   5.224   1.971
38262W        W 3082  28.160  13.684  14.396
38263W        W 3083  35.265  24.676   1.295
38264W        W 3084  44.489  26.094  13.272
38265W        W 3085   5.225   8.107   3.178
38266W        W 3086   4.458  31.370   0.443
38267W        W 3087  40.058  44.388   2.255
38268W        W 3088  36.121  20.905   3.074
38269W        W 3089  37.475  42.852  12.674
38270W        W 3090  30.242  14.403  12.406
38271W        W 3091  38.566   4.815  11.113
38272W        W 3092  28.670  12.133  13.535
38273W        W 3093  18.072  42.726   2.853
38274W        W 3094  28.430  32.308  10.048
38275W        W 3095  22.896  30.845  12.949
38276W        W 3096  17.100   2.848  14.360
38277W        W 3097  43.528  36.370   2.628
38278W        W 3098  44.908  24.719   1.316
38279W        W 3099   0.178  27.948  14.691
38280W        W 3100  15.330  38.470  12.970
38281W        W 3101  42.487   5.977   2.241
38282W        W 3102  41.927  29.549  12.883
38283W        W 3103  14.596  33.409  11.487
38284W        W 3104  15.050   7.827  12.163
38285W        W 3105  41.080   2.746   0.319
38286W        W 3106  23.767   2.672   1.237
38287W        W 3107  22.088   3.437   2.771
38288W        W 3108   4.040  24.610   1.816
38289W        W 3109  20.211   1.532   3.327
38290W        W 3110  36.459   7.478   4.233
38291W        W 3111  19.065  44.353   0.340
38292W        W 3112  35.050  30.447  13.081
38293W        W 3113  19.996   0.160   3.958
38294W        W 3114  43.266  13.050  12.403
38295W        W 3115  35.145  44.798   0.422
38296W        W 3116   3.955  36.439  12.084
38297W        W 3117  16.349  21.563  14.359
38298W        W 3118  33.845  32.489   0.483
38299W        W 3119  27.726  39.877   3.828
38300W        W 3120  44.789   4.176  13.417
38301W        W 3121  41.806   5.324  14.658
38302W        W 3122  35.326  13.337  10.284
38303W        W 3123  39.329  26.956   3.734
38304W        W 3124  24.126  43.298   4.563
38305W        W 3125  36.321  26.077  14.730
38306W        W 3126   2.623  44.451  14.763
38307W        W 3127  30.413   1.637  14.905
38308W        W 3128  43.330  31.577   0.861
38309W        W 3129  28.863  22.639  12.715
38310W        W 3130  39.780  41.385   3.104
38311W        W 3131  15.076   0.653  11.508
38312W        W 3132   7.892  30.138  10.909
38313W        W 3133  39.822  25.241  12.022
38314W        W 3134  32.694  25.478  12.235
38315W        W 3135  36.906  13.680   3.468
38316W        W 3136  39.310  33.193  10.753
38317W        W 3137   5.418  21.174   1.478
38318W        W 3138  19.265  42.220  14.548
38319W        W 3139   4.038  37.076   1.772
38320W        W 3140  40.517   8.571   3.568
38321W        W 3141   7.822  22.115   3.111
38322W        W 3142   7.719  34.209  13.905
38323W        W 3143  15.193  32.952   2.823
38324W        W 3144  16.049  26.451   0.476
38325W        W 3145  41.592   4.749   3.302
38326W        W 3146  19.992  23.613  12.379
38327W        W 3147   9.419  13.634  14.928
38328W        W 3148  22.671   5.831  10.597
38329W        W 3149   9.734  18.759   1.862
38330W        W 3150   5.264  20.561  13.839
38331W        W 3151   2.166  11.858   2.042
38332W        W 3152  34.132  23.566  14.425
38333W        W 3153  14.767  33.894  12.817
38334W        W 3154  26.114   1.879   4.308
38335W        W 3155  14.420  40.936   0.744
38336W        W 3156  20.245  18.036  13.863
38337W        W 3157  18.526  39.679  13.448
38338W        W 3158  10.203   1.672  13.941
38339W        W 3159  32.238   4.912  10.246
38340W        W 3160   3.829  34.238  12.578
38341W        W 3161  34.175  16.148  14.992
38342W        W 3162  28.499  18.182   3.185
38343W        W 3163  23.550  17.782  11.246
38344W        W 3164   9.916  41.583  12.934
38345W        W 3165   4.857  33.083  14.971
38346W        W 3166  30.486  26.323   3.640
38347W        W 3167  12.105  10.350   2.313
38348W        W 3168   6.951  40.754   1.359
38349W        W 3169   7.892  17.656   3.261
38350W        W 3170  30.727  19.139  10.266
38351W        W 3171   2.043  13.276   0.737
38352W        W 3172  20.637  30.178   4.660
38353W        W 3173  28.796   6.665  14.542
38354W        W 3174  39.978   1.580   3.608
38355W        W 3175  26.021  34.340   2.841
38356W        W 3176  22.660  17.951  14.219
38357W        W 3177  22.553   2.831   2.547
38358W        W 3178   3.905  15.286  13.036
38359W        W 3179  28.956  21.065   3.034
38360W        W 3180  34.239  20.810  10.259
38361W        W 3181   4.987  40.998   1.749
38362W        W 3182  20.174  35.643  12.972
38363W        W 3183   7.143  19.468   1.397
38364W        W 3184  31.611  17.778  10.760
38365W        W 3185   8.026  31.947   3.246
38366W        W 3186   6.355  28.260  14.914
38367W        W 3187   7.033  15.046  12.072
38368W        W 3188  38.496  39.935  12.363
38369W        W 3189  20.682  26.604  11.738
38370W        W 3190  32.581  28.665   2.809
38371W        W 3191  16.886  18.679  12.020
38372W        W 3192  38.927  34.428   3.208
38373W        W 3193   0.723  13.132   4.630
38374W        W 3194  11.666  34.915  12.014
38375W        W 3195   2.503  24.941   1.756
38376W        W 3196  24.255  26.926  14.372
38377W        W 3197   4.208  43.326  13.399
38378W        W 3198   1.170  25.189  11.176
38379W        W 3199  28.307  23.578  14.569
38380W        W 3200  40.327  36.912  12.016
38381W        W 3201  33.195  33.572  12.684
38382W        W 3202  32.468  14.828  13.390
38383W        W 3203  27.083   7.662  13.527
38384W        W 3204  36.502   4.440  14.855
38385W        W 3205   9.959   5.748  10.328
38386W        W 3206  13.001  29.139   2.614
38387W        W 3207  26.520  40.523  12.688
38388W        W 3208  34.985   4.731   4.249
38389W        W 3209   9.902  20.987  11.116
38390W        W 3210   8.330  21.367   0.441
38391W        W 3211  19.246  43.836   2.185
38392W        W 3212  19.558   7.640   0.075
38393W        W 3213  20.986  13.073  11.708
38394W        W 3214  24.264  19.044  13.581
38395W        W 3215  10.436  31.070  13.485
38396W        W 3216  34.607  41.865  12.245
38397W        W 3217  34.068   4.360   3.826
38398W        W 3218  10.116  30.474  13.419
38399W        W 3219  14.809  44.492  12.735
38400W        W 3220  23.599  38.213  10.061
38401W        W 3221   7.363   9.193   3.734
38402W        W 3222   0.511  19.130  12.276
38403W        W 3223   1.902   6.917  14.611
38404W        W 3224  38.649  42.713   4.173
38405W        W 3225   0.280  37.929  11.884
38406W        W 3226  39.958  35.020   2.744
38407W        W 3227  12.485  29.171   0.921
38408W        W 3228  31.130  15.539   2.778
38409W        W 3229   1.828  38.188   4.674
38410W        W 3230   2.214  27.772  10.813
38411W        W 3231  15.172  20.223   0.877
38412W        W 3232  42.791  28.243  14.392
38413W        W 3233   7.362  28.688   0.087
38414W        W 3234  38.017   4.872   0.734
38415W        W 3235  32.067  22.190   0.222
38416W        W 3236  41.868  28.079   0.370
38417W        W 3237  18.270  26.030   4.481
38418W        W 3238   7.428  11.792  13.506
38419W        W 3239  40.248  27.025   3.713
38420W        W 3240  23.932  13.109  11.156
38421W        W 3241  31.550  35.052  12.975
38422W        W 3242  10.693  16.028   3.265
38423W        W 3243  37.894  19.685  13.799
38424W        W 3244  25.020  44.964  12.112
38425W        W 3245  30.545  33.353  11.550
38426W        W 3246  26.207  32.985   0.163
38427W        W 3247  34.499  15.773  14.845
38428W        W 3248  23.938  31.378  12.896
38429W        W 3249  25.802  25.248  12.167
38430W        W 3250   6.758  41.587  13.837
38431W        W 3251   7.990   8.986   0.645
38432W        W 3252  13.862  24.165   4.920
38433W        W 3253  21.117  10.288  13.301
38434W        W 3254  26.185  17.361  14.414
38435W        W 3255  26.139  42.376  11.404
38436W        W 3256  24.540  26.446   0.942
38437W        W 3257  44.995  32.476   4.134
38438W        W 3258  20.013  39.976   4.346
38439W        W 3259  16.354   3.338  13.499
38440W        W 3260  33.575   1.603  13.331
38441W        W 3261  32.535  29.882  14.505
38442W        W 3262  19.256  15.523  12.524
38443W        W 3263  31.525  40.584  14.795
38444W        W 3264  12.489  32.214   1.293
38445W        W 3265  44.775  21.446   4.233
38446W        W 3266   0.905  35.222  13.121
38447W        W 3267  39.395  23.307   3.383
38448W        W 3268  37.680  27.082   4.391
38449W        W 3269  13.870  29.520  12.305
38450W        W 3270  33.363  12.129   0.575
38451W        W 3271   0.686  33.862  11.323
38452W        W 3272  16.219  17.068   4.513
38453W        W 3273  43.236  18.142   1.368
38454W        W 3274   1.865  35.752   4.176
38455W        W 3275  15.336  20.657  13.785
38456W        W 3276  21.842   0.359   0.958
38457W        W 3277   5.724  20.071   1.473
38458W        W 3278   7.650  10.685   2.220
38459W        W 3279  28.766   7.932   4.114
38460W        W 3280  32.367  32.464  10.731
38461W        W 3281  11.654   7.840  11.646
38462W        W 3282  21.276  41.453   0.083
38463W        W 3283  16.619   9.718  10.412
38464W        W 3284  22.540  35.472   2.488
38465W        W 3285  41.962  36.148   0.288
38466W        W 3286   3.988  32.525  12.057
38467W        W 3287   7.735   2.863   2.744
38468W        W 3288  35.421  40.215  10.503
38469W        W 3289  41.787  11.338  11.327
38470W        W 3290  27.731  32.060   0.307
38471W        W 3291  11.661  29.097  13.332
38472W        W 3292  27.442  31.043   3.194
38473W        W 3293  23.664  33.326  12.908
38474W        W 3294  40.906  43.187   0.806
38475W        W 3295   3.905   8.810  12.328
38476W        W 3296  39.917   4.318  13.360
38477W        W 3297  41.502  13.679  13.903
38478W        W 3298  13.970  38.056  12.015
38479W        W 3299  38.256   4.841  10.688
38480W        W 3300  37.964  31.105   2.792
38481W        W 3301   4.998  34.194  12.170
38482W        W 3302   5.238   4.929  11.224
38483W        W 3303  14.581  42.788  12.476
38484W        W 3304  36.889  25.117  12.110
38485W        W 3305  18.022  39.453   0.633
38486W        W 3306   2.432  29.470   2.222
38487W        W 3307   7.253   3.065   0.933
38488W        W 3308  32.613  17.685   2.669
38489W        W 3309  18.037  10.049   2.145
38490W        W 3310  28.659  41.743  14.961
38491W        W 3311  38.821  43.956  14.480
38492W        W 3312   6.265  40.239  12.900
38493W        W 3313  23.388  16.291  11.021
38494W        W 3314  21.225  12.084   0.856
38495W        W 3315   8.757  26.408  12.414
38496W        W 3316   7.877   5.295   1.907
38497W        W 3317  31.739  22.970   4.671
38498W        W 3318   6.475   0.147  13.569
38499W        W 3319  41.537  35.018   3.092
38500W        W 3320  43.226  26.721   4.514
38501W        W 3321   7.920  23.811  11.231
38502W        W 3322   6.342  31.501   2.493
38503W        W 3323   5.263   3.966   2.602
38504W        W 3324  15.512  30.428  11.217
38505W        W 3325  21.779  24.650  14.240
38506W        W 3326   0.763  33.583  12.528
38507W        W 3327  44.837  24.150   2.670
38508W        W 3328  34.754  40.016  13.434
38509W        W 3329   7.070  24.878  14.330
38510W        W 3330  32.651  38.856   3.245
38511W        W 3331  43.951  22.869   1.823
38512W        W 3332  30.903  32.619  12.024
38513W        W 3333  41.001  21.560   2.225
38514W        W 3334  11.146  43.891  11.172
38515W        W 3335   7.909  19.613   3.099
38516W        W 3336  40.830  38.361   1.411
38517W        W 3337  18.272  15.522  14.411
38518W        W 3338   2.293   8.844  12.056
38519W        W 3339  40.251   1.764  12.772
38520W        W 3340   1.915  18.508  14.403
38521W        W 3341  32.456   3.165   4.965
38522W        W 3342  10.187   5.136   0.305
38523W        W 3343  34.181  23.002   4.896
38524W        W 3344  35.044  20.289  12.044
38525W        W 3345  14.566  10.455  11.546
38526W        W 3346  32.614  17.871  10.732
38527W        W 3347   1.124  17.236   3.246
38528W        W 3348   3.025  26.075  12.996
38529W        W 3349  40.420  22.235   3.693
38530W        W 3350  20.851  24.614   4.780
38531W        W 3351   2.007   1.887  11.698
38532W        W 3352  15.632  44.341  13.930
38533W        W 3353  32.000  12.110  13.124
38534W        W 3354  40.898   3.337   4.957
38535W        W 3355  42.549   0.179   4.507
38536W        W 3356  24.543  36.067   3.345
38537W        W 3357  17.182   9.611   2.422
38538W        W 3358  41.727  34.878  11.854
38539W        W 3359  25.512  16.126   0.942
38540W        W 3360  27.561  42.365   3.536
38541W        W 3361  10.937  17.995   0.641
38542W        W 3362   7.545  36.383  12.963
38543W        W 3363  38.626  33.058   0.850
38544W        W 3364  17.316  29.940   2.803
38545W        W 3365  28.707  39.218   1.884
38546W        W 3366  31.120  17.639  13.818
38547W        W 3367   9.196  42.180   2.156
38548W        W 3368  10.818  10.369  10.479
38549W        W 3369  29.506  31.999  12.082
38550W        W 3370   8.732  35.068   1.390
38551W        W 3371  12.772  42.924   3.884
38552W        W 3372  36.657  29.397   2.363
38553W        W 3373   4.278  16.176   1.939
38554W        W 3374  19.768  28.539  14.698
38555W        W 3375  14.540   2.203  12.033
38556W        W 3376  42.317  38.638  11.957
38557W        W 3377   8.883  17.191   3.620
38558W        W 3378  14.491  17.464  11.873
38559W        W 3379  37.523  28.893  13.393
38560W        W 3380  33.559  34.454   3.981
38561W        W 3381  23.116  20.484   0.953
38562W        W 3382  22.020  31.316  14.686
38563W        W 3383  44.243  31.945   3.663
38564W        W 3384   6.335  39.900  14.080
38565W        W 3385  40.585  16.220  13.885
38566W        W 3386  34.943  13.598  11.082
38567W        W 3387   8.312  29.525  14.322
38568W        W 3388  27.641  16.814  10.461
38569W        W 3389   5.839  37.498  11.698
38570W        W 3390  38.347  11.144  12.898
38571W        W 3391  22.209  19.614  12.071
38572W        W 3392  34.998  41.099  11.689
38573W        W 3393  30.423   5.379  11.581
38574W        W 3394  37.059  37.799  11.186
38575W        W 3395  42.293  11.848   0.386
38576W        W 3396   4.336  23.968  14.076
38577W        W 3397  39.399  39.365   2.389
38578W        W 3398  18.515  29.620  13.442
38579W        W 3399   4.016  17.072   3.592
38580W        W 3400   9.626   0.792   4.498
38581W        W 3401  34.949  38.743   3.334
38582W        W 3402  17.651   9.697   1.748
38583W        W 3403  32.530  10.550  11.202
38584W        W 3404  35.417  26.877  13.464
38585W        W 3405   6.965   7.603   0.462
38586W        W 3406  40.818  17.054   3.264
38587W        W 3407  38.750  31.871   5.081
38588W        W 3408  39.897   5.615  14.826
38589W        W 3409  22.527  37.599  13.675
38590W        W 3410  14.580   3.672  14.893
38591W        W 3411  19.217  32.347  14.469
38592W        W 3412  36.396   6.647  14.493
38593W        W 3413  26.806  18.728   0.616
38594W        W 3414  20.042   3.289   1.589
38595W        W 3415  33.227  14.316  12.598
38596W        W 3416  26.282  22.874  11.456
38597W        W 3417  29.994  15.625   0.766
38598W        W 3418  22.051  19.647   4.949
38599W        W 3419  32.895  34.551  12.030
38600W        W 3420  29.431  35.687   1.437
38601W        W 3421   8.676  31.608   5.059
38602W        W 3422  41.958  40.097  14.019
38603W        W 3423  14.301  40.928  14.430
38604W        W 3424   4.174   8.387   1.969
38605W        W 3425  22.739  43.392   2.568
38606W        W 3426  33.414  29.198  12.165
38607W        W 3427   5.743   2.576   2.599
38608W        W 3428  29.141   2.583   1.348
38609W        W 3429  13.192  24.331   2.012
38610W        W 3430  23.150  24.742  10.604
38611W        W 3431  30.400  34.701  10.070
38612W        W 3432  44.058  44.292  10.929
38613W        W 3433  11.946   2.099   3.836
38614W        W 3434  38.470  42.499   0.220
38615W        W 3435  10.335  40.784   0.523
38616W        W 3436  23.200  23.562  12.414
38617W        W 3437   9.402  14.424  11.735
38618W        W 3438  43.826  31.692   1.031
38619W        W 3439  23.251  12.810  13.338
38620W        W 3440  19.902   6.053   4.606
38621W        W 3441  22.244  17.760  12.090
38622W        W 3442  18.024  39.652  10.140
38623W        W 3443   5.781  17.345  14.788
38624W        W 3444  27.397   6.182  14.918
38625W        W 3445  42.873  22.383  12.066
38626W        W 3446   4.243  14.649  10.442
38627W        W 3447   9.399  40.336  11.900
38628W        W 3448   7.062  18.976   4.048
38629W        W 3449   7.096  27.307  14.499
38630W        W 3450  11.664  23.613   0.295
38631W        W 3451   4.158  28.513  10.221
38632W        W 3452  32.556  25.413   0.010
38633W        W 3453  13.860   9.405  14.785
38634W        W 3454  35.152  28.152   4.207
38635W        W 3455  15.670  24.526   3.668
38636W        W 3456  32.527   5.461   3.552
38637W        W 3457  18.582  39.889  10.627
38638W        W 3458   2.991   1.283  14.578
38639W        W 3459  25.991  14.806   3.874
38640W        W 3460   6.297   3.295   0.354
38641W        W 3461  27.931   8.737  11.878
38642W        W 3462   7.452  24.583  13.600
38643W        W 3463  12.877  14.714   4.051
38644W        W 3464  42.836   0.936   0.521
38645W        W 3465   2.299  23.247  12.747
38646W        W 3466  36.537  18.304  11.136
38647W        W 3467   4.290  24.468  10.132
38648W        W 3468  30.000  39.689   0.345
38649W        W 3469  35.712  11.047   5.223
38650W        W 3470  41.725  36.006  14.859
38651W        W 3471  34.609  17.808  13.181
38652W        W 3472  17.300  18.245   2.417
38653W        W 3473  31.135  14.659   3.656
38654W        W 3474  14.937  38.364  14.135
38655W        W 3475   4.021  15.138  10.318
38656W        W 3476   4.827   1.493   1.729
38657W        W 3477  32.450  22.600   3.070
38658W        W 3478  18.307  29.075  13.114
38659W        W 3479  12.266   9.701   1.839
38660W        W 3480  28.675  22.148   2.688
38661W        W 3481  43.924  27.718   2.608
38662W        W 3482  21.620  29.735  13.503
38663W        W 3483   5.292   5.906  11.059
38664W        W 3484   3.632  23.152   4.438
38665W        W 3485  41.986  21.257  14.595
38666W        W 3486  30.002  19.454  10.589
38667W        W 3487  24.302  40.620   5.043
38668W        W 3488   7.775  37.960  12.447
38669W        W 3489  31.145  20.258  11.596
38670W        W 3490   6.293  22.686   2.441
38671W        W 3491   6.498  13.280   4.041
38672W        W 3492   0.721  22.959  11.149
38673W        W 3493  42.506  39.959   2.397
38674W        W 3494   1.755  33.353  12.470
38675W        W 3495  23.545   6.313   1.462
38676W        W 3496  39.977   6.516  11.825
38677W        W 3497  39.147  10.089   2.899
38678W        W 3498   8.694  32.695   0.942
38679W        W 3499  35.064  13.808  12.947
38680W        W 3500   8.071  34.430   4.289
38681W        W 3501   5.680  31.502  11.225
38682W        W 3502  36.603   5.532  14.709
38683W        W 3503  27.618   7.492   3.145
38684W        W 3504  28.306  11.061   3.486
38685W        W 3505  11.229  41.055   1.223
38686W        W 3506  14.211  40.604   1.814
38687W        W 3507   0.397  17.165   2.638
38688W        W 3508  18.700  24.146   0.845
38689W        W 3509  13.332  39.807  10.532
38690W        W 3510   9.549  29.686   0.131
38691W        W 3511  39.200  39.130   1.764
38692W        W 3512  37.915   1.287  10.703
38693W        W 3513   7.178  34.025  14.791
38694W        W 3514   2.532  23.602   2.453
38695W        W 3515  42.364  19.294   0.206
38696W        W 3516  39.308  21.075   1.131
38697W        W 3517   9.874  21.477  13.669
38698W        W 3518   7.110  13.281   1.831
38699W        W 3519  26.951  37.453   1.349
38700W        W 3520  37.891  25.934   1.661
38701W        W 3521   4.288  22.210  12.520
38702W        W 3522  38.890   8.216   1.779
38703W        W 3523  11.975  36.463  14.711
38704W        W 3524   7.906   5.958  11.461
38705W        W 3525  13.476  11.192   3.207
38706W        W 3526  35.510  40.827  11.582
38707W        W 3527  26.190  29.688  12.143
38708W        W 3528  15.809   3.337   3.405
38709W        W 3529  38.916   2.229  13.381
38710W        W 3530   4.244  38.586   3.676
38711W        W 3531  21.156  28.531   0.292
38712W        W 3532  35.891   9.212   3.664
38713W        W 3533  30.036  28.214   0.367
38714W        W 3534  43.978  10.603  11.661
38715W        W 3535  41.429  43.553   1.902
38716W        W 3536  19.612  15.727   0.744
38717W        W 3537  20.601  27.214   0.339
38718W        W 3538   4.352  41.624   2.855
38719W        W 3539  44.698  36.648  10.757
38720W        W 3540  17.634  34.213   4.590
38721W        W 3541  22.506  14.281   3.079
38722W        W 3542  29.688  22.665  10.213
38723W        W 3543   0.521  34.654   2.909
38724W        W 3544  32.669  29.241  14.664
38725W        W 3545  22.808  26.807  11.321
38726W        W 3546  12.362   7.267  11.466
38727W        W 3547  19.714  12.300   2.744
38728W        W 3548  18.393  13.399   2.654
38729W        W 3549  31.927   1.331  11.274
38730W        W 3550  40.186   9.544   4.101
38731W        W 3551   9.014   6.282  13.862
38732W        W 3552  36.429  34.615   0.523
38733W        W 3553  24.661  42.359   4.247
38734W        W 3554   6.448  19.121   2.865
38735W        W 3555  43.513  21.576  11.445
38736W        W 3556  34.522   6.420   0.843
38737W        W 3557  10.242  17.632  13.901
38738W        W 3558   9.415  29.430  12.887
38739W        W 3559   1.413   0.449   2.345
38740W        W 3560  16.256  35.401   4.560
38741W        W 3561  29.659  12.360   0.185
38742W        W 3562  20.089  35.389  10.933
38743W        W 3563  33.342   1.113   1.933
38744W        W 3564  24.249  18.909   0.985
38745W        W 3565   9.830   1.494  14.288
38746W        W 3566  29.602  40.357  10.884
38747W        W 3567  10.944  14.273   0.681
38748W        W 3568  41.718  16.348   0.468
38749W        W 3569  10.306  25.609   3.191
38750W        W 3570  29.033   1.321   2.964
38751W        W 3571  34.474   1.397   4.767
38752W        W 3572  37.051  35.386  11.634
38753W        W 3573  32.281  21.610  14.363
38754W        W 3574  15.071   5.217   3.210
38755W        W 3575  40.299  22.619   2.654
38756W        W 3576  14.189  15.076  14.092
38757W        W 3577  39.487  41.451   2.692
38758W        W 3578  16.303  42.051  13.466
38759W        W 3579  26.770  26.347  11.180
38760W        W 3580   3.468  44.350  10.811
38761W        W 3581  20.944  30.686   1.256
38762W        W 3582  18.490  29.152   0.392
38763W        W 3583   0.523  41.879   3.179
38764W        W 3584  41.293  10.653   9.826
38765W        W 3585  15.823  24.243  14.720
38766W        W 3586  35.986  11.680  13.140
38767W        W 3587  33.817  41.395   2.860
38768W        W 3588  18.062  22.951   3.221
38769W        W 3589   7.034  44.339  12.908
38770W        W 3590  43.561   3.042  11.105
38771W        W 3591   3.711  28.837  14.359
38772W        W 3592  38.601  37.449   2.252
38773W        W 3593  21.799  22.668  10.947
38774W        W 3594  44.447  32.924  12.829
38775W        W 3595   1.938   0.538  12.032
38776W        W 3596  34.493  40.683   1.812
38777W        W 3597   5.722  35.615   1.482
38778W        W 3598  42.360  20.146   4.919
38779W        W 3599  17.740   4.439   2.889
38780W        W 3600  13.780  13.643   2.552
38781W        W 3601   2.452  12.643  10.815
38782W        W 3602  33.471  25.498   2.703
38783W        W 3603   9.168  23.717   0.821
38784W        W 3604  15.129   0.776   4.292
38785W        W 3605   3.781  38.827  12.920
38786W        W 3606  42.405  11.230  12.120
38787W        W 3607   1.626  37.747  13.431
38788W        W 3608  24.942  19.823   3.339
38789W        W 3609  42.596   4.174   1.012
38790W        W 3610  24.496  34.525   1.501
38791W        W 3611  35.057  12.635   2.801
38792W        W 3612  28.556  31.067  11.990
38793W        W 3613   3.212   4.137   4.794
38794W        W 3614  12.237   8.960  12.172
38795W        W 3615  31.336  31.653   3.744
38796W        W 3616  27.675  13.327   4.673
38797W        W 3617   7.716   3.893  12.665
38798W        W 3618  23.614  16.244  11.608
38799W        W 3619  23.266  30.950  11.811
38800W        W 3620  39.905   2.235   4.635
38801W        W 3621  24.385  27.373  11.028
38802W        W 3622   3.161   4.241  11.605
38803W        W 3623  28.426  41.914   1.371
38804W        W 3624   5.158  28.972  11.082
38805W        W 3625  21.262   6.892   0.261
38806W        W 3626  30.924  15.751  13.055
38807W        W 3627  24.182  11.253   0.449
38808W        W 3628  40.817  18.629   2.353
38809W        W 3629  15.210  15.437   5.090
38810W        W 3630  21.528   5.129   2.468
38811W        W 3631  37.708   2.362  11.173
38812W        W 3632  43.288   1.488   4.149
38813W        W 3633   2.512  40.115  11.296
38814W        W 3634  22.969  41.954  11.062
38815W        W 3635  20.992  12.810   0.946
38816W        W 3636   1.828  31.009   1.311
38817W        W 3637  35.861  34.098  14.497
38818W        W 3638  41.437   5.223  10.656
38819W        W 3639  12.811  35.803   2.679
38820W        W 3640  16.959   4.825   4.240
38821W        W 3641  31.082  29.573  12.965
38822W        W 3642   7.624  34.764   0.018
38823W        W 3643  24.488  38.066   0.710
38824W        W 3644  34.144  15.729  11.098
38825W        W 3645  36.877   5.790   2.102
38826W        W 3646  31.650  21.944   2.806
38827W        W 3647   0.896  33.325  11.716
38828W        W 3648  34.580  16.743  10.673
38829W        W 3649  27.978  33.412  13.913
38830W        W 3650  34.991  39.744   0.298
38831W        W 3651  23.663   0.643  11.092
38832W        W 3652  13.863   6.208  12.538
38833W        W 3653  10.624   1.313  13.201
38834W        W 3654  34.995  34.628  13.898
38835W        W 3655   1.840  28.203   1.863
38836W        W 3656  12.118  11.879  14.522
38837W        W 3657  43.841  15.358   4.174
38838W        W 3658  18.214  30.073  14.195
38839W        W 3659  13.583   1.282  13.080
38840W        W 3660  43.414  24.051  12.588
38841W        W 3661   5.703  37.149  12.507
38842W        W 3662  44.200  25.447   3.699
38843W        W 3663  29.390  19.580  12.547
38844W        W 3664   7.085  10.204  14.371
38845W        W 3665  31.485  22.788  11.224
38846W        W 3666  19.157  34.984  13.472
38847W        W 3667  19.226  40.348  10.369
38848W        W 3668   1.220   3.486  11.339
38849W        W 3669   3.502  36.569   1.694
38850W        W 3670  23.333  22.177  12.432
38851W        W 3671  43.819  14.316  14.902
38852W        W 3672   7.086  14.252  12.037
38853W        W 3673  40.078  39.889   2.879
38854W        W 3674   2.715  27.007   0.945
38855W        W 3675  12.583  14.764  12.437
38856W        W 3676  38.932   8.841  13.121
38857W        W 3677  33.305  12.596  12.851
38858W        W 3678  18.112   5.703  14.307
38859W        W 3679  13.206   9.425  14.505
38860W        W 3680  43.332  27.388   0.965
38861W        W 3681  39.514  34.008   0.564
38862W        W 3682  40.887  30.157   2.716
38863W        W 3683  25.647  40.377  10.006
38864W        W 3684  29.502  41.832   1.931
38865W        W 3685  10.842  36.525  14.522
38866W        W 3686   2.998  14.235   2.141
38867W        W 3687   9.845   2.730  11.956
38868W        W 3688  41.431  29.392   4.410
38869W        W 3689  31.456  44.906   4.646
38870W        W 3690  28.064  42.269   3.701
38871W        W 3691  24.898   4.759  11.907
38872W        W 3692  14.894  25.938  11.525
38873W        W 3693   4.868  38.484  10.095
38874W        W 3694  32.697  22.222  13.518
38875W        W 3695   5.661  16.623   4.417
38876W        W 3696  36.185  12.607  12.469
38877W        W 3697  30.392  25.437   2.354
38878W        W 3698  25.009  40.232  13.939
38879W        W 3699  13.373  19.737   0.686
38880W        W 3700  30.729  36.899  13.948
38881W        W 3701  40.526   0.215  13.912
38882W        W 3702  29.089   1.772   3.178
38883W        W 3703  20.980  22.764   3.388
38884W        W 3704  33.786  36.922   1.926
38885W        W 3705  17.787  18.305   3.223
38886W        W 3706  35.393  33.879   4.513
38887W        W 3707   9.692  33.491  12.989
38888W        W 3708  28.539  14.597  10.723
38889W        W 3709  13.062  41.266   1.431
38890W        W 3710  28.893  39.474  10.553
38891W        W 3711  35.382  40.786  12.534
38892W        W 3712  15.211  26.318  13.385
38893W        W 3713   5.288  34.913  10.600
38894W        W 3714  21.496  29.878   2.365
38895W        W 3715  14.085  13.278   3.564
38896W        W 3716  20.962  27.621   0.344
38897W        W 3717  12.336  25.485   2.734
38898W        W 3718  38.575   1.276  12.290
38899W        W 3719   4.598  42.417  11.802
38900W        W 3720  26.791  42.241   4.334
38901W        W 3721  17.568  28.435   3.947
38902W        W 3722  12.225  38.850   0.503
38903W        W 3723   0.716  36.599  14.255
38904W        W 3724  20.302  37.458   5.076
38905W        W 3725  36.394  27.116   2.300
38906W        W 3726   4.386  34.411  14.030
38907W        W 3727  30.054   3.975  13.975
38908W        W 3728  21.016   0.783   2.172
38909W        W 3729  23.079  10.173   1.805
38910W        W 3730   6.152   7.505   2.060
38911W        W 3731  41.590  29.527  14.915
38912W        W 3732  40.269  43.424  13.961
38913W        W 3733  16.271  12.873  11.467
38914W        W 3734  11.944   2.177   0.465
38915W        W 3735  28.440  28.123   3.588
38916W        W 3736  27.483  41.953  11.077
38917W        W 3737   3.856   7.860   2.231
38918W        W 3738   9.718  15.316  13.578
38919W        W 3739   0.360  11.680   2.655
38920W        W 3740   7.676   7.636   4.535
38921W        W 3741  38.031   9.574  14.959
38922W        W 3742  33.122   7.413   0.945
38923W        W 3743  15.822   3.630  10.455
38924W        W 3744   3.351  23.989  13.359
38925W        W 3745   2.763  30.956   4.582
38926W        W 3746  42.507  33.562  10.709
38927W        W 3747   1.248  16.315  13.347
38928W        W 3748  36.068  21.702   0.300
38929W        W 3749  24.727  42.281  12.126
38930W        W 3750  38.097   6.712   0.286
38931W        W 3751   5.186   8.801  11.646
38932W        W 3752  37.031  34.431  12.411
38933W        W 3753  42.499  23.110   2.917
38934W        W 3754  27.192   7.411  11.644
38935W        W 3755  42.291   4.238   4.655
38936W        W 3756  13.147  32.416  13.305
38937W        W 3757  11.617   0.895   0.467
38938W        W 3758   0.539  41.612  13.887
38939W        W 3759  14.642  17.246  11.418
38940W        W 3760  42.189  34.719  12.006
38941W        W 3761   2.328  16.425  14.746
38942W        W 3762  33.683  42.035  13.439
38943W        W 3763   2.605  26.694   4.055
38944W        W 3764  29.610  22.304  14.417
38945W        W 3765   2.009   4.831   4.120
38946W        W 3766  17.576  43.506  14.910
38947W        W 3767  35.674  13.206   2.238
38948W        W 3768  35.285  29.962  13.827
38949W        W 3769  41.308  26.012  12.479
38950W        W 3770   3.747  21.372   0.736
38951W        W 3771   3.892  13.741   0.554
38952W        W 3772   8.294   3.877   2.347
38953W        W 3773  32.150   9.207   2.726
38954W        W 3774  26.623  13.727  13.080
38955W        W 3775  16.133  31.999   0.071
38956W        W 3776   6.753  39.497   2.886
38957W        W 3777  16.390  30.181  13.627
38958W        W 3778  25.448  23.919   4.551
38959W        W 3779  33.047   8.589  11.583
38960W        W 3780  20.216  14.724   2.853
38961W        W 3781  14.074  23.498   3.441
38962W        W 3782   2.513  43.964  14.906
38963W        W 3783  26.531  33.031  13.364
38964W        W 3784  30.414  10.295   1.871
38965W        W 3785  42.578  14.795   0.902
38966W        W 3786  23.186  30.613   0.915
38967W        W 3787  28.870  10.690   1.719
38968W        W 3788   3.432  18.804  11.123
38969W        W 3789  11.584  18.183  13.922
38970W        W 3790  39.883  41.789  11.962
38971W        W 3791  38.851  15.532  10.373
38972W        W 3792  20.028  25.216  11.371
38973W        W 3793   9.724   2.334   0.792
38974W        W 3794  31.453  10.135   4.580
38975W        W 3795  14.931  34.421  13.976
38976W        W 3796   0.679  12.374   4.149
38977W        W 3797  34.396  34.964   3.685
38978W        W 3798   4.159  15.567  10.880
38979W        W 3799  29.109  11.354   4.703
38980W        W 3800   8.909   7.749   3.199
38981W        W 3801  28.197  10.224  12.468
38982W        W 3802  35.898  13.728   0.460
38983W        W 3803  27.888  15.842   1.381
38984W        W 3804   9.338  24.046   2.167
38985W        W 3805  11.556  15.229   3.083
38986W        W 3806  38.355   2.248   2.720
38987W        W 3807  25.499   1.907  12.890
38988W        W 3808  29.092  35.113  14.247
38989W        W 3809  10.161  22.914  14.417
38990W        W 3810  11.237  41.540  14.847
38991W        W 3811  25.082  29.764   0.889
38992W        W 3812   4.171  12.194   4.523
38993W        W 3813  13.603  21.289   4.090
38994W        W 3814   1.932   0.934   1.858
38995W        W 3815  15.664  16.564  11.767
38996W        W 3816  17.124  12.313   3.840
38997W        W 3817  35.067   3.445  11.572
38998W        W 3818  29.024  26.073  13.487
38999W        W 3819  23.680  22.045  14.030
39000W        W 3820  43.441   5.529   3.330
39001W        W 3821  44.392  41.489   1.863
39002W        W 3822  32.204  13.799  13.362
39003W        W 3823  13.693  23.086   2.191
39004W        W 3824  22.438  33.447  11.583
39005W        W 3825  11.682  16.942   2.127
39006W        W 3826   8.825  41.367   4.822
39007W        W 3827  19.510  17.494   0.432
39008W        W 3828  16.588  14.634  11.255
39009W        W 3829  39.292  22.568  14.010
39010W        W 3830  28.197  27.526  11.969
39011W        W 3831  26.902  16.807   3.318
39012W        W 3832  19.681  16.718  13.999
39013W        W 3833  15.138  40.271   1.987
39014W        W 3834  25.053  44.946  13.042
39015W        W 3835  15.444  28.563   2.785
39016W        W 3836  33.970  26.494  11.976
39017W        W 3837  25.411  29.401  11.137
39018W        W 3838  27.193  28.430   1.149
39019W        W 3839  17.290  41.094   3.481
39020W        W 3840  33.861   5.116  10.866
39021W        W 3841  34.166  33.026  11.922
39022W        W 3842   6.135  13.874   4.159
39023W        W 3843  33.997  19.111   1.713
39024W        W 3844  40.039  39.453   1.846
39025W        W 3845  17.635  21.801  11.457
39026W        W 3846   0.853  35.313   0.333
39027W        W 3847  37.338  10.914   1.703
39028W        W 3848  37.876   0.830   2.369
39029W        W 3849  11.591  36.014  13.515
39030W        W 3850  34.573  36.555  14.536
39031W        W 3851  28.618  21.708   2.983
39032W        W 3852   2.916  36.135   0.486
39033W        W 3853  18.318  14.769   0.340
39034W        W 3854  11.307  19.664   4.685
39035W        W 3855   5.204  33.051  12.142
39036W        W 3856  25.178  10.896  14.889
39037W        W 3857  14.229  31.009   2.606
39038W        W 3858  33.321  26.497   3.200
39039W        W 3859   3.941  20.303  14.016
39040W        W 3860   4.731  42.220   0.643
39041W        W 3861  20.843  17.655  11.672
39042W        W 3862   5.376  24.711   0.732
39043W        W 3863  44.002   1.216  13.948
39044W        W 3864   7.742   6.899   3.679
39045W        W 3865  37.770  33.513  12.843
39046W        W 3866   4.115  30.540   0.963
39047W        W 3867   8.854   2.743   3.616
39048W        W 3868  41.430  36.380   4.158
39049W        W 3869  25.305  33.157   3.726
39050W        W 3870  21.806  17.584  13.535
39051W        W 3871  37.958  37.138   4.638
39052W        W 3872   7.949  10.248  14.726
39053W        W 3873  20.877  14.069   0.481
39054W        W 3874  39.666  33.928  13.101
39055W        W 3875  39.561  18.014  11.489
39056W        W 3876  25.523  15.064  11.651
39057W        W 3877  41.281  25.566  14.949
39058W        W 3878   3.228  17.053   1.847
39059W        W 3879  30.868  15.760   3.310
39060W        W 3880  25.645  17.953  13.292
39061W        W 3881   3.449  43.082  11.654
39062W        W 3882  42.688  28.099   1.630
39063W        W 3883  30.545  38.473  11.984
39064W        W 3884  25.953  40.528  13.004
39065W        W 3885  37.083  29.866  12.799
39066W        W 3886  27.958  23.549  10.699
39067W        W 3887   6.270  15.047   0.397
39068W        W 3888  13.301   1.236   1.724
39069W        W 3889  30.895   4.276   4.191
39070W        W 3890   9.112  18.148   0.380
39071W        W 3891  24.607  35.632  14.443
39072W        W 3892   5.693   8.656  10.783
39073W        W 3893  41.726  22.312   0.878
39074W        W 3894  29.758  32.238   1.651
39075W        W 3895  27.698  19.635  11.424
39076W        W 3896  31.180   2.500   0.795
39077W        W 3897  25.220  22.747  13.507
39078W        W 3898  44.878  30.593  10.527
39079W        W 3899  12.083  32.394  13.548
39080W        W 3900  40.412  21.291  13.501
39081W        W 3901  22.414  22.452  14.231
39082W        W 3902   5.411   5.437   1.828
39083W        W 3903  26.398  14.589   1.320
39084W        W 3904  28.392  33.884  14.494
39085W        W 3905  38.357  18.027   0.849
39086W        W 3906  33.013  41.405   1.999
39087W        W 3907  12.671   4.380   2.159
39088W        W 3908   7.652  40.114  10.956
39089W        W 3909  14.665  10.620  14.604
39090W        W 3910  24.433   3.347  12.599
39091W        W 3911  37.886  36.985   0.450
39092W        W 3912  24.587   8.186  10.013
39093W        W 3913   3.976  11.390  14.303
39094W        W 3914   9.764  27.639   3.286
39095W        W 3915  32.192  27.768  11.704
39096W        W 3916  26.935  13.270   1.234
39097W        W 3917  39.860  11.736  13.849
39098W        W 3918   9.105  31.585   0.735
39099W        W 3919  40.738  44.515   3.090
39100W        W 3920   9.371   1.389  14.505
39101W        W 3921  32.386  30.919   2.155
39102W        W 3922  30.821  27.975   4.154
39103W        W 3923  10.312   2.538  11.826
39104W        W 3924  44.449  12.340  14.450
39105W        W 3925  33.351  35.129   3.216
39106W        W 3926  40.104  41.269  12.892
39107W        W 3927  26.059  29.752   4.634
39108W        W 3928   4.219  12.695  14.497
39109W        W 3929  16.987  36.687   3.098
39110W        W 3930  33.662  36.736  12.484
39111W        W 3931  35.889  40.068  13.112
39112W        W 3932  41.235   6.818  13.004
39113W        W 3933  30.962   2.465   4.148
39114W        W 3934  34.473  28.852  14.308
39115W        W 3935  28.175  44.624   5.074
39116W        W 3936  40.413   1.000   4.082
39117W        W 3937   1.262   1.197  14.571
39118W        W 3938  14.350  32.420   0.823
39119W        W 3939  18.189  29.047   4.512
39120W        W 3940  40.296  40.152   4.192
39121W        W 3941  23.125  38.800   1.891
39122W        W 3942  37.496  43.986   2.720
39123W        W 3943  15.746   5.251   2.672
39124W        W 3944  34.489   2.997  11.647
39125W        W 3945  44.307  13.837   4.680
39126W        W 3946  20.859  20.755   1.725
39127W        W 3947  35.205  33.896  12.214
39128W        W 3948  40.350  43.555   2.282
39129W        W 3949   5.026  24.484  12.179
39130W        W 3950  37.907  38.659  10.607
39131W        W 3951  27.674  42.073  12.885
39132W        W 3952  37.823  16.271  14.436
39133W        W 3953  24.185   8.773  13.784
39134W        W 3954   2.056  29.921   1.174
39135W        W 3955  29.915  10.682   0.140
39136W        W 3956  12.790  23.041  14.977
39137W        W 3957  31.166  30.094   3.769
39138W        W 3958  30.212  27.628   1.272
39139W        W 3959  29.408  33.401  14.307
39140W        W 3960  18.452  10.254  10.590
39141W        W 3961  29.748  34.381   2.307
39142W        W 3962   0.250  21.339   2.864
39143W        W 3963  33.457  12.845  11.924
39144W        W 3964   4.871  42.420   2.637
39145W        W 3965  29.865  29.042   0.188
39146W        W 3966   1.973  18.754   4.142
39147W        W 3967  33.908  25.453   0.935
39148W        W 3968  33.123  22.229   2.671
39149W        W 3969   1.244  21.138   4.192
39150W        W 3970  34.829  19.274   3.716
39151W        W 3971  40.373   6.318  13.624
39152W        W 3972  35.098  32.777  12.009
39153W        W 3973   5.959  13.782   1.874
39154W        W 3974  42.853  38.442   4.544
39155W        W 3975  29.420  42.484  11.207
39156W        W 3976   6.135  29.163  11.114
39157W        W 3977  22.585   1.984   4.348
39158W        W 3978  23.095   6.262   3.977
39159W        W 3979  26.491   5.370  13.713
39160W        W 3980  38.462  21.056   3.262
39161W        W 3981  14.599  40.126   4.441
39162W        W 3982  29.900  19.968   4.209
39163W        W 3983   2.635  28.836  10.725
39164W        W 3984  22.344   1.858  11.529
39165W        W 3985  18.461  34.037  11.221
39166W        W 3986  21.545   5.909   5.087
39167W        W 3987  42.249  10.830  13.836
39168W        W 3988  21.017  13.060  12.709
39169W        W 3989  19.035  25.498  10.868
39170W        W 3990  18.455  12.235  13.294
39171W        W 3991  20.981  23.459   2.215
39172W        W 3992  41.079  27.631  12.841
39173W        W 3993  15.568  34.031   1.785
39174W        W 3994   5.458   6.369   3.081
39175W        W 3995  10.131  21.009   4.539
39176W        W 3996  35.058   8.871   3.178
39177W        W 3997  16.574  40.389   4.130
39178W        W 3998   4.671  20.720   3.635
39179W        W 3999  37.023  35.870   3.731
39180W        W 4000   2.824  42.808   0.111
39181W        W 4001  29.486  10.335  13.470
39182W        W 4002  23.603   8.349   0.982
39183W        W 4003   4.966   3.481   3.645
39184W        W 4004   9.884  20.107  13.077
39185W        W 4005  15.717   8.320   0.757
39186W        W 4006  17.100   6.012   3.676
39187W        W 4007  16.225   9.795   3.794
39188W        W 4008  19.883  30.926  12.017
39189W        W 4009   2.096   1.425  10.444
39190W        W 4010   5.397   9.690   1.311
39191W        W 4011  33.936   1.348   1.423
39192W        W 4012  23.796  12.083  10.893
39193W        W 4013  21.670   2.535  11.153
39194W        W 4014   0.406  32.481  13.132
39195W        W 4015  37.075  17.149   1.020
39196W        W 4016  25.040  33.757   0.431
39197W        W 4017  10.330  20.034  12.406
39198W        W 4018   8.358  40.768   3.198
39199W        W 4019  19.688  32.308   4.066
39200W        W 4020  25.431   4.151  12.651
39201W        W 4021  33.346   2.142   2.269
39202W        W 4022  20.723  26.636   2.254
39203W        W 4023   8.565  26.687  14.456
39204W        W 4024  21.867   9.735   2.895
39205W        W 4025  32.385  11.578  11.255
39206W        W 4026  30.485  41.257  11.762
39207W        W 4027  18.607  25.802   2.019
39208W        W 4028  41.220   0.840  13.951
39209W        W 4029  36.988  13.133  10.120
39210W        W 4030   7.341  43.414  14.526
39211W        W 4031  23.784  40.037   0.425
39212W        W 4032   6.792  38.372   0.493
39213W        W 4033  32.093  21.355   1.939
39214W        W 4034   3.315  19.184   0.366
39215W        W 4035  11.314  26.811   3.494
39216W        W 4036  16.172  33.565   2.219
39217W        W 4037   8.494  42.439  11.916
39218W        W 4038  29.733  18.057  14.652
39219W        W 4039   3.813  33.649  11.747
39220W        W 4040  12.038   1.409   3.725
39221W        W 4041  18.299  21.942  10.988
39222W        W 4042  23.505  24.388  13.524
39223W        W 4043  13.618   5.396  12.862
39224W        W 4044  30.605  44.829   3.396
39225W        W 4045   1.921   6.166  10.627
39226W        W 4046  16.617  16.853   4.221
39227W        W 4047  31.863  15.580   9.673
39228W        W 4048  11.302   6.480  14.425
39229W        W 4049  29.973  14.333   4.210
39230W        W 4050   8.878  38.453   2.216
39231W        W 4051  19.761   4.972   3.579
39232W        W 4052  33.357  27.218  11.214
39233W        W 4053  18.853  21.741  11.966
39234W        W 4054  10.618   0.803   4.804
39235W        W 4055  44.131  38.982   3.578
39236W        W 4056  12.972  42.397  13.529
39237W        W 4057  25.982   2.328  13.356
39238W        W 4058  28.047  10.393  11.020
39239W        W 4059  24.665  21.796   1.862
39240W        W 4060  35.677  17.749  14.927
39241W        W 4061  22.912   4.873   2.744
39242W        W 4062  22.981  30.468   2.787
39243W        W 4063   7.891  33.070  11.559
39244W        W 4064  13.713  33.212   4.632
39245W        W 4065  32.513   3.727   1.332
39246W        W 4066   5.856  10.645   3.833
39247W        W 4067  37.515  40.286   1.208
39248W        W 4068  24.539  35.553   0.451
39249W        W 4069  23.467  43.496   1.726
39250W        W 4070  43.794  15.676  13.351
39251W        W 4071  41.078  25.776  11.504
39252W        W 4072   6.326   8.525   5.106
39253W        W 4073   9.150   6.294  10.595
39254W        W 4074  35.897  30.916   4.783
39255W        W 4075  40.053   9.834   3.683
39256W        W 4076  40.654   3.466   1.447
39257W        W 4077  40.356  28.508   3.505
39258W        W 4078  38.895  34.131   0.823
39259W        W 4079  41.738  10.274   5.049
39260W        W 4080  35.565   0.274  10.477
39261W        W 4081  26.125  18.140  13.813
39262W        W 4082  36.811  31.194   1.296
39263W        W 4083   8.396  33.321   0.893
39264W        W 4084  36.119   5.338  10.234
39265W        W 4085  14.231  17.651   4.443
39266W        W 4086  41.250   6.385  13.388
39267W        W 4087  43.260  14.001  12.610
39268W        W 4088   0.502  14.164   4.665
39269W        W 4089  18.306  24.649   1.940
39270W        W 4090  41.367   9.600   1.689
39271W        W 4091   3.962  34.980  11.972
39272W        W 4092  15.993  24.658  11.250
39273W        W 4093   9.772  43.471  14.444
39274W        W 4094  39.399  41.338   0.982
39275W        W 4095  41.612  32.052  14.844
39276W        W 4096  27.899  11.487   0.402
39277W        W 4097   5.525   2.519   1.508
39278W        W 4098  41.613  37.851  14.868
39279W        W 4099  38.807  26.380  14.536
39280W        W 4100  19.473  16.479   1.369
39281W        W 4101  18.731  34.195   3.753
39282W        W 4102   2.647  43.412   1.408
39283W        W 4103  39.149  32.579  11.715
39284W        W 4104  19.648  20.210  10.611
39285W        W 4105  19.025   9.682  13.755
39286W        W 4106   0.426  38.387  10.508
39287W        W 4107  10.057  39.490  10.406
39288W        W 4108   7.444  30.380  14.772
39289W        W 4109  35.466  31.873  11.016
39290W        W 4110   1.273   8.853   0.811
39291W        W 4111  33.977  12.296   1.686
39292W        W 4112  32.438  28.465   5.158
39293W        W 4113  33.548   9.095   0.823
39294W        W 4114   2.856  30.562   1.456
39295W        W 4115  30.647   7.472   0.222
39296W        W 4116  37.873   7.303  13.053
39297W        W 4117  35.522  38.448  13.337
39298W        W 4118   5.290  34.530   3.501
39299W        W 4119  43.435  39.859   1.352
39300W        W 4120  35.925   0.208   0.742
39301W        W 4121  14.542  37.000  12.064
39302W        W 4122  33.012  42.359   2.903
39303W        W 4123   4.166  23.532  12.489
39304W        W 4124  19.750  28.610   0.209
39305W        W 4125  44.150  21.522  14.989
39306W        W 4126  14.551   5.766   1.281
39307W        W 4127   2.776  43.839  10.641
39308W        W 4128  35.659   0.806   2.130
39309W        W 4129   9.141  36.617   2.728
39310W        W 4130  44.829  36.577   4.425
39311W        W 4131  22.982   4.447  11.025
39312W        W 4132  29.488  35.179  13.003
39313W        W 4133  28.990  30.557  12.439
39314W        W 4134  15.801  10.069   2.018
39315W        W 4135  14.316  25.747   2.375
39316W        W 4136  14.588  10.346  12.468
39317W        W 4137  24.186  37.431  13.005
39318W        W 4138  16.266  41.527  14.537
39319W        W 4139  42.517   5.708   0.133
39320W        W 4140  23.332  21.686   2.640
39321W        W 4141  42.323  25.264   0.717
39322W        W 4142   1.924  34.636   0.350
39323W        W 4143   5.343  15.667  13.579
39324W        W 4144  41.974  23.239   0.899
39325W        W 4145  24.642  31.384   4.754
39326W        W 4146  38.370   2.302  14.637
39327W        W 4147   0.828  16.017   2.797
39328W        W 4148   3.609  29.105  10.837
39329W        W 4149  29.383  27.019  10.643
39330W        W 4150  34.546  29.392  12.352
39331W        W 4151  36.261  31.030   2.695
39332W        W 4152  35.652  25.992  11.839
39333W        W 4153  32.409  44.744   3.208
39334W        W 4154  28.501  19.488  11.039
39335W        W 4155  37.333  43.314   1.766
39336W        W 4156  35.657  27.596   1.239
39337W        W 4157   9.017  41.666   2.229
39338W        W 4158  25.154  40.503  11.176
39339W        W 4159  41.853  23.114   1.784
39340W        W 4160  41.781  10.178  12.570
39341W        W 4161  27.199   7.760   0.413
39342W        W 4162   4.336  22.949   3.172
39343W        W 4163  26.191  37.781   0.417
39344W        W 4164   7.705  13.205  10.732
39345W        W 4165  31.432  23.178   1.741
39346W        W 4166  10.166  30.371   1.389
39347W        W 4167  35.845  44.818   4.543
39348W        W 4168  41.984  24.142  11.037
39349W        W 4169  38.745   6.094  11.462
39350W        W 4170  38.022  26.785   4.137
39351W        W 4171  35.639  26.904  14.781
39352W        W 4172  30.126  37.439  10.662
39353W        W 4173  21.271  30.157  12.949
39354W        W 4174  43.386   4.751   4.678
39355W        W 4175  33.552  35.588   1.678
39356W        W 4176   4.268  13.702   2.408
39357W        W 4177  22.143  36.890   4.015
39358W        W 4178  20.426  10.119  12.540
39359W        W 4179   5.499  38.936  11.404
39360W        W 4180  15.313  29.783   1.883
39361W        W 4181  12.109   7.864   1.417
39362W        W 4182  28.575  25.102  11.215
39363W        W 4183  21.193  18.892  11.721
39364W        W 4184  11.288  27.524   2.234
39365W        W 4185  15.621   7.233  12.852
39366W        W 4186   3.250  21.212   5.033
39367W        W 4187  28.563  29.640  11.559
39368W        W 4188   1.810  38.997   0.001
39369W        W 4189   3.244  25.696   5.160
39370W        W 4190   1.494  25.746  13.170
39371W        W 4191   0.222  11.647  14.530
39372W        W 4192  27.991  35.573   1.277
39373W        W 4193  20.939  28.460   4.140
39374W        W 4194  14.278  35.383  12.195
39375W        W 4195  38.114   5.881  14.224
39376W        W 4196   7.003  44.764  14.010
39377W        W 4197  11.250  42.657  13.811
39378W        W 4198   6.863  41.354  13.368
39379W        W 4199  44.497  19.850  11.821
39380W        W 4200  18.630  14.079   1.938
39381W        W 4201  15.328  43.904   1.704
39382W        W 4202   9.757   2.267  13.467
39383W        W 4203  37.517  33.140  13.086
39384W        W 4204  35.249  36.711   3.587
39385W        W 4205  35.406  30.690   4.402
39386W        W 4206  15.695  29.092  11.045
39387W        W 4207  15.447  37.905   3.831
39388W        W 4208   5.888  27.576   1.700
39389W        W 4209  16.740  32.564   3.189
39390W        W 4210  11.880  28.311   0.740
39391W        W 4211   5.523  19.544   0.455
39392W        W 4212  10.801   0.325  14.902
39393W        W 4213  37.000  31.575   2.817
39394W        W 4214   2.480  40.992   0.783
39395W        W 4215  15.815  34.650   0.836
39396W        W 4216  32.107  16.827  12.116
39397W        W 4217  21.027   6.228   3.811
39398W        W 4218   3.523  21.477  10.727
39399W        W 4219  10.959  29.068   2.371
39400W        W 4220  16.058  17.258   1.752
39401W        W 4221  23.486  25.109   2.353
39402W        W 4222  14.400  20.702   1.242
39403W        W 4223   5.939  16.575   1.946
39404W        W 4224   8.832  40.937   1.707
39405W        W 4225  41.760  38.646   1.760
39406W        W 4226  40.971   4.636   0.730
39407W        W 4227   2.461  26.853   0.028
39408W        W 4228   8.687  24.280   3.804
39409W        W 4229  26.674  14.716   0.892
39410W        W 4230  38.230  31.059  11.492
39411W        W 4231  12.212   9.707   3.148
39412W        W 4232  16.379   2.246  12.497
39413W        W 4233  34.630   2.677  14.751
39414W        W 4234  43.742  38.993   1.620
39415W        W 4235  38.322  11.896   1.835
39416W        W 4236  11.192  19.733  12.941
39417W        W 4237  30.414  34.680   5.337
39418W        W 4238  34.904  27.418   0.170
39419W        W 4239  39.850  22.505   1.033
39420W        W 4240  39.624  24.535   1.264
39421W        W 4241   3.857  22.984  11.307
39422W        W 4242  17.040  24.056   2.711
39423W        W 4243  43.547  38.985  13.491
39424W        W 4244  40.980   6.845  12.548
39425W        W 4245   9.242   2.449   4.516
39426W        W 4246   0.389  23.947  12.588
39427W        W 4247   8.479  11.730   1.395
39428W        W 4248  15.702   9.429  13.394
39429W        W 4249  28.655   9.408  14.757
39430W        W 4250  40.842  13.815  14.303
39431W        W 4251  41.917  10.646   2.390
39432W        W 4252  15.146   7.412   3.115
39433W        W 4253  23.758  41.426   0.204
39434W        W 4254   8.972   9.896  14.017
39435W        W 4255  23.991  37.313  11.151
39436W        W 4256   8.314  40.252  12.606
39437W        W 4257  20.652  36.272  12.023
39438W        W 4258  38.324  10.045  14.946
39439W        W 4259  15.862  41.606  13.890
39440W        W 4260  31.346  24.966  12.570
39441W        W 4261  24.627  17.088  13.805
39442W        W 4262  38.810  39.455   1.062
39443W        W 4263  20.783  15.289   2.379
39444W        W 4264  29.473  29.708  14.056
39445W        W 4265  13.755  40.530   2.637
39446W        W 4266  43.437  43.449  12.503
39447W        W 4267  28.632  27.198   2.866
39448W        W 4268  24.608  43.150   2.777
39449W        W 4269   8.852  39.431  14.808
39450W        W 4270   9.750   7.500   0.015
39451W        W 4271   0.896  11.780  13.923
39452W        W 4272  38.868  20.854  12.875
39453W        W 4273  43.897  24.748   3.159
39454W        W 4274  27.574  21.318  12.828
39455W        W 4275  23.155  25.921  14.926
39456W        W 4276  33.983   6.048  11.438
39457W        W 4277   3.471   1.440  14.457
39458W        W 4278  35.570  17.327   3.146
39459W        W 4279  30.590  12.745   3.749
39460W        W 4280  38.820  31.608   2.839
39461W        W 4281   6.380  28.772   0.050
39462W        W 4282  10.919  40.132  14.752
39463W        W 4283  26.541  11.420  11.545
39464W        W 4284  28.098  37.835   4.124
39465W        W 4285  20.120  24.134   4.861
39466W        W 4286  35.914  28.072   3.303
39467W        W 4287  39.832  33.938  12.089
39468W        W 4288  12.826  27.546  13.768
39469W        W 4289   8.150  41.472   2.827
39470W        W 4290  11.841  10.709   0.035
39471W        W 4291  24.461  12.631   2.240
39472W        W 4292  14.136  15.620  14.272
39473W        W 4293  28.697   4.708  10.018
39474W        W 4294  32.452   6.954  14.845
39475W        W 4295  44.107   6.450  14.388
39476W        W 4296   6.764   9.233   4.571
39477W        W 4297  41.441   6.403  14.407
39478W        W 4298   9.730   9.290   2.449
39479W        W 4299  16.368  21.699  11.218
39480W        W 4300  27.768  34.474   2.653
39481W        W 4301  44.044  34.982   2.013
39482W        W 4302  35.141  13.103   9.831
39483W        W 4303  13.556  15.658  12.448
39484W        W 4304  32.051  18.571  13.471
39485W        W 4305  19.239   2.913   4.388
39486W        W 4306  38.913  20.227   3.739
39487W        W 4307  39.577  29.120   2.460
39488W        W 4308  29.684  13.629  12.141
39489W        W 4309   6.164  38.056   2.082
39490W        W 4310   5.871  31.889  14.244
39491W        W 4311  13.609  35.134  14.473
39492W        W 4312   5.922  42.669   2.126
39493W        W 4313   0.445  38.918  13.838
39494W        W 4314  35.977  22.218  14.485
39495W        W 4315  32.420  41.022   4.201
39496W        W 4316  33.527  18.017  12.470
39497W        W 4317  33.865   2.948   4.293
39498W        W 4318  13.118  37.580  13.927
39499W        W 4319   6.930  21.182   3.730
39500W        W 4320  14.032  31.277  12.979
39501W        W 4321  19.978  30.581   3.140
39502W        W 4322  26.621  36.195   4.979
39503W        W 4323  24.226  33.570   0.906
39504W        W 4324  18.788   4.958   0.930
39505W        W 4325  31.594  12.155   0.037
39506W        W 4326  23.928  10.262   0.818
39507W        W 4327  44.523  37.561   0.762
39508W        W 4328  31.404   6.157   1.748
39509W        W 4329   7.169  34.500   0.021
39510W        W 4330  35.419  44.019  12.569
39511W        W 4331   3.961   5.453   1.771
39512W        W 4332  12.601  18.996   2.445
39513W        W 4333  27.499  19.982  14.996
39514W        W 4334  10.171  21.289   1.464
39515W        W 4335  28.070  36.404   0.233
39516W        W 4336  16.109  27.384   1.976
39517W        W 4337   4.337  26.924  13.405
39518W        W 4338  19.266  35.914   0.431
39519W        W 4339  40.530  32.483   0.399
39520W        W 4340  38.871  27.589  14.534
39521W        W 4341  43.577  29.654  12.872
39522W        W 4342  16.024  32.161   1.395
39523W        W 4343  30.502  11.205   4.633
39524W        W 4344  37.017  38.346  14.841
39525W        W 4345  44.050  37.286   5.026
39526W        W 4346   9.801  43.356   2.171
39527W        W 4347  24.240  16.649   0.687
39528W        W 4348  27.235  16.336  13.759
39529W        W 4349  10.291  34.630   1.920
39530W        W 4350  16.582   1.793  12.415
39531W        W 4351   1.032   0.850   0.758
39532W        W 4352   5.861  22.304   3.707
39533W        W 4353  28.206  30.168   2.272
39534W        W 4354   8.357   8.824   3.662
39535W        W 4355  23.067  11.331  11.118
39536W        W 4356  30.629  20.482   1.854
39537W        W 4357   6.975  31.082   3.400
39538W        W 4358  21.373  33.825  13.457
39539W        W 4359   3.662   2.346   1.685
39540W        W 4360   2.703  21.669  13.630
39541W        W 4361   8.336  24.331   4.185
39542W        W 4362  16.168  23.108   3.118
39543W        W 4363  19.097   9.684  12.400
39544W        W 4364  42.135  35.981  10.205
39545W        W 4365  25.182  36.032  14.758
39546W        W 4366  33.749   9.190   2.760
39547W        W 4367   4.272  28.704  12.575
39548W        W 4368  25.690  37.353  14.577
39549W        W 4369  39.508  33.326   3.600
39550W        W 4370  19.124  40.352  14.240
39551W        W 4371  25.949  11.147   4.926
39552W        W 4372   6.866  15.133  13.857
39553W        W 4373  44.186  30.123   4.766
39554W        W 4374  11.357   4.823  14.552
39555W        W 4375  14.183   6.785   2.414
39556W        W 4376  29.401  22.690  12.425
39557W        W 4377  32.663  33.797  11.708
39558W        W 4378   6.733  30.654  14.423
39559W        W 4379  37.949  12.892  11.018
39560W        W 4380  37.659   4.342  14.460
39561W        W 4381  16.523  44.803   2.124
39562W        W 4382  44.755  35.303  13.947
39563W        W 4383   7.137  23.458   4.147
39564W        W 4384  29.614  12.858  10.243
39565W        W 4385  12.601  21.655  12.481
39566W        W 4386  32.913   7.801  14.109
39567W        W 4387  34.055  39.238   3.210
39568W        W 4388  44.525  10.402   4.132
39569W        W 4389  14.751   6.331  12.175
39570W        W 4390  16.599  31.053   3.584
39571W        W 4391  21.558   5.629  12.047
39572W        W 4392  27.092  39.850  10.629
39573W        W 4393   5.784  34.069   3.241
39574W        W 4394  26.711  23.224  13.847
39575W        W 4395  29.164  39.946   0.497
39576W        W 4396  18.213   0.957  11.658
39577W        W 4397   4.791  21.186   0.467
39578W        W 4398  13.815   3.687  13.420
39579W        W 4399  12.942   0.056   1.796
39580W        W 4400   8.471   0.317  11.136
39581W        W 4401  17.074  27.627   3.670
39582W        W 4402  23.662  34.036  14.365
39583W        W 4403  12.137  10.780  12.878
39584W        W 4404  40.349  33.956   1.851
39585W        W 4405  15.690  34.760  11.233
39586W        W 4406  27.677  42.475  14.580
39587W        W 4407  12.296  33.996  12.888
39588W        W 4408  23.459  39.991  13.403
39589W        W 4409  10.923   5.578  14.441
39590W        W 4410  39.737  43.927  10.743
39591W        W 4411  16.095   3.385   1.691
39592W        W 4412   5.645  34.753  11.552
39593W        W 4413  43.397  44.980  13.849
39594W        W 4414  12.134  34.040  10.946
39595W        W 4415  34.829  23.237  11.935
39596W        W 4416  26.954  29.918  14.775
39597W        W 4417  27.738  25.759   3.162
39598W        W 4418  19.906  13.277   3.712
39599W        W 4419  18.903  15.260  13.105
39600W        W 4420  13.140  32.961   1.592
39601W        W 4421  44.892  24.103   0.564
39602W        W 4422  43.082  26.293  14.678
39603W        W 4423  37.047  39.485  12.903
39604W        W 4424   3.650  43.278   4.569
39605W        W 4425  44.514   8.849   0.290
39606W        W 4426   4.376  15.713   3.655
39607W        W 4427  22.994  32.013   4.344
39608W        W 4428  44.361  18.505   4.192
39609W        W 4429  44.773   0.323  13.040
39610W        W 4430  13.623  19.129  12.871
39611W        W 4431  34.197   7.926  12.489
39612W        W 4432  40.290  24.516  12.126
39613W        W 4433  20.178  19.864  14.310
39614W        W 4434  17.861  30.444  11.469
39615W        W 4435  33.510   9.600   0.480
39616W        W 4436   0.217  43.846   2.217
39617W        W 4437  43.524  39.841  11.734
39618W        W 4438  40.061  11.612   0.790
39619W        W 4439  34.576  20.519  11.737
39620W        W 4440  38.365  19.634   4.297
39621W        W 4441  42.264  36.190   4.650
39622W        W 4442  24.524   0.689  13.315
39623W        W 4443  35.421  18.202  13.272
39624W        W 4444  30.795   8.867   0.697
39625W        W 4445  17.022  13.583   0.762
39626W        W 4446  31.289  40.725  12.813
39627W        W 4447   4.465  17.540   4.652
39628W        W 4448  40.755  17.780  10.620
39629W        W 4449  30.916  39.908  11.149
39630W        W 4450  27.162   9.370   0.054
39631W        W 4451  28.224   2.193   4.737
39632W        W 4452  27.589  30.525   4.615
39633W        W 4453  37.319  20.737   0.198
39634W        W 4454  13.593  34.641   2.124
39635W        W 4455  31.239  33.942   3.164
39636W        W 4456  36.532  24.202   4.711
39637W        W 4457   8.170   4.758  13.090
39638W        W 4458  33.991  19.304   2.615
39639W        W 4459   1.430  26.861  13.872
39640W        W 4460   9.841   4.681   3.813
39641W        W 4461  10.097  36.948   2.305
39642W        W 4462  34.117  44.643  12.454
39643W        W 4463   8.156  37.042   4.423
39644W        W 4464   4.410  17.741   0.106
39645W        W 4465  32.236  19.243   2.326
39646W        W 4466  26.695  27.012   2.790
39647W        W 4467  26.521  29.221  11.566
39648W        W 4468  40.914  24.214  11.924
39649W        W 4469   1.014  25.697   4.793
39650W        W 4470  10.450   7.319  13.411
39651W        W 4471  41.042  16.502  12.574
39652W        W 4472   9.833  13.292   1.315
39653W        W 4473  12.488   1.689  14.735
39654W        W 4474  20.583   7.009   0.864
39655W        W 4475  21.624  19.277  12.436
39656W        W 4476  31.210  41.316  10.753
39657W        W 4477  19.657   6.805   3.742
39658W        W 4478  44.619   4.672  13.444
39659W        W 4479  16.269  29.195   1.766
39660W        W 4480  14.104   8.130  10.673
39661W        W 4481  41.097  28.514  13.696
39662W        W 4482  37.012  15.501   1.643
39663W        W 4483  34.458  14.710   0.451
39664W        W 4484  42.570  27.718  12.155
39665W        W 4485  35.649  41.460  14.821
39666W        W 4486  26.212  38.350  13.182
39667W        W 4487  36.435  19.832   2.397
39668W        W 4488  25.030  42.544  12.432
39669W        W 4489  32.322  33.011  11.178
39670W        W 4490  24.580   1.123   2.197
39671W        W 4491  22.001  40.972   3.308
39672W        W 4492   5.212   0.013   3.379
39673W        W 4493  28.472  14.795  11.665
39674W        W 4494  34.423  29.651  13.276
39675W        W 4495  31.979  38.920   1.282
39676W        W 4496   0.862  31.048   4.805
39677W        W 4497  23.717  33.463  11.016
39678W        W 4498  43.863  19.537   2.233
39679W        W 4499  25.940  17.975   3.246
39680W        W 4500  31.462  25.813  12.228
39681W        W 4501  31.530   8.163  13.617
39682W        W 4502  28.733  10.521  13.555
39683W        W 4503  21.310  19.671  10.236
39684W        W 4504  30.405  22.459  10.727
39685W        W 4505  43.922   3.048  12.047
39686W        W 4506   2.739  25.430   1.794
39687W        W 4507   7.130   7.321   1.797
39688W        W 4508  24.511  23.756   2.310
39689W        W 4509  22.063  31.000  12.489
39690W        W 4510  21.471  16.189  13.828
39691W        W 4511  36.841  15.960  13.420
39692W        W 4512  42.266  14.591   3.373
39693W        W 4513   8.709  28.661  11.688
39694W        W 4514  20.197   4.858   1.454
39695W        W 4515   9.365  40.408  10.559
39696W        W 4516   6.891  40.981   2.860
39697W        W 4517   6.171  31.079   2.253
39698W        W 4518   1.326  18.516   1.806
39699W        W 4519  22.462  21.171  11.051
39700W        W 4520  26.340  23.360   1.860
39701W        W 4521  17.238  16.682  10.601
39702W        W 4522  25.211  31.586   4.886
39703W        W 4523  13.320  43.501   4.952
39704W        W 4524  37.090  34.829   2.174
39705W        W 4525   4.640  26.920  14.257
39706W        W 4526  27.967   1.961  13.958
39707W        W 4527  43.995  22.123   0.243
39708W        W 4528  27.203  27.502   3.724
39709W        W 4529   5.341  39.857   3.876
39710W        W 4530  30.084  32.673   1.468
39711W        W 4531   5.835  41.326  11.170
39712W        W 4532  30.878  14.039  14.633
39713W        W 4533  15.124   0.604  12.542
39714W        W 4534  40.430  29.016   5.141
39715W        W 4535  35.129  14.324   3.168
39716W        W 4536  16.796   9.407  14.014
39717W        W 4537  21.282  33.319  13.534
39718W        W 4538  42.564  18.065   2.139
39719W        W 4539  44.936  44.810  12.099
39720W        W 4540  39.013   1.282  13.392
39721W        W 4541   4.836  13.379   3.212
39722W        W 4542  22.600  44.406  12.118
39723W        W 4543  17.050  16.109   0.395
39724W        W 4544   8.907  22.744   4.717
39725W        W 4545  30.466  43.950  13.862
39726W        W 4546  33.379  41.159   4.190
39727W        W 4547  16.186  30.043   3.900
39728W        W 4548  31.561   3.925   3.171
39729W        W 4549  37.431  11.330   3.998
39730W        W 4550  22.100  14.302  13.458
39731W        W 4551  33.152  19.027   3.293
39732W        W 4552  34.651  23.794   5.342
39733W        W 4553  22.498  13.687  11.170
39734W        W 4554  25.453  28.607   2.986
39735W        W 4555  32.527  35.585  13.057
39736W        W 4556  42.014  20.045   4.556
39737W        W 4557  37.520  12.365   4.982
39738W        W 4558  40.629  36.623  13.447
39739W        W 4559   5.313  21.607   3.579
39740W        W 4560  29.891  27.101  12.604
39741W        W 4561  14.708   3.640   1.431
39742W        W 4562  27.525  26.174  12.184
39743W        W 4563  41.521  28.181  14.998
39744W        W 4564  21.245  28.188   3.276
39745W        W 4565  11.698   8.331  14.683
39746W        W 4566  36.868  42.345   0.554
39747W        W 4567   8.635  41.545  12.129
39748W        W 4568  26.390  31.004  14.642
39749W        W 4569   7.013   9.732  11.033
39750W        W 4570  39.488  38.667  11.636
39751W        W 4571  32.523  17.456  10.430
39752W        W 4572   1.303   3.910   3.553
39753W        W 4573  27.764   9.291  12.968
39754W        W 4574  38.351   6.329  14.364
39755W        W 4575  30.038   7.324  13.881
39756W        W 4576  37.393  20.917   2.137
39757W        W 4577  43.490  24.445   4.137
39758W        W 4578  43.685  25.443  12.459
39759W        W 4579  41.017  23.003  14.265
39760W        W 4580  20.649  42.416   4.312
39761W        W 4581  36.099  43.882   3.350
39762W        W 4582   1.632   3.425  11.642
39763W        W 4583  36.336  29.418   2.849
39764W        W 4584   4.808  10.434  11.175
39765W        W 4585   9.298  44.828   4.047
39766W        W 4586  39.701   7.684   2.252
39767W        W 4587  38.072  21.190   0.963
39768W        W 4588  36.245  33.962   3.238
39769W        W 4589   6.381   2.747   4.024
39770W        W 4590  22.168  39.288   2.697
39771W        W 4591  35.265  40.358   2.636
39772W        W 4592  15.087  36.494  14.475
39773W        W 4593  34.379   4.083   1.293
39774W        W 4594  19.137  15.047  10.658
39775W        W 4595  26.944  21.939  13.807
39776W        W 4596  26.489  30.757   2.375
39777W        W 4597  19.690  39.983   1.652
39778W        W 4598  42.555  38.565  12.405
39779W        W 4599  37.210  27.879   4.579
39780W        W 4600  28.794  42.903  11.665
39781W        W 4601  14.713  34.996   1.403
39782W        W 4602  32.473  39.224   2.825
39783W        W 4603  31.377   5.754  13.980
39784W        W 4604  39.576   6.423   4.616
39785W        W 4605  35.272   0.734   0.544
39786W        W 4606  44.972  42.072  12.666
39787W        W 4607  34.695  30.155   3.112
39788W        W 4608  41.277  38.428   1.732
39789W        W 4609  16.654   4.253   1.848
39790W        W 4610  13.178  38.984  11.177
39791W        W 4611  23.236  38.088   2.312
39792W        W 4612  29.540  31.041  13.927
39793W        W 4613  16.913  27.130   1.127
39794W        W 4614  34.368  35.680  11.924
39795W        W 4615  40.390   0.503  11.921
39796W        W 4616   4.746   5.653  12.026
39797W        W 4617  29.750  37.448  11.095
39798W        W 4618  28.660   0.101  14.963
39799W        W 4619   8.247  15.160  13.549
39800W        W 4620  14.189  43.220   1.734
39801W        W 4621  21.287   3.591  12.361
39802W        W 4622  10.996  13.668   0.331
39803W        W 4623   6.059  26.428  12.368
39804W        W 4624   9.236  34.577   1.490
39805W        W 4625  40.181  42.918   4.617
39806W        W 4626  34.277  36.984   0.273
39807W        W 4627  15.476  21.484  11.082
39808W        W 4628  32.808  16.373   0.153
39809W        W 4629  34.404  44.465  10.403
39810W        W 4630  42.203  19.031   2.470
39811W        W 4631  43.048  20.290   1.299
39812W        W 4632  24.803   5.803   2.174
39813W        W 4633   6.331  19.278  13.405
39814W        W 4634   8.184  34.417  13.661
39815W        W 4635  41.275  36.820   2.275
39816W        W 4636  33.133  29.424  13.473
39817W        W 4637  27.482  18.903   0.442
39818W        W 4638  30.669  25.702  11.229
39819W        W 4639   8.467  17.580  12.429
39820W        W 4640  36.000  41.589  11.505
39821W        W 4641  44.728  38.964  10.956
39822W        W 4642  22.980  28.201  14.429
39823W        W 4643   0.210  32.547   0.493
39824W        W 4644  40.695  34.318  13.286
39825W        W 4645  10.329  43.328  13.491
39826W        W 4646   9.155  29.381  10.666
39827W        W 4647  30.497  15.867  14.443
39828W        W 4648  39.578   4.440   4.208
39829W        W 4649  15.764  33.968   3.678
39830W        W 4650   1.288  21.462   5.057
39831W        W 4651   9.419  10.184   2.385
39832W        W 4652  10.621   9.275   2.925
39833W        W 4653  40.294  13.467  11.659
39834W        W 4654  34.311  32.499  12.596
39835W        W 4655  38.073   8.311   2.889
39836W        W 4656  28.965   8.426  10.605
39837W        W 4657  42.337  13.902  11.631
39838W        W 4658  40.432  10.846  12.837
39839W        W 4659  17.185  43.300  13.631
39840W        W 4660  27.161   1.340  10.745
39841W        W 4661  43.159   9.654  14.468
39842W        W 4662  43.326  30.892   2.779
39843W        W 4663  10.847  17.752  13.581
39844W        W 4664  14.591   3.071   0.586
39845W        W 4665   8.849  20.428   0.715
39846W        W 4666  26.549   3.030   3.291
39847W        W 4667  18.780  10.887  13.461
39848W        W 4668  35.394  38.975   0.283
39849W        W 4669  29.982  30.541  11.528
39850W        W 4670  36.152  32.551  14.422
39851W        W 4671  12.852  39.088  12.015
39852W        W 4672  40.448  36.383   3.802
39853W        W 4673  17.165  22.513  11.635
39854W        W 4674  25.625  29.525   0.216
39855W        W 4675   3.207  36.544  13.932
39856W        W 4676  34.995  17.246   9.866
39857W        W 4677  28.455  43.274  10.690
39858W        W 4678  38.274  17.601   5.121
39859W        W 4679  24.693   5.173  13.509
39860W        W 4680  18.008  39.122  10.207
39861W        W 4681  17.145   8.294  13.250
39862W        W 4682   5.782  43.865  11.556
39863W        W 4683  12.233  33.644   2.247
39864W        W 4684  12.371  27.547   3.210
39865W        W 4685  24.480  35.145  13.452
39866W        W 4686  13.221  18.888  13.094
39867W        W 4687  22.982  14.672  13.318
39868W        W 4688  40.039  38.817   2.704
39869W        W 4689  29.878  18.607  14.964
39870W        W 4690  41.839  40.714  10.947
39871W        W 4691  19.991  37.611  12.334
39872W        W 4692  38.842  27.371  11.185
39873W        W 4693  43.307  18.110  13.505
39874W        W 4694  15.688   7.181   1.349
39875W        W 4695  36.134  14.697  12.310
39876W        W 4696  43.810  35.652  13.021
39877W        W 4697  35.029   0.972   0.980
39878W        W 4698   9.627  16.745   0.484
39879W        W 4699  26.701  35.485  11.285
39880W        W 4700   4.858  20.534   0.876
39881W        W 4701  20.660   3.383   3.536
39882W        W 4702   7.246  44.514  11.573
39883W        W 4703  23.652   7.118  14.922
39884W        W 4704  35.325  12.779  14.092
39885W        W 4705  13.623   5.997   2.306
39886W        W 4706   9.567  28.517   2.802
39887W        W 4707  33.136   3.961   2.384
39888W        W 4708  35.656   8.360  12.507
39889W        W 4709   6.756  29.463   2.200
39890W        W 4710  18.840   8.401   0.468
39891W        W 4711   8.917  18.599   0.708
39892W        W 4712  24.709  39.027   0.884
39893W        W 4713  43.362  41.665  11.652
39894W        W 4714  33.966   9.889  10.658
39895W        W 4715  27.469   6.868   1.772
39896W        W 4716   9.264   4.168  12.441
39897W        W 4717  22.755   9.799  13.873
39898W        W 4718  19.385  28.200  12.066
39899W        W 4719  13.140   7.930  10.506
39900W        W 4720  30.464   2.329  12.202
39901W        W 4721  20.529  38.602   0.791
39902W        W 4722   7.375  27.936   0.517
39903W        W 4723  28.199   7.951  13.890
39904W        W 4724  32.428   2.325  12.364
39905W        W 4725   4.910  35.512   1.141
39906W        W 4726  10.184  21.584   1.886
39907W        W 4727  44.035   3.738   4.576
39908W        W 4728  39.926  17.025  11.063
39909W        W 4729   5.662  31.558   3.275
39910W        W 4730  28.918  39.481  13.155
39911W        W 4731   2.962   5.889   4.621
39912W        W 4732  22.516  25.206  14.393
39913W        W 4733  15.383  41.016  14.329
39914W        W 4734  40.164  27.516   4.496
39915W        W 4735  13.470  15.212  11.962
39916W        W 4736  16.721  28.410   2.956
39917W        W 4737  14.715   8.583   0.279
39918W        W 4738  10.828  17.293  12.983
39919W        W 4739  34.142  20.130   1.963
39920W        W 4740   0.528   6.942   3.249
39921W        W 4741   2.683   4.043  12.203
39922W        W 4742   3.406  31.623   1.821
39923W        W 4743   6.358   6.165   3.159
39924W        W 4744  15.478  26.534  12.967
39925W        W 4745  11.530  44.336   4.563
39926W        W 4746  26.725   1.493  12.332
39927W        W 4747  36.621  10.024   0.389
39928W        W 4748  21.187  38.326   2.116
39929W        W 4749  35.880   3.459  12.402
39930W        W 4750  40.538   0.834   3.233
39931W        W 4751   3.321  37.477  10.704
39932W        W 4752  19.051  29.164  14.258
39933W        W 4753  44.660  12.097  14.030
39934W        W 4754   4.495  23.212   1.836
39935W        W 4755   9.728   1.247  12.694
39936W        W 4756  24.036  23.699  13.423
39937W        W 4757  12.591  19.659   3.147
39938W        W 4758   4.778  14.238   0.236
39939W        W 4759  34.634  26.661  13.941
39940W        W 4760  32.834  10.218   0.514
39941W        W 4761  43.568  44.380   3.288
39942W        W 4762  16.826  11.840  11.956
39943W        W 4763   5.754  24.260   1.229
39944W        W 4764  14.076  40.903  12.901
39945W        W 4765  26.698  13.637  10.728
39946W        W 4766   4.213  28.633   1.821
39947W        W 4767  41.158  25.954   3.965
39948W        W 4768  30.617   9.646  10.774
39949W        W 4769   6.357  36.493  10.650
39950W        W 4770  37.482  17.520  14.291
39951W        W 4771  33.908  30.419   3.009
39952W        W 4772  11.332  25.687  12.962
39953W        W 4773  12.734  44.734   4.533
39954W        W 4774   5.445  27.616  11.411
39955W        W 4775  26.634  11.337   0.889
39956W        W 4776   1.244  28.000   1.195
39957W        W 4777   4.793  25.173   2.719
39958W        W 4778  22.982   0.245   2.917
39959W        W 4779  38.933  11.634  14.071
39960W        W 4780   2.404  18.785   1.864
39961W        W 4781   4.877  34.407   3.167
39962W        W 4782  35.961   4.936   1.818
39963W        W 4783  36.047   8.517   2.393
39964W        W 4784  31.783  37.851  13.328
39965W        W 4785  32.625  27.473  14.847
39966W        W 4786   9.708  10.217   1.959
39967W        W 4787  44.407  44.278  12.302
39968W        W 4788   3.884  28.609  12.943
39969W        W 4789   3.419  30.000  14.995
39970W        W 4790  39.344   5.357  14.067
39971W        W 4791  36.305  26.459   4.983
39972W        W 4792  22.003  25.187  14.327
39973W        W 4793  32.701  44.905  11.658
39974W        W 4794  28.430  37.449   1.373
39975W        W 4795  30.008  20.634  13.781
39976W        W 4796  23.227  34.426  10.740
39977W        W 4797  15.678  15.448  11.903
39978W        W 4798  25.252  43.045  13.121
39979W        W 4799   3.895  34.056   3.738
39980W        W 4800  36.074   0.509  14.315
39981W        W 4801  29.136  40.450  10.679
39982W        W 4802  12.631  10.675  12.150
39983W        W 4803  30.097  25.601  10.260
39984W        W 4804   6.884  12.232  12.909
39985W        W 4805  36.662  25.444  14.468
39986W        W 4806   0.033  41.386   2.725
39987W        W 4807  35.563  40.005   3.576
39988W        W 4808  39.409  16.085  10.768
39989W        W 4809  28.989  27.292  11.574
39990W        W 4810  17.026  25.410   5.157
39991W        W 4811   2.547  22.712   0.747
39992W        W 4812   6.371  38.619   4.554
39993W        W 4813   3.081  25.014   1.746
39994W        W 4814  10.800   4.422  11.382
39995W        W 4815  28.849   7.626   3.278
39996W        W 4816  27.298  38.020  11.913
39997W        W 4817  31.443   0.203  12.016
39998W        W 4818  29.509  24.005   9.829
39999W        W 4819  36.087  37.814   0.318
40000W        W 4820  16.257  21.800   0.866
40001W        W 4821  14.013   8.347  11.580
40002W        W 4822  28.570  14.374  14.994
40003W        W 4823  29.595  38.803   4.979
40004W        W 4824   2.357  19.133   1.253
40005W        W 4825  27.682  38.018  11.564
40006W        W 4826  28.356   7.388  11.223
40007W        W 4827  33.788  14.570   1.887
40008W        W 4828  21.394  23.672   4.699
40009W        W 4829  17.676  18.331  14.354
40010W        W 4830  38.079  28.615  12.712
40011W        W 4831  41.364   4.098   2.848
40012W        W 4832  42.267  33.846  11.612
40013W        W 4833  40.729  24.867   1.116
40014W        W 4834   1.507  40.381   2.411
40015W        W 4835  42.936  21.543   0.895
40016W        W 4836  42.390  38.394  11.510
40017W        W 4837  23.060   9.949  12.497
40018W        W 4838  34.074  40.623  13.409
40019W        W 4839  13.813  36.172  11.912
40020W        W 4840   6.249   3.007  14.925
40021W        W 4841  17.813  16.571   0.456
40022W        W 4842  21.674   4.794  11.843
40023W        W 4843  32.515   4.944  12.955
40024W        W 4844  14.479  26.255  10.291
40025W        W 4845  24.498  28.371  11.087
40026W        W 4846  43.399   0.875   1.213
40027W        W 4847  40.387   3.325   1.012
40028W        W 4848  27.578  33.876   2.252
40029W        W 4849  20.334  16.197  11.902
40030W        W 4850  16.717  29.374   0.847
40031W        W 4851  18.259  25.512  13.731
40032W        W 4852   0.466  23.313  10.658
40033W        W 4853  30.917  33.907  12.959
40034W        W 4854  30.925  27.986  12.931
40035W        W 4855  37.327  44.373   0.279
40036W        W 4856  38.998  21.632   0.635
40037W        W 4857  43.065  11.646  10.757
40038W        W 4858  43.568   2.165   1.048
40039W        W 4859  39.404  18.034  14.944
40040W        W 4860  43.981  38.771  12.507
40041W        W 4861   6.090   2.461  12.076
40042W        W 4862  17.644  11.073   4.461
40043W        W 4863  43.322  19.265   4.818
40044W        W 4864   4.085  20.349  12.928
40045W        W 4865  12.807  29.618  13.002
40046W        W 4866  30.195   0.300  14.027
40047W        W 4867   2.726  10.302   1.935
40048W        W 4868   0.573  34.120   1.339
40049W        W 4869  14.255  25.515  10.768
40050W        W 4870  30.466   5.673  14.960
40051W        W 4871  23.733  13.576   4.232
40052W        W 4872  43.066  20.165  11.078
40053W        W 4873  37.273  19.569   2.607
40054W        W 4874  31.168  25.985   3.180
40055W        W 4875   3.311   1.874  12.158
40056W        W 4876  41.565  11.347  13.247
40057W        W 4877   5.876  11.302  11.032
40058W        W 4878   3.208  18.021   0.545
40059W        W 4879  42.319  35.434  11.218
40060W        W 4880  14.334   3.075   2.328
40061W        W 4881  41.621   2.168  11.654
40062W        W 4882  41.977  38.783  10.260
40063W        W 4883   8.766   2.330   0.825
40064W        W 4884  41.265   3.185   2.261
40065W        W 4885  36.284  25.632  13.033
40066W        W 4886  44.498  12.268  12.177
40067W        W 4887  42.152   6.700   2.653
40068W        W 4888  19.888  16.850  10.306
40069W        W 4889  20.322   0.355   1.745
40070W        W 4890  32.180  24.697   1.445
40071W        W 4891  35.595  10.592   1.960
40072W        W 4892  40.861  27.444   3.669
40073W        W 4893  10.874  17.014   4.590
40074W        W 4894  32.974  25.859  10.233
40075W        W 4895  21.357  29.698  12.202
40076W        W 4896  44.571  14.554  14.847
40077W        W 4897  36.885  35.902  13.621
40078W        W 4898   7.963  43.691   0.298
40079W        W 4899  19.057   2.038   4.055
40080W        W 4900  40.025  24.148   1.902
40081W        W 4901  17.199  18.995  14.021
40082W        W 4902  11.213  16.047   0.235
40083W        W 4903   7.859  21.458  12.862
40084W        W 4904  30.179  21.978  10.750
40085W        W 4905  11.047  14.220  13.466
40086W        W 4906  40.253   3.339   4.194
40087W        W 4907  18.640  38.131  14.405
40088W        W 4908  36.874  21.371  12.911
40089W        W 4909  33.700  15.648  12.370
40090W        W 4910  42.057  23.286   2.690
40091W        W 4911  34.347  14.140  12.595
40092W        W 4912  34.910  13.744   0.025
40093W        W 4913  22.418  36.456  11.978
40094W        W 4914   2.927  30.074   1.231
40095W        W 4915  40.328   9.797  13.907
40096W        W 4916  28.193  36.015   1.449
40097W        W 4917  24.268   1.954   2.943
40098W        W 4918  29.644  11.344  12.413
40099W        W 4919  37.999  24.398   2.618
40100W        W 4920  12.936  33.465   1.720
40101W        W 4921  42.390  13.832  10.715
40102W        W 4922  17.248  23.525   1.234
40103W        W 4923  32.215  18.040  12.539
40104W        W 4924   0.719   4.585   3.261
40105W        W 4925  37.640  37.407  14.519
40106W        W 4926  21.741   9.067   1.245
40107W        W 4927  23.599   6.161  13.932
40108W        W 4928  20.888   3.822   1.505
40109W        W 4929  37.123   7.665  14.677
40110W        W 4930  16.981  14.337   1.766
40111W        W 4931   5.857  33.317   0.902
40112W        W 4932  12.834  34.208  12.145
40113W        W 4933   1.103  28.764   1.880
40114W        W 4934   7.229  21.114   1.119
40115W        W 4935   3.360   7.121   4.174
40116W        W 4936  21.761  15.081   3.771
40117W        W 4937   0.251  34.397   0.994
40118W        W 4938  31.900  22.748  10.348
40119W        W 4939  13.174  11.824  10.308
40120W        W 4940  42.103  42.855   3.676
40121W        W 4941  43.931  28.238  14.930
40122W        W 4942  11.811   9.067   4.193
40123W        W 4943  15.816   7.910   5.025
40124W        W 4944  29.506  24.709   4.110
40125W        W 4945  31.535  10.608  12.412
40126W        W 4946  38.415  15.910  12.699
40127W        W 4947  32.514   5.221   1.149
40128W        W 4948  35.561  29.842   3.272
40129W        W 4949  32.355  39.908  13.437
40130W        W 4950  17.525  37.158   1.784
40131W        W 4951  13.380  27.048  13.873
40132W        W 4952  23.232  19.202   1.700
40133W        W 4953  38.282  24.754  10.947
40134W        W 4954  34.809  38.295  11.620
40135W        W 4955   7.804   7.360  13.482
40136W        W 4956  24.470   5.890   0.470
40137W        W 4957  33.876  27.434  13.986
40138W        W 4958   9.524   6.297  13.954
40139W        W 4959   7.907  38.270  13.429
40140W        W 4960  19.576  42.428  14.164
40141W        W 4961  38.493  12.905   2.702
40142W        W 4962  39.086  32.922   2.441
40143W        W 4963  31.425  21.954  12.049
40144W        W 4964  30.446   7.195  14.833
40145W        W 4965   1.027  10.443   4.230
40146W        W 4966  39.459  23.800   0.375
40147W        W 4967  22.741  35.170  11.948
40148W        W 4968   7.492   9.753  11.239
40149W        W 4969  41.999  29.567   1.415
40150W        W 4970  22.137  16.904   1.126
40151W        W 4971  33.246  32.890   5.047
40152W        W 4972   2.451  17.699  11.228
40153W        W 4973  22.561  39.344   0.713
40154W        W 4974  24.958  31.913  14.824
40155W        W 4975  36.060   0.259  13.865
40156W        W 4976  34.796  10.402  13.115
40157W        W 4977  40.848  29.524   0.481
40158W        W 4978  25.800   7.766   4.086
40159W        W 4979  37.941  36.118   3.116
40160W        W 4980   5.920  24.047   0.296
40161W        W 4981   4.148  20.833  12.746
40162W        W 4982  39.778  19.212  12.096
40163W        W 4983  23.979  25.466   3.914
40164W        W 4984  15.747   2.280   1.588
40165W        W 4985  22.336  18.228  13.860
40166W        W 4986  39.845  37.494  11.134
40167W        W 4987  40.890  16.581   3.406
40168W        W 4988  40.385  44.981  13.398
40169W        W 4989  14.718  22.067  11.034
40170W        W 4990  12.802  39.759  13.907
40171W        W 4991  26.544  25.406  10.990
40172W        W 4992  16.266  28.757   3.657
40173W        W 4993   7.859  17.815  11.153
40174W        W 4994   7.684  31.566   1.831
40175W        W 4995  38.451   4.081   2.271
40176W        W 4996  18.073  24.760   3.644
40177W        W 4997  39.019  28.044  14.325
40178W        W 4998  39.229  25.647   1.873
40179W        W 4999  39.308  29.980  12.654
40180W        W 5000  18.016  21.251   2.688
40181W        W 5001   8.238  26.080   3.236
40182W        W 5002   5.741  13.714  12.617
40183W        W 5003   9.766  29.079   4.968
40184W        W 5004  40.274  10.781   1.194
40185W        W 5005  25.034  22.207   1.917
40186W        W 5006   9.721  33.065  14.996
40187W        W 5007   5.909  37.099  12.017
40188W        W 5008  32.548  11.728   1.637
40189W        W 5009   7.933  10.200  12.155
40190W        W 5010  21.701  17.658   2.154
40191W        W 5011   6.404  21.112   4.567
40192W        W 5012  36.641   7.345   2.414
40193W        W 5013   3.778  18.831  12.912
40194W        W 5014  29.012  22.843  13.579
40195W        W 5015   2.478  19.701  11.554
40196W        W 5016  41.903   3.320  12.556
40197W        W 5017   6.448   8.206  12.485
40198W        W 5018  36.168  15.171   1.869
40199W        W 5019  37.905  31.021   1.862
40200W        W 5020  28.564   0.306   1.268
40201W        W 5021  24.789  28.153  11.453
40202W        W 5022  33.046  20.303  10.614
40203W        W 5023   4.768  32.959  11.878
40204W        W 5024  26.004  31.151  12.664
40205W        W 5025   8.417  12.032   3.147
40206W        W 5026  27.188  21.652  12.836
40207W        W 5027  43.318  44.424   3.738
40208W        W 5028   6.985  42.860   4.595
40209W        W 5029  13.608  34.596  14.585
40210W        W 5030  37.475  25.398   4.277
40211W        W 5031  29.048  42.761  14.786
40212W        W 5032   8.111  10.575   0.469
40213W        W 5033  19.664  35.082   2.455
40214W        W 5034  25.109  20.271   0.223
40215W        W 5035  21.077  17.174  12.835
40216W        W 5036  43.963   9.738   1.380
40217W        W 5037   8.854  23.848  11.123
40218W        W 5038  34.845  20.519   3.235
40219W        W 5039  26.718  43.688   2.725
40220W        W 5040   2.326   2.244  12.128
40221W        W 5041  37.390  24.753  11.123
40222W        W 5042  10.340  19.626   2.667
40223W        W 5043  19.175  26.850  10.633
40224W        W 5044  23.147  16.806  11.893
40225W        W 5045  20.358   7.939   1.805
40226W        W 5046  42.318   1.980  11.133
40227W        W 5047  39.292  41.791  10.655
40228W        W 5048  19.876  40.023  11.573
40229W        W 5049  10.231  14.764  14.582
40230W        W 5050   1.246  10.310   0.667
40231W        W 5051  14.371   1.662  11.185
40232W        W 5052   5.800  41.296  12.117
40233W        W 5053  32.359   9.756  13.006
40234W        W 5054  14.330   2.372  10.793
40235W        W 5055   3.935  35.282   1.143
40236W        W 5056  16.150  14.472  14.075
40237W        W 5057  34.998  10.137   1.304
40238W        W 5058  31.239   6.503  12.081
40239W        W 5059  16.432  32.080  12.574
40240W        W 5060   7.860  32.343  12.437
40241W        W 5061  35.632  21.497  14.566
40242W        W 5062   9.954   6.468   4.176
40243W        W 5063  22.320   1.828   2.654
40244W        W 5064  23.291  43.467  13.133
40245W        W 5065  32.673   9.649   4.595
40246W        W 5066  12.358   3.912   3.727
40247W        W 5067  13.490  15.274   2.245
40248W        W 5068  37.878  32.786   1.239
40249W        W 5069  24.744  19.167  14.791
40250W        W 5070  42.805   2.270  11.063
40251W        W 5071  28.385  29.677  13.344
40252W        W 5072   5.341   3.598  12.134
40253W        W 5073  36.900   6.933   0.772
40254W        W 5074  30.375   5.959  13.115
40255W        W 5075  38.064  14.871  10.575
40256W        W 5076  43.747   5.601   2.879
40257W        W 5077  42.628  19.431   2.409
40258W        W 5078   2.883  29.360   1.486
40259W        W 5079  40.753  12.610  14.836
40260W        W 5080  27.806  20.079  10.440
40261W        W 5081  42.831  42.595   4.077
40262W        W 5082  33.386  43.478  10.708
40263W        W 5083  37.763   4.371   1.818
40264W        W 5084   5.809  38.454  11.606
40265W        W 5085  36.121  23.302   2.216
40266W        W 5086  30.723  38.064  12.211
40267W        W 5087   8.711  42.933  14.706
40268W        W 5088  15.770  35.466   3.620
40269W        W 5089  39.537  19.459  11.632
40270W        W 5090  26.097  37.350   3.136
40271W        W 5091   8.661  39.320   4.635
40272W        W 5092  20.586   8.875  13.585
40273W        W 5093  36.174  11.050   5.572
40274W        W 5094  32.826  13.435   4.123
40275W        W 5095  23.318   0.966  12.378
40276W        W 5096  43.104   4.764  11.994
40277W        W 5097  11.801  36.347   0.521
40278W        W 5098  23.020  23.032   2.714
40279W        W 5099  32.671  24.571   1.401
40280W        W 5100  14.098  24.034  10.968
40281W        W 5101  17.214   9.200  14.264
40282W        W 5102  16.244  25.963   3.265
40283W        W 5103  42.958  27.743   1.903
40284W        W 5104  26.228  14.504   4.822
40285W        W 5105  12.245  29.515   2.180
40286W        W 5106  36.217  26.404   3.604
40287W        W 5107  18.816  34.437   0.924
40288W        W 5108  15.808   2.161   1.091
40289W        W 5109  11.851  26.904  13.918
40290W        W 5110  29.608  15.513  11.081
40291W        W 5111   1.610  36.977  11.874
40292W        W 5112  18.177  37.888  11.960
40293W        W 5113  15.124   4.868   4.741
40294W        W 5114  44.786   7.184   0.911
40295W        W 5115  32.390  40.985  14.354
40296W        W 5116  27.138  25.494  14.636
40297W        W 5117  23.431  44.381   3.165
40298W        W 5118  14.649   1.047  14.338
40299W        W 5119  18.162   7.923   1.128
40300W        W 5120  44.827   6.496  11.700
40301W        W 5121  38.800  16.640  10.360
40302W        W 5122  38.114  20.650   3.243
40303W        W 5123  26.082  12.268  11.453
40304W        W 5124  21.914  28.968   1.494
40305W        W 5125  30.111   4.463   2.550
40306W        W 5126  20.480  16.302   3.296
40307W        W 5127  13.144  30.929  13.195
40308W        W 5128  12.712  26.568   2.415
40309W        W 5129  32.101  13.191   1.156
40310W        W 5130  20.006   2.271   0.753
40311W        W 5131  15.808  41.392   3.261
40312W        W 5132  33.452   4.915   0.798
40313W        W 5133  25.707  44.291   1.499
40314W        W 5134  27.999  16.040   3.751
40315W        W 5135   3.754  41.996  13.412
40316W        W 5136  26.569  37.308  14.087
40317W        W 5137  21.788  22.432  13.376
40318W        W 5138  23.112  25.095  13.998
40319W        W 5139  15.308  27.732   1.206
40320W        W 5140  26.128  39.709   3.625
40321W        W 5141  28.662   6.132   4.032
40322W        W 5142  13.896   5.866  14.098
40323W        W 5143  38.860  40.892   0.766
40324W        W 5144  44.701  43.002  11.587
40325W        W 5145  27.888  38.503  13.741
40326W        W 5146  40.566  17.731   0.284
40327W        W 5147  12.850  22.672   4.239
40328W        W 5148  39.891  25.669   0.318
40329W        W 5149  32.624  36.935   4.724
40330W        W 5150  39.852  42.816   5.026
40331W        W 5151  22.011   5.331  10.810
40332W        W 5152   6.624   4.275   0.407
40333W        W 5153   4.562   4.844  10.719
40334W        W 5154  40.511  40.810   1.497
40335W        W 5155  24.384  41.261   3.533
40336W        W 5156  28.973  26.712  10.699
40337W        W 5157  15.167   3.396  11.134
40338W        W 5158  11.228  19.815  10.926
40339W        W 5159  12.161  29.448  13.799
40340W        W 5160  36.563  13.875   3.134
40341W        W 5161   1.905   4.180   0.804
40342W        W 5162  29.987  34.388  12.903
40343W        W 5163  14.608  21.185   0.413
40344W        W 5164   0.385  44.531  12.136
40345W        W 5165  38.985  37.852   1.636
40346W        W 5166   9.450   1.364   0.014
40347W        W 5167   5.929  40.545  11.587
40348W        W 5168   1.440  12.389  13.571
40349W        W 5169   0.194  10.831  12.552
40350W        W 5170  16.228  14.809  12.269
40351W        W 5171  29.286  14.989  13.813
40352W        W 5172  41.921  40.750   3.178
40353W        W 5173   8.620  30.980  13.895
40354W        W 5174   8.885  26.950  14.815
40355W        W 5175   6.912  29.281   0.803
40356W        W 5176  20.605  25.479   3.895
40357W        W 5177  20.487  43.602   1.949
40358W        W 5178  16.973  18.360  12.836
40359W        W 5179   4.621  28.513  14.994
40360W        W 5180  11.809  11.668  10.940
40361W        W 5181  39.998   6.167  13.015
40362W        W 5182  29.677  35.353  11.612
40363W        W 5183  24.267   6.501   5.008
40364W        W 5184   5.291  11.079  14.720
40365W        W 5185   9.142  35.960   5.056
40366W        W 5186   9.323  11.301  13.477
40367W        W 5187  30.573  34.591   3.416
40368W        W 5188  21.669  30.882   3.742
40369W        W 5189  19.253  32.850   4.424
40370W        W 5190  29.014  12.449   2.220
40371W        W 5191  23.535  44.589  13.043
40372W        W 5192  41.573   5.843   0.397
40373W        W 5193  34.005  17.683   5.498
40374W        W 5194   2.838  42.994  10.972
40375W        W 5195  29.587  14.693  10.707
40376W        W 5196  33.509  32.109  13.522
40377W        W 5197  42.487  41.582  12.311
40378W        W 5198   7.037  28.741   4.166
40379W        W 5199  35.592   1.144   3.944
40380W        W 5200  15.616  44.032   0.277
40381W        W 5201  31.559  34.009  14.110
40382W        W 5202  22.473  29.762   4.046
40383W        W 5203  10.761   9.716   2.142
40384W        W 5204  36.943   5.779  10.363
40385W        W 5205   2.845  22.562  13.255
40386W        W 5206  22.319  13.966   9.983
40387W        W 5207  36.218   2.828  10.610
40388W        W 5208  19.107  19.094   0.972
40389W        W 5209   4.749  13.357  14.229
40390W        W 5210  20.159  26.118   3.880
40391W        W 5211  18.695   8.328  11.733
40392W        W 5212   4.897  21.950   1.461
40393W        W 5213  22.372  44.979  12.569
40394W        W 5214  15.601  36.898  14.041
40395W        W 5215   8.353  21.751  13.679
40396W        W 5216  39.024  25.202  11.462
40397W        W 5217  37.806  34.543  11.965
40398W        W 5218  31.084  25.078  13.010
40399W        W 5219   2.219   1.952  10.356
40400W        W 5220  29.734  38.072  12.132
40401W        W 5221  24.863  30.858   0.759
40402W        W 5222  43.392  11.918  11.665
40403W        W 5223  26.267  15.266   0.351
40404W        W 5224  16.328  22.264   1.649
40405W        W 5225  29.111  18.327   4.619
40406W        W 5226   2.847   4.006  13.047
40407W        W 5227  40.835  38.048   3.207
40408W        W 5228  10.493  44.217   4.144
40409W        W 5229   5.998  19.511  12.278
40410W        W 5230  36.981   7.219   4.945
40411W        W 5231  17.140   2.185  11.831
40412W        W 5232  14.894  15.884  13.033
40413W        W 5233   7.854  28.850  10.572
40414W        W 5234  35.412  16.643  12.724
40415W        W 5235  42.499  42.136  11.570
40416W        W 5236   1.320  24.451   4.774
40417W        W 5237   0.926  18.676   2.110
40418W        W 5238   1.392  32.689   0.757
40419W        W 5239  41.989   3.328   4.982
40420W        W 5240  22.946  30.702   3.264
40421W        W 5241  13.328  10.287  14.193
40422W        W 5242   1.520  14.905   0.699
40423W        W 5243   5.466  13.904   1.211
40424W        W 5244  23.280  31.664   3.216
40425W        W 5245  42.269  39.794  11.205
40426W        W 5246   2.416  40.925   3.610
40427W        W 5247  29.958  34.084  14.569
40428W        W 5248  25.114  35.047  14.921
40429W        W 5249   5.112  16.822   1.832
40430W        W 5250  22.989   7.173   2.205
40431W        W 5251  34.873  41.819  10.811
40432W        W 5252  11.857   2.134   2.728
40433W        W 5253   1.345  21.227   0.283
40434W        W 5254  36.831  42.664   2.769
40435W        W 5255  31.581   2.891  11.580
40436W        W 5256  28.123  22.260   3.499
40437W        W 5257  18.458  10.161   4.935
40438W        W 5258   1.764  40.441  14.039
40439W        W 5259  23.166  16.951   4.068
40440W        W 5260  37.008  22.242   1.655
40441W        W 5261  24.606  23.200  14.463
40442W        W 5262  37.784  10.349  13.458
40443W        W 5263  13.090   0.206  14.734
40444W        W 5264  20.900   6.868   2.856
40445W        W 5265  34.953  33.413   3.574
40446W        W 5266   4.470  32.002  11.702
40447W        W 5267   2.890  19.003   1.270
40448W        W 5268   2.155  27.292  13.372
40449W        W 5269   5.854  39.327   4.351
40450W        W 5270   9.426  39.956   2.721
40451W        W 5271  24.775  31.005  13.811
40452W        W 5272  20.626  43.397  11.413
40453W        W 5273  34.573  32.697   1.480
40454W        W 5274  43.472   8.793   1.402
40455W        W 5275  19.023  23.825   3.542
40456W        W 5276  31.711  41.955   3.700
40457W        W 5277   9.154   4.966  14.957
40458W        W 5278  13.196  44.681   0.010
40459W        W 5279  33.902  41.689  14.667
40460W        W 5280  13.659  25.711  10.720
40461W        W 5281   0.511  34.174  14.086
40462W        W 5282  17.751  32.207  13.588
40463W        W 5283  32.337  21.070   3.666
40464W        W 5284  13.181  43.945   0.224
40465W        W 5285   5.361  10.370  12.342
40466W        W 5286  10.515  14.356  14.771
40467W        W 5287  11.132  24.182  13.014
40468W        W 5288   4.128  15.583   2.625
40469W        W 5289   1.884  25.490   0.419
40470W        W 5290  12.659  43.509  14.453
40471W        W 5291  41.430  39.489   4.554
40472W        W 5292  36.661  38.053   4.721
40473W        W 5293  14.602  41.512   0.848
40474W        W 5294  15.615   0.402   2.755
40475W        W 5295   1.727  32.842   4.154
40476W        W 5296  15.278   4.307  10.713
40477W        W 5297  11.779   3.420  11.503
40478W        W 5298  26.863  36.604  10.247
40479W        W 5299  22.469  36.421  14.904
40480W        W 5300   5.924  44.926  10.637
40481W        W 5301   7.427  15.116  14.417
40482W        W 5302   6.432  12.545   0.376
40483W        W 5303  11.421   1.398   1.974
40484W        W 5304   1.250  30.883   2.676
40485W        W 5305  40.361  24.219  10.705
40486W        W 5306   4.307  12.736   0.892
40487W        W 5307  41.738   3.304  10.456
40488W        W 5308  21.448  43.596   2.873
40489W        W 5309  27.057   3.532   0.237
40490W        W 5310  41.476  11.461  12.317
40491W        W 5311  33.391   8.703   4.640
40492W        W 5312  17.091  43.726   2.821
40493W        W 5313  36.283  23.542   1.782
40494W        W 5314  30.456  28.262  12.890
40495W        W 5315  44.196  17.599  10.046
40496W        W 5316  14.715  21.749  14.617
40497W        W 5317  36.110  17.609  13.475
40498W        W 5318  28.877  32.039  13.539
40499W        W 5319  19.768  36.503  14.954
40500W        W 5320   3.811   0.401   0.065
40501W        W 5321  24.393  22.431   0.697
40502W        W 5322  21.176   0.463   2.528
40503W        W 5323  28.455  44.299  12.923
40504W        W 5324  12.861  31.892   1.095
40505W        W 5325   2.368  29.711  12.063
40506W        W 5326  36.742  26.373   0.522
40507W        W 5327   1.229  34.111   1.740
40508W        W 5328  13.899  26.715  10.474
40509W        W 5329   1.826   3.985   3.612
40510W        W 5330  35.039  35.362  12.508
40511W        W 5331  40.480  26.283  14.986
40512W        W 5332  38.931  19.678  13.948
40513W        W 5333  33.811  23.988   1.785
40514W        W 5334  28.892  11.881  10.717
40515W        W 5335  41.045  27.584   2.374
40516W        W 5336  10.788  26.073  11.458
40517W        W 5337  29.019  12.770   2.718
40518W        W 5338   9.174  14.686   1.639
40519W        W 5339  37.779  17.825   5.022
40520W        W 5340   4.633   1.544  11.051
40521W        W 5341  27.138  38.394   4.782
40522W        W 5342  32.667  32.477  14.353
40523W        W 5343  19.341  38.494  14.518
40524W        W 5344   0.215  42.379   2.869
40525W        W 5345   2.411   5.841  12.049
40526W        W 5346   0.963  10.941   1.748
40527W        W 5347  39.012  40.721   2.975
40528W        W 5348  11.850  32.138   1.801
40529W        W 5349  15.633  31.850   3.222
40530W        W 5350  44.152  13.119  12.674
40531W        W 5351   0.749   4.959  11.574
40532W        W 5352   0.347  15.339   2.143
40533W        W 5353  23.943  33.873   2.566
40534W        W 5354  22.045  14.742   4.635
40535W        W 5355  24.033   3.219  11.010
40536W        W 5356  19.101  17.990  14.707
40537W        W 5357  42.569  13.862  13.079
40538W        W 5358  29.457  13.138   4.099
40539W        W 5359  40.522  42.905   1.417
40540W        W 5360  12.229  31.364   2.635
40541W        W 5361  21.682  34.922  13.795
40542W        W 5362  37.390   2.666   1.904
40543W        W 5363  23.140  24.613  14.257
40544W        W 5364  24.491  16.717   4.883
40545W        W 5365   5.148  31.365  14.317
40546W        W 5366  21.786   2.475   4.079
40547W        W 5367  32.775  18.221   3.630
40548W        W 5368  24.174   1.554  14.426
40549W        W 5369  15.177  18.323   0.052
40550W        W 5370  21.657   5.417   0.745
40551W        W 5371  18.534  41.018  12.481
40552W        W 5372  36.125  11.813   3.879
40553W        W 5373  36.516  28.074   1.305
40554W        W 5374   5.228  27.096  11.313
40555W        W 5375  20.985  30.415  13.351
40556W        W 5376  12.341  44.380  10.934
40557W        W 5377  30.113  14.634  14.883
40558W        W 5378  25.038  22.020   2.881
40559W        W 5379  37.996  34.848   1.134
40560W        W 5380   0.374   7.934  13.493
40561W        W 5381  28.579   4.159  13.899
40562W        W 5382  24.055  41.774   4.675
40563W        W 5383  28.691  41.318   2.627
40564W        W 5384  30.161  40.922   3.599
40565W        W 5385  31.228  15.336  11.971
40566W        W 5386  38.340   0.964  13.802
40567W        W 5387   7.651   9.822  11.950
40568W        W 5388  25.341  24.141  13.528
40569W        W 5389  21.201  22.678  12.509
40570W        W 5390  28.442   8.708   1.944
40571W        W 5391   9.759  26.168  10.292
40572W        W 5392  12.218  32.614   3.146
40573W        W 5393  20.037  31.086  11.490
40574W        W 5394   2.143  30.931   2.653
40575W        W 5395  30.697  16.161  12.848
40576W        W 5396  39.483  16.650   0.915
40577W        W 5397  15.720  14.188   4.549
40578W        W 5398  22.491   6.749   1.212
40579W        W 5399   7.836  19.478  14.303
40580W        W 5400   0.847   7.369  12.942
40581W        W 5401  34.945  13.087  11.969
40582W        W 5402  20.255  44.327  10.756
40583W        W 5403  42.044  26.431   2.331
40584W        W 5404  37.620  34.822   2.273
40585W        W 5405  35.905  29.199  10.606
40586W        W 5406  44.451  43.047   0.368
40587W        W 5407  12.596  10.750  13.099
40588W        W 5408  11.823  13.633  14.307
40589W        W 5409  31.116  16.021   4.597
40590W        W 5410  20.248  12.295   4.704
40591W        W 5411  44.850  16.335   2.319
40592W        W 5412  34.105  15.968  13.061
40593W        W 5413  27.627   0.506  13.974
40594W        W 5414  11.604   5.669  14.360
40595W        W 5415  30.014   7.316   1.270
40596W        W 5416  22.232  26.947  13.080
40597W        W 5417  30.421   7.084  11.425
40598W        W 5418  22.052   2.382  13.325
40599W        W 5419   7.307  27.691   3.232
40600W        W 5420  11.365  41.903   4.231
40601W        W 5421  10.547  28.607   2.748
40602W        W 5422  32.457  31.193  14.019
40603W        W 5423   5.234  17.749  10.941
40604W        W 5424  17.206  20.741   1.818
40605W        W 5425   6.922  21.475  10.801
40606W        W 5426  41.769  33.700   3.753
40607W        W 5427  31.712   0.909  11.482
40608W        W 5428   8.150  28.517  14.001
40609W        W 5429  14.407  17.458   4.003
40610W        W 5430   7.142   4.500  11.562
40611W        W 5431  17.190   0.349  13.950
40612W        W 5432   3.823  41.540   2.258
40613W        W 5433  34.228  14.067  13.388
40614W        W 5434   9.619  25.099  13.351
40615W        W 5435  32.422  35.335   4.654
40616W        W 5436  17.198  32.587  13.081
40617W        W 5437  33.514   9.401   3.634
40618W        W 5438  26.419  25.211  14.979
40619W        W 5439  25.082  18.218  14.521
40620W        W 5440  22.246  13.537   0.301
40621W        W 5441   2.746  12.105  11.489
40622W        W 5442  13.879  24.475  12.042
40623W        W 5443  34.592   2.817   0.724
40624W        W 5444   9.017  40.313  14.755
40625W        W 5445  31.104   9.841   0.823
40626W        W 5446  18.509  13.841   3.121
40627W        W 5447  41.971  44.810   1.919
40628W        W 5448  25.708  16.549   1.202
40629W        W 5449  27.863  17.419   0.177
40630W        W 5450  14.633  11.784  12.019
40631W        W 5451   9.254   5.832  14.062
40632W        W 5452  31.107  31.098   2.601
40633W        W 5453   4.791   5.218   4.082
40634W        W 5454  37.983  24.975   4.605
40635W        W 5455  19.478  40.341   1.990
40636W        W 5456  12.733  13.245  12.989
40637W        W 5457  40.551  28.443   0.878
40638W        W 5458  32.849   6.649   1.983
40639W        W 5459  15.111   3.413   1.202
40640W        W 5460  10.402  21.018   0.520
40641W        W 5461  18.458  30.102   1.018
40642W        W 5462   4.758   9.885   3.655
40643W        W 5463  13.023  22.109  14.826
40644W        W 5464  16.857  16.654  14.471
40645W        W 5465  41.910  10.187   0.802
40646W        W 5466  32.616  22.211  11.195
40647W        W 5467  14.351  35.269   1.740
40648W        W 5468  17.053   9.627  14.991
40649W        W 5469  28.598  37.543  13.929
40650W        W 5470  40.814  13.320   1.746
40651W        W 5471  32.689  21.098   1.307
40652W        W 5472   9.636  36.807   4.052
40653W        W 5473  28.193  19.181  10.348
40654W        W 5474  41.397  44.231  13.344
40655W        W 5475  16.166  37.650  14.631
40656W        W 5476  24.187  34.870   1.245
40657W        W 5477   6.734  26.957  14.430
40658W        W 5478   6.407  12.925  14.945
40659W        W 5479  21.157  32.103   1.388
40660W        W 5480   0.998   4.148   3.178
40661W        W 5481   8.431  17.836  11.971
40662W        W 5482   7.430   5.481  12.752
40663W        W 5483   3.972  40.057   1.426
40664W        W 5484  43.108   3.971  13.057
40665W        W 5485   5.031   5.844   1.201
40666W        W 5486  12.931  24.836  12.078
40667W        W 5487  44.753   1.173  11.198
40668W        W 5488  25.730  42.371  10.666
40669W        W 5489  20.974  11.223   3.622
40670W        W 5490  14.754  27.844   3.795
40671W        W 5491  27.571  17.735   4.063
40672W        W 5492  23.796  35.419   5.124
40673W        W 5493  29.864  24.742   2.635
40674W        W 5494  14.667  11.705   1.265
40675W        W 5495  33.634  13.580  14.440
40676W        W 5496  41.072   6.370   2.377
40677W        W 5497  20.038  40.924   3.452
40678W        W 5498  18.978  10.935  12.493
40679W        W 5499  10.078  44.282   2.882
40680W        W 5500  16.656  33.797  13.528
40681W        W 5501  24.900  18.736  11.165
40682W        W 5502   9.290  41.336   3.903
40683W        W 5503  11.652  13.116   0.771
40684W        W 5504  25.972   5.993  10.587
40685W        W 5505   1.501  37.811  11.532
40686W        W 5506  14.220  10.446  14.343
40687W        W 5507  34.059  12.294   2.195
40688W        W 5508  29.783  24.017   4.777
40689W        W 5509  17.004  12.706   0.703
40690W        W 5510  36.675  34.564   1.481
40691W        W 5511   7.082  33.071  10.856
40692W        W 5512  39.567  37.337  12.192
40693W        W 5513  34.592   6.818   1.945
40694W        W 5514  11.350  32.471  12.830
40695W        W 5515  34.115   5.206   2.735
40696W        W 5516  20.803   6.033  14.897
40697W        W 5517  20.643  18.230  13.554
40698W        W 5518  13.991  19.024   1.287
40699W        W 5519  20.660  36.750  14.010
40700W        W 5520  19.837  43.915   4.465
40701W        W 5521  33.486  27.070   2.761
40702W        W 5522   5.806  41.305   4.753
40703W        W 5523  34.811  28.104  10.734
40704W        W 5524  17.127  37.713   3.209
40705W        W 5525  14.519  19.848   4.469
40706W        W 5526  18.741  22.162  10.831
40707W        W 5527  16.256  27.268  13.542
40708W        W 5528  43.480  14.798  13.085
40709W        W 5529   3.163   0.239  12.420
40710W        W 5530  23.998  32.707   4.660
40711W        W 5531  13.820  31.961   2.497
40712W        W 5532  31.649  15.599   3.697
40713W        W 5533  33.163   1.049  13.797
40714W        W 5534  40.423  16.604  13.567
40715W        W 5535   3.633  23.143   2.299
40716W        W 5536  35.955  43.918   0.500
40717W        W 5537  12.292  20.082  13.563
40718W        W 5538  41.544  44.049  14.299
40719W        W 5539  29.517   8.216   3.086
40720W        W 5540  29.110  14.020  12.969
40721W        W 5541   4.704   0.536   2.660
40722W        W 5542   3.824  41.792   2.703
40723W        W 5543  39.562   8.212  14.062
40724W        W 5544  35.178  12.212   1.133
40725W        W 5545  30.884   6.944  11.980
40726W        W 5546   8.885  15.311  10.238
40727W        W 5547  14.862  33.854  12.330
40728W        W 5548   7.159  32.620   0.838
40729W        W 5549  31.664  10.094  12.475
40730W        W 5550   7.320  25.520  14.788
40731W        W 5551  40.853   0.255   1.989
40732W        W 5552  35.542  36.587  13.498
40733W        W 5553   0.424   4.755   2.015
40734W        W 5554  13.628  25.631  13.838
40735W        W 5555  24.629  35.931  14.936
40736W        W 5556  39.175  31.096   2.168
40737W        W 5557  39.242  31.973   2.247
40738W        W 5558   6.214   7.410  14.470
40739W        W 5559  17.606  22.673  11.872
40740W        W 5560   0.913  13.630  14.434
40741W        W 5561  28.913  14.199  11.158
40742W        W 5562  24.108  17.754  13.077
40743W        W 5563   7.428  34.900   2.764
40744W        W 5564  22.724  23.000  11.181
40745W        W 5565  43.708   5.804  13.857
40746W        W 5566  20.572  31.005   4.059
40747W        W 5567  35.879  33.722  13.772
40748W        W 5568  15.588  25.739  14.803
40749W        W 5569   8.180   6.078   2.942
40750W        W 5570  12.615   3.693   4.748
40751W        W 5571  44.841  20.713  13.366
40752W        W 5572  32.490   7.839   3.958
40753W        W 5573  21.040   3.152   3.804
40754W        W 5574  28.383  11.143  10.756
40755W        W 5575  12.427  23.059   2.943
40756W        W 5576   7.936   1.750  11.787
40757W        W 5577   7.186   4.032  13.332
40758W        W 5578  25.884   9.795   3.648
40759W        W 5579  39.365  38.579   3.795
40760W        W 5580  38.997  29.583   0.257
40761W        W 5581  27.000  35.630  10.556
40762W        W 5582  23.644  24.872  13.460
40763W        W 5583  31.936  10.706  11.622
40764W        W 5584  25.551  22.099   0.298
40765W        W 5585  39.668  30.883  12.059
40766W        W 5586   7.286  37.693  12.341
40767W        W 5587  14.266  39.876   4.739
40768W        W 5588  39.084  15.691   0.898
40769W        W 5589  34.618  29.624  14.011
40770W        W 5590  43.299  25.683   4.678
40771W        W 5591  17.252  10.757  11.427
40772W        W 5592  18.205  17.156   2.902
40773W        W 5593  34.924   2.304  10.733
40774W        W 5594  34.652  41.800  14.368
40775W        W 5595  25.949  11.078  13.859
40776W        W 5596  41.593  24.656  12.267
40777W        W 5597  37.847  37.418   0.763
40778W        W 5598  43.886  11.325   5.017
40779W        W 5599  35.435  40.582   3.209
40780W        W 5600  40.332  35.471  14.098
40781W        W 5601  17.955  30.560   4.403
40782W        W 5602  19.710   2.245   3.212
40783W        W 5603  12.321  10.681   0.256
40784W        W 5604  44.224   7.666  12.575
40785W        W 5605  21.273  38.103  13.359
40786W        W 5606  24.171  32.528  13.755
40787W        W 5607  24.009  27.152  13.987
40788W        W 5608  27.447  31.470  12.398
40789W        W 5609  10.410  34.863  13.050
40790W        W 5610  31.364   9.249   4.050
40791W        W 5611  10.357   6.469  14.544
40792W        W 5612  12.190  33.412  11.648
40793W        W 5613  34.701  43.081  10.668
40794W        W 5614  33.047  26.152  12.053
40795W        W 5615  42.365  29.159   2.427
40796W        W 5616   4.457   1.412   4.609
40797W        W 5617   7.218   5.625  11.942
40798W        W 5618  29.424  30.624   4.245
40799W        W 5619  25.797  33.044  12.157
40800W        W 5620  11.617  30.632  14.446
40801W        W 5621  19.951  34.878  11.434
40802W        W 5622  19.834   8.748   2.928
40803W        W 5623  12.792  26.276  11.157
40804W        W 5624  40.905   0.791  12.484
40805W        W 5625   3.087   2.211  10.669
40806W        W 5626  10.183  41.160  11.218
40807W        W 5627  11.744   0.189   4.928
40808W        W 5628  11.738   7.291   4.763
40809W        W 5629  21.978   2.536   0.905
40810W        W 5630   1.360  26.600  10.911
40811W        W 5631  10.168  24.402   0.487
40812W        W 5632  44.388   9.771   0.402
40813W        W 5633   1.707  19.834  13.898
40814W        W 5634   8.601  19.062  14.889
40815W        W 5635  19.597  28.533  12.446
40816W        W 5636  31.565  39.230  12.984
40817W        W 5637   4.381  32.340  14.824
40818W        W 5638   4.944  37.189   1.940
40819W        W 5639  22.479  40.990  11.641
40820W        W 5640   5.720   5.216   3.347
40821W        W 5641  40.927  12.387   3.645
40822W        W 5642  44.336  23.976   3.799
40823W        W 5643  24.174  23.672  11.701
40824W        W 5644  44.122  15.586   4.894
40825W        W 5645  42.375  38.803  12.904
40826W        W 5646  43.686  43.198   2.693
40827W        W 5647   0.780  12.746  12.333
40828W        W 5648  19.126  13.564   3.291
40829W        W 5649  41.256  12.490   4.647
40830W        W 5650  11.642  27.176  14.287
40831W        W 5651  17.133  12.433   2.473
40832W        W 5652  12.554  42.479   3.638
40833W        W 5653   0.539   1.333   0.754
40834W        W 5654   8.208   2.712  12.490
40835W        W 5655  17.239  10.819   3.656
40836W        W 5656  22.267  18.634   3.218
40837W        W 5657  29.179  27.900   1.854
40838W        W 5658   7.011   0.258  12.223
40839W        W 5659  25.976  18.108  14.816
40840W        W 5660   5.546  11.787   0.743
40841W        W 5661  16.789  30.256   4.994
40842W        W 5662   0.776  39.737   4.450
40843W        W 5663  17.727  10.768  10.117
40844W        W 5664  20.725  34.942  14.735
40845W        W 5665  18.493  25.422   0.303
40846W        W 5666  20.783  36.130   2.864
40847W        W 5667  19.574  18.644  12.983
40848W        W 5668  31.615  42.430   1.124
40849W        W 5669  19.959  14.695   4.908
40850W        W 5670   3.006  41.006   1.722
40851W        W 5671  23.050  14.352  14.940
40852W        W 5672  12.606  25.443   0.956
40853W        W 5673  44.414  19.075  14.026
40854W        W 5674  33.516  37.819  11.625
40855W        W 5675  28.435  33.034  14.528
40856W        W 5676  27.775  34.489  14.796
40857W        W 5677   2.888  34.688  10.984
40858W        W 5678  14.034  27.617   4.255
40859W        W 5679  33.398  22.510  11.950
40860W        W 5680  10.331  37.015  14.985
40861W        W 5681  30.693   8.428  11.065
40862W        W 5682  38.797   0.983   4.767
40863W        W 5683  30.876  35.734   4.205
40864W        W 5684  19.988  42.838   2.274
40865W        W 5685  40.331   4.177  12.034
40866W        W 5686  27.226  11.469   2.351
40867W        W 5687  10.656  19.270  12.526
40868W        W 5688   9.111  25.696   2.374
40869W        W 5689  35.457  33.118   2.343
40870W        W 5690  38.802   4.515  14.230
40871W        W 5691   2.416   1.252   1.737
40872W        W 5692   1.316  28.652  12.070
40873W        W 5693  40.732  37.784   3.670
40874W        W 5694  13.610   6.674  13.396
40875W        W 5695  36.645  21.456  13.671
40876W        W 5696  34.482  28.567   0.717
40877W        W 5697  32.601   0.443   1.439
40878W        W 5698   7.971  35.655   3.813
40879W        W 5699  11.736  16.761   3.610
40880W        W 5700  41.527  21.612   3.846
40881W        W 5701  30.122  15.503  11.237
40882W        W 5702  21.701   5.297  11.637
40883W        W 5703   0.304  33.997   3.115
40884W        W 5704  24.048   8.721  13.295
40885W        W 5705  37.841  43.800  11.465
40886W        W 5706   2.980  18.932   2.897
40887W        W 5707  40.702   8.738   4.454
40888W        W 5708  18.820  30.198   0.599
40889W        W 5709  15.675  34.387  14.302
40890W        W 5710  12.650  14.929  14.460
40891W        W 5711  19.281  21.158  12.684
40892W        W 5712  25.020  10.827   4.264
40893W        W 5713  33.903   5.866  14.009
40894W        W 5714  22.801  24.919   3.197
40895W        W 5715   4.156   1.435   0.384
40896W        W 5716  24.191   7.717   3.058
40897W        W 5717  43.810   6.170   0.649
40898W        W 5718  18.217  37.939  14.649
40899W        W 5719  39.821  28.163   2.639
40900W        W 5720  17.571   5.714   0.817
40901W        W 5721  26.497  12.261   1.735
40902W        W 5722  22.696  38.275  14.455
40903W        W 5723  11.320  42.175   4.751
40904W        W 5724  22.819   3.328   3.298
40905W        W 5725   2.365   2.474  14.926
40906W        W 5726  44.375  33.426  12.410
40907W        W 5727  30.707  13.082  10.632
40908W        W 5728  25.326  29.644   4.990
40909W        W 5729  44.443  29.638  14.104
40910W        W 5730  42.807   4.858  11.072
40911W        W 5731  14.073  44.478   1.069
40912W        W 5732  15.171  33.835  11.913
40913W        W 5733  13.830  24.965   2.317
40914W        W 5734   9.307  40.472   4.897
40915W        W 5735  40.506  17.628   2.964
40916W        W 5736  39.325  13.229  11.144
40917W        W 5737  30.924  29.528   4.582
40918W        W 5738   2.327  22.436  11.212
40919W        W 5739  44.534  23.413  14.392
40920W        W 5740  36.873  13.240   0.796
40921W        W 5741   0.761  19.035  13.478
40922W        W 5742   9.644  32.998  11.625
40923W        W 5743  44.462  13.046  13.462
40924W        W 5744  32.368  16.822   3.751
40925W        W 5745   1.894  15.551   3.424
40926W        W 5746   2.704  10.729   4.813
40927W        W 5747  14.617  31.687  11.968
40928W        W 5748  43.393  39.952   4.098
40929W        W 5749  39.309  13.703   3.678
40930W        W 5750   7.388  11.293   0.515
40931W        W 5751   8.508   6.509  12.565
40932W        W 5752  28.529  22.209  13.345
40933W        W 5753   7.168  20.725  14.229
40934W        W 5754  33.082  27.962  12.420
40935W        W 5755  11.258  16.291  12.414
40936W        W 5756  36.806   1.824   4.172
40937W        W 5757  30.635  17.701   3.395
40938W        W 5758  25.906  41.621  13.885
40939W        W 5759  35.320  21.734   1.852
40940W        W 5760   8.844  30.098  13.981
40941W        W 5761  34.649  35.024   3.242
40942W        W 5762  41.655  37.735  14.051
40943W        W 5763  17.216  30.961  13.506
40944W        W 5764  28.418  31.510  10.680
40945W        W 5765   6.606  14.933  14.981
40946W        W 5766  21.366  18.315  14.637
40947W        W 5767   6.815  43.856  10.693
40948W        W 5768  29.473  16.632   0.086
40949W        W 5769  18.160  22.431  11.104
40950W        W 5770  37.128  20.348   2.298
40951W        W 5771   4.231  21.622  14.077
40952W        W 5772   3.694  31.984  11.097
40953W        W 5773  34.736   5.514   4.864
40954W        W 5774   8.001  44.169  13.084
40955W        W 5775  30.603   1.249  11.565
40956W        W 5776  19.944  40.308   0.834
40957W        W 5777  21.370   5.925   4.103
40958W        W 5778  13.854  29.623   1.977
40959W        W 5779  44.485   6.422  10.650
40960W        W 5780  37.109   8.308   1.966
40961W        W 5781   2.854   8.775  11.251
40962W        W 5782  13.085   3.699  12.435
40963W        W 5783  43.988  20.044   1.397
40964W        W 5784  35.833   3.964  13.990
40965W        W 5785  32.025  16.323  14.424
40966W        W 5786   1.093   7.304   4.898
40967W        W 5787  27.916   8.422  11.125
40968W        W 5788   1.198   1.044  11.311
40969W        W 5789   7.514  36.958   3.722
40970W        W 5790   3.976  10.721  13.454
40971W        W 5791  39.336  15.343  14.480
40972W        W 5792   4.692  19.222   1.447
40973W        W 5793  36.475  23.718  14.974
40974W        W 5794  18.025   9.854   4.841
40975W        W 5795  38.489   9.797   2.405
40976W        W 5796   0.437  15.203  10.967
40977W        W 5797  25.487  20.772   1.738
40978W        W 5798  25.723  26.893  13.032
40979W        W 5799  27.976   8.950   1.889
40980W        W 5800   6.240  13.184  10.919
40981W        W 5801  38.124  19.233   2.235
40982W        W 5802  19.306  35.850   2.234
40983W        W 5803  34.428   4.201  13.964
40984W        W 5804  27.188  37.968  13.896
40985W        W 5805  25.996  25.031  11.738
40986W        W 5806  37.345   0.853  12.929
40987W        W 5807  18.263  12.696   3.791
40988W        W 5808  18.789   8.508   3.827
40989W        W 5809   6.820  18.357   3.330
40990W        W 5810  16.246  44.857  13.286
40991W        W 5811   7.700  32.036   3.654
40992W        W 5812  32.321  20.138   2.365
40993W        W 5813  39.541   8.215   0.399
40994W        W 5814  13.817  12.383   2.345
40995W        W 5815  13.182  43.298  10.797
40996W        W 5816  16.914  33.442  10.221
40997W        W 5817  10.031   4.765   0.952
40998W        W 5818  38.200  28.233   2.726
40999W        W 5819  39.143   5.471   0.361
41000W        W 5820  17.264  39.446   0.526
41001W        W 5821  24.301  41.758   3.822
41002W        W 5822   8.985  37.453   1.818
41003W        W 5823  29.020  43.791  14.735
41004W        W 5824  15.064  37.524   3.624
41005W        W 5825  16.084  18.626  11.691
41006W        W 5826  30.006   4.794   2.947
41007W        W 5827   9.366  17.373   2.816
41008W        W 5828  33.678  40.278  12.481
41009W        W 5829  33.142  32.568   4.093
41010W        W 5830  35.944  20.075   4.100
41011W        W 5831  33.840   2.389   4.168
41012W        W 5832  28.143  13.387   2.433
41013W        W 5833  28.602  42.995  14.528
41014W        W 5834  25.943  31.451   1.249
41015W        W 5835  44.718  37.998  12.540
41016W        W 5836  29.519   2.547   3.275
41017W        W 5837  13.053  33.924   1.967
41018W        W 5838  30.426  28.645  14.662
41019W        W 5839  18.505  24.528   0.057
41020W        W 5840   3.680  22.805   0.559
41021W        W 5841  25.577  38.096  14.813
41022W        W 5842  39.039  22.448  12.939
41023W        W 5843  22.730   6.704   2.666
41024W        W 5844  40.382  15.194   2.713
41025W        W 5845  29.470  27.787   4.536
41026W        W 5846  33.938  26.575   2.373
41027W        W 5847  28.673  42.383   0.339
41028W        W 5848  21.689  39.047   0.393
41029W        W 5849  24.418  14.127   4.729
41030W        W 5850  37.039  34.407   2.477
41031W        W 5851  13.758  26.027  11.123
41032W        W 5852   8.111  16.338   4.978
41033W        W 5853  42.831  21.069  10.635
41034W        W 5854  21.804  12.162   3.780
41035W        W 5855  12.387  43.275   0.826
41036W        W 5856  26.382  36.859   0.314
41037W        W 5857  22.741  10.573  14.848
41038W        W 5858   7.764   4.592   5.100
41039W        W 5859  20.077  27.430   3.028
41040W        W 5860  10.278  13.386  12.825
41041W        W 5861  21.546  42.104  11.042
41042W        W 5862  43.542  10.267   0.541
41043W        W 5863  44.035   6.746  12.596
41044W        W 5864  44.247  13.712   2.351
41045W        W 5865  35.444  21.157  14.938
41046W        W 5866   5.259  39.355  14.802
41047W        W 5867  14.823  39.351  12.902
41048W        W 5868  18.380  35.318   0.001
41049W        W 5869  31.203  37.039  13.020
41050W        W 5870  25.038  36.210  12.581
41051W        W 5871  40.005  26.933   2.216
41052W        W 5872  30.096   2.305   2.149
41053W        W 5873  31.440   8.933   3.168
41054W        W 5874   0.432   0.137   4.044
41055W        W 5875   0.338  28.889   0.696
41056W        W 5876  24.750  28.149  12.938
41057W        W 5877  14.283  41.571   2.632
41058W        W 5878   4.963  14.362  14.431
41059W        W 5879  44.775   9.754   3.676
41060W        W 5880  35.409  42.421  13.535
41061W        W 5881  41.337   3.794  11.651
41062W        W 5882  29.750  14.467  11.133
41063W        W 5883  15.583  14.878  10.571
41064W        W 5884  14.156  34.080   1.220
41065W        W 5885   9.195   1.290  13.786
41066W        W 5886  30.492  24.070   5.313
41067W        W 5887  21.558   2.810   0.777
41068W        W 5888  19.390  28.109   1.586
41069W        W 5889  20.355  24.018  13.151
41070W        W 5890   5.102  26.956  13.982
41071W        W 5891  25.913  27.818   1.756
41072W        W 5892  26.893  17.013   0.414
41073W        W 5893   8.921  15.006   0.441
41074W        W 5894  30.035  16.190   4.112
41075W        W 5895  30.637  42.985   1.312
41076W        W 5896   2.763  35.118   1.430
41077W        W 5897  31.778  26.199  13.965
41078W        W 5898  38.280  44.869   2.199
41079W        W 5899  40.864   4.951   0.283
41080W        W 5900   0.539   0.493  11.184
41081W        W 5901  32.125  17.164  14.335
41082W        W 5902   5.875  43.604   0.886
41083W        W 5903   4.683  17.288   0.209
41084W        W 5904  34.966  12.648  12.230
41085W        W 5905  32.926   5.997   1.332
41086W        W 5906  33.634   7.658   4.585
41087W        W 5907  35.307  15.414  12.077
41088W        W 5908  35.062  40.252   0.307
41089W        W 5909   7.763  28.620   3.161
41090W        W 5910  33.962  42.583   0.871
41091W        W 5911  34.600   9.778  11.142
41092W        W 5912  40.905  23.422   4.393
41093W        W 5913  24.199  31.113  14.258
41094W        W 5914   6.886  19.511   0.847
41095W        W 5915  28.652  15.172   1.243
41096W        W 5916  39.401  15.004  10.473
41097W        W 5917  14.722  17.195   3.125
41098W        W 5918   5.525   2.705  12.995
41099W        W 5919  24.011  23.710   4.604
41100W        W 5920   7.871  20.134   4.557
41101W        W 5921  14.319   7.343  11.626
41102W        W 5922  16.146  18.685   1.670
41103W        W 5923  40.695  43.821  12.974
41104W        W 5924  41.367   2.313   3.699
41105W        W 5925  40.782   6.894   4.151
41106W        W 5926  43.991  39.621   0.413
41107W        W 5927  12.312  24.104   4.278
41108W        W 5928  21.232  30.531   3.570
41109W        W 5929  11.368  13.889  14.298
41110W        W 5930  40.024   8.411  10.984
41111W        W 5931   7.122   3.963  14.337
41112W        W 5932   2.225  23.737  14.892
41113W        W 5933   1.872  30.066   2.131
41114W        W 5934  26.702   6.951  11.183
41115W        W 5935  12.905  20.302  11.190
41116W        W 5936  15.531  37.227   3.162
41117W        W 5937  33.703   3.236  14.229
41118W        W 5938  23.432  36.550  10.399
41119W        W 5939   6.013  12.335  12.720
41120W        W 5940   8.181  30.813  13.671
41121W        W 5941  27.401  17.189   0.267
41122W        W 5942  24.174  36.657  11.123
41123W        W 5943  40.270  37.753  13.142
41124W        W 5944  22.901  13.171   4.394
41125W        W 5945  27.727   7.911  14.099
41126W        W 5946   1.029  32.611  12.485
41127W        W 5947  18.055   6.476  11.230
41128W        W 5948  14.689  37.076  14.463
41129W        W 5949  33.253  24.758   2.681
41130W        W 5950   6.452  22.674  12.279
41131W        W 5951  10.290  29.418  14.551
41132W        W 5952  21.011  43.307   0.307
41133W        W 5953  44.653  10.368   3.075
41134W        W 5954  32.420   2.339  10.503
41135W        W 5955   3.443   5.137  12.925
41136W        W 5956  12.566  34.113   0.591
41137W        W 5957  25.482  27.112  11.608
41138W        W 5958   3.873  13.330  10.805
41139W        W 5959  17.107  33.229  13.807
41140W        W 5960  27.679   5.327  14.358
41141W        W 5961  14.356  13.662   4.327
41142W        W 5962   5.425   8.292  11.622
41143W        W 5963   4.113  21.324  12.570
41144W        W 5964  32.143  20.275   3.149
41145W        W 5965  36.767  26.879  13.484
41146W        W 5966  31.714  28.067   0.065
41147W        W 5967  44.419  39.229  10.642
41148W        W 5968   1.259  44.853  14.930
41149W        W 5969   0.684   3.422  14.228
41150W        W 5970  29.979  37.824   3.889
41151W        W 5971  38.895  28.528   3.923
41152W        W 5972  21.158  15.163  12.532
41153W        W 5973  16.405   9.687   4.269
41154W        W 5974   2.497  30.932   0.475
41155W        W 5975  22.794  16.822   4.844
41156W        W 5976  44.684   5.736   3.737
41157W        W 5977   0.836  11.136   2.231
41158W        W 5978  16.714  21.985  14.857
41159W        W 5979  15.262  31.578  12.413
41160W        W 5980   6.160   1.386  12.599
41161W        W 5981  33.986   9.493   0.233
41162W        W 5982  22.779   9.210   2.725
41163W        W 5983   7.805  13.763  13.508
41164W        W 5984  29.612  22.492   4.592
41165W        W 5985  41.596  34.315  14.691
41166W        W 5986  39.792  25.485  10.903
41167W        W 5987  34.980  34.597  12.941
41168W        W 5988  18.738   3.478  12.600
41169W        W 5989  29.117  29.367   1.417
41170W        W 5990   4.920  23.527  10.652
41171W        W 5991  20.762  23.426   2.674
41172W        W 5992   5.310  10.778  12.066
41173W        W 5993  15.567   1.936  12.469
41174W        W 5994  41.415  34.663  11.070
41175W        W 5995  11.562  10.662  14.065
41176W        W 5996  27.477  41.218   0.272
41177W        W 5997  36.947  44.163  10.392
41178W        W 5998   2.854  31.916  14.556
41179W        W 5999   8.643  14.181   0.888
41180W        W 6000   0.848  29.835   1.875
41181W        W 6001  31.477  40.570  11.435
41182W        W 6002  43.319  14.309  14.734
41183W        W 6003  11.592   9.310  14.360
41184W        W 6004   4.663  22.524   2.702
41185W        W 6005   0.934   5.422   3.106
41186W        W 6006  23.846  30.036   3.668
41187W        W 6007  24.081  39.315   4.845
41188W        W 6008  43.477  28.750  13.888
41189W        W 6009  29.188   3.259   3.723
41190W        W 6010   0.416  19.316   4.645
41191W        W 6011   5.318  28.113  10.633
41192W        W 6012   0.020  29.768  14.987
41193W        W 6013   7.652   3.148  11.702
41194W        W 6014  18.603  33.864   1.809
41195W        W 6015   3.759  36.190   2.332
41196W        W 6016  38.506   2.677   1.188
41197W        W 6017  29.463  39.326   1.024
41198W        W 6018   4.596  24.665   1.717
41199W        W 6019   3.441  16.030   1.777
41200W        W 6020  39.864   2.175   1.350
41201W        W 6021  43.734  38.759  11.182
41202W        W 6022  35.602  35.053  14.317
41203W        W 6023  14.718  40.337  12.574
41204W        W 6024  32.680  10.834   1.241
41205W        W 6025  31.626  19.317  11.724
41206W        W 6026  10.484   8.877   1.318
41207W        W 6027  10.807  19.318  11.836
41208W        W 6028  42.998  21.276   0.429
41209W        W 6029  30.980  20.940  14.059
41210W        W 6030  18.528  30.633  10.878
41211W        W 6031  32.940  38.318  11.993
41212W        W 6032  34.340  44.400  13.740
41213W        W 6033  18.533   3.274   2.672
41214W        W 6034  17.826   5.904   2.188
41215W        W 6035  30.585  35.619  12.389
41216W        W 6036  17.643   9.473  14.958
41217W        W 6037  41.804  25.230   0.523
41218W        W 6038  25.642  32.799   2.239
41219W        W 6039  34.756  21.015   3.243
41220W        W 6040  29.622   7.862  14.824
41221W        W 6041  14.676  23.987   1.070
41222W        W 6042  35.834  34.099   4.098
41223W        W 6043  31.924   7.116   2.982
41224W        W 6044  26.326  34.444  11.099
41225W        W 6045   9.738   9.769  12.032
41226W        W 6046  21.213  16.200   2.521
41227W        W 6047  37.471   7.069  12.145
41228W        W 6048  41.429   5.452  13.814
41229W        W 6049  26.905  32.087   0.004
41230W        W 6050  24.826  10.830   3.179
41231W        W 6051  27.254  19.288   1.194
41232W        W 6052  39.233  21.215   3.662
41233W        W 6053  34.444  18.291  13.161
41234W        W 6054   3.164   4.955   1.729
41235W        W 6055   4.315  29.699   2.712
41236W        W 6056  22.698  44.492  13.129
41237W        W 6057  16.859  18.645   0.772
41238W        W 6058  40.029  18.588  12.481
41239W        W 6059  35.889   9.222  11.968
41240W        W 6060  34.153  15.660  12.633
41241W        W 6061  21.024   4.648  10.800
41242W        W 6062  26.848  18.733  12.527
41243W        W 6063  20.590   6.110  12.942
41244W        W 6064  25.540   1.161   9.766
41245W        W 6065  42.317  22.788  13.850
41246W        W 6066   4.749  28.670  11.141
41247W        W 6067  42.798  44.449   1.694
41248W        W 6068  24.707  27.645  13.000
41249W        W 6069  12.797  35.466  13.785
41250W        W 6070  34.238  23.226  10.302
41251W        W 6071  27.071   9.370  11.281
41252W        W 6072  26.371  13.266   0.374
41253W        W 6073   6.516  11.675  12.353
41254W        W 6074  10.569   1.694   4.620
41255W        W 6075  12.827  19.744   1.830
41256W        W 6076  28.218  22.642   0.434
41257W        W 6077   2.669  38.584   2.618
41258W        W 6078   2.177  21.187  12.397
41259W        W 6079  22.696  15.651  13.555
41260W        W 6080  20.469  14.159  13.056
41261W        W 6081  19.313  28.224  13.809
41262W        W 6082  12.390  40.091  12.067
41263W        W 6083  28.605  44.013   2.902
41264W        W 6084  20.563   3.785  13.281
41265W        W 6085  29.958  29.614   0.953
41266W        W 6086  19.570  28.020   0.931
41267W        W 6087  33.822   6.260   4.462
41268W        W 6088  16.436   4.869  12.420
41269W        W 6089  25.768  32.610  10.576
41270W        W 6090  21.515   2.901  13.738
41271W        W 6091  30.884  44.048  14.328
41272W        W 6092  25.185  38.980  14.439
41273W        W 6093  10.471  36.353  10.794
41274W        W 6094  22.006  15.337  13.534
41275W        W 6095  38.365  18.211  11.023
41276W        W 6096  22.539  40.561   3.731
41277W        W 6097  39.825   4.444   3.746
41278W        W 6098  37.793  41.526  11.926
41279W        W 6099  17.686  12.224  14.864
41280W        W 6100  28.151   7.161  14.505
41281W        W 6101  24.684   3.689   4.086
41282W        W 6102   5.980  13.772  13.058
41283W        W 6103  20.052  13.837  13.515
41284W        W 6104   6.308  25.468   4.105
41285W        W 6105   7.287   9.089  12.443
41286W        W 6106  41.964  27.509  14.802
41287W        W 6107  18.081  14.697  14.861
41288W        W 6108  37.430  43.415   3.252
41289W        W 6109  11.856  10.526   1.858
41290W        W 6110  36.115   7.252  13.702
41291W        W 6111   9.706  33.949   3.847
41292W        W 6112  20.177  43.992   2.201
41293W        W 6113   4.872   9.337   3.114
41294W        W 6114   2.737  30.737  10.564
41295W        W 6115   1.981  43.848  11.416
41296W        W 6116  11.674  41.122   0.442
41297W        W 6117  24.951   5.682  12.931
41298W        W 6118  15.551   0.792  11.633
41299W        W 6119  20.209  37.525  10.228
41300W        W 6120  35.322  12.540   2.367
41301W        W 6121  18.420  40.636   1.883
41302W        W 6122  18.570  40.480   1.359
41303W        W 6123  43.370  31.382   3.793
41304W        W 6124  11.345  31.942   0.729
41305W        W 6125  41.847  26.984  11.209
41306W        W 6126   1.516  36.454   1.015
41307W        W 6127  11.854   0.350   0.399
41308W        W 6128  44.784   6.848  10.681
41309W        W 6129  19.802  10.690   2.745
41310W        W 6130  24.198  22.046  14.912
41311W        W 6131  20.984   1.299  13.001
41312W        W 6132  16.508  41.189   0.791
41313W        W 6133   5.290  33.457   3.156
41314W        W 6134  15.327   7.944   0.861
41315W        W 6135   4.326  28.626   3.686
41316W        W 6136  18.330   5.224   0.884
41317W        W 6137   2.410  42.997  13.419
41318W        W 6138  36.476   4.682   4.019
41319W        W 6139  19.952  44.277   3.152
41320W        W 6140   6.881  31.007   4.743
41321W        W 6141  42.434  43.149  12.493
41322W        W 6142   3.639  12.660   5.060
41323W        W 6143  10.364  10.495  10.697
41324W        W 6144   5.291   6.870   4.289
41325W        W 6145   3.643  21.748  12.942
41326W        W 6146   8.870   9.336   2.833
41327W        W 6147   7.741  25.248  14.870
41328W        W 6148  43.210   0.856  13.508
41329W        W 6149  25.232  39.262  13.885
41330W        W 6150  28.104  37.363  13.953
41331W        W 6151  26.648   1.386  10.300
41332W        W 6152  30.698   1.267  10.731
41333W        W 6153  29.564  37.057   4.584
41334W        W 6154  13.541  37.883   1.863
41335W        W 6155   2.061  16.149   4.220
41336W        W 6156  38.919  14.717   1.777
41337W        W 6157   0.309   9.151   1.204
41338W        W 6158  25.877  29.243   1.962
41339W        W 6159   4.586   0.997  11.070
41340W        W 6160   1.985  20.685   1.852
41341W        W 6161  27.041  35.893   4.164
41342W        W 6162  19.543  11.908   3.040
41343W        W 6163  43.303  28.538  13.462
41344W        W 6164   8.932  41.102   2.565
41345W        W 6165  44.273  44.786  12.425
41346W        W 6166  21.566  23.895   1.535
41347W        W 6167  19.304   5.021   0.943
41348W        W 6168   8.398  17.332  11.984
41349W        W 6169  20.612   5.352   4.082
41350W        W 6170  24.513  36.163   4.217
41351W        W 6171  25.639  36.393  13.428
41352W        W 6172   2.766  11.742   2.911
41353W        W 6173  14.631  27.626   4.284
41354W        W 6174  38.877  37.625   4.390
41355W        W 6175  14.779  24.125   1.993
41356W        W 6176   1.527  30.339  14.090
41357W        W 6177  44.383   9.163  14.093
41358W        W 6178   7.247  36.935   0.010
41359W        W 6179  36.988  35.472  13.318
41360W        W 6180  22.488  26.998  13.922
41361W        W 6181  42.036  17.004   4.274
41362W        W 6182  22.096  39.436   0.487
41363W        W 6183  33.038  11.180   1.476
41364W        W 6184  26.308  44.783  12.390
41365W        W 6185  34.123  15.437  11.517
41366W        W 6186  19.907  20.312  14.343
41367W        W 6187   7.108   1.346  13.843
41368W        W 6188  35.596  34.359   4.503
41369W        W 6189  22.690  39.835  13.026
41370W        W 6190  15.556  23.500   2.128
41371W        W 6191  30.568  40.611  14.384
41372W        W 6192  12.353  40.984   3.167
41373W        W 6193  12.659  18.980   1.489
41374W        W 6194   4.566   1.342  11.531
41375W        W 6195  27.215  11.608   0.768
41376W        W 6196   4.987  37.586   5.040
41377W        W 6197  27.177  10.890   0.037
41378W        W 6198   7.851  22.223   3.602
41379W        W 6199  40.767  34.729  13.584
41380W        W 6200   8.639  30.115  13.470
41381W        W 6201   4.464  16.289   4.443
41382W        W 6202  16.523  43.530  11.952
41383W        W 6203  21.966  44.414   2.739
41384W        W 6204  15.906  33.374  14.921
41385W        W 6205   9.414  21.995   1.439
41386W        W 6206  17.682   2.833   4.791
41387W        W 6207  11.348  24.180   0.384
41388W        W 6208   9.356  14.321  12.679
41389W        W 6209  11.015  24.078   3.672
41390W        W 6210   6.375  31.960  11.945
41391W        W 6211  36.066  28.606   1.319
41392W        W 6212  14.769  43.473  11.623
41393W        W 6213  28.996  11.846  13.257
41394W        W 6214  20.273  28.585  14.421
41395W        W 6215   5.457  15.608  13.074
41396W        W 6216  35.589  15.686   4.168
41397W        W 6217  17.798   2.321   2.038
41398W        W 6218  30.626  34.447   9.683
41399W        W 6219  42.925  28.619  12.408
41400W        W 6220  16.702  21.975  14.224
41401W        W 6221  29.918  18.194  13.697
41402W        W 6222  42.294  29.558   2.749
41403W        W 6223  23.537  13.563  12.807
41404W        W 6224  44.341  31.888  13.816
41405W        W 6225  41.859   2.807   3.596
41406W        W 6226  12.342  34.615   0.816
41407W        W 6227  10.362  35.072   4.784
41408W        W 6228  25.532   4.798  10.747
41409W        W 6229  11.927   1.035  14.010
41410W        W 6230   0.091  32.202   4.572
41411W        W 6231  37.465  12.366   0.797
41412W        W 6232  37.821  32.721   3.610
41413W        W 6233  16.305  11.448   4.574
41414W        W 6234   4.695  26.051  14.786
41415W        W 6235  42.057  40.297   2.895
41416W        W 6236   3.592  42.840   1.857
41417W        W 6237   6.202  21.483   3.634
41418W        W 6238  43.727   4.015   1.812
41419W        W 6239  21.191  35.933  12.589
41420W        W 6240  23.997  42.192   3.696
41421W        W 6241  13.469  36.873   1.317
41422W        W 6242  15.151  41.559  12.637
41423W        W 6243  44.734  44.702  10.669
41424W        W 6244  19.642  24.027  14.819
41425W        W 6245  25.518   3.687  14.637
41426W        W 6246  20.536  18.774   2.988
41427W        W 6247  32.051  32.197  12.473
41428W        W 6248   2.236  21.563   4.317
41429W        W 6249  23.176  28.328   1.283
41430W        W 6250  42.463   7.269   0.409
41431W        W 6251  35.148   5.751  12.063
41432W        W 6252  44.483   7.331  13.300
41433W        W 6253  35.393  36.902   5.010
41434W        W 6254  31.359  35.524  10.871
41435W        W 6255  27.613   9.116   0.409
41436W        W 6256   6.405  29.229   1.492
41437W        W 6257  35.453   6.909   1.751
41438W        W 6258  12.255  41.894   2.686
41439W        W 6259   6.246  43.551  11.496
41440W        W 6260  21.045  40.887   4.326
41441W        W 6261  40.272  12.182  11.122
41442W        W 6262   0.768  31.158   2.261
41443W        W 6263  37.859   1.809  12.430
41444W        W 6264  33.494  26.355   4.094
41445W        W 6265  14.424  44.932  11.567
41446W        W 6266  41.934  37.490   4.143
41447W        W 6267  31.958  40.481  11.190
41448W        W 6268  14.147   4.595  14.979
41449W        W 6269  42.432  33.742  12.113
41450W        W 6270  30.929   7.713  12.610
41451W        W 6271  35.536  24.446   3.953
41452W        W 6272  33.378  21.114   2.259
41453W        W 6273   0.284   6.579   0.917
41454W        W 6274  33.964  21.262  11.981
41455W        W 6275  31.398  19.613   5.120
41456W        W 6276  32.437  16.319   2.750
41457W        W 6277  13.278  12.908   3.045
41458W        W 6278  42.047  35.543   2.437
41459W        W 6279  12.618  32.886   3.281
41460W        W 6280  32.676   4.991   3.723
41461W        W 6281  37.971  31.926   4.647
41462W        W 6282   4.209  41.930  11.667
41463W        W 6283  16.490   3.392   1.341
41464W        W 6284   1.209  32.057   2.604
41465W        W 6285  36.131   4.318   2.510
41466W        W 6286  27.084   1.771  12.594
41467W        W 6287  19.714   0.458   3.643
41468W        W 6288  27.397  39.639   1.294
41469W        W 6289  33.231  21.058   4.875
41470W        W 6290  17.633  21.127  10.023
41471W        W 6291  12.300  23.494   3.194
41472W        W 6292  33.257  21.509  14.521
41473W        W 6293  35.433  32.340   1.961
41474W        W 6294  27.367   9.296   3.653
41475W        W 6295  39.839   3.336   1.136
41476W        W 6296  35.781  37.551   2.209
41477W        W 6297   8.007   0.999   1.314
41478W        W 6298   4.740  12.193  13.606
41479W        W 6299  30.223  34.855  14.850
41480W        W 6300   7.546  43.802   3.784
41481W        W 6301  12.801  41.261  12.499
41482W        W 6302  22.009  28.144  10.821
41483W        W 6303  30.475  19.627   3.638
41484W        W 6304   2.326   8.480   1.267
41485W        W 6305  16.446  21.065   4.444
41486W        W 6306  11.888  30.501   1.141
41487W        W 6307  31.360  21.768  13.651
41488W        W 6308   9.567  37.104  12.478
41489W        W 6309   6.372  32.699  12.428
41490W        W 6310  44.377  38.391  12.477
41491W        W 6311  20.342  16.903   0.907
41492W        W 6312  26.231   2.338  13.815
41493W        W 6313  44.117  19.443  13.213
41494W        W 6314  43.299  10.089   3.912
41495W        W 6315  42.648  11.151   4.163
41496W        W 6316   6.890  10.998   2.776
41497W        W 6317  26.571  29.199   4.068
41498W        W 6318  36.084  23.026  13.353
41499W        W 6319  43.805  40.492  10.620
41500W        W 6320  35.368  29.162   4.658
41501W        W 6321  17.737  36.997   3.650
41502W        W 6322   1.439  24.811   2.478
41503W        W 6323   1.660  18.707   4.559
41504W        W 6324  31.767  20.681  11.526
41505W        W 6325  16.384  40.404   2.759
41506W        W 6326  27.555   5.789   2.754
41507W        W 6327  44.780  39.566   3.742
41508W        W 6328   3.417   7.676  11.648
41509W        W 6329   1.416  29.224   4.164
41510W        W 6330  43.314  14.774  10.861
41511W        W 6331  15.187  16.267   4.148
41512W        W 6332  40.963  27.375   2.830
41513W        W 6333  44.298  18.698  12.468
41514W        W 6334  44.041  37.485  10.168
41515W        W 6335  19.101   1.691   2.848
41516W        W 6336  23.811  35.475   4.170
41517W        W 6337  21.347   3.908   4.540
41518W        W 6338  20.067   8.857  12.925
41519W        W 6339  23.546  43.806  14.072
41520W        W 6340  30.023  25.043   2.229
41521W        W 6341  14.586  25.017   0.278
41522W        W 6342  44.038  35.402   2.323
41523W        W 6343  24.257   8.712  14.715
41524W        W 6344  15.291   0.868  14.886
41525W        W 6345  30.553  32.870   1.272
41526W        W 6346  23.369  44.244  11.141
41527W        W 6347  29.064  37.055   3.010
41528W        W 6348  38.559   4.793   4.618
41529W        W 6349  32.212  38.947  14.353
41530W        W 6350  17.815  30.622   1.338
41531W        W 6351   8.822  34.619  12.958
41532W        W 6352  10.740  14.195  13.020
41533W        W 6353  15.851  23.971  13.485
41534W        W 6354  10.228  20.015  10.422
41535W        W 6355   4.687  26.112   4.580
41536W        W 6356   7.876   7.008  12.791
41537W        W 6357  40.961  39.306  11.678
41538W        W 6358  17.122  15.424  10.600
41539W        W 6359  44.915  27.738  10.493
41540W        W 6360  29.583  24.127   1.276
41541W        W 6361  28.387  32.188  13.550
41542W        W 6362  29.432  39.912  10.657
41543W        W 6363  23.082  18.165  12.592
41544W        W 6364  18.053  38.528  11.423
41545W        W 6365  13.353  42.126   3.773
41546W        W 6366  41.341  26.647   0.043
41547W        W 6367  41.878   7.897   2.276
41548W        W 6368  20.881  15.044   3.538
41549W        W 6369  27.785   3.634  12.902
41550W        W 6370  43.401  23.169   1.354
41551W        W 6371  21.114  44.015  11.910
41552W        W 6372  38.952  15.097   3.075
41553W        W 6373   8.286  33.553  14.971
41554W        W 6374  24.259  38.346   0.201
41555W        W 6375  41.930   6.611  10.696
41556W        W 6376  20.304   5.300  12.541
41557W        W 6377  27.509  41.952   0.974
41558W        W 6378  35.598  24.099   4.604
41559W        W 6379  10.407   1.929   0.439
41560W        W 6380  25.385  32.096   3.771
41561W        W 6381  13.593  12.856  14.799
41562W        W 6382  19.567  32.666  10.737
41563W        W 6383   0.935  16.820   4.123
41564W        W 6384  19.352  35.184  12.839
41565W        W 6385  41.428  38.430  13.423
41566W        W 6386  36.418  16.387   2.186
41567W        W 6387  19.535  17.192   1.790
41568W        W 6388  26.957   0.267   3.209
41569W        W 6389  28.634  13.703  11.689
41570W        W 6390  31.701  41.871   2.211
41571W        W 6391  37.175  17.717   1.723
41572W        W 6392   1.540  29.692  12.985
41573W        W 6393  26.538  20.234  12.563
41574W        W 6394  21.987  32.407   0.403
41575W        W 6395  39.841   8.087  12.969
41576W        W 6396   9.630   8.881   1.747
41577W        W 6397  34.905   3.202  12.013
41578W        W 6398  25.105  16.713   0.520
41579W        W 6399   1.509   2.905  10.706
41580W        W 6400  42.734  11.385  11.075
41581W        W 6401  24.564  34.340   3.664
41582W        W 6402   2.606  23.992  11.444
41583W        W 6403  41.756  44.587   3.805
41584W        W 6404  26.423  22.689   3.646
41585W        W 6405  42.514  23.124  10.810
41586W        W 6406  14.169  39.070   2.807
41587W        W 6407  39.091  29.399   4.055
41588W        W 6408   6.327  27.405   2.690
41589W        W 6409  15.120  14.870  14.070
41590W        W 6410   7.707   2.490  10.691
41591W        W 6411  11.357   0.276  10.719
41592W        W 6412  35.409  20.630   0.504
41593W        W 6413  26.510   9.117  11.548
41594W        W 6414   3.936  37.733  10.210
41595W        W 6415  18.950  19.545   3.633
41596W        W 6416   6.455   6.759  14.404
41597W        W 6417  38.252  33.713   2.024
41598W        W 6418  30.431   3.018   4.130
41599W        W 6419  17.203  41.322  11.674
41600W        W 6420  30.536  26.766  12.963
41601W        W 6421  26.758   4.475  13.002
41602W        W 6422  14.596  34.341  11.520
41603W        W 6423  22.487  40.352  11.394
41604W        W 6424  32.412  32.722   0.517
41605W        W 6425   2.319  18.716  12.835
41606W        W 6426  26.631  39.842   3.683
41607W        W 6427  18.019  15.334  12.545
41608W        W 6428  18.104  22.479   3.857
41609W        W 6429  41.574  38.567  14.473
41610W        W 6430  42.675  13.100   5.044
41611W        W 6431  35.633  20.660  11.181
41612W        W 6432  28.381  12.811  11.216
41613W        W 6433  11.546  37.781  12.840
41614W        W 6434  10.854  18.605  13.877
41615W        W 6435  19.124  31.045   4.068
41616W        W 6436   4.302  19.622  14.327
41617W        W 6437  18.591  31.486   3.526
41618W        W 6438  38.935  22.684  12.488
41619W        W 6439  44.141  22.798   4.601
41620W        W 6440  29.864  34.501  14.857
41621W        W 6441  10.678  22.716  14.357
41622W        W 6442   6.898  38.171  13.020
41623W        W 6443  13.070  28.692  13.382
41624W        W 6444  31.087  43.078   4.585
41625W        W 6445   5.167  30.617  11.139
41626W        W 6446   7.440  33.451  10.791
41627W        W 6447  31.911   3.183  11.165
41628W        W 6448  42.399  43.502   0.964
41629W        W 6449  14.861   9.896  13.798
41630W        W 6450  44.452  32.169   2.251
41631W        W 6451   4.374  20.389  14.815
41632W        W 6452   9.178  14.399  12.194
41633W        W 6453  17.740  17.676   4.946
41634W        W 6454   9.127  29.312  11.169
41635W        W 6455  23.655  12.186   2.359
41636W        W 6456   2.293  14.048   0.451
41637W        W 6457  17.134   5.421   2.281
41638W        W 6458  32.342   7.820   0.304
41639W        W 6459  42.761  14.136  10.373
41640W        W 6460  29.459  37.989   1.003
41641W        W 6461  16.984  30.611  14.635
41642W        W 6462  36.511  32.079  13.588
41643W        W 6463   1.470  19.799  11.520
41644W        W 6464  13.812  11.365  13.765
41645W        W 6465  41.648  40.883  11.406
41646W        W 6466  44.489  41.830  10.439
41647W        W 6467   0.416  18.296  11.937
41648W        W 6468   2.276  33.620  11.562
41649W        W 6469  43.782  32.060  14.446
41650W        W 6470  25.198   6.198   1.874
41651W        W 6471  18.962  32.139   0.325
41652W        W 6472  27.507  26.077  12.732
41653W        W 6473   3.223  17.341  13.621
41654W        W 6474   3.842  25.542  11.551
41655W        W 6475  13.349  27.213  12.545
41656W        W 6476  24.706  41.457   2.243
41657W        W 6477  29.723   9.395   2.972
41658W        W 6478  39.029  13.163  11.561
41659W        W 6479   9.693  32.184  10.039
41660W        W 6480  20.098   4.934   0.030
41661W        W 6481  16.332  35.778   2.802
41662W        W 6482  20.722  31.178  12.188
41663W        W 6483  36.065  32.449   3.276
41664W        W 6484  43.617  31.582  14.296
41665W        W 6485  20.214  22.141  14.483
41666W        W 6486  25.512  10.963   2.800
41667W        W 6487  37.990  42.979  12.884
41668W        W 6488  38.367  14.243  14.818
41669W        W 6489  30.361  15.267   0.801
41670W        W 6490   8.353  27.710  12.697
41671W        W 6491  36.889  21.860  11.955
41672W        W 6492  22.742  11.857   0.008
41673W        W 6493  29.426  43.512  11.674
41674W        W 6494  18.150  28.935  11.135
41675W        W 6495  12.335  30.125  14.420
41676W        W 6496  41.325  31.469   2.914
41677W        W 6497  19.312  34.433  13.384
41678W        W 6498  24.699  28.120  14.885
41679W        W 6499  37.068  11.132   1.297
41680W        W 6500  17.300  34.762   3.304
41681W        W 6501  37.094  14.125  11.429
41682W        W 6502  31.920  17.164  11.774
41683W        W 6503  36.104   5.916  13.846
41684W        W 6504  19.476   7.290   2.085
41685W        W 6505  31.952  34.802   3.574
41686W        W 6506  29.443  39.407  10.519
41687W        W 6507   6.386  36.356  14.119
41688W        W 6508  36.466  27.698  14.434
41689W        W 6509  29.202  33.984   4.590
41690W        W 6510  17.994  26.953   4.848
41691W        W 6511  39.176  30.075   3.487
41692W        W 6512   9.271  23.769  14.412
41693W        W 6513  33.336   8.153   0.349
41694W        W 6514   1.246  32.517  10.905
41695W        W 6515  39.871  34.378  10.680
41696W        W 6516  32.075  18.262   0.461
41697W        W 6517  13.608  30.580   1.655
41698W        W 6518  33.217  41.207  12.601
41699W        W 6519  25.733  43.517  13.941
41700W        W 6520  27.572  10.257   1.946
41701W        W 6521  21.577  36.413   4.575
41702W        W 6522  31.587  34.377   0.047
41703W        W 6523  42.695  18.696   2.593
41704W        W 6524  19.241   8.684   1.620
41705W        W 6525  41.123  27.905   3.644
41706W        W 6526  15.212  22.033  12.728
41707W        W 6527   8.653  29.622  11.099
41708W        W 6528  19.672  10.834  13.572
41709W        W 6529  33.555  16.117  12.593
41710W        W 6530   3.845  16.819   4.063
41711W        W 6531  14.877  44.160  13.623
41712W        W 6532  38.834  36.456   0.924
41713W        W 6533  26.727  36.940   2.764
41714W        W 6534  29.977  11.230  13.950
41715W        W 6535  29.354  21.124   2.146
41716W        W 6536  22.614   8.690  13.916
41717W        W 6537  23.811  21.509   1.818
41718W        W 6538  17.575  15.811   4.119
41719W        W 6539   5.761  11.818  12.067
41720W        W 6540  12.250   7.161   3.362
41721W        W 6541  43.463  12.563  12.362
41722W        W 6542  36.555  43.716   4.559
41723W        W 6543   9.070  12.287   1.745
41724W        W 6544  25.221  21.492   2.557
41725W        W 6545  32.160   4.950   1.444
41726W        W 6546  19.037   6.698  10.958
41727W        W 6547  42.734  16.352  14.606
41728W        W 6548  12.842  25.065  11.618
41729W        W 6549  40.745  10.868   2.605
41730W        W 6550  36.098  29.177   4.974
41731W        W 6551  39.598  21.289  11.103
41732W        W 6552  25.425  10.978  12.958
41733W        W 6553  29.178  44.850   2.774
41734W        W 6554  17.266  10.711   2.745
41735W        W 6555  11.773  40.024  14.772
41736W        W 6556   5.314  11.256   4.195
41737W        W 6557  19.768   3.918  14.294
41738W        W 6558  35.151  19.704  12.667
41739W        W 6559   6.760  27.183   0.840
41740W        W 6560  37.319  33.547  14.362
41741W        W 6561   8.281  34.918   3.092
41742W        W 6562   5.750  14.124   2.198
41743W        W 6563  16.256   4.526   1.270
41744W        W 6564  34.917  33.121   2.364
41745W        W 6565  17.740  40.293  10.737
41746W        W 6566   3.955  19.551  12.517
41747W        W 6567   3.836   7.827  11.087
41748W        W 6568  42.376  12.271   2.308
41749W        W 6569  20.453   7.202  14.548
41750W        W 6570  31.536  35.683   0.823
41751W        W 6571  37.780   1.945   1.868
41752W        W 6572   4.847   5.233  10.517
41753W        W 6573  39.456  18.705   3.281
41754W        W 6574  14.608  32.235  11.112
41755W        W 6575  16.381  34.767   3.762
41756W        W 6576  23.046   3.328   1.264
41757W        W 6577  20.702   5.599   1.669
41758W        W 6578  15.784  42.506   0.772
41759W        W 6579  42.268   7.395   3.870
41760W        W 6580  19.020  38.344   2.970
41761W        W 6581  44.261  20.757  10.730
41762W        W 6582  37.019  43.272   2.166
41763W        W 6583  27.901  40.502   5.105
41764W        W 6584   6.487  10.761  14.584
41765W        W 6585   1.244  15.925  14.007
41766W        W 6586  16.689  42.558  12.667
41767W        W 6587  17.675  39.788   0.434
41768W        W 6588  25.117  11.761  14.777
41769W        W 6589  10.106  31.337  14.837
41770W        W 6590  27.526  15.302  10.614
41771W        W 6591  39.450  33.642   2.174
41772W        W 6592  22.623  21.494   3.092
41773W        W 6593  34.394  32.361  13.941
41774W        W 6594   5.892  36.611   3.163
41775W        W 6595   9.940  44.289  10.919
41776W        W 6596  32.179  27.532  11.246
41777W        W 6597  35.569  28.417  13.045
41778W        W 6598   5.208  21.657   5.085
41779W        W 6599  40.095  30.071  11.001
41780W        W 6600  14.026   3.384  12.474
41781W        W 6601  39.367  21.709  12.009
41782W        W 6602   1.954  11.568  11.113
41783W        W 6603  42.026  31.485   4.537
41784W        W 6604  39.451  23.567  11.414
41785W        W 6605  42.801  10.319   2.618
41786W        W 6606  10.340  26.411  11.153
41787W        W 6607  14.118  32.558   0.392
41788W        W 6608  26.152  35.108  14.417
41789W        W 6609   9.237  36.520  11.065
41790W        W 6610  43.084   6.613   0.223
41791W        W 6611  43.515  15.841   3.194
41792W        W 6612  28.535  44.873  12.892
41793W        W 6613  43.041  39.882   3.125
41794W        W 6614  21.617  15.238  13.934
41795W        W 6615  21.763  28.747  11.645
41796W        W 6616   3.865  40.930   4.684
41797W        W 6617  21.790   1.441  11.953
41798W        W 6618   3.470  35.137   3.276
41799W        W 6619  27.529   0.578  12.305
41800W        W 6620  39.317  35.061  11.350
41801W        W 6621  30.513   8.880  10.929
41802W        W 6622   7.797  17.645   0.243
41803W        W 6623  27.619  40.355  14.922
41804W        W 6624  34.785  43.503   1.815
41805W        W 6625   8.338  36.555   3.732
41806W        W 6626  38.357   0.437  11.617
41807W        W 6627  40.419  19.085   4.868
41808W        W 6628  11.392   4.495  14.974
41809W        W 6629   3.765  33.592  10.453
41810W        W 6630  30.186  37.623  14.410
41811W        W 6631  31.026   3.552   5.060
41812W        W 6632   2.430   8.121  11.068
41813W        W 6633   3.223  25.099   3.346
41814W        W 6634  11.708  44.791   2.265
41815W        W 6635  38.750  33.606   1.995
41816W        W 6636   4.213  31.659   2.296
41817W        W 6637  44.913  33.842  10.682
41818W        W 6638  11.146  12.612   1.287
41819W        W 6639  13.225  23.784  12.373
41820W        W 6640  34.348   6.347  11.173
41821W        W 6641  31.396  33.892   2.683
41822W        W 6642  18.041  31.651   2.741
41823W        W 6643  44.499  27.856  11.116
41824W        W 6644  27.692  13.130   0.912
41825W        W 6645  13.854  19.795   0.961
41826W        W 6646  34.433  12.417   4.522
41827W        W 6647  44.838  14.239   0.961
41828W        W 6648  22.439   1.462   0.398
41829W        W 6649  20.397  34.957  10.971
41830W        W 6650  14.513   8.408  11.537
41831W        W 6651  23.754   2.978   0.815
41832W        W 6652  42.453  16.275   1.672
41833W        W 6653  23.681  26.928   4.276
41834W        W 6654  10.748   2.526  13.004
41835W        W 6655  24.417  37.166   4.261
41836W        W 6656  39.621  25.813  11.680
41837W        W 6657  30.357  13.857  13.993
41838W        W 6658  11.792  40.378   4.549
41839W        W 6659  33.427  33.544  12.089
41840W        W 6660  35.101  16.786  12.068
41841W        W 6661  26.049  32.433   4.741
41842W        W 6662  12.673  22.525   1.239
41843W        W 6663  38.316  14.718  11.998
41844W        W 6664  41.043   1.862  11.084
41845W        W 6665   5.438  28.416   3.246
41846W        W 6666  38.314  34.243   4.146
41847W        W 6667  23.164  28.121  13.018
41848W        W 6668   0.681  10.156  12.972
41849W        W 6669  18.083  36.968   2.391
41850W        W 6670  22.515  31.666   1.843
41851W        W 6671  43.487   7.201   1.288
41852W        W 6672  11.803  36.638  12.325
41853W        W 6673   0.262  31.230   0.388
41854W        W 6674   6.090  14.326   4.862
41855W        W 6675  31.977   5.653   2.184
41856W        W 6676  28.798  14.835  13.835
41857W        W 6677  20.879  33.737  13.268
41858W        W 6678  43.377   8.447   4.518
41859W        W 6679  44.477   6.787  14.498
41860W        W 6680  44.656   3.230  13.431
41861W        W 6681  20.562  20.190   3.708
41862W        W 6682  29.443  25.431   3.455
41863W        W 6683  13.212  40.013   3.247
41864W        W 6684   5.396  27.871   3.298
41865W        W 6685  19.501  37.353  12.135
41866W        W 6686  34.373  22.588  14.912
41867W        W 6687  36.379  34.028  14.687
41868W        W 6688  16.961  35.505   1.395
41869W        W 6689  32.991   6.045  14.683
41870W        W 6690   9.327  21.653  14.425
41871W        W 6691  10.231  29.586   9.878
41872W        W 6692  34.438  25.290   0.734
41873W        W 6693  38.416  42.474  13.691
41874W        W 6694  40.980  34.383  10.935
41875W        W 6695  11.727  40.352   5.080
41876W        W 6696  26.470  24.980  14.438
41877W        W 6697  35.829   8.259  13.975
41878W        W 6698  19.578  12.909   3.900
41879W        W 6699  16.331  41.295  11.597
41880W        W 6700  36.859  11.322  13.545
41881W        W 6701  37.064  23.951  13.045
41882W        W 6702  34.610  30.248   1.373
41883W        W 6703   2.384  14.213  10.737
41884W        W 6704  13.284   7.991   1.308
41885W        W 6705  29.461  26.330  13.497
41886W        W 6706   5.671   0.115  11.027
41887W        W 6707   4.563  38.787   2.674
41888W        W 6708   0.195   4.597   3.285
41889W        W 6709   2.521  40.795  11.545
41890W        W 6710  11.865  17.853   4.505
41891W        W 6711  34.018  41.376  11.075
41892W        W 6712  33.200  40.349  12.671
41893W        W 6713  11.298  17.509   5.270
41894W        W 6714  43.284   5.887  14.829
41895W        W 6715   0.690  13.744   4.079
41896W        W 6716  12.152   4.478   1.388
41897W        W 6717   6.592  24.137  11.529
41898W        W 6718  15.793  41.232   0.209
41899W        W 6719  24.822  34.791   4.583
41900W        W 6720  26.626  42.082  12.597
41901W        W 6721  29.094   5.504  13.133
41902W        W 6722  31.443  36.754   5.054
41903W        W 6723  21.690  28.876   3.713
41904W        W 6724  12.195   1.315  14.431
41905W        W 6725  42.300  44.068  14.395
41906W        W 6726  32.088  36.096  12.953
41907W        W 6727  20.994   4.191  12.059
41908W        W 6728  33.656   6.195   0.257
41909W        W 6729   0.802  10.794  13.855
41910W        W 6730  21.277  36.403  12.846
41911W        W 6731  37.709  24.017  10.847
41912W        W 6732   7.378  33.447   3.668
41913W        W 6733  11.246  40.107   2.917
41914W        W 6734  30.053  29.003  11.456
41915W        W 6735  43.847  18.306   1.727
41916W        W 6736   5.490   9.118  11.930
41917W        W 6737  25.749  43.059   2.759
41918W        W 6738  15.769  40.586  12.210
41919W        W 6739  11.798  33.433   4.066
41920W        W 6740   0.261  17.709   1.096
41921W        W 6741  25.998  36.546   2.630
41922W        W 6742   4.277  34.262   1.347
41923W        W 6743   1.440   6.249  12.577
41924W        W 6744   2.801  31.982  14.033
41925W        W 6745  41.934  27.034   0.532
41926W        W 6746   3.952   4.470   1.755
41927W        W 6747  22.115  32.235  12.529
41928W        W 6748  24.510  16.777   1.723
41929W        W 6749   0.418  30.037  14.785
41930W        W 6750   8.641  16.160   2.652
41931W        W 6751  31.603  31.402  12.550
41932W        W 6752  40.537  41.727   1.671
41933W        W 6753   8.477   1.316  14.724
41934W        W 6754  34.089  35.005   0.728
41935W        W 6755  27.651  10.215   4.638
41936W        W 6756  17.786   1.948  13.980
41937W        W 6757  28.913  12.793   4.755
41938W        W 6758   8.614  42.702   3.312
41939W        W 6759  33.781  26.154   5.403
41940W        W 6760  14.754   1.747  12.038
41941W        W 6761  13.038  21.419   2.849
41942W        W 6762  25.048  14.549   1.576
41943W        W 6763   2.001  12.866  11.590
41944W        W 6764  40.357  29.332   2.876
41945W        W 6765   5.529  17.118  13.477
41946W        W 6766  28.520  43.782   0.497
41947W        W 6767  40.947  39.524  11.222
41948W        W 6768  44.261   0.271   2.170
41949W        W 6769   2.866   0.827   2.351
41950W        W 6770  36.645  19.741  12.574
41951W        W 6771  17.158  21.708  11.237
41952W        W 6772   1.909  23.175   2.965
41953W        W 6773  21.670  24.217   0.540
41954W        W 6774  14.840   7.193  14.763
41955W        W 6775  41.907  22.915   4.596
41956W        W 6776  30.543  28.206  14.971
41957W        W 6777  19.627  22.708  12.674
41958W        W 6778  16.235  38.463   3.309
41959W        W 6779  43.888  35.170  11.230
41960W        W 6780  34.581  15.456  12.416
41961W        W 6781  17.401  22.185   3.586
41962W        W 6782  18.715   0.290  12.426
41963W        W 6783  16.993  15.097   4.105
41964W        W 6784  37.093  18.789  10.563
41965W        W 6785  25.700  44.662   2.288
41966W        W 6786  40.546  33.139   4.225
41967W        W 6787  30.996   2.828   3.694
41968W        W 6788  20.402  38.863   2.562
41969W        W 6789   2.403  26.465   3.625
41970W        W 6790  38.897  23.735  12.093
41971W        W 6791  38.900  13.755   1.393
41972W        W 6792  39.384  21.566   2.844
41973W        W 6793  36.572  25.010  11.698
41974W        W 6794  27.158   1.247  14.038
41975W        W 6795  42.286  24.933  11.223
41976W        W 6796  22.235   1.328   0.865
41977W        W 6797  12.329  44.801  11.251
41978W        W 6798  21.561   0.312  11.129
41979W        W 6799  36.501   7.127   4.635
41980W        W 6800  40.538  24.168   1.771
41981W        W 6801  31.792  34.807   1.835
41982W        W 6802  34.996  32.031   4.337
41983W        W 6803  22.733  11.386   0.227
41984W        W 6804  18.647  41.483   2.659
41985W        W 6805  13.117  11.552   0.540
41986W        W 6806  11.734  11.365   3.500
41987W        W 6807  20.102  40.057  14.949
41988W        W 6808  21.410   8.458   2.102
41989W        W 6809  21.040  43.911  12.617
41990W        W 6810  15.061   3.044  11.835
41991W        W 6811  13.459  26.977   2.254
41992W        W 6812  42.765  26.471   4.688
41993W        W 6813  28.744  31.120  10.682
41994W        W 6814  14.259  16.815   2.759
41995W        W 6815  22.730  10.310  14.418
41996W        W 6816  28.941  36.577   1.286
41997W        W 6817  21.649  42.878  13.336
41998W        W 6818  43.889  16.480  11.860
41999W        W 6819  40.918  29.397   1.475
42000W        W 6820   4.912  14.525  12.920
42001W        W 6821   5.890  35.129   1.401
42002W        W 6822  10.073  20.114  14.999
42003W        W 6823  27.622  31.859   3.286
42004W        W 6824  43.322  42.827  11.153
42005W        W 6825  38.001  16.584   4.629
42006W        W 6826  27.215  20.016   2.874
42007W        W 6827  15.323  27.866  13.076
42008W        W 6828  21.998  20.670  10.644
42009W        W 6829  13.251  14.131  11.853
42010W        W 6830  35.594   7.193   0.905
42011W        W 6831  44.940  42.660   1.508
42012W        W 6832  32.069  15.425  11.692
42013W        W 6833  22.767  32.744   3.368
42014W        W 6834  24.795   8.896   4.691
42015W        W 6835  13.596  15.727   4.616
42016W        W 6836  29.709  43.770   2.166
42017W        W 6837  18.169   9.838  14.329
42018W        W 6838  24.403   1.112  14.831
42019W        W 6839  42.912  14.196  10.857
42020W        W 6840  37.465  30.471  14.790
42021W        W 6841  30.131   1.390   4.628
42022W        W 6842   1.332   9.978   4.337
42023W        W 6843   0.083  20.290   0.420
42024W        W 6844  21.558  27.567  12.051
42025W        W 6845  42.406  41.460  10.991
42026W        W 6846  22.540   5.352  10.767
42027W        W 6847  10.668  25.745  14.223
42028W        W 6848  15.499   0.371  11.276
42029W        W 6849  42.528  16.894   4.214
42030W        W 6850  14.975  30.599  12.255
42031W        W 6851  39.273  31.682  10.831
42032W        W 6852  41.523   3.093   4.903
42033W        W 6853  36.220  14.652  11.598
42034W        W 6854  36.445  25.870   3.692
42035W        W 6855  13.382  28.191   1.811
42036W        W 6856  42.321  43.389   0.178
42037W        W 6857  42.809  38.603  11.271
42038W        W 6858  42.755  24.647   1.251
42039W        W 6859  11.720  38.995  14.783
42040W        W 6860   0.633  39.360   3.697
42041W        W 6861   6.141  15.673   4.078
42042W        W 6862  37.318  25.543  10.741
42043W        W 6863  34.980   6.059   1.957
42044W        W 6864  41.114   4.203   2.411
42045W        W 6865  21.087  17.347   4.655
42046W        W 6866  33.033  36.282   2.254
42047W        W 6867  19.514  38.429  13.388
42048W        W 6868  21.295   4.237  14.839
42049W        W 6869  43.095  27.984   2.359
42050W        W 6870  33.060  23.098  10.287
42051W        W 6871  12.354  39.291  11.597
42052W        W 6872  37.371  14.410  10.986
42053W        W 6873  42.078  15.116   1.761
42054W        W 6874  11.815  23.209  11.197
42055W        W 6875   7.685  21.799   2.728
42056W        W 6876  22.581  17.668  11.535
42057W        W 6877  29.219  10.895   0.846
42058W        W 6878   8.710  22.272   1.942
42059W        W 6879  42.585  29.595   3.182
42060W        W 6880  38.591   8.411  12.338
42061W        W 6881  30.042  26.573   3.093
42062W        W 6882   6.605   2.568   1.879
42063W        W 6883  36.103  15.615   4.232
42064W        W 6884  13.375  25.286   1.540
42065W        W 6885  44.943  15.362  11.487
42066W        W 6886  19.775  42.929   1.795
42067W        W 6887  32.910  32.530  13.896
42068W        W 6888  23.969  26.754   5.140
42069W        W 6889   7.996   2.463  11.119
42070W        W 6890  42.781  16.815  12.431
42071W        W 6891  23.636  41.041  12.379
42072W        W 6892  27.748  28.055  11.615
42073W        W 6893  33.513  43.997  10.652
42074W        W 6894   2.225  42.282  13.082
42075W        W 6895   8.396  14.333  11.634
42076W        W 6896   9.566   1.236  11.215
42077W        W 6897  24.736  17.389  11.097
42078W        W 6898  24.577  16.295   1.460
42079W        W 6899  22.807  28.540  10.863
42080W        W 6900   4.189   7.559  12.076
42081W        W 6901  14.455   7.563   4.931
42082W        W 6902   4.804   0.651  13.587
42083W        W 6903  15.433   6.542   3.182
42084W        W 6904  36.563  10.520   0.524
42085W        W 6905  14.814   4.604  12.806
42086W        W 6906  28.630  25.282  12.979
42087W        W 6907  37.434  11.383   4.950
42088W        W 6908  36.146  26.143  14.234
42089W        W 6909  29.848  38.889  13.923
42090W        W 6910  28.936  24.212  14.998
42091W        W 6911  40.739   5.616  13.031
42092W        W 6912  31.317   8.949   0.740
42093W        W 6913  32.856  14.162  14.824
42094W        W 6914  40.974  35.842  12.549
42095W        W 6915   5.177   1.869  10.709
42096W        W 6916  31.097  32.067   1.858
42097W        W 6917  25.034  18.512   1.790
42098W        W 6918  11.544   5.715  10.236
42099W        W 6919  32.578   6.995   3.868
42100W        W 6920  21.566  44.509  13.770
42101W        W 6921   9.719  25.962   9.816
42102W        W 6922   9.821  35.812   2.632
42103W        W 6923  38.069  43.224   2.838
42104W        W 6924  18.707  25.907  10.672
42105W        W 6925   9.420   2.702  14.214
42106W        W 6926  44.522  16.130   0.838
42107W        W 6927  33.499  12.122  13.045
42108W        W 6928  33.374  36.086   1.869
42109W        W 6929   1.053  21.866  13.137
42110W        W 6930  10.070  40.823   4.509
42111W        W 6931  31.915   6.770  12.589
42112W        W 6932  22.878  15.405  10.191
42113W        W 6933   3.317  22.554   5.032
42114W        W 6934   9.110  27.304   1.199
42115W        W 6935   7.617  31.577   2.758
42116W        W 6936  37.943  40.407  14.882
42117W        W 6937  25.838  18.035   4.095
42118W        W 6938  30.893  35.485   4.727
42119W        W 6939   8.161   9.319   1.200
42120W        W 6940  23.525   7.886   4.850
42121W        W 6941  25.143   3.753   2.449
42122W        W 6942   1.288  17.850  12.393
42123W        W 6943  18.383   5.685   1.234
42124W        W 6944  23.174   4.930   2.304
42125W        W 6945  26.125  41.882  13.488
42126W        W 6946   8.273  28.068   1.709
42127W        W 6947  17.676  37.823  11.196
42128W        W 6948  35.589  16.237  12.461
42129W        W 6949  36.756   9.628   0.711
42130W        W 6950  21.358  24.132  13.844
42131W        W 6951  39.329  16.687   3.226
42132W        W 6952  18.169  16.607   0.805
42133W        W 6953  38.951   0.988   1.174
42134W        W 6954   2.490  14.447  13.262
42135W        W 6955  44.696  14.297  14.399
42136W        W 6956  15.963   9.241  10.216
42137W        W 6957  26.748  33.499   3.691
42138W        W 6958  30.629  10.702  12.933
42139W        W 6959  26.252  25.543  12.321
42140W        W 6960  27.016  43.768  14.491
42141W        W 6961  39.067  22.998   3.130
42142W        W 6962  18.854   3.481   2.289
42143W        W 6963  43.086  24.087   3.277
42144W        W 6964  23.502   9.336   0.786
42145W        W 6965  11.163  28.579   1.368
42146W        W 6966   7.810  20.012   1.211
42147W        W 6967   8.408  19.850  14.935
42148W        W 6968  14.999  27.998   2.272
42149W        W 6969  12.223  30.095   2.180
42150W        W 6970  11.232   0.645  10.369
42151W        W 6971  16.361  16.669   2.854
42152W        W 6972  18.121  43.542  10.688
42153W        W 6973  30.297  20.769   3.055
42154W        W 6974  40.502   9.371  13.667
42155W        W 6975  39.021  22.210  10.323
42156W        W 6976  44.257  27.636  12.894
42157W        W 6977  39.500   7.677  10.771
42158W        W 6978   8.944  24.727   0.770
42159W        W 6979  20.623  16.812   2.405
42160W        W 6980  30.345  36.028  12.604
42161W        W 6981  38.827  38.341   1.522
42162W        W 6982  10.288  17.720  12.994
42163W        W 6983  41.837  24.101   5.058
42164W        W 6984  30.616  15.353   1.973
42165W        W 6985  27.211  26.157   1.822
42166W        W 6986  28.606  22.750  11.090
42167W        W 6987  11.764   9.496   1.797
42168W        W 6988   0.455  11.358  11.886
42169W        W 6989  30.048  12.264  14.127
42170W        W 6990  11.111  30.761  12.204
42171W        W 6991  44.323  36.387  12.975
42172W        W 6992  40.327  25.956   0.418
42173W        W 6993  19.479   2.099   0.528
42174W        W 6994  37.778  17.549  12.721
42175W        W 6995  23.518  28.864   2.150
42176W        W 6996  32.298  15.672   2.923
42177W        W 6997  44.178  26.101  12.868
42178W        W 6998  33.330  10.661   3.303
42179W        W 6999  27.622  38.354  12.468
42180W        W 7000   3.816  44.895   4.671
42181W        W 7001   3.866  41.272   1.823
42182W        W 7002  27.373  35.597   3.151
42183W        W 7003  15.331  43.517   3.714
42184W        W 7004  16.744  32.972  10.118
42185W        W 7005  28.166  33.920  12.864
42186W        W 7006  18.051  40.095  11.546
42187W        W 7007  17.772  34.497  13.210
42188W        W 7008  28.883  34.779   0.897
42189W        W 7009  33.643  36.972   4.731
42190W        W 7010  41.486  12.799  12.150
42191W        W 7011  43.058  29.846  11.680
42192W        W 7012  18.901  33.138   0.894
42193W        W 7013  13.054  44.495   2.295
42194W        W 7014  18.500  42.016   2.530
42195W        W 7015   4.363  16.725  12.435
42196W        W 7016  40.973  37.622   1.753
42197W        W 7017  44.522  35.157   2.270
42198W        W 7018  13.260  28.084   4.604
42199W        W 7019  30.431  19.136  14.812
42200W        W 7020   7.766  38.474  12.474
42201W        W 7021   2.920  43.521  13.965
42202W        W 7022  12.048   7.902   2.538
42203W        W 7023  29.534   0.030   1.917
42204W        W 7024  25.216   5.048  12.568
42205W        W 7025  37.383  16.208   3.267
42206W        W 7026   6.329  26.431   2.895
42207W        W 7027   3.481  34.088  10.420
42208W        W 7028   5.162  32.672   1.704
42209W        W 7029   0.449  42.415   4.374
42210W        W 7030  13.773  23.106  12.889
42211W        W 7031  34.487  29.156   4.570
42212W        W 7032  22.886   1.812   4.758
42213W        W 7033  36.633  15.898   5.435
42214W        W 7034   7.666  20.492  12.925
42215W        W 7035   4.135  19.185   2.369
42216W        W 7036  43.053  12.693  14.338
42217W        W 7037   5.089  26.675   4.111
42218W        W 7038   3.431  21.830   2.310
42219W        W 7039  18.787   3.805   1.038
42220W        W 7040  20.520  22.093  13.950
42221W        W 7041   8.586  34.448   3.112
42222W        W 7042  31.171  30.606   4.561
42223W        W 7043  28.196  33.592   2.778
42224W        W 7044  30.903  42.238  14.050
42225W        W 7045  36.515   5.850  10.694
42226W        W 7046  29.820  36.941   1.166
42227W        W 7047  36.516  34.853   1.919
42228W        W 7048  33.879  26.521   4.835
42229W        W 7049  42.154   1.923  13.859
42230W        W 7050  10.134  37.408   3.312
42231W        W 7051  30.192   6.428  13.901
42232W        W 7052  43.609  29.836  11.465
42233W        W 7053  38.442   7.873   4.523
42234W        W 7054  33.921  23.526  13.956
42235W        W 7055  32.083   2.139   0.913
42236W        W 7056   0.401  14.816  14.486
42237W        W 7057   9.347  12.752   1.851
42238W        W 7058  33.796  26.230  13.462
42239W        W 7059  29.489   7.633  12.802
42240W        W 7060  42.904  43.427  10.672
42241W        W 7061   6.804  19.368  12.095
42242W        W 7062  30.993  43.247   4.103
42243W        W 7063  25.117  26.617  10.171
42244W        W 7064  28.418  21.266   4.263
42245W        W 7065   0.043  44.906  12.892
42246W        W 7066   6.304  15.790  12.186
42247W        W 7067  29.445  30.898  11.080
42248W        W 7068  32.873  31.257   2.745
42249W        W 7069  12.717  44.869  14.995
42250W        W 7070  24.274  35.613   3.188
42251W        W 7071  40.373  22.254   2.247
42252W        W 7072   3.409  36.515  10.454
42253W        W 7073  27.636  23.067   2.791
42254W        W 7074  33.362  31.428   1.982
42255W        W 7075  29.339  21.111  11.326
42256W        W 7076  30.475  32.353   1.280
42257W        W 7077   2.897   0.527   1.910
42258W        W 7078   3.422  19.308  13.343
42259W        W 7079  21.247   0.863  10.383
42260W        W 7080  40.331  23.773   2.227
42261W        W 7081  15.775  40.985   2.980
42262W        W 7082  43.244  14.355  10.508
42263W        W 7083  21.942   0.815  13.035
42264W        W 7084  15.396  15.119  11.031
42265W        W 7085  20.697   2.593  12.901
42266W        W 7086  20.814   8.766   3.223
42267W        W 7087  41.324  30.910  13.844
42268W        W 7088  30.655  26.598  14.870
42269W        W 7089  43.715  34.904   4.484
42270W        W 7090  34.925  44.515   1.815
42271W        W 7091   1.300  21.041   1.913
42272W        W 7092  34.593  17.018   3.286
42273W        W 7093  16.133  22.083  11.984
42274W        W 7094  42.362  43.328  13.042
42275W        W 7095  32.869  20.527   9.813
42276W        W 7096   2.245   3.765  11.207
42277W        W 7097  37.563  27.392  13.379
42278W        W 7098  20.717  12.893   1.676
42279W        W 7099  43.177  38.822  13.864
42280W        W 7100  28.175  25.052   0.355
42281W        W 7101  34.296  22.316   1.393
42282W        W 7102  17.515  35.493   2.768
42283W        W 7103  22.445  40.373   2.219
42284W        W 7104  29.545  13.183   0.954
42285W        W 7105  38.672  38.536  10.097
42286W        W 7106  40.830  38.673   1.842
42287W        W 7107  30.160  10.207   4.801
42288W        W 7108  42.347  13.267   1.428
42289W        W 7109  27.505  23.273   3.242
42290W        W 7110  39.864  19.715   0.722
42291W        W 7111  31.187  28.981  14.736
42292W        W 7112  39.881   2.208   3.236
42293W        W 7113  38.143  17.653   5.931
42294W        W 7114  29.928  14.971   3.365
42295W        W 7115   6.746   9.655   4.890
42296W        W 7116  28.992  40.383  12.956
42297W        W 7117  44.993  13.670   1.246
42298W        W 7118  11.509  25.254   1.923
42299W        W 7119  43.319   5.494  12.919
42300W        W 7120  25.561  44.271  14.591
42301W        W 7121   3.036  22.102  11.179
42302W        W 7122   1.804  29.479   3.897
42303W        W 7123  23.525  38.349   4.048
42304W        W 7124   9.666  18.377  11.076
42305W        W 7125  17.707   6.750   0.504
42306W        W 7126  41.999  27.721  13.823
42307W        W 7127  39.447  18.058  13.035
42308W        W 7128  36.583  44.553   4.173
42309W        W 7129  32.409   9.249  14.342
42310W        W 7130  23.477  39.471  10.773
42311W        W 7131  28.079  35.348  13.856
42312W        W 7132   5.380  20.340  12.023
42313W        W 7133   3.829  12.882  12.948
42314W        W 7134  23.173  27.055   1.087
42315W        W 7135  10.301  12.117  13.862
42316W        W 7136  42.756  12.380  13.866
42317W        W 7137   8.395  27.559   1.801
42318W        W 7138  14.761  28.109  11.940
42319W        W 7139  32.549  20.844   0.313
42320W        W 7140   2.143  41.401  13.099
42321W        W 7141  23.653  36.098   3.777
42322W        W 7142  13.459  30.659  11.989
42323W        W 7143  42.071  17.220   0.997
42324W        W 7144  33.019   2.673   1.934
42325W        W 7145   6.190  19.123   2.296
42326W        W 7146  36.054  24.535   0.273
42327W        W 7147   4.178  17.873  11.180
42328W        W 7148  35.925  28.354  13.603
42329W        W 7149  40.480   3.054  11.439
42330W        W 7150   9.163  42.920  10.151
42331W        W 7151   2.638  29.686  14.972
42332W        W 7152  27.551  36.841   5.536
42333W        W 7153   1.236   4.708  12.595
42334W        W 7154  33.666  15.957   1.842
42335W        W 7155  44.283  35.622   4.969
42336W        W 7156  15.916  28.237  13.641
42337W        W 7157   2.312  15.016  14.485
42338W        W 7158  15.776  40.053  11.395
42339W        W 7159  25.787  24.348   2.337
42340W        W 7160  34.660  38.732   1.723
42341W        W 7161  15.771  17.125  12.968
42342W        W 7162  19.080  25.126  13.551
42343W        W 7163  10.189  21.551   2.797
42344W        W 7164   0.732  19.895   3.739
42345W        W 7165  10.333  18.586   4.006
42346W        W 7166   3.838  35.221   4.499
42347W        W 7167  38.631  31.087  14.478
42348W        W 7168  26.665  16.226  14.878
42349W        W 7169  20.198  24.501   0.367
42350W        W 7170  18.771  20.618   2.616
42351W        W 7171  32.550   3.918   2.821
42352W        W 7172  27.889  27.140  13.600
42353W        W 7173  29.462  20.808   1.502
42354W        W 7174   1.315  20.984  14.801
42355W        W 7175   0.345  26.452  14.908
42356W        W 7176  36.773  37.324  14.904
42357W        W 7177  28.499  29.980  13.757
42358W        W 7178  28.467  28.555   1.527
42359W        W 7179  17.537  16.780   0.842
42360W        W 7180  42.315  41.240   3.193
42361W        W 7181  22.713  24.457   0.079
42362W        W 7182  33.975  21.579   4.380
42363W        W 7183  24.716   8.202  11.928
42364W        W 7184  36.491  37.060  11.099
42365W        W 7185  39.887  11.780  13.262
42366W        W 7186  21.051   4.890  12.554
42367W        W 7187  23.083  37.685  13.733
42368W        W 7188  28.011  15.502   1.754
42369W        W 7189   2.382  39.008  10.336
42370W        W 7190  41.230  31.941   0.706
42371W        W 7191  39.455  37.882  11.154
42372W        W 7192  14.657  43.432   2.179
42373W        W 7193  14.887  33.426  13.910
42374W        W 7194  40.570  32.914  11.667
42375W        W 7195   2.040  21.007   3.574
42376W        W 7196  29.055  19.006  10.282
42377W        W 7197   4.832  39.533  14.508
42378W        W 7198  18.147  39.713   0.198
42379W        W 7199  15.802   7.342   1.935
42380W        W 7200  31.943  13.231  11.622
42381W        W 7201   1.861  40.918   3.482
42382W        W 7202  23.342  18.527  12.265
42383W        W 7203  39.991  34.042   4.663
42384W        W 7204  40.765  24.070  11.025
42385W        W 7205  24.232  20.076  12.953
42386W        W 7206  33.101  31.835   4.608
42387W        W 7207  31.595  33.109  13.961
42388W        W 7208  27.224  21.176   2.125
42389W        W 7209  28.804  34.695  11.120
42390W        W 7210  31.780  29.495   0.627
42391W        W 7211  12.224  41.797   4.368
42392W        W 7212  10.758  27.584   0.769
42393W        W 7213  40.799  44.215  12.479
42394W        W 7214   8.886  13.085   4.071
42395W        W 7215  20.527   7.641   2.689
42396W        W 7216  26.571  15.191  11.497
42397W        W 7217  40.495  34.481  11.567
42398W        W 7218  36.914   7.720   4.063
42399W        W 7219  11.404  11.873  11.195
42400W        W 7220  24.663  31.222   2.784
42401W        W 7221  20.132  28.910  10.661
42402W        W 7222  44.295  19.101   1.085
42403W        W 7223  28.915  10.726   2.653
42404W        W 7224  39.718  41.931  13.214
42405W        W 7225   9.702   7.786  10.535
42406W        W 7226  39.815  11.572  10.551
42407W        W 7227   9.421  22.983  13.096
42408W        W 7228  13.561  21.154  11.975
42409W        W 7229  15.265  11.352   1.953
42410W        W 7230   0.630  15.206   3.630
42411W        W 7231  34.048  33.689  13.266
42412W        W 7232  26.657  34.330  10.700
42413W        W 7233  12.804  42.992  11.712
42414W        W 7234  10.601   5.050  10.282
42415W        W 7235  22.139  17.577   4.103
42416W        W 7236  28.934   1.420  14.233
42417W        W 7237  18.280  10.718   3.676
42418W        W 7238  28.148  15.424  13.621
42419W        W 7239   3.203  35.403   4.021
42420W        W 7240  18.886  12.585   1.814
42421W        W 7241  44.459  34.646   2.250
42422W        W 7242  10.645  17.643   1.879
42423W        W 7243  17.498  28.232  14.984
42424W        W 7244  29.425  15.866  12.820
42425W        W 7245  16.588  12.680  12.384
42426W        W 7246   8.940  36.419  11.495
42427W        W 7247  32.643  27.698  13.409
42428W        W 7248  43.324  19.507   2.840
42429W        W 7249  28.127   9.731  13.589
42430W        W 7250  29.002  34.996  12.867
42431W        W 7251  13.277  30.881  11.173
42432W        W 7252  29.855  13.363  10.971
42433W        W 7253  18.634   3.029  14.952
42434W        W 7254  44.888  43.263  13.413
42435W        W 7255  32.055  11.655   1.796
42436W        W 7256  31.858  29.368  11.177
42437W        W 7257  44.254  37.399  13.954
42438W        W 7258  37.037  39.628   3.744
42439W        W 7259   8.275  31.132   2.489
42440W        W 7260   1.759  37.524   1.162
42441W        W 7261   8.083  35.549  12.885
42442W        W 7262  10.555  20.581   3.711
42443W        W 7263  39.868  15.271   1.598
42444W        W 7264  40.471  31.910   3.200
42445W        W 7265  13.264   1.467  13.452
42446W        W 7266  40.914  40.755   3.268
42447W        W 7267  36.646  21.682   3.327
42448W        W 7268  23.601  43.015   0.475
42449W        W 7269  23.517  33.964  11.144
42450W        W 7270  34.344   8.187   4.061
42451W        W 7271  21.063  18.281   2.751
42452W        W 7272  32.979  34.602   2.854
42453W        W 7273  30.412   4.390   4.234
42454W        W 7274  32.008  29.036   0.744
42455W        W 7275  41.518  43.011   2.804
42456W        W 7276  33.699  10.454   0.290
42457W        W 7277   7.713   0.754   0.752
42458W        W 7278  29.172   3.045   2.750
42459W        W 7279  22.463   2.882  11.430
42460W        W 7280  32.542  33.336  13.383
42461W        W 7281   0.830   8.688   4.538
42462W        W 7282  32.483  22.236  14.363
42463W        W 7283  16.316  34.634  12.016
42464W        W 7284  35.020   1.974   3.640
42465W        W 7285  43.814  18.048  11.167
42466W        W 7286  40.500  12.090   3.648
42467W        W 7287  36.072  43.868  11.289
42468W        W 7288  44.847  23.172   0.163
42469W        W 7289  27.001  14.070  10.665
42470W        W 7290  35.348   4.712   2.250
42471W        W 7291  28.211   6.256   0.251
42472W        W 7292  10.569   4.545  10.405
42473W        W 7293  16.770  17.019   2.379
42474W        W 7294   5.236   0.587   2.524
42475W        W 7295  23.743  42.598  11.526
42476W        W 7296   1.238   4.964  14.851
42477W        W 7297  18.223  10.938  11.031
42478W        W 7298  39.749   6.589  12.856
42479W        W 7299  30.398  40.132  11.626
42480W        W 7300  13.303  32.972   4.392
42481W        W 7301  31.918  18.191  10.850
42482W        W 7302  11.228   5.292  14.755
42483W        W 7303   3.374  28.392  12.153
42484W        W 7304  13.865  36.843  13.862
42485W        W 7305  20.182  38.538  11.270
42486W        W 7306  27.200  20.613  13.055
42487W        W 7307  21.237   2.414   2.358
42488W        W 7308  37.983  33.440   2.938
42489W        W 7309  37.855  14.559   3.660
42490W        W 7310  12.841  23.798  11.049
42491W        W 7311  25.533  19.539  14.262
42492W        W 7312   9.874   8.717  14.517
42493W        W 7313  10.132  42.885   0.935
42494W        W 7314  27.313  42.922   2.690
42495W        W 7315  43.197   6.410   2.932
42496W        W 7316  23.919   1.470   0.387
42497W        W 7317  43.818  35.978  10.838
42498W        W 7318  20.204  35.609  11.903
42499W        W 7319   1.906  36.609  11.435
42500W        W 7320  25.031  37.835  13.855
42501W        W 7321  27.856  41.925  11.460
42502W        W 7322  41.082  34.357   1.381
42503W        W 7323  34.429  27.713  11.973
42504W        W 7324  27.139  14.239  11.895
42505W        W 7325  43.376   4.277  10.825
42506W        W 7326  30.578   9.922   4.938
42507W        W 7327   6.220  38.889  13.458
42508W        W 7328   8.453   9.650   4.062
42509W        W 7329   3.883  24.607   4.571
42510W        W 7330   5.146  29.085   0.258
42511W        W 7331  42.693  10.871  14.502
42512W        W 7332   0.439  29.006  14.842
42513W        W 7333  18.802  14.323  14.935
42514W        W 7334  14.624  14.577  13.380
42515W        W 7335  29.698   8.319  12.996
42516W        W 7336  18.949   4.673   1.908
42517W        W 7337  26.693  29.008  12.824
42518W        W 7338   0.291  43.780   3.768
42519W        W 7339  20.336  37.467  11.505
42520W        W 7340  43.137  10.929   1.134
42521W        W 7341  10.228  26.698  14.813
42522W        W 7342  40.043  36.573  13.942
42523W        W 7343  22.169  21.672  10.325
42524W        W 7344  36.900  41.616  13.743
42525W        W 7345  40.910   5.688   0.798
42526W        W 7346  32.179  31.419   1.437
42527W        W 7347  32.190  10.153   2.697
42528W        W 7348  13.621  26.451   0.806
42529W        W 7349  44.987   4.505  13.782
42530W        W 7350   7.907   4.587  14.421
42531W        W 7351  30.128  29.800  12.807
42532W        W 7352  35.357  32.314  14.975
42533W        W 7353  32.833  22.916  10.707
42534W        W 7354  13.583  13.691  10.725
42535W        W 7355  24.920  31.490   2.364
42536W        W 7356  21.433  44.476   4.187
42537W        W 7357   6.126  20.336   1.293
42538W        W 7358  24.462   6.162  10.648
42539W        W 7359  38.201  33.548   0.223
42540W        W 7360   4.806   1.000   0.847
42541W        W 7361  33.983  34.678   0.320
42542W        W 7362   2.889  28.840  14.853
42543W        W 7363  33.862  31.758  11.353
42544W        W 7364  10.843  44.438  10.914
42545W        W 7365   9.183  27.034  10.879
42546W        W 7366   8.629  19.627  13.598
42547W        W 7367  27.552  16.717   0.376
42548W        W 7368  33.896  27.916  12.880
42549W        W 7369  15.591  18.864   4.269
42550W        W 7370   4.884   6.676   1.796
42551W        W 7371  10.152   4.744  14.083
42552W        W 7372   9.596   6.314  10.896
42553W        W 7373  16.229  39.968   0.407
42554W        W 7374  28.837  36.560  14.764
42555W        W 7375   5.497   6.711  14.200
42556W        W 7376  31.997  43.922  14.973
42557W        W 7377   6.166  42.712  12.103
42558W        W 7378   3.172  18.095  14.996
42559W        W 7379  17.530  23.686  14.904
42560W        W 7380  16.601  44.880   3.059
42561W        W 7381  44.521  44.866  12.920
42562W        W 7382   6.946   7.347  11.805
42563W        W 7383   0.787  10.377   3.779
42564W        W 7384  11.040  24.981  12.576
42565W        W 7385  31.214  14.826  13.066
42566W        W 7386  35.397  44.773   1.756
42567W        W 7387  34.535  22.555  11.654
42568W        W 7388  27.939  14.971   2.630
42569W        W 7389  39.413  32.986   1.403
42570W        W 7390  33.449  38.272  11.870
42571W        W 7391  34.045  30.831  11.217
42572W        W 7392  36.903  36.165  11.381
42573W        W 7393  40.512  14.726   2.496
42574W        W 7394   9.779   7.617   2.266
42575W        W 7395  22.451  10.882  11.644
42576W        W 7396   9.783  29.428  13.819
42577W        W 7397   0.379  27.216   3.224
42578W        W 7398  19.591  31.686   2.330
42579W        W 7399  37.386  43.882   3.788
42580W        W 7400   3.698   6.669   3.286
42581W        W 7401  42.989  30.512  10.184
42582W        W 7402  35.039  30.379  13.610
42583W        W 7403  11.741  38.086  11.540
42584W        W 7404  18.154  36.682   3.657
42585W        W 7405  25.998  27.892   2.592
42586W        W 7406  13.749  12.931  12.957
42587W        W 7407  17.705  39.013   2.744
42588W        W 7408  13.300  20.778  14.505
42589W        W 7409  15.380  31.471   3.590
42590W        W 7410  34.609  19.619   3.266
42591W        W 7411   6.308  28.748   2.299
42592W        W 7412  24.973  38.356   0.816
42593W        W 7413  38.429  15.878   2.382
42594W        W 7414  18.008  35.351   2.801
42595W        W 7415  24.020  24.648  10.813
42596W        W 7416  10.615  15.272   0.756
42597W        W 7417  33.709   1.463  11.637
42598W        W 7418   4.015   7.729  11.570
42599W        W 7419  36.346  11.608  12.070
42600W        W 7420  36.506   0.252  14.479
42601W        W 7421   9.821  42.078   2.883
42602W        W 7422  21.861  37.417  12.168
42603W        W 7423  19.256  38.277   3.724
42604W        W 7424  10.155   8.134  11.390
42605W        W 7425  30.960   4.898   2.481
42606W        W 7426  25.089  29.973  11.407
42607W        W 7427  18.329   0.021  12.637
42608W        W 7428  12.636   7.890  12.542
42609W        W 7429  18.753  11.311   2.278
42610W        W 7430  28.421  35.418   3.149
42611W        W 7431  41.274  22.177   4.585
42612W        W 7432  19.173  35.669   2.742
42613W        W 7433  34.556  12.027   5.478
42614W        W 7434  25.474   9.881  12.378
42615W        W 7435  36.237   4.347  12.733
42616W        W 7436  20.721  36.974  10.667
42617W        W 7437  43.777  39.390  11.857
42618W        W 7438  42.052  42.734  11.579
42619W        W 7439  35.460   5.921   1.876
42620W        W 7440  17.623  42.241   2.220
42621W        W 7441   3.019  31.429   1.006
42622W        W 7442  38.341  21.280   4.059
42623W        W 7443   4.236  44.385   3.991
42624W        W 7444  16.010  10.864   2.234
42625W        W 7445  44.221  43.516   0.385
42626W        W 7446  16.264   2.345   0.902
42627W        W 7447  12.198  36.945   1.295
42628W        W 7448  14.768  24.962  11.792
42629W        W 7449   4.925  38.548   2.353
42630W        W 7450   5.255   6.822   3.270
42631W        W 7451  43.033  16.321   3.101
42632W        W 7452  20.611  18.972  12.956
42633W        W 7453   3.411  28.455  13.065
42634W        W 7454   1.295   6.938   0.865
42635W        W 7455  29.105  26.516  11.163
42636W        W 7456  34.779  40.713  11.969
42637W        W 7457  37.935  41.959  12.769
42638W        W 7458  12.842  43.861   4.872
42639W        W 7459   8.392  44.516  13.027
42640W        W 7460  34.248  34.936  11.031
42641W        W 7461   2.299  10.483  14.350
42642W        W 7462  38.666  13.270  14.774
42643W        W 7463  15.660  22.786   4.569
42644W        W 7464  30.971  21.444  13.867
42645W        W 7465  25.091  39.980  10.628
42646W        W 7466  39.807   0.684   1.947
42647W        W 7467  22.625  21.944  13.515
42648W        W 7468  35.044  22.813  13.693
42649W        W 7469  13.853  16.858  11.409
42650W        W 7470   7.158   8.103   3.660
42651W        W 7471   2.028  12.653   2.191
42652W        W 7472  26.144  43.874  13.463
42653W        W 7473  25.236  27.065   4.333
42654W        W 7474  19.034  42.078   2.771
42655W        W 7475  30.744   6.403  11.995
42656W        W 7476   9.782  27.432  10.221
42657W        W 7477  17.310   4.762   2.950
42658W        W 7478  32.163  22.916  14.726
42659W        W 7479  37.958  19.443   4.048
42660W        W 7480  39.003   6.700   1.918
42661W        W 7481  38.306  38.777  13.406
42662W        W 7482  29.179  28.218  11.610
42663W        W 7483  14.050  12.559  11.098
42664W        W 7484  40.651  43.178  11.272
42665W        W 7485  24.582  36.117   0.430
42666W        W 7486  14.561  30.509  11.319
42667W        W 7487  17.800  10.784   0.297
42668W        W 7488  16.604   8.229  10.586
42669W        W 7489   7.729   9.351   0.917
42670W        W 7490  24.537  43.548   3.845
42671W        W 7491  12.160   3.779  12.512
42672W        W 7492  13.234   0.872   2.100
42673W        W 7493  32.537  20.599   2.756
42674W        W 7494  12.693  36.251   3.660
42675W        W 7495  17.311  20.702   4.580
42676W        W 7496  40.386  34.087   5.089
42677W        W 7497  13.436  14.766   2.141
42678W        W 7498  39.343  19.546   4.149
42679W        W 7499   6.815  16.742   2.169
42680W        W 7500  11.147   9.311  11.094
42681W        W 7501  29.136  34.025  13.841
42682W        W 7502  16.255  43.725   1.504
42683W        W 7503  26.448   4.052  14.842
42684W        W 7504  26.640  29.448   3.641
42685W        W 7505  37.241  12.461   1.650
42686W        W 7506   1.640  10.786  13.479
42687W        W 7507   1.537   8.373   3.323
42688W        W 7508  21.023  37.760   1.508
42689W        W 7509  24.368  37.899  14.958
42690W        W 7510   5.930   8.464  14.483
42691W        W 7511   1.690  35.981   2.718
42692W        W 7512  43.486  37.406   4.135
42693W        W 7513   8.292  35.336  12.471
42694W        W 7514  44.512  33.437  13.842
42695W        W 7515  36.601  23.131   4.613
42696W        W 7516  24.042  17.835  14.576
42697W        W 7517  32.900  44.544  10.861
42698W        W 7518  44.851  44.139   2.656
42699W        W 7519  11.162  29.938   2.134
42700W        W 7520   6.440  34.255  11.966
42701W        W 7521  35.202  34.505   1.350
42702W        W 7522   6.122  33.899  12.846
42703W        W 7523  14.157  38.270  12.472
42704W        W 7524  18.211   7.577  11.789
42705W        W 7525   2.846  36.307  12.178
42706W        W 7526  19.703  31.985   3.659
42707W        W 7527  44.645  41.121  11.998
42708W        W 7528  34.480   0.026  12.495
42709W        W 7529   5.460  40.558  10.776
42710W        W 7530  30.478  12.245   4.364
42711W        W 7531  35.738  21.144  12.550
42712W        W 7532   6.659  39.767  12.018
42713W        W 7533  24.207  18.565   2.901
42714W        W 7534   1.295  20.667  10.340
42715W        W 7535  18.138  34.577   0.519
42716W        W 7536  25.210  33.843  13.137
42717W        W 7537  44.362  19.615  13.677
42718W        W 7538  44.317  38.350   1.408
42719W        W 7539  36.196  25.657  14.450
42720W        W 7540   3.899  41.046  13.477
42721W        W 7541  29.395   8.037   4.124
42722W        W 7542   8.333  28.730   4.849
42723W        W 7543  43.881  21.826   1.903
42724W        W 7544  36.541  19.797  12.062
42725W        W 7545  42.654  42.822   3.622
42726W        W 7546   2.451  37.423   1.783
42727W        W 7547  17.848   4.530   3.414
42728W        W 7548  18.620  11.478  11.756
42729W        W 7549  33.242  23.064  12.615
42730W        W 7550  18.882  17.982  12.032
42731W        W 7551   1.728  33.566   4.591
42732W        W 7552   0.473   9.328  13.515
42733W        W 7553  28.196  14.892   1.289
42734W        W 7554  10.683  14.769   1.562
42735W        W 7555  14.823  32.710  11.112
42736W        W 7556  14.020  12.412   1.204
42737W        W 7557  16.276  23.978   4.541
42738W        W 7558   5.397  29.065  11.754
42739W        W 7559  34.292  19.739  11.471
42740W        W 7560  25.928  36.554   0.944
42741W        W 7561  12.969  29.577  11.575
42742W        W 7562  24.328  14.298   5.236
42743W        W 7563  17.807  36.346  12.096
42744W        W 7564  28.654  43.598   0.947
42745W        W 7565  19.709  19.232  14.740
42746W        W 7566  44.792  10.497  12.890
42747W        W 7567  16.698  22.179  12.069
42748W        W 7568  18.983  13.049   0.498
42749W        W 7569  13.781  31.537   3.342
42750W        W 7570   1.454  38.771   3.876
42751W        W 7571  16.017  41.982  11.156
42752W        W 7572  25.539  29.236  14.300
42753W        W 7573   0.420  31.162   4.549
42754W        W 7574  14.208   3.265  14.703
42755W        W 7575   5.204  21.179   0.797
42756W        W 7576   9.865  34.803  12.014
42757W        W 7577  16.288  11.436   1.090
42758W        W 7578   3.619  43.788   0.678
42759W        W 7579   8.651  14.611   1.746
42760W        W 7580   1.554  29.548  11.111
42761W        W 7581  22.407  27.630   2.183
42762W        W 7582  16.623   7.361  12.963
42763W        W 7583   5.812  37.106   4.557
42764W        W 7584  33.540  22.489   2.893
42765W        W 7585  43.415  32.212  13.980
42766W        W 7586  19.663   4.126  12.863
42767W        W 7587  31.664  22.138  12.485
42768W        W 7588  14.417   4.248   0.723
42769W        W 7589   5.424  33.392  13.020
42770W        W 7590   4.378  19.032   4.546
42771W        W 7591  27.980  31.845   1.178
42772W        W 7592  33.911   5.925   1.287
42773W        W 7593  37.841  37.413   3.732
42774W        W 7594   6.243  10.163  12.513
42775W        W 7595  15.760   9.725   1.204
42776W        W 7596  38.805  22.681   2.844
42777W        W 7597  13.186  19.529  14.895
42778W        W 7598  26.505  20.290   1.738
42779W        W 7599   3.895  29.707  14.961
42780W        W 7600  38.411   5.165  11.445
42781W        W 7601   9.044   9.685  12.652
42782W        W 7602   6.635  25.115  10.113
42783W        W 7603  26.041  33.342   1.319
42784W        W 7604  30.115   2.351   1.639
42785W        W 7605  17.298  17.365   5.007
42786W        W 7606  11.898  43.348   2.454
42787W        W 7607   2.422  22.138  14.886
42788W        W 7608  22.084  15.344  12.508
42789W        W 7609  20.941  13.398   2.432
42790W        W 7610  26.566   2.201  14.222
42791W        W 7611  21.565  35.934  14.945
42792W        W 7612  27.051  30.250  12.123
42793W        W 7613  39.310  37.890  14.484
42794W        W 7614   6.366  44.800  14.920
42795W        W 7615  17.387  23.748  12.501
42796W        W 7616  14.808   4.382  14.006
42797W        W 7617  18.150  34.594   3.066
42798W        W 7618  31.891  22.774   2.238
42799W        W 7619  29.500  40.567  14.508
42800W        W 7620  33.514  29.556   0.824
42801W        W 7621  25.688  19.583   1.365
42802W        W 7622  44.379  29.331   0.793
42803W        W 7623   8.437  44.417   1.334
42804W        W 7624  13.759   1.766   2.236
42805W        W 7625  21.837  27.700   3.274
42806W        W 7626   6.489  20.569  11.566
42807W        W 7627   3.878  11.804   3.111
42808W        W 7628   4.519   9.102   4.050
42809W        W 7629  42.448   0.573  14.677
42810W        W 7630  23.556  31.510   2.742
42811W        W 7631  34.303   2.275   4.996
42812W        W 7632  26.531  40.509  12.164
42813W        W 7633  39.903  43.062  13.904
42814W        W 7634  43.020  29.414  10.818
42815W        W 7635  23.597  35.917   1.888
42816W        W 7636  44.342  16.246  11.431
42817W        W 7637  26.370  38.458   2.580
42818W        W 7638   5.163  21.149  10.722
42819W        W 7639  34.393   7.960   2.709
42820W        W 7640  13.582   2.491  12.856
42821W        W 7641  34.511  25.369  10.767
42822W        W 7642   0.216   8.424  12.600
42823W        W 7643  38.633  26.557  12.057
42824W        W 7644  17.875  37.148  14.129
42825W        W 7645   6.198  15.217  11.674
42826W        W 7646  39.796  26.449  13.628
42827W        W 7647   9.054  16.059  12.099
42828W        W 7648  33.535   7.464  13.926
42829W        W 7649  15.106  31.025  11.512
42830W        W 7650  40.343  27.700   2.217
42831W        W 7651  30.031  38.299   1.651
42832W        W 7652  38.841   8.189  14.769
42833W        W 7653  44.973  39.678   4.822
42834W        W 7654  14.323  37.635  12.923
42835W        W 7655  36.574  39.014  14.411
42836W        W 7656  12.153  44.387  13.407
42837W        W 7657  23.029  23.618  14.437
42838W        W 7658  22.511  20.075   4.141
42839W        W 7659  15.109  37.959   4.223
42840W        W 7660  20.666  10.290   0.774
42841W        W 7661  40.856  27.915   2.751
42842W        W 7662  11.681   3.748   2.826
42843W        W 7663  38.760  31.707   1.936
42844W        W 7664  30.747  26.106   1.991
42845W        W 7665  10.520  39.372   0.243
42846W        W 7666   4.100  31.686  11.088
42847W        W 7667  25.916  15.413  12.070
42848W        W 7668  35.408  10.770  10.296
42849W        W 7669  44.435  13.775   0.306
42850W        W 7670   3.907  14.201   5.054
42851W        W 7671  26.731  14.666  13.054
42852W        W 7672  18.002  40.952   2.044
42853W        W 7673  36.025  26.213   1.429
42854W        W 7674   2.345  26.492   4.614
42855W        W 7675  15.830  18.569   3.892
42856W        W 7676   1.627  19.303  11.537
42857W        W 7677   8.271  34.852  10.678
42858W        W 7678  39.632   6.199   0.365
42859W        W 7679   7.111  34.784  12.386
42860W        W 7680  21.569  29.370   2.376
42861W        W 7681  33.960  24.586   3.171
42862W        W 7682  10.398   4.719  11.614
42863W        W 7683  17.810   0.407  10.511
42864W        W 7684  18.515  39.430   2.536
42865W        W 7685   8.860  28.661  13.595
42866W        W 7686  22.791  35.463   3.343
42867W        W 7687   2.070  20.136   2.758
42868W        W 7688   8.157  26.442   0.082
42869W        W 7689   7.216  26.168   1.745
42870W        W 7690  12.620  33.517  14.316
42871W        W 7691  32.947  30.893  12.370
42872W        W 7692   6.682  38.278  11.056
42873W        W 7693   4.820  22.147  12.094
42874W        W 7694  27.228  13.736   1.982
42875W        W 7695  23.600  25.660  13.488
42876W        W 7696  31.976   0.392   1.239
42877W        W 7697  39.796   8.719   0.484
42878W        W 7698  25.350   5.296   3.909
42879W        W 7699  39.662  17.094  13.906
42880W        W 7700  32.214  43.556   0.341
42881W        W 7701  41.969  38.523   0.450
42882W        W 7702   9.228   6.877   4.834
42883W        W 7703  37.523  19.102   4.723
42884W        W 7704  19.103   0.438  14.466
42885W        W 7705   2.034  40.337  12.163
42886W        W 7706  32.879   3.212  11.011
42887W        W 7707   5.413  33.839  14.775
42888W        W 7708  17.853  15.766   1.299
42889W        W 7709  15.252  38.035  13.246
42890W        W 7710  31.009  37.896   1.269
42891W        W 7711  19.682  22.077   0.425
42892W        W 7712  24.068  13.591   2.234
42893W        W 7713  14.276  41.010  10.607
42894W        W 7714  34.007  40.764  13.930
42895W        W 7715  21.160  36.112   4.553
42896W        W 7716  35.798  32.376   2.831
42897W        W 7717  13.127  44.093   3.776
42898W        W 7718   5.218  18.120   3.587
42899W        W 7719  25.473  12.235   4.061
42900W        W 7720  15.974  23.149  11.134
42901W        W 7721  35.646  29.577  11.508
42902W        W 7722  21.129   9.925  12.030
42903W        W 7723  26.476   6.205  12.487
42904W        W 7724  11.712  35.174   3.082
42905W        W 7725  33.963  35.614  11.599
42906W        W 7726  36.516  17.164   0.929
42907W        W 7727  18.530   8.567   4.708
42908W        W 7728  43.491   1.819  13.773
42909W        W 7729  16.955  32.923  10.739
42910W        W 7730  40.753  10.265  13.413
42911W        W 7731   4.677   8.741  12.979
42912W        W 7732   3.746  21.559   3.451
42913W        W 7733  11.796  24.272   4.972
42914W        W 7734   7.729  11.142  14.662
42915W        W 7735  27.403  13.555  11.132
42916W        W 7736  37.570  24.644   2.818
42917W        W 7737  33.941  18.110   2.594
42918W        W 7738   9.454  14.354  14.453
42919W        W 7739  32.959   5.497  12.259
42920W        W 7740   1.830  28.041  11.622
42921W        W 7741   9.633  26.130   5.043
42922W        W 7742  19.243  13.281   0.886
42923W        W 7743  36.459  32.142  11.617
42924W        W 7744  24.692  44.966   0.561
42925W        W 7745  25.157  25.564  11.943
42926W        W 7746   7.655  17.775  12.666
42927W        W 7747  44.569  39.475   4.568
42928W        W 7748  38.769   0.352  12.605
42929W        W 7749   1.014   3.698   4.151
42930W        W 7750   7.363  32.670   2.328
42931W        W 7751  22.173  34.469  13.265
42932W        W 7752  41.502   3.547   1.954
42933W        W 7753  36.345  29.193   0.367
42934W        W 7754   0.745   3.916   3.572
42935W        W 7755  23.076  17.905   1.884
42936W        W 7756   8.245   9.825  14.819
42937W        W 7757  34.978   3.982  11.096
42938W        W 7758  22.734  39.937  12.489
42939W        W 7759  33.111   7.847  11.920
42940W        W 7760  40.118  12.877   0.336
42941W        W 7761  35.146  14.676  14.874
42942W        W 7762   4.676  21.054  11.582
42943W        W 7763  25.455  40.342   4.100
42944W        W 7764  20.137   3.547  10.377
42945W        W 7765  44.590  27.201   3.192
42946W        W 7766   1.954  43.003   0.405
42947W        W 7767  42.107  23.014  11.132
42948W        W 7768   2.312  33.528   4.666
42949W        W 7769  39.908  22.845  12.563
42950W        W 7770  13.822  23.267   2.668
42951W        W 7771  18.797  21.287  12.858
42952W        W 7772  15.812  31.102   0.824
42953W        W 7773  40.718  16.146  12.859
42954W        W 7774  30.522  24.705   3.284
42955W        W 7775   1.475  29.699   3.225
42956W        W 7776  23.739  27.962  12.434
42957W        W 7777   6.879  29.202  13.049
42958W        W 7778  20.270   4.737   9.897
42959W        W 7779  26.494  32.997   1.418
42960W        W 7780   7.321  18.676   4.505
42961W        W 7781  19.071  32.675  13.168
42962W        W 7782  23.260  33.195  14.092
42963W        W 7783  41.238  26.908  10.479
42964W        W 7784  28.414  19.634   4.804
42965W        W 7785  12.108  16.181   0.248
42966W        W 7786   4.568  18.159  11.586
42967W        W 7787   8.378  19.138   0.830
42968W        W 7788  31.978  21.026  10.176
42969W        W 7789  26.563   0.611   3.151
42970W        W 7790  20.284   2.099   1.158
42971W        W 7791  41.979   0.399   3.270
42972W        W 7792  16.654  18.030  12.605
42973W        W 7793   7.919  14.315   1.237
42974W        W 7794  11.932   3.261   0.289
42975W        W 7795  20.294   3.820   2.925
42976W        W 7796  11.802  24.148   3.049
42977W        W 7797  15.140  19.328  11.246
42978W        W 7798  39.946  26.168   5.171
42979W        W 7799   5.372   8.377   2.332
42980W        W 7800  15.705  29.566  12.020
42981W        W 7801  25.667  29.931  13.027
42982W        W 7802  17.772  10.216   3.274
42983W        W 7803  44.750  36.511   4.935
42984W        W 7804  41.735  35.178  14.976
42985W        W 7805  19.034  34.654   1.516
42986W        W 7806  33.591  23.154   0.517
42987W        W 7807   9.860  31.862  13.812
42988W        W 7808   8.701   2.240  11.573
42989W        W 7809   9.290  15.208  13.311
42990W        W 7810  20.274   6.702   3.103
42991W        W 7811  23.485  23.985  12.479
42992W        W 7812   4.457  24.719   0.901
42993W        W 7813  34.392  18.456   3.712
42994W        W 7814  33.435  33.967  12.384
42995W        W 7815  32.041  37.011  12.876
42996W        W 7816  39.953  24.936  14.910
42997W        W 7817  36.120  14.278   3.586
42998W        W 7818  44.695  24.675  12.645
42999W        W 7819  34.376   6.290  11.671
43000W        W 7820  28.961  24.166   0.517
43001W        W 7821  38.172   8.263   5.023
43002W        W 7822   4.383  37.932   4.366
43003W        W 7823  33.371   4.918  11.982
43004W        W 7824  30.126  37.103  11.086
43005W        W 7825  13.801  41.382   4.390
43006W        W 7826  31.503  11.067  12.668
43007W        W 7827  25.718  39.075  11.931
43008W        W 7828  42.714  43.452   0.528
43009W        W 7829  42.836  12.394  14.793
43010W        W 7830  18.113  30.904  13.453
43011W        W 7831   1.138  34.408  13.539
43012W        W 7832   4.393  36.960   1.400
43013W        W 7833  12.032  40.551   3.094
43014W        W 7834  12.747  27.479   0.043
43015W        W 7835  20.265  30.128   1.815
43016W        W 7836   1.716  41.327  14.344
43017W        W 7837  32.133  20.796  10.623
43018W        W 7838  14.905  33.090   3.302
43019W        W 7839  36.917  23.770  11.525
43020W        W 7840  15.904  33.342  12.943
43021W        W 7841  31.624   1.747  12.142
43022W        W 7842   7.492  26.166   0.503
43023W        W 7843   5.207  32.413  12.977
43024W        W 7844   3.448  22.669   1.016
43025W        W 7845  22.029  23.538   3.671
43026W        W 7846  13.661  37.352   5.033
43027W        W 7847  14.407   4.980  12.941
43028W        W 7848  10.812   5.209   0.913
43029W        W 7849  43.966  11.696  12.550
43030W        W 7850  16.709  33.107   2.307
43031W        W 7851   3.309  37.857   0.926
43032W        W 7852  11.274  23.756  11.930
43033W        W 7853  12.199  19.832  11.572
43034W        W 7854  33.542  17.167   1.543
43035W        W 7855  29.552   6.726  11.536
43036W        W 7856  11.750  15.650  12.865
43037W        W 7857  29.009  34.973   2.712
43038W        W 7858  35.475  36.587   0.714
43039W        W 7859  18.555  26.845  13.868
43040W        W 7860   2.368  11.273  13.531
43041W        W 7861  14.688  15.887   2.852
43042W        W 7862  23.973   3.696  11.212
43043W        W 7863  14.589   5.814   0.185
43044W        W 7864  31.437  20.174  13.555
43045W        W 7865   0.019   0.660   3.529
43046W        W 7866  30.979  44.805  13.857
43047W        W 7867  28.651  30.608   3.753
43048W        W 7868  15.809  32.461  10.958
43049W        W 7869  34.029  37.939   0.204
43050W        W 7870  33.646  16.711  13.035
43051W        W 7871  19.542   6.703  10.976
43052W        W 7872  35.471  12.305   4.113
43053W        W 7873  33.335   1.440  12.895
43054W        W 7874   9.749   4.864   0.530
43055W        W 7875  11.491  25.719  11.068
43056W        W 7876  32.366  41.426   3.196
43057W        W 7877  14.226  22.516  14.317
43058W        W 7878  21.679  29.460   1.489
43059W        W 7879   4.785  22.091  11.158
43060W        W 7880  29.239  21.054   0.279
43061W        W 7881  31.508  39.587   0.459
43062W        W 7882  31.026   6.244  11.591
43063W        W 7883  19.053  14.433  12.966
43064W        W 7884   7.086  13.059  14.398
43065W        W 7885  15.713  29.937   4.593
43066W        W 7886  23.166  42.268   1.866
43067W        W 7887   4.885  15.554  12.899
43068W        W 7888  12.111  26.382   3.205
43069W        W 7889  26.708  21.748   0.903
43070W        W 7890  31.148  37.845  12.077
43071W        W 7891  27.630  37.363   3.602
43072W        W 7892  22.845   8.169   1.555
43073W        W 7893  15.049  36.800  12.136
43074W        W 7894  37.123  26.142  13.893
43075W        W 7895  16.845   2.482  11.101
43076W        W 7896  38.380  10.858   3.157
43077W        W 7897  25.220   3.308   2.192
43078W        W 7898   4.936  21.997   3.233
43079W        W 7899  41.258  25.401   2.292
43080W        W 7900  18.258  20.737   4.839
43081W        W 7901  15.971   0.818  10.711
43082W        W 7902  33.073  28.220  12.858
43083W        W 7903   4.594  17.524  13.514
43084W        W 7904  17.087  20.339   3.870
43085W        W 7905  13.224   1.150   3.611
43086W        W 7906  33.436  14.196   0.812
43087W        W 7907  40.873  18.569   1.818
43088W        W 7908  40.339  22.473  11.189
43089W        W 7909  16.206  39.335  13.364
43090W        W 7910  44.365  33.604   1.381
43091W        W 7911   1.068  30.573   1.405
43092W        W 7912   9.462  28.016   3.640
43093W        W 7913  23.164  44.057  11.576
43094W        W 7914  37.981  33.462   4.174
43095W        W 7915  25.587  24.430   4.557
43096W        W 7916  40.812   6.177   1.940
43097W        W 7917   8.684  13.462   2.672
43098W        W 7918  34.436   5.862   3.926
43099W        W 7919   5.940  41.533   0.965
43100W        W 7920   9.774  24.797   4.306
43101W        W 7921  11.619  24.691  14.234
43102W        W 7922   6.255   3.709  10.243
43103W        W 7923  33.939  18.711  14.609
43104W        W 7924   0.033   5.310  14.803
43105W        W 7925  32.029  40.277  13.572
43106W        W 7926   0.903   5.287   4.084
43107W        W 7927  13.835  40.744  10.639
43108W        W 7928  34.400  41.172   1.676
43109W        W 7929  27.179  17.705   2.239
43110W        W 7930  13.176  33.767  13.422
43111W        W 7931   3.847  16.271  11.942
43112W        W 7932  34.102  30.391  14.887
43113W        W 7933  16.180  22.621   4.623
43114W        W 7934  20.897  13.793   2.779
43115W        W 7935  12.236  23.262   0.948
43116W        W 7936  39.047  36.431  13.705
43117W        W 7937   8.350  40.772   1.371
43118W        W 7938  16.063  20.258   2.301
43119W        W 7939  34.544  26.307  14.549
43120W        W 7940   4.408  41.619  12.090
43121W        W 7941   4.925  42.317  12.213
43122W        W 7942  13.397   0.308   1.426
43123W        W 7943   5.131  44.835   0.908
43124W        W 7944  10.604  14.526   4.958
43125W        W 7945  23.781  32.698   2.392
43126W        W 7946   5.548  12.774  12.078
43127W        W 7947  21.766  20.178   3.716
43128W        W 7948  19.819   3.072  13.017
43129W        W 7949  20.724   9.739   1.961
43130W        W 7950  44.553  40.253   2.392
43131W        W 7951  43.656  21.176  10.254
43132W        W 7952   6.763   4.177   2.305
43133W        W 7953   9.542  34.344  14.801
43134W        W 7954  42.703  21.511  12.690
43135W        W 7955  12.313   1.219   4.133
43136W        W 7956  43.303   1.757   0.865
43137W        W 7957   5.288  21.980   0.463
43138W        W 7958  30.956   5.216   1.791
43139W        W 7959   0.757  19.327   4.254
43140W        W 7960  12.234   8.446  12.083
43141W        W 7961  34.440   8.825  12.508
43142W        W 7962  43.973  18.521   4.507
43143W        W 7963  18.119   9.726   3.324
43144W        W 7964  39.004  35.075   1.294
43145W        W 7965  37.683  39.927  10.765
43146W        W 7966   6.880  36.400   4.196
43147W        W 7967  29.751  28.767   4.485
43148W        W 7968  27.182  18.288  11.577
43149W        W 7969  26.719  42.868  12.942
43150W        W 7970  29.503  34.568   3.314
43151W        W 7971  10.825  32.956   0.402
43152W        W 7972   9.641  39.688   0.145
43153W        W 7973  34.506  21.517   3.745
43154W        W 7974  43.623   2.825   4.900
43155W        W 7975   4.842  32.462   4.603
43156W        W 7976  16.611  10.780  12.617
43157W        W 7977   2.009  19.570   0.229
43158W        W 7978  24.430  38.296   9.949
43159W        W 7979  43.765  12.169  12.524
43160W        W 7980  40.195  12.943  10.703
43161W        W 7981  30.976  25.779  13.793
43162W        W 7982   9.821  24.048   4.656
43163W        W 7983   2.699  18.191  14.307
43164W        W 7984  15.439  13.222   2.696
43165W        W 7985  11.919  10.650  14.494
43166W        W 7986   2.251  40.021   0.817
43167W        W 7987  13.721  38.159   2.253
43168W        W 7988  26.308  40.024  13.425
43169W        W 7989  27.407  33.079  11.999
43170W        W 7990  35.447  40.598   3.740
43171W        W 7991  38.615  12.084  12.894
43172W        W 7992  27.501  15.602   1.137
43173W        W 7993  34.323  10.113   4.180
43174W        W 7994  17.128   5.485   3.619
43175W        W 7995  23.613  24.224  10.669
43176W        W 7996  27.153   4.427  12.042
43177W        W 7997  31.146  15.626   3.746
43178W        W 7998  29.077  32.625   3.104
43179W        W 7999  15.338  44.013  11.172
43180W        W 8000  21.316  32.511   3.123
43181W        W 8001  35.809  41.577   3.574
43182W        W 8002  12.205  43.519   1.260
43183W        W 8003  13.137  37.297   4.924
43184W        W 8004   3.500  27.904  11.487
43185W        W 8005   3.416  18.157  11.664
43186W        W 8006  44.092  21.531  10.202
43187W        W 8007  26.940   9.568  14.628
43188W        W 8008  40.492  12.608   3.524
43189W        W 8009  39.400  37.582   2.581
43190W        W 8010  44.945  21.087  11.404
43191W        W 8011  33.448   8.888   3.723
43192W        W 8012  26.466  26.573   2.870
43193W        W 8013  17.252  30.084  11.231
43194W        W 8014  39.688  26.024   3.677
43195W        W 8015  40.056  19.239   0.699
43196W        W 8016   1.227   1.730  14.767
43197W        W 8017  15.065  43.889  11.605
43198W        W 8018   8.994  36.755   0.306
43199W        W 8019  20.621   1.287  12.634
43200W        W 8020  27.960  38.605   2.257
43201W        W 8021  15.224   3.218   2.611
43202W        W 8022   5.289  13.127  14.757
43203W        W 8023  20.009  13.612   5.027
43204W        W 8024  21.170  28.582   5.275
43205W        W 8025  13.361   2.786  12.420
43206W        W 8026  12.518  41.810  10.551
43207W        W 8027  13.157   0.692  14.474
43208W        W 8028  27.987  27.696  10.721
43209W        W 8029  40.969  25.994  14.977
43210W        W 8030  26.959   7.082  12.098
43211W        W 8031  26.969  37.082   0.974
43212W        W 8032   5.486  22.036   2.280
43213W        W 8033  36.813   8.631   3.740
43214W        W 8034  19.975  33.608   4.191
43215W        W 8035  34.795  43.890   3.584
43216W        W 8036  36.921   4.704   3.686
43217W        W 8037  28.610  43.147   4.156
43218W        W 8038   4.838  15.161  10.936
43219W        W 8039  40.978  27.708   0.878
43220W        W 8040  33.884  21.562   2.947
43221W        W 8041  10.719  33.134   4.723
43222W        W 8042   8.219   0.013   1.959
43223W        W 8043  14.720  26.451   1.232
43224W        W 8044  39.828  23.497   4.576
43225W        W 8045   0.488   3.953  12.911
43226W        W 8046  37.360  22.348  13.430
43227W        W 8047  14.294  38.455   0.898
43228W        W 8048  30.373   3.376   3.180
43229W        W 8049  40.801  25.714   2.190
43230W        W 8050  21.576  20.763   3.897
43231W        W 8051  28.719  26.319  14.978
43232W        W 8052  27.244  23.046   3.801
43233W        W 8053   7.752   7.951   4.934
43234W        W 8054   0.362  21.079  14.585
43235W        W 8055  23.813   8.663  11.114
43236W        W 8056  31.817  18.020   4.605
43237W        W 8057  43.605  42.061  12.414
43238W        W 8058  44.530  35.285  14.410
43239W        W 8059  13.811  42.433  13.025
43240W        W 8060  14.196  33.217  12.684
43241W        W 8061   7.728  37.183   1.788
43242W        W 8062   7.439  25.508   1.590
43243W        W 8063  10.308  11.174   3.710
43244W        W 8064  35.449   7.309  14.541
43245W        W 8065   9.733  11.123   1.968
43246W        W 8066  26.996  35.831   5.005
43247W        W 8067  20.800  29.016  13.489
43248W        W 8068   9.156  40.450  12.891
43249W        W 8069  34.857  43.410   0.920
43250W        W 8070   6.704  41.478  14.373
43251W        W 8071  37.932  22.497  12.341
43252W        W 8072  32.493  33.954   2.573
43253W        W 8073  32.698   8.135   2.886
43254W        W 8074  31.917  28.524  12.919
43255W        W 8075   3.678  17.093  13.487
43256W        W 8076  44.481  37.279  13.479
43257W        W 8077  34.874  15.456  11.468
43258W        W 8078   8.635  17.063  13.452
43259W        W 8079   8.294  14.659   2.105
43260W        W 8080  28.475  27.654   3.078
43261W        W 8081   4.041  13.136  14.280
43262W        W 8082  18.166  14.623  12.955
43263W        W 8083  44.400   1.826   1.765
43264W        W 8084  37.077  18.294   4.568
43265W        W 8085  42.409  24.075  12.346
43266W        W 8086   9.782  23.285   0.299
43267W        W 8087  33.909  37.413  13.934
43268W        W 8088  31.486  10.741   2.241
43269W        W 8089  24.718  43.382  12.407
43270W        W 8090  39.511  25.302   0.207
43271W        W 8091  32.372  23.486   2.819
43272W        W 8092  17.230   8.293  13.768
43273W        W 8093  24.223  22.331   1.320
43274W        W 8094  12.367  30.077  12.463
43275W        W 8095   2.499  17.717  14.389
43276W        W 8096  44.433  44.635  11.949
43277W        W 8097  32.177  39.908   2.305
43278W        W 8098  25.422  24.037  13.016
43279W        W 8099  25.916  13.577   4.508
43280W        W 8100  19.329  10.853   4.007
43281W        W 8101  36.595   5.690  12.466
43282W        W 8102  25.942  19.142   1.342
43283W        W 8103  38.507  22.490  14.952
43284W        W 8104  13.165  24.015  11.393
43285W        W 8105  36.099  11.731  11.648
43286W        W 8106  18.169  44.083  13.585
43287W        W 8107   2.907  37.047   3.236
43288W        W 8108  33.951   7.207   0.871
43289W        W 8109  14.674  41.819   2.856
43290W        W 8110  42.292  38.858   3.402
43291W        W 8111  26.768  17.952  11.671
43292W        W 8112   1.886  18.371  13.904
43293W        W 8113  13.677   9.828  12.660
43294W        W 8114  30.412  19.039   0.338
43295W        W 8115   5.141  38.952   4.350
43296W        W 8116  33.415   7.760   1.220
43297W        W 8117  38.610   2.129  11.601
43298W        W 8118   5.888  10.779   2.777
43299W        W 8119  14.760   6.134  14.009
43300W        W 8120  17.333  39.866  14.648
43301W        W 8121   5.801   7.830  13.796
43302W        W 8122  14.849  11.445  14.959
43303W        W 8123  23.040  32.997  13.655
43304W        W 8124   7.929  44.496   4.221
43305W        W 8125  12.570  21.129   0.986
43306W        W 8126  30.991   8.061   2.931
43307W        W 8127  26.999  41.019   0.342
43308W        W 8128  41.473  33.007  12.042
43309W        W 8129  20.754   6.216  14.410
43310W        W 8130  31.196  19.156   2.266
43311W        W 8131  29.591  39.442   1.991
43312W        W 8132  21.195  18.504  12.530
43313W        W 8133   9.690  43.809  10.800
43314W        W 8134   8.360  34.470   3.858
43315W        W 8135  30.629  18.005   1.318
43316W        W 8136  20.271  43.094   1.897
43317W        W 8137  30.596  42.811   2.288
43318W        W 8138  43.504  30.493  14.683
43319W        W 8139  20.473  39.341   2.359
43320W        W 8140  34.045   0.574   0.826
43321W        W 8141  43.896  36.153  14.055
43322W        W 8142   7.407  42.148   3.414
43323W        W 8143  29.575  13.359  14.872
43324W        W 8144  36.503  38.409  14.738
43325W        W 8145   3.862   4.728  12.514
43326W        W 8146  20.097  15.128   1.781
43327W        W 8147  11.965   7.783  12.855
43328W        W 8148  34.869  10.299   5.015
43329W        W 8149  27.400  15.725   0.636
43330W        W 8150  43.863   1.477   1.522
43331W        W 8151  30.527  35.732  14.950
43332W        W 8152  27.216  19.233   3.391
43333W        W 8153   1.283  23.943   4.821
43334W        W 8154   5.740   1.647   1.893
43335W        W 8155  16.358  25.557   0.952
43336W        W 8156  37.490  11.821   0.825
43337W        W 8157  37.042  39.059   1.269
43338W        W 8158  13.896  23.948   3.633
43339W        W 8159  13.983  22.091  14.502
43340W        W 8160  36.298  24.399  14.466
43341W        W 8161  33.632   5.774  11.692
43342W        W 8162  34.967   3.045   1.725
43343W        W 8163  10.525  42.904   4.143
43344W        W 8164  10.700  40.537   2.772
43345W        W 8165  41.263   6.653  11.148
43346W        W 8166  23.237  40.411  11.698
43347W        W 8167  22.787   7.770   0.632
43348W        W 8168  15.420  30.222  13.492
43349W        W 8169  13.052   6.146  14.613
43350W        W 8170  39.813  23.580  13.070
43351W        W 8171  20.571   0.518   2.179
43352W        W 8172  15.218  13.221   4.711
43353W        W 8173  40.446  37.406   1.616
43354W        W 8174   5.230  39.385  11.508
43355W        W 8175   6.824  28.114   4.208
43356W        W 8176   6.972  10.719  14.419
43357W        W 8177  44.329  43.288  14.320
43358W        W 8178  18.241  19.294   4.619
43359W        W 8179  42.140  29.446  13.822
43360W        W 8180   0.701  29.078  14.400
43361W        W 8181  29.056  19.154  13.574
43362W        W 8182  10.380  12.688  11.000
43363W        W 8183  26.458  12.140  12.720
43364W        W 8184  43.619  26.689   1.349
43365W        W 8185  26.755  37.989   3.164
43366W        W 8186   1.483  24.973  10.782
43367W        W 8187  18.998  13.464   1.321
43368W        W 8188  41.401  36.712  11.488
43369W        W 8189   1.348  22.173  13.408
43370W        W 8190  26.455   4.604  13.404
43371W        W 8191  26.688  22.638   0.325
43372W        W 8192  30.440  26.048   0.533
43373W        W 8193  33.487  31.676   1.550
43374W        W 8194  38.301  23.247  13.866
43375W        W 8195  25.906  18.292   3.656
43376W        W 8196  16.559  27.664  14.929
43377W        W 8197  33.674   8.532  11.079
43378W        W 8198   3.178  39.040  11.886
43379W        W 8199  24.131  19.720   2.027
43380W        W 8200  11.354  15.707  11.672
43381W        W 8201  34.615   8.298  10.728
43382W        W 8202  18.277  15.795  13.922
43383W        W 8203  31.185   4.447  14.294
43384W        W 8204  25.906   7.123  13.352
43385W        W 8205  38.865  34.641  13.531
43386W        W 8206  41.921  24.778   0.736
43387W        W 8207   7.149  34.890   1.916
43388W        W 8208  21.524  37.449  13.467
43389W        W 8209   2.925   1.311  13.159
43390W        W 8210   5.090  29.447  10.872
43391W        W 8211  34.637  26.501  12.341
43392W        W 8212  33.015   3.171   1.024
43393W        W 8213  37.365   6.582  12.357
43394W        W 8214  28.552  41.812  13.173
43395W        W 8215  25.717  29.434  13.006
43396W        W 8216  30.888  16.087   3.732
43397W        W 8217   0.203  15.575  13.478
43398W        W 8218  21.212  44.031  13.096
43399W        W 8219  31.528  16.860  11.994
43400W        W 8220  37.283  14.690   1.782
43401W        W 8221  35.014  25.504  12.542
43402W        W 8222  43.687  25.741   0.794
43403W        W 8223  28.652  14.342  13.875
43404W        W 8224  14.881  18.187   1.836
43405W        W 8225  44.948  29.042   4.484
43406W        W 8226   2.454  33.801   3.650
43407W        W 8227  43.583  31.349  11.217
43408W        W 8228  42.113  33.357  10.391
43409W        W 8229  15.206  14.197  11.001
43410W        W 8230   3.232  44.818   4.808
43411W        W 8231  28.984  30.876   1.784
43412W        W 8232  31.057  10.072  11.638
43413W        W 8233  12.869   6.030  11.409
43414W        W 8234  32.298  39.878  10.601
43415W        W 8235  16.634  41.068  12.402
43416W        W 8236  25.655  33.975  12.905
43417W        W 8237  11.653  21.423  10.764
43418W        W 8238   2.171  39.471   3.742
43419W        W 8239   7.814   2.923  12.732
43420W        W 8240  38.357   6.500  12.498
43421W        W 8241  27.566   2.199   4.015
43422W        W 8242  20.764  23.518  10.821
43423W        W 8243   3.190  34.099  14.876
43424W        W 8244  32.942   5.211  14.127
43425W        W 8245  17.211  20.578  13.136
43426W        W 8246  38.043  38.492  11.393
43427W        W 8247  23.024  20.036   1.363
43428W        W 8248  38.123   3.769   1.933
43429W        W 8249   4.832   1.929   4.196
43430W        W 8250   6.986  14.830  13.107
43431W        W 8251   7.009  39.901  11.678
43432W        W 8252  41.539  28.958  12.032
43433W        W 8253  13.771  10.379  13.474
43434W        W 8254  39.270  42.611  11.174
43435W        W 8255  40.897   1.860   0.990
43436W        W 8256   0.771  10.261  11.648
43437W        W 8257  28.534  38.949  14.788
43438W        W 8258  28.853  37.882  14.269
43439W        W 8259  28.660   3.640  13.880
43440W        W 8260  19.421  14.346  13.918
43441W        W 8261  28.963   9.967   0.465
43442W        W 8262  31.566  30.460  10.616
43443W        W 8263  16.027  18.081   2.822
43444W        W 8264  44.231  35.751   3.346
43445W        W 8265  36.498   9.620  13.152
43446W        W 8266  12.230   9.246   2.821
43447W        W 8267  41.479  23.795  12.820
43448W        W 8268  14.533  12.804   2.272
43449W        W 8269  21.969  21.170  10.920
43450W        W 8270  31.842  36.451  11.638
43451W        W 8271   6.640  10.910  14.066
43452W        W 8272  44.212  24.550  12.735
43453W        W 8273   5.284   7.335   4.585
43454W        W 8274  28.267  29.916   4.302
43455W        W 8275  30.284  37.464   3.590
43456W        W 8276  23.122   4.394  14.244
43457W        W 8277  29.093   8.594   0.057
43458W        W 8278  11.155  26.557  12.180
43459W        W 8279  29.156   1.309   4.878
43460W        W 8280  11.641  18.358   0.487
43461W        W 8281  36.024   4.718   2.818
43462W        W 8282   3.825  43.854  12.783
43463W        W 8283  43.346  30.095   0.461
43464W        W 8284   6.462   2.198   2.316
43465W        W 8285   2.882  37.334  13.576
43466W        W 8286  31.571  14.459  12.944
43467W        W 8287  27.202  30.998  12.530
43468W        W 8288   2.937  23.202   5.062
43469W        W 8289  30.921  43.937   0.376
43470W        W 8290  16.043   0.399  14.734
43471W        W 8291  36.328  11.402   1.523
43472W        W 8292   4.896  34.628  14.889
43473W        W 8293  21.592  30.568  13.039
43474W        W 8294  12.342  31.643  11.645
43475W        W 8295  25.711  21.188   4.824
43476W        W 8296  37.898  36.766  11.174
43477W        W 8297   6.335   3.208  10.369
43478W        W 8298  20.631  15.041   1.869
43479W        W 8299  28.666  25.228   4.122
43480W        W 8300  20.810  35.895   4.243
43481W        W 8301  28.167  11.751  14.669
43482W        W 8302  17.708  11.602   2.900
43483W        W 8303  33.558   2.715  11.150
43484W        W 8304  17.841  31.585  10.780
43485W        W 8305   1.553   0.885   0.847
43486W        W 8306  39.868  32.305  11.976
43487W        W 8307  37.600  38.544  11.139
43488W        W 8308  40.733  17.570   1.152
43489W        W 8309   3.921   4.261   1.226
43490W        W 8310  24.151   6.672  13.350
43491W        W 8311  42.816   1.934   2.675
43492W        W 8312  10.413  28.435  14.471
43493W        W 8313  39.560   9.682  13.460
43494W        W 8314  24.078  13.309   0.874
43495W        W 8315  41.420   1.495   2.650
43496W        W 8316  38.012   3.419  11.599
43497W        W 8317   2.827  38.022   3.832
43498W        W 8318  22.336  19.097  14.505
43499W        W 8319  43.794  16.024   0.316
43500W        W 8320  25.657  21.344  14.855
43501W        W 8321   7.884  42.035   3.248
43502W        W 8322   7.902  38.377   3.370
43503W        W 8323  29.560   5.428  14.534
43504W        W 8324  30.223  11.018  12.975
43505W        W 8325  33.441  44.503  10.795
43506W        W 8326  20.742  43.926   4.385
43507W        W 8327  26.941  26.553  10.727
43508W        W 8328  22.924  18.352   3.755
43509W        W 8329  30.260  27.219   9.762
43510W        W 8330  39.355  12.328  12.584
43511W        W 8331  23.205  16.673   4.526
43512W        W 8332  39.402  27.069   0.883
43513W        W 8333  29.853  41.142  13.757
43514W        W 8334   2.741  19.620  14.770
43515W        W 8335  41.542  15.081   4.738
43516W        W 8336  33.151  26.963  13.366
43517W        W 8337  15.888  23.525  10.787
43518W        W 8338  23.677  36.098   2.377
43519W        W 8339  42.150  12.016   2.727
43520W        W 8340  36.764  33.990  13.867
43521W        W 8341   8.354   0.289  13.416
43522W        W 8342  24.656   4.979   2.224
43523W        W 8343  24.647  18.553  11.598
43524W        W 8344  23.512  40.139  12.062
43525W        W 8345  15.140  12.716   0.362
43526W        W 8346  29.570  36.484  11.655
43527W        W 8347  31.492  40.115   4.482
43528W        W 8348  14.118  27.640  14.636
43529W        W 8349   9.085  13.466   5.026
43530W        W 8350  41.077  31.708   4.063
43531W        W 8351   6.817  17.827  13.114
43532W        W 8352  42.401  15.823  13.054
43533W        W 8353  29.001  10.103  13.453
43534W        W 8354  36.659  27.628  13.058
43535W        W 8355  21.789  22.553  11.521
43536W        W 8356  22.175  40.203   3.826
43537W        W 8357  12.730  38.465  14.923
43538W        W 8358   8.819  44.048   3.279
43539W        W 8359  40.408  33.649  10.437
43540W        W 8360  26.185   7.961  13.915
43541W        W 8361   9.509  17.164   0.230
43542W        W 8362  27.631  31.101   2.250
43543W        W 8363  10.406  21.347  13.687
43544W        W 8364  18.091   4.387   0.057
43545W        W 8365  15.056  39.298   2.766
43546W        W 8366  28.351   9.257  11.561
43547W        W 8367   3.284   3.761   2.291
43548W        W 8368  10.282  15.745   2.755
43549W        W 8369  16.300  32.211   0.503
43550W        W 8370  11.775  12.351   0.266
43551W        W 8371  25.317  12.720  12.552
43552W        W 8372  19.880  15.271  14.854
43553W        W 8373  32.864  40.314   3.754
43554W        W 8374   8.415  34.592   0.542
43555W        W 8375  40.003  38.473  11.513
43556W        W 8376  30.472   0.181   2.058
43557W        W 8377  37.616   0.417  14.676
43558W        W 8378   9.663   4.614  11.020
43559W        W 8379  24.033  32.341  14.721
43560W        W 8380   3.991   9.108   4.097
43561W        W 8381   8.441   4.973   2.186
43562W        W 8382  20.633  13.084  10.720
43563W        W 8383   9.158  25.759  13.476
43564W        W 8384  17.092  43.604   4.668
43565W        W 8385  11.189  20.669   3.788
43566W        W 8386  42.152   5.961   0.397
43567W        W 8387  21.472  38.900  11.599
43568W        W 8388   2.589  36.613  10.982
43569W        W 8389  25.513  27.101  12.495
43570W        W 8390  30.910  13.652  14.972
43571W        W 8391   4.427  11.162  11.782
43572W        W 8392   2.086  36.304  13.854
43573W        W 8393  41.127  33.011   2.340
43574W        W 8394  37.431   0.411   4.587
43575W        W 8395  14.170   3.114   0.918
43576W        W 8396  16.239   0.394   0.448
43577W        W 8397  27.945   2.307  11.805
43578W        W 8398   7.307   5.249  12.309
43579W        W 8399  15.523  35.870  14.814
43580W        W 8400  28.708  15.587   0.370
43581W        W 8401  25.211  12.642   1.764
43582W        W 8402  26.683  35.031  14.438
43583W        W 8403  38.708   4.458  12.634
43584W        W 8404  24.881   7.391   2.316
43585W        W 8405  21.798   7.752   0.966
43586W        W 8406  35.719  24.793  13.261
43587W        W 8407  34.652   8.058   3.685
43588W        W 8408   7.387  16.603   3.914
43589W        W 8409  10.209   9.940   4.258
43590W        W 8410  44.713   2.338   1.802
43591W        W 8411  15.780   8.814   0.910
43592W        W 8412  14.623  26.539  14.399
43593W        W 8413   3.241  27.423  10.628
43594W        W 8414  43.985   9.802   3.218
43595W        W 8415  11.356   0.860   1.831
43596W        W 8416  21.028  40.148   2.171
43597W        W 8417  29.045  39.369   3.267
43598W        W 8418  27.513  17.390   1.138
43599W        W 8419  40.375  32.600  13.892
43600W        W 8420  41.373   3.591   2.962
43601W        W 8421  28.338  12.218  13.152
43602W        W 8422   5.645  29.496  10.681
43603W        W 8423  14.285  44.687   1.939
43604W        W 8424  21.482  20.160  14.454
43605W        W 8425  12.329  32.069   4.033
43606W        W 8426   7.045  36.497  12.991
43607W        W 8427  40.764  22.564   2.404
43608W        W 8428  21.130  24.224  12.460
43609W        W 8429   6.151  17.643  10.957
43610W        W 8430  21.590   6.258   4.459
43611W        W 8431   9.102   0.752  12.571
43612W        W 8432  41.934  38.748   1.281
43613W        W 8433  41.006  21.173  12.020
43614W        W 8434  39.986  30.739  13.436
43615W        W 8435  29.637  22.082  13.938
43616W        W 8436  23.885   6.361  13.023
43617W        W 8437   2.861  31.724   0.061
43618W        W 8438   5.203  35.383   0.222
43619W        W 8439  26.998  12.097  10.419
43620W        W 8440  35.453  44.012   2.652
43621W        W 8441   6.314   9.425   2.214
43622W        W 8442  33.900  23.466   9.975
43623W        W 8443  44.315  40.033   0.293
43624W        W 8444  35.203  41.365   4.807
43625W        W 8445  12.194  42.409  11.644
43626W        W 8446  20.050   8.278   3.134
43627W        W 8447  32.432   0.468  10.692
43628W        W 8448   0.981  34.804   0.304
43629W        W 8449  37.684  12.628   4.572
43630W        W 8450  20.966  39.562   2.392
43631W        W 8451  22.119  14.247  10.381
43632W        W 8452  20.592  43.172   0.032
43633W        W 8453  23.616  34.363  12.038
43634W        W 8454   9.086  43.075  12.497
43635W        W 8455  29.602  22.598  13.861
43636W        W 8456  38.280  28.212   1.805
43637W        W 8457  35.050  39.953   3.733
43638W        W 8458  40.526  34.973  10.684
43639W        W 8459   7.378  11.421  12.724
43640W        W 8460  41.268  25.303   3.227
43641W        W 8461  15.501  16.715  14.053
43642W        W 8462  26.107  11.114  10.647
43643W        W 8463  36.552  12.060   0.840
43644W        W 8464  42.724  11.047  12.968
43645W        W 8465  43.332  35.587   4.128
43646W        W 8466   6.364  39.631   4.638
43647W        W 8467  22.054  36.791   2.431
43648W        W 8468  16.821  32.638   1.395
43649W        W 8469  16.772  10.349   4.838
43650W        W 8470  40.527  19.517   4.584
43651W        W 8471  40.040  11.154  10.801
43652W        W 8472  14.617  43.925  12.909
43653W        W 8473   9.649   0.350   2.766
43654W        W 8474  17.553  29.195  13.439
43655W        W 8475  24.961  24.012  10.196
43656W        W 8476  29.541  38.151   3.192
43657W        W 8477  43.315  40.656  14.058
43658W        W 8478  41.545  21.101  11.176
43659W        W 8479  34.886  13.056   4.941
43660W        W 8480  10.043   1.405   4.195
43661W        W 8481   8.612  24.651   2.437
43662W        W 8482   1.535  36.956   0.340
43663W        W 8483   4.463   2.007   2.846
43664W        W 8484  36.067   5.682  12.417
43665W        W 8485  25.579  25.916  14.002
43666W        W 8486  10.569  29.948   2.244
43667W        W 8487  29.607  13.817  13.031
43668W        W 8488  11.672   2.857   3.244
43669W        W 8489  10.317  31.178  13.998
43670W        W 8490   4.122   1.595  13.815
43671W        W 8491  42.082   6.333   2.256
43672W        W 8492  32.605  15.275   1.691
43673W        W 8493  24.697  33.657   0.001
43674W        W 8494  38.035  18.037  11.464
43675W        W 8495  32.628  39.409   1.452
43676W        W 8496  23.439  36.954  14.399
43677W        W 8497  36.917  13.801   0.997
43678W        W 8498  11.435   0.953  12.835
43679W        W 8499  39.050   1.154  14.489
43680W        W 8500   9.818  42.339  11.557
43681W        W 8501  41.737  36.636  10.626
43682W        W 8502  41.489   7.062  13.962
43683W        W 8503  25.932  29.205  10.779
43684W        W 8504  24.294  44.752   4.538
43685W        W 8505  40.920  36.544  11.366
43686W        W 8506  20.202  26.800  10.197
43687W        W 8507  41.477  11.442   9.963
43688W        W 8508   1.393  40.920   4.649
43689W        W 8509  35.544  31.551   2.393
43690W        W 8510   8.672  14.655  10.688
43691W        W 8511  40.648  34.391   3.823
43692W        W 8512  38.904  21.849  14.301
43693W        W 8513  18.723  34.113  10.763
43694W        W 8514   9.350  26.658  14.079
43695W        W 8515   0.188   1.457  11.232
43696W        W 8516  31.436  16.124   5.480
43697W        W 8517  10.801   3.489  12.770
43698W        W 8518  28.554   6.865  14.963
43699W        W 8519  34.352  11.537   1.657
43700W        W 8520  35.455  29.736   2.764
43701W        W 8521  14.629   5.472  13.246
43702W        W 8522  38.104   0.801  10.649
43703W        W 8523  13.264  43.411   0.299
43704W        W 8524  11.416   1.762  12.821
43705W        W 8525  28.068  19.002  11.572
43706W        W 8526  34.975  26.575  14.344
43707W        W 8527  32.459  42.463   3.830
43708W        W 8528   5.480   8.522   4.951
43709W        W 8529  17.587  35.483   0.376
43710W        W 8530  37.531  31.183  14.490
43711W        W 8531  40.437  11.269   2.781
43712W        W 8532  29.793  10.199  14.930
43713W        W 8533  44.973   3.405  11.180
43714W        W 8534  38.470  24.217  12.936
43715W        W 8535  29.460   4.778  10.730
43716W        W 8536  13.135  25.609  10.711
43717W        W 8537  17.764   6.393   2.758
43718W        W 8538  37.370  24.901  10.173
43719W        W 8539   0.086  18.612  13.119
43720W        W 8540  28.991  16.738  10.582
43721W        W 8541  44.288  20.774   1.350
43722W        W 8542  39.305  15.621   0.440
43723W        W 8543   4.962  30.358   3.708
43724W        W 8544  35.383  11.149  14.356
43725W        W 8545  41.785  16.673   2.160
43726W        W 8546  25.015  34.662   0.842
43727W        W 8547  12.338   7.648   0.630
43728W        W 8548  15.156  16.654   1.713
43729W        W 8549  31.670  35.122  10.762
43730W        W 8550  15.336  38.041   1.932
43731W        W 8551  17.632   9.538  13.639
43732W        W 8552  33.053   6.885   3.111
43733W        W 8553  36.604  18.284   2.350
43734W        W 8554  13.544  31.678   3.801
43735W        W 8555  38.510  40.266   0.265
43736W        W 8556   5.122   6.121  14.602
43737W        W 8557   7.125   3.637  11.116
43738W        W 8558  14.362   8.367   3.886
43739W        W 8559  25.160   3.074   1.222
43740W        W 8560  27.653  44.882   1.788
43741W        W 8561   5.667  34.577   1.205
43742W        W 8562  39.980   2.797  14.378
43743W        W 8563   1.214   6.777  11.940
43744W        W 8564  36.903  22.216   1.146
43745W        W 8565  28.400   7.127   2.547
43746W        W 8566  22.719   1.342   4.548
43747W        W 8567  38.436  32.535  13.701
43748W        W 8568  40.540   5.571   4.234
43749W        W 8569  44.651  25.616   2.874
43750W        W 8570  33.350  34.957   1.328
43751W        W 8571  16.857  28.882   4.211
43752W        W 8572   4.466  34.953  12.616
43753W        W 8573  17.389  34.859  10.429
43754W        W 8574  23.589  14.062   2.611
43755W        W 8575  35.973  23.401  12.116
43756W        W 8576  30.705  23.747  12.894
43757W        W 8577  22.429  44.436   1.906
43758W        W 8578  14.644  28.834   3.609
43759W        W 8579  28.446  12.584  14.428
43760W        W 8580  14.898  31.782  13.810
43761W        W 8581  13.704  17.032   0.293
43762W        W 8582  42.028  16.185  13.324
43763W        W 8583  40.316  26.226  10.681
43764W        W 8584  27.919  34.952   2.575
43765W        W 8585   9.792  35.665  14.872
43766W        W 8586  30.396  16.453   5.461
43767W        W 8587  44.916  28.064  13.556
43768W        W 8588  37.869  34.375   2.305
43769W        W 8589  18.642  43.305  13.507
43770W        W 8590  39.637  30.416  13.715
43771W        W 8591  18.195  25.456   0.778
43772W        W 8592  35.288   2.886   0.363
43773W        W 8593  11.800  39.131   0.588
43774W        W 8594   2.332  26.895  13.659
43775W        W 8595  30.257  32.129  12.621
43776W        W 8596   4.613  30.639   2.940
43777W        W 8597  18.995   5.918  12.449
43778W        W 8598  10.716   6.079   3.737
43779W        W 8599  40.856  26.201   4.322
43780W        W 8600  25.816   9.890   1.777
43781W        W 8601  32.200  42.984   1.996
43782W        W 8602  21.611  39.414   2.705
43783W        W 8603  30.447  39.905  12.137
43784W        W 8604  15.717  44.865  14.536
43785W        W 8605  32.447  12.955   3.105
43786W        W 8606  34.973  28.965  14.418
43787W        W 8607  28.673  20.249  14.492
43788W        W 8608  40.593   4.962  10.290
43789W        W 8609   6.278  35.502  14.637
43790W        W 8610  18.605  32.465  13.000
43791W        W 8611  12.145  27.409   4.071
43792W        W 8612   8.981  24.994   0.323
43793W        W 8613  37.513  14.394   4.015
43794W        W 8614   8.426  15.114  10.507
43795W        W 8615  36.307  18.201  11.598
43796W        W 8616  44.615   2.218   1.218
43797W        W 8617   7.099  16.119   1.152
43798W        W 8618  12.267  23.422   1.433
43799W        W 8619  31.021   3.542  13.817
43800W        W 8620  40.493  26.971   4.178
43801W        W 8621  26.168   2.203  12.902
43802W        W 8622  19.409  42.162  10.846
43803W        W 8623  20.010  10.129  13.361
43804W        W 8624   0.577  35.722  13.799
43805W        W 8625  38.295  25.646   1.796
43806W        W 8626   1.981   6.890  12.625
43807W        W 8627  23.950  30.956   1.645
43808W        W 8628  29.515  34.016   4.168
43809W        W 8629  37.062  35.539   3.317
43810W        W 8630  11.346  13.289   1.346
43811W        W 8631  10.047   2.793  12.614
43812W        W 8632   3.845  33.211   4.078
43813W        W 8633  40.293  31.027   0.243
43814W        W 8634  26.228  43.406   1.464
43815W        W 8635   5.839  35.986   5.057
43816W        W 8636  33.378  29.605   2.737
43817W        W 8637  34.663   3.681   4.814
43818W        W 8638  19.367  39.970  11.135
43819W        W 8639  20.763  37.530  12.990
43820W        W 8640  23.707  23.003  13.983
43821W        W 8641  31.836  25.055   2.260
43822W        W 8642   1.643   5.331   0.486
43823W        W 8643  33.143  10.404   2.047
43824W        W 8644   5.172  40.856  13.649
43825W        W 8645   5.952  20.675  10.653
43826W        W 8646  10.102  28.000   2.241
43827W        W 8647  13.993  36.599  12.883
43828W        W 8648  21.773  41.344  11.310
43829W        W 8649  20.699   7.730  10.298
43830W        W 8650  34.007  40.833   1.661
43831W        W 8651  44.530  38.491  10.916
43832W        W 8652  11.187  44.039  13.543
43833W        W 8653  16.291  10.899   1.188
43834W        W 8654  33.409  15.968   3.619
43835W        W 8655  38.869  21.620   2.796
43836W        W 8656  26.037  21.134   2.486
43837W        W 8657  17.266   1.449  10.753
43838W        W 8658  16.507  30.164  12.373
43839W        W 8659  44.924   9.571  12.066
43840W        W 8660  36.553  25.006  10.735
43841W        W 8661  44.489  42.321   2.147
43842W        W 8662  14.213  30.423  10.907
43843W        W 8663  19.536  13.362   1.317
43844W        W 8664  18.750  18.598  11.238
43845W        W 8665  40.346  24.567  14.872
43846W        W 8666  18.218  12.132   1.030
43847W        W 8667  36.799   5.406   4.568
43848W        W 8668  28.152   5.646  14.388
43849W        W 8669  21.143  15.542  11.521
43850W        W 8670   4.459  13.753   4.814
43851W        W 8671  37.756   9.474  10.250
43852W        W 8672  25.516   2.892   2.096
43853W        W 8673  32.434  41.305  10.372
43854W        W 8674  17.243   6.771   0.283
43855W        W 8675  41.539  26.615   5.156
43856W        W 8676  28.764  41.891   0.456
43857W        W 8677   3.289  20.759   4.718
43858W        W 8678  23.764  29.019  13.198
43859W        W 8679  11.255  34.135  14.376
43860W        W 8680  20.050   1.731  14.880
43861W        W 8681  41.331   5.131  14.826
43862W        W 8682  14.792   6.161   0.981
43863W        W 8683  27.646  19.031  14.963
43864W        W 8684  38.381  32.393   2.855
43865W        W 8685  16.766   9.868  13.807
43866W        W 8686  38.822  22.156   2.852
43867W        W 8687  37.330  20.586  11.995
43868W        W 8688  32.648  19.621   0.804
43869W        W 8689   6.977   4.630   2.412
43870W        W 8690  13.311  30.463  11.492
43871W        W 8691  12.684  32.799  14.835
43872W        W 8692  42.211   0.724  12.027
43873W        W 8693  18.634   8.830  11.671
43874W        W 8694   8.588  40.874  14.402
43875W        W 8695  32.554  43.285   1.253
43876W        W 8696  44.928  31.426   0.912
43877W        W 8697  35.682  12.152   1.276
43878W        W 8698  25.568  17.548   4.080
43879W        W 8699  19.547   7.366   3.126
43880W        W 8700   0.494  30.994  13.630
43881W        W 8701  11.361   1.652  11.675
43882W        W 8702  42.793  41.957  11.033
43883W        W 8703  30.572  25.467  10.792
43884W        W 8704  18.250   5.457  11.304
43885W        W 8705  39.400  14.059  14.920
43886W        W 8706  43.768  36.358   0.329
43887W        W 8707  16.533  11.328  13.392
43888W        W 8708  12.600  44.279   0.848
43889W        W 8709  34.502  11.087   4.046
43890W        W 8710  37.526  33.682   4.086
43891W        W 8711   5.738  27.295   3.813
43892W        W 8712  11.258   4.923   1.440
43893W        W 8713  19.936   5.940  14.500
43894W        W 8714   0.755  15.523   2.839
43895W        W 8715  13.075   6.460  10.881
43896W        W 8716  13.653  27.992  11.113
43897W        W 8717  30.164  14.390   0.721
43898W        W 8718   8.667  16.331   5.735
43899W        W 8719  33.357  36.546  13.814
43900W        W 8720  20.191  34.037   3.222
43901W        W 8721  43.209   1.915   4.510
43902W        W 8722  29.109  34.136  12.371
43903W        W 8723  20.166  38.621   4.143
43904W        W 8724   5.556  23.024   5.585
43905W        W 8725  31.261  34.497  13.299
43906W        W 8726  38.730  15.222   2.633
43907W        W 8727  14.843  13.657  14.378
43908W        W 8728  38.483  30.024  11.554
43909W        W 8729  17.992  24.447  11.563
43910W        W 8730  44.922   2.383  14.879
43911W        W 8731  29.566  14.825   3.685
43912W        W 8732   4.436  21.821   0.918
43913W        W 8733  44.960  36.580   0.904
43914W        W 8734  29.463  16.045  13.869
43915W        W 8735  24.715  31.612   3.243
43916W        W 8736  44.235  40.436   2.782
43917W        W 8737  42.318  21.091   4.579
43918W        W 8738  39.822   6.947  13.266
43919W        W 8739   8.698  12.273   3.791
43920W        W 8740  36.294   2.059   3.263
43921W        W 8741   3.164  33.449   0.420
43922W        W 8742   9.789   8.393   1.695
43923W        W 8743  40.907  20.307   2.720
43924W        W 8744   4.874  38.486  13.500
43925W        W 8745   2.916  13.205   4.574
43926W        W 8746   5.765  22.523   3.245
43927W        W 8747  35.136  43.423  11.982
43928W        W 8748  29.479  38.438   2.243
43929W        W 8749  18.604   9.213   0.909
43930W        W 8750  36.330  40.574   1.732
43931W        W 8751  33.523  14.453  10.329
43932W        W 8752   0.401   9.902  13.736
43933W        W 8753  43.121  36.184   4.110
43934W        W 8754  25.189   5.995   0.425
43935W        W 8755  38.700  30.514  14.738
43936W        W 8756  35.662   2.753  12.910
43937W        W 8757  26.613  38.617  13.358
43938W        W 8758  39.552  31.073   3.591
43939W        W 8759   5.795  25.952  11.650
43940W        W 8760   9.721  16.477  12.177
43941W        W 8761  34.361  15.256  14.881
43942W        W 8762  18.630  23.160  12.021
43943W        W 8763  38.147  11.588  14.427
43944W        W 8764  38.620  18.102  12.481
43945W        W 8765   8.334  16.483  12.840
43946W        W 8766  38.115  43.383   1.342
43947W        W 8767  44.517  22.259   0.300
43948W        W 8768  33.069  29.120   2.727
43949W        W 8769  35.196   1.716   1.344
43950W        W 8770  40.787  38.608   4.093
43951W        W 8771  41.479  16.997  14.059
43952W        W 8772  17.157  35.414   4.084
43953W        W 8773  27.206  26.976  10.646
43954W        W 8774  19.254  12.649   3.595
43955W        W 8775  20.284  35.660   0.186
43956W        W 8776  42.795  21.748  14.536
43957W        W 8777   6.205  37.192   0.298
43958W        W 8778   0.357   2.642   0.704
43959W        W 8779  35.503  38.325   4.131
43960W        W 8780  38.450  17.302  11.436
43961W        W 8781  19.856   7.865   1.877
43962W        W 8782  19.504  22.075   1.755
43963W        W 8783  25.993   2.904  13.925
43964W        W 8784  13.180  34.107   2.852
43965W        W 8785  39.983  36.451   3.072
43966W        W 8786  22.977   6.795   3.116
43967W        W 8787  19.569  14.392   5.087
43968W        W 8788  24.430  25.136  14.788
43969W        W 8789  17.617  13.910  11.578
43970W        W 8790   4.421  30.337  10.701
43971W        W 8791  33.104  20.657  13.920
43972W        W 8792  23.578  42.828  14.090
43973W        W 8793  10.456   7.262  10.458
43974W        W 8794  32.493  17.801  11.226
43975W        W 8795  17.742  39.775  13.014
43976W        W 8796   4.192  25.990   4.856
43977W        W 8797  44.519  32.722   3.996
43978W        W 8798   4.496  25.670   1.224
43979W        W 8799  40.412  32.211  11.037
43980W        W 8800  26.640  42.493  12.194
43981W        W 8801  13.033  37.799  13.037
43982W        W 8802  20.238   7.002  10.537
43983W        W 8803   1.742  32.334   4.180
43984W        W 8804  42.790  26.350  12.062
43985W        W 8805   5.172   1.574   1.318
43986W        W 8806   2.088  27.239  11.282
43987W        W 8807   6.867  24.301  14.921
43988W        W 8808   6.393   2.358  12.565
43989W        W 8809  10.235  16.698  13.141
43990W        W 8810  22.243  12.044  14.012
43991W        W 8811  39.457  42.986  13.330
43992W        W 8812  44.819  24.731  14.827
43993W        W 8813   0.243  29.197  12.642
43994W        W 8814  16.580  43.156  11.179
43995W        W 8815   6.470  44.122   1.592
43996W        W 8816  44.956   2.159   4.865
43997W        W 8817   1.502  19.177  14.668
43998W        W 8818   9.184  30.258  13.583
43999W        W 8819  39.654  18.154   0.462
44000W        W 8820   9.743   2.457   0.301
44001W        W 8821  39.078  41.853   4.452
44002W        W 8822  12.836   4.141   2.990
44003W        W 8823  17.695   3.397   0.878
44004W        W 8824  25.662  42.938   0.991
44005W        W 8825   7.472  32.159   2.328
44006W        W 8826  17.484   0.930  11.104
44007W        W 8827  43.020  30.632   1.899
44008W        W 8828  43.948   7.233  10.830
44009W        W 8829   5.365  11.782  13.924
44010W        W 8830  11.506  11.187   2.179
44011W        W 8831  34.525  16.771   2.747
44012W        W 8832  10.766  17.806   1.394
44013W        W 8833  18.164   2.333   4.163
44014W        W 8834  43.038   1.598  11.571
44015W        W 8835  40.864   1.842   4.570
44016W        W 8836  36.968  20.325   4.918
44017W        W 8837  43.856  19.642  11.561
44018W        W 8838  13.416  37.675  12.659
44019W        W 8839  13.225  15.470   3.618
44020W        W 8840   5.442  11.523  10.984
44021W        W 8841  36.588  13.113  12.891
44022W        W 8842  28.615   3.085  12.542
44023W        W 8843   7.343  25.616  12.710
44024W        W 8844  30.561  38.774   4.595
44025W        W 8845  13.659  36.960   4.318
44026W        W 8846   2.889  25.693  13.494
44027W        W 8847  16.536  27.996   1.474
44028W        W 8848  14.341  35.845   3.299
44029W        W 8849  30.389  41.869   2.677
44030W        W 8850  23.558  40.943  13.867
44031W        W 8851  32.372   9.013   2.301
44032W        W 8852   9.444  24.579  11.287
44033W        W 8853  18.305   4.064   1.836
44034W        W 8854   6.267  10.468  12.939
44035W        W 8855   0.299  19.405  12.665
44036W        W 8856  12.606   2.362  11.936
44037W        W 8857  25.092  32.016  11.449
44038W        W 8858   8.695  12.693   1.282
44039W        W 8859  12.746  20.973  14.410
44040W        W 8860   0.971   9.729  12.873
44041W        W 8861  31.219   7.827  10.746
44042W        W 8862  23.724  20.112  12.823
44043W        W 8863  42.020   5.698   3.880
44044W        W 8864  42.396  39.591   4.103
44045W        W 8865  13.766  25.416   3.233
44046W        W 8866  23.437  36.935  13.012
44047W        W 8867  38.593  20.580   3.463
44048W        W 8868   3.190  41.590   0.257
44049W        W 8869   4.245   5.878   1.682
44050W        W 8870  14.762  19.704  14.189
44051W        W 8871  21.619  22.609   1.780
44052W        W 8872  21.129  17.474  10.550
44053W        W 8873  31.307  22.282  11.200
44054W        W 8874  11.552   0.269  14.317
44055W        W 8875   3.901   4.388  14.711
44056W        W 8876  36.627  21.606   2.398
44057W        W 8877  38.442   0.903   1.291
44058W        W 8878  15.704  26.863   4.061
44059W        W 8879  40.046   9.468  10.745
44060W        W 8880   5.956   3.858   3.165
44061W        W 8881  28.617  30.946  14.586
44062W        W 8882   7.780   4.448  12.888
44063W        W 8883   5.880  44.033  14.873
44064W        W 8884  10.632   4.846   4.440
44065W        W 8885  12.800  12.723  12.973
44066W        W 8886  16.068  12.742  13.418
44067W        W 8887   1.340  33.492   2.788
44068W        W 8888   7.689  41.637  13.900
44069W        W 8889  43.450  36.325  11.668
44070W        W 8890  16.099   0.083   0.864
44071W        W 8891  34.066  11.399  10.675
44072W        W 8892   2.400  37.291  11.615
44073W        W 8893   1.896  21.192   0.978
44074W        W 8894   1.298   4.194  12.604
44075W        W 8895   7.697  39.437   0.851
44076W        W 8896  43.789  43.993  13.817
44077W        W 8897  19.483  33.066  10.414
44078W        W 8898  41.209   5.132   3.126
44079W        W 8899   1.759  15.674  12.455
44080W        W 8900  24.674   8.308  12.876
44081W        W 8901  34.977  36.097  13.871
44082W        W 8902  40.220  19.287   0.012
44083W        W 8903  25.987  15.387  14.915
44084W        W 8904  18.654   0.393   3.139
44085W        W 8905  32.412  42.242   4.722
44086W        W 8906  21.154  42.750  10.696
44087W        W 8907  30.934   3.715   3.236
44088W        W 8908  31.681  21.963  10.434
44089W        W 8909  11.225  19.784   3.759
44090W        W 8910   4.379   6.225  13.847
44091W        W 8911   2.170  24.636  14.774
44092W        W 8912  11.828  29.128   2.345
44093W        W 8913  34.358  28.812  11.066
44094W        W 8914   2.407  16.557  14.146
44095W        W 8915  26.400   7.267   3.147
44096W        W 8916  31.846   8.135   4.587
44097W        W 8917  30.268  39.519  13.262
44098W        W 8918  10.959  17.799   4.992
44099W        W 8919  39.090  21.162  11.096
44100W        W 8920  35.283  32.517   2.770
44101W        W 8921  39.009  30.967  13.809
44102W        W 8922  13.234   3.179   3.696
44103W        W 8923  35.670  28.405  14.308
44104W        W 8924  16.103  14.097  14.454
44105W        W 8925  24.481  42.113  14.599
44106W        W 8926   1.779  40.117   3.764
44107W        W 8927  16.965  39.545   2.814
44108W        W 8928   8.456  25.493   4.865
44109W        W 8929  38.451  18.685  11.819
44110W        W 8930  38.645  32.471  11.892
44111W        W 8931  28.593  39.095   3.325
44112W        W 8932  35.856  24.504  12.837
44113W        W 8933  13.756  14.919  10.706
44114W        W 8934  38.809  19.587   4.542
44115W        W 8935  34.898  39.517  13.464
44116W        W 8936   6.808  11.082  11.179
44117W        W 8937  11.306  20.213   4.696
44118W        W 8938  19.693  43.867  11.194
44119W        W 8939  26.481   8.754  14.536
44120W        W 8940   6.694  13.259  14.705
44121W        W 8941  31.597  14.105   1.340
44122W        W 8942   4.111   5.759  13.937
44123W        W 8943  23.181  13.748   2.737
44124W        W 8944  38.856   7.122  10.064
44125W        W 8945   5.661  29.090   4.718
44126W        W 8946  43.911  18.939   0.796
44127W        W 8947  12.245  10.960  14.808
44128W        W 8948  10.536   2.911   0.609
44129W        W 8949  38.374  37.562  11.393
44130W        W 8950  10.819   9.827   4.596
44131W        W 8951  33.984   0.384  10.653
44132W        W 8952  20.122  12.584  13.149
44133W        W 8953  19.949  17.293  12.028
44134W        W 8954   4.824  32.326  12.446
44135W        W 8955  19.777  38.134   0.450
44136W        W 8956   1.259  41.597   2.733
44137W        W 8957   8.833  28.773   4.566
44138W        W 8958   3.026  14.845  14.393
44139W        W 8959  40.871  12.338  10.569
44140W        W 8960  23.894  34.252  12.652
44141W        W 8961  37.362  27.379   4.662
44142W        W 8962  23.758  28.335  12.033
44143W        W 8963  43.458  35.974   2.947
44144W        W 8964  22.346  17.580  14.410
44145W        W 8965  34.965   7.712   2.725
44146W        W 8966  40.451  11.921   2.403
44147W        W 8967  21.811  38.870  13.391
44148W        W 8968   8.863  38.983  10.750
44149W        W 8969  21.588   4.123   2.631
44150W        W 8970  39.341  37.852   0.351
44151W        W 8971  30.852  15.117   3.639
44152W        W 8972  28.013  25.998  12.021
44153W        W 8973  13.558  13.670   4.070
44154W        W 8974  38.168  30.124   2.795
44155W        W 8975  19.471   8.415  13.453
44156W        W 8976  10.058  34.414  14.624
44157W        W 8977  12.090   3.405   2.319
44158W        W 8978   9.319  20.116  12.448
44159W        W 8979  24.117  16.271   3.676
44160W        W 8980  37.535  39.098  13.840
44161W        W 8981  33.093  17.821  12.236
44162W        W 8982   0.645  28.954   1.662
44163W        W 8983   7.308  30.183   1.359
44164W        W 8984   7.681  17.913   4.124
44165W        W 8985   8.381  27.000   4.124
44166W        W 8986  43.620  13.814  14.846
44167W        W 8987  20.055  18.382  14.203
44168W        W 8988   5.710  34.576  12.476
44169W        W 8989  29.503  31.066  12.866
44170W        W 8990   6.260   8.025   2.896
44171W        W 8991  15.887  20.180  11.638
44172W        W 8992  24.620  30.753  12.958
44173W        W 8993  16.173  37.620   4.586
44174W        W 8994   3.332  27.395   9.574
44175W        W 8995  21.339  16.181  14.883
44176W        W 8996  25.403  41.409   2.748
44177W        W 8997  32.173  37.004  11.045
44178W        W 8998  16.152   5.876  10.403
44179W        W 8999  19.291  29.013   0.827
44180W        W 9000  25.974  17.665  13.600
44181W        W 9001   5.960  18.239   2.705
44182W        W 9002  17.105  43.608  12.782
44183W        W 9003   2.564   9.422  13.399
44184W        W 9004   0.189  44.593   0.922
44185W        W 9005  35.604   5.248  10.663
44186W        W 9006   6.235  33.555  11.221
44187W        W 9007  18.749  30.215   1.430
44188W        W 9008   2.890  40.036  12.900
44189W        W 9009   5.192  21.718  14.250
44190W        W 9010  43.364  37.459   0.784
44191W        W 9011   4.397   3.234   1.955
44192W        W 9012  23.755  33.862  13.852
44193W        W 9013  27.425  18.782  10.254
44194W        W 9014  11.246  42.559   1.388
44195W        W 9015  43.546  37.263  11.594
44196W        W 9016  36.173  34.473   2.255
44197W        W 9017  22.159  23.791   2.749
44198W        W 9018  44.742  19.630   0.009
44199W        W 9019  23.469  37.245  10.193
44200W        W 9020   3.407  28.900  12.161
44201W        W 9021  29.895  38.280   4.176
44202W        W 9022  37.521  38.370  14.939
44203W        W 9023  14.954  28.936   1.747
44204W        W 9024   0.119   8.354   4.128
44205W        W 9025   1.576  22.444  14.869
44206W        W 9026  14.039  26.923   1.651
44207W        W 9027  40.307  10.748  13.327
44208W        W 9028   1.738  30.600   3.370
44209W        W 9029  24.758  29.647  11.597
44210W        W 9030   4.479  22.187  13.004
44211W        W 9031  25.015  39.485  14.308
44212W        W 9032  39.336  28.194  11.514
44213W        W 9033  13.829  42.832   4.389
44214W        W 9034  19.374  14.573   0.331
44215W        W 9035  27.264  10.339  12.862
44216W        W 9036  31.846  23.567  12.329
44217W        W 9037   6.379  39.394   2.506
44218W        W 9038   4.147   2.913  14.421
44219W        W 9039  44.731  25.252  14.947
44220W        W 9040  15.379   6.902  10.666
44221W        W 9041   2.175  21.693  10.747
44222W        W 9042  23.552  16.242  12.497
44223W        W 9043  43.242  20.997  12.597
44224W        W 9044  15.656  28.672   4.854
44225W        W 9045  11.920  25.720  14.900
44226W        W 9046   6.939  44.106   3.024
44227W        W 9047  42.929  15.669  11.609
44228W        W 9048  37.405  22.534   1.434
44229W        W 9049  11.793  19.292  12.255
44230W        W 9050  29.646  32.045  13.935
44231W        W 9051   1.014  38.489   3.802
44232W        W 9052  14.576   4.984   3.079
44233W        W 9053  40.032  44.968  14.932
44234W        W 9054  29.012  33.674   3.333
44235W        W 9055   4.515  41.822  14.308
44236W        W 9056  40.789  40.033   4.329
44237W        W 9057  42.413  40.754  13.290
44238W        W 9058  31.262  19.179  10.272
44239W        W 9059  15.573  37.345  10.366
44240W        W 9060  40.940  20.459  12.757
44241W        W 9061  21.745  38.331  13.513
44242W        W 9062  11.914  43.050  12.006
44243W        W 9063  20.010  15.530   3.232
44244W        W 9064  42.596  18.247  10.774
44245W        W 9065  20.183  10.509  14.094
44246W        W 9066  34.573  39.238   0.876
44247W        W 9067   4.475  26.938   4.257
44248W        W 9068  44.724  16.006   1.320
44249W        W 9069  29.002  44.759   1.252
44250W        W 9070  31.447   7.764  12.613
44251W        W 9071  33.159   3.975  11.149
44252W        W 9072  22.969  18.243  10.127
44253W        W 9073  33.845  44.714  14.405
44254W        W 9074  37.588  25.904  13.806
44255W        W 9075  23.740  28.790   4.077
44256W        W 9076   8.938  40.754  12.527
44257W        W 9077  27.134  22.635   2.284
44258W        W 9078  13.885  32.986  14.490
44259W        W 9079   2.387  37.082  10.801
44260W        W 9080  14.156  38.526   3.596
44261W        W 9081  19.265   0.161   4.445
44262W        W 9082  33.970  18.627   0.944
44263W        W 9083  31.799  13.899  11.068
44264W        W 9084   2.447   9.806  14.979
44265W        W 9085  14.711   2.423   5.158
44266W        W 9086  29.965  17.632   2.253
44267W        W 9087  33.869  36.473  10.599
44268W        W 9088  31.135  16.598   3.758
44269W        W 9089  22.510  24.207  12.659
44270W        W 9090   6.756   6.485  12.063
44271W        W 9091  35.354  34.891   2.699
44272W        W 9092   1.982   3.862  10.770
44273W        W 9093   4.332  39.100  12.021
44274W        W 9094  14.692   7.581   4.286
44275W        W 9095  42.934  42.574   1.891
44276W        W 9096  25.446  17.688  13.702
44277W        W 9097  36.341  21.193  10.857
44278W        W 9098  42.827  26.699  12.434
44279W        W 9099  25.058   8.748   1.294
44280W        W 9100  40.207  42.948  12.924
44281W        W 9101  20.417  17.576   3.619
44282W        W 9102  18.407  10.588  13.664
44283W        W 9103  33.353  12.293  13.578
44284W        W 9104  15.068  31.652   3.989
44285W        W 9105   5.928  19.742  12.722
44286W        W 9106  27.097  21.006   3.534
44287W        W 9107  27.061  34.427   2.770
44288W        W 9108  12.727   6.127  10.635
44289W        W 9109  39.595  16.149   3.081
44290W        W 9110  22.080  37.909  10.411
44291W        W 9111  19.600  44.223   1.477
44292W        W 9112  12.060  25.009   3.272
44293W        W 9113  14.083   1.215   2.447
44294W        W 9114  38.823  29.502  12.980
44295W        W 9115  40.031  39.993   4.631
44296W        W 9116  39.771  39.996   1.966
44297W        W 9117   9.279  13.694  11.037
44298W        W 9118  24.437  13.279  13.364
44299W        W 9119  35.119  11.788   0.220
44300W        W 9120  20.250  23.157   3.202
44301W        W 9121  18.497   5.029   1.845
44302W        W 9122   0.633   3.317   1.212
44303W        W 9123  34.975   0.023   1.964
44304W        W 9124  16.262  27.502   1.483
44305W        W 9125  28.884   3.215   4.152
44306W        W 9126  37.756  12.438  11.141
44307W        W 9127  38.949   5.921   2.427
44308W        W 9128   6.247  14.162  11.054
44309W        W 9129   9.233  31.078  14.902
44310W        W 9130  36.150  27.989  12.360
44311W        W 9131  38.310  25.441   2.871
44312W        W 9132  42.703  35.830   1.567
44313W        W 9133  38.594  29.616   0.645
44314W        W 9134  30.164  11.856  11.842
44315W        W 9135   7.711  40.876   0.680
44316W        W 9136  27.631  35.074  12.744
44317W        W 9137  32.835  32.783   3.111
44318W        W 9138  28.712  31.490  13.106
44319W        W 9139   3.216  28.019   4.733
44320W        W 9140   8.877   4.919  13.544
44321W        W 9141  39.878  33.762   1.910
44322W        W 9142   2.413  36.848   2.873
44323W        W 9143  24.589  37.709  13.636
44324W        W 9144   0.452  23.221   3.851
44325W        W 9145   2.870  29.244  11.522
44326W        W 9146  14.501  28.717   2.298
44327W        W 9147  10.227  25.742   1.181
44328W        W 9148  13.851  36.643   0.215
44329W        W 9149  26.498  40.826   1.285
44330W        W 9150   5.694   7.663  10.644
44331W        W 9151  32.558  13.668  10.224
44332W        W 9152  28.645  38.898  11.250
44333W        W 9153  13.858   5.527   2.844
44334W        W 9154   6.738  13.045  12.441
44335W        W 9155  36.688  26.102  10.437
44336W        W 9156  31.973  12.635  12.025
44337W        W 9157  42.388   5.232   0.974
44338W        W 9158  40.606   4.946  12.456
44339W        W 9159  12.935  27.597  10.705
44340W        W 9160   9.801  18.884   0.655
44341W        W 9161   5.771  41.141  12.987
44342W        W 9162  37.263  24.946   3.769
44343W        W 9163  25.857  17.010   1.763
44344W        W 9164  10.305  31.849  14.808
44345W        W 9165  21.040   1.892   4.112
44346W        W 9166   8.122  38.761   2.452
44347W        W 9167   1.470  43.463   1.784
44348W        W 9168  43.632  29.971  13.262
44349W        W 9169  39.445  33.450  12.932
44350W        W 9170   6.448  30.098   2.675
44351W        W 9171  36.147  37.473  14.279
44352W        W 9172  26.635  10.607  11.158
44353W        W 9173   1.918  41.861  13.048
44354W        W 9174  35.118  19.501   4.976
44355W        W 9175  43.289   1.476  11.144
44356W        W 9176  35.578  40.033   4.519
44357W        W 9177  20.851  36.079   1.514
44358W        W 9178  22.154  28.618   1.186
44359W        W 9179   2.229  11.274   3.232
44360W        W 9180  18.188  19.858  11.167
44361W        W 9181  37.752  16.266  11.944
44362W        W 9182   9.334  15.628   3.251
44363W        W 9183   4.209  26.480   0.267
44364W        W 9184   1.360  14.286   4.791
44365W        W 9185  33.545  16.179  13.131
44366W        W 9186  43.976  14.179  13.558
44367W        W 9187  32.609  25.848  11.240
44368W        W 9188   0.697  26.853  14.900
44369W        W 9189  11.245  10.601  10.763
44370W        W 9190  32.134  25.136   1.155
44371W        W 9191  40.305  20.523  13.873
44372W        W 9192  17.701   0.891   0.366
44373W        W 9193  29.561  41.434   0.044
44374W        W 9194  26.473  13.343   5.128
44375W        W 9195  34.467  31.969   0.321
44376W        W 9196  40.107  11.084   0.762
44377W        W 9197  37.178  20.536   4.480
44378W        W 9198   2.384  36.875   3.701
44379W        W 9199   8.177  38.809   3.321
44380W        W 9200   7.924  42.715  13.288
44381W        W 9201  19.546  36.400   3.129
44382W        W 9202  23.640  37.436  14.410
44383W        W 9203  40.546  10.816   0.743
44384W        W 9204   6.385  27.236  10.642
44385W        W 9205  22.975   2.825  13.485
44386W        W 9206  13.121  30.534  14.278
44387W        W 9207   9.870  38.391   0.749
44388W        W 9208  13.331  41.290   4.151
44389W        W 9209  32.478  17.049  12.445
44390W        W 9210  11.058  17.398  12.528
44391W        W 9211  34.902  35.449   3.085
44392W        W 9212  23.943   5.867   0.466
44393W        W 9213   9.108  24.970   3.117
44394W        W 9214  43.287  16.665  12.556
44395W        W 9215   3.477   5.165   0.859
44396W        W 9216  19.037  29.827  10.978
44397W        W 9217  33.954  16.451   0.340
44398W        W 9218  10.418  39.021   2.778
44399W        W 9219   3.062  17.953   3.207
44400W        W 9220  42.053  24.029   1.211
44401W        W 9221  19.225  17.773   1.707
44402W        W 9222  21.950  44.334  12.824
44403W        W 9223  42.507  20.997  11.077
44404W        W 9224  25.822  20.095  10.614
44405W        W 9225  10.125  25.108   3.188
44406W        W 9226   7.706  21.167   1.921
44407W        W 9227  30.130  14.658  10.830
44408W        W 9228  35.683  34.619   2.113
44409W        W 9229   2.646  17.687   0.846
44410W        W 9230  37.012  15.449  13.411
44411W        W 9231  44.946  15.531   1.374
44412W        W 9232  40.935  12.044   4.580
44413W        W 9233  17.590  31.467  14.041
44414W        W 9234  14.884  22.094  14.958
44415W        W 9235  43.319  28.592   2.953
44416W        W 9236   5.719  19.532   1.467
44417W        W 9237   4.515  32.448  12.037
44418W        W 9238  38.051  15.607   2.165
44419W        W 9239   8.343  22.918  14.378
44420W        W 9240   6.699   8.758   4.342
44421W        W 9241  25.072   9.811   0.393
44422W        W 9242  31.123  37.480   3.904
44423W        W 9243   1.891  40.056   2.244
44424W        W 9244  20.202  22.673   2.805
44425W        W 9245  32.052   5.497  11.113
44426W        W 9246  25.092   6.887   3.158
44427W        W 9247  10.610  19.676   3.098
44428W        W 9248  38.043  10.481  10.690
44429W        W 9249  28.229  43.070  14.906
44430W        W 9250   2.676   9.471   4.496
44431W        W 9251  33.315  22.452  13.996
44432W        W 9252   5.212  37.895  13.577
44433W        W 9253  33.993   4.764  13.305
44434W        W 9254  40.487  33.613   0.821
44435W        W 9255  32.351  32.910  14.340
44436W        W 9256   2.335  21.726  12.454
44437W        W 9257  21.047  27.780  12.977
44438W        W 9258  10.556  10.189   2.378
44439W        W 9259  33.175  12.738  10.974
44440W        W 9260  10.161  33.814   3.368
44441W        W 9261  41.912  27.697   4.186
44442W        W 9262  13.694  26.071  12.865
44443W        W 9263   2.921   8.261  11.153
44444W        W 9264  19.681   1.380  10.772
44445W        W 9265  39.360   9.909   1.675
44446W        W 9266   0.794   0.433   2.690
44447W        W 9267  38.144  10.572   1.295
44448W        W 9268  30.899  17.656  11.967
44449W        W 9269  42.028   3.780   4.707
44450W        W 9270  38.990  43.753   1.719
44451W        W 9271   6.210   4.825   2.685
44452W        W 9272  34.791  32.632   2.633
44453W        W 9273  29.620  19.109   3.175
44454W        W 9274   1.070  11.686  13.433
44455W        W 9275  19.087  19.570   4.835
44456W        W 9276  17.605  35.933  12.364
44457W        W 9277  42.915  22.813   3.641
44458W        W 9278  36.512  38.148   1.840
44459W        W 9279  29.913  10.252   1.911
44460W        W 9280   9.800  17.021  14.455
44461W        W 9281   8.965  19.956  14.946
44462W        W 9282  44.338  42.748  11.876
44463W        W 9283   5.755  43.978   3.677
44464W        W 9284  33.475  11.625   2.123
44465W        W 9285  17.728  21.184  10.594
44466W        W 9286  43.816  25.735  12.906
44467W        W 9287   3.963  17.646   0.944
44468W        W 9288   6.997  36.915   3.633
44469W        W 9289  13.853   6.809  12.957
44470W        W 9290  22.519   2.603   4.189
44471W        W 9291  40.437  21.980   1.183
44472W        W 9292   7.856  34.405   2.397
44473W        W 9293  32.639  10.370   4.522
44474W        W 9294  19.050   8.918   1.198
44475W        W 9295  41.578  43.932  14.826
44476W        W 9296  19.722   8.900   1.421
44477W        W 9297   0.283  34.866  12.664
44478W        W 9298  43.413  17.708  13.867
44479W        W 9299  44.278   8.907   1.771
44480W        W 9300  33.856  43.401   4.495
44481W        W 9301  43.786   0.399   0.064
44482W        W 9302   1.276  23.498   1.823
44483W        W 9303  25.543  18.587   0.663
44484W        W 9304  24.154   4.951   4.074
44485W        W 9305  42.683   9.706  14.265
44486W        W 9306  30.078  39.362  13.784
44487W        W 9307   8.432  18.099  12.430
44488W        W 9308  23.772  19.849  14.543
44489W        W 9309  38.057  40.503  13.547
44490W        W 9310   9.319  10.602  12.002
44491W        W 9311  44.850   4.729   4.464
44492W        W 9312  25.691  25.018  13.949
44493W        W 9313  40.014  20.267  11.517
44494W        W 9314  17.588  41.867   4.139
44495W        W 9315  30.447  17.599  14.243
44496W        W 9316  11.773  21.597  13.078
44497W        W 9317  33.724  11.414  14.907
44498W        W 9318  30.186   8.504  11.114
44499W        W 9319  15.843  41.564  12.405
44500W        W 9320  29.853   4.166  11.651
44501W        W 9321  38.850  29.033   3.783
44502W        W 9322   6.708  11.109   1.296
44503W        W 9323  11.781  13.863   4.605
44504W        W 9324   6.255   7.807   1.222
44505W        W 9325   1.763  41.252  12.743
44506W        W 9326   6.910  12.764  14.899
44507W        W 9327  39.254   9.174   5.030
44508W        W 9328  37.601  35.169   0.397
44509W        W 9329   6.946   7.764   1.004
44510W        W 9330  35.635   9.411   4.169
44511W        W 9331  41.863  14.608  14.793
44512W        W 9332  31.566  41.014   4.595
44513W        W 9333  24.625  35.006  14.751
44514W        W 9334   2.689  18.027  14.793
44515W        W 9335  11.698  17.116   4.982
44516W        W 9336  17.145  24.699   5.080
44517W        W 9337  19.971  33.751   2.259
44518W        W 9338   1.724  13.536   3.344
44519W        W 9339  27.455  40.220  12.659
44520W        W 9340   4.826  41.323   3.661
44521W        W 9341   8.461   1.388   0.799
44522W        W 9342  37.359  30.006   3.396
44523W        W 9343   8.795  36.317   3.754
44524W        W 9344   6.832  32.450  12.449
44525W        W 9345  40.451  18.917  14.115
44526W        W 9346  38.068  16.640   3.742
44527W        W 9347  23.117  19.362  13.218
44528W        W 9348  17.219  43.461   3.242
44529W        W 9349  35.159   9.760  12.023
44530W        W 9350  20.265  30.540   4.115
44531W        W 9351   3.032  23.732   1.216
44532W        W 9352  12.300  25.994   4.071
44533W        W 9353  23.755   6.384   0.332
44534W        W 9354  13.330  26.704  12.422
44535W        W 9355  19.025  21.610  10.688
44536W        W 9356  10.571  10.375   3.841
44537W        W 9357  21.495  17.152  11.983
44538W        W 9358  39.535   2.962   3.157
44539W        W 9359  14.862  32.441  11.548
44540W        W 9360  34.413   8.194  11.715
44541W        W 9361   0.832  36.104  10.944
44542W        W 9362   7.930  21.982  12.926
44543W        W 9363  15.648   6.384  14.976
44544W        W 9364   2.738  18.040   0.307
44545W        W 9365  25.328  24.652   2.352
44546W        W 9366  10.392  43.038  14.394
44547W        W 9367  36.487  30.239   2.245
44548W        W 9368  25.883   7.460  13.768
44549W        W 9369  11.719  39.411  11.371
44550W        W 9370  18.108  11.796  14.274
44551W        W 9371  34.651  38.174  13.563
44552W        W 9372  30.345   6.041   1.987
44553W        W 9373  35.156  37.262   1.764
44554W        W 9374  22.192  28.404  13.069
44555W        W 9375  38.959  17.525   2.030
44556W        W 9376  36.536  31.476   0.970
44557W        W 9377  21.104   5.203   2.160
44558W        W 9378  34.685  24.914  13.359
44559W        W 9379  43.456  28.848   1.018
44560W        W 9380   4.274   8.444  12.830
44561W        W 9381  17.600  21.644  11.937
44562W        W 9382  32.659  29.230  12.807
44563W        W 9383  33.935  18.670   1.454
44564W        W 9384   3.532  34.100   4.102
44565W        W 9385  31.436   7.296   1.656
44566W        W 9386  24.522  36.645  11.889
44567W        W 9387  32.382  34.601  13.778
44568W        W 9388  35.109  23.796   0.415
44569W        W 9389  43.266  24.547  13.807
44570W        W 9390  29.167  23.798   0.221
44571W        W 9391  37.062  22.394  11.341
44572W        W 9392  38.948  37.679  11.122
44573W        W 9393  12.775  12.175  10.979
44574W        W 9394  22.026  26.122   2.968
44575W        W 9395   7.847  21.770  13.402
44576W        W 9396   3.989  39.955   0.540
44577W        W 9397  21.482   0.463  10.637
44578W        W 9398  11.715  21.383   0.860
44579W        W 9399  26.153  42.303   2.624
44580W        W 9400  20.753  37.916  10.645
44581W        W 9401  21.969  41.573  10.542
44582W        W 9402  22.446   7.278  12.481
44583W        W 9403  16.829  40.480  11.528
44584W        W 9404  37.025   0.413   2.203
44585W        W 9405   6.045  20.013   4.216
44586W        W 9406  25.589   4.667  10.226
44587W        W 9407  40.513  20.805  12.674
44588W        W 9408  23.238  34.962  10.702
44589W        W 9409  23.605  36.976  10.639
44590W        W 9410  11.128  35.947  10.775
44591W        W 9411  34.508  39.453  13.793
44592W        W 9412  15.071  22.836   2.747
44593W        W 9413  10.942  12.677   3.752
44594W        W 9414  34.947   9.856   2.737
44595W        W 9415  13.304  26.127  10.434
44596W        W 9416  24.145   7.358  11.119
44597W        W 9417  14.821   8.688   2.747
44598W        W 9418   5.240  23.912  13.815
44599W        W 9419   1.307  23.586   2.896
44600W        W 9420  39.385  18.778  10.704
44601W        W 9421   8.410  41.413  10.784
44602W        W 9422  13.614  20.117   4.419
44603W        W 9423   8.367  35.677  13.346
44604W        W 9424  40.755   8.868   0.693
44605W        W 9425  23.719  38.888  12.907
44606W        W 9426  20.344  40.822  12.423
44607W        W 9427  36.856  20.216  12.550
44608W        W 9428  44.334  33.903   1.814
44609W        W 9429  16.592  31.306  10.206
44610W        W 9430  36.904  32.981   1.940
44611W        W 9431  25.054  26.041   2.778
44612W        W 9432  40.502  20.304   0.694
44613W        W 9433  38.347  28.682   4.593
44614W        W 9434  44.433   2.888  12.786
44615W        W 9435  12.793   5.832  12.292
44616W        W 9436  31.081  37.327  13.425
44617W        W 9437   4.873  36.962   2.866
44618W        W 9438  14.712  35.249  14.974
44619W        W 9439  43.157  40.783   4.249
44620W        W 9440  18.844  31.960  12.323
44621W        W 9441  35.998  12.742  14.593
44622W        W 9442  32.531   2.684   1.315
44623W        W 9443   1.416   1.672   1.855
44624W        W 9444  19.218   0.006  12.481
44625W        W 9445  15.496   5.679   1.196
44626W        W 9446  39.980  34.559   3.057
44627W        W 9447  25.647  28.154  11.603
44628W        W 9448   9.446   2.426  12.110
44629W        W 9449  26.868  19.559  12.085
44630W        W 9450   3.672  30.671   1.175
44631W        W 9451  42.586   9.786  12.020
44632W        W 9452  35.579  36.333  11.610
44633W        W 9453  38.034  21.163   0.449
44634W        W 9454  30.162   6.305   2.714
44635W        W 9455  21.911  19.145  14.232
44636W        W 9456  25.629  25.924  12.939
44637W        W 9457  20.155  21.583   3.769
44638W        W 9458  41.963  14.316   1.465
44639W        W 9459  15.230  26.241   0.316
44640W        W 9460  31.972  32.522  11.055
44641W        W 9461  34.311  12.653  13.012
44642W        W 9462  35.501  31.504  13.924
44643W        W 9463  14.670  15.340   2.096
44644W        W 9464  36.435  29.436  12.648
44645W        W 9465  36.498   1.691   1.425
44646W        W 9466   0.406   1.496   3.799
44647W        W 9467  22.700   0.805   4.565
44648W        W 9468  23.264  10.305  14.430
44649W        W 9469  44.325  30.358  14.421
44650W        W 9470   9.954  15.549   5.315
44651W        W 9471  20.506  20.002  12.124
44652W        W 9472  31.129   2.055   1.758
44653W        W 9473  19.320  26.711   4.474
44654W        W 9474   5.640   3.684   1.769
44655W        W 9475  38.279  27.696  12.893
44656W        W 9476  29.179  13.252   4.781
44657W        W 9477  11.163  13.830  14.760
44658W        W 9478  20.781  32.995  11.768
44659W        W 9479  36.137  14.319  14.320
44660W        W 9480   0.697  39.458  12.599
44661W        W 9481  20.268  20.830  13.087
44662W        W 9482  30.014  36.658   2.762
44663W        W 9483   3.947  13.535   2.769
44664W        W 9484  30.830  16.071   9.901
44665W        W 9485  35.380  32.388   3.677
44666W        W 9486  32.392   7.292   3.110
44667W        W 9487   4.395   2.506   3.578
44668W        W 9488  24.216   3.230  14.962
44669W        W 9489  29.650   4.243  14.221
44670W        W 9490  38.076  12.416  11.542
44671W        W 9491   7.132  18.568  12.442
44672W        W 9492  33.450  23.542   0.203
44673W        W 9493  27.504   0.255  11.888
44674W        W 9494  19.325  42.029   4.607
44675W        W 9495  42.783  44.383  11.215
44676W        W 9496   1.671  31.815   0.787
44677W        W 9497  35.998  10.877   2.127
44678W        W 9498  19.125  24.499   0.903
44679W        W 9499  36.141  43.336  11.895
44680W        W 9500  38.125  30.988   3.289
44681W        W 9501  44.778  32.645  11.884
44682W        W 9502   2.039   6.159   1.700
44683W        W 9503  27.067  15.547  13.283
44684W        W 9504  33.131  12.325   2.752
44685W        W 9505  28.674   3.722  11.161
44686W        W 9506   3.356  43.429  12.444
44687W        W 9507  37.969   9.732   2.275
44688W        W 9508  38.473   8.434   1.989
44689W        W 9509  17.192  37.981  12.938
44690W        W 9510  28.969  44.467   0.730
44691W        W 9511   2.881  21.605  11.182
44692W        W 9512   5.514  11.112  11.360
44693W        W 9513  32.451  19.282  11.513
44694W        W 9514  43.485  41.383  12.856
44695W        W 9515  18.964  23.661  14.836
44696W        W 9516  16.531  14.103   1.693
44697W        W 9517   2.930   9.891  14.284
44698W        W 9518  27.416  20.909  10.991
44699W        W 9519   7.568  23.528   2.765
44700W        W 9520  17.754   1.358  10.962
44701W        W 9521   2.883  41.933  13.060
44702W        W 9522  14.545  23.184   0.367
44703W        W 9523  39.886  25.483   2.624
44704W        W 9524  37.136   1.329   0.298
44705W        W 9525   1.998  39.579   0.857
44706W        W 9526  24.156   8.150   1.711
44707W        W 9527  38.700  15.811  14.945
44708W        W 9528  40.487   0.194   4.536
44709W        W 9529  21.844  29.239  11.677
44710W        W 9530  20.677  32.530   4.492
44711W        W 9531   0.903  27.211   1.377
44712W        W 9532  20.224  13.650  11.946
44713W        W 9533  14.042  19.147   5.076
44714W        W 9534  22.911  24.778   1.435
44715W        W 9535  36.920  44.028   4.804
44716W        W 9536   4.747  19.837  11.193
44717W        W 9537  42.399   7.883   2.169
44718W        W 9538   0.249  28.394   3.954
44719W        W 9539  34.485  43.598  14.539
44720W        W 9540  16.863  22.097   0.910
44721W        W 9541  35.383  35.545   1.725
44722W        W 9542   2.008  41.450   1.686
44723W        W 9543  17.049  44.244   2.858
44724W        W 9544  18.780  17.232   4.791
44725W        W 9545  27.112  44.339   4.368
44726W        W 9546  26.117  32.929  11.124
44727W        W 9547  19.516  39.405   2.425
44728W        W 9548  13.570  40.004   4.176
44729W        W 9549  37.611  22.429   2.336
44730W        W 9550   1.446  20.582   4.024
44731W        W 9551  23.999  13.180  12.004
44732W        W 9552  24.445  29.399  13.315
44733W        W 9553  36.385  11.165   2.428
44734W        W 9554  10.417   2.629  13.826
44735W        W 9555  37.950  19.284   5.037
44736W        W 9556   7.233   8.838   4.146
44737W        W 9557   5.234  39.387   1.869
44738W        W 9558   8.289  31.254  12.946
44739W        W 9559  36.836  42.390   4.164
44740W        W 9560  12.204   0.980   1.300
44741W        W 9561  30.135   7.688   3.051
44742W        W 9562  44.500  26.240   4.223
44743W        W 9563  19.570  26.649  13.033
44744W        W 9564  18.101  44.352   2.899
44745W        W 9565  18.098  23.497   3.202
44746W        W 9566   5.464  10.117  11.771
44747W        W 9567  21.802   6.355   2.683
44748W        W 9568  30.324  37.284  14.799
44749W        W 9569  41.890   2.922   1.208
44750W        W 9570  33.831  26.632  10.162
44751W        W 9571  31.170   9.586  13.775
44752W        W 9572  29.051  31.343   0.893
44753W        W 9573  14.572  38.819   1.731
44754W        W 9574  15.906  35.064  13.138
44755W        W 9575  23.902  34.940   0.808
44756W        W 9576  17.152  35.593   1.866
44757W        W 9577  38.855  31.118   2.612
44758W        W 9578  37.198  13.978  10.140
44759W        W 9579  34.926  32.254   0.268
44760W        W 9580  35.163  41.838   1.985
44761W        W 9581  28.566  39.560   0.452
44762W        W 9582  20.635   5.401   2.141
44763W        W 9583  30.570  34.395   1.198
44764W        W 9584  38.100  38.243  12.398
44765W        W 9585  10.334  37.492  13.309
44766W        W 9586  38.899  29.913   0.954
44767W        W 9587  35.226   1.830  11.934
44768W        W 9588  12.889  17.140   1.352
44769W        W 9589  41.055   9.089   5.268
44770W        W 9590  33.356   6.238  12.497
44771W        W 9591  41.037  19.235  13.017
44772W        W 9592  38.133  24.144  11.622
44773W        W 9593  15.243  18.339  13.882
44774W        W 9594   0.292  35.881   1.445
44775W        W 9595  23.928  39.248  11.048
44776W        W 9596   5.487  19.777  14.824
44777W        W 9597  21.163  10.868  12.443
44778W        W 9598  24.967  43.735  13.925
44779W        W 9599  31.590   5.152  12.007
44780W        W 9600   9.711  30.224  10.489
44781W        W 9601  16.655  28.491  11.641
44782W        W 9602  32.682  29.203  11.542
44783W        W 9603  34.922  27.569   0.683
44784W        W 9604  25.118  12.041   3.089
44785W        W 9605   5.840   4.712  10.390
44786W        W 9606  13.524  10.710   0.905
44787W        W 9607   3.193  23.438  10.584
44788W        W 9608  13.656  34.722   3.028
44789W        W 9609  23.568  10.726  14.382
44790W        W 9610  14.789  13.735   4.041
44791W        W 9611  21.650   3.504  12.014
44792W        W 9612  21.283  27.156   2.746
44793W        W 9613  36.338  35.918  12.252
44794W        W 9614  15.187  12.205  13.331
44795W        W 9615  37.597  25.557  14.211
44796W        W 9616  27.789  38.087  12.063
44797W        W 9617  43.051  24.516   2.606
44798W        W 9618  44.717  30.067  14.266
44799W        W 9619  19.766  38.628   1.371
44800W        W 9620  15.559  22.544  10.683
44801W        W 9621  14.343  11.116   4.430
44802W        W 9622  17.149  30.999   4.540
44803W        W 9623  18.950  40.253   0.532
44804W        W 9624   3.916   4.954  13.014
44805W        W 9625   6.346  44.981   3.826
44806W        W 9626  19.351   3.276  14.034
44807W        W 9627   5.746  37.346   1.907
44808W        W 9628  14.415  34.538   1.311
44809W        W 9629  27.723  17.808   3.042
44810W        W 9630  13.900   4.240   0.796
44811W        W 9631  15.547  32.537  13.935
44812W        W 9632  11.074  25.891   3.922
44813W        W 9633   3.370  19.995   0.769
44814W        W 9634   5.402  34.472   1.665
44815W        W 9635   4.761   7.498   4.564
44816W        W 9636  18.139  42.459   0.975
44817W        W 9637   5.376   5.985  10.521
44818W        W 9638  41.425  15.167   1.780
44819W        W 9639   8.257  35.996   1.978
44820W        W 9640   0.515  15.655   3.827
44821W        W 9641   2.664   8.376   4.917
44822W        W 9642  33.830  12.580  13.700
44823W        W 9643  36.576   1.196   3.661
44824W        W 9644  22.606  19.787  13.337
44825W        W 9645  32.393   1.632   3.212
44826W        W 9646  10.324  23.625   1.484
44827W        W 9647   9.702  12.227   3.558
44828W        W 9648  40.750   4.563  14.371
44829W        W 9649  13.590  37.248   3.291
44830W        W 9650  33.946  44.392  14.835
44831W        W 9651  10.081   4.867  11.181
44832W        W 9652  43.941  30.145   2.821
44833W        W 9653  36.360   0.564  13.145
44834W        W 9654  10.961  17.448   2.370
44835W        W 9655   9.093  13.178   0.650
44836W        W 9656   5.454  18.589   2.270
44837W        W 9657  24.228   3.357  13.622
44838W        W 9658  28.590  18.255  11.484
44839W        W 9659  37.804  42.092  11.004
44840W        W 9660  32.062  20.037  11.546
44841W        W 9661  37.941  10.914   0.953
44842W        W 9662   0.413  42.329   4.871
44843W        W 9663  22.021  23.969   1.987
44844W        W 9664  30.417  23.043   0.290
44845W        W 9665  12.366  42.362   0.944
44846W        W 9666  11.134   1.255  14.415
44847W        W 9667   8.328  10.084   3.244
44848W        W 9668  38.363  26.078  14.463
44849W        W 9669  21.659  29.571  11.244
44850W        W 9670  17.882  28.694   0.914
44851W        W 9671  37.441  36.327  12.483
44852W        W 9672   5.667  41.647  12.934
44853W        W 9673  31.693  20.085   4.537
44854W        W 9674  25.698  37.137   0.050
44855W        W 9675   8.885  33.992  14.557
44856W        W 9676  25.457  28.034   1.943
44857W        W 9677  34.436  30.088  10.637
44858W        W 9678   8.184  14.129   4.356
44859W        W 9679  10.518   4.792   0.848
44860W        W 9680  15.480  21.308  14.424
44861W        W 9681  25.134  36.058   1.340
44862W        W 9682   1.205  26.639  10.424
44863W        W 9683  17.748   2.994   3.167
44864W        W 9684  32.128  41.343  11.715
44865W        W 9685  31.050  39.661   3.731
44866W        W 9686  35.674  37.967  12.585
44867W        W 9687  21.207  16.299   3.598
44868W        W 9688  25.684  21.265  12.857
44869W        W 9689  17.574  12.249   2.232
44870W        W 9690   6.740  36.778   4.963
44871W        W 9691  11.899   7.528   1.755
44872W        W 9692  42.927   8.212   1.630
44873W        W 9693   3.323  29.490  11.565
44874W        W 9694  16.709   5.708  13.849
44875W        W 9695  44.776  44.314   4.337
44876W        W 9696  25.008  28.944  11.897
44877W        W 9697  37.099   6.427   0.258
44878W        W 9698  21.592  35.387  13.999
44879W        W 9699  31.304  22.661   3.919
44880W        W 9700  18.132  12.235  12.888
44881W        W 9701  34.499  40.437   1.332
44882W        W 9702  35.549   3.476  14.492
44883W        W 9703   2.348  41.901   5.018
44884W        W 9704  24.776   1.349   0.635
44885W        W 9705  14.748  35.392   4.749
44886W        W 9706  43.871  16.637  14.462
44887W        W 9707  37.049   7.450   2.748
44888W        W 9708  18.665  23.627   1.883
44889W        W 9709   4.657  20.772  11.112
44890W        W 9710  19.828  36.402   2.711
44891W        W 9711   1.213  36.065  12.901
44892W        W 9712   6.441  33.400   3.080
44893W        W 9713  43.967   5.211  13.909
44894W        W 9714  12.212  18.729   1.318
44895W        W 9715  37.880  44.932   4.593
44896W        W 9716  36.156  27.612   3.225
44897W        W 9717   3.071   5.899  12.951
44898W        W 9718   1.766  27.524  12.542
44899W        W 9719   9.430  17.311  14.745
44900W        W 9720  14.623  32.356   1.338
44901W        W 9721  31.077  33.965   4.521
44902W        W 9722  20.123  42.805  10.681
44903W        W 9723  26.737  19.140  13.368
44904W        W 9724  38.963  38.900  14.793
44905W        W 9725   6.690  39.247  12.007
44906W        W 9726  14.867   2.140  14.731
44907W        W 9727  24.072  41.785   2.384
44908W        W 9728  10.581  36.973  14.410
44909W        W 9729  42.775  42.168  14.307
44910W        W 9730  13.930  28.431  10.995
44911W        W 9731  37.833  32.047   2.354
44912W        W 9732  27.004  27.765  12.035
44913W        W 9733   4.799  14.822   3.177
44914W        W 9734  15.986  12.394   1.647
44915W        W 9735  23.936   5.268   2.326
44916W        W 9736   8.252  39.160   0.412
44917W        W 9737  43.476  28.151  13.802
44918W        W 9738  27.192  39.594   1.766
44919W        W 9739  10.184  43.359  11.970
44920W        W 9740  17.042  28.715  11.347
44921W        W 9741  26.717  20.479  14.564
44922W        W 9742  19.719   6.262  12.889
44923W        W 9743   9.962  23.206  10.713
44924W        W 9744  35.448   0.999  12.881
44925W        W 9745  41.456  33.303  13.917
44926W        W 9746  39.206   7.879  13.946
44927W        W 9747   7.847  27.127   3.526
44928W        W 9748  11.409   6.287   3.044
44929W        W 9749  18.137  21.218   0.497
44930W        W 9750  33.348   0.717  13.402
44931W        W 9751  29.599  20.289  14.496
44932W        W 9752   4.831  14.360  13.434
44933W        W 9753   2.663  25.120  10.052
44934W        W 9754  11.818  32.047  12.025
44935W        W 9755  34.012   9.249   0.671
44936W        W 9756  28.657   9.340   0.660
44937W        W 9757   4.694  16.254  13.326
44938W        W 9758   8.658  34.448  14.028
44939W        W 9759  20.598  27.126  11.493
44940W        W 9760  41.377  42.489  12.715
44941W        W 9761   5.562  23.413   4.914
44942W        W 9762  16.641  24.416   2.733
44943W        W 9763  11.471  40.277  13.654
44944W        W 9764  20.403   0.216  12.115
44945W        W 9765   3.188  39.575  14.343
44946W        W 9766  43.558  20.067   2.813
44947W        W 9767  15.368  12.450  14.971
44948W        W 9768  23.397   6.633  10.252
44949W        W 9769  25.798   5.725   2.267
44950W        W 9770  19.423  14.235  12.603
44951W        W 9771  41.872  14.309   4.116
44952W        W 9772  41.824   7.609  13.354
44953W        W 9773  28.503   6.282  14.325
44954W        W 9774  30.629  32.630  13.350
44955W        W 9775  40.414   7.430  10.090
44956W        W 9776  22.426  24.016  14.889
44957W        W 9777  11.349   6.574  10.811
44958W        W 9778   8.223   4.614  13.707
44959W        W 9779   7.971  19.105   2.423
44960W        W 9780  33.285   7.361   3.608
44961W        W 9781   8.614  20.008   0.912
44962W        W 9782   4.504  16.644   3.247
44963W        W 9783  21.287  11.630  11.975
44964W        W 9784  25.067  28.014  12.414
44965W        W 9785  18.594  14.710  12.607
44966W        W 9786  36.434   0.811   2.166
44967W        W 9787  17.708  24.428  12.660
44968W        W 9788  42.777   7.879  13.135
44969W        W 9789  40.023  15.111  12.091
44970W        W 9790  10.792  35.107  11.111
44971W        W 9791  37.355  12.228   4.499
44972W        W 9792  42.693   8.648   0.850
44973W        W 9793   8.921  44.780   3.693
44974W        W 9794  15.096  37.972  12.728
44975W        W 9795   5.275   4.951   4.501
44976W        W 9796  30.694  43.202  12.966
44977W        W 9797  17.084  33.784   5.020
44978W        W 9798   1.671  28.234   2.358
44979W        W 9799  34.521   6.510  12.479
44980W        W 9800  30.888  39.755   0.806
44981W        W 9801   3.360  42.187  13.026
44982W        W 9802   9.489  15.863  13.499
44983W        W 9803  40.819   2.401  14.791
44984W        W 9804  10.823  42.953   3.709
44985W        W 9805   7.096  43.890   0.793
44986W        W 9806  16.812  20.303  12.913
44987W        W 9807   3.657  32.982  14.878
44988W        W 9808  38.838  32.890   5.153
44989W        W 9809   4.797  43.769  10.679
44990W        W 9810  42.020  29.196   0.329
44991W        W 9811  36.642  42.244   4.940
44992W        W 9812  10.687  22.265   1.995
44993W        W 9813   2.836  19.522  12.050
44994W        W 9814  10.562  31.069   2.661
44995W        W 9815  44.398  15.891  13.425
44996W        W 9816  14.976  10.309  11.179
44997W        W 9817  28.154  30.386  13.772
44998W        W 9818   6.802  41.695   0.501
44999W        W 9819  25.955  20.434   3.514
45000W        W 9820  17.936  25.670  12.789
45001W        W 9821  43.802  25.537  11.475
45002W        W 9822  27.412  13.062   3.533
45003W        W 9823   8.582  14.400  14.946
45004W        W 9824  42.951  32.596   4.106
45005W        W 9825  17.800  30.120  11.081
45006W        W 9826   3.453   4.853   1.293
45007W        W 9827  40.384   3.222  11.982
45008W        W 9828  13.118  36.144  14.949
45009W        W 9829  14.707   7.333  10.233
45010W        W 9830   3.774   6.782  14.381
45011W        W 9831  27.376   7.059  10.896
45012W        W 9832  31.802  21.958  14.853
45013W        W 9833  16.588  33.893  13.021
45014W        W 9834  22.749  32.387   1.315
45015W        W 9835  41.037  35.343   3.748
45016W        W 9836  12.610  32.191   2.496
45017W        W 9837  17.526  29.673  11.134
45018W        W 9838  40.924  21.768   1.756
45019W        W 9839   3.258  24.660   0.526
45020W        W 9840  43.805   6.710  13.817
45021W        W 9841  22.051  25.177  12.381
45022W        W 9842  36.964  11.749  12.846
45023W        W 9843  44.712  20.838  13.918
45024W        W 9844  36.093  37.253   4.992
45025W        W 9845  44.373  43.213   1.256
45026W        W 9846  25.465  23.491  13.092
45027W        W 9847  16.220  36.791   3.632
45028W        W 9848  13.105  11.562   3.756
45029W        W 9849   3.677  21.926   2.767
45030W        W 9850  39.089   7.344  14.844
45031W        W 9851  38.854  10.044  14.754
45032W        W 9852   4.706   7.821   0.260
45033W        W 9853  17.022  28.583   4.695
45034W        W 9854  38.579  14.674  11.535
45035W        W 9855  38.608   8.461   2.471
45036W        W 9856  10.165  40.016   4.291
45037W        W 9857  22.044  15.291   2.781
45038W        W 9858  19.718  18.393   3.295
45039W        W 9859   0.268   5.677  11.324
45040W        W 9860  10.016  22.141  12.130
45041W        W 9861  20.926  31.388   2.488
45042W        W 9862  39.522   4.221  10.777
45043W        W 9863  39.061  43.465   0.870
45044W        W 9864  26.096  12.475  10.993
45045W        W 9865   0.188  37.945   2.609
45046W        W 9866   7.201  28.085   9.646
45047W        W 9867  39.848  27.949   3.084
45048W        W 9868  35.703  20.732   0.091
45049W        W 9869  27.367  40.263   0.688
45050W        W 9870  33.167  12.085   2.292
45051W        W 9871  39.627  11.534   5.004
45052W        W 9872  34.484  17.798   4.236
45053W        W 9873  34.655  23.119   1.508
45054W        W 9874  22.148  31.166  10.668
45055W        W 9875  40.079  21.291  13.904
45056W        W 9876  23.642  28.711   0.405
45057W        W 9877  20.208  10.312   0.510
45058W        W 9878  37.772  22.046  12.718
45059W        W 9879  22.882  12.743  10.768
45060W        W 9880  13.923  42.151  12.593
45061W        W 9881  10.696  14.613  13.418
45062W        W 9882   1.851  37.401   3.075
45063W        W 9883  36.940  43.038  14.978
45064W        W 9884  20.014  16.283  11.081
45065W        W 9885  37.904  24.594  14.905
45066W        W 9886  34.614  35.487  13.782
45067W        W 9887  38.926  22.202  14.981
45068W        W 9888  31.264   8.180  12.369
45069W        W 9889  15.659  35.427  10.718
45070W        W 9890  21.255   2.803   2.720
45071W        W 9891  15.339   9.120  14.290
45072W        W 9892  29.945  33.847   1.852
45073W        W 9893  25.987  26.844  10.744
45074W        W 9894   8.266  22.268  13.858
45075W        W 9895  27.625  44.041   1.118
45076W        W 9896  22.219   5.465  11.799
45077W        W 9897  29.536   4.516   3.698
45078W        W 9898  35.045  13.573   3.229
45079W        W 9899  31.123  40.763   1.822
45080W        W 9900  24.416  27.867   2.676
45081W        W 9901  32.172  12.788  14.312
45082W        W 9902  20.585  19.366  14.919
45083W        W 9903   3.856  36.427  10.732
45084W        W 9904  34.960  41.046  12.356
45085W        W 9905  33.412  10.556  12.016
45086W        W 9906  32.176   6.718   3.743
45087W        W 9907  17.175  19.937  12.425
45088W        W 9908   0.428  23.216   1.950
45089W        W 9909  26.172  31.569   4.155
45090W        W 9910  44.922  11.831   2.912
45091W        W 9911  33.357   8.761  12.016
45092W        W 9912  44.318   5.478   2.420
45093W        W 9913  34.984  44.603  11.500
45094W        W 9914  11.980   9.455  14.052
45095W        W 9915  39.280  39.579   3.733
45096W        W 9916  40.403  31.409  12.119
45097W        W 9917  36.466  17.824   3.270
45098W        W 9918   2.426   9.114   2.745
45099W        W 9919  43.965  16.074  13.648
45100W        W 9920  17.805  16.853   2.810
45101W        W 9921   5.737  27.231  11.148
45102W        W 9922   9.764   1.419   2.330
45103W        W 9923  15.065  22.718   0.715
45104W        W 9924   6.278  29.662   2.260
45105W        W 9925   2.683   1.394  12.686
45106W        W 9926  36.673  10.463   1.264
45107W        W 9927  14.019  23.535   0.882
45108W        W 9928  11.599  11.780  11.657
45109W        W 9929   4.711  26.625  12.989
45110W        W 9930  31.274   3.363   4.277
45111W        W 9931  43.910  30.670  14.438
45112W        W 9932   1.070  21.938  12.012
45113W        W 9933  35.562  29.760   0.952
45114W        W 9934  28.204  16.304  10.929
45115W        W 9935  12.733  28.547  13.734
45116W        W 9936  24.476  44.977  12.095
45117W        W 9937   5.872  33.546  12.521
45118W        W 9938  30.415  33.056   4.218
45119W        W 9939  41.026   2.533   3.388
45120W        W 9940  42.656  28.914  11.638
45121W        W 9941  29.554   3.764  14.014
45122W        W 9942   7.162  13.237  14.881
45123W        W 9943  43.279  23.468   3.410
45124W        W 9944  32.648  30.453  10.595
45125W        W 9945  38.598  34.655  11.945
45126W        W 9946  18.132  16.206   2.190
45127W        W 9947  42.828  24.746  12.556
45128W        W 9948  21.028   1.374   0.990
45129W        W 9949  33.374  23.802   3.554
45130W        W 9950  16.031  30.323  12.853
45131W        W 9951  28.232  36.150  10.349
45132W        W 9952   2.208  36.590   3.278
45133W        W 9953   2.163  13.173   1.230
45134W        W 9954  33.587   9.635   2.495
45135W        W 9955   4.831  13.491  14.731
45136W        W 9956  44.533  19.471   1.716
45137W        W 9957  34.982  13.883   2.359
45138W        W 9958   6.923  20.143   0.375
45139W        W 9959  19.051  41.509  12.999
45140W        W 9960   5.876  25.062  11.153
45141W        W 9961  31.609  39.440  13.864
45142W        W 9962  35.391   5.057   4.406
45143W        W 9963  15.190  24.965   4.253
45144W        W 9964  39.477  31.192  13.899
45145W        W 9965   6.933  38.653   2.353
45146W        W 9966  27.550  30.426   0.928
45147W        W 9967  35.608  40.574   4.325
45148W        W 9968  44.231  42.750  12.377
45149W        W 9969   5.388  40.016   0.525
45150W        W 9970  36.970   9.168  14.493
45151W        W 9971   5.837  10.592  13.529
45152W        W 9972  41.996  34.985   4.372
45153W        W 9973  39.440  14.877   1.170
45154W        W 9974  24.216  25.764  10.729
45155W        W 9975  19.097  23.143   4.084
45156W        W 9976  14.643  12.023  11.141
45157W        W 9977  32.016  19.165   0.335
45158W        W 9978  26.152  17.647  12.532
45159W        W 9979  21.064   5.204   3.846
45160W        W 9980  14.533  23.568   0.809
45161W        W 9981  26.660  28.058   4.472
45162W        W 9982  42.080   4.613  11.959
45163W        W 9983   3.475  12.040  12.023
45164W        W 9984  21.999   7.464  11.567
45165W        W 9985  15.676   7.203  10.340
45166W        W 9986   6.333  26.104  14.386
45167W        W 9987  43.051  23.716  13.437
45168W        W 9988  36.956  14.541  12.142
45169W        W 9989  40.496  27.472   4.043
45170W        W 9990  20.657  27.054   4.156
45171W        W 9991  15.066  19.160   2.996
45172W        W 9992  22.035  39.776  10.615
45173W        W 9993  33.292   0.304   4.914
45174W        W 9994  13.264  23.687   0.303
45175W        W 9995  28.125  24.726  11.226
45176W        W 9996   4.780  44.264  13.982
45177W        W 9997  35.575  38.678   1.718
45178W        W 9998  36.960  23.914  14.289
45179W        W 9999  36.298  19.718   4.042
45180W        W10000  26.014  15.138   0.821
45181W        W10001  40.547  18.240   0.465
45182W        W10002  41.084  44.284  12.062
45183W        W10003  41.824  30.066  12.007
45184W        W10004  41.311  40.891  11.025
45185W        W10005  28.085   4.745  13.543
45186W        W10006  38.433   6.389   3.004
45187W        W10007   2.878  11.324   1.908
45188W        W10008  36.705  39.992  12.629
45189W        W10009   0.826  34.883   1.613
45190W        W10010  22.159  17.980  13.438
45191W        W10011  28.875   7.378  11.261
45192W        W10012  35.136  23.505  11.654
45193W        W10013   4.883   4.160  11.247
45194W        W10014  19.150  23.645   0.882
45195W        W10015  43.741  18.961  11.231
45196W        W10016   8.047  32.247  12.921
45197W        W10017   8.363  16.163  13.561
45198W        W10018  24.224  34.320   0.220
45199W        W10019  37.656  17.061  14.107
45200W        W10020   7.408  12.813  14.717
45201W        W10021  28.464  17.010   4.630
45202W        W10022  34.954  20.746   0.699
45203W        W10023  31.622  39.745  12.941
45204W        W10024   2.421  22.579  14.055
45205W        W10025  13.988  32.565   4.035
45206W        W10026  41.576  27.973   3.877
45207W        W10027  28.121   8.325  13.046
45208W        W10028  30.485   7.519   1.331
45209W        W10029  25.269   9.629  11.968
45210W        W10030  15.024  36.501   5.006
45211W        W10031  13.161  13.866   0.946
45212W        W10032  26.644  12.284   4.648
45213W        W10033  21.050  21.620  11.590
45214W        W10034  16.120  36.592  12.298
45215W        W10035  16.559  26.650   3.693
45216W        W10036  30.301  14.866  11.992
45217W        W10037   5.719  23.869   2.197
45218W        W10038  13.288  28.962   3.679
45219W        W10039  19.608  38.032  14.349
45220W        W10040  44.970  13.598  14.704
45221W        W10041  10.181  23.652  13.939
45222W        W10042  11.834  19.118   3.186
45223W        W10043  16.526  23.032   4.604
45224W        W10044   4.120  42.946  11.715
45225W        W10045  24.712   7.776   1.490
45226W        W10046  34.914   2.731   2.618
45227W        W10047  15.957  17.742   3.294
45228W        W10048  12.377  36.920  14.027
45229W        W10049   1.555  32.440  12.429
45230W        W10050  15.269  23.330   2.822
45231W        W10051  31.077   3.471  12.885
45232W        W10052  15.014  41.562  11.008
45233W        W10053  30.892  22.443  10.922
45234W        W10054  16.822  16.156  11.591
45235W        W10055  15.892   0.643  14.284
45236W        W10056  12.358  20.768   2.541
45237W        W10057  23.324   5.709  13.912
45238W        W10058   1.924  31.523   4.663
45239W        W10059  43.473  29.611  10.965
45240W        W10060   7.730  21.112  10.714
45241W        W10061  36.945  26.384  14.312
45242W        W10062  11.887  25.432  11.201
45243W        W10063  15.747  17.131  11.138
45244W        W10064   0.763  40.515  12.098
45245W        W10065   6.392   5.844   0.476
45246W        W10066  29.978  24.128  11.048
45247W        W10067  25.134  19.272  14.465
45248W        W10068  25.990  29.512  14.369
45249W        W10069  11.371  14.369  12.063
45250W        W10070  25.912   5.894   4.375
45251W        W10071   8.823  35.478  12.362
45252W        W10072  21.625   0.982  11.715
45253W        W10073  41.945  25.873   3.071
45254W        W10074  42.529  18.610   1.268
45255W        W10075  34.547   6.670  11.976
45256W        W10076  22.413  42.251   0.130
45257W        W10077  29.761  12.949  14.539
45258W        W10078  18.663  24.969  10.718
45259W        W10079   3.195  21.149  14.088
45260W        W10080   1.802  35.556   4.655
45261W        W10081  15.899  28.646  10.492
45262W        W10082   6.978  44.241   1.497
45263W        W10083   5.758  40.276  11.994
45264W        W10084  39.322  23.591  12.888
45265W        W10085  20.870  17.078   5.063
45266W        W10086  31.586  39.102  10.371
45267W        W10087   5.831  38.396  10.184
45268W        W10088  25.717  22.090  13.788
45269W        W10089   6.995   3.517   1.856
45270W        W10090  10.642   5.042   3.957
45271W        W10091  44.285  16.876  12.126
45272W        W10092  28.947  27.658   0.767
45273W        W10093  39.203  11.382   1.665
45274W        W10094  38.525   0.049  12.963
45275W        W10095  40.433  18.264  12.589
45276W        W10096  18.797  20.543   4.609
45277W        W10097  15.792  32.923  11.206
45278W        W10098  37.424  37.365   4.052
45279W        W10099  42.076  40.952  14.094
45280W        W10100  25.056  36.809  11.635
45281W        W10101  33.317  30.006  12.538
45282W        W10102  28.048   4.695   0.278
45283W        W10103   2.865  10.215  12.158
45284W        W10104  27.421  17.035   0.759
45285W        W10105  12.241  19.395   4.579
45286W        W10106  41.474  25.193   1.797
45287W        W10107  32.612  24.100   0.382
45288W        W10108  31.596  25.637   1.645
45289W        W10109  25.781  39.842  14.265
45290W        W10110  43.564  25.778  12.023
45291W        W10111  44.381  18.661   2.253
45292W        W10112  32.591  38.239   4.191
45293W        W10113  35.661  17.576   0.427
45294W        W10114  27.963  43.460  10.575
45295W        W10115  16.046  37.069   2.268
45296W        W10116  36.857   4.266   4.863
45297W        W10117  14.900   2.854   2.424
45298W        W10118  26.633  40.514  14.660
45299W        W10119  38.408  44.473   4.088
45300W        W10120   3.182  33.612   3.278
45301W        W10121   4.037  16.626   4.641
45302W        W10122  20.437  15.597  10.671
45303W        W10123  41.783  40.304   0.838
45304W        W10124  27.680   4.431   2.521
45305W        W10125   8.813   2.274   0.303
45306W        W10126  12.372  20.766  11.981
45307W        W10127  16.204  32.310  12.994
45308W        W10128  29.014   4.614   3.734
45309W        W10129  23.230  14.313  12.662
45310W        W10130  35.360  19.623  14.497
45311W        W10131  18.781  29.866   1.813
45312W        W10132  21.292  21.647  10.214
45313W        W10133   2.809   5.399   4.390
45314W        W10134  18.866  21.482   1.192
45315W        W10135   8.105  27.003   2.157
45316W        W10136  34.186  38.796  12.437
45317W        W10137  23.662  27.972   2.058
45318W        W10138  36.644  39.179   1.783
45319W        W10139  39.545  35.055   2.427
45320W        W10140  13.613  35.299  13.975
45321W        W10141  16.740  43.923   1.642
45322W        W10142   6.091  19.006   3.755
45323W        W10143  27.000  35.022   2.016
45324W        W10144   4.031   6.484   1.816
45325W        W10145  38.353  16.792   1.225
45326W        W10146  10.062  11.878   3.670
45327W        W10147  22.739  10.356   2.789
45328W        W10148  41.557   4.953  13.901
45329W        W10149  41.032  44.666  12.920
45330W        W10150  22.243  26.317  10.926
45331W        W10151  35.482  11.587  10.495
45332W        W10152   1.310   8.885  10.738
45333W        W10153   7.321  30.686   1.397
45334W        W10154  12.145  10.134  14.415
45335W        W10155  33.110  12.811   1.795
45336W        W10156  30.856  21.169   4.597
45337W        W10157  34.213  42.077  14.461
45338W        W10158  39.564  40.009   3.729
45339W        W10159  16.460  10.860   3.118
45340W        W10160  36.536  11.398   4.370
45341W        W10161  25.663  30.678   2.827
45342W        W10162   9.825   4.303   1.747
45343W        W10163  29.535  30.410   5.161
45344W        W10164  26.863   9.420   3.758
45345W        W10165   0.456  39.792  11.671
45346W        W10166  25.403  31.087  13.207
45347W        W10167  10.366  20.898  12.877
45348W        W10168   2.040   4.880  10.689
45349W        W10169  30.061  10.436  11.595
45350W        W10170  10.190  25.107  11.498
45351W        W10171   3.769  17.069  12.984
45352W        W10172  31.566   1.714   1.762
45353W        W10173  12.655  28.756  14.209
45354W        W10174  25.897  39.562   4.080
45355W        W10175   1.218  31.287   0.076
45356W        W10176  37.678  26.737  11.983
45357W        W10177  38.844   4.283   1.711
45358W        W10178  31.467   0.491   0.983
45359W        W10179  11.181  31.251  12.038
45360W        W10180  27.810  10.112   0.250
45361W        W10181  23.107  24.641   3.559
45362W        W10182   5.232   9.434  13.142
45363W        W10183  18.665  11.414   3.219
45364W        W10184  18.082  43.972   2.347
45365W        W10185  37.340  33.040  14.387
45366W        W10186   4.484  26.493  11.607
45367W        W10187   3.717  25.780   1.337
45368W        W10188  16.034  38.987  14.712
45369W        W10189  32.023  11.925  11.436
45370W        W10190   0.171  39.942  13.375
45371W        W10191  17.406  10.121  12.861
45372W        W10192  39.640  30.500   1.927
45373W        W10193  31.420  28.560  13.002
45374W        W10194  27.074   0.346   1.325
45375W        W10195  10.279  16.134  13.420
45376W        W10196   6.658  10.871   3.239
45377W        W10197   3.392  29.019  14.838
45378W        W10198  27.103   3.295   3.394
45379W        W10199  39.960   7.434  11.399
45380W        W10200  29.748   3.904  11.189
45381W        W10201   5.369  18.270  12.192
45382W        W10202  24.940   1.602  11.988
45383W        W10203  35.645  44.818  11.114
45384W        W10204  39.220  14.805  12.654
45385W        W10205  15.039  35.526   2.918
45386W        W10206   3.237  35.958  12.267
45387W        W10207  16.247   7.135  11.161
45388W        W10208  41.395  15.732  13.317
45389W        W10209  22.530  21.517   0.305
45390W        W10210  38.103  10.919   2.692
45391W        W10211  43.718   3.636  13.781
45392W        W10212  21.937  10.172  13.965
45393W        W10213   0.176   1.239   1.737
45394W        W10214   3.309  14.395   0.327
45395W        W10215  44.959   1.038   2.191
45396W        W10216  40.468   2.778   1.694
45397W        W10217  31.105  40.313  12.548
45398W        W10218  17.965  21.673   2.339
45399W        W10219  11.915   6.366   3.107
45400W        W10220  15.319  23.009   1.824
45401W        W10221  38.412  28.273  13.048
45402W        W10222  26.454  39.305   0.498
45403W        W10223   2.314   7.617   4.547
45404W        W10224  29.686  16.772  14.636
45405W        W10225  40.771  40.050  14.867
45406W        W10226   7.399  31.249  12.825
45407W        W10227  38.067   7.795  13.424
45408W        W10228  32.932  37.940   2.416
45409W        W10229  41.028  20.023   3.180
45410W        W10230  11.841  20.682  13.428
45411W        W10231   3.544  10.295  12.381
45412W        W10232  32.109   9.775  12.548
45413W        W10233   6.344  27.265  12.388
45414W        W10234  42.532  28.652   2.400
45415W        W10235   2.379  39.348  10.755
45416W        W10236  42.894  24.500   0.199
45417W        W10237  19.544  17.202  10.482
45418W        W10238   1.855  33.854  12.571
45419W        W10239  21.303  21.710   1.815
45420W        W10240  23.270   3.514   0.299
45421W        W10241  28.395  32.401   3.676
45422W        W10242  36.170   6.448  12.836
45423W        W10243   3.772  17.996   2.683
45424W        W10244  10.593  32.155  12.650
45425W        W10245  24.536  14.354   1.413
45426W        W10246  15.525  37.576   9.896
45427W        W10247  25.494  13.688  14.126
45428W        W10248  13.859  11.293  14.456
45429W        W10249  35.972  15.839  14.797
45430W        W10250  15.157  22.951   4.531
45431W        W10251  36.952  34.901   2.702
45432W        W10252  44.148   0.475   1.620
45433W        W10253  19.664  26.803  10.348
45434W        W10254  34.496  37.570   2.774
45435W        W10255  10.051  33.842  10.073
45436W        W10256   3.597  17.611  13.340
45437W        W10257  34.639  40.545   0.397
45438W        W10258   3.497   5.436  11.096
45439W        W10259  35.906  30.833  13.531
45440W        W10260   3.711  14.570  14.992
45441W        W10261  30.024  43.965   0.723
45442W        W10262  22.581   2.187  14.431
45443W        W10263   1.723  17.341   4.111
45444W        W10264   4.715  27.743  13.555
45445W        W10265   6.230   8.351   3.850
45446W        W10266   5.700   8.351   4.118
45447W        W10267  18.865   7.118   3.684
45448W        W10268  38.655  14.165   5.049
45449W        W10269  11.905  38.976  11.552
45450W        W10270  23.204  20.825   2.437
45451W        W10271  39.032   3.675  14.126
45452W        W10272  30.726  41.667  14.506
45453W        W10273  21.477   9.771   2.572
45454W        W10274  31.684  10.636  14.909
45455W        W10275  13.658   0.360  12.456
45456W        W10276  14.854  19.746   3.615
45457W        W10277  20.773  44.477   0.867
45458W        W10278  39.347  22.086   2.704
45459W        W10279  25.685   7.036  12.006
45460W        W10280   2.707  26.155  10.771
45461W        W10281  35.587  40.331  14.909
45462W        W10282  26.114   8.184  12.522
45463W        W10283  29.985  21.676   3.779
45464W        W10284  29.910  31.070   4.608
45465W        W10285   9.331  27.494   2.152
45466W        W10286   6.723  23.584   0.816
45467W        W10287  28.420   2.277  14.062
45468W        W10288   0.790  11.046   0.437
45469W        W10289  37.166   5.842  12.041
45470W        W10290   5.128  13.231   3.638
45471W        W10291  15.219  14.094   4.658
45472W        W10292  17.148  33.692   1.140
45473W        W10293  28.903  44.974  11.107
45474W        W10294  18.657   3.906   0.553
45475W        W10295  23.258  23.725  12.879
45476W        W10296  20.904  36.377   5.427
45477W        W10297   1.251  30.639   4.247
45478W        W10298   5.027  11.244   3.740
45479W        W10299  36.374   7.852  11.550
45480W        W10300  30.469   2.514   3.372
45481W        W10301  20.745  20.263  14.856
45482W        W10302  43.140  23.679   2.952
45483W        W10303   0.570   4.797  13.395
45484W        W10304  26.101  12.100  11.920
45485W        W10305   6.242  26.795  13.778
45486W        W10306  14.370  37.045  11.524
45487W        W10307  13.366  44.433  12.867
45488W        W10308  28.553  23.930   2.719
45489W        W10309  26.033  24.669  12.692
45490W        W10310  27.544  34.942   0.492
45491W        W10311   0.432   0.368   1.384
45492W        W10312  33.656  23.704   3.116
45493W        W10313  37.240  39.939  13.541
45494W        W10314  33.055  41.419  10.524
45495W        W10315  42.483  30.366   0.284
45496W        W10316   1.369  37.537   3.199
45497W        W10317  44.528   6.183  12.010
45498W        W10318   0.456   7.448   4.198
45499W        W10319  19.537   0.308   1.426
45500W        W10320   8.867   6.288   2.205
45501W        W10321  14.656  13.656   0.761
45502W        W10322  10.883  21.851  14.873
45503W        W10323  24.460  15.967   4.819
45504W        W10324  21.171   7.226   1.125
45505W        W10325  11.253  18.699   4.547
45506W        W10326  30.867  38.348   0.215
45507W        W10327  31.896  40.401   2.523
45508W        W10328   2.678  42.968  11.985
45509W        W10329  28.042  10.809   3.130
45510W        W10330  38.856  23.437  13.037
45511W        W10331  10.713  24.473  13.878
45512W        W10332  21.406  41.908  14.868
45513W        W10333   8.144   8.373  13.039
45514W        W10334  10.257   7.316   3.290
45515W        W10335  14.706   2.817  12.500
45516W        W10336  20.117   3.044  10.573
45517W        W10337  20.575  11.279   4.456
45518W        W10338  37.511  22.818  13.623
45519W        W10339   9.202  36.307  13.373
45520W        W10340  32.819  24.433  10.648
45521W        W10341  26.375   5.689  12.446
45522W        W10342   2.725  43.412  14.425
45523W        W10343  29.772   9.406   2.471
45524W        W10344  15.245  21.843  10.675
45525W        W10345   2.387  15.721   4.133
45526W        W10346  38.595  41.986   2.823
45527W        W10347  31.962  26.683   1.856
45528W        W10348  16.985  22.487   0.520
45529W        W10349   2.740   0.288   4.100
45530W        W10350  29.064  24.697   1.839
45531W        W10351  18.484  44.960  13.995
45532W        W10352  44.977  13.883  14.259
45533W        W10353  10.289  14.827   4.470
45534W        W10354   4.386  38.366  13.405
45535W        W10355  15.557  35.403  13.757
45536W        W10356   5.663   0.294   3.258
45537W        W10357  17.233  33.342   2.109
45538W        W10358  21.758  26.564  12.037
45539W        W10359  43.753  22.491  11.825
45540W        W10360  25.535   0.445   0.549
45541W        W10361   2.853  11.167  11.238
45542W        W10362  19.590  34.561   2.410
45543W        W10363  38.340  24.230  13.873
45544W        W10364  35.360  20.914   2.275
45545W        W10365   2.797  17.554  12.017
45546W        W10366  38.570   7.965  13.489
45547W        W10367  10.103  27.218  12.512
45548W        W10368  40.641  16.183   3.148
45549W        W10369   8.352  11.150  11.699
45550W        W10370  22.613  13.153   3.338
45551W        W10371  11.637  11.688   2.176
45552W        W10372   1.764  21.745   0.949
45553W        W10373   6.295   9.825  11.190
45554W        W10374  12.580  37.900   2.172
45555W        W10375  44.098  31.057   1.797
45556W        W10376  30.392  13.727  11.226
45557W        W10377  42.070  14.690  11.008
45558W        W10378  16.403  11.335  10.683
45559W        W10379  11.666  37.163   0.941
45560W        W10380  31.685  11.730   2.479
45561W        W10381  42.292  12.171  14.437
45562W        W10382  33.172  41.898   4.578
45563W        W10383  25.530  34.365  13.894
45564W        W10384  31.702  39.600   3.063
45565W        W10385  39.545  33.592  10.555
45566W        W10386  43.447   3.823   0.910
45567W        W10387  19.879  24.783  13.415
45568W        W10388  42.290   6.942   4.579
45569W        W10389  15.319  34.490  10.779
45570W        W10390  12.909  16.197   1.296
45571W        W10391  42.212  19.053   1.451
45572W        W10392  16.999  16.625  11.056
45573W        W10393  26.888  13.828  12.574
45574W        W10394  23.011  11.746   0.485
45575W        W10395   1.081  14.830  12.745
45576W        W10396  19.288  36.505  11.989
45577W        W10397  32.541   6.697  13.364
45578W        W10398  15.727  18.261  10.452
45579W        W10399  38.029  28.950  11.593
45580W        W10400  26.190  16.264   0.107
45581W        W10401  11.571  19.582   4.074
45582W        W10402   2.338   7.818  13.452
45583W        W10403  10.134  29.787  12.532
45584W        W10404  25.233  21.078  14.838
45585W        W10405  33.944  37.368  11.000
45586W        W10406  10.145   0.635   3.698
45587W        W10407  41.409  10.836   2.346
45588W        W10408  17.690   2.734  12.111
45589W        W10409  20.833   4.433  12.498
45590W        W10410  30.883   7.258  13.349
45591W        W10411   0.163   9.953   2.628
45592W        W10412  43.298  41.869  14.954
45593W        W10413  16.330  21.600  12.075
45594W        W10414   1.360  33.138  13.885
45595W        W10415  18.512  11.333  11.280
45596W        W10416   2.667  32.613   0.360
45597W        W10417  43.731  12.295   2.397
45598W        W10418   0.150  41.007  12.085
45599W        W10419   8.141  32.879  13.929
45600W        W10420   1.154  37.646  12.398
45601W        W10421  24.869  38.723  10.196
45602W        W10422  32.850  36.072   1.830
45603W        W10423  18.107  30.164  12.874
45604W        W10424   3.367  29.640   3.644
45605W        W10425  23.272  11.843   2.266
45606W        W10426  38.583  43.854   3.456
45607W        W10427  20.006  39.043   2.287
45608W        W10428  24.547  42.410  12.612
45609W        W10429  23.130  24.597   4.600
45610W        W10430  37.854  14.044  14.088
45611W        W10431  13.981  38.011   0.925
45612W        W10432  24.515  14.669  10.710
45613W        W10433  32.480  38.308  13.671
45614W        W10434   5.905  41.979   1.884
45615W        W10435  24.102  42.219  13.477
45616W        W10436  20.723  33.530  14.255
45617W        W10437  32.100   4.218   0.797
45618W        W10438  30.887  42.752   1.859
45619W        W10439  20.962  41.808   1.521
45620W        W10440  16.846  19.575  14.867
45621W        W10441  44.671  20.651  14.878
45622W        W10442   5.882  32.638   0.234
45623W        W10443   8.141  42.390  14.847
45624W        W10444  26.679  29.422  13.967
45625W        W10445  40.895  18.471  11.340
45626W        W10446  31.675  16.430  12.853
45627W        W10447   6.402  25.772   0.864
45628W        W10448  25.668  43.231  12.649
45629W        W10449  27.179  31.158   1.847
45630W        W10450  43.565  11.918  14.834
45631W        W10451   0.808  27.544   4.500
45632W        W10452   3.720   9.832  10.769
45633W        W10453  18.880  26.691   0.485
45634W        W10454  39.278  31.896   2.761
45635W        W10455  37.995  30.005   4.551
45636W        W10456  18.664  10.429   2.805
45637W        W10457   5.976   9.213  13.908
45638W        W10458   1.425  10.729  10.767
45639W        W10459  26.807  42.324  14.381
45640W        W10460  18.467  12.746  10.982
45641W        W10461   8.247  41.687   3.310
45642W        W10462  36.011   8.842  14.826
45643W        W10463   7.015  17.260  11.955
45644W        W10464   0.715  42.322   1.353
45645W        W10465  15.287   8.646   4.775
45646W        W10466  24.561  15.693   0.788
45647W        W10467  41.735  36.657   2.125
45648W        W10468  26.740  17.735   0.928
45649W        W10469   5.593  44.050   0.986
45650W        W10470  27.045  35.020  12.067
45651W        W10471  40.920  32.939  13.438
45652W        W10472   7.659  27.657   4.257
45653W        W10473  34.447   0.589   1.156
45654W        W10474  37.067  40.335  12.467
45655W        W10475  24.632  37.987  11.048
45656W        W10476   4.503   6.286   3.009
45657W        W10477  35.595   9.395  14.381
45658W        W10478  43.576  36.753   2.239
45659W        W10479  14.819  32.383  14.755
45660W        W10480  24.886  27.012   3.286
45661W        W10481  10.945  41.331   2.459
45662W        W10482  22.645  23.023   0.635
45663W        W10483   4.423   3.296  13.285
45664W        W10484   6.214  29.137   3.071
45665W        W10485  12.062  18.341   4.582
45666W        W10486  24.995  26.182   0.850
45667W        W10487  11.334  39.354  14.798
45668W        W10488  25.290  15.268  11.241
45669W        W10489  15.584   9.933   4.680
45670W        W10490  31.395   0.013   4.141
45671W        W10491  16.471  14.437   5.130
45672W        W10492  37.119   5.182  11.149
45673W        W10493  11.367  19.161  14.508
45674W        W10494   3.281   8.112  12.562
45675W        W10495  24.971  28.478  13.405
45676W        W10496   5.315  36.853  12.362
45677W        W10497   4.957   1.487   0.838
45678W        W10498   7.230   2.744  10.766
45679W        W10499   2.347  22.067  14.332
45680W        W10500  43.422  32.418  11.826
45681W        W10501   8.390  10.208   4.128
45682W        W10502  40.051  36.651  13.303
45683W        W10503   3.667  23.289  13.887
45684W        W10504  19.027  30.401   3.189
45685W        W10505   3.320   8.415  14.832
45686W        W10506  37.824  28.421  12.322
45687W        W10507   4.773  32.505  11.587
45688W        W10508  40.206  43.662  10.699
45689W        W10509  21.018  28.633   0.800
45690W        W10510  40.964  42.494   2.741
45691W        W10511  30.881   0.246   3.246
45692W        W10512  41.791  42.422   3.817
45693W        W10513  15.245  23.754  12.426
45694W        W10514  25.427  30.223   2.956
45695W        W10515   3.649  13.093  12.528
45696W        W10516  40.801  27.651  11.079
45697W        W10517   1.050   8.747   1.331
45698W        W10518  21.259  10.667  14.128
45699W        W10519  10.441  29.401   0.587
45700W        W10520  25.089   0.888  13.587
45701W        W10521   0.721  12.127   3.219
45702W        W10522   9.559  37.995   3.652
45703W        W10523  14.960  21.379   3.627
45704W        W10524  20.436   3.259  11.622
45705W        W10525  15.798  10.728   1.318
45706W        W10526  15.620  29.737  13.462
45707W        W10527  42.741  42.456   3.233
45708W        W10528   3.955  34.405   0.948
45709W        W10529   7.815  31.335   0.095
45710W        W10530  44.061   6.439  12.049
45711W        W10531  33.961  30.804   2.641
45712W        W10532  16.127  39.525  14.526
45713W        W10533  33.600  21.267   4.602
45714W        W10534  25.532   6.414   2.832
45715W        W10535   5.783  36.180  11.721
45716W        W10536  44.419   7.829  13.468
45717W        W10537  29.342  18.524  11.688
45718W        W10538  22.230  37.509   0.375
45719W        W10539   0.586  25.532   0.040
45720W        W10540  43.746  18.595  14.383
45721W        W10541  13.654  28.333  11.523
45722W        W10542   2.765  23.777  14.968
45723W        W10543  26.482  23.488   4.390
45724W        W10544   1.942  39.507   3.262
45725W        W10545  37.515  23.689  12.985
45726W        W10546   4.046  39.853  11.515
45727W        W10547  14.340   4.486   1.578
45728W        W10548  19.933  40.963   1.281
45729W        W10549  35.816  42.722   2.246
45730W        W10550  37.946  27.537   1.226
45731W        W10551  28.039  14.050   1.683
45732W        W10552  12.660  18.002  14.507
45733W        W10553  32.671  39.380   0.911
45734W        W10554  16.613  24.231   3.263
45735W        W10555  21.459  38.696  11.111
45736W        W10556  19.708  44.704   0.235
45737W        W10557  33.448  41.600  12.813
45738W        W10558  30.466  41.394  13.186
45739W        W10559   5.146  31.430  13.290
45740W        W10560  36.450  28.088  11.918
45741W        W10561  24.648  15.060   4.184
45742W        W10562  43.165  44.885  12.440
45743W        W10563  25.194  13.128  13.510
45744W        W10564   1.702  29.704  10.626
45745W        W10565  40.769  35.603   3.386
45746W        W10566   5.824  41.454  13.421
45747W        W10567   2.799  18.463  12.913
45748W        W10568  38.662  44.115  11.356
45749W        W10569  32.952  44.068  14.928
45750W        W10570   1.571  34.725  11.407
45751W        W10571  31.356  37.085   0.456
45752W        W10572  26.737  15.349   1.761
45753W        W10573  13.165   6.419  13.259
45754W        W10574  29.908   2.946  12.135
45755W        W10575  30.919  24.602   0.874
45756W        W10576  21.509  12.243   4.575
45757W        W10577  15.086   0.753   4.807
45758W        W10578  22.690  13.030  14.005
45759W        W10579  33.102  13.026  13.951
45760W        W10580  31.601  12.848  11.636
45761W        W10581  13.739  19.590  14.229
45762W        W10582  38.755   6.978  12.046
45763W        W10583   2.070   9.289  13.474
45764W        W10584   9.720  25.893  14.820
45765W        W10585  16.822  31.179   3.148
45766W        W10586   9.775   2.966  11.421
45767W        W10587   0.242  30.558   2.431
45768W        W10588  31.810   9.950  14.421
45769W        W10589  19.836  21.319   2.210
45770W        W10590   9.247  41.746  11.085
45771W        W10591   0.020  22.728  14.392
45772W        W10592  23.173   0.453  11.071
45773W        W10593  10.522  36.673   1.260
45774W        W10594  17.237   1.822   0.799
45775W        W10595  33.062   9.164  10.768
45776W        W10596  39.338   4.137  12.060
45777W        W10597  26.527  28.198  14.447
45778W        W10598  28.678  22.228  11.967
45779W        W10599   2.712  40.869   2.114
45780W        W10600   6.523  11.304   0.845
45781W        W10601  25.191  13.684  11.363
45782W        W10602  30.508  20.731  13.482
45783W        W10603  26.256  31.119   2.682
45784W        W10604  23.488  40.446  14.010
45785W        W10605  26.524  17.664   1.386
45786W        W10606  39.388   2.385   4.513
45787W        W10607  29.761   4.922  12.638
45788W        W10608   1.037  36.834   0.346
45789W        W10609  12.526   4.696   1.768
45790W        W10610  10.111  37.839  14.551
45791W        W10611   4.383  40.090  12.003
45792W        W10612  16.194  15.290  12.011
45793W        W10613  14.218  10.142  13.282
45794W        W10614  36.706   6.788   4.994
45795W        W10615  13.350   0.954  13.435
45796W        W10616   5.767  28.068   0.972
45797W        W10617  14.341  18.600  12.258
45798W        W10618   6.357  23.119  12.538
45799W        W10619   0.576  24.122  11.565
45800W        W10620   3.880  36.154  11.597
45801W        W10621  11.693   2.165  10.669
45802W        W10622   9.656   3.959   4.270
45803W        W10623  26.038  29.558   0.515
45804W        W10624  18.466  19.168  14.311
45805W        W10625  35.990  38.923  14.058
45806W        W10626  33.806  41.777  12.516
45807W        W10627   3.405  12.220   0.350
45808W        W10628  34.931  20.835  14.234
45809W        W10629  25.552  35.576   3.096
45810W        W10630  29.027  17.589  11.649
45811W        W10631  20.225  23.592  10.345
45812W        W10632  34.537   3.708  13.027
45813W        W10633  42.629  22.526  12.521
45814W        W10634  19.797   9.186  14.118
45815W        W10635  18.620   4.052   4.518
45816W        W10636   6.684  39.129   4.150
45817W        W10637  40.270  30.157  14.933
45818W        W10638  35.957  23.648   2.547
45819W        W10639  34.521  31.996   4.549
45820W        W10640  38.974   6.655  11.682
45821W        W10641  34.154  15.783  12.144
45822W        W10642   4.380  20.062   1.888
45823W        W10643  13.899   4.827   2.239
45824W        W10644   2.902  42.604   3.891
45825W        W10645  31.351  17.249   4.512
45826W        W10646  19.691   4.682   0.218
45827W        W10647   8.857  42.041  14.845
45828W        W10648  34.976   9.016   3.689
45829W        W10649  25.480  24.558  13.798
45830W        W10650  23.593   5.285   4.117
45831W        W10651  25.518  25.113  13.423
45832W        W10652  28.505  21.233   2.713
45833W        W10653   3.578  10.812   2.289
45834W        W10654   5.906   5.227   2.457
45835W        W10655  20.340   2.536  12.497
45836W        W10656  31.323  28.885   4.186
45837W        W10657  31.854   5.818   2.663
45838W        W10658  19.225  21.804   0.428
45839W        W10659  38.829  11.377   3.136
45840W        W10660   2.321  36.027  10.294
45841W        W10661  14.770  18.429  13.346
45842W        W10662  30.020  29.047   2.894
45843W        W10663   3.449  22.575  14.576
45844W        W10664  27.185  26.386  12.487
45845W        W10665  22.341  31.384   1.425
45846W        W10666   6.471  11.868  11.128
45847W        W10667  21.181  31.706  10.646
45848W        W10668  39.045  41.865  11.090
45849W        W10669  19.178   4.768   3.438
45850W        W10670  43.747  44.858  14.261
45851W        W10671  38.469  24.149   3.829
45852W        W10672  44.217  16.073   1.301
45853W        W10673  17.197  14.096  12.177
45854W        W10674   3.761  31.038  10.665
45855W        W10675   3.832  11.386   0.679
45856W        W10676   1.988   6.323   4.955
45857W        W10677   0.959  11.449   1.847
45858W        W10678  25.889  34.588  13.573
45859W        W10679  19.133   4.853  14.014
45860W        W10680  26.467  23.360   2.799
45861W        W10681  18.578  24.657   3.664
45862W        W10682  42.365  20.265  13.963
45863W        W10683   2.804  22.489   1.538
45864W        W10684  30.464  29.597  14.729
45865W        W10685  22.169  32.884   4.226
45866W        W10686  21.765  17.106   0.226
45867W        W10687  11.662   3.262   1.607
45868W        W10688  29.684   4.942   3.358
45869W        W10689  33.978  41.570  10.599
45870W        W10690  43.370   7.439  14.982
45871W        W10691  15.994  14.140  13.463
45872W        W10692   8.245  22.114  13.334
45873W        W10693  29.380  23.732   2.732
45874W        W10694  31.311  21.159  11.877
45875W        W10695  43.388  34.502  11.106
45876W        W10696  26.123  16.838   1.344
45877W        W10697  33.508  22.687  13.541
45878W        W10698   8.840   9.469  14.507
45879W        W10699  13.330  12.362   4.098
45880W        W10700  10.494  13.967  12.618
45881W        W10701  32.151  30.130   4.616
45882W        W10702  17.544  42.486  14.033
45883W        W10703  30.078   9.129   0.989
45884W        W10704  34.062   4.269  12.349
45885W        W10705   9.897  23.205  14.052
45886W        W10706   3.507  19.735   3.654
45887W        W10707   1.541   9.741  14.905
45888W        W10708   5.782  10.829   0.837
45889W        W10709  26.212  21.404  13.077
45890W        W10710   2.730  13.850  11.253
45891W        W10711  29.875  19.487   2.321
45892W        W10712  35.909  22.140  14.997
45893W        W10713   1.891   1.182   3.782
45894W        W10714  41.380  21.980   1.890
45895W        W10715   2.511  34.652   1.326
45896W        W10716  19.944  37.411  11.854
45897W        W10717  44.939  23.651   0.338
45898W        W10718  35.410  19.602   2.543
45899W        W10719  19.068  20.720  12.860
45900W        W10720  18.071  43.933   4.181
45901W        W10721   6.600  18.774  13.849
45902W        W10722  22.554  40.042   1.825
45903W        W10723  38.093  12.232   1.332
45904W        W10724  18.690  40.010  12.129
45905W        W10725  38.542  36.518  13.622
45906W        W10726  27.168  41.293  10.440
45907W        W10727  16.932  18.652  13.584
45908W        W10728  36.165  15.787  10.884
45909W        W10729  23.726  28.049   1.547
45910W        W10730  39.806  13.874   3.753
45911W        W10731  38.403  16.845   2.465
45912W        W10732  10.405  35.846  11.212
45913W        W10733  29.425   7.267  11.533
45914W        W10734   8.674  25.931  13.378
45915W        W10735  32.224  42.283  12.878
45916W        W10736  23.733  30.590  12.463
45917W        W10737  40.615   3.943  12.394
45918W        W10738   6.250  11.269   0.386
45919W        W10739  30.091  24.631  11.685
45920W        W10740  22.229  17.085  10.331
45921W        W10741   7.137   8.305   4.137
45922W        W10742  36.413  41.089  12.517
45923W        W10743   1.143  17.597   1.186
45924W        W10744  21.481   1.459  11.549
45925W        W10745  21.451  19.189  14.460
45926W        W10746  42.045  37.297  13.387
45927W        W10747  24.688  12.173   2.373
45928W        W10748   7.711  18.513   3.649
45929W        W10749  40.873   4.965   3.894
45930W        W10750   9.522  18.712   1.402
45931W        W10751   5.717   0.844  13.456
45932W        W10752  31.897   5.687  13.956
45933W        W10753  28.693  29.176   2.153
45934W        W10754   3.963  19.964   4.646
45935W        W10755  32.260   8.315  14.338
45936W        W10756  16.807  35.084   4.276
45937W        W10757  10.486   0.346   5.033
45938W        W10758  26.980   9.794  10.992
45939W        W10759   1.817   0.493   1.080
45940W        W10760   3.027  25.745  11.064
45941W        W10761  39.583  40.539  12.885
45942W        W10762  38.728  37.962  11.490
45943W        W10763  18.401  32.917   0.904
45944W        W10764  26.246   4.767  14.898
45945W        W10765  41.986  27.960  11.000
45946W        W10766  26.904  27.490   2.758
45947W        W10767   1.725  17.537   2.669
45948W        W10768  12.008  30.689   9.321
45949W        W10769  40.965   1.914  14.508
45950W        W10770   4.712  40.838  10.647
45951W        W10771  30.451  33.514   4.769
45952W        W10772  33.031  25.117   4.202
45953W        W10773  44.228   3.412   1.304
45954W        W10774  37.854  38.331   1.703
45955W        W10775  32.369  28.736   1.310
45956W        W10776  19.805  12.243  13.824
45957W        W10777  28.634  10.768   3.780
45958W        W10778  29.322  14.393   0.411
45959W        W10779  19.696   4.660  12.779
45960W        W10780  31.971  23.161   5.506
45961W        W10781  24.092  16.998   0.281
45962W        W10782  15.625  32.883  10.703
45963W        W10783  25.275  32.102   1.212
45964W        W10784  32.465  16.714   1.792
45965W        W10785  21.819  13.706   3.183
45966W        W10786  16.592  25.075  12.064
45967W        W10787   5.178  20.743   3.632
45968W        W10788  28.657   9.647   0.215
45969W        W10789  27.748  41.804  13.792
45970W        W10790   1.935  20.359   2.274
45971W        W10791  19.322  30.535  14.730
45972W        W10792  29.081  31.971   3.217
45973W        W10793  34.099  36.724   4.791
45974W        W10794  27.476  10.004  11.032
45975W        W10795  22.566  42.556  14.705
45976W        W10796  14.767  25.119   1.639
45977W        W10797  25.796  26.068  11.101
45978W        W10798  41.686  30.946  12.241
45979W        W10799  32.864  22.100   1.350
45980W        W10800  35.587  41.926  13.322
45981W        W10801  27.395   5.411   1.837
45982W        W10802  18.326  42.940   5.044
45983W        W10803   3.224  26.524   1.280
45984W        W10804  25.759  10.750  10.900
45985W        W10805   5.760  41.797   1.400
45986W        W10806  25.058   9.637   3.734
45987W        W10807  39.259  18.781   4.536
45988W        W10808  38.231  31.154   0.392
45989W        W10809  41.067  43.437  14.250
45990W        W10810  15.119  28.387  14.543
45991W        W10811   2.490  21.142   4.450
45992W        W10812  17.025  25.168   3.287
45993W        W10813  21.604  19.331  11.035
45994W        W10814   9.270  37.744  13.004
45995W        W10815  14.559  38.606  12.460
45996W        W10816  10.184  37.935  13.538
45997W        W10817   9.859  24.252  12.631
45998W        W10818  31.924  26.910  12.004
45999W        W10819  33.455  33.187   4.631
46000W        W10820   8.993  24.595  14.931
46001W        W10821   3.351   6.824   2.932
46002W        W10822  33.662  21.282  11.556
46003W        W10823  36.615   9.185   1.861
46004W        W10824  20.611   8.278  13.394
46005W        W10825   1.648  17.051  12.850
46006W        W10826  11.549   7.198   1.522
46007W        W10827  44.515   9.447  11.131
46008W        W10828  38.763  23.036  13.858
46009W        W10829  19.999  25.645  12.335
46010W        W10830   3.896  25.095   2.658
46011W        W10831   5.722  42.185   3.206
46012W        W10832  26.095  41.947   1.258
46013W        W10833   4.772  36.180   3.610
46014W        W10834  18.787   4.272  13.449
46015W        W10835  23.186  39.582   3.325
46016W        W10836  32.974  26.618  10.684
46017W        W10837  24.173  19.580  13.403
46018W        W10838  17.302  12.586  14.837
46019W        W10839   6.752  42.249   2.282
46020W        W10840  24.171  44.722  11.146
46021W        W10841  25.965  24.096  10.607
46022W        W10842  18.212   7.091  10.311
46023W        W10843  38.300   2.907  14.395
46024W        W10844  41.078   7.833  14.799
46025W        W10845  42.694   6.523   2.873
46026W        W10846  23.736  12.519  14.850
46027W        W10847  13.319   7.311   2.599
46028W        W10848   6.194  24.523  10.658
46029W        W10849  18.974  33.906  11.179
46030W        W10850  35.174  20.153  13.487
46031W        W10851  24.605  14.578  12.184
46032W        W10852  15.671   9.908   3.749
46033W        W10853  14.669  40.860  11.095
46034W        W10854  26.984  36.784  13.317
46035W        W10855  42.386  17.834   2.574
46036W        W10856  31.915   3.899  11.566
46037W        W10857  25.470  31.409   2.343
46038W        W10858  28.011  22.884  11.989
46039W        W10859   3.454  25.323   1.963
46040W        W10860  33.916  23.810  12.784
46041W        W10861  26.522  23.718   1.527
46042W        W10862   3.380  39.862   4.209
46043W        W10863  11.647  14.357  14.870
46044W        W10864  26.042  25.564  11.852
46045W        W10865  21.487  35.116  11.738
46046W        W10866  31.315  27.680   4.756
46047W        W10867  42.126  10.256  10.201
46048W        W10868  14.830  44.979   0.096
46049W        W10869  35.823  20.086   0.892
46050W        W10870  26.901  32.142   1.835
46051W        W10871  22.570  20.235  13.576
46052W        W10872  31.040  40.867  14.316
46053W        W10873  34.117  12.745  10.767
46054W        W10874   1.247  16.533   1.857
46055W        W10875  23.159  10.028   2.758
46056W        W10876  15.998   3.465   1.155
46057W        W10877  36.515   0.774  14.475
46058W        W10878  12.258  40.452   0.383
46059W        W10879  31.973  18.121   2.841
46060W        W10880   3.059  25.125  10.422
46061W        W10881  29.916  37.616  11.954
46062W        W10882  25.944  30.081  14.881
46063W        W10883   1.279  30.639   4.793
46064W        W10884   1.736  14.032   3.039
46065W        W10885  39.749  25.044   1.397
46066W        W10886  34.334  30.449   2.678
46067W        W10887  37.822  15.890   3.957
46068W        W10888   5.293  37.677   1.394
46069W        W10889   1.955  27.272  10.796
46070W        W10890  19.785  27.551   0.993
46071W        W10891  39.127   0.784   0.725
46072W        W10892  15.513   6.368   2.371
46073W        W10893  44.530   2.705   1.461
46074W        W10894  39.015   4.143  10.863
46075W        W10895  12.692   1.486  14.299
46076W        W10896   4.767  11.161  12.550
46077W        W10897  44.961  25.608  12.408
46078W        W10898  40.880  11.688  11.555
46079W        W10899  17.365  13.054  13.558
46080W        W10900  12.475  34.072  13.988
46081W        W10901  29.411  15.312   2.014
46082W        W10902  15.720  40.908   2.137
46083W        W10903  25.996   3.787  14.840
46084W        W10904  18.763  29.000  12.884
46085W        W10905   2.174  37.445   0.011
46086W        W10906  25.565  30.174  13.468
46087W        W10907  11.071  27.866  13.919
46088W        W10908  29.099  43.852  13.368
46089W        W10909   5.267  32.553   3.170
46090W        W10910   3.749   9.867  13.549
46091W        W10911  19.164  16.795   0.715
46092W        W10912   9.388  15.123   4.197
46093W        W10913  41.766   7.251  12.541
46094W        W10914  44.087  29.577   4.598
46095W        W10915  16.028  30.447  14.210
46096W        W10916   6.696  35.443   4.606
46097W        W10917   1.937  10.655  13.057
46098W        W10918  37.056  44.373  11.275
46099W        W10919  13.071  17.758  14.312
46100W        W10920  37.781  10.079  14.931
46101W        W10921  20.829   3.353  12.404
46102W        W10922  20.636  41.601  10.690
46103W        W10923   5.441  38.009   0.402
46104W        W10924  11.186  30.390   3.820
46105W        W10925  42.795  43.944  14.298
46106W        W10926  26.059   5.413   0.670
46107W        W10927   3.295  29.494  12.965
46108W        W10928   8.219  18.716  14.950
46109W        W10929  16.755   8.799  11.258
46110W        W10930  23.745  14.992  13.876
46111W        W10931   0.864   4.151  14.891
46112W        W10932  27.401  13.802  11.646
46113W        W10933  12.777  44.316  12.195
46114W        W10934   7.316   9.738   2.948
46115W        W10935  35.462  32.559   1.453
46116W        W10936  43.801   4.156  13.780
46117W        W10937  10.306  28.114   4.016
46118W        W10938   4.976  44.751   4.465
46119W        W10939  11.357  27.021  12.018
46120W        W10940  13.499  14.649  13.308
46121W        W10941  40.422   4.976  13.308
46122W        W10942  39.008  36.110   1.409
46123W        W10943  15.848  43.967   1.723
46124W        W10944   9.793   8.189  14.453
46125W        W10945  26.976  23.279  13.104
46126W        W10946  39.770   4.931  11.833
46127W        W10947  23.393  35.361  11.131
46128W        W10948  13.348  17.439   3.721
46129W        W10949  16.590  23.655   0.718
46130W        W10950   4.654   4.231  12.107
46131W        W10951  11.353  34.492  13.114
46132W        W10952  17.260  21.440  13.611
46133W        W10953  29.935  21.765   2.717
46134W        W10954  24.235  11.541  13.540
46135W        W10955  30.020  32.267  12.113
46136W        W10956  32.607  13.349  12.032
46137W        W10957  40.803   8.136  12.527
46138W        W10958  25.777  24.396   0.316
46139W        W10959  25.027   8.250   4.136
46140W        W10960  17.754  23.171  11.813
46141W        W10961  32.871  44.469   4.098
46142W        W10962  43.738  41.424   1.361
46143W        W10963  21.954  18.637   0.854
46144W        W10964  26.154  32.891   4.969
46145W        W10965   7.097   3.378  14.683
46146W        W10966  36.204  17.831   1.885
46147W        W10967  30.025   4.819   4.391
46148W        W10968   1.658   7.337   0.356
46149W        W10969  24.528  35.729  10.883
46150W        W10970  10.226  12.101   4.888
46151W        W10971   8.592  24.114  13.205
46152W        W10972  37.764  20.971   0.066
46153W        W10973  20.728  24.477   2.859
46154W        W10974  32.998  11.788   3.738
46155W        W10975  33.227  24.722   3.902
46156W        W10976  41.909   5.135  10.858
46157W        W10977   8.330  38.719  12.875
46158W        W10978  42.088  21.083  13.411
46159W        W10979  37.442  22.710   1.932
46160W        W10980  11.342  16.412   3.565
46161W        W10981  17.811   3.780  13.374
46162W        W10982  43.311  34.786   2.779
46163W        W10983  37.865  14.184   2.469
46164W        W10984   0.046  10.340  10.620
46165W        W10985  30.645  16.280  14.716
46166W        W10986  11.272  35.580   1.259
46167W        W10987  27.557   6.557  10.995
46168W        W10988  33.645  33.300  14.841
46169W        W10989  11.335  34.214   0.299
46170W        W10990   5.465   8.069   0.290
46171W        W10991   7.152   9.291   2.698
46172W        W10992  29.620  28.904  11.986
46173W        W10993   0.738  26.171  12.134
46174W        W10994  22.161  35.884   3.784
46175W        W10995  33.061  18.012  12.723
46176W        W10996  29.559  21.079  12.889
46177W        W10997   2.375  13.012   0.412
46178W        W10998   0.725  26.525   0.305
46179W        W10999  41.799  26.032   2.025
46180W        W11000  27.613  44.550  14.793
46181W        W11001   8.383  18.635  11.883
46182W        W11002  24.391  16.042  11.147
46183W        W11003  27.509   6.281  12.482
46184W        W11004  15.003  38.418   1.768
46185W        W11005  15.211  39.395   4.729
46186W        W11006   3.258  43.438   4.195
46187W        W11007   3.346   9.081   3.238
46188W        W11008  42.262   7.875   0.434
46189W        W11009  32.023  25.480  14.322
46190W        W11010  21.438   9.558   3.168
46191W        W11011  20.357  11.802   2.579
46192W        W11012  10.397  37.202  10.402
46193W        W11013   2.918  15.166   0.721
46194W        W11014   8.835  40.887  11.149
46195W        W11015  40.433  25.466  13.953
46196W        W11016  44.085  18.750  13.522
46197W        W11017  22.635  21.252   1.458
46198W        W11018  44.817  34.122  11.096
46199W        W11019  21.065   1.460   0.029
46200W        W11020  21.971   5.838  12.901
46201W        W11021  40.547  32.935  13.062
46202W        W11022  42.598  29.638   0.762
46203W        W11023  19.987  41.019  12.108
46204W        W11024   7.677  15.815  14.580
46205W        W11025  26.432  25.712   2.851
46206W        W11026  21.535  17.355  13.018
46207W        W11027  12.757  14.147  14.858
46208W        W11028  34.977  22.223  12.052
46209W        W11029  36.158  39.993  14.485
46210W        W11030  44.481  21.107   0.033
46211W        W11031  35.994   1.874   3.673
46212W        W11032  33.913  35.963   1.819
46213W        W11033  44.477  25.539   4.570
46214W        W11034  16.485  22.054   4.519
46215W        W11035  33.527   0.973  12.993
46216W        W11036  34.428   6.346  14.993
46217W        W11037  26.176  29.222   4.581
46218W        W11038  21.541  15.534  13.361
46219W        W11039   6.234   2.346   0.977
46220W        W11040  40.226  36.353  10.540
46221W        W11041  13.404  27.153   1.347
46222W        W11042  37.302  25.728  11.221
46223W        W11043  21.053  15.631  13.855
46224W        W11044  29.912   2.531   0.776
46225W        W11045  10.197  44.466   0.524
46226W        W11046  22.158  12.301   1.682
46227W        W11047  26.048  27.616   3.041
46228W        W11048  39.921   0.757  12.090
46229W        W11049  15.217  41.964   4.645
46230W        W11050  25.737  44.485   3.291
46231W        W11051  19.164   8.665  11.793
46232W        W11052  16.188  41.595   2.374
46233W        W11053   4.765  29.457   4.569
46234W        W11054  26.404  14.682   2.149
46235W        W11055   3.518  10.358   4.485
46236W        W11056  34.149   4.719  10.678
46237W        W11057  25.639  31.077   1.876
46238W        W11058  37.415  34.114  13.156
46239W        W11059  27.180   8.867   0.191
46240W        W11060  32.918  38.562  12.483
46241W        W11061  38.914   6.342   0.603
46242W        W11062  24.694  10.048  10.709
46243W        W11063   2.133  18.574   2.239
46244W        W11064  13.280  35.883  11.637
46245W        W11065  25.353  30.649   0.781
46246W        W11066  18.631  23.084  10.878
46247W        W11067  29.429  33.342   4.929
46248W        W11068   0.795  19.415  11.123
46249W        W11069  24.252   4.169  12.979
46250W        W11070  14.705  25.940   3.907
46251W        W11071  15.849  32.479  11.495
46252W        W11072  18.871  14.731   1.219
46253W        W11073  44.757  22.063   1.677
46254W        W11074  29.766  19.723  13.861
46255W        W11075   5.019   7.912   3.725
46256W        W11076  16.362   2.896  14.856
46257W        W11077   0.723  17.897  12.847
46258W        W11078  10.820  26.581  13.621
46259W        W11079   0.213  31.956  13.250
46260W        W11080   4.245  19.177  11.668
46261W        W11081  15.966  32.603   1.801
46262W        W11082   6.774  32.881  11.947
46263W        W11083  13.837  37.309  12.470
46264W        W11084  20.655  28.951  11.044
46265W        W11085  42.791  29.777  13.366
46266W        W11086  19.959  28.581  11.469
46267W        W11087  31.705  23.060  12.530
46268W        W11088  35.929  10.997  14.371
46269W        W11089  22.831   6.886   1.782
46270W        W11090  34.172  13.303  13.637
46271W        W11091  29.228  32.924  11.445
46272W        W11092  16.419  19.192  12.403
46273W        W11093  26.712   4.645   2.398
46274W        W11094   1.551   6.727  12.350
46275W        W11095  36.596  17.827  11.320
46276W        W11096   0.809   0.499   4.170
46277W        W11097  37.436  38.383  13.607
46278W        W11098  14.567  30.872   0.457
46279W        W11099  39.087  23.069   2.597
46280W        W11100  38.884  27.143  13.799
46281W        W11101  12.549  28.451   3.677
46282W        W11102  30.408  19.290  13.855
46283W        W11103  18.733   7.166  11.032
46284W        W11104  21.677  13.656   2.256
46285W        W11105  32.087   8.685  11.543
46286W        W11106  24.776  31.996   1.298
46287W        W11107  31.927  26.182   2.662
46288W        W11108  38.108  11.394   0.362
46289W        W11109  22.611  29.099   4.658
46290W        W11110  39.049  38.577  14.374
46291W        W11111  19.618   6.230   1.350
46292W        W11112  16.534   2.717   1.664
46293W        W11113  11.099  44.292   1.014
46294W        W11114  34.633  22.723  14.029
46295W        W11115  21.570  31.507   1.256
46296W        W11116  31.464  12.148  11.223
46297W        W11117  28.733  36.649   4.244
46298W        W11118  24.100  36.480   4.113
46299W        W11119  26.953   1.565   5.338
46300W        W11120  42.211  20.588   4.091
46301W        W11121  34.469  34.047   1.391
46302W        W11122  17.651  21.647   2.843
46303W        W11123  19.746  25.400   4.753
46304W        W11124  19.262  35.972  10.215
46305W        W11125  16.153  30.519   4.206
46306W        W11126  39.940  34.749  13.514
46307W        W11127  40.612  23.366  14.248
46308W        W11128  18.466  44.033   2.694
46309W        W11129  32.108  16.913   4.197
46310W        W11130  32.307  20.094   3.623
46311W        W11131   1.289  23.979   1.999
46312W        W11132  28.711  25.058   3.645
46313W        W11133  27.186  26.043   3.612
46314W        W11134  40.644  30.951  14.281
46315W        W11135  34.031  12.450   4.200
46316W        W11136  36.548  41.567   4.558
46317W        W11137   0.807  31.924  11.536
46318W        W11138  44.711  15.762   1.790
46319W        W11139  11.049  29.315  11.730
46320W        W11140   6.786  12.303  13.423
46321W        W11141  24.123  21.775  11.561
46322W        W11142  42.624  12.228  12.827
46323W        W11143   8.440   2.763  13.470
46324W        W11144  12.825  28.776   4.419
46325W        W11145  15.878  26.999   0.393
46326W        W11146   2.815  14.256  11.621
46327W        W11147  18.088  42.734  13.804
46328W        W11148  37.810  16.821  10.668
46329W        W11149  42.634  18.966   3.227
46330W        W11150  19.844  21.527  11.158
46331W        W11151   2.433   9.868   1.344
46332W        W11152  31.519  18.650   2.160
46333W        W11153   1.465  27.373  10.987
46334W        W11154  38.006  25.283   1.357
46335W        W11155  40.284  14.909  14.845
46336W        W11156   4.220  22.502  14.111
46337W        W11157   4.969  31.621  12.847
46338W        W11158  38.264  30.190  14.843
46339W        W11159   7.231  40.911  13.996
46340W        W11160   4.715  13.280   1.914
46341W        W11161  39.444   8.954  12.976
46342W        W11162  44.871   2.862  11.570
46343W        W11163  30.974  42.150  12.507
46344W        W11164   8.326  14.177  13.908
46345W        W11165  17.386  43.187   3.718
46346W        W11166  17.882  14.709  11.510
46347W        W11167  12.889  38.958   3.745
46348W        W11168   4.403   9.128   3.237
46349W        W11169   0.192   9.851  10.729
46350W        W11170  34.766  18.008   2.856
46351W        W11171  29.555  21.938   4.539
46352W        W11172  44.336  30.197  13.358
46353W        W11173  16.662   1.973  13.496
46354W        W11174  25.937  23.180   1.581
46355W        W11175  14.662  13.238  13.825
46356W        W11176  39.862  29.229   1.486
46357W        W11177  15.133   1.293   2.794
46358W        W11178  30.224  34.948  10.466
46359W        W11179  35.320  28.499   3.166
46360W        W11180  20.009  26.785   1.045
46361W        W11181  34.305  41.914  11.469
46362W        W11182  41.441  32.273   4.887
46363W        W11183  15.741  25.240  11.826
46364W        W11184  35.927  43.242   2.367
46365W        W11185  17.537  38.899  10.270
46366W        W11186   6.809  44.728  12.522
46367W        W11187  29.128  12.959   2.253
46368W        W11188  27.508  20.273   2.529
46369W        W11189  38.521  15.214   4.952
46370W        W11190  30.068  28.711   0.949
46371W        W11191  28.370  20.510   4.656
46372W        W11192  21.988  41.744   0.308
46373W        W11193  20.230  43.205   4.057
46374W        W11194  11.418   7.830  14.893
46375W        W11195  32.166  28.201   2.679
46376W        W11196  15.302   3.217   4.520
46377W        W11197  38.611  40.928  10.773
46378W        W11198  28.933   6.826   4.643
46379W        W11199  23.438  21.095  11.201
46380W        W11200  42.497  35.914  11.256
46381W        W11201   4.242  24.567  14.235
46382W        W11202  18.079  41.976  11.779
46383W        W11203   1.633   5.252  10.811
46384W        W11204  40.988  23.322  13.850
46385W        W11205  16.784  39.867   3.759
46386W        W11206  13.749  19.281   0.058
46387W        W11207  20.839  24.560   1.884
46388W        W11208   0.319  12.137   2.896
46389W        W11209  36.477  26.812   4.584
46390W        W11210  19.181   2.361   1.465
46391W        W11211   9.617  19.218  14.742
46392W        W11212   3.092   8.997   1.389
46393W        W11213  11.578  41.526   3.149
46394W        W11214  24.977  36.422   4.094
46395W        W11215  27.202   1.266   3.422
46396W        W11216  36.517  28.069  11.397
46397W        W11217  19.143  10.408   3.505
46398W        W11218  39.047  26.071  13.053
46399W        W11219   5.427  20.682  10.676
46400W        W11220  12.749   9.939   1.893
46401W        W11221  44.855  33.362  14.956
46402W        W11222   1.756  32.012   0.319
46403W        W11223  25.467  21.840  14.876
46404W        W11224  23.465  16.743   3.643
46405W        W11225  29.007  18.266   3.426
46406W        W11226  11.304  36.399   4.188
46407W        W11227  10.823   8.403   1.249
46408W        W11228  29.879  10.712  13.461
46409W        W11229   2.581  16.061   2.797
46410W        W11230   8.190  24.850  12.899
46411W        W11231   9.380   5.568   3.616
46412W        W11232  43.923  15.604  14.338
46413W        W11233  14.065  23.037  11.084
46414W        W11234  33.685  30.566  11.907
46415W        W11235  37.598  26.398  13.934
46416W        W11236  20.913  31.214   1.202
46417W        W11237  38.334  23.700   5.005
46418W        W11238  18.349  42.544  14.379
46419W        W11239  17.423   4.873  12.602
46420W        W11240  40.014  16.008  11.126
46421W        W11241  44.283  21.315  10.721
46422W        W11242  11.585  15.574   0.929
46423W        W11243  31.893  43.956   0.474
46424W        W11244  18.255   7.701  10.405
46425W        W11245  14.321  17.034   2.266
46426W        W11246  42.990   0.834  14.654
46427W        W11247  30.083  42.065  13.973
46428W        W11248  30.075  24.910   5.158
46429W        W11249   2.078   2.645  12.425
46430W        W11250  16.088  14.902   3.768
46431W        W11251  30.304   6.261  14.422
46432W        W11252  43.814  10.720  12.615
46433W        W11253   3.818  13.361   2.092
46434W        W11254   0.832   2.845   0.483
46435W        W11255  19.114  15.115   1.985
46436W        W11256   3.142  20.715  12.926
46437W        W11257  39.505   5.846   4.868
46438W        W11258  29.448   9.056   4.354
46439W        W11259  12.787   2.359   3.875
46440W        W11260  12.668  30.619  14.052
46441W        W11261  14.439  11.789  14.763
46442W        W11262  27.397  43.430  14.886
46443W        W11263  28.033  11.230   0.858
46444W        W11264  10.640  20.563  11.245
46445W        W11265  26.677  15.565   0.530
46446W        W11266  42.906   7.344   0.689
46447W        W11267  16.685   4.768   4.679
46448W        W11268   7.981  13.055   1.460
46449W        W11269   8.156  37.828   3.821
46450W        W11270  35.604  31.827   1.694
46451W        W11271  33.505  18.732  13.771
46452W        W11272  30.787  27.925   4.959
46453W        W11273  40.956   3.847   0.417
46454W        W11274   8.973   8.597  14.182
46455W        W11275  11.561  41.956   3.712
46456W        W11276  44.761   7.515  14.626
46457W        W11277  30.258  23.686  11.195
46458W        W11278   4.214   2.257  12.919
46459W        W11279  21.138  26.247   2.896
46460W        W11280  10.317   2.462  11.125
46461W        W11281  16.458  20.350   3.173
46462W        W11282  20.682   3.950   3.715
46463W        W11283  34.208   1.772  14.069
46464W        W11284   6.604  12.828  14.437
46465W        W11285  30.497  34.614  14.041
46466W        W11286  38.017  27.253  14.093
46467W        W11287  32.321  11.258   4.956
46468W        W11288   2.728  39.982   0.014
46469W        W11289  41.383  27.741  12.432
46470W        W11290  11.504  29.555  12.600
46471W        W11291  40.832  29.922   0.800
46472W        W11292  26.443  23.212   1.372
46473W        W11293  38.022  24.716   4.108
46474W        W11294  19.540  26.678   3.923
46475W        W11295  35.145   5.292  10.896
46476W        W11296  15.649  44.901   4.114
46477W        W11297  30.444   9.895  12.074
46478W        W11298  23.679  42.395  13.241
46479W        W11299  21.288  17.087  13.880
46480W        W11300  28.059  11.809  11.075
46481W        W11301  20.140   3.774   1.819
46482W        W11302  32.668  12.836  11.568
46483W        W11303  21.490  13.097  11.981
46484W        W11304  33.403  39.550  14.324
46485W        W11305  44.763   0.356  11.647
46486W        W11306  37.089  11.828   3.692
46487W        W11307  12.545  37.904   1.623
46488W        W11308   8.751  30.409   1.293
46489W        W11309   4.117  14.262  14.811
46490W        W11310  33.581  42.979  11.618
46491W        W11311  12.597  33.185  10.729
46492W        W11312   4.738  34.921  14.409
46493W        W11313  33.604   5.924   0.853
46494W        W11314  27.579   3.371  12.494
46495W        W11315  24.024  25.095   2.682
46496W        W11316  22.923   3.233  14.529
46497W        W11317  25.105   1.016   2.352
46498W        W11318  44.821  20.341  14.021
46499W        W11319  41.258  34.918   4.196
46500W        W11320  19.351  38.867   1.100
46501W        W11321  14.327  31.363   4.580
46502W        W11322   7.264  20.684  11.117
46503W        W11323   3.718  27.180   2.452
46504W        W11324  17.603  43.005  10.618
46505W        W11325  32.182   9.956   2.212
46506W        W11326  13.744  38.480  12.679
46507W        W11327   6.352  41.237  14.044
46508W        W11328   0.709  11.110  13.327
46509W        W11329  29.105  28.494   3.725
46510W        W11330  30.557  27.743   0.899
46511W        W11331   0.841   3.996   4.549
46512W        W11332  35.480  42.820  14.080
46513W        W11333  21.244  15.121  14.613
46514W        W11334  10.867  21.141  12.964
46515W        W11335  34.185  37.344  11.508
46516W        W11336   6.215  15.374   2.787
46517W        W11337   9.734   0.929   3.509
46518W        W11338  43.465   1.993  12.735
46519W        W11339   5.976  26.129  14.014
46520W        W11340  21.645  44.917   2.333
46521W        W11341  24.222  29.758   1.205
46522W        W11342  42.050  44.727  14.894
46523W        W11343  15.086  27.019  14.584
46524W        W11344  35.982   9.326  13.910
46525W        W11345  16.209  18.039  10.612
46526W        W11346   2.385  43.288   0.728
46527W        W11347  30.640  17.194  11.929
46528W        W11348  22.584  36.884  12.218
46529W        W11349  12.361   2.524   4.079
46530W        W11350  17.941   8.821  14.370
46531W        W11351  10.066  39.564  10.932
46532W        W11352  16.688  43.956   2.600
46533W        W11353  27.083  44.499   3.893
46534W        W11354  21.385  26.226   2.436
46535W        W11355   9.733   7.864   2.760
46536W        W11356  12.045  34.555  14.804
46537W        W11357   1.375   5.095   4.065
46538W        W11358  37.538  14.331  11.573
46539W        W11359  20.437   3.519  12.091
46540W        W11360   1.419  21.589  13.409
46541W        W11361  11.227   0.365   2.820
46542W        W11362  25.572  33.403   4.378
46543W        W11363   5.146  27.120   2.128
46544W        W11364  44.738  33.606  14.514
46545W        W11365   8.227   0.998  11.594
46546W        W11366  10.766  42.437   0.174
46547W        W11367  30.038  35.430   4.118
46548W        W11368   4.892  18.325  12.979
46549W        W11369   0.084  25.881   3.263
46550W        W11370   8.721   3.002  13.113
46551W        W11371   9.086  40.781  13.678
46552W        W11372  29.173  30.633   3.796
46553W        W11373   9.614  17.325   4.185
46554W        W11374  43.710  39.371   0.774
46555W        W11375  23.403  27.423   0.765
46556W        W11376  35.126  30.105  11.014
46557W        W11377  26.790  12.941  12.880
46558W        W11378  13.432   4.428   1.626
46559W        W11379  31.865  10.161  10.726
46560W        W11380  36.608  18.025   4.538
46561W        W11381   7.193  37.073   1.925
46562W        W11382  30.998  28.121  10.914
46563W        W11383  37.052  39.041  13.140
46564W        W11384  39.820  28.827  14.640
46565W        W11385   2.168  19.581  12.502
46566W        W11386  34.573  29.564   0.761
46567W        W11387  15.660  35.014  14.091
46568W        W11388  13.803  42.899  11.178
46569W        W11389  37.448  22.243  12.372
46570W        W11390  22.230  33.155   0.783
46571W        W11391  24.667  15.875  13.890
46572W        W11392   4.154   4.254  12.912
46573W        W11393  14.796  18.892  14.935
46574W        W11394  20.164  35.900   1.000
46575W        W11395  17.601  33.879   0.951
46576W        W11396  37.333  40.938  13.418
46577W        W11397  40.406  34.906   0.257
46578W        W11398  11.469  18.207  11.695
46579W        W11399   1.093  34.814  12.241
46580W        W11400  16.007  23.552  11.450
46581W        W11401   0.978  12.603   3.188
46582W        W11402  32.560  18.602   1.357
46583W        W11403  12.654  13.153  11.042
46584W        W11404   2.262  15.673   1.133
46585W        W11405  24.574  23.616   4.091
46586W        W11406   6.130  39.583  10.821
46587W        W11407  32.888  17.444   5.364
46588W        W11408  32.660  20.366  11.940
46589W        W11409  13.121  14.328   2.799
46590W        W11410  40.323  23.256   1.783
46591W        W11411  26.651   5.521   3.963
46592W        W11412  12.312   3.178  14.388
46593W        W11413   1.161  37.563   3.904
46594W        W11414  32.425  29.612  14.942
46595W        W11415  24.414  35.271  11.141
46596W        W11416  22.402  12.970   3.791
46597W        W11417  42.041  15.594   0.893
46598W        W11418  14.991  25.434   0.817
46599W        W11419  20.555  31.952   3.265
46600W        W11420  15.708  26.634   3.281
46601W        W11421  14.072  12.668   4.556
46602W        W11422  30.011  30.222  11.974
46603W        W11423  22.460  18.722   4.387
46604W        W11424  24.721  13.224   4.134
46605W        W11425  32.029  35.398   0.551
46606W        W11426   6.646  42.724  12.455
46607W        W11427  33.930   5.631  10.778
46608W        W11428  34.671  44.744  13.955
46609W        W11429  13.548  21.140   1.327
46610W        W11430  40.783   4.600   2.416
46611W        W11431  18.785  16.604   2.622
46612W        W11432  12.835  43.020  14.424
46613W        W11433  23.185  11.225   0.407
46614W        W11434  41.807  40.550  14.293
46615W        W11435  34.517  13.370   0.858
46616W        W11436  30.886  32.031   0.403
46617W        W11437  40.779  40.160  12.960
46618W        W11438  37.842  26.918  14.424
46619W        W11439   1.038  30.538  14.122
46620W        W11440  41.862  30.405  12.873
46621W        W11441  11.304   0.167   3.286
46622W        W11442   0.852  38.121  12.488
46623W        W11443   7.727  33.050   0.644
46624W        W11444   0.049  39.442   1.891
46625W        W11445  14.531   6.829  12.364
46626W        W11446  28.468  35.469   1.432
46627W        W11447   5.441  36.124   4.167
46628W        W11448   6.583  14.581   2.782
46629W        W11449  34.409  32.354   1.838
46630W        W11450  15.841  30.067  14.792
46631W        W11451  17.656  41.314  12.076
46632W        W11452  19.591  17.885   3.056
46633W        W11453   8.031  23.510  14.769
46634W        W11454   4.429   8.060  13.140
46635W        W11455  24.639   0.848   4.050
46636W        W11456  12.018  32.002   1.275
46637W        W11457  29.864  35.002   3.370
46638W        W11458  36.532  16.866  10.313
46639W        W11459  37.547  10.838  14.974
46640W        W11460  13.799  43.261   0.417
46641W        W11461   8.959  40.428   1.741
46642W        W11462  11.249  15.576  13.022
46643W        W11463  13.670   4.320  10.677
46644W        W11464  24.875  37.315   4.103
46645W        W11465   2.529  22.861  14.922
46646W        W11466  32.272  41.433   1.323
46647W        W11467   5.831  37.471   4.175
46648W        W11468  11.578  22.729   0.591
46649W        W11469  13.017  11.740  10.788
46650W        W11470   8.334  25.204  13.886
46651W        W11471  36.315  40.820  13.969
46652W        W11472   8.921  15.960   5.480
46653W        W11473   7.782  30.281  10.413
46654W        W11474  11.823  13.830   0.311
46655W        W11475   3.848  27.982   2.148
46656W        W11476   2.220  27.285   0.234
46657W        W11477  31.428  33.469   0.877
46658W        W11478   0.246  40.506  12.009
46659W        W11479  20.732  28.201   3.272
46660W        W11480  18.036  22.847  12.134
46661W        W11481   5.465  24.563   2.999
46662W        W11482  44.048   7.506   3.761
46663W        W11483  41.203  43.328  13.267
46664W        W11484  27.963  39.986   1.602
46665W        W11485  26.103  23.393   3.171
46666W        W11486  26.274  33.041   0.944
46667W        W11487  21.235  18.901  13.433
46668W        W11488  35.765  27.632  13.996
46669W        W11489   0.904  18.845   3.399
46670W        W11490  38.132  30.148   5.046
46671W        W11491  24.304  18.162  10.692
46672W        W11492  38.092  19.710  11.076
46673W        W11493  20.386  23.939  11.543
46674W        W11494  44.511   1.080  10.756
46675W        W11495  43.023  22.490   4.030
46676W        W11496  31.585  22.285   3.711
46677W        W11497   4.692   9.422  14.523
46678W        W11498   4.337   8.079   3.232
46679W        W11499  34.912  30.118   2.244
46680W        W11500  42.214  36.109   3.685
46681W        W11501  12.934   7.627   1.278
46682W        W11502   0.568   8.582   4.114
46683W        W11503  28.041  38.376  14.674
46684W        W11504   3.530  24.158   3.317
46685W        W11505  40.485  33.663  14.768
46686W        W11506  18.254   7.799   3.748
46687W        W11507  44.671  20.939   4.131
46688W        W11508  17.775   9.316   4.149
46689W        W11509  20.050   5.769  13.999
46690W        W11510   8.738  21.702  13.351
46691W        W11511  29.207  36.986   2.538
46692W        W11512  25.126  12.956  10.782
46693W        W11513   0.723   1.920  13.452
46694W        W11514  16.933   5.504  11.473
46695W        W11515  20.224  16.508   1.760
46696W        W11516  19.677  27.987  12.479
46697W        W11517   9.317  25.497   4.602
46698W        W11518  32.352   3.434  13.970
46699W        W11519  13.591  37.188  12.026
46700W        W11520  27.361  31.991   4.144
46701W        W11521  23.771  25.593   2.835
46702W        W11522  36.485  15.410  11.049
46703W        W11523  36.224  16.969   3.667
46704W        W11524  36.114  20.003   0.467
46705W        W11525  26.943  34.612   2.316
46706W        W11526  16.673  40.808   4.710
46707W        W11527  35.229  18.699  13.214
46708W        W11528   6.800   9.420  13.715
46709W        W11529  17.032  12.110  10.234
46710W        W11530  10.188  32.522  13.519
46711W        W11531  30.743  37.972  13.009
46712W        W11532  10.746  18.018  14.347
46713W        W11533  40.833  32.910   0.438
46714W        W11534  44.367  41.966   3.861
46715W        W11535  15.760  40.413  14.870
46716W        W11536  33.844  31.537   0.459
46717W        W11537  39.286  32.442  11.229
46718W        W11538  43.344  17.625   2.326
46719W        W11539  26.585  27.683   3.127
46720W        W11540  22.734   9.840   2.994
46721W        W11541   9.743   3.179  14.810
46722W        W11542   5.652  32.889  14.378
46723W        W11543  22.001   9.276  11.880
46724W        W11544  12.049  26.632  12.605
46725W        W11545   9.170   5.405  14.370
46726W        W11546   0.381  39.242  12.978
46727W        W11547  36.927  14.212  13.397
46728W        W11548  33.222  44.379   2.368
46729W        W11549   7.737  36.504   0.807
46730W        W11550  12.436  21.224  11.299
46731W        W11551   7.764  32.346  10.405
46732W        W11552  40.432  42.263  10.926
46733W        W11553  38.275  21.158   2.254
46734W        W11554  14.054  13.743  14.760
46735W        W11555  41.954  31.897  12.477
46736W        W11556  42.442  29.857  13.735
46737W        W11557  25.676  39.874   2.797
46738W        W11558  30.059  18.571   0.888
46739W        W11559  18.055  20.082  10.351
46740W        W11560  26.729  36.067  12.003
46741W        W11561  21.056  27.212   3.231
46742W        W11562  35.082   3.535   0.961
46743W        W11563  32.058  13.150   3.654
46744W        W11564  34.573  38.402  14.646
46745W        W11565  44.745  13.035   1.843
46746W        W11566  28.350  19.275   3.811
46747W        W11567  13.831   4.374  12.460
46748W        W11568   2.449  19.441   3.112
46749W        W11569  29.747  12.097  13.749
46750W        W11570  24.194  44.901   4.064
46751W        W11571  30.305  17.957   5.466
46752W        W11572   0.153  25.362   5.213
46753W        W11573   5.670  30.341  13.201
46754W        W11574  15.702  35.431   2.223
46755W        W11575  12.230  13.400  11.282
46756W        W11576  23.114   8.652   1.636
46757W        W11577  34.622  16.994  13.462
46758W        W11578  19.024  15.596   2.150
46759W        W11579   8.479  19.779  12.277
46760W        W11580  26.339  36.162   1.775
46761W        W11581  12.156  32.050  12.398
46762W        W11582  23.323  33.716  14.075
46763W        W11583  16.398  41.467   4.523
46764W        W11584  34.983  44.957  11.996
46765W        W11585  14.187  41.356   0.537
46766W        W11586  28.990  26.103   0.365
46767W        W11587  36.831  30.947  13.918
46768W        W11588  11.585  35.931   2.031
46769W        W11589  27.073  30.484  11.658
46770W        W11590   1.209  12.492  12.155
46771W        W11591  43.215   8.164  12.197
46772W        W11592  31.410   8.972  12.215
46773W        W11593  24.676  33.034  14.421
46774W        W11594  32.927   8.871   0.624
46775W        W11595  29.559  19.208  10.361
46776W        W11596  27.411  32.433  11.644
46777W        W11597   0.230  41.342   3.776
46778W        W11598  38.378  25.564  12.832
46779W        W11599  32.965  17.534   2.329
46780W        W11600   8.251  29.215  10.511
46781W        W11601  35.259  21.040   3.227
46782W        W11602  39.111   8.264  14.322
46783W        W11603  43.720   3.609   2.737
46784W        W11604  30.964   0.309  11.828
46785W        W11605  37.036  17.027  12.481
46786W        W11606  34.303  41.872  12.644
46787W        W11607  32.566  40.859  13.291
46788W        W11608  29.522  18.166  12.793
46789W        W11609  11.771  42.453   4.795
46790W        W11610  33.672  23.131  14.992
46791W        W11611  42.865  33.795   3.399
46792W        W11612  25.341  27.982  14.145
46793W        W11613  34.902  29.933   0.948
46794W        W11614  40.704  31.317   0.837
46795W        W11615  35.083  21.045   1.394
46796W        W11616  40.019   4.428  14.802
46797W        W11617  44.213  27.188   0.846
46798W        W11618  20.805  39.886   0.679
46799W        W11619   8.777  35.878  14.011
46800W        W11620  10.018  23.716   4.006
46801W        W11621  38.581  28.169   3.681
46802W        W11622  32.919  42.312   4.799
46803W        W11623   3.495  33.897  12.437
46804W        W11624  43.197  14.085  13.744
46805W        W11625  32.140  11.661  12.292
46806W        W11626  13.576   2.811   3.562
46807W        W11627  16.288   2.718   3.261
46808W        W11628   0.849  14.229  10.692
46809W        W11629  28.159  32.695   2.703
46810W        W11630   5.852  33.895   4.641
46811W        W11631  27.505  43.367   4.254
46812W        W11632  31.164  41.981  13.436
46813W        W11633  38.938  25.166   3.416
46814W        W11634  30.043  37.362  11.513
46815W        W11635  31.564  23.531   5.486
46816W        W11636  28.926   9.834   2.789
46817W        W11637   9.706  21.916   1.964
46818W        W11638  22.216  13.093   0.581
46819W        W11639  44.939  19.047   2.440
46820W        W11640  37.924  29.839  12.773
46821W        W11641  12.636  39.835  12.453
46822W        W11642  12.315   6.939  12.047
46823W        W11643  37.349  22.273   4.186
46824W        W11644  35.978  15.786   1.782
46825W        W11645  21.553   0.232   2.777
46826W        W11646  33.831  20.298   2.373
46827W        W11647   3.924   3.817  10.776
46828W        W11648  38.497   7.185  14.866
46829W        W11649  12.425  35.318   0.387
46830W        W11650  17.097  35.953  14.833
46831W        W11651  30.600  35.093   4.603
46832W        W11652  40.452   3.269   1.886
46833W        W11653  37.367  39.473  14.384
46834W        W11654  27.650  18.153  14.033
46835W        W11655  41.002  39.569   1.771
46836W        W11656  13.847  37.038   0.956
46837W        W11657  40.851  13.016   1.333
46838W        W11658  16.068  18.357  12.902
46839W        W11659   8.889  43.223   0.467
46840W        W11660  11.124   0.890   0.322
46841W        W11661  24.643  39.333  11.570
46842W        W11662  24.674  20.460   0.369
46843W        W11663  15.527   9.159  11.202
46844W        W11664  15.595  30.518  13.082
46845W        W11665  13.297  14.417  11.123
46846W        W11666   5.224  19.771   2.661
46847W        W11667  20.246   3.217  13.961
46848W        W11668  43.628   8.395   4.078
46849W        W11669   9.343   1.840  14.861
46850W        W11670  18.375  23.073   2.826
46851W        W11671  19.986  33.652  11.967
46852W        W11672  15.283  34.439   1.706
46853W        W11673  32.607  44.506  12.628
46854W        W11674   3.317  38.803   4.008
46855W        W11675   2.341  16.880   0.042
46856W        W11676  13.533  27.703  12.026
46857W        W11677   8.129  14.657  11.336
46858W        W11678  22.223  32.822  14.971
46859W        W11679   6.942   6.328   2.590
46860W        W11680   2.436  14.959  13.170
46861W        W11681  27.483  20.183   2.017
46862W        W11682  39.284  19.789   4.610
46863W        W11683  39.360  29.564  12.214
46864W        W11684  27.114   9.728  12.516
46865W        W11685  17.261  40.531   3.428
46866W        W11686  27.107  27.685   3.202
46867W        W11687  37.960  42.350   0.031
46868W        W11688  27.506  41.910   2.290
46869W        W11689  31.025  29.982  11.932
46870W        W11690  15.102  23.936   1.507
46871W        W11691  17.829  14.579   2.109
46872W        W11692  19.320  31.429   4.451
46873W        W11693  42.756   7.715   0.345
46874W        W11694  31.142  25.480  11.480
46875W        W11695  17.572  35.186   2.058
46876W        W11696  32.422  26.990  14.516
46877W        W11697  10.272  18.297   3.301
46878W        W11698   8.628  19.033   1.259
46879W        W11699   6.572  37.141   1.850
46880W        W11700  31.437   3.843  10.677
46881W        W11701  15.555  38.934  12.990
46882W        W11702  44.781  29.525   3.803
46883W        W11703   2.377  27.583   1.470
46884W        W11704  17.668  33.069   4.062
46885W        W11705  29.168  30.457  10.950
46886W        W11706   5.655   5.182  12.003
46887W        W11707  21.216  28.205  14.766
46888W        W11708  37.022  29.773   4.134
46889W        W11709  39.651   7.267   4.133
46890W        W11710  44.716  21.706   3.411
46891W        W11711  29.556  30.702   0.099
46892W        W11712  27.187   2.329  10.408
46893W        W11713  44.256  22.231  10.311
46894W        W11714  16.460  39.245  14.862
46895W        W11715  38.471  22.769   3.679
46896W        W11716  39.414  20.096  14.257
46897W        W11717  34.773  13.301   5.373
46898W        W11718  13.324  13.344   3.295
46899W        W11719  42.456  32.370   2.434
46900W        W11720  43.049   2.504   0.416
46901W        W11721   6.466  26.188  13.893
46902W        W11722  23.794  15.558  14.897
46903W        W11723  41.048  12.847   2.828
46904W        W11724  16.321   6.887  10.716
46905W        W11725  10.220   5.679   4.416
46906W        W11726  37.001   3.812   4.186
46907W        W11727  25.643   5.733  14.969
46908W        W11728   3.381  12.546  12.043
46909W        W11729  12.211   5.424  11.666
46910W        W11730  24.643  17.377  12.279
46911W        W11731  24.764  32.589  12.529
46912W        W11732   8.622  12.789  12.032
46913W        W11733  19.900   7.120  14.202
46914W        W11734  21.528  11.878  11.606
46915W        W11735   4.304  38.938  14.595
46916W        W11736  16.590   5.669   0.738
46917W        W11737  37.272  40.987   3.703
46918W        W11738  37.837  34.812  13.707
46919W        W11739  35.432  34.554   3.243
46920W        W11740  13.696  35.429  14.913
46921W        W11741   2.885  22.584   2.950
46922W        W11742  13.669  19.494  13.721
46923W        W11743  26.948  32.607   0.721
46924W        W11744  20.180   8.346   4.130
46925W        W11745  14.733  15.721   3.753
46926W        W11746  36.501   1.008  11.497
46927W        W11747  38.604   3.464  10.688
46928W        W11748  29.736  30.079   2.192
46929W        W11749  10.140  27.322   3.071
46930W        W11750   7.500  19.215   2.631
46931W        W11751   7.696  28.690   2.635
46932W        W11752   7.630  39.783  14.290
46933W        W11753  18.624  30.009  11.523
46934W        W11754  19.076  20.005   0.979
46935W        W11755  36.867  44.622   1.642
46936W        W11756  39.462  38.975  14.993
46937W        W11757  10.793  37.993  12.116
46938W        W11758   3.130  30.887  11.469
46939W        W11759  33.827   6.415   2.336
46940W        W11760   0.974  40.332  11.125
46941W        W11761  23.028  33.395   2.380
46942W        W11762   2.693   7.190  13.058
46943W        W11763  30.740  36.021  13.523
46944W        W11764  13.889   8.538   0.442
46945W        W11765  23.194   6.756  10.698
46946W        W11766  26.514  39.028  12.504
46947W        W11767  32.683  23.531   3.229
46948W        W11768  42.864  29.257  13.532
46949W        W11769  25.754  40.844  14.332
46950W        W11770  16.806   5.907  11.796
46951W        W11771  24.276  34.263  11.363
46952W        W11772  44.382  17.308   0.196
46953W        W11773  41.994  10.368  12.137
46954W        W11774   7.455   0.947  13.833
46955W        W11775  16.262   9.351   1.403
46956W        W11776  25.549  24.481   1.865
46957W        W11777  14.627  33.194  11.975
46958W        W11778   0.502  11.244  14.312
46959W        W11779  18.374  16.310  14.768
46960W        W11780   9.358  18.849  13.107
46961W        W11781  27.383  12.727   0.788
46962W        W11782   9.200  42.013   3.532
46963W        W11783  11.300  36.890  14.896
46964W        W11784  39.234  30.616   3.258
46965W        W11785  38.431  38.540  10.922
46966W        W11786  43.951  20.266  13.476
46967W        W11787   5.376  36.406  10.719
46968W        W11788  13.268  21.103  11.511
46969W        W11789  32.557  19.480   1.853
46970W        W11790   3.014  18.784  14.493
46971W        W11791  44.619   6.187   0.616
46972W        W11792  24.920  15.131   2.189
46973W        W11793   6.739   7.165   1.427
46974W        W11794  41.838  32.942   1.795
46975W        W11795  14.557  34.169  10.245
46976W        W11796  38.510  36.546  11.780
46977W        W11797  42.083  30.934  14.027
46978W        W11798  10.854  17.529   4.565
46979W        W11799   7.520  21.675   1.776
46980W        W11800  22.112  36.653   4.576
46981W        W11801  23.586  34.566  14.543
46982W        W11802  17.237   3.298   1.855
46983W        W11803  25.767   2.204   5.042
46984W        W11804  16.639  29.725  13.527
46985W        W11805   7.308   2.865   3.034
46986W        W11806  13.279  26.632  13.373
46987W        W11807  27.211  42.011  12.556
46988W        W11808  27.642  32.052  10.763
46989W        W11809  13.727   8.112  12.150
46990W        W11810  23.224  37.759   0.929
46991W        W11811   0.807  16.398   2.111
46992W        W11812   7.822  31.851  12.116
46993W        W11813  22.657  12.473   1.724
46994W        W11814  40.916  15.633   1.267
46995W        W11815   1.879  19.128   0.010
46996W        W11816  29.059  16.681   2.714
46997W        W11817  35.384  28.527   2.666
46998W        W11818   7.799   9.286  13.601
46999W        W11819  18.090  35.468   0.414
47000W        W11820  13.855  20.641   1.357
47001W        W11821  27.144  43.818   3.496
47002W        W11822  40.241  43.355   1.395
47003W        W11823  19.795  41.297   0.916
47004W        W11824  19.305  40.739  12.548
47005W        W11825  13.406  37.158  13.940
47006W        W11826  38.081  24.104   3.445
47007W        W11827  27.987  33.975   1.872
47008W        W11828  13.074  24.061  14.982
47009W        W11829  14.613  16.586  13.799
47010W        W11830   6.754  25.074  12.099
47011W        W11831  12.864   4.787  13.812
47012W        W11832  39.319  36.252  11.545
47013W        W11833   8.268  20.509   1.729
47014W        W11834  19.964  13.692  12.451
47015W        W11835  24.065  11.561   1.455
47016W        W11836  14.535  35.350  12.649
47017W        W11837  27.416  22.722  13.631
47018W        W11838   3.547  28.551   0.508
47019W        W11839  38.113  42.416  12.452
47020W        W11840  16.842   1.185   0.351
47021W        W11841  31.901  39.337  14.543
47022W        W11842  32.160  38.905   2.186
47023W        W11843  23.928   6.220   4.554
47024W        W11844   0.535  19.610   2.960
47025W        W11845  14.149  37.854   2.266
47026W        W11846  39.221  43.080   2.349
47027W        W11847  21.144  27.987  12.501
47028W        W11848  38.925  41.049   2.153
47029W        W11849  10.786  43.988   4.909
47030W        W11850   7.333  28.588   9.745
47031W        W11851  24.729   7.869   4.328
47032W        W11852  28.899  24.721  10.644
47033W        W11853   4.904  37.304  10.743
47034W        W11854  30.443  24.760  14.370
47035W        W11855  34.658   7.815   2.279
47036W        W11856  28.412  15.266  12.148
47037W        W11857   0.834  43.550  11.047
47038W        W11858  31.372  25.329  10.163
47039W        W11859  23.152  40.265   1.148
47040W        W11860  31.221   0.554   2.250
47041W        W11861   0.294  18.430  14.502
47042W        W11862  11.162  38.373   1.904
47043W        W11863  42.024  39.435   2.324
47044W        W11864  16.714  42.025  14.368
47045W        W11865  10.004  11.051   4.092
47046W        W11866   7.910  36.231  14.458
47047W        W11867   3.292  24.721  11.225
47048W        W11868  29.416  25.873  11.631
47049W        W11869  33.419  31.481   4.383
47050W        W11870  26.488   6.801  14.979
47051W        W11871  38.531  15.387   2.195
47052W        W11872  35.551   7.693  12.972
47053W        W11873  35.414  22.286   0.741
47054W        W11874   2.000   1.769   4.318
47055W        W11875   3.767  27.885  10.227
47056W        W11876   7.285  20.825   1.956
47057W        W11877  41.439  38.882   1.410
47058W        W11878  21.560  33.441  14.822
47059W        W11879  26.615   6.765  10.674
47060W        W11880  33.062  17.786  13.987
47061W        W11881  44.207  14.043  10.141
47062W        W11882  21.696  36.437   2.295
47063W        W11883  21.103  25.202  14.821
47064W        W11884  11.769   0.536   1.808
47065W        W11885  12.824  42.950   4.393
47066W        W11886  22.612  21.023  11.956
47067W        W11887  16.917  44.433   0.833
47068W        W11888   9.565  13.840  14.447
47069W        W11889  29.073   9.159   0.905
47070W        W11890  17.704   0.427   0.633
47071W        W11891  40.727  19.720  10.724
47072W        W11892  17.064  37.033   2.234
47073W        W11893  17.756   0.339   3.225
47074W        W11894  21.002   3.444   0.708
47075W        W11895  26.119  27.702  13.910
47076W        W11896  31.998   3.456   3.104
47077W        W11897   7.775  16.749   4.232
47078W        W11898  20.737  18.255  12.583
47079W        W11899  11.179  35.022   0.891
47080W        W11900  15.607  11.037  12.460
47081W        W11901  40.019  22.644  14.407
47082W        W11902  24.563   3.725   1.756
47083W        W11903  16.834   8.358  10.120
47084W        W11904  14.810  33.892  14.787
47085W        W11905  17.293  27.644  10.720
47086W        W11906  35.579  28.640  12.228
47087W        W11907  44.859   3.921  12.499
47088W        W11908  38.047  24.384  12.097
47089W        W11909  21.299  38.109   9.977
47090W        W11910   0.864  13.276   4.133
47091W        W11911   5.494  36.815  12.848
47092W        W11912  13.073  42.559   3.688
47093W        W11913  43.994  30.619   4.861
47094W        W11914   2.547  33.087   4.524
47095W        W11915  31.049  25.495  10.980
47096W        W11916  38.221  22.211   4.096
47097W        W11917   4.239   7.014  13.478
47098W        W11918  26.637  26.997   1.937
47099W        W11919  36.944   2.317   4.317
47100W        W11920  38.590   0.504  10.740
47101W        W11921   3.304  23.169   1.007
47102W        W11922   8.129  42.823   2.427
47103W        W11923  23.874  16.131  11.176
47104W        W11924  43.377  10.647   4.658
47105W        W11925  29.805  24.241   3.961
47106W        W11926  22.717  16.096   1.835
47107W        W11927  26.137  34.021  12.675
47108W        W11928  26.933  28.927   3.646
47109W        W11929  43.438  18.560   3.680
47110W        W11930  22.276  41.810   1.686
47111W        W11931  15.563   9.597   3.301
47112W        W11932  21.572   1.476   3.235
47113W        W11933   6.808   1.307  14.501
47114W        W11934  20.082  12.902   1.164
47115W        W11935   9.945  29.434  12.885
47116W        W11936   1.216   8.281   3.716
47117W        W11937   7.759  16.679  12.115
47118W        W11938   5.245  19.155   4.474
47119W        W11939  26.509   3.690   2.139
47120W        W11940  30.335  18.312  11.593
47121W        W11941  21.492  17.011  13.409
47122W        W11942   2.932  38.160   2.587
47123W        W11943  38.460  13.947  11.070
47124W        W11944  35.906  25.992   1.976
47125W        W11945  18.120  22.995   1.475
47126W        W11946   1.583  34.201  11.577
47127W        W11947  23.084   5.349   4.244
47128W        W11948  39.299  41.528   0.515
47129W        W11949  15.541  14.879   2.786
47130W        W11950  32.726  39.013  14.434
47131W        W11951  26.709  27.474   3.575
47132W        W11952  25.516  35.652  14.513
47133W        W11953   4.966  28.682   3.191
47134W        W11954  13.821  40.345  13.036
47135W        W11955  33.156   9.224  12.179
47136W        W11956  18.514  34.134   2.232
47137W        W11957   1.973   3.810   0.383
47138W        W11958  13.757  27.471  13.806
47139W        W11959  39.662   3.715  12.092
47140W        W11960  36.739  15.289  12.612
47141W        W11961  29.590  30.498   0.586
47142W        W11962   6.845  28.144  11.483
47143W        W11963  40.349  34.445  13.630
47144W        W11964  39.454  13.589   3.139
47145W        W11965  24.075   0.414  13.818
47146W        W11966  28.991  24.960  14.646
47147W        W11967  32.091  29.024   3.787
47148W        W11968  29.371  27.343  13.446
47149W        W11969  23.524  12.792  11.177
47150W        W11970  23.876   0.310   4.030
47151W        W11971  10.895  26.449   2.737
47152W        W11972   4.516  11.293   3.729
47153W        W11973  19.633  18.183  14.848
47154W        W11974  29.475  35.704  11.935
47155W        W11975  44.804  10.037  13.184
47156W        W11976   3.293  30.462  11.664
47157W        W11977  17.267  35.040   2.853
47158W        W11978  35.776  21.363   2.833
47159W        W11979  11.149   5.220   3.233
47160W        W11980  30.527  19.302   0.787
47161W        W11981  39.026  43.581  10.262
47162W        W11982  33.504   5.011  14.036
47163W        W11983  17.686  11.257  13.377
47164W        W11984  28.634  18.338  12.385
47165W        W11985  32.874   4.995  12.144
47166W        W11986  16.147  26.198  12.031
47167W        W11987  18.197   4.774   4.113
47168W        W11988   2.369   3.447   0.393
47169W        W11989  41.349  32.811   0.482
47170W        W11990   8.000  26.628  12.780
47171W        W11991   2.043  25.246   1.843
47172W        W11992  39.078  40.615  14.505
47173W        W11993  40.989  21.641   3.565
47174W        W11994   4.399  33.185  11.129
47175W        W11995  14.119   2.016  14.093
47176W        W11996  16.947  34.913  10.207
47177W        W11997  38.583  20.433  12.589
47178W        W11998  33.461  22.716  14.456
47179W        W11999  19.496  38.133   4.145
47180W        W12000  43.397  39.580  10.738
47181W        W12001  26.477  23.616  14.593
47182W        W12002  17.473   0.058  13.050
47183W        W12003  37.712   4.301  12.597
47184W        W12004  29.055  25.524   0.428
47185W        W12005  12.643  36.101   2.276
47186W        W12006   3.501  33.167  10.627
47187W        W12007  31.514  15.742  11.211
47188W        W12008  18.059  29.159   0.084
47189W        W12009   8.977  24.543   2.792
47190W        W12010   5.122   1.964   0.959
47191W        W12011  35.471   4.500   0.321
47192W        W12012  12.830  10.227   1.011
47193W        W12013  36.863  34.858   4.508
47194W        W12014   9.864  33.527  14.792
47195W        W12015  43.070  19.689   4.559
47196W        W12016  13.190  32.843  12.981
47197W        W12017  44.763  23.639  14.842
47198W        W12018  22.984   9.206  14.854
47199W        W12019  25.195  32.633   1.425
47200W        W12020  29.180  17.227  12.519
47201W        W12021  43.933  22.354   1.923
47202W        W12022  35.619  15.359   3.204
47203W        W12023  38.572  44.308   4.947
47204W        W12024   3.384   1.452  12.932
47205W        W12025   2.186  35.304  11.983
47206W        W12026  37.563  41.804   4.137
47207W        W12027  20.950   6.572   5.102
47208W        W12028   2.539  22.938  13.077
47209W        W12029  16.630  15.527   4.155
47210W        W12030  27.464  42.335  13.779
47211W        W12031  31.584   4.775   4.134
47212W        W12032   3.200  30.644   4.577
47213W        W12033   4.378  34.121  12.539
47214W        W12034  10.052   7.679  13.433
47215W        W12035  25.484  23.206  12.471
47216W        W12036  14.641  30.413  12.586
47217W        W12037  30.754  39.760  10.116
47218W        W12038  24.122  40.040   4.116
47219W        W12039  20.171  19.014  14.803
47220W        W12040   4.716  18.233   0.356
47221W        W12041   2.584  11.658  13.235
47222W        W12042  31.097  16.299   4.170
47223W        W12043   1.171   3.408  14.466
47224W        W12044  15.493  10.171  11.222
47225W        W12045   9.865  28.468  13.550
47226W        W12046  17.361  29.147   3.656
47227W        W12047   9.602  44.542   1.675
47228W        W12048  39.872  26.090  12.046
47229W        W12049   2.713  23.485  13.652
47230W        W12050  31.231  28.047  14.860
47231W        W12051   7.273  25.038   1.482
47232W        W12052  31.039  13.366  12.851
47233W        W12053  26.478  44.342  11.643
47234W        W12054  16.726   5.868   4.104
47235W        W12055  18.488  25.964   4.968
47236W        W12056  33.410   7.933   4.200
47237W        W12057  18.339   8.115   2.546
47238W        W12058  18.510  34.576   0.127
47239W        W12059   6.331  25.943   1.575
47240W        W12060  20.955   7.159  10.716
47241W        W12061   8.705  28.903   9.940
47242W        W12062  29.147  37.356   1.654
47243W        W12063   2.759  25.206  11.043
47244W        W12064   6.197  21.998   1.854
47245W        W12065  41.318  24.096   3.893
47246W        W12066   3.391  34.638  14.390
47247W        W12067  35.393  30.114  13.338
47248W        W12068  17.006  25.988  13.756
47249W        W12069  14.297  30.749  12.850
47250W        W12070  35.379  36.460  13.027
47251W        W12071   9.145   9.860   0.964
47252W        W12072  32.182  18.240   1.392
47253W        W12073  24.471  11.074  10.633
47254W        W12074  21.606  38.102  10.378
47255W        W12075   5.946   8.383  12.445
47256W        W12076   0.297  13.904   3.228
47257W        W12077  15.615  10.978   4.581
47258W        W12078  42.959  33.422   0.711
47259W        W12079  12.196  21.476  13.546
47260W        W12080   6.464  16.063   0.486
47261W        W12081  25.908  16.184   4.182
47262W        W12082  16.965  44.886   3.421
47263W        W12083  43.289  24.494   1.017
47264W        W12084  14.713   9.872  13.285
47265W        W12085   6.437  21.325  14.355
47266W        W12086  31.237  29.942  10.158
47267W        W12087  36.156  31.078   3.291
47268W        W12088  13.119  12.570   0.479
47269W        W12089  26.984  26.368   0.404
47270W        W12090  12.532  33.006  13.103
47271W        W12091  37.365  13.125  11.585
47272W        W12092  13.330  43.941   4.662
47273W        W12093   3.695  44.847  11.460
47274W        W12094  26.899  33.109  12.098
47275W        W12095  35.302  11.195  11.484
47276W        W12096  29.484  20.265   4.210
47277W        W12097  32.415  17.189   1.968
47278W        W12098   4.726  11.988  13.128
47279W        W12099  12.089  25.558   4.642
47280W        W12100  40.771  44.142   1.857
47281W        W12101  37.255   3.040  14.464
47282W        W12102  15.201  31.953  10.968
47283W        W12103  15.511  44.499   2.823
47284W        W12104  38.837  14.213   1.630
47285W        W12105  12.297  10.165  11.604
47286W        W12106  11.293  10.748  13.497
47287W        W12107  11.782  30.520  13.940
47288W        W12108   7.781   5.728   2.242
47289W        W12109  22.483  15.140  13.542
47290W        W12110   2.842  23.811  10.988
47291W        W12111   2.714  38.207  14.920
47292W        W12112  25.984   4.300   2.181
47293W        W12113   7.844   2.211  14.983
47294W        W12114   1.490  33.686  11.241
47295W        W12115  28.006  39.953  11.298
47296W        W12116  20.231  11.841   0.772
47297W        W12117  16.334  19.746   0.800
47298W        W12118  28.703  19.242  14.574
47299W        W12119  28.111  30.532  14.275
47300W        W12120  25.029  15.246  14.046
47301W        W12121  12.257  42.044   1.341
47302W        W12122  40.398  40.394  13.769
47303W        W12123  17.745  37.028  14.624
47304W        W12124  24.567  37.639  12.378
47305W        W12125   0.392  22.546   2.227
47306W        W12126   7.452  33.481  12.126
47307W        W12127   7.385  38.269   1.178
47308W        W12128  34.946   6.997   0.306
47309W        W12129  21.589   5.260  11.146
47310W        W12130  14.452  34.815  11.453
47311W        W12131   2.421  16.089  13.482
47312W        W12132  22.747  31.733  10.038
47313W        W12133  42.818  22.267  14.562
47314W        W12134  10.786  14.018   5.031
47315W        W12135  22.482  27.419   0.891
47316W        W12136  18.608  33.472   4.416
47317W        W12137   3.654  39.528  11.365
47318W        W12138  33.147  10.818   3.765
47319W        W12139  12.321  32.319  11.963
47320W        W12140   8.262  30.924  11.271
47321W        W12141  31.744  21.061   1.231
47322W        W12142  10.936   8.905  13.309
47323W        W12143  26.721  36.441   2.555
47324W        W12144   3.733   2.991   4.779
47325W        W12145  17.211  21.131  10.338
47326W        W12146   3.887  34.992   0.418
47327W        W12147  41.994  35.996  11.139
47328W        W12148  24.604  10.388   4.937
47329W        W12149  37.553  22.723  12.608
47330W        W12150   1.431  15.679   1.323
47331W        W12151  11.181  41.053  13.179
47332W        W12152  11.246   3.267  12.930
47333W        W12153   8.392  22.088  10.892
47334W        W12154  17.336   6.331  14.222
47335W        W12155  28.860   1.740   4.722
47336W        W12156  19.329   0.770   2.124
47337W        W12157  26.939  10.241  12.486
47338W        W12158  41.219   0.447  12.703
47339W        W12159   5.303   8.282  14.824
47340W        W12160  37.104  30.872  14.389
47341W        W12161  15.943  30.927   3.084
47342W        W12162  26.418  43.884  11.914
47343W        W12163  38.428  38.565   4.085
47344W        W12164  13.612  44.729  11.092
47345W        W12165  31.047  41.628   5.034
47346W        W12166  19.801  24.776   0.473
47347W        W12167   2.929  11.737   1.528
47348W        W12168   3.294  42.681   2.716
47349W        W12169   3.832  30.182  14.765
47350W        W12170  37.317  13.954  11.860
47351W        W12171   5.638   1.917   4.538
47352W        W12172   6.473  24.672  13.928
47353W        W12173   0.408  13.400   3.177
47354W        W12174   4.158   2.301   1.618
47355W        W12175   2.012  38.992   1.434
47356W        W12176  23.032  40.643   4.705
47357W        W12177  20.189  12.933  13.527
47358W        W12178   1.706  10.651   1.365
47359W        W12179  33.878  43.010   4.127
47360W        W12180   1.526  14.398  13.451
47361W        W12181  37.498  29.901  12.467
47362W        W12182   7.357  19.274   0.961
47363W        W12183   4.288  26.031   2.916
47364W        W12184  41.629   8.805   3.614
47365W        W12185  42.240   4.125  11.910
47366W        W12186  41.833  21.752   2.618
47367W        W12187  36.102   6.647   1.182
47368W        W12188  21.727   9.310   1.710
47369W        W12189  43.354  22.169  11.191
47370W        W12190   1.036   2.354  13.385
47371W        W12191  19.786  31.899   0.434
47372W        W12192  20.177  44.646   2.816
47373W        W12193   8.747  20.923   0.911
47374W        W12194  35.668   3.780  11.952
47375W        W12195  33.502  37.599   1.278
47376W        W12196  29.289   1.013   3.295
47377W        W12197  41.626  28.926   4.185
47378W        W12198  26.376  27.881  10.255
47379W        W12199  26.482  36.596   1.578
47380W        W12200  14.789  39.886   3.590
47381W        W12201  28.937  29.616   2.356
47382W        W12202  22.593  14.090  14.976
47383W        W12203  38.476  24.930  12.227
47384W        W12204   8.905  10.832   1.770
47385W        W12205  10.008  31.422  13.587
47386W        W12206   9.874  32.887   1.442
47387W        W12207  25.560  40.494  14.715
47388W        W12208  14.659  27.435   1.801
47389W        W12209   9.551  44.472  14.391
47390W        W12210  20.540  28.896  13.926
47391W        W12211  25.347  14.410  10.346
47392W        W12212  18.123   1.850   3.603
47393W        W12213   9.140   9.575   2.448
47394W        W12214   9.380  23.291  14.140
47395W        W12215  13.568  42.353   2.083
47396W        W12216  16.735  42.050  12.480
47397W        W12217  17.770  25.186  12.927
47398W        W12218   8.138   4.928   1.406
47399W        W12219   9.593  26.033  13.325
47400W        W12220  11.875  10.995  10.161
47401W        W12221   0.040  32.305  12.805
47402W        W12222  40.641   3.237  14.520
47403W        W12223  12.398   9.932   2.299
47404W        W12224  36.600  19.686  14.120
47405W        W12225  27.570  40.771  13.972
47406W        W12226  38.034  34.602  12.435
47407W        W12227  10.947  18.354   5.312
47408W        W12228  40.228  19.760  10.208
47409W        W12229  33.602  30.133  14.680
47410W        W12230  18.409  16.321  13.924
47411W        W12231  24.190   6.824   1.415
47412W        W12232  16.075  31.261  13.776
47413W        W12233  44.260  33.520   3.671
47414W        W12234  12.866  13.955  13.416
47415W        W12235  22.261  29.901   4.783
47416W        W12236   5.910  27.204  12.042
47417W        W12237  39.072  40.920   4.792
47418W        W12238  30.294  29.480   2.784
47419W        W12239  19.990   0.045  11.848
47420W        W12240   5.375  13.720  14.006
47421W        W12241  25.908  44.393  11.108
47422W        W12242  12.228  38.131  10.597
47423W        W12243   6.847  44.502  11.145
47424W        W12244   3.960  22.863  11.833
47425W        W12245  22.142  34.446  11.070
47426W        W12246  11.788  12.095  12.488
47427W        W12247   3.212  10.926  13.571
47428W        W12248  32.380  34.366   2.851
47429W        W12249  32.897  14.361   1.647
47430W        W12250   5.969  19.334   0.698
47431W        W12251  20.192  42.224  13.455
47432W        W12252  14.167  29.069  12.187
47433W        W12253  13.725  28.002  13.753
47434W        W12254  13.342   0.464   2.430
47435W        W12255  17.724  18.988  11.867
47436W        W12256  39.963  17.517  13.756
47437W        W12257  44.724  10.310  11.026
47438W        W12258   3.321  36.022   2.771
47439W        W12259  24.424  35.023  12.960
47440W        W12260   2.782  38.464   1.273
47441W        W12261  16.281   4.422  11.107
47442W        W12262   6.715  27.160  11.095
47443W        W12263   6.777  41.769  11.497
47444W        W12264  23.592  32.361   4.749
47445W        W12265  36.042  22.525   0.873
47446W        W12266  22.489  33.051  14.535
47447W        W12267   7.478  10.932   1.794
47448W        W12268  29.937  29.633   4.620
47449W        W12269  17.645  23.444  10.706
47450W        W12270  15.872  40.006   0.826
47451W        W12271  12.180  34.194   1.760
47452W        W12272   1.821  27.434   2.217
47453W        W12273   4.041  21.222  14.948
47454W        W12274   1.987  12.693   1.334
47455W        W12275   7.358  35.910   1.760
47456W        W12276  19.601  23.617   2.153
47457W        W12277  12.892  16.771   0.599
47458W        W12278  13.337   2.275  12.434
47459W        W12279   0.758  20.806  13.882
47460W        W12280  20.038  32.466   2.780
47461W        W12281  38.360  10.621  12.950
47462W        W12282  33.395  22.284  14.742
47463W        W12283  19.316  21.275   2.275
47464W        W12284   5.719  43.901  12.991
47465W        W12285  29.449  30.577  14.615
47466W        W12286  34.466   4.875   4.316
47467W        W12287  12.914   4.327   1.696
47468W        W12288  38.345  10.950  11.545
47469W        W12289  27.868  41.778   3.671
47470W        W12290  23.507  10.209   3.340
47471W        W12291  24.571  33.162  11.615
47472W        W12292   8.707  36.061   1.078
47473W        W12293  43.449  19.044  14.288
47474W        W12294   8.653  41.901  13.525
47475W        W12295  11.830  17.780  11.643
47476W        W12296  37.978   2.683  13.186
47477W        W12297  28.125  23.842   3.552
47478W        W12298  23.158  15.025  14.512
47479W        W12299  21.115  18.163   4.118
47480W        W12300  13.634  43.743   2.603
47481W        W12301  39.504  13.522  12.865
47482W        W12302  31.331   6.884   2.387
47483W        W12303   4.495   6.632   2.146
47484W        W12304  13.276  15.306   2.704
47485W        W12305  15.274  32.719   3.284
47486W        W12306   8.276  32.210   2.200
47487W        W12307  31.465  32.981   4.212
47488W        W12308  24.035  15.674   0.635
47489W        W12309  12.883  15.765  13.884
47490W        W12310  33.337   1.825  11.633
47491W        W12311  29.583  20.028  12.784
47492W        W12312  38.300   9.820   1.875
47493W        W12313  12.322  14.480  11.625
47494W        W12314  23.249  39.731   1.127
47495W        W12315   5.672  23.562   4.016
47496W        W12316  11.466  10.231   0.285
47497W        W12317   8.417  23.504   3.317
47498W        W12318   4.442  30.617  11.569
47499W        W12319   3.226  15.259   4.284
47500W        W12320  42.443  39.888   1.866
47501W        W12321   3.340  25.425  13.388
47502W        W12322   0.515  17.655   3.697
47503W        W12323  32.732  25.478  12.765
47504W        W12324   1.512  13.589   1.445
47505W        W12325  19.223  42.531   4.727
47506W        W12326  13.600  26.124   2.464
47507W        W12327   9.210   9.093  14.423
47508W        W12328  40.454   3.183   0.019
47509W        W12329  21.207   8.780   2.846
47510W        W12330   1.162  18.658   2.976
47511W        W12331  39.801  24.567  11.630
47512W        W12332  42.214  44.468  11.713
47513W        W12333  41.939  19.963   2.250
47514W        W12334  35.354  20.098  12.398
47515W        W12335  25.522  37.926   4.161
47516W        W12336   0.731   8.815  14.598
47517W        W12337   3.988  39.828   3.841
47518W        W12338  37.102  17.080   2.343
47519W        W12339  24.369  10.688   1.226
47520W        W12340  17.572   2.864   0.306
47521W        W12341   1.256  43.120  13.183
47522W        W12342   8.837  35.603   2.298
47523W        W12343  34.614  44.686   3.564
47524W        W12344   2.905  17.662   3.592
47525W        W12345  41.399  30.768   3.869
47526W        W12346   6.904  13.587  12.075
47527W        W12347  12.397  18.875  14.703
47528W        W12348   2.444  24.200  12.584
47529W        W12349  35.113  44.018  10.899
47530W        W12350  26.403  33.642  11.429
47531W        W12351  14.526   3.907  14.396
47532W        W12352  41.537  37.050  13.309
47533W        W12353   5.963  21.035   3.804
47534W        W12354  28.345  18.646  13.295
47535W        W12355  21.625  34.646  12.625
47536W        W12356  33.692  13.510  13.526
47537W        W12357  40.856  30.477  14.305
47538W        W12358  31.535  44.410   2.176
47539W        W12359  31.757  37.238   3.347
47540W        W12360  41.752   9.737  11.027
47541W        W12361  37.302   5.151  12.962
47542W        W12362  17.724  14.378  12.805
47543W        W12363  10.816   4.707   1.276
47544W        W12364  42.986  42.296  11.583
47545W        W12365   6.331  18.089   1.415
47546W        W12366  21.025  10.923  11.575
47547W        W12367  37.690  34.605  11.477
47548W        W12368   5.336  18.059   1.360
47549W        W12369  23.598   8.939  13.195
47550W        W12370  29.143  24.116   4.611
47551W        W12371  34.493  11.693  10.644
47552W        W12372  23.593  11.773   2.800
47553W        W12373   5.374  16.175  14.355
47554W        W12374  19.547   1.900   4.212
47555W        W12375  36.384  31.931  14.068
47556W        W12376  37.481  17.989  11.147
47557W        W12377  33.166  23.207  14.857
47558W        W12378  30.506  37.097   1.921
47559W        W12379  24.993  37.352  14.883
47560W        W12380  31.472  42.429  10.965
47561W        W12381  32.453  26.389  13.223
47562W        W12382  34.900  24.295   1.301
47563W        W12383  22.063   1.866  13.387
47564W        W12384  33.396  34.804   3.642
47565W        W12385  32.000  20.559   2.329
47566W        W12386  33.340  29.410  10.761
47567W        W12387   3.348   2.254   4.590
47568W        W12388  14.834  15.246   1.076
47569W        W12389  40.514  30.545  11.658
47570W        W12390  43.309  22.970  11.715
47571W        W12391  22.213   7.165  12.946
47572W        W12392  32.821  33.733  11.188
47573W        W12393   0.279   7.458  14.797
47574W        W12394  35.537  16.868  11.766
47575W        W12395  38.074   0.640   4.327
47576W        W12396  33.397  34.441  12.100
47577W        W12397  38.015  30.606   2.661
47578W        W12398  33.216  33.060  11.868
47579W        W12399  37.480   1.056  13.895
47580W        W12400  26.596  36.624  14.903
47581W        W12401  36.831  40.143   3.726
47582W        W12402   6.325  29.136  13.791
47583W        W12403  41.518   0.868   2.086
47584W        W12404  15.104   0.790   3.774
47585W        W12405   6.846  28.954   3.148
47586W        W12406  11.744  27.516   2.474
47587W        W12407   7.378  18.067   3.717
47588W        W12408  33.098   2.520  11.546
47589W        W12409  37.954  10.742   2.244
47590W        W12410   1.507  32.214  11.949
47591W        W12411  39.009  14.638  14.398
47592W        W12412  23.861  40.986   3.219
47593W        W12413   4.688  37.028  11.107
47594W        W12414  17.023  44.148   4.659
47595W        W12415   0.319  11.848   4.119
47596W        W12416  17.224  12.139  13.894
47597W        W12417  44.318  20.421   3.737
47598W        W12418   5.743  16.358   2.961
47599W        W12419  35.045  20.028   4.979
47600W        W12420   4.034  43.967   4.177
47601W        W12421   5.367  35.970   3.359
47602W        W12422  14.771  44.391  10.794
47603W        W12423   5.439  31.674   1.883
47604W        W12424   6.896   4.312   4.013
47605W        W12425  27.645   7.787   4.732
47606W        W12426  33.618  44.502   4.823
47607W        W12427  10.872  35.100  12.921
47608W        W12428   4.833  12.878  11.700
47609W        W12429   3.909   6.297   3.940
47610W        W12430  36.056  41.484  14.467
47611W        W12431  21.687  25.132   4.523
47612W        W12432  30.156  12.233   4.762
47613W        W12433  23.262  44.847  10.584
47614W        W12434  37.434  41.886  12.670
47615W        W12435  34.100   0.467   2.338
47616W        W12436  26.734   1.318   4.533
47617W        W12437  44.324   4.337  14.506
47618W        W12438  27.972  44.111   2.450
47619W        W12439  26.493  26.211   3.246
47620W        W12440  21.127  34.922   1.523
47621W        W12441  31.057  21.603   1.230
47622W        W12442  12.079  28.190  12.092
47623W        W12443   8.099  29.595   4.453
47624W        W12444  20.242  23.714   1.489
47625W        W12445  23.291  36.474   3.718
47626W        W12446  34.427  36.789  12.311
47627W        W12447  17.582  22.062   1.725
47628W        W12448  34.888   5.066   3.850
47629W        W12449   0.395  21.789  13.570
47630W        W12450  41.725  40.858   2.310
47631W        W12451  30.432   9.789   1.904
47632W        W12452  23.734  14.784  11.239
47633W        W12453  20.884   9.879  12.505
47634W        W12454  32.106  10.278   1.791
47635W        W12455  27.403  31.674   0.402
47636W        W12456  28.045  19.755  12.358
47637W        W12457   3.236   6.338   4.565
47638W        W12458  23.949  10.793   0.312
47639W        W12459  22.425  39.384  13.074
47640W        W12460  20.453   9.669  10.880
47641W        W12461  32.167   5.208  10.676
47642W        W12462  18.235   4.337  14.031
47643W        W12463  29.965  31.589   0.451
47644W        W12464  37.459  17.844  12.380
47645W        W12465  36.812   7.838  14.272
47646W        W12466  21.679  33.192  14.324
47647W        W12467  17.581  44.324  14.255
47648W        W12468  17.679  32.844  14.430
47649W        W12469  42.793  15.254   2.257
47650W        W12470   8.162  15.515   2.415
47651W        W12471   1.872  34.131   0.486
47652W        W12472   4.475   7.880   3.683
47653W        W12473  40.525  40.871  13.583
47654W        W12474  19.009  43.451   1.897
47655W        W12475  15.955  17.228  10.683
47656W        W12476  35.069  35.357   4.527
47657W        W12477  38.374  19.789  14.769
47658W        W12478  29.050  39.923  14.443
47659W        W12479  29.570   0.315   3.995
47660W        W12480  43.835  14.860   1.176
47661W        W12481  33.018  32.536  14.821
47662W        W12482  30.998  35.514  14.891
47663W        W12483  27.372  25.002   0.774
47664W        W12484   9.927  22.498  11.426
47665W        W12485  37.179  23.066   1.673
47666W        W12486  10.383  12.776   1.901
47667W        W12487  21.150   2.845  14.095
47668W        W12488  14.066  29.264  13.084
47669W        W12489  38.502  20.757   1.372
47670W        W12490  22.398  21.693  12.519
47671W        W12491  42.886  29.234  14.983
47672W        W12492  13.820  21.224   0.829
47673W        W12493  25.985  22.218   0.511
47674W        W12494  38.446   2.616  11.646
47675W        W12495   2.309  43.512  14.728
47676W        W12496  28.152   0.412   3.828
47677W        W12497  31.486  26.050  14.380
47678W        W12498  41.353  21.485   1.758
47679W        W12499   2.940  22.016   2.402
47680W        W12500   5.683  37.861  14.925
47681W        W12501  10.559  14.093  13.499
47682W        W12502  35.708   4.431  14.248
47683W        W12503  19.930  33.570   1.683
47684W        W12504  40.803  33.956   4.092
47685W        W12505  35.799  31.588  10.669
47686W        W12506  12.133  31.947  14.363
47687W        W12507  40.897  18.963   3.139
47688W        W12508  35.042  38.177   1.549
47689W        W12509   5.724   9.476  14.441
47690W        W12510  36.141  35.431  13.988
47691W        W12511  17.571  38.474  10.679
47692W        W12512  40.898  11.072   4.683
47693W        W12513   7.010  19.058  14.628
47694W        W12514  33.003  32.006  14.746
47695W        W12515  34.622  33.135   2.781
47696W        W12516  35.364  31.481  12.975
47697W        W12517  18.876   1.914   5.103
47698W        W12518  32.894  38.312  14.011
47699W        W12519  18.534  16.119   0.399
47700W        W12520  14.645  22.495  10.191
47701W        W12521   8.399   4.558   3.791
47702W        W12522  28.709  39.444  14.781
47703W        W12523  31.362  27.124  13.165
47704W        W12524  12.465   5.587   3.285
47705W        W12525   4.903   2.178   4.920
47706W        W12526  24.782   3.471   5.026
47707W        W12527  11.444  13.518   0.130
47708W        W12528  21.066  31.185   0.674
47709W        W12529  21.257  40.374   0.388
47710W        W12530  14.620  24.583   4.748
47711W        W12531  17.093   7.870  10.670
47712W        W12532  42.406   5.457   2.279
47713W        W12533  27.927  28.922  13.435
47714W        W12534  29.138   5.075   0.862
47715W        W12535  24.526  17.542   4.166
47716W        W12536   3.720  21.707   4.500
47717W        W12537   3.438  38.338   2.109
47718W        W12538   9.502  12.679   3.726
47719W        W12539  37.522  17.723   4.277
47720W        W12540   9.191  23.290  14.621
47721W        W12541  43.279  31.084  12.519
47722W        W12542  19.724   4.873   1.229
47723W        W12543  25.000   5.222  12.108
47724W        W12544  12.384  39.231  14.688
47725W        W12545  21.741  20.783   1.509
47726W        W12546   5.401  43.002  11.698
47727W        W12547  33.120  13.855   0.170
47728W        W12548  43.255   8.195  14.351
47729W        W12549   2.110  17.610   1.392
47730W        W12550   1.953  21.806   3.298
47731W        W12551   6.773  15.088   0.509
47732W        W12552  38.771  36.910   3.818
47733W        W12553  34.553  10.879  12.039
47734W        W12554  16.218  26.000   1.218
47735W        W12555  38.129  34.434  13.964
47736W        W12556  34.434   9.502   0.852
47737W        W12557  26.634  23.532  11.096
47738W        W12558  36.184  38.415   0.718
47739W        W12559  35.002  24.775  14.508
47740W        W12560  10.319  26.195   0.953
47741W        W12561  44.348  40.776   1.243
47742W        W12562   4.865  34.404  11.079
47743W        W12563  26.433   3.480  11.154
47744W        W12564  36.209  20.505   4.817
47745W        W12565   8.626  33.898   1.911
47746W        W12566  33.062  23.198   0.368
47747W        W12567  28.980  25.532   2.404
47748W        W12568  40.241  41.988  11.644
47749W        W12569  41.471   8.231  13.866
47750W        W12570  40.739  22.298  13.381
47751W        W12571  22.779  38.332   0.165
47752W        W12572  16.811  17.026  14.049
47753W        W12573  38.348  13.343   0.788
47754W        W12574  43.321   2.750   0.842
47755W        W12575  20.278  32.875   3.700
47756W        W12576  40.521  20.880  14.516
47757W        W12577  43.047  27.726  12.355
47758W        W12578  35.708  30.073   1.910
47759W        W12579   7.805  28.782   4.999
47760W        W12580   2.081  35.801  12.100
47761W        W12581  38.965  40.409   1.925
47762W        W12582  29.642  12.899   1.802
47763W        W12583  37.077  27.926   3.592
47764W        W12584  34.652  23.374   4.881
47765W        W12585  17.168   7.999   3.726
47766W        W12586  42.803  30.970  11.234
47767W        W12587  31.931  28.587   0.995
47768W        W12588  33.803   0.048  12.549
47769W        W12589  30.848  16.599   0.492
47770W        W12590  28.556  35.279  12.912
47771W        W12591   9.699   3.490  11.553
47772W        W12592  37.009   5.214  14.882
47773W        W12593  22.276  34.508  13.834
47774W        W12594  44.467  19.196  14.565
47775W        W12595  24.333  40.016  12.385
47776W        W12596  32.200  44.687  12.902
47777W        W12597  17.171  15.331   3.038
47778W        W12598  14.184  42.588  13.942
47779W        W12599  14.345  17.732  13.673
47780W        W12600   8.710   8.794  10.558
47781W        W12601  19.823  27.215  11.095
47782W        W12602  19.606   3.117  11.646
47783W        W12603  33.719  20.750   2.164
47784W        W12604   1.209   5.476  13.024
47785W        W12605   9.557  36.172   1.353
47786W        W12606  36.125  29.173   1.054
47787W        W12607  21.953   6.131   2.247
47788W        W12608  13.900  42.007  13.388
47789W        W12609  25.463  13.777   1.995
47790W        W12610  11.484  39.177  12.096
47791W        W12611  14.804  43.973   1.635
47792W        W12612  43.366  11.624   3.135
47793W        W12613  11.643  22.482   3.878
47794W        W12614  21.178   2.669   3.736
47795W        W12615  25.725  31.142  13.634
47796W        W12616  41.735  44.927   3.326
47797W        W12617  17.569  26.032   3.301
47798W        W12618  38.079  32.226  13.482
47799W        W12619   8.662  24.329   0.966
47800W        W12620   9.902  37.359  11.545
47801W        W12621  29.174  11.996   3.094
47802W        W12622  25.400  14.161  10.791
47803W        W12623   7.789   3.918   3.614
47804W        W12624  28.259   0.385  10.796
47805W        W12625  21.957   7.967  11.439
47806W        W12626  23.668  18.784  11.570
47807W        W12627  12.320   1.010  11.190
47808W        W12628   0.695  18.804   4.258
47809W        W12629  26.189  13.344   0.880
47810W        W12630  39.787  38.550  14.846
47811W        W12631  16.684  15.613   4.657
47812W        W12632  26.593  30.054  13.032
47813W        W12633  17.395  36.949  14.250
47814W        W12634  30.930  24.566   1.856
47815W        W12635   2.866  14.901  10.769
47816W        W12636   7.856  37.284  12.011
47817W        W12637   3.369  15.303  12.659
47818W        W12638  16.492  19.270   1.135
47819W        W12639   0.165  19.845  13.469
47820W        W12640  18.668  30.402   2.773
47821W        W12641  24.961   7.099   4.476
47822W        W12642  43.100  30.059  12.347
47823W        W12643  26.740   2.366  13.758
47824W        W12644  33.602  40.037  14.396
47825W        W12645  38.786   1.730  12.417
47826W        W12646   7.121  38.037   0.776
47827W        W12647   7.768   6.895  14.243
47828W        W12648  12.351  39.676   3.222
47829W        W12649  18.632  44.011  14.246
47830W        W12650  19.483  19.715  12.056
47831W        W12651  17.216  31.671  12.016
47832W        W12652  22.711  23.041  14.600
47833W        W12653   6.725  17.881   2.957
47834W        W12654  10.901  38.352  13.472
47835W        W12655  26.644  42.704   9.807
47836W        W12656   7.695  29.201   2.705
47837W        W12657  14.848  26.690  13.181
47838W        W12658   3.363  35.151  14.286
47839W        W12659  30.105  35.637   2.668
47840W        W12660  38.605  28.555  12.646
47841W        W12661  36.891  15.093  13.789
47842W        W12662  34.905   5.167   3.249
47843W        W12663  12.293  21.038   1.921
47844W        W12664  41.252  17.273   3.128
47845W        W12665  10.758  17.737  11.549
47846W        W12666  18.079  25.723   0.346
47847W        W12667  15.050  27.518   0.798
47848W        W12668  40.058  30.810   1.752
47849W        W12669  32.075  39.498  14.084
47850W        W12670   9.175  25.895  11.607
47851W        W12671   2.036   7.768  13.007
47852W        W12672  41.846  40.525   1.426
47853W        W12673  31.639  38.246  13.017
47854W        W12674   0.919   2.445  14.294
47855W        W12675  42.965   6.842   1.219
47856W        W12676   1.444  17.890   4.617
47857W        W12677   6.267   4.314   0.757
47858W        W12678  12.795  22.253   0.275
47859W        W12679   2.516  35.004  10.702
47860W        W12680   5.241  39.402   3.675
47861W        W12681  41.277  18.974  14.439
47862W        W12682   5.438  42.316  13.421
47863W        W12683  42.913  33.080  12.956
47864W        W12684   2.862  33.401  13.577
47865W        W12685  24.273  35.402  12.653
47866W        W12686  14.092  10.890  11.921
47867W        W12687  11.692   6.169  14.275
47868W        W12688  39.928  13.838  11.478
47869W        W12689  17.710  34.857   5.418
47870W        W12690  29.128  28.945  12.062
47871W        W12691  15.348  30.388  11.722
47872W        W12692   7.152  12.633  13.643
47873W        W12693  32.999  42.141  11.201
47874W        W12694  15.862  39.289   3.302
47875W        W12695   1.312  17.874  13.390
47876W        W12696  41.572   9.101   0.292
47877W        W12697  10.135  30.102   9.780
47878W        W12698   7.151   4.026   1.870
47879W        W12699  40.225  16.760   4.191
47880W        W12700  43.681   9.753  14.384
47881W        W12701  42.266  10.325   2.638
47882W        W12702  11.313  16.604   1.872
47883W        W12703   6.003   0.897   3.104
47884W        W12704  44.769  24.501   3.044
47885W        W12705  14.244  16.325  12.091
47886W        W12706  31.179  19.971  11.171
47887W        W12707   0.223  27.356  12.762
47888W        W12708  36.132  16.517   3.405
47889W        W12709   4.927  44.547   4.947
47890W        W12710  43.831  26.602  13.366
47891W        W12711   4.367  20.092   0.257
47892W        W12712  20.082   0.998  11.964
47893W        W12713  43.929  44.420  12.520
47894W        W12714  36.831  32.207   0.753
47895W        W12715  36.844  29.446  12.993
47896W        W12716  39.853  43.392   2.347
47897W        W12717   1.844  20.771   3.142
47898W        W12718  43.763   8.826  14.915
47899W        W12719  17.615  36.015  14.691
47900W        W12720   2.399  24.137   1.299
47901W        W12721  44.031  20.281   1.909
47902W        W12722  44.068  39.477   4.697
47903W        W12723  41.124  25.500  10.622
47904W        W12724   9.720  30.651   1.369
47905W        W12725  43.240  29.080   3.054
47906W        W12726  22.083   9.648   0.886
47907W        W12727  40.351  19.079   4.340
47908W        W12728  38.395  27.708   3.521
47909W        W12729  40.316  13.771  14.340
47910W        W12730  18.349  18.559  14.823
47911W        W12731  11.741  22.469   5.341
47912W        W12732  35.852  18.104  12.919
47913W        W12733  12.169   2.947  13.624
47914W        W12734  41.067  36.317  13.375
47915W        W12735  16.806   3.488   0.491
47916W        W12736  16.725  44.800  14.240
47917W        W12737  28.503  18.755  11.482
47918W        W12738   3.484  10.858   4.343
47919W        W12739  17.529   7.198  14.023
47920W        W12740   3.852  17.336   4.019
47921W        W12741  36.515   5.423   3.304
47922W        W12742   4.289  32.464   4.174
47923W        W12743  37.109  13.826  13.673
47924W        W12744  10.660  20.895   2.357
47925W        W12745  19.524  21.550  13.983
47926W        W12746  41.216  30.397   4.651
47927W        W12747  12.848  11.142  12.100
47928W        W12748  34.378  37.599  10.738
47929W        W12749  11.588  44.469   0.283
47930W        W12750  16.054   4.318  13.435
47931W        W12751   5.269   9.986   3.671
47932W        W12752  34.434  32.385  11.487
47933W        W12753  38.919  10.090  13.776
47934W        W12754  40.966   4.303  13.383
47935W        W12755   1.172  39.982  14.376
47936W        W12756  26.238   1.261  10.700
47937W        W12757  18.055  29.939   0.725
47938W        W12758  28.689  28.193  14.933
47939W        W12759  43.919  37.954  13.669
47940W        W12760  23.993  11.295  13.948
47941W        W12761  33.794   1.866  13.740
47942W        W12762  42.844  28.741   3.110
47943W        W12763   3.618  44.138  10.142
47944W        W12764  38.855  12.300   1.801
47945W        W12765   9.566   9.782   1.712
47946W        W12766  38.351   6.430  11.608
47947W        W12767   9.653  37.641   3.230
47948W        W12768  30.336   0.280  10.670
47949W        W12769   1.536   8.357  14.043
47950W        W12770  43.507   0.168   4.138
47951W        W12771   3.036   3.882  13.906
47952W        W12772  13.307   3.924   4.285
47953W        W12773   9.011  40.450   0.684
47954W        W12774  20.509  27.426   1.989
47955W        W12775   1.746  43.772   2.350
47956W        W12776  14.062  21.097   1.276
47957W        W12777  39.783  14.728  11.212
47958W        W12778  37.111   1.695   3.750
47959W        W12779   4.291  16.536  13.502
47960W        W12780   6.937  39.782   0.315
47961W        W12781  20.598  12.326   3.160
47962W        W12782  15.673   3.639   4.353
47963W        W12783  27.757   8.632  14.055
47964W        W12784  16.837  44.900  14.748
47965W        W12785   1.042  19.321   1.911
47966W        W12786  17.351  32.511  13.658
47967W        W12787   7.398  32.072   4.059
47968W        W12788  43.810  22.922  10.921
47969W        W12789   5.067  18.864   1.375
47970W        W12790  23.215  22.699  12.435
47971W        W12791   9.701  33.094  14.046
47972W        W12792   8.633  41.964   1.965
47973W        W12793  31.123  17.301  13.421
47974W        W12794  17.636  22.100   3.143
47975W        W12795  17.675  41.002   1.642
47976W        W12796  15.840   2.063  12.979
47977W        W12797  26.427  17.179   3.939
47978W        W12798  36.124  44.255  11.641
47979W        W12799  30.334  44.813   1.695
47980W        W12800  23.601  43.846  10.872
47981W        W12801  41.767   3.234   0.289
47982W        W12802   7.426   1.960  11.088
47983W        W12803  16.774  23.936  14.314
47984W        W12804  35.848   5.763  13.403
47985W        W12805  26.743   5.256  14.171
47986W        W12806  25.127  14.067   0.332
47987W        W12807  14.868  37.001  11.669
47988W        W12808  23.715  30.375   2.284
47989W        W12809  18.287  34.410   0.980
47990W        W12810  17.071  15.510  12.282
47991W        W12811   2.065  27.132  12.881
47992W        W12812  27.098  17.302  14.056
47993W        W12813  31.842   0.541  11.836
47994W        W12814  22.740  24.198  11.671
47995W        W12815   0.268  24.566   3.211
47996W        W12816  42.548  34.676   3.212
47997W        W12817  43.546  23.515   2.641
47998W        W12818  41.725   6.390  12.467
47999W        W12819   3.759   3.014  13.752
48000W        W12820  29.739   3.019   0.709
48001W        W12821  29.517  39.843  13.243
48002W        W12822  17.492  25.656  14.083
48003W        W12823  39.535  29.978   2.751
48004W        W12824  13.674  26.008   9.912
48005W        W12825  35.471  39.206   4.192
48006W        W12826  42.434  27.739   1.944
48007W        W12827  32.404  28.493  13.018
48008W        W12828  13.727   6.359  13.965
48009W        W12829  40.067  14.132   3.304
48010W        W12830  44.066   5.372  14.415
48011W        W12831  31.848  11.631  13.263
48012W        W12832  32.118  13.669   3.641
48013W        W12833   4.875   3.653  11.375
48014W        W12834  18.174  19.828   3.167
48015W        W12835  26.986  29.374   1.438
48016W        W12836  35.880  38.845   2.308
48017W        W12837  44.518  16.512  14.768
48018W        W12838  16.856  31.571  12.936
48019W        W12839  37.166  21.799   0.879
48020W        W12840  40.994   9.288  14.415
48021W        W12841  24.422  35.490   2.427
48022W        W12842  30.460  23.565   5.034
48023W        W12843  42.701  19.744   3.623
48024W        W12844  39.942  16.318   0.289
48025W        W12845  37.388  37.871  14.993
48026W        W12846  15.796  28.173   4.715
48027W        W12847  40.951  30.524   3.651
48028W        W12848  24.449  32.915   4.016
48029W        W12849   8.691  20.912  14.054
48030W        W12850  17.114  36.501   0.495
48031W        W12851   7.826  40.016  11.490
48032W        W12852  12.391   5.468  13.656
48033W        W12853  10.691  33.315   3.675
48034W        W12854  10.687   3.988   2.683
48035W        W12855   6.305  42.310   0.748
48036W        W12856   0.025  17.104   1.776
48037W        W12857  29.384  12.811  13.389
48038W        W12858  22.048  26.765  10.775
48039W        W12859  44.324  31.855   2.776
48040W        W12860  42.194  37.935  13.114
48041W        W12861  13.625  29.071  12.306
48042W        W12862  11.811  43.077  12.907
48043W        W12863  11.826   1.068   0.950
48044W        W12864  23.642  26.655  11.902
48045W        W12865  28.618  10.349  13.097
48046W        W12866   8.485   9.825  14.328
48047W        W12867  11.734  32.712   2.747
48048W        W12868  36.061  31.473   2.908
48049W        W12869  29.822  10.307   2.412
48050W        W12870  21.622  27.832  12.469
48051W        W12871  22.310  14.253   4.411
48052W        W12872  31.588  18.341   2.597
48053W        W12873  30.424   8.155   1.350
48054W        W12874  35.923  33.378  13.398
48055W        W12875  28.885  21.485   0.272
48056W        W12876  21.282  32.961   4.454
48057W        W12877  23.769  38.356   0.402
48058W        W12878  40.765   1.685  13.017
48059W        W12879  28.217  21.529  14.397
48060W        W12880   5.538   9.668  14.880
48061W        W12881  10.391   5.400   2.298
48062W        W12882  33.044  40.038   2.369
48063W        W12883  44.847  38.251   0.069
48064W        W12884  13.329  22.930   4.249
48065W        W12885  27.508  17.485  14.795
48066W        W12886  10.298  38.757   1.406
48067W        W12887   1.688  30.877   0.812
48068W        W12888   6.715   8.671   3.169
48069W        W12889   1.410  37.150   4.091
48070W        W12890   8.936  10.013  14.537
48071W        W12891  19.121  40.673   0.285
48072W        W12892   4.621   0.888   3.698
48073W        W12893  23.630  11.246  11.915
48074W        W12894  19.427  18.097   4.327
48075W        W12895  28.669   2.676   0.078
48076W        W12896   0.725  26.148   0.752
48077W        W12897   8.298   9.558  13.405
48078W        W12898  33.108  19.679   1.032
48079W        W12899  36.548  25.330   9.762
48080W        W12900  14.668  43.200  13.419
48081W        W12901   2.009   2.899  10.822
48082W        W12902  10.865   5.057  14.483
48083W        W12903  16.871  31.898  12.356
48084W        W12904   4.058  17.196   0.733
48085W        W12905  42.237   1.469   2.040
48086W        W12906  39.397  37.303  13.138
48087W        W12907  39.137  21.778   0.166
48088W        W12908  33.022   6.512  13.462
48089W        W12909  19.306   2.945  10.470
48090W        W12910  11.728  16.746  10.780
48091W        W12911   7.599  27.152  14.357
48092W        W12912   5.730  41.225  14.374
48093W        W12913  43.418  20.182  12.085
48094W        W12914   2.498  25.793  11.207
48095W        W12915  30.866  38.460   4.311
48096W        W12916   7.531  18.643   2.356
48097W        W12917   8.145   7.783   3.622
48098W        W12918  40.093  18.740  11.687
48099W        W12919   5.194  29.698   2.240
48100W        W12920   9.078  13.233  11.119
48101W        W12921  39.259  23.520  12.387
48102W        W12922   8.864  32.040  14.837
48103W        W12923  42.985   8.262   1.125
48104W        W12924   0.316  14.557   4.332
48105W        W12925  26.961  42.475   0.685
48106W        W12926  19.279   2.257  14.966
48107W        W12927  30.420  38.093  13.440
48108W        W12928  21.875  35.866  10.934
48109W        W12929  14.788  26.093  13.589
48110W        W12930  37.117  39.312  14.818
48111W        W12931  10.101  25.316  13.524
48112W        W12932  42.392   0.531   0.454
48113W        W12933  22.701  42.714   0.713
48114W        W12934  41.316   8.768   4.056
48115W        W12935   6.232  35.247   4.781
48116W        W12936  43.074  33.700   0.288
48117W        W12937  17.542  30.852  12.788
48118W        W12938  24.143  43.340  12.569
48119W        W12939  26.952  17.606  12.032
48120W        W12940  30.933  30.437  11.682
48121W        W12941  25.931  27.530   4.036
48122W        W12942  43.268  27.906   0.905
48123W        W12943  33.278  40.325  11.120
48124W        W12944  35.364  38.497   0.489
48125W        W12945  11.961   4.698  13.801
48126W        W12946  13.514  35.499  12.572
48127W        W12947  38.391  26.569  14.810
48128W        W12948  13.900  38.833   9.192
48129W        W12949  24.965  12.111   1.736
48130W        W12950  23.939  19.563  12.432
48131W        W12951  23.110  25.447  11.907
48132W        W12952  32.353   0.845  14.942
48133W        W12953   8.450   7.284  12.084
48134W        W12954  27.672  24.810   3.162
48135W        W12955  10.596  15.100  11.484
48136W        W12956  22.654  12.167  13.722
48137W        W12957  19.528   1.306  11.253
48138W        W12958  26.142  19.845   2.666
48139W        W12959  19.168  16.420   4.682
48140W        W12960  28.245  23.540   4.453
48141W        W12961  40.984  21.957  12.996
48142W        W12962   8.025  23.772   4.674
48143W        W12963  24.219  33.679  13.541
48144W        W12964  44.541  18.613  11.065
48145W        W12965  12.464  22.638  11.740
48146W        W12966  16.250   6.041   0.590
48147W        W12967  17.739  17.168   2.400
48148W        W12968  28.214   0.394  14.994
48149W        W12969  35.244   7.920   1.855
48150W        W12970   0.363   5.233   2.220
48151W        W12971  39.132  32.076  13.619
48152W        W12972  33.994  32.094  12.320
48153W        W12973  17.079  32.141  14.652
48154W        W12974  12.285   4.418   0.401
48155W        W12975  25.557  20.713   4.969
48156W        W12976  36.358  19.158   3.596
48157W        W12977   7.768   8.460  10.697
48158W        W12978   4.196  33.984   1.979
48159W        W12979  24.575  32.114  11.644
48160W        W12980  21.254  29.695   1.272
48161W        W12981  17.015  12.746   1.666
48162W        W12982  36.870  34.859   0.689
48163W        W12983  31.837  42.278   3.240
48164W        W12984  14.570  40.001   1.653
48165W        W12985  36.110  27.975   0.999
48166W        W12986  15.917  32.277   4.615
48167W        W12987  13.679  19.102  14.056
48168W        W12988  38.366  19.238   4.648
48169W        W12989  36.048  17.975  11.991
48170W        W12990  37.282  35.866  12.418
48171W        W12991  22.856  40.080   9.833
48172W        W12992  24.463  25.890   2.122
48173W        W12993   9.567  41.021   0.362
48174W        W12994   7.423  28.652  13.191
48175W        W12995  15.730  11.377  14.332
48176W        W12996  32.923  44.585  14.823
48177W        W12997  38.004  32.204  12.595
48178W        W12998  31.909   0.017   3.279
48179W        W12999  15.374  28.668   1.877
48180W        W13000  29.395   3.678   2.213
48181W        W13001   9.492  11.185   4.058
48182W        W13002  25.474   2.923  13.927
48183W        W13003  22.497  20.747   2.640
48184W        W13004  12.163   4.136  11.775
48185W        W13005   9.733  30.103  13.513
48186W        W13006  44.746  18.158  10.880
48187W        W13007  35.250  27.611  14.029
48188W        W13008  42.332   8.320  13.469
48189W        W13009  11.311  11.408   2.618
48190W        W13010  23.483  29.332  10.794
48191W        W13011  17.685   0.460   1.137
48192W        W13012   1.267  39.416   4.526
48193W        W13013   2.297   1.032   0.282
48194W        W13014   6.459  21.006   3.697
48195W        W13015   6.158   5.027  10.716
48196W        W13016   2.436  19.961  11.117
48197W        W13017  25.532  18.709  13.821
48198W        W13018  31.950   0.402  10.847
48199W        W13019  11.355   3.851  11.976
48200W        W13020   6.395   1.717   2.634
48201W        W13021   6.183  26.167   0.626
48202W        W13022  15.125   3.991   3.665
48203W        W13023  39.410  37.169   2.182
48204W        W13024  14.104  15.648  13.392
48205W        W13025   8.586   3.410   2.595
48206W        W13026  41.427  20.503  13.612
48207W        W13027   4.185  13.820  13.162
48208W        W13028  24.695   8.862  13.772
48209W        W13029  39.590   6.265  10.931
48210W        W13030   6.892  28.548  10.677
48211W        W13031  10.168  22.566   3.228
48212W        W13032  25.293  34.556  10.996
48213W        W13033  32.847   4.100  10.757
48214W        W13034  23.304  21.478   0.814
48215W        W13035  23.532   3.362  11.116
48216W        W13036  41.030  35.542   0.289
48217W        W13037  37.457  36.100   3.617
48218W        W13038   0.270  33.426  12.525
48219W        W13039  13.295   9.328   1.235
48220W        W13040   6.191  14.658   3.125
48221W        W13041  24.633  25.134   4.332
48222W        W13042  24.218  38.850  13.010
48223W        W13043  14.428   1.933  14.554
48224W        W13044  13.744  42.779  14.314
48225W        W13045  29.196  23.092  10.689
48226W        W13046  41.459  37.308   4.178
48227W        W13047  16.989   9.704   0.498
48228W        W13048  35.925  41.655   3.052
48229W        W13049  16.233  29.162   4.941
48230W        W13050  34.089  28.176   1.934
48231W        W13051  21.634   4.474  13.088
48232W        W13052   2.350  41.159   5.058
48233W        W13053  22.791  36.968   2.905
48234W        W13054  10.157  10.788   4.560
48235W        W13055  41.003  17.043  13.832
48236W        W13056  30.752  16.450   4.661
48237W        W13057  15.780  21.252  13.999
48238W        W13058  33.179  20.459  14.807
48239W        W13059  22.682  17.327  14.753
48240W        W13060  27.670   4.308  10.631
48241W        W13061  22.816   3.422  14.052
48242W        W13062   2.303  30.425   3.350
48243W        W13063   4.847  18.701   0.912
48244W        W13064  41.840  23.946   0.363
48245W        W13065  12.903  36.619   0.488
48246W        W13066  42.825  30.176   1.198
48247W        W13067  22.114  26.555   2.672
48248W        W13068   4.338  20.338   0.713
48249W        W13069  39.333  33.626   0.241
48250W        W13070  15.249  40.940   1.449
48251W        W13071  32.103   5.721   0.844
48252W        W13072  27.240  35.879   1.440
48253W        W13073  31.564  15.760   0.971
48254W        W13074  39.897  10.335   0.331
48255W        W13075   4.997  29.736  12.842
48256W        W13076  12.215   6.875  10.541
48257W        W13077  22.539   4.502   3.377
48258W        W13078  23.650  38.328   3.091
48259W        W13079   3.648  44.348  11.284
48260W        W13080  23.566  16.522  13.026
48261W        W13081   8.144   2.339   1.649
48262W        W13082  37.951  12.086   4.992
48263W        W13083  25.616  43.776  14.387
48264W        W13084  40.989  38.806  11.609
48265W        W13085   6.301  25.753  11.678
48266W        W13086  35.594  15.867  12.074
48267W        W13087  29.480  23.562   3.296
48268W        W13088  40.825  27.394  12.464
48269W        W13089  37.873   0.929   4.704
48270W        W13090  11.099  10.589  11.255
48271W        W13091  12.324  12.654  12.778
48272W        W13092  43.044  17.740  10.703
48273W        W13093  10.452  18.563   1.151
48274W        W13094  40.015  24.131   2.404
48275W        W13095  40.853  17.257   0.753
48276W        W13096   5.211   6.467  12.145
48277W        W13097  41.313   8.168  11.873
48278W        W13098  20.913   0.273  13.907
48279W        W13099  16.149  30.843  12.878
48280W        W13100  37.607  13.736  13.746
48281W        W13101  31.122  30.484  10.224
48282W        W13102  25.496  26.104   4.638
48283W        W13103  35.564  42.802   1.795
48284W        W13104  16.037  30.605   1.896
48285W        W13105  18.413  30.630   2.367
48286W        W13106  19.363  15.281  14.869
48287W        W13107  40.926  16.249   4.648
48288W        W13108  21.468   3.606  13.214
48289W        W13109  27.658  31.078  13.102
48290W        W13110  20.808  10.747  12.048
48291W        W13111  16.554  41.832   3.288
48292W        W13112  21.971   5.277  12.963
48293W        W13113  32.342  16.305  11.810
48294W        W13114   8.992   9.984   0.468
48295W        W13115  24.087  26.246   0.742
48296W        W13116  18.613  42.742  14.770
48297W        W13117  19.560  36.356  13.995
48298W        W13118  30.323  27.327  12.471
48299W        W13119   2.209  38.464  11.181
48300W        W13120  36.583   6.785   3.671
48301W        W13121  17.189   6.194   2.579
48302W        W13122  43.909  41.802   3.661
48303W        W13123  34.323  18.949   3.856
48304W        W13124  25.111  17.193  12.535
48305W        W13125   1.449  16.741  13.590
48306W        W13126   8.365  31.058  11.753
48307W        W13127  44.313  29.749  10.398
48308W        W13128   6.883  33.177  14.988
48309W        W13129  16.692   2.384   4.127
48310W        W13130  29.393   2.179   4.129
48311W        W13131  44.731   1.745   4.582
48312W        W13132  27.947   6.413   0.650
48313W        W13133  26.941   3.273   2.903
48314W        W13134  34.059  39.246   0.406
48315W        W13135  11.787  36.114  12.435
48316W        W13136  14.098  39.066   5.001
48317W        W13137   2.457  30.000  13.881
48318W        W13138  30.471  15.255  12.793
48319W        W13139  29.887  20.298  11.646
48320W        W13140  12.795  34.110  10.289
48321W        W13141   3.867  42.547  14.819
48322W        W13142  10.809  21.812   2.247
48323W        W13143  44.641   0.434   1.833
48324W        W13144   6.182  30.618   0.369
48325W        W13145  29.672  31.054   4.132
48326W        W13146  26.922  21.111  11.124
48327W        W13147  24.482  28.932  11.955
48328W        W13148  29.226  35.402   1.861
48329W        W13149  24.850  10.883  11.943
48330W        W13150  34.090  38.315   4.933
48331W        W13151  17.217   8.200   4.187
48332W        W13152  21.066  16.210   1.395
48333W        W13153   8.260   1.995  11.479
48334W        W13154  24.120  33.408   1.802
48335W        W13155  34.071  39.004   0.876
48336W        W13156  20.870   4.167  13.414
48337W        W13157  40.234  13.155  11.241
48338W        W13158  24.700  28.095   3.094
48339W        W13159  39.335   4.061  13.354
48340W        W13160  33.018  22.087   3.687
48341W        W13161  27.914   0.899   4.545
48342W        W13162  34.857  36.007   0.347
48343W        W13163   5.055  43.867   3.297
48344W        W13164  26.825  17.902   4.434
48345W        W13165  42.830  14.717  13.599
48346W        W13166  43.446  20.244  12.742
48347W        W13167  21.145  44.962   2.589
48348W        W13168  25.413   9.961   2.742
48349W        W13169   7.019  12.535  14.433
48350W        W13170   9.067   4.465   2.281
48351W        W13171  22.766  31.551   4.134
48352W        W13172  36.359  38.622  12.875
48353W        W13173   9.869   3.418   2.808
48354W        W13174  29.797  25.389  14.491
48355W        W13175   4.549  15.316   1.411
48356W        W13176  15.793  18.860   3.354
48357W        W13177  37.239  42.853  13.555
48358W        W13178  26.771  30.766   4.797
48359W        W13179  41.452  39.086   2.905
48360W        W13180  26.165  10.410  11.040
48361W        W13181  35.899  27.202   1.420
48362W        W13182  14.554  22.270   4.346
48363W        W13183  43.692  26.738  12.902
48364W        W13184  41.514   2.678  14.099
48365W        W13185  39.985  24.151  13.847
48366W        W13186  23.143   1.981  10.988
48367W        W13187  36.054   4.371  13.217
48368W        W13188   8.430  34.494  12.119
48369W        W13189  11.291  33.827   1.326
48370W        W13190  15.141  36.996   0.747
48371W        W13191  43.727  26.153   3.640
48372W        W13192  37.135  33.957   0.909
48373W        W13193   8.556  18.256  10.727
48374W        W13194  18.225  38.554   5.614
48375W        W13195   8.012  35.179  14.189
48376W        W13196   1.332  28.411   1.510
48377W        W13197  38.607  23.930   4.288
48378W        W13198   4.210   5.698  14.869
48379W        W13199  43.940  11.899   1.801
48380W        W13200  41.798  31.600  11.973
48381W        W13201  13.883  19.327  11.581
48382W        W13202   6.585  10.116   4.288
48383W        W13203  37.346  42.739   2.234
48384W        W13204  34.729  22.265  12.988
48385W        W13205  15.108   0.961   3.278
48386W        W13206  25.881  32.432  11.584
48387W        W13207  33.152  16.870   0.233
48388W        W13208   8.383  41.343  14.390
48389W        W13209  36.037   7.460  12.775
48390W        W13210  39.796  34.167  12.647
48391W        W13211  14.472  28.659  10.799
48392W        W13212  22.759  28.582   4.583
48393W        W13213  30.550   3.756  13.846
48394W        W13214  10.347  34.631  13.849
48395W        W13215  29.125  19.510   5.253
48396W        W13216  10.716   7.589   1.555
48397W        W13217  43.436  28.960   2.580
48398W        W13218  21.310  16.612   4.177
48399W        W13219  19.820  44.691  13.143
48400W        W13220   8.266  40.450   3.886
48401W        W13221   2.387  17.542  13.891
48402W        W13222  21.736  37.855  10.808
48403W        W13223   9.359  25.092  12.905
48404W        W13224  15.032  18.161  12.944
48405W        W13225  42.425  24.838  13.055
48406W        W13226  39.379  26.805   2.838
48407W        W13227  44.034  37.416   1.881
48408W        W13228  11.585   3.428   4.651
48409W        W13229  36.633   6.735   3.175
48410W        W13230  41.483  27.478   2.697
48411W        W13231   9.960  26.798   4.648
48412W        W13232  33.635  18.868  10.707
48413W        W13233   3.198  27.224  14.497
48414W        W13234  42.941  29.835  10.551
48415W        W13235  16.074  42.278  13.868
48416W        W13236   8.388  15.580  11.818
48417W        W13237  17.063  32.979   2.862
48418W        W13238  35.808  29.056   3.764
48419W        W13239  23.797  18.626  11.011
48420W        W13240  21.926  32.541  14.007
48421W        W13241  41.557  37.556  13.237
48422W        W13242  24.164  23.860  14.337
48423W        W13243   4.755  21.616   4.767
48424W        W13244  15.147  18.097  12.053
48425W        W13245   0.763  41.054   0.946
48426W        W13246  42.338  18.306   4.331
48427W        W13247  11.519   6.829   3.757
48428W        W13248  10.864  17.936   2.290
48429W        W13249  18.211  19.181  13.614
48430W        W13250  23.479  41.312   4.061
48431W        W13251  23.584   3.893   1.185
48432W        W13252  20.085  39.163  14.634
48433W        W13253  25.800   6.980  10.862
48434W        W13254  16.303  39.515   3.238
48435W        W13255  11.219  42.813   2.372
48436W        W13256  33.869  39.956   1.718
48437W        W13257   4.974  11.310   4.596
48438W        W13258  38.481   9.207   0.682
48439W        W13259  43.616  23.935  10.188
48440W        W13260  32.659  26.087  13.582
48441W        W13261  37.479   3.157   1.848
48442W        W13262  10.860  23.770  10.842
48443W        W13263  22.568   6.089  11.857
48444W        W13264  33.975  28.640  14.209
48445W        W13265  41.944  32.462   1.646
48446W        W13266  42.320  28.184   2.208
48447W        W13267  41.967   2.833  13.896
48448W        W13268  41.353  21.984  11.296
48449W        W13269  14.043  36.767   4.051
48450W        W13270   6.409  22.777  11.729
48451W        W13271  34.551  29.163   2.158
48452W        W13272   6.708  31.226   1.802
48453W        W13273  36.029  30.036   3.218
48454W        W13274  35.162  21.345   0.344
48455W        W13275  30.773  31.208   5.138
48456W        W13276   0.683   2.258  13.840
48457W        W13277  27.499  22.702  13.111
48458W        W13278   7.290  33.686   2.291
48459W        W13279  42.951  13.092   0.865
48460W        W13280   0.253  19.914  12.533
48461W        W13281  11.814  30.145  14.400
48462W        W13282  38.668  33.462  12.461
48463W        W13283  41.482   9.022   0.917
48464W        W13284  14.568  10.086   1.871
48465W        W13285  12.629  25.459   3.807
48466W        W13286  15.568   8.098  12.981
48467W        W13287  31.661  38.049   3.159
48468W        W13288  27.946   6.954   3.839
48469W        W13289  27.426  25.683   4.382
48470W        W13290  41.831  15.773  11.529
48471W        W13291  29.061  31.478   2.942
48472W        W13292  23.140  32.441  12.869
48473W        W13293  24.571  16.692  11.548
48474W        W13294  24.727   3.089  14.305
48475W        W13295  28.121  15.674  12.354
48476W        W13296  20.949  33.053   1.391
48477W        W13297  19.688  42.585   1.391
48478W        W13298  43.235   4.248  12.046
48479W        W13299  40.528   8.300   0.162
48480W        W13300  40.803  17.166   3.767
48481W        W13301  44.848  30.572   0.960
48482W        W13302  12.287  33.019  11.350
48483W        W13303  11.131  37.750  13.147
48484W        W13304  11.356  28.468   4.570
48485W        W13305  31.999   9.690  10.519
48486W        W13306  15.236  37.707   5.249
48487W        W13307  29.328  44.255  12.595
48488W        W13308  19.435  24.151  11.706
48489W        W13309  33.412  36.049   2.900
48490W        W13310  32.550  13.385   3.520
48491W        W13311  28.128  17.303   2.169
48492W        W13312  22.463  27.693   0.165
48493W        W13313  24.993  21.477   2.108
48494W        W13314  33.332  10.105   0.365
48495W        W13315  44.833  24.026  10.775
48496W        W13316  39.935  44.011   3.056
48497W        W13317   5.360   4.754  13.973
48498W        W13318   4.834  17.252   2.181
48499W        W13319  21.613  40.558   4.190
48500W        W13320  39.743  44.049  14.052
48501W        W13321  11.349  42.503  14.819
48502W        W13322  27.227   9.589   0.887
48503W        W13323  36.149  10.131  13.816
48504W        W13324  43.419  43.089  14.379
48505W        W13325  26.318   9.656  13.968
48506W        W13326  22.438  32.569  14.102
48507W        W13327  33.249  24.370  11.765
48508W        W13328  34.962  29.999  11.913
48509W        W13329  33.404  19.823   3.709
48510W        W13330  22.440  28.858  13.052
48511W        W13331  21.524  36.887  12.827
48512W        W13332   1.407  37.801   0.885
48513W        W13333  38.971  21.128   0.723
48514W        W13334  16.298  22.077   3.620
48515W        W13335   2.683  20.743   2.973
48516W        W13336  38.283  44.026   2.450
48517W        W13337  36.021   4.220  11.053
48518W        W13338  40.107  43.005   1.822
48519W        W13339  14.868  20.930  13.774
48520W        W13340  21.219  23.243  12.604
48521W        W13341  40.075  12.667  11.126
48522W        W13342  40.585  20.273  13.525
48523W        W13343  19.837  14.620  10.706
48524W        W13344  41.762  33.125  14.338
48525W        W13345  21.077   5.265  14.267
48526W        W13346  30.463  15.592  13.534
48527W        W13347  41.399  36.607  12.371
48528W        W13348  25.060  26.892  10.679
48529W        W13349  15.586  14.621  14.020
48530W        W13350  31.795  12.257   1.770
48531W        W13351  16.827  10.758   4.536
48532W        W13352  23.447  42.895   3.572
48533W        W13353  43.206  12.945   4.958
48534W        W13354  11.813   1.506  11.983
48535W        W13355  24.284  26.714  13.892
48536W        W13356  31.637  41.788   4.745
48537W        W13357  24.650  29.892  12.024
48538W        W13358  35.139  14.562  12.400
48539W        W13359  42.221   5.420   3.121
48540W        W13360   8.292  40.644  11.201
48541W        W13361   9.668  14.404   0.287
48542W        W13362   5.654  44.946  13.423
48543W        W13363  37.609  25.120   1.065
48544W        W13364  26.639  40.033  10.875
48545W        W13365  26.675   3.057  12.453
48546W        W13366   5.343   5.330  14.789
48547W        W13367   1.263  23.573   0.885
48548W        W13368  43.120  12.506  11.959
48549W        W13369  38.077  21.845   3.781
48550W        W13370  29.754  16.314  10.696
48551W        W13371  27.162  11.778  14.949
48552W        W13372   7.395  24.811   2.804
48553W        W13373   4.019  37.601   4.131
48554W        W13374  20.516   1.548   2.361
48555W        W13375  12.204   7.508  12.475
48556W        W13376  26.325   6.188   2.137
48557W        W13377  10.365   0.100  11.736
48558W        W13378   6.168  22.950  13.019
48559W        W13379  10.692  30.444   9.873
48560W        W13380  40.056  37.670   3.230
48561W        W13381  17.496  43.953   4.575
48562W        W13382  41.758  10.126  13.441
48563W        W13383  41.996  36.649   4.726
48564W        W13384  26.996   1.902  14.054
48565W        W13385  31.182  42.896  11.962
48566W        W13386  26.160  37.604  13.914
48567W        W13387  16.407  33.262  13.015
48568W        W13388  42.676  19.305  14.773
48569W        W13389  41.213   4.479  10.975
48570W        W13390  13.893  28.168   1.814
48571W        W13391  25.598  36.411  14.739
48572W        W13392  11.251  18.659  10.263
48573W        W13393  14.163  11.888   1.125
48574W        W13394  24.553  37.645  11.865
48575W        W13395  29.343  38.972  10.752
48576W        W13396  42.535  21.207   0.933
48577W        W13397  36.514  28.483   2.648
48578W        W13398   5.973  30.530  14.881
48579W        W13399  28.248   3.326  13.879
48580W        W13400  12.681  26.962   0.804
48581W        W13401  21.192  16.729  12.041
48582W        W13402  37.780  15.993  14.886
48583W        W13403  13.197  24.082   3.397
48584W        W13404  36.926  10.833   0.306
48585W        W13405   1.863  24.454   0.351
48586W        W13406   8.159  37.123   0.907
48587W        W13407  22.633  17.798  13.710
48588W        W13408  33.294   0.789  12.444
48589W        W13409  39.100   3.397  11.464
48590W        W13410  21.481  12.078   0.311
48591W        W13411  16.298   6.087  11.188
48592W        W13412   8.830  31.006   4.140
48593W        W13413  35.439  42.077   1.224
48594W        W13414  20.159  21.079   2.819
48595W        W13415  14.665  29.434   3.068
48596W        W13416  18.975  20.670   1.325
48597W        W13417  37.602  41.459  12.416
48598W        W13418   7.935  40.377   1.413
48599W        W13419   9.148  32.931  11.450
48600W        W13420   0.741  37.321  13.895
48601W        W13421  32.820  21.835  14.447
48602W        W13422  13.955  44.961  12.393
48603W        W13423  25.714  23.638  11.209
48604W        W13424   1.578  16.269  11.623
48605W        W13425  24.122  10.845  13.028
48606W        W13426  42.082   4.010   0.912
48607W        W13427  10.236   9.260   2.595
48608W        W13428  36.138  36.732  10.869
48609W        W13429  43.913  33.647   1.595
48610W        W13430  33.788  22.424   1.458
48611W        W13431  25.087  22.128   1.401
48612W        W13432  22.590  14.584   0.864
48613W        W13433  35.478  12.703  14.581
48614W        W13434  31.957  35.567  14.598
48615W        W13435  33.115  37.816  11.942
48616W        W13436   2.861  12.642  13.760
48617W        W13437  31.628  28.474   3.162
48618W        W13438   3.932   5.878  10.688
48619W        W13439  42.725  15.573   1.863
48620W        W13440  35.422   6.924  14.160
48621W        W13441  33.839  35.057  13.972
48622W        W13442  27.547  20.494  11.243
48623W        W13443  43.828  35.803   4.790
48624W        W13444  41.529  29.655  11.671
48625W        W13445  19.031   6.157  13.458
48626W        W13446  19.257  17.383   4.900
48627W        W13447  12.433   8.962  11.268
48628W        W13448  36.367  38.975   2.189
48629W        W13449  37.042  40.365  13.783
48630W        W13450  20.127  16.640  13.128
48631W        W13451  43.325  17.348  12.990
48632W        W13452  34.704  14.060  14.308
48633W        W13453  37.920  33.787   1.456
48634W        W13454   9.182  23.457   3.842
48635W        W13455  11.310  26.479  13.481
48636W        W13456  24.259  29.876  12.885
48637W        W13457  11.177  37.661  11.932
48638W        W13458  39.712   5.777  11.614
48639W        W13459  21.727  38.019  12.121
48640W        W13460  10.846  14.565  12.102
48641W        W13461  25.862  34.074   0.895
48642W        W13462  29.703  36.004   4.921
48643W        W13463  37.914  18.329   9.728
48644W        W13464  23.857  17.719   3.387
48645W        W13465  35.897  24.151  11.475
48646W        W13466  23.276  36.766  14.871
48647W        W13467  30.630  40.771   4.730
48648W        W13468  22.275  11.193   0.364
48649W        W13469  14.281   8.844   1.647
48650W        W13470  26.378  32.925   1.925
48651W        W13471  11.298   6.652   0.846
48652W        W13472  12.429  33.081   0.200
48653W        W13473   0.385   7.134  12.963
48654W        W13474   1.935  25.113   3.770
48655W        W13475  43.481  20.959   4.567
48656W        W13476  41.504  44.770   2.198
48657W        W13477  35.944  40.400   0.786
48658W        W13478   8.581  25.973   5.014
48659W        W13479  11.631   1.347  12.552
48660W        W13480   4.463  20.063  12.053
48661W        W13481  41.395  36.102  12.299
48662W        W13482  20.249  34.095  11.512
48663W        W13483  21.563  19.673   2.786
48664W        W13484  39.424  21.365  12.567
48665W        W13485  12.141  20.280  14.588
48666W        W13486  16.488  32.983  14.951
48667W        W13487  15.222  15.130   0.079
48668W        W13488  12.910   5.770   4.287
48669W        W13489   8.452  32.687  13.553
48670W        W13490  22.719  26.119   1.227
48671W        W13491  18.779  42.981   1.832
48672W        W13492   1.222  36.078   0.754
48673W        W13493   2.175  23.207  14.826
48674W        W13494  19.532   0.043   0.590
48675W        W13495  23.534  39.304  13.836
48676W        W13496   9.410  14.672   0.642
48677W        W13497   4.073  26.259  12.936
48678W        W13498   9.885  12.793   1.012
48679W        W13499   1.269  37.440   1.247
48680W        W13500  34.299  19.526  12.917
48681W        W13501  25.329  19.282   3.218
48682W        W13502  24.556  36.685  12.405
48683W        W13503  16.342  13.638  13.522
48684W        W13504  36.354   4.266  12.258
48685W        W13505  27.713  15.000  11.178
48686W        W13506  25.207   7.297  11.995
48687W        W13507  12.149  27.688  11.993
48688W        W13508   5.028  36.026   1.882
48689W        W13509  37.584  18.302   0.228
48690W        W13510  38.824  37.668   0.146
48691W        W13511  17.219   5.717   4.087
48692W        W13512  40.884  26.961   2.366
48693W        W13513  44.930  32.390   2.275
48694W        W13514  35.629  24.097  12.109
48695W        W13515   1.354  24.896  11.982
48696W        W13516  32.386  18.094  14.196
48697W        W13517  25.379   2.283   4.382
48698W        W13518   2.935   9.679   3.227
48699W        W13519  31.365  30.849   2.210
48700W        W13520   9.014  41.463  12.942
48701W        W13521  29.552  30.725   2.853
48702W        W13522  14.278  23.906  11.431
48703W        W13523  31.232  35.496   0.425
48704W        W13524  11.342  38.071   3.235
48705W        W13525  35.459  44.885   3.708
48706W        W13526  18.694  28.666   0.402
48707W        W13527   0.509  24.477   2.203
48708W        W13528  38.959  34.551   1.254
48709W        W13529  30.857   5.722   2.748
48710W        W13530  30.949  41.350  11.192
48711W        W13531  11.749  36.802  13.092
48712W        W13532  38.455   9.467  12.534
48713W        W13533  21.733  18.544   3.296
48714W        W13534   8.106  42.876   1.837
48715W        W13535   5.811  30.046   1.310
48716W        W13536  38.946  12.942   2.373
48717W        W13537  18.464  44.552  14.349
48718W        W13538  22.509  32.743   3.824
48719W        W13539  30.926   5.321   3.478
48720W        W13540  19.486  20.733   1.399
48721W        W13541  33.978  18.118  13.327
48722W        W13542  17.385  15.716  11.428
48723W        W13543   8.633  24.118   1.860
48724W        W13544  20.019  37.458  13.441
48725W        W13545  28.959  28.365  12.892
48726W        W13546   8.967   0.242   0.969
48727W        W13547  34.348  43.064  12.864
48728W        W13548   6.813  40.925   4.603
48729W        W13549  18.626  21.514   3.728
48730W        W13550  31.373  42.469   3.062
48731W        W13551  25.509  26.493  11.117
48732W        W13552  10.980   8.759   0.000
48733W        W13553  21.268   0.729   0.348
48734W        W13554  44.865  10.247  11.518
48735W        W13555  34.892   0.928  11.499
48736W        W13556  17.128  32.617  11.097
48737W        W13557   8.900  29.716   1.620
48738W        W13558   9.433   5.599  11.017
48739W        W13559  15.319  29.303  13.385
48740W        W13560  30.150  22.946   0.979
48741W        W13561  13.330  35.644   4.203
48742W        W13562  26.152  43.198  13.910
48743W        W13563   1.456  20.008  12.843
48744W        W13564  41.058  33.068  11.693
48745W        W13565  24.967  38.369   2.330
48746W        W13566   9.422   3.180   2.757
48747W        W13567  35.435   9.837  11.580
48748W        W13568  34.054  13.781  13.805
48749W        W13569  41.749  23.725   2.705
48750W        W13570  26.235  19.627   2.214
48751W        W13571  19.537  14.083   4.608
48752W        W13572  24.228   0.487   0.255
48753W        W13573   1.847  25.062  14.764
48754W        W13574   5.350  33.167   4.850
48755W        W13575   7.182  40.844   3.278
48756W        W13576  37.261  30.268  14.368
48757W        W13577  22.081  21.943   1.412
48758W        W13578  12.160  35.393   2.130
48759W        W13579  26.173  37.509   3.655
48760W        W13580  38.889  19.940   2.768
48761W        W13581  29.322  34.028   0.589
48762W        W13582  12.234   4.095  13.375
48763W        W13583   0.785  14.059  10.203
48764W        W13584  31.058  30.418  14.537
48765W        W13585  29.935  25.661   4.738
48766W        W13586  22.077   6.167   0.421
48767W        W13587  30.040  39.131  12.928
48768W        W13588  32.320   7.465  12.122
48769W        W13589   1.379  41.293  12.264
48770W        W13590  40.542   7.509   2.398
48771W        W13591  19.811  42.057   0.574
48772W        W13592  25.609   3.222   3.309
48773W        W13593  34.599  37.731   1.855
48774W        W13594  42.359  23.073  12.593
48775W        W13595  17.375  34.980   5.023
48776W        W13596  25.466  12.928  12.096
48777W        W13597  35.289  36.476   2.119
48778W        W13598   2.990   5.345   3.291
48779W        W13599  43.549  11.814  10.759
48780W        W13600  17.774   3.450  11.217
48781W        W13601  24.096  10.661  12.563
48782W        W13602  23.792  10.713   3.111
48783W        W13603  13.629   6.675   1.698
48784W        W13604  17.470  37.509  11.561
48785W        W13605   4.289  25.020   1.479
48786W        W13606  23.304  28.619  10.671
48787W        W13607   5.994   4.329   2.896
48788W        W13608  14.862   1.212  10.700
48789W        W13609  44.479   5.286  14.108
48790W        W13610  10.861  34.603  13.052
48791W        W13611  30.564   0.547   1.697
48792W        W13612  23.557   6.669  14.004
48793W        W13613  13.538  36.378   1.173
48794W        W13614  36.080   0.991   0.854
48795W        W13615  24.534  38.958   1.878
48796W        W13616  11.295  10.354   4.995
48797W        W13617  27.230  13.848  12.955
48798W        W13618  43.832   2.940   1.728
48799W        W13619  38.544  42.268   3.267
48800W        W13620  34.018  14.220   5.501
48801W        W13621  12.256  36.283   4.353
48802W        W13622  32.993   3.706  13.094
48803W        W13623  35.671  24.560   4.923
48804W        W13624  16.669   7.374  14.411
48805W        W13625  36.537  25.025   2.234
48806W        W13626  19.947  17.248   4.082
48807W        W13627  28.661   0.055   2.677
48808W        W13628   9.399  17.794   4.137
48809W        W13629  23.226  15.113   1.277
48810W        W13630  25.501   9.731   4.046
48811W        W13631  30.687  22.269   2.758
48812W        W13632   2.951  22.189  14.676
48813W        W13633  29.081  37.494   0.100
48814W        W13634  37.374  17.274   3.181
48815W        W13635  16.487  12.420  13.393
48816W        W13636  43.784  10.325   4.621
48817W        W13637  34.059  10.124   3.718
48818W        W13638  26.698  15.616   2.637
48819W        W13639  34.482  42.006   4.637
48820W        W13640   7.718  43.753  11.594
48821W        W13641   4.493  20.579   4.100
48822W        W13642  24.011  27.898  14.162
48823W        W13643  37.906  18.540  13.897
48824W        W13644   4.748   6.732   4.178
48825W        W13645  28.423   1.428  12.023
48826W        W13646  16.765  23.157  14.834
48827W        W13647   1.923  23.529   4.052
48828W        W13648  11.362  22.992  14.880
48829W        W13649  11.316  36.097   3.294
48830W        W13650  30.059  37.934  13.994
48831W        W13651  23.271  30.594   4.121
48832W        W13652  17.867   9.180   1.616
48833W        W13653  11.240  22.534   0.922
48834W        W13654  23.033   6.244   3.162
48835W        W13655  41.096  28.064  13.432
48836W        W13656  14.626  43.859  14.423
48837W        W13657   6.176   0.790   1.713
48838W        W13658   9.430  36.591  12.583
48839W        W13659   4.595  24.710  13.330
48840W        W13660  42.438  41.760   1.939
48841W        W13661  26.934   8.770   0.657
48842W        W13662  26.853  23.768   4.715
48843W        W13663  18.455  15.210  12.847
48844W        W13664  18.136  33.703   5.086
48845W        W13665  35.719  14.061   4.323
48846W        W13666   6.341  11.672  14.306
48847W        W13667   7.704  35.160   1.467
48848W        W13668  44.795  13.747   4.549
48849W        W13669  41.553  15.019  13.831
48850W        W13670  15.211  38.207   4.690
48851W        W13671  18.229  34.404  14.630
48852W        W13672  22.700  35.249  14.351
48853W        W13673  33.154  14.302  14.422
48854W        W13674  36.023  43.011   4.065
48855W        W13675  15.421  27.118   3.315
48856W        W13676  30.985   7.346  10.611
48857W        W13677  42.587   2.916   2.234
48858W        W13678  18.205   3.721   3.265
48859W        W13679   2.212   7.236   4.188
48860W        W13680  10.833  25.739   1.698
48861W        W13681  31.886  29.132   0.257
48862W        W13682  35.368  22.782   0.850
48863W        W13683  18.028   1.496  14.106
48864W        W13684  10.815  38.627  14.755
48865W        W13685  40.494  17.418   4.964
48866W        W13686   0.437   9.373   2.302
48867W        W13687  37.798   1.833   3.279
48868W        W13688  22.739  33.803  13.533
48869W        W13689  22.079  32.918   2.124
48870W        W13690  29.035  15.238   1.626
48871W        W13691  29.218   6.731  11.940
48872W        W13692  12.683  30.010   3.247
48873W        W13693  11.714  41.413  14.077
48874W        W13694   8.782  34.879   2.902
48875W        W13695  37.061  31.189   3.174
48876W        W13696  12.712  43.677   2.840
48877W        W13697   3.344  21.795   3.728
48878W        W13698  41.909  43.731  14.481
48879W        W13699   4.414  39.325   4.845
48880W        W13700  15.191  35.256  12.019
48881W        W13701  23.509  31.217   3.183
48882W        W13702  13.446  11.705   1.891
48883W        W13703  27.804   1.745  11.445
48884W        W13704  34.334  13.888   1.915
48885W        W13705   4.811  25.256  13.879
48886W        W13706  25.733  32.443   4.017
48887W        W13707   8.640  14.198   4.595
48888W        W13708  33.386   6.869  10.797
48889W        W13709   4.466   4.938   1.542
48890W        W13710   9.222  33.920   4.637
48891W        W13711   5.195  33.635   1.271
48892W        W13712  11.481  27.584  13.769
48893W        W13713  13.492  29.109   2.714
48894W        W13714  44.762  17.459  11.492
48895W        W13715  42.542   2.035  14.223
48896W        W13716  19.680   4.037   1.938
48897W        W13717  12.286  36.948   2.375
48898W        W13718  37.379   3.445  14.132
48899W        W13719  23.729  10.285  13.381
48900W        W13720  10.211  15.527   0.950
48901W        W13721  41.975  36.636  13.035
48902W        W13722   7.424  16.854  13.870
48903W        W13723  29.027   5.789   4.827
48904W        W13724  39.550  11.139  11.055
48905W        W13725  18.783  38.817   2.180
48906W        W13726   8.417  41.283   4.251
48907W        W13727  42.232  20.673   2.640
48908W        W13728  26.450   4.431  12.598
48909W        W13729  19.115   3.868  13.435
48910W        W13730   0.030  39.430   2.805
48911W        W13731  41.325  36.426   1.220
48912W        W13732  41.272  33.924  12.605
48913W        W13733  16.673  30.798   0.488
48914W        W13734   0.861   1.429  12.422
48915W        W13735  39.976  22.051   1.955
48916W        W13736  31.620  16.290   5.024
48917W        W13737  38.053  15.839   1.702
48918W        W13738  23.525   6.402  14.429
48919W        W13739  27.707  36.628   0.542
48920W        W13740  39.985  38.605   1.682
48921W        W13741  16.675  33.420   4.948
48922W        W13742  38.046  15.667  13.525
48923W        W13743  16.982  35.459   2.798
48924W        W13744   3.334  28.571  11.190
48925W        W13745  43.930  11.504  14.977
48926W        W13746  41.549  11.196   0.087
48927W        W13747  38.461  13.749  14.970
48928W        W13748   3.923   1.189  14.472
48929W        W13749  14.812  39.603  13.348
48930W        W13750   2.273  40.757   4.057
48931W        W13751   7.405  10.811  14.916
48932W        W13752  21.977  23.210  10.981
48933W        W13753  44.811   9.794  13.623
48934W        W13754   2.971  28.397   1.054
48935W        W13755  28.495  31.488   2.228
48936W        W13756  39.442  21.492  14.877
48937W        W13757  42.441  35.263   2.649
48938W        W13758  33.147  19.934   2.759
48939W        W13759  26.961  25.961   1.400
48940W        W13760  27.574   2.782   4.093
48941W        W13761  41.296  27.015   2.700
48942W        W13762   9.319  12.742   0.870
48943W        W13763  44.261   6.488   2.346
48944W        W13764   7.125  34.836  13.854
48945W        W13765   8.101  24.317  11.226
48946W        W13766   4.198   7.040  11.920
48947W        W13767  38.037  14.445  11.570
48948W        W13768  17.545  20.292  14.772
48949W        W13769   5.125   2.930  11.248
48950W        W13770  44.574  13.237  12.959
48951W        W13771  20.753  21.194  11.519
48952W        W13772   3.720  22.102  13.359
48953W        W13773  21.408  31.091  12.931
48954W        W13774  14.801  20.754   1.584
48955W        W13775  34.042   2.691   2.792
48956W        W13776  32.941   4.670  14.963
48957W        W13777  25.404  23.767   2.876
48958W        W13778  32.064  33.014   3.553
48959W        W13779  23.233   2.245  13.986
48960W        W13780  25.627  43.759  13.484
48961W        W13781  42.530  30.551  14.478
48962W        W13782  34.961   2.265  12.138
48963W        W13783  25.511  42.019  13.855
48964W        W13784  31.418  35.461   3.819
48965W        W13785  24.482  41.397  14.566
48966W        W13786   5.660  37.970   3.252
48967W        W13787  15.223   6.451   0.789
48968W        W13788   9.321  42.916   2.726
48969W        W13789  11.630  39.884  11.503
48970W        W13790  42.930  33.761  10.942
48971W        W13791  42.423  44.525  13.103
48972W        W13792  13.627   1.691   0.742
48973W        W13793  16.910   8.028   1.988
48974W        W13794  27.045  38.432   3.295
48975W        W13795  16.327  35.362  13.060
48976W        W13796  26.643  33.328  14.678
48977W        W13797  16.630  29.300   3.359
48978W        W13798   9.031  11.157  11.166
48979W        W13799  44.813  16.407  11.546
48980W        W13800  31.480  31.343   2.289
48981W        W13801  34.630  12.580  12.602
48982W        W13802   5.706  21.821  13.574
48983W        W13803  41.928  38.299  13.558
48984W        W13804  23.671   0.512   4.807
48985W        W13805  39.899  16.132   0.767
48986W        W13806  30.111   6.160   3.231
48987W        W13807  42.060  33.963  13.929
48988W        W13808  21.174   2.263  12.898
48989W        W13809  31.331   2.564  11.238
48990W        W13810  32.122  24.134   0.265
48991W        W13811  34.883  41.501   0.043
48992W        W13812  44.354   3.745  10.047
48993W        W13813   1.310  26.923   1.677
48994W        W13814  28.837  39.713   1.952
48995W        W13815  31.439  26.473   1.255
48996W        W13816  17.530   1.749  13.517
48997W        W13817  26.173  42.319  14.435
48998W        W13818  29.707  24.634   1.269
48999W        W13819  12.298  38.295   3.231
49000W        W13820  12.786   6.743   2.713
49001W        W13821   6.965  14.587  11.627
49002W        W13822  10.919   3.985  10.722
49003W        W13823  11.174  35.864   1.722
49004W        W13824   7.207  33.537   1.378
49005W        W13825  33.266  32.605   0.287
49006W        W13826  18.501   0.403   4.116
49007W        W13827  27.079  11.267  11.476
49008W        W13828  10.895  40.430   4.640
49009W        W13829   8.366  11.619   2.514
49010W        W13830  44.511  44.269   2.303
49011W        W13831  33.319  40.509  14.436
49012W        W13832  24.694   7.311  14.797
49013W        W13833  34.148  29.609  13.777
49014W        W13834   7.405  40.285  11.626
49015W        W13835  18.685  19.338  13.836
49016W        W13836  40.210   0.301  12.542
49017W        W13837  21.510  21.722  12.546
49018W        W13838  40.548  34.137  11.186
49019W        W13839   0.446  38.392   2.749
49020W        W13840  42.798  43.579   4.166
49021W        W13841  40.072  26.756  14.410
49022W        W13842  28.440   7.130   3.840
49023W        W13843  37.369  10.535  14.289
49024W        W13844  34.934   5.879   4.097
49025W        W13845  16.770  14.641  13.518
49026W        W13846  30.078   1.355   2.139
49027W        W13847  43.460  42.951  11.648
49028W        W13848  13.401   3.428   4.155
49029W        W13849  43.317  15.273   2.287
49030W        W13850  19.721  22.340   4.147
49031W        W13851  19.858  20.669  11.590
49032W        W13852  42.012   8.644   2.663
49033W        W13853  17.042  37.991   0.547
49034W        W13854  35.340  24.643  13.798
49035W        W13855  17.307  35.285  10.187
49036W        W13856   0.461  23.156   3.305
49037W        W13857  14.185   2.083   2.158
49038W        W13858  34.809  22.146   1.348
49039W        W13859  41.883  21.375   4.557
49040W        W13860  19.622   3.902  13.340
49041W        W13861  18.445  41.126   2.290
49042W        W13862  42.389  30.341   1.442
49043W        W13863   4.982  38.916  11.324
49044W        W13864  33.921   6.152  10.929
49045W        W13865  39.856  21.520   2.598
49046W        W13866  10.856   3.225   0.223
49047W        W13867   7.808  27.281  12.008
49048W        W13868  35.943  25.029  12.854
49049W        W13869  10.488  43.353   2.025
49050W        W13870   8.670  10.301   4.563
49051W        W13871  19.160  39.786  12.162
49052W        W13872   2.935   6.852   2.649
49053W        W13873  16.123  31.038   4.117
49054W        W13874   9.240   5.298  11.372
49055W        W13875  18.638  32.474  13.509
49056W        W13876  12.842  29.030   3.449
49057W        W13877  40.709  25.257   2.763
49058W        W13878  20.756  10.487  10.703
49059W        W13879  32.544  43.282   4.056
49060W        W13880   4.236  15.460   4.473
49061W        W13881  39.770  10.322  13.522
49062W        W13882  11.863  32.564   2.120
49063W        W13883  40.017  19.340   4.652
49064W        W13884  42.871  41.333   4.897
49065W        W13885  12.337  19.553   0.880
49066W        W13886  34.605  30.945   1.760
49067W        W13887  37.126  37.912   4.928
49068W        W13888  26.048  43.782  11.574
49069W        W13889  28.193   3.911   3.795
49070W        W13890  34.877  14.096  11.228
49071W        W13891  33.396  10.492  14.872
49072W        W13892  21.328   1.613   4.439
49073W        W13893   6.936  34.308   0.771
49074W        W13894   0.251  11.436   1.212
49075W        W13895  23.970  19.200   1.316
49076W        W13896  33.097   0.884   0.617
49077W        W13897  34.107   2.452   2.014
49078W        W13898  26.663   0.177  11.188
49079W        W13899  13.536  40.292  10.648
49080W        W13900  26.355  22.365  11.524
49081W        W13901  24.974  37.120   1.276
49082W        W13902  25.510  44.198  11.862
49083W        W13903   1.215  17.553   0.085
49084W        W13904   7.329  23.906   5.545
49085W        W13905  11.784  30.139   0.002
49086W        W13906   7.356   8.209  12.389
49087W        W13907   2.651  37.464  11.170
49088W        W13908   6.636  40.157   4.027
49089W        W13909  40.269  34.080   0.018
49090W        W13910  15.434  11.337  12.861
49091W        W13911   7.392  23.070   2.586
49092W        W13912  32.898  22.441  10.836
49093W        W13913  33.399  33.951  14.834
49094W        W13914  15.561  28.191   1.131
49095W        W13915  37.956   5.430  14.459
49096W        W13916  41.923  20.481   1.351
49097W        W13917  40.450   4.426  13.294
49098W        W13918  35.320   9.731   0.595
49099W        W13919  15.749   8.736   1.766
49100W        W13920  37.754  41.080  11.131
49101W        W13921  33.992  14.574  14.310
49102W        W13922   1.670  40.448   0.327
49103W        W13923  18.700  30.386  12.385
49104W        W13924  11.642  40.856   2.784
49105W        W13925  22.301   9.427   3.598
49106W        W13926   4.803   1.701  12.373
49107W        W13927  14.470  24.785  11.084
49108W        W13928  24.267   5.674  13.551
49109W        W13929   6.820  24.149   2.679
49110W        W13930  24.410   5.475   2.242
49111W        W13931  43.851  38.568  14.363
49112W        W13932   6.419  16.755  11.475
49113W        W13933  14.052  41.474  14.076
49114W        W13934  33.688  40.752   3.351
49115W        W13935  18.556  40.019   0.303
49116W        W13936  32.924  12.915   4.550
49117W        W13937  17.847  17.117  12.948
49118W        W13938  23.496  34.915  12.896
49119W        W13939  12.751   9.656  13.818
49120W        W13940  36.339  42.878   0.061
49121W        W13941  31.423  38.176  10.854
49122W        W13942  28.363   3.446   1.948
49123W        W13943  36.765  23.575  12.510
49124W        W13944  43.868  14.794  12.017
49125W        W13945  10.291   8.386   1.368
49126W        W13946  32.290   0.020   1.446
49127W        W13947  35.316  34.147   4.090
49128W        W13948  30.819  23.919   4.922
49129W        W13949  11.334   6.231  13.438
49130W        W13950  38.426  19.744  13.776
49131W        W13951  24.889   3.854  10.559
49132W        W13952  22.338   3.057   1.902
49133W        W13953  14.370  26.829  14.041
49134W        W13954  37.102  19.792   0.475
49135W        W13955   1.420  43.123   0.440
49136W        W13956  11.757  44.791  12.439
49137W        W13957  32.312  19.032  13.427
49138W        W13958  18.835  20.479   3.527
49139W        W13959  43.794  31.109   2.723
49140W        W13960  39.010  29.878   4.922
49141W        W13961  25.635  29.425   4.627
49142W        W13962   2.212  31.572  10.677
49143W        W13963  11.672  12.268  11.497
49144W        W13964  24.621  28.053   1.810
49145W        W13965  36.526  27.148  13.838
49146W        W13966  37.797  31.039  14.954
49147W        W13967  16.224  14.149  12.990
49148W        W13968  12.119  40.609  10.718
49149W        W13969  16.803  36.990   1.241
49150W        W13970  10.264  22.427  14.354
49151W        W13971   1.525  18.379   2.724
49152W        W13972   5.043  11.232  10.060
49153W        W13973  29.483   8.808  13.768
49154W        W13974  32.336  38.958  10.817
49155W        W13975  12.569  20.991   1.487
49156W        W13976  39.632  22.150  12.089
49157W        W13977   5.146  36.874  10.552
49158W        W13978  18.310  26.952  12.957
49159W        W13979   7.193  34.197   3.161
49160W        W13980  25.793   1.684   2.274
49161W        W13981   3.883  13.081   2.546
49162W        W13982  15.483  40.432  11.584
49163W        W13983  14.867  28.368  10.983
49164W        W13984  30.762   1.212  14.822
49165W        W13985  11.586   5.852  11.934
49166W        W13986   3.405   4.911  11.082
49167W        W13987  17.821  27.214   3.474
49168W        W13988  14.163  19.288   3.776
49169W        W13989  14.749  18.435  11.974
49170W        W13990  34.423  36.204  11.171
49171W        W13991  19.659  43.428  11.474
49172W        W13992   9.259   6.319   3.245
49173W        W13993  12.318   6.537  12.993
49174W        W13994   4.988  32.578  11.123
49175W        W13995  17.036   4.854   5.048
49176W        W13996  25.059  15.349  11.685
49177W        W13997  19.662  44.701  14.189
49178W        W13998  13.839  14.918   2.415
49179W        W13999  28.052  43.621  12.122
49180W        W14000  30.889  29.656   3.747
49181W        W14001   3.287   9.086  14.433
49182W        W14002  11.755  40.509  14.581
49183W        W14003  38.116   4.934   1.242
49184W        W14004   6.864  33.193   3.696
49185W        W14005   9.890  32.728   2.293
49186W        W14006  11.173  11.676  11.989
49187W        W14007  33.300  16.859   1.869
49188W        W14008  24.107  29.816  11.041
49189W        W14009  36.959  30.241  14.797
49190W        W14010  22.104   6.790   3.174
49191W        W14011   9.832   9.344   1.923
49192W        W14012  27.439  34.649   3.605
49193W        W14013  37.691  39.856  14.382
49194W        W14014   4.024   6.052  13.472
49195W        W14015  12.160  22.199   3.366
49196W        W14016   6.110  33.657  14.471
49197W        W14017  21.448  32.379   1.724
49198W        W14018  38.751  42.675  11.939
49199W        W14019  21.658  21.942   3.156
49200W        W14020   0.767  35.342   1.865
49201W        W14021   5.404   5.239  12.751
49202W        W14022  31.371   2.719  12.095
49203W        W14023  24.565  16.229   3.433
49204W        W14024  21.489  35.434   0.016
49205W        W14025  34.878  40.642  13.756
49206W        W14026  33.345  12.775   3.202
49207W        W14027  18.270  39.207  13.782
49208W        W14028  27.646  34.880  14.437
49209W        W14029  13.169  40.305   3.680
49210W        W14030   3.259   0.806   3.190
49211W        W14031  34.741  40.888   1.383
49212W        W14032   8.073  44.996  14.418
49213W        W14033   2.184  12.581   2.681
49214W        W14034  31.152  21.715  10.778
49215W        W14035   3.404  32.951   4.020
49216W        W14036  13.471  14.962  10.271
49217W        W14037   3.187  15.885   0.045
49218W        W14038  18.431  25.098   4.857
49219W        W14039   2.897  40.966  13.445
49220W        W14040  43.851  33.960   4.312
49221W        W14041  12.562   6.949   3.716
49222W        W14042  30.328  22.002   3.552
49223W        W14043  18.117   7.440  13.091
49224W        W14044  42.506  23.213  12.089
49225W        W14045  41.819  29.089   1.227
49226W        W14046  13.210  21.015  11.000
49227W        W14047  43.155   7.756  13.507
49228W        W14048  20.210   4.338   2.858
49229W        W14049  20.187  22.311   3.620
49230W        W14050  42.500  13.803   2.493
49231W        W14051   0.321  22.391   3.525
49232W        W14052  22.997   9.346   2.220
49233W        W14053  43.402  29.051  13.452
49234W        W14054  21.122  38.493   4.766
49235W        W14055  27.676  23.559   3.635
49236W        W14056  10.074  36.240   1.283
49237W        W14057  29.085  17.046  13.352
49238W        W14058  34.461  19.660  12.391
49239W        W14059  22.831   8.275  12.117
49240W        W14060   6.127   6.215  11.212
49241W        W14061  15.182  28.007  12.575
49242W        W14062  35.136  11.685  11.475
49243W        W14063  25.268  25.063   1.387
49244W        W14064   5.945  43.596  11.965
49245W        W14065  10.612  29.905   1.349
49246W        W14066  26.311  38.795  12.926
49247W        W14067  31.555  29.962  13.860
49248W        W14068  38.799  35.397  10.681
49249W        W14069   9.993  13.861  14.171
49250W        W14070  35.956  24.121   2.351
49251W        W14071   9.272   4.622   2.744
49252W        W14072   2.914  12.006   2.503
49253W        W14073  14.812  11.333  14.057
49254W        W14074  11.217  19.809  11.440
49255W        W14075   4.943  41.579  13.463
49256W        W14076  31.731   3.364  14.752
49257W        W14077  43.383   2.673   1.774
49258W        W14078  19.201   0.033  13.463
49259W        W14079   9.160   3.857  14.919
49260W        W14080  20.731  11.689   4.724
49261W        W14081   4.734  17.530  12.573
49262W        W14082  44.366   2.997   2.315
49263W        W14083  38.313   5.963  13.363
49264W        W14084  14.804  43.569   3.699
49265W        W14085   6.941  44.837  10.745
49266W        W14086  11.581  26.513   4.443
49267W        W14087   7.891  37.530  10.652
49268W        W14088  42.299  31.691   1.911
49269W        W14089  37.230  28.649   3.433
49270W        W14090  16.318  32.399  11.743
49271W        W14091  10.334  19.089   1.350
49272W        W14092  17.072  20.466  14.986
49273W        W14093  38.061  11.172  14.113
49274W        W14094  26.598   8.365   1.487
49275W        W14095  31.957  10.732  12.166
49276W        W14096   7.110  28.475  11.190
49277W        W14097  33.728  29.921   3.074
49278W        W14098  21.591  42.559   1.812
49279W        W14099  39.274  19.571   2.589
49280W        W14100  27.978  32.121  14.318
49281W        W14101  17.568  17.280   1.924
49282W        W14102  15.035   0.321   3.999
49283W        W14103  20.295   6.886   1.808
49284W        W14104  31.439  40.215   1.332
49285W        W14105  41.394   2.780   1.428
49286W        W14106  27.745   4.933   0.983
49287W        W14107  40.927  36.346  12.446
49288W        W14108  37.840   7.393   3.193
49289W        W14109  27.059  19.937  13.844
49290W        W14110   4.775  38.376   4.566
49291W        W14111  38.753  24.050  10.552
49292W        W14112  18.838  10.576   1.193
49293W        W14113   6.832  30.495   1.282
49294W        W14114  30.118  32.074  10.001
49295W        W14115  38.860  11.230   0.835
49296W        W14116  25.170   1.954  10.661
49297W        W14117  22.033  43.204   3.762
49298W        W14118   1.418   8.416   4.221
49299W        W14119  18.008   5.962   3.713
49300W        W14120  40.121  14.764   2.871
49301W        W14121  19.630  40.023  14.256
49302W        W14122  43.187  35.369  11.651
49303W        W14123  15.366  25.462  12.092
49304W        W14124   1.861  32.826  14.910
49305W        W14125  11.717   2.957  11.719
49306W        W14126  26.539  17.303   0.709
49307W        W14127  39.528  10.843   3.110
49308W        W14128  33.902  19.003   3.555
49309W        W14129   1.063   6.431  12.279
49310W        W14130  23.444  38.129  11.309
49311W        W14131  17.815   8.537   3.434
49312W        W14132  28.123  32.389   0.390
49313W        W14133  42.169  28.712  11.602
49314W        W14134  40.491  38.768  13.052
49315W        W14135  12.970   4.075   4.710
49316W        W14136  24.297   7.446  10.307
49317W        W14137   4.178   1.149  14.953
49318W        W14138   2.222  25.030  14.407
49319W        W14139  10.585  44.354  14.321
49320W        W14140   0.266  38.908  13.353
49321W        W14141  18.618  20.185   0.875
49322W        W14142  24.975  27.242   1.512
49323W        W14143  19.720  32.313  13.785
49324W        W14144  21.140  32.683  10.612
49325W        W14145  15.775   1.235  11.458
49326W        W14146   8.675   3.569   3.283
49327W        W14147   0.782   4.441  11.587
49328W        W14148  19.671   9.633   2.816
49329W        W14149  21.541  38.034  11.618
49330W        W14150   6.069  21.700  13.238
49331W        W14151  37.168  41.179  12.402
49332W        W14152  35.636  33.665   2.304
49333W        W14153  30.484  20.547  11.080
49334W        W14154   6.828  16.360   4.404
49335W        W14155  34.153  38.337   3.669
49336W        W14156  37.826  36.388   0.846
49337W        W14157   6.666  20.362   1.279
49338W        W14158  19.222  11.786  14.888
49339W        W14159  40.417   8.244  12.188
49340W        W14160  22.113  14.832   0.902
49341W        W14161   3.179  22.092   1.945
49342W        W14162   3.397  13.667  11.205
49343W        W14163  43.843   7.212   0.016
49344W        W14164  16.198   8.153   0.611
49345W        W14165  41.088  44.710   4.340
49346W        W14166  44.264  36.969   1.719
49347W        W14167   4.829   3.858  10.390
49348W        W14168  19.203   8.208   1.370
49349W        W14169  11.346  30.490   1.304
49350W        W14170  36.610  21.146  14.265
49351W        W14171  36.343  19.956  14.748
49352W        W14172  14.276   3.432  11.586
49353W        W14173   1.003   8.751   3.370
49354W        W14174  35.495  40.382   1.451
49355W        W14175  11.984  22.700  11.947
49356W        W14176  34.964  32.085   4.856
49357W        W14177  39.085  39.050   0.790
49358W        W14178  13.316  36.397   4.756
49359W        W14179   1.557  18.716   0.339
49360W        W14180  12.293  17.025  13.923
49361W        W14181  29.905  42.687  11.151
49362W        W14182   5.557   2.443  10.974
49363W        W14183  30.607   8.232  13.549
49364W        W14184  36.657   8.736  10.867
49365W        W14185   1.855  12.183   4.608
49366W        W14186   6.197  28.852   0.521
49367W        W14187  25.966  19.029  11.752
49368W        W14188  26.862  21.208   3.051
49369W        W14189   4.977  16.480  10.620
49370W        W14190  25.561   5.677  11.266
49371W        W14191  35.654   4.301   2.314
49372W        W14192  11.635  21.530  11.275
49373W        W14193  25.631  39.969   0.505
49374W        W14194  14.169   8.569   3.462
49375W        W14195   5.013  29.030   2.736
49376W        W14196   8.783  12.755   0.775
49377W        W14197  39.485   7.661   3.656
49378W        W14198   9.685  30.837  12.951
49379W        W14199  14.323  24.919   2.548
49380W        W14200  43.727  43.437   0.473
49381W        W14201   1.590  29.657   2.407
49382W        W14202  14.655  37.031   3.709
49383W        W14203  23.077  38.902  10.275
49384W        W14204  41.143  23.217   0.441
49385W        W14205  22.013   5.971   1.738
49386W        W14206   0.290  17.170   3.740
49387W        W14207  31.591   9.135   4.488
49388W        W14208   0.988  14.883  11.557
49389W        W14209  14.697  36.951  13.496
49390W        W14210   9.028   6.417   1.745
49391W        W14211  33.498   0.533  14.341
49392W        W14212  33.329  39.481   2.639
49393W        W14213  36.990  28.838   4.165
49394W        W14214   4.433   9.642   3.294
49395W        W14215  20.793  18.517   4.475
49396W        W14216  11.843  30.848  12.593
49397W        W14217  41.477  39.760   4.126
49398W        W14218  13.125  15.318  11.151
49399W        W14219  44.432  18.586  11.589
49400W        W14220   8.331  21.957  14.396
49401W        W14221  11.844  32.948   4.003
49402W        W14222  15.867  11.666   0.832
49403W        W14223  43.910  14.706   1.697
49404W        W14224   3.368  36.364   0.693
49405W        W14225  12.285   5.562  12.935
49406W        W14226   4.179   4.337   4.617
49407W        W14227  16.764  43.571  12.412
49408W        W14228   2.513  33.907   2.753
49409W        W14229  18.858  15.184   0.983
49410W        W14230  20.139  11.200   3.077
49411W        W14231   3.383  17.182   1.373
49412W        W14232   3.915  13.664  11.225
49413W        W14233  11.174  20.540  14.419
49414W        W14234  28.135  22.603   4.311
49415W        W14235  37.539  20.578  13.313
49416W        W14236   0.821  44.002   1.883
49417W        W14237  25.168  29.737   4.499
49418W        W14238   3.517  40.388  10.438
49419W        W14239  24.846  40.597  13.482
49420W        W14240  30.847  40.938  11.944
49421W        W14241  24.033  37.546   2.275
49422W        W14242  40.833   0.577   1.569
49423W        W14243   2.835  38.879   2.182
49424W        W14244  35.045  13.540   4.863
49425W        W14245  42.329   3.704   2.902
49426W        W14246  19.427  19.921   4.517
49427W        W14247  13.437  38.428   2.586
49428W        W14248  35.454  20.795  10.698
49429W        W14249   4.751  26.842   1.891
49430W        W14250  41.106  25.350  12.772
49431W        W14251  36.633  26.650   2.388
49432W        W14252  11.752   0.705  11.536
49433W        W14253  24.182  40.306   1.533
49434W        W14254   6.941  25.512   1.418
49435W        W14255   0.939  22.490   2.271
49436W        W14256   6.989  13.840  13.032
49437W        W14257  19.163  27.698   0.188
49438W        W14258   7.243   0.501   0.416
49439W        W14259  36.370  36.581   0.712
49440W        W14260  40.405   3.531  11.273
49441W        W14261   8.444  22.062  12.840
49442W        W14262   3.205  35.020  12.416
49443W        W14263  37.105  24.061   2.183
49444W        W14264   8.898   7.133  10.363
49445W        W14265   9.490   5.981   0.769
49446W        W14266   5.048   3.456  10.099
49447W        W14267  35.220   3.178  10.724
49448W        W14268  12.509  11.861   4.550
49449W        W14269  36.318   6.157  12.385
49450W        W14270   3.280  27.720  12.533
49451W        W14271   9.112  40.850   1.270
49452W        W14272  13.045  14.991   4.871
49453W        W14273  33.944   4.440   2.323
49454W        W14274   5.436  13.104   2.747
49455W        W14275  18.038  41.078  12.335
49456W        W14276  34.123  35.772   2.251
49457W        W14277  12.080  39.543   1.297
49458W        W14278   7.238  23.449   0.792
49459W        W14279  18.525  16.305   2.952
49460W        W14280   8.776  25.721   5.430
49461W        W14281   8.340   7.924  12.221
49462W        W14282   3.667  39.116  12.099
49463W        W14283  12.181  13.322  10.309
49464W        W14284  37.496  18.555   2.686
49465W        W14285  24.765  12.889  13.360
49466W        W14286  13.771  38.525  12.127
49467W        W14287   1.875   9.845  11.108
49468W        W14288  21.877  11.482  12.390
49469W        W14289   5.698  17.211   0.312
49470W        W14290  44.266   9.625   3.684
49471W        W14291   4.620  18.559   3.202
49472W        W14292  36.548  26.457   3.223
49473W        W14293   6.106  38.487  10.642
49474W        W14294  30.896  13.389  11.851
49475W        W14295  11.266  41.741  10.995
49476W        W14296  36.017  30.160  10.835
49477W        W14297  39.094   2.700   1.037
49478W        W14298  43.921  28.622   0.913
49479W        W14299  41.791  16.062   0.963
49480W        W14300   2.293  36.789   0.824
49481W        W14301  24.112  41.005  13.070
49482W        W14302  24.660  26.894  13.439
49483W        W14303  26.519   9.451   1.139
49484W        W14304   4.545  39.781  11.556
49485W        W14305   3.423   4.653   4.247
49486W        W14306   5.181  44.494   2.364
49487W        W14307  10.168  18.294  14.270
49488W        W14308   3.071  24.689   2.751
49489W        W14309  34.076  16.071   0.870
49490W        W14310   9.855  13.138  12.586
49491W        W14311   2.292  12.187  13.979
49492W        W14312  15.996  20.451   0.303
49493W        W14313  24.102  37.166   2.643
49494W        W14314   5.493  35.784   1.994
49495W        W14315  35.793  43.858   3.771
49496W        W14316  14.072  32.135  13.619
49497W        W14317  32.995   2.401   4.129
49498W        W14318  44.345   9.392   4.165
49499W        W14319  16.876  34.398  14.340
49500W        W14320  30.137  21.319  11.065
49501W        W14321  27.848   8.792  12.753
49502W        W14322   6.963  16.135   0.644
49503W        W14323  42.131  22.385   4.549
49504W        W14324  15.706  16.166  12.825
49505W        W14325  42.399  43.063  14.233
49506W        W14326  40.515  11.420   0.620
49507W        W14327  30.059  16.904  12.504
49508W        W14328  24.972   2.184  14.752
49509W        W14329  24.180  17.560   0.509
49510W        W14330  15.036   4.465   3.819
49511W        W14331  25.031  14.355  11.594
49512W        W14332  42.285   1.061  13.271
49513W        W14333   3.275  41.323   2.169
49514W        W14334  42.886  27.702   3.881
49515W        W14335  27.112  11.739   3.752
49516W        W14336  33.422  12.237  14.415
49517W        W14337  14.677  39.457  11.990
49518W        W14338  40.507  23.697  12.445
49519W        W14339  18.340  17.657  13.802
49520W        W14340  30.972  38.448   1.251
49521W        W14341  33.357  37.857  11.115
49522W        W14342  12.872  19.553   2.673
49523W        W14343  43.028  27.460   2.343
49524W        W14344  43.439  29.047   1.588
49525W        W14345  44.300  34.901  11.210
49526W        W14346  42.094  20.647  11.980
49527W        W14347  37.572   5.781  12.369
49528W        W14348  32.418   8.788   0.753
49529W        W14349  13.635  27.542  14.410
49530W        W14350   7.820  31.483  12.988
49531W        W14351  39.728  19.682  14.411
49532W        W14352  10.959   7.367  10.564
49533W        W14353  31.661  13.867   0.430
49534W        W14354  40.050   0.015  12.949
49535W        W14355  28.636   0.399  11.158
49536W        W14356  22.928  10.830  11.408
49537W        W14357  44.481  18.964  10.664
49538W        W14358   0.299  16.276  12.203
49539W        W14359  10.099  35.243  14.825
49540W        W14360  40.607   1.934   1.828
49541W        W14361   2.268  32.816  10.863
49542W        W14362  18.263  19.691   1.799
49543W        W14363  13.437  32.951  11.091
49544W        W14364   8.100   5.429   0.726
49545W        W14365  34.531   5.360   4.099
49546W        W14366  35.312   3.309   4.527
49547W        W14367  24.308  26.967   0.311
49548W        W14368  36.487  22.180   9.567
49549W        W14369  22.226   5.250  10.349
49550W        W14370  21.798   4.284  14.915
49551W        W14371  34.812   2.531  12.541
49552W        W14372  16.196  31.754  13.788
49553W        W14373  14.854  38.739  12.052
49554W        W14374  32.023  33.040   1.335
49555W        W14375  43.563  28.102   4.448
49556W        W14376  10.155  11.063  13.782
49557W        W14377  19.503   7.336  13.813
49558W        W14378  26.155  23.199   0.711
49559W        W14379  26.630  22.235  14.717
49560W        W14380  26.597   1.450   1.154
49561W        W14381  44.017   4.709   0.675
49562W        W14382  21.914  10.621  13.408
49563W        W14383  39.240  43.309  12.395
49564W        W14384  11.421  13.057  14.908
49565W        W14385  27.703  18.019   0.853
49566W        W14386   7.279  30.945  14.608
49567W        W14387  21.237  28.613   3.740
49568W        W14388   5.958  29.370  13.052
49569W        W14389  28.434  33.190   2.569
49570W        W14390   2.752  16.751   3.316
49571W        W14391  34.813  12.838  14.009
49572W        W14392  39.589  29.910  11.061
49573W        W14393  38.352  24.131   1.439
49574W        W14394  26.893   1.099  13.181
49575W        W14395  39.155   2.154  11.500
49576W        W14396  22.615  16.156   0.954
49577W        W14397   0.392  10.782   3.090
49578W        W14398  34.538  36.890   2.135
49579W        W14399   4.880  31.646  13.953
49580W        W14400  18.047   0.788   3.128
49581W        W14401   9.876  34.428   3.658
49582W        W14402   6.822  43.946  14.388
49583W        W14403  41.461   5.476   4.579
49584W        W14404  31.454  34.407  13.786
49585W        W14405  30.958   7.697  13.626
49586W        W14406  37.402  34.432   0.825
49587W        W14407  14.207   5.835  11.211
49588W        W14408  40.890  22.251   3.399
49589W        W14409  30.638  27.454   5.121
49590W        W14410  44.893  38.473  12.582
49591W        W14411  37.408  28.588   2.950
49592W        W14412  24.266  19.176   0.071
49593W        W14413   8.688  18.264   3.268
49594W        W14414  22.766  25.207   0.813
49595W        W14415  20.234   0.780  13.746
49596W        W14416  28.014  24.508  13.438
49597W        W14417  16.340  17.759  13.428
49598W        W14418   6.722  18.727   2.696
49599W        W14419   3.471  13.130   2.846
49600W        W14420   7.238  43.978   1.849
49601W        W14421  41.252  10.171  14.953
49602W        W14422  13.473   1.037  14.739
49603W        W14423   4.704   2.877   3.775
49604W        W14424  29.364  24.735   2.631
49605W        W14425  21.713  26.977  12.932
49606W        W14426   0.917  21.552   4.027
49607W        W14427   0.793  18.068  10.736
49608W        W14428   8.845   8.305  13.205
49609W        W14429  10.898  35.941  14.013
49610W        W14430  41.967  32.374  11.523
49611W        W14431  28.308   1.959  11.666
49612W        W14432  43.221  32.532   0.815
49613W        W14433  13.205  32.122   4.627
49614W        W14434   4.134   1.494   1.226
49615W        W14435  13.876  42.324   4.633
49616W        W14436   2.558  17.309  11.653
49617W        W14437  13.612  22.012   1.453
49618W        W14438  43.096  19.014  13.884
49619W        W14439  32.019  19.525  11.473
49620W        W14440  30.438  22.112   2.287
49621W        W14441   0.275  14.647   4.865
49622W        W14442  17.876  22.125   2.690
49623W        W14443  12.329  29.641   1.218
49624W        W14444  21.775  14.331  13.869
49625W        W14445  22.639   4.879   2.277
49626W        W14446  33.076  33.558   4.418
49627W        W14447  12.627   4.397  13.562
49628W        W14448  28.244   5.057   3.117
49629W        W14449  18.565   2.713   2.625
49630W        W14450  33.956  37.668  13.414
49631W        W14451  22.753  37.967   1.037
49632W        W14452   3.259  12.044   0.859
49633W        W14453  30.723   9.510   1.015
49634W        W14454  13.108   8.847   4.179
49635W        W14455   4.446  17.632  12.994
49636W        W14456   9.361  32.811   2.313
49637W        W14457  37.887  38.897  12.935
49638W        W14458   3.716  41.702  11.640
49639W        W14459   5.518   0.698   2.961
49640W        W14460  28.444  21.214   5.158
49641W        W14461   3.111  36.766  12.207
49642W        W14462  33.033  41.096   1.578
49643W        W14463   7.821  30.874   1.414
49644W        W14464  29.428  10.823   1.311
49645W        W14465  34.040  22.619   2.865
49646W        W14466  14.519  11.705   0.760
49647W        W14467  25.060   7.401   3.172
49648W        W14468  36.581   2.692   4.808
49649W        W14469   9.772   5.748  14.240
49650W        W14470   9.240  11.338   4.495
49651W        W14471  27.229  30.101  13.946
49652W        W14472  13.300  38.880  13.564
49653W        W14473  12.095  25.530   3.195
49654W        W14474  17.839  32.619   1.286
49655W        W14475  34.576  10.845  14.749
49656W        W14476  26.536  17.185   1.208
49657W        W14477  37.637  22.745   3.439
49658W        W14478  11.718  39.079   1.508
49659W        W14479  18.158  22.031   4.124
49660W        W14480  37.229  11.329   0.846
49661W        W14481  38.324  38.377  10.455
49662W        W14482   9.168   0.905  14.327
49663W        W14483  20.501  14.910  11.992
49664W        W14484  11.228  38.055  11.568
49665W        W14485   8.818   2.051   3.200
49666W        W14486  34.437   2.260  12.055
49667W        W14487   5.488  27.044   1.762
49668W        W14488  12.834   7.990   4.456
49669W        W14489   6.220  33.522   4.523
49670W        W14490  36.071  13.135   4.116
49671W        W14491   5.664   9.200  12.978
49672W        W14492  29.234  41.584  10.852
49673W        W14493  17.558  42.033  13.086
49674W        W14494  27.708  13.472  14.584
49675W        W14495   9.904  38.529   3.070
49676W        W14496   1.755   3.008   1.961
49677W        W14497  43.879  33.131   1.692
49678W        W14498  14.938   7.951  13.043
49679W        W14499  30.073  21.085  10.592
49680W        W14500  12.057  22.752  11.433
49681W        W14501  36.449   7.625   4.754
49682W        W14502  26.023  43.555   1.920
49683W        W14503  37.823  42.070  11.810
49684W        W14504  31.375  37.713  13.598
49685W        W14505  11.804   5.274   4.395
49686W        W14506  29.148  19.482  14.477
49687W        W14507  10.027  40.559  13.887
49688W        W14508  17.536  19.291  10.743
49689W        W14509  44.389  36.870   5.037
49690W        W14510  40.418  27.142  14.120
49691W        W14511  36.370  35.538   2.097
49692W        W14512  25.489  32.815  13.928
49693W        W14513   1.472   4.969  12.067
49694W        W14514  15.685  21.113  14.909
49695W        W14515  41.038  34.894  10.801
49696W        W14516  32.432   5.442  12.957
49697W        W14517  19.754  43.754  12.922
49698W        W14518  25.715  24.507   3.217
49699W        W14519  43.261  42.492   3.227
49700W        W14520  39.691  21.705  10.620
49701W        W14521  14.130   5.388   1.696
49702W        W14522   0.294  32.070   0.669
49703W        W14523  14.074  30.102   0.087
49704W        W14524   6.779  42.527   0.787
49705W        W14525  33.162  10.061   2.447
49706W        W14526  25.954  42.816   2.352
49707W        W14527  29.003  41.583   1.751
49708W        W14528  19.642  44.981  10.820
49709W        W14529  25.219  18.686  12.505
49710W        W14530  19.525  19.156   0.674
49711W        W14531  15.790  27.271  13.872
49712W        W14532  26.816  24.800   4.256
49713W        W14533  37.985   9.110   4.117
49714W        W14534  20.445  33.991   2.312
49715W        W14535  15.142  32.024  11.476
49716W        W14536   7.298  12.232  11.497
49717W        W14537  16.868   1.239   4.549
49718W        W14538  34.083  18.587   3.297
49719W        W14539  41.362   5.669  10.382
49720W        W14540  41.884   5.861   0.842
49721W        W14541   8.349  42.927  13.480
49722W        W14542  10.651  20.989   4.500
49723W        W14543   8.735  28.686  11.163
49724W        W14544  32.022  33.889  10.914
49725W        W14545  24.480  32.903   0.432
49726W        W14546  24.259   7.331  12.879
49727W        W14547  18.752   6.720  14.131
49728W        W14548  42.449  42.937  13.362
49729W        W14549   4.482  26.704  14.834
49730W        W14550  23.191  30.008  10.917
49731W        W14551   6.772   4.896   4.718
49732W        W14552   1.035  37.617  11.591
49733W        W14553   1.726  26.137  12.482
49734W        W14554  31.920   3.948  12.378
49735W        W14555  44.112  32.325  11.140
49736W        W14556  38.621  17.699  12.816
49737W        W14557  37.658  17.684   2.948
49738W        W14558  15.650  22.038  13.736
49739W        W14559   5.497  21.967  11.391
49740W        W14560  37.458   2.522  12.598
49741W        W14561  32.042   2.399  11.558
49742W        W14562  38.319  28.016  14.925
49743W        W14563  30.508  26.204  11.174
49744W        W14564  32.723  28.756  14.894
49745W        W14565   9.340  23.398  10.841
49746W        W14566  23.508  39.436  14.782
49747W        W14567  23.831  15.602  12.448
49748W        W14568   7.695   2.904  11.022
49749W        W14569  36.620  14.349  12.487
49750W        W14570  20.665  41.958   0.611
49751W        W14571   8.925  24.185   4.806
49752W        W14572  27.241  34.192  13.957
49753W        W14573   3.855  40.356  14.438
49754W        W14574  41.507  11.357   4.842
49755W        W14575  12.099   3.763  13.743
49756W        W14576  42.903  14.758  11.623
49757W        W14577  43.057  19.812  12.113
49758W        W14578  41.102   3.863  12.194
49759W        W14579  16.102  40.073   3.053
49760W        W14580   8.107  31.565  14.736
49761W        W14581  22.820   7.913  14.344
49762W        W14582  24.675  26.654   0.097
49763W        W14583   2.789  28.349   0.020
49764W        W14584  32.778  23.916  10.579
49765W        W14585  15.358  34.505  14.804
49766W        W14586  23.175  38.037   1.397
49767W        W14587  16.078  41.257   1.990
49768W        W14588   4.778  27.291   0.687
49769W        W14589  17.457  14.426   3.723
49770W        W14590  31.429  27.581  14.876
49771W        W14591  19.296  11.876   2.596
49772W        W14592   0.166  19.239  11.423
49773W        W14593   5.944  42.274   2.761
49774W        W14594  13.940  16.513   3.062
49775W        W14595  36.452  26.562  14.406
49776W        W14596  28.231  21.717   4.118
49777W        W14597  36.058  40.280   4.410
49778W        W14598  15.213  34.936  11.053
49779W        W14599   1.268   5.199   2.704
49780W        W14600   7.771  30.928   2.342
49781W        W14601  17.249  32.476   0.499
49782W        W14602  38.113   4.345  10.635
49783W        W14603  10.905  25.045   2.774
49784W        W14604  24.678  25.443  10.677
49785W        W14605  26.119   5.350   3.207
49786W        W14606  22.812  24.977  13.602
49787W        W14607   7.690   5.284   3.242
49788W        W14608  16.164  44.626  11.157
49789W        W14609  19.823   2.182   2.382
49790W        W14610   2.429  22.532  12.010
49791W        W14611  38.364  35.814   3.289
49792W        W14612  37.556  11.474   3.108
49793W        W14613  33.159  30.505  10.691
49794W        W14614  44.938  34.541   4.133
49795W        W14615  44.188  40.473   3.561
49796W        W14616  40.789  15.129   1.326
49797W        W14617  19.090   0.627  10.400
49798W        W14618  42.382  30.859  14.927
49799W        W14619  16.013  16.088   0.342
49800W        W14620  24.674  37.230  13.820
49801W        W14621  29.971  42.149   2.637
49802W        W14622  38.833  32.195   3.608
49803W        W14623   8.003   4.940   4.787
49804W        W14624  26.073   5.758  14.375
49805W        W14625  25.571   2.186  12.433
49806W        W14626  40.023   8.068   2.476
49807W        W14627  32.853   7.340  14.886
49808W        W14628  36.794  24.718  10.327
49809W        W14629  24.622  18.330   0.391
49810W        W14630   3.489  24.820   5.322
49811W        W14631  19.794  36.543   9.846
49812W        W14632  42.979   7.386  13.161
49813W        W14633  17.613   8.646   4.617
49814W        W14634   9.459  31.170   3.362
49815W        W14635  31.440   9.954   3.099
49816W        W14636   0.903  39.926  11.424
49817W        W14637  41.096   9.481   2.218
49818W        W14638  41.224  40.247   4.138
49819W        W14639  16.537  20.610  11.300
49820W        W14640  21.957  25.221   3.009
49821W        W14641  31.859  11.864  12.693
49822W        W14642  20.021  14.812   2.383
49823W        W14643   4.710  18.817   3.641
49824W        W14644  34.676  29.162  10.734
49825W        W14645  23.707  37.066   1.722
49826W        W14646  23.023  43.134   4.815
49827W        W14647  36.391  15.224   1.326
49828W        W14648  28.692  38.339  12.971
49829W        W14649  30.010  12.315   2.092
49830W        W14650  27.182   5.782   2.220
49831W        W14651  24.427  43.789  12.455
49832W        W14652   5.594  19.720  14.229
49833W        W14653  37.303   7.247   1.388
49834W        W14654  32.965  10.812  11.225
49835W        W14655   6.465  14.753  11.628
49836W        W14656  10.954   9.354  11.552
49837W        W14657   4.265  36.544  10.451
49838W        W14658  13.147   3.980   0.718
49839W        W14659  15.812  32.853  13.651
49840W        W14660  17.636  22.003  10.569
49841W        W14661   1.830  29.536   0.857
49842W        W14662   2.033  29.094   3.114
49843W        W14663  33.338   6.848   1.943
49844W        W14664  14.837  14.331   2.286
49845W        W14665   5.341  41.590  12.132
49846W        W14666  18.034  11.847  10.752
49847W        W14667   5.629  17.009   1.819
49848W        W14668  38.786   7.791   0.568
49849W        W14669   5.760  18.349  13.947
49850W        W14670   0.738  25.542   1.958
49851W        W14671  42.275  11.276   2.768
49852W        W14672  15.912  38.400  12.602
49853W        W14673  13.885  25.018  12.859
49854W        W14674  41.515  21.222  14.360
49855W        W14675  37.582  12.676   2.610
49856W        W14676  32.134   9.681   0.924
49857W        W14677   0.462  28.717  11.581
49858W        W14678  44.222  23.627  11.770
49859W        W14679  39.541   2.703   3.674
49860W        W14680  13.165  41.831   2.816
49861W        W14681   1.420  39.475   0.251
49862W        W14682  28.105   3.113  14.335
49863W        W14683  21.074  35.524  11.326
49864W        W14684  25.268  16.724   2.831
49865W        W14685  31.908   7.230  14.821
49866W        W14686   6.452   3.083   3.615
49867W        W14687  10.775  10.301   4.873
49868W        W14688  14.649  26.414   4.134
49869W        W14689  22.685  36.128   1.420
49870W        W14690  26.620  44.722   3.867
49871W        W14691  13.140  34.176   5.036
49872W        W14692   8.730  21.373  12.408
49873W        W14693  37.794   0.230  14.066
49874W        W14694  22.205  25.737  12.172
49875W        W14695  12.596   0.862  10.743
49876W        W14696  32.976  43.637  12.689
49877W        W14697  10.732  31.211   0.702
49878W        W14698  19.670  27.128   4.130
49879W        W14699   9.007  18.053  11.691
49880W        W14700  20.235  36.694   9.609
49881W        W14701  12.581  27.716   4.103
49882W        W14702  35.833  17.308   3.628
49883W        W14703   3.167  14.766   4.406
49884W        W14704  26.666  13.851   3.205
49885W        W14705  26.213   2.874  11.542
49886W        W14706   4.657   2.720  11.199
49887W        W14707   3.472  16.149   2.658
49888W        W14708   1.913   8.140   4.256
49889W        W14709  35.349   4.289  14.854
49890W        W14710  35.474  24.799  11.137
49891W        W14711  33.144  28.442  13.318
49892W        W14712  33.040  28.944   2.231
49893W        W14713  41.781   6.452   1.844
49894W        W14714  30.863   9.306   2.239
49895W        W14715  19.758  25.680   3.197
49896W        W14716  38.650  38.932   1.738
49897W        W14717  30.987   5.661  12.444
49898W        W14718  43.388  29.485  10.471
49899W        W14719  28.225  38.740  11.488
49900W        W14720  20.202   1.594   1.120
49901W        W14721  15.196  23.250  12.367
49902W        W14722  33.798   7.231  11.968
49903W        W14723   4.132   0.360  13.560
49904W        W14724  22.591   3.798   3.216
49905W        W14725  44.486   7.252  12.803
49906W        W14726  27.670  36.643  14.023
49907W        W14727   9.148  38.377  14.389
49908W        W14728  19.356   6.822  10.208
49909W        W14729  34.042  21.712  13.890
49910W        W14730  21.211  11.530   4.120
49911W        W14731  17.447   0.781  14.039
49912W        W14732  24.749  44.419   3.654
49913W        W14733  19.406  24.485  10.889
49914W        W14734  40.870  14.480   2.168
49915W        W14735  31.660   4.171  11.992
49916W        W14736  28.573  16.257   3.178
49917W        W14737  36.144  31.933  10.438
49918W        W14738  16.158  42.506   4.444
49919W        W14739  31.658  42.918   1.346
49920W        W14740  26.152  15.485  14.406
49921W        W14741  26.037  35.272   3.094
49922W        W14742  14.203  40.901  11.921
49923W        W14743   5.932  17.476   0.709
49924W        W14744  25.639  20.279  12.427
49925W        W14745  27.489   6.690  14.996
49926W        W14746  42.336   0.956   2.327
49927W        W14747  44.742  31.905  10.695
49928W        W14748   5.232  15.162  12.939
49929W        W14749   5.799  39.268  11.100
49930W        W14750   9.794  40.776  12.586
49931W        W14751  11.409  28.808  12.446
49932W        W14752  43.255  24.635  12.860
49933W        W14753  21.019  20.477  13.517
49934W        W14754  32.927  41.943   3.194
49935W        W14755   3.859  11.880  12.935
49936W        W14756   5.896  15.461  13.370
49937W        W14757  10.600  10.891   0.213
49938W        W14758  44.421  23.585   0.224
49939W        W14759  21.485  41.609  14.035
49940W        W14760  42.428  29.377   1.183
49941W        W14761   0.676  10.969  11.086
49942W        W14762  24.710  41.837   4.273
49943W        W14763  23.518  41.015   2.311
49944W        W14764  41.782  12.332  12.364
49945W        W14765   5.854  34.410  11.140
49946W        W14766  34.253  36.621   2.538
49947W        W14767  13.738  20.110   4.929
49948W        W14768  41.863  30.902  12.703
49949W        W14769  40.006  19.472   2.354
49950W        W14770  37.937  37.665   4.737
49951W        W14771  40.852  39.116  14.683
49952W        W14772  32.054  19.283   1.837
49953W        W14773  22.270  44.971  10.664
49954W        W14774   3.759  15.307   4.301
49955W        W14775   3.776  40.568   1.284
49956W        W14776  42.323  33.100   1.677
49957W        W14777  19.333  43.817   4.489
49958W        W14778  21.730   1.098  12.343
49959W        W14779  21.168   4.228   3.786
49960W        W14780   4.643   0.538   4.173
49961W        W14781  10.113  42.549  13.104
49962W        W14782  31.507  13.596   4.494
49963W        W14783  41.010  30.530   3.093
49964W        W14784  24.013   5.404   0.730
49965W        W14785  37.374  31.850  12.028
49966W        W14786  13.240   3.959  13.292
49967W        W14787   3.098  17.591   1.115
49968W        W14788   3.288  17.702  11.884
49969W        W14789  22.225   7.666   1.302
49970W        W14790  12.609   6.376  14.465
49971W        W14791  33.988  37.029   0.708
49972W        W14792  17.090  42.750  12.960
49973W        W14793  44.907  39.405  14.429
49974W        W14794  15.504  35.788  11.046
49975W        W14795  43.997  10.228   1.594
49976W        W14796  31.490  11.724  12.117
49977W        W14797  20.581  26.110  12.529
49978W        W14798   5.766  14.729   1.258
49979W        W14799  33.897   8.031  11.610
49980W        W14800  25.894  25.207   2.603
49981W        W14801  35.459   7.457   0.494
49982W        W14802  16.462  40.285   2.218
49983W        W14803  11.677  19.461  10.436
49984W        W14804  38.442  29.987   1.861
49985W        W14805  25.123  19.283  13.529
49986W        W14806  44.931  30.350  11.831
49987W        W14807  19.412  26.257  13.375
49988W        W14808  22.283  37.126   4.499
49989W        W14809   0.806  38.836   5.072
49990W        W14810  26.541  42.244   3.886
49991W        W14811  26.645   0.475  11.609
49992W        W14812  43.235   9.316  11.587
49993W        W14813  28.258  25.079   4.397
49994W        W14814  31.122   0.992  10.814
49995W        W14815  32.887  26.163   9.763
49996W        W14816  20.865  18.118  14.563
49997W        W14817   4.774  35.492   1.671
49998W        W14818  34.653  42.192   3.698
49999W        W14819   9.635  23.198   4.734
50000W        W14820  36.432   3.342   5.067
50001W        W14821   5.072  10.204  10.297
50002W        W14822   6.624  33.881   0.446
50003W        W14823  19.654  19.178   1.866
50004W        W14824  39.498  16.581  13.935
50005W        W14825  30.854  18.333  11.560
50006W        W14826  26.590  16.858  10.660
50007W        W14827  27.698   6.234   1.445
50008W        W14828  11.507   6.240   3.981
50009W        W14829  20.519   1.324   0.786
50010W        W14830  16.965  32.421   3.661
50011W        W14831   2.321  22.596   1.744
50012W        W14832  27.704  26.451   0.822
50013W        W14833   4.152  24.147  14.565
50014W        W14834  11.685  20.009  11.547
50015W        W14835  25.559   6.340   3.689
50016W        W14836  37.140  22.978   2.259
50017W        W14837   8.925   7.668   4.082
50018W        W14838  15.171  23.320  13.794
50019W        W14839  22.718  42.986   1.160
50020W        W14840  28.435   4.876  10.470
50021W        W14841  17.178  28.606   3.137
50022W        W14842  14.878  18.667  13.980
50023W        W14843  11.796  26.486   0.315
50024W        W14844  21.091  39.640  14.841
50025W        W14845  28.677  19.284   5.101
50026W        W14846  10.850  40.240  11.214
50027W        W14847  40.335  33.632   4.151
50028W        W14848  10.512  30.183  12.517
50029W        W14849   9.519   4.729   1.017
50030W        W14850  38.928  14.827  13.095
50031W        W14851  37.505   5.313   0.836
50032W        W14852  36.057  20.756  14.716
50033W        W14853  30.454  27.766  13.005
50034W        W14854  42.503  43.728  13.373
50035W        W14855  44.806  44.783   4.585
50036W        W14856  39.535  20.344   2.241
50037W        W14857  34.534  18.457   5.442
50038W        W14858  35.859  38.620   4.999
50039W        W14859  25.524  27.992   4.668
50040W        W14860  13.266  18.152  12.517
50041W        W14861  35.046  13.751  13.968
50042W        W14862   3.307  12.077   1.655
50043W        W14863   1.887  11.877  11.568
50044W        W14864  10.860   0.000   0.437
50045W        W14865  23.508   1.442  12.444
50046W        W14866  30.913   8.914  12.563
50047W        W14867  41.495  42.700   4.130
50048W        W14868  40.507  36.476   1.852
50049W        W14869  27.060  42.697   1.245
50050W        W14870  27.648  15.679   2.176
50051W        W14871  20.411  26.156   2.395
50052W        W14872  28.009  25.570  11.705
50053W        W14873  10.445  40.100  12.012
50054W        W14874  16.774  35.505   5.217
50055W        W14875  13.214  31.594   0.898
50056W        W14876   1.420  44.214  14.510
50057W        W14877  20.110  38.445   1.707
50058W        W14878  13.820   8.649   1.778
50059W        W14879  10.777  41.112  14.965
50060W        W14880  10.249  30.442  14.289
50061W        W14881  33.443  38.437  11.379
50062W        W14882  38.996  18.470  10.693
50063W        W14883   6.175  36.341  14.855
50064W        W14884   3.104  20.007  12.447
50065W        W14885  23.513  35.120  13.390
50066W        W14886   0.955  23.703   4.514
50067W        W14887  18.515   1.057  12.073
50068W        W14888   6.275   5.779  11.412
50069W        W14889   4.461   4.446   1.963
50070W        W14890   0.936   8.230   4.143
50071W        W14891   5.757  20.073  12.266
50072W        W14892   4.717  19.192   0.336
50073W        W14893   6.861  16.643   0.626
50074W        W14894   5.187  11.619   1.704
50075W        W14895  30.445  34.348   4.177
50076W        W14896  31.085  39.387  13.010
50077W        W14897  29.016  35.423  13.146
50078W        W14898  25.893  32.093   2.021
50079W        W14899  31.536  29.341   2.595
50080W        W14900  34.119   2.671   0.802
50081W        W14901  30.895  10.793  13.478
50082W        W14902  20.935  11.806   1.358
50083W        W14903  39.724  34.095   2.944
50084W        W14904  35.045  32.078  12.539
50085W        W14905  13.700   6.872  11.722
50086W        W14906  33.087   4.491   1.431
50087W        W14907  17.310  39.318   3.202
50088W        W14908  20.726  35.262  12.026
50089W        W14909  13.520   2.761   4.943
50090W        W14910  43.489   4.507   0.960
50091W        W14911  13.631  22.153  13.684
50092W        W14912   6.882   0.846  11.579
50093W        W14913  21.719  29.968   1.431
50094W        W14914  39.875  24.167  12.084
50095W        W14915   8.166   2.388  13.240
50096W        W14916   3.720  36.766   3.075
50097W        W14917  35.072  42.063  13.335
50098W        W14918  20.357   6.479   2.662
50099W        W14919  20.574  21.683   1.319
50100W        W14920   1.656  26.128  11.572
50101W        W14921   0.849  36.010   1.294
50102W        W14922  33.691  43.491   0.489
50103W        W14923  34.494   5.079   0.338
50104W        W14924  22.517  28.447  14.397
50105W        W14925  14.069  22.556  14.789
50106W        W14926  40.463  29.491  10.779
50107W        W14927  28.503  18.508   3.589
50108W        W14928  25.685  39.586   0.117
50109W        W14929  12.368  39.360  12.643
50110W        W14930  38.477  13.312   0.260
50111W        W14931  42.259  16.571   3.304
50112W        W14932   1.180  25.331   2.304
50113W        W14933  17.650  35.963   3.979
50114W        W14934   1.755  32.557  14.483
50115W        W14935  17.986  18.119   4.666
50116W        W14936  16.009  22.986   0.361
50117W        W14937  35.592  10.669   2.507
50118W        W14938  25.749  21.614  13.529
50119W        W14939  12.275  31.155   0.474
50120W        W14940  27.636  40.870   3.777
50121W        W14941  35.094  21.604   2.298
50122W        W14942  34.491  39.833   2.796
50123W        W14943  29.641  32.417  13.396
50124W        W14944  12.384  36.492   4.808
50125W        W14945   8.328  15.718   0.020
50126W        W14946   6.861  30.543  12.950
50127W        W14947  25.275  14.580  11.106
50128W        W14948   9.701   2.693   4.566
50129W        W14949  38.825  39.363   3.733
50130W        W14950  23.317  29.554  11.750
50131W        W14951  15.061  38.961   3.710
50132W        W14952  24.436  25.497  11.131
50133W        W14953   6.329  33.900   3.225
50134W        W14954  16.327   0.008  12.450
50135W        W14955  39.269  26.669  11.482
50136W        W14956   3.039  25.652  11.947
50137W        W14957  37.553  10.810  13.374
50138W        W14958   5.848  15.878  14.812
50139W        W14959  13.803  44.886   4.712
50140W        W14960   8.621  11.270  10.784
50141W        W14961  22.521   5.756   0.507
50142W        W14962  15.993  13.429   0.729
50143W        W14963   1.337  39.032  10.573
50144W        W14964  38.537  13.867   0.831
50145W        W14965   1.297  30.632  10.594
50146W        W14966  44.259  42.132  13.953
50147W        W14967  37.890  11.240  11.145
50148W        W14968   6.769  38.030  13.508
50149W        W14969  41.693  38.058  13.162
50150W        W14970  27.891  36.371  13.498
50151W        W14971  35.455  17.247   1.762
50152W        W14972  24.613   3.452  13.967
50153W        W14973   8.131   0.714  13.603
50154W        W14974  33.429  11.944   1.102
50155W        W14975   9.597   1.925  14.437
50156W        W14976   7.112  17.700  10.729
50157W        W14977  27.474   8.161  12.278
50158W        W14978  36.549  38.663   1.798
50159W        W14979  19.696  21.558  12.830
50160W        W14980  25.574  20.052  14.351
50161W        W14981  44.964  26.412   4.095
50162W        W14982  31.406  30.982   1.201
50163W        W14983  34.443  12.132  14.326
50164W        W14984   1.316  43.282  11.188
50165W        W14985   5.793  42.301  14.458
50166W        W14986  38.026  35.303  13.834
50167W        W14987  29.743   1.764  10.294
50168W        W14988  16.221  27.808  13.597
50169W        W14989  36.868  30.226   3.239
50170W        W14990   8.151  34.646   1.350
50171W        W14991   8.324  32.925  11.951
50172W        W14992  34.504  13.798   0.398
50173W        W14993  32.776  21.112   4.599
50174W        W14994  10.324  22.267  11.646
50175W        W14995  25.639  16.255   2.889
50176W        W14996  41.201  41.555   3.548
50177W        W14997  18.815  40.870  10.975
50178W        W14998  33.925   9.604  11.966
50179W        W14999   0.296  34.079   0.272
50180W        W15000  26.845  38.564   2.836
50181W        W15001  41.442  13.241  13.634
50182W        W15002   6.717  24.483   3.512
50183W        W15003  37.304  24.023  10.513
50184W        W15004   8.441   4.623  12.667
50185W        W15005  29.842   1.266   4.227
50186W        W15006  14.124  38.686   4.086
50187W        W15007  31.393   2.927   3.112
50188W        W15008  19.234   2.865   1.316
50189W        W15009  25.921  41.601  13.039
50190W        W15010  41.794   1.265   1.817
50191W        W15011   8.286  22.022   1.703
50192W        W15012  35.642  36.366   0.284
50193W        W15013  16.146   2.029  11.131
50194W        W15014   8.427  39.979  14.469
50195W        W15015  34.143  28.348  11.177
50196W        W15016  35.148  26.164   1.400
50197W        W15017  42.542  35.444  12.571
50198W        W15018   7.217   7.393   1.275
50199W        W15019   9.690  37.131  11.974
50200W        W15020  36.777  36.017  12.516
50201W        W15021  40.956  32.475   1.180
50202W        W15022  18.004  28.850   1.398
50203W        W15023   5.862   2.802  13.382
50204W        W15024  41.868  16.750   1.142
50205W        W15025  36.143  24.171  13.843
50206W        W15026  39.234  20.783   0.376
50207W        W15027  42.468  26.746  12.006
50208W        W15028  24.142  16.804   4.359
50209W        W15029  29.548  31.531   3.180
50210W        W15030  39.594   5.819  13.954
50211W        W15031  36.527  34.145  11.559
50212W        W15032  34.453  37.861  13.174
50213W        W15033  42.882  12.586   4.387
50214W        W15034  22.651   1.475  13.959
50215W        W15035  42.869  44.224   1.247
50216W        W15036  39.495   6.734  14.047
50217W        W15037  35.054  15.314  14.268
50218W        W15038  30.146  14.845  12.882
50219W        W15039  32.391  26.266   2.325
50220W        W15040  12.639   0.491   4.780
50221W        W15041  19.755  26.129  14.741
50222W        W15042  12.573  10.520  12.640
50223W        W15043  25.075  29.504  10.649
50224W        W15044  39.017   0.941  11.938
50225W        W15045  42.061  13.225  11.273
50226W        W15046   2.766  29.625   4.251
50227W        W15047  25.049  32.533  14.036
50228W        W15048   1.384  17.257   1.461
50229W        W15049  36.598  32.601  13.462
50230W        W15050  15.556  20.308   2.313
50231W        W15051   2.179  11.233   4.279
50232W        W15052  15.256   2.927  10.438
50233W        W15053  42.534  20.086  11.101
50234W        W15054   7.627  18.234   0.986
50235W        W15055  19.691  38.664  13.841
50236W        W15056   3.929  33.484   1.895
50237W        W15057  35.425  19.758   1.080
50238W        W15058   4.544  16.747   4.664
50239W        W15059  11.232  44.552  13.535
50240W        W15060  22.048  36.670  11.592
50241W        W15061  21.627  14.108  10.455
50242W        W15062  36.570  32.480   2.397
50243W        W15063   3.791  22.654   2.347
50244W        W15064  20.420  36.566   5.350
50245W        W15065  34.491  14.927   3.708
50246W        W15066  24.612  30.661  10.804
50247W        W15067  12.935  41.432   3.159
50248W        W15068  27.488  42.012  13.371
50249W        W15069  42.833  32.461  10.483
50250W        W15070   0.491  19.749   4.348
50251W        W15071  41.934  36.471  14.859
50252W        W15072  23.158  42.551   0.905
50253W        W15073  32.633  21.604  13.988
50254W        W15074   6.863   6.297   0.025
50255W        W15075   7.638  28.041   1.848
50256W        W15076  17.483   2.664   2.310
50257W        W15077  22.441  19.863   2.825
50258W        W15078  17.484  30.226  12.031
50259W        W15079  24.560  10.624  12.857
50260W        W15080  30.989  16.653  13.831
50261W        W15081  41.411  42.671   0.968
50262W        W15082  16.186  43.284   1.212
50263W        W15083  43.922  12.628  12.704
50264W        W15084  29.100  25.099   0.133
50265W        W15085  14.726  34.056  14.295
50266W        W15086  16.638  18.653   1.782
50267W        W15087   2.666   7.565   3.299
50268W        W15088  23.528   9.833  14.447
50269W        W15089  34.511  20.798   2.547
50270W        W15090  34.050  29.885   4.436
50271W        W15091  18.009   8.233  13.550
50272W        W15092   1.004  39.522   0.668
50273W        W15093  25.979  16.610   5.057
50274W        W15094  41.949  13.512   0.691
50275W        W15095   0.532  41.592  14.763
50276W        W15096   2.246  36.615  10.591
50277W        W15097  40.244   1.274  14.805
50278W        W15098  44.398   8.418  14.972
50279W        W15099  33.962  41.845   4.185
50280W        W15100  30.528  27.302  10.199
50281W        W15101  10.285  40.843  14.339
50282W        W15102   3.755  13.807  13.976
50283W        W15103  41.081   2.150  12.463
50284W        W15104  10.185  25.638  10.754
50285W        W15105  17.711  13.252   2.801
50286W        W15106  17.188  41.119  13.945
50287W        W15107  23.142   7.827  14.767
50288W        W15108  12.899  30.144  13.885
50289W        W15109  34.837  30.147  11.423
50290W        W15110   5.179  38.919   3.843
50291W        W15111   5.198  30.903   4.300
50292W        W15112  27.140  38.522   2.417
50293W        W15113  41.303  30.115   3.245
50294W        W15114  23.499  23.903   4.611
50295W        W15115  21.327  11.858  14.067
50296W        W15116  23.749   5.227   1.527
50297W        W15117  12.287  34.070  10.452
50298W        W15118  24.620  34.046  14.307
50299W        W15119  26.581  31.552  12.040
50300W        W15120  43.393  35.055   1.340
50301W        W15121  39.548  44.038   4.657
50302W        W15122   2.694  18.194   4.057
50303W        W15123  10.382  25.281   2.792
50304W        W15124  13.017  44.038   1.864
50305W        W15125  17.030  12.909   4.478
50306W        W15126  32.494   1.233   0.318
50307W        W15127  36.556  32.515  10.842
50308W        W15128  43.421  35.185  12.405
50309W        W15129  17.178   7.696   0.295
50310W        W15130  22.603   8.146  13.920
50311W        W15131  40.355  39.890  13.081
50312W        W15132  12.351  27.114  14.825
50313W        W15133  11.715   3.962  11.619
50314W        W15134  34.525   8.632   4.196
50315W        W15135   0.601  14.141   2.025
50316W        W15136  36.023  39.176   0.428
50317W        W15137  37.809  23.272  14.897
50318W        W15138  14.053  36.397   1.270
50319W        W15139  30.698  23.590  13.770
50320W        W15140   4.263  21.444   2.226
50321W        W15141  28.917   8.010  12.517
50322W        W15142  41.223  30.404  13.969
50323W        W15143  12.611   5.318  11.991
50324W        W15144  22.088   7.278   2.273
50325W        W15145  32.977  12.615  11.917
50326W        W15146   6.957  38.524  14.999
50327W        W15147  25.179  14.709   4.650
50328W        W15148  28.360  41.942  11.264
50329W        W15149  39.323  24.999   3.697
50330W        W15150  41.763  17.268   4.648
50331W        W15151  40.759   4.222   4.500
50332W        W15152  33.332  33.044   0.983
50333W        W15153  40.512  12.775   3.023
50334W        W15154   2.525   0.031  12.842
50335W        W15155   7.827  38.528   2.090
50336W        W15156  13.714   0.322   0.295
50337W        W15157  13.186   2.488   2.306
50338W        W15158   0.971   5.543   4.507
50339W        W15159   4.733  38.395   0.355
50340W        W15160  14.674  38.847  14.163
50341W        W15161  34.284   5.832  11.091
50342W        W15162  37.652  40.548  13.241
50343W        W15163  40.081  12.205  13.033
50344W        W15164  29.528  38.453  11.866
50345W        W15165  18.633  26.792   3.982
50346W        W15166   2.305   3.196  14.249
50347W        W15167  32.023  23.065   4.268
50348W        W15168   0.649  22.671  13.899
50349W        W15169   4.704  23.674  13.783
50350W        W15170  35.886  42.366  13.330
50351W        W15171  39.512  44.461   1.432
50352W        W15172  28.510  43.900   1.568
50353W        W15173  28.819   6.918   0.421
50354W        W15174  15.228  26.922  10.630
50355W        W15175  41.499  31.611   1.952
50356W        W15176  37.303  35.832  11.561
50357W        W15177  20.814  38.948   0.513
50358W        W15178   2.461  10.377   1.230
50359W        W15179  24.286  24.952   5.157
50360W        W15180  20.773   7.316  11.987
50361W        W15181  28.722  33.578   0.306
50362W        W15182   9.185  26.880   4.072
50363W        W15183  22.753  16.622  14.853
50364W        W15184  15.805  27.045  13.372
50365W        W15185  14.714  15.793   1.299
50366W        W15186  42.308  18.358  12.989
50367W        W15187   3.985  11.784   4.280
50368W        W15188   3.936  23.237   1.802
50369W        W15189  25.463  21.743   2.162
50370W        W15190  39.419  15.588  14.020
50371W        W15191  34.210  24.526  14.617
50372W        W15192  27.163  38.355   1.302
50373W        W15193   8.314  17.224  13.838
50374W        W15194  36.131  17.082  13.368
50375W        W15195  10.939   6.997   2.817
50376W        W15196   5.626  19.026   1.379
50377W        W15197  41.291  34.973   1.368
50378W        W15198  29.826  13.328  12.909
50379W        W15199  17.603  32.627  10.528
50380W        W15200  16.040  27.236   4.184
50381W        W15201  10.220  14.324  12.877
50382W        W15202  37.132  42.513   3.263
50383W        W15203   4.981   6.287   3.308
50384W        W15204  10.306  32.760   9.843
50385W        W15205  34.453  26.644  11.866
50386W        W15206  44.300  36.266   3.249
50387W        W15207  18.468   7.347   1.904
50388W        W15208  31.587  36.948  14.226
50389W        W15209  40.643  10.067  10.235
50390W        W15210  37.485   6.658  13.316
50391W        W15211  40.583  43.100   2.302
50392W        W15212   7.942   9.953   4.161
50393W        W15213  43.758  34.845   0.300
50394W        W15214   5.727  24.020   1.701
50395W        W15215   9.280  39.492   3.712
50396W        W15216  23.111  28.185  13.551
50397W        W15217   1.768  22.667   1.280
50398W        W15218   5.904  14.885   1.724
50399W        W15219  13.190  20.372   1.042
50400W        W15220  18.823  13.316   4.770
50401W        W15221  12.227  10.637   2.859
50402W        W15222  22.235  17.677  12.610
50403W        W15223  31.214   3.263  14.858
50404W        W15224  20.132  25.238   2.016
50405W        W15225  23.526  12.182   1.861
50406W        W15226  35.147  22.963   2.085
50407W        W15227   8.599  31.641   0.717
50408W        W15228  37.892  18.302  14.380
50409W        W15229  21.716  44.035  13.243
50410W        W15230  34.513  34.960   1.671
50411W        W15231  21.529  32.084   2.188
50412W        W15232  29.225  31.042   3.159
50413W        W15233  20.858  12.558  10.742
50414W        W15234  42.385  40.042   4.357
50415W        W15235  25.963  40.536   4.356
50416W        W15236  32.663  41.725  13.857
50417W        W15237   3.437  38.253   3.213
50418W        W15238   5.646  18.052   1.763
50419W        W15239  29.457  28.601   4.099
50420W        W15240  27.173  44.714  12.635
50421W        W15241  42.389  20.231  12.052
50422W        W15242  39.835  15.132  10.763
50423W        W15243  26.009  36.620  13.712
50424W        W15244  41.995  35.957  13.921
50425W        W15245  11.055  26.463  11.640
50426W        W15246  23.784  39.982  14.453
50427W        W15247  40.324  10.379   2.646
50428W        W15248  19.709   6.699  13.955
50429W        W15249  39.069  10.339  12.390
50430W        W15250   8.188   1.514  12.943
50431W        W15251  37.916   1.348  11.681
50432W        W15252   4.333  11.644   2.382
50433W        W15253  19.355   5.784   2.191
50434W        W15254  43.583  15.053  11.678
50435W        W15255  13.756   4.840  13.866
50436W        W15256  42.144  12.255   3.241
50437W        W15257   8.225  30.559   4.891
50438W        W15258  24.612  27.167  10.622
50439W        W15259  11.252  32.191  13.454
50440W        W15260  20.938  44.330  14.423
50441W        W15261   0.929   1.923  12.592
50442W        W15262   3.461  23.044   1.821
50443W        W15263  23.523  20.729   2.818
50444W        W15264   0.691  36.274  13.827
50445W        W15265  16.521  14.162  13.464
50446W        W15266  44.063  43.201   0.839
50447W        W15267  27.192  13.692   0.469
50448W        W15268  26.955  15.105  14.771
50449W        W15269  43.633  40.558   4.820
50450W        W15270   6.377  42.771   0.977
50451W        W15271  38.024  27.305   2.763
50452W        W15272   0.203  36.025   0.755
50453W        W15273   0.515  25.355   1.011
50454W        W15274  26.708  29.663  10.690
50455W        W15275  28.487   9.704  13.966
50456W        W15276  33.532  22.534   2.389
50457W        W15277  44.974  39.842  14.693
50458W        W15278  41.378  31.599  11.595
50459W        W15279  15.801  35.878   1.903
50460W        W15280  11.296  40.808  12.273
50461W        W15281   1.607  41.679  12.512
50462W        W15282   4.253   7.398   4.702
50463W        W15283  27.752  29.191   1.229
50464W        W15284  20.145  44.655   3.921
50465W        W15285  28.626  29.676   3.717
50466W        W15286  19.110  18.751   3.949
50467W        W15287  21.426  35.017   4.044
50468W        W15288  13.494  23.566  11.613
50469W        W15289   2.396  43.682  12.380
50470W        W15290  10.332  30.374  12.057
50471W        W15291   2.815  18.144  13.308
50472W        W15292  17.428  20.640   1.354
50473W        W15293  41.448  24.685  13.024
50474W        W15294  21.313  44.482   0.821
50475W        W15295  24.135  36.983   1.433
50476W        W15296  15.006  42.764  11.602
50477W        W15297   4.970  27.157   4.224
50478W        W15298  30.023  32.398   4.626
50479W        W15299  15.113   8.753  12.133
50480W        W15300  24.092  14.772   3.706
50481W        W15301   4.892  14.565  12.015
50482W        W15302   0.732  20.983   2.151
50483W        W15303   4.324   7.558   3.294
50484W        W15304  18.410  20.259  14.737
50485W        W15305   3.771   7.896  13.503
50486W        W15306  14.329   7.205   1.593
50487W        W15307  43.670  29.838   1.264
50488W        W15308   7.178   0.836  13.284
50489W        W15309  39.060  14.156  14.179
50490W        W15310  34.480  41.721   3.726
50491W        W15311  26.009   0.393  14.749
50492W        W15312  25.149   1.726  12.490
50493W        W15313  14.274   0.138  11.134
50494W        W15314  14.524  19.644  11.643
50495W        W15315  17.139  26.167   0.179
50496W        W15316   8.163  38.710  13.379
50497W        W15317  29.142  39.926   2.310
50498W        W15318   9.261  11.229   1.794
50499W        W15319  34.408  28.083   3.705
50500W        W15320   2.559  25.538  13.931
50501W        W15321  34.347   5.832   2.884
50502W        W15322   3.517  24.691   9.849
50503W        W15323  20.212  35.827  11.225
50504W        W15324   5.842  10.737   4.709
50505W        W15325  16.317  43.048  12.029
50506W        W15326  30.502  19.097   3.612
50507W        W15327  43.050  18.763   0.274
50508W        W15328  13.240  36.425   5.257
50509W        W15329  12.239  13.387  13.495
50510W        W15330  17.645  13.521  14.888
50511W        W15331  40.517  27.356  11.426
50512W        W15332  32.506   0.771   1.816
50513W        W15333  30.725  22.490  11.916
50514W        W15334  18.638  15.596   0.754
50515W        W15335  20.215   7.832  13.744
50516W        W15336  20.582   6.866   3.709
50517W        W15337  40.830  25.129   0.465
50518W        W15338   0.908  31.609  11.148
50519W        W15339  40.539   4.902  14.040
50520W        W15340  41.453  28.861   3.723
50521W        W15341  30.452  12.819  13.478
50522W        W15342  20.522  14.766   3.265
50523W        W15343  15.197   7.063   1.461
50524W        W15344   5.231  21.250   4.182
50525W        W15345  24.695  41.121  10.863
50526W        W15346  39.052   3.214   0.906
50527W        W15347  33.942  43.722  11.519
50528W        W15348   7.947  21.591   0.761
50529W        W15349  21.341  23.189  14.833
50530W        W15350  20.619   5.853  11.999
50531W        W15351  17.582   5.323   4.020
50532W        W15352  32.986  37.142  11.771
50533W        W15353  40.350   8.476  14.709
50534W        W15354  43.891  16.767  10.823
50535W        W15355  21.652  17.101   0.735
50536W        W15356  39.867   6.811   3.497
50537W        W15357  40.475  10.307   0.943
50538W        W15358   2.684  15.880   1.361
50539W        W15359  34.336   6.062  13.227
50540W        W15360  15.208  33.925  13.080
50541W        W15361   0.721  17.777   0.232
50542W        W15362  41.539  20.190   4.028
50543W        W15363  35.559  41.445  14.292
50544W        W15364  35.627  38.140  11.984
50545W        W15365  27.168  39.691  14.488
50546W        W15366  37.608  32.618   4.081
50547W        W15367   3.538  30.419  10.577
50548W        W15368  32.954  28.191  13.731
50549W        W15369  10.402  40.378  10.991
50550W        W15370  18.189  39.482   4.200
50551W        W15371  44.439  37.235  10.766
50552W        W15372  25.631  38.960  13.780
50553W        W15373  23.572  38.037   2.680
50554W        W15374   2.761  27.594   2.299
50555W        W15375   8.899  10.874   2.673
50556W        W15376  35.340  21.422  13.657
50557W        W15377   4.363   7.297  13.871
50558W        W15378  28.005   6.904   0.868
50559W        W15379  37.109  31.196   0.878
50560W        W15380  16.111   6.802   1.337
50561W        W15381   4.117  18.654   3.224
50562W        W15382  14.861   9.630  12.707
50563W        W15383  35.932   5.718  12.903
50564W        W15384  37.831   2.269   4.863
50565W        W15385   4.885  23.154   0.237
50566W        W15386   8.697  30.835   2.658
50567W        W15387  15.186  20.945  14.201
50568W        W15388  37.574   9.165  12.947
50569W        W15389  36.586  16.768  14.429
50570W        W15390  18.097  13.787  12.420
50571W        W15391  24.995  22.056  12.790
50572W        W15392   8.684  37.081   0.834
50573W        W15393  17.258  33.027  10.334
50574W        W15394  23.564  34.886  11.138
50575W        W15395  41.861  37.667   0.273
50576W        W15396  37.970  40.888  13.934
50577W        W15397  24.045  33.380   0.413
50578W        W15398   1.932  16.676   4.257
50579W        W15399  20.952  18.622  14.629
50580W        W15400  24.554   6.404   1.385
50581W        W15401  44.847   0.456   3.058
50582W        W15402   3.216   5.369   0.435
50583W        W15403  10.110  19.246   3.663
50584W        W15404   1.883  25.712   4.621
50585W        W15405   8.319  40.577   2.720
50586W        W15406  23.598  16.619  13.961
50587W        W15407  16.843  11.173  12.364
50588W        W15408  14.245  36.385   4.316
50589W        W15409  37.072  42.595   1.005
50590W        W15410  25.131  10.155  13.278
50591W        W15411  21.975   1.730  11.127
50592W        W15412  10.757  42.642  10.623
50593W        W15413  44.921  20.305   1.767
50594W        W15414  25.575  44.433  12.853
50595W        W15415  36.074  44.980  14.358
50596W        W15416  37.259  19.451   2.094
50597W        W15417   9.845   8.189   4.233
50598W        W15418  23.959  37.916   9.846
50599W        W15419  21.720  31.850   2.630
50600W        W15420  17.747  24.173  14.887
50601W        W15421  43.836  24.998  12.173
50602W        W15422  27.641  13.422   4.181
50603W        W15423  29.009  11.225  14.983
50604W        W15424  29.450  29.009  12.483
50605W        W15425  32.143   5.371   2.753
50606W        W15426  41.545  35.109  14.490
50607W        W15427  23.505  41.335  14.231
50608W        W15428  17.531  41.364   3.845
50609W        W15429  33.125  36.089  12.877
50610W        W15430  35.903   3.966  10.615
50611W        W15431  36.893  13.168   3.627
50612W        W15432  15.869  11.732  11.435
50613W        W15433  39.804   4.804   3.369
50614W        W15434  43.956  13.908  13.108
50615W        W15435   8.731  11.376  12.125
50616W        W15436   7.219   9.382   2.179
50617W        W15437  34.604  36.929  10.633
50618W        W15438  11.355   6.757  14.862
50619W        W15439  20.629  13.686   2.124
50620W        W15440  37.850  35.919   4.027
50621W        W15441  26.462  18.284   2.172
50622W        W15442  42.347   3.869   1.341
50623W        W15443   2.419   4.874   0.370
50624W        W15444  28.376   0.828  11.221
50625W        W15445  17.293   2.859   9.892
50626W        W15446  15.260  23.312  13.273
50627W        W15447  27.633   7.500  12.521
50628W        W15448  31.620  43.286   3.278
50629W        W15449   0.307  33.039   0.347
50630W        W15450  24.219  27.440   2.285
50631W        W15451   4.516  18.231   2.294
50632W        W15452   0.148  21.670   4.598
50633W        W15453  39.985   0.538  12.962
50634W        W15454  41.868  31.227   4.111
50635W        W15455   8.109  23.851  10.462
50636W        W15456  20.809  26.874  12.139
50637W        W15457   3.754  28.929   0.234
50638W        W15458  30.109  39.012  13.429
50639W        W15459  29.976  34.369   1.854
50640W        W15460  17.737  34.618  14.789
50641W        W15461   6.914  10.610  14.920
50642W        W15462  31.033  22.985   3.017
50643W        W15463  29.492  36.468  14.032
50644W        W15464  25.456  31.659  10.924
50645W        W15465  24.477   5.245  12.113
50646W        W15466  25.457  36.727  10.855
50647W        W15467  17.220  39.572   9.828
50648W        W15468  31.867   6.920   2.342
50649W        W15469  10.949  25.918  14.942
50650W        W15470  21.285  40.022  12.556
50651W        W15471   1.776  23.027   3.901
50652W        W15472  33.062  23.237   4.125
50653W        W15473  19.760  31.120  13.015
50654W        W15474  30.998  37.007  14.757
50655W        W15475  16.619   7.100   1.758
50656W        W15476  18.585   7.306  13.280
50657W        W15477  36.368  43.710  12.141
50658W        W15478   6.723  35.710   0.358
50659W        W15479  39.790  29.269  10.449
50660W        W15480  11.603   4.720   2.824
50661W        W15481   4.249   0.021  12.955
50662W        W15482   5.782  16.165   4.639
50663W        W15483   0.302   0.465  11.651
50664W        W15484   9.321  19.552   1.834
50665W        W15485  20.394  22.160  11.491
50666W        W15486   2.250   2.172   4.117
50667W        W15487  32.741  24.716   2.743
50668W        W15488  22.352   7.641  13.015
50669W        W15489   9.976  31.962   1.921
50670W        W15490   1.408  38.843   3.377
50671W        W15491   7.728   9.385  14.497
50672W        W15492  43.811  29.042   4.617
50673W        W15493  27.633  28.450   4.355
50674W        W15494  37.922  38.492   0.240
50675W        W15495  38.908  15.802  12.927
50676W        W15496  24.863  17.524   3.209
50677W        W15497  25.085  27.035   1.026
50678W        W15498  13.675  13.849  11.992
50679W        W15499  12.240  25.676  13.637
50680W        W15500  38.621  42.405  12.393
50681W        W15501  42.328   0.465   4.135
50682W        W15502  17.860   1.810   0.843
50683W        W15503   7.832  38.785   1.119
50684W        W15504  41.790   0.854  13.969
50685W        W15505  35.013  25.074   2.453
50686W        W15506  19.268  44.049   0.804
50687W        W15507  38.044   9.164  12.405
50688W        W15508  44.195  27.536   3.240
50689W        W15509  35.389   5.319  12.146
50690W        W15510  36.841  42.984   3.569
50691W        W15511  37.998  31.323   2.267
50692W        W15512  15.226  44.389   1.021
50693W        W15513  36.624  16.254   0.748
50694W        W15514  13.138  35.011  13.869
50695W        W15515   0.041   9.356   0.797
50696W        W15516  11.602  40.575  14.071
50697W        W15517  23.038  22.631  11.511
50698W        W15518   7.144  12.316  10.632
50699W        W15519  14.241  42.801  14.536
50700W        W15520  39.271   4.436  12.527
50701W        W15521  35.675  39.535  12.039
50702W        W15522  12.245   0.243   3.650
50703W        W15523  34.476  14.104  13.823
50704W        W15524  25.297  19.103   3.712
50705W        W15525  28.885  36.933   2.148
50706W        W15526  16.300   8.899   2.585
50707W        W15527  33.397  19.132  14.243
50708W        W15528   2.333  22.245  12.439
50709W        W15529  28.409  29.447   4.143
50710W        W15530  39.537  11.499   2.569
50711W        W15531  32.133  35.105   2.694
50712W        W15532  42.578  37.784  14.592
50713W        W15533  30.590  37.343  10.428
50714W        W15534  21.466  28.132  10.666
50715W        W15535  16.315   0.389   2.926
50716W        W15536  42.020  12.156  13.334
50717W        W15537  26.930  31.161  12.970
50718W        W15538  28.168  13.347   4.503
50719W        W15539  34.994  23.504   2.725
50720W        W15540  13.622  28.570   3.635
50721W        W15541  24.213  11.192  11.151
50722W        W15542  21.521  35.514  14.500
50723W        W15543  33.782  10.563  12.391
50724W        W15544  26.157  36.049  11.997
50725W        W15545  26.106  22.288   3.694
50726W        W15546  31.048   6.405  13.687
50727W        W15547  31.219  33.593  14.361
50728W        W15548  16.317  13.558   0.304
50729W        W15549  37.539  37.909   1.762
50730W        W15550  32.103  12.097   2.725
50731W        W15551  43.826  43.073  12.477
50732W        W15552   9.450  22.999   0.001
50733W        W15553  16.649   5.767  14.805
50734W        W15554   4.373  17.332  14.755
50735W        W15555  34.928   7.179   2.666
50736W        W15556  36.332  15.806  14.073
50737W        W15557   2.413  37.177   3.289
50738W        W15558   6.564  26.838   2.156
50739W        W15559  11.953  16.508  12.139
50740W        W15560  37.403   5.938   4.168
50741W        W15561   5.060  15.438  12.086
50742W        W15562  15.162   7.857   1.348
50743W        W15563  39.077  40.868   1.687
50744W        W15564  19.445   9.127   2.215
50745W        W15565  14.870  28.563   4.444
50746W        W15566  27.685  33.147   4.588
50747W        W15567  37.965  44.376   3.726
50748W        W15568  13.236   8.110   0.786
50749W        W15569   9.261  44.403   4.377
50750W        W15570  43.302   8.555   2.382
50751W        W15571  17.915  24.621  14.041
50752W        W15572   0.377  32.133   3.717
50753W        W15573   5.349  41.260  13.340
50754W        W15574  24.801   9.633  14.948
50755W        W15575  17.596  15.283  14.326
50756W        W15576  14.309  26.948  13.038
50757W        W15577  38.991   2.211  12.425
50758W        W15578  18.050  29.828   4.961
50759W        W15579  41.875   1.709  11.220
50760W        W15580  13.075   1.095   4.535
50761W        W15581  35.597   1.386  11.884
50762W        W15582   5.813  40.296  14.417
50763W        W15583  20.683  44.036   3.455
50764W        W15584  16.243   9.962  12.850
50765W        W15585  25.609  17.547  11.159
50766W        W15586  20.131   0.777   4.625
50767W        W15587  30.047  13.308  12.006
50768W        W15588   2.932   9.051   4.316
50769W        W15589  26.522  33.347  10.565
50770W        W15590  11.450  17.996  13.443
50771W        W15591   6.942  16.770   4.051
50772W        W15592  38.375  21.818  11.226
50773W        W15593  25.014  34.108  13.532
50774W        W15594  11.598  16.241  10.831
50775W        W15595  11.605  15.604  13.393
50776W        W15596   4.348  35.106   1.406
50777W        W15597  12.320  19.411   4.066
50778W        W15598   3.719  23.128   1.325
50779W        W15599  26.507  21.346   0.240
50780W        W15600  25.616  39.563  11.874
50781W        W15601  22.717   1.695  13.374
50782W        W15602  21.949  31.029   3.266
50783W        W15603  22.613  32.806   4.505
50784W        W15604   2.411   9.451  14.560
50785W        W15605   9.172  36.818   0.825
50786W        W15606  20.118   1.153   4.168
50787W        W15607  43.263   1.744  12.000
50788W        W15608  31.714  27.495   4.231
50789W        W15609  19.134  32.694   0.073
50790W        W15610  42.034  22.489  10.367
50791W        W15611  30.635   5.948  12.221
50792W        W15612   1.737   3.506   2.145
50793W        W15613  12.781  33.581   2.227
50794W        W15614  28.000   0.956   2.204
50795W        W15615  25.917  20.249   2.335
50796W        W15616  12.834   1.756   2.642
50797W        W15617   1.712  26.926   2.241
50798W        W15618  27.085  12.108   0.774
50799W        W15619  13.330  36.156  10.775
50800W        W15620   6.221  23.133  10.326
50801W        W15621  29.435  29.656   4.560
50802W        W15622  39.653  41.511   2.208
50803W        W15623   6.208  18.114  13.796
50804W        W15624  42.319  34.883   2.277
50805W        W15625  21.045  38.812  12.949
50806W        W15626   1.357  31.623   3.932
50807W        W15627  27.895   2.397   4.361
50808W        W15628  21.301  27.106   0.645
50809W        W15629  27.450  11.912   4.228
50810W        W15630  15.727  18.068  12.374
50811W        W15631  42.405  32.032   0.498
50812W        W15632   4.576  35.455  13.404
50813W        W15633  41.750  29.413   1.850
50814W        W15634  30.918  25.531  12.845
50815W        W15635  33.026  28.246  11.976
50816W        W15636  29.145  38.288  11.507
50817W        W15637  35.128  36.087  11.664
50818W        W15638  19.600  33.238  13.962
50819W        W15639  35.441  24.775   0.811
50820W        W15640  33.079  14.084  12.051
50821W        W15641  39.324  33.336   4.128
50822W        W15642  39.058  20.556  10.439
50823W        W15643   9.707  11.836   4.032
50824W        W15644  37.779  11.708   1.248
50825W        W15645  28.259  20.988   1.372
50826W        W15646  11.402  30.610  12.613
50827W        W15647   3.272  32.709  10.711
50828W        W15648   4.939  10.680  12.432
50829W        W15649   3.707   6.274  14.459
50830W        W15650  11.135  34.690  11.168
50831W        W15651  28.949  26.214  12.623
50832W        W15652  10.227  24.303   1.971
50833W        W15653  31.668  38.994   2.215
50834W        W15654  17.801  16.810  14.261
50835W        W15655   3.412  34.845   0.234
50836W        W15656   1.421  17.033  11.128
50837W        W15657  43.885   4.217   0.729
50838W        W15658  16.951  10.423  12.849
50839W        W15659   4.951  43.015   1.823
50840W        W15660  41.390  20.784  10.752
50841W        W15661   3.152  23.179  13.001
50842W        W15662  18.607  34.409   4.207
50843W        W15663   8.587  39.782  12.608
50844W        W15664  15.100  36.294   3.162
50845W        W15665  41.722  26.590   0.386
50846W        W15666  27.187  36.612  14.245
50847W        W15667   6.822  39.553  14.831
50848W        W15668  44.296  12.873  10.500
50849W        W15669  17.624  34.298  12.483
50850W        W15670  20.816  31.455  14.475
50851W        W15671  17.340  32.091  13.280
50852W        W15672  35.639  21.801  10.504
50853W        W15673   1.705  14.958  10.646
50854W        W15674   8.197   1.480  11.420
50855W        W15675  22.972   7.894  11.823
50856W        W15676  20.809  37.242  12.135
50857W        W15677  34.990  21.888  12.504
50858W        W15678  13.366  17.090  14.909
50859W        W15679  39.588   5.696   0.289
50860W        W15680  14.361   5.206  12.107
50861W        W15681  11.597  20.320   0.867
50862W        W15682   8.408  30.184   0.608
50863W        W15683  21.665  38.906  12.130
50864W        W15684  42.999   1.982  13.003
50865W        W15685  35.899   7.152  14.898
50866W        W15686  23.216  16.024   3.095
50867W        W15687  18.076  44.319   1.929
50868W        W15688  18.877   4.383  14.329
50869W        W15689  12.745  24.016   2.647
50870W        W15690   3.383  23.875  14.729
50871W        W15691  31.517  10.150  14.801
50872W        W15692  29.319   8.685  12.891
50873W        W15693  29.130  29.982   0.803
50874W        W15694  13.265  37.928   2.314
50875W        W15695  12.360  41.484  12.206
50876W        W15696  28.541  18.310   2.672
50877W        W15697  34.809  37.857  10.938
50878W        W15698   4.759  41.537   2.159
50879W        W15699   4.172  34.926  14.066
50880W        W15700   8.652   9.713   2.301
50881W        W15701   1.539   3.018   2.416
50882W        W15702  39.301  20.264  12.088
50883W        W15703  41.772  24.710  14.293
50884W        W15704  23.720   8.260   2.794
50885W        W15705  19.200  31.169  13.904
50886W        W15706  29.697   6.289   4.159
50887W        W15707  42.091  16.850  12.404
50888W        W15708  20.871  19.134   0.312
50889W        W15709  16.521  17.723  12.069
50890W        W15710   6.829  12.338   2.813
50891W        W15711  34.415  11.482   0.673
50892W        W15712  10.995   4.098  14.915
50893W        W15713  32.534  30.056   1.231
50894W        W15714   8.716  23.454  13.737
50895W        W15715  36.151  37.571  13.459
50896W        W15716   9.600   7.925  12.643
50897W        W15717   8.800  39.030  14.479
50898W        W15718  37.579  29.764   0.743
50899W        W15719  40.916  10.211  12.539
50900W        W15720  30.915  19.104   1.816
50901W        W15721  21.075  27.138   4.629
50902W        W15722  21.495  10.295   2.273
50903W        W15723  31.738  13.237  12.486
50904W        W15724  27.025  35.063   2.569
50905W        W15725   2.975  16.992  12.808
50906W        W15726   1.995  15.077   0.763
50907W        W15727   8.216  12.186  12.682
50908W        W15728   4.826   7.108  12.501
50909W        W15729  19.882  36.205   5.247
50910W        W15730  33.559  30.196   4.752
50911W        W15731  16.375   8.645  14.616
50912W        W15732  39.043  20.572  14.874
50913W        W15733  17.767  25.938  11.524
50914W        W15734  17.104  21.969   2.272
50915W        W15735  25.213  32.013   0.297
50916W        W15736  34.105  33.720   3.638
50917W        W15737  43.362  37.069  12.480
50918W        W15738  30.638  14.061  12.951
50919W        W15739  15.521  21.690  14.079
50920W        W15740  18.493  34.973   1.782
50921W        W15741  36.832  25.733   0.990
50922W        W15742  10.199  28.732  12.563
50923W        W15743  13.752  24.125  12.998
50924W        W15744  17.126  16.189  14.537
50925W        W15745  37.410  13.311  14.325
50926W        W15746  37.524  13.819   1.638
50927W        W15747  14.017  11.213   1.607
50928W        W15748  23.658  13.207   1.633
50929W        W15749  22.478  43.803  13.300
50930W        W15750  35.991  26.967  12.450
50931W        W15751  32.425  33.917  12.142
50932W        W15752  14.618  15.689  13.435
50933W        W15753  14.256  14.317  10.604
50934W        W15754  18.510  29.369  11.149
50935W        W15755  30.425  13.116   2.883
50936W        W15756  10.232  36.841  11.245
50937W        W15757   6.017  11.927   1.955
50938W        W15758  42.660   7.701  13.619
50939W        W15759  40.399  40.404  11.445
50940W        W15760  18.055  15.046  14.450
50941W        W15761   2.622  34.819   0.849
50942W        W15762  12.475  27.184   2.420
50943W        W15763  11.711  27.448   1.157
50944W        W15764  30.108  41.119   1.794
50945W        W15765  13.355   2.262   0.041
50946W        W15766  44.137  34.410  13.832
50947W        W15767   0.855  27.577  12.077
50948W        W15768  35.423   7.708   3.547
50949W        W15769  11.890  28.244   1.682
50950W        W15770  10.237  24.083   4.325
50951W        W15771  28.054  35.062   0.425
50952W        W15772   6.460  19.204   0.849
50953W        W15773   1.779  18.804  11.606
50954W        W15774  26.951   3.175  12.883
50955W        W15775  41.767  11.613   2.050
50956W        W15776  40.767  19.987   4.536
50957W        W15777  16.096  20.036   1.333
50958W        W15778  19.240   4.268   2.056
50959W        W15779   6.828   4.728  13.245
50960W        W15780  19.597  16.485  13.406
50961W        W15781   1.717  25.048  13.428
50962W        W15782  42.553   7.119   1.018
50963W        W15783  28.243  31.462   0.881
50964W        W15784  41.889  36.589   4.219
50965W        W15785  23.023   0.988   1.112
50966W        W15786  30.745  31.088   3.274
50967W        W15787  31.447  34.962   2.180
50968W        W15788  30.367  16.047   3.732
50969W        W15789   6.156   9.805   0.266
50970W        W15790   0.345  40.351   2.795
50971W        W15791  34.687  39.563  10.767
50972W        W15792   4.810   0.228   4.573
50973W        W15793  27.689  44.862  14.395
50974W        W15794  15.039  36.771   5.447
50975W        W15795   2.198  31.738   3.687
50976W        W15796  16.831  25.567   0.736
50977W        W15797  35.580  39.007   0.769
50978W        W15798   8.937  18.603  13.273
50979W        W15799  10.271  12.909  11.911
50980W        W15800  11.549  18.583   9.830
50981W        W15801  23.254  27.854   0.396
50982W        W15802  22.045  39.380  10.964
50983W        W15803   3.274  34.448   1.526
50984W        W15804  19.520  23.688   3.600
50985W        W15805  15.701  37.821  10.949
50986W        W15806   3.092  16.072   4.363
50987W        W15807  40.087   3.790   3.228
50988W        W15808  32.695  42.218  10.790
50989W        W15809  33.376  17.517  13.608
50990W        W15810   0.870   7.178  11.001
50991W        W15811   6.541  25.140   3.774
50992W        W15812  11.124   7.837  11.694
50993W        W15813  35.324  14.627   3.603
50994W        W15814   8.451  12.508   3.350
50995W        W15815  43.981  25.530   4.388
50996W        W15816   9.132  20.675   1.883
50997W        W15817  29.628  15.493   3.830
50998W        W15818  18.061  29.368  13.458
50999W        W15819  41.924   5.815   2.896
51000W        W15820  35.476  23.040  10.835
51001W        W15821  15.580  44.502  12.170
51002W        W15822  36.390  41.333  14.085
51003W        W15823   2.880   7.797   0.477
51004W        W15824  27.395  37.896  13.365
51005W        W15825  26.155   8.683  13.408
51006W        W15826  12.374   9.743   3.623
51007W        W15827   8.524  30.106   3.183
51008W        W15828   5.263  20.689   4.573
51009W        W15829   1.016   6.877   2.106
51010W        W15830  43.360  13.235   1.237
51011W        W15831   5.875  44.795  12.496
51012W        W15832  16.066  10.225  13.512
51013W        W15833   3.196  15.282   0.092
51014W        W15834   7.884  43.517  11.158
51015W        W15835  24.597  10.914   2.714
51016W        W15836  36.938  10.746   0.823
51017W        W15837   4.930  15.284  13.342
51018W        W15838   1.248   0.372   1.854
51019W        W15839   7.828  36.548   3.585
51020W        W15840  26.527  43.749   1.769
51021W        W15841  28.823  32.148  14.519
51022W        W15842  30.647  10.289   3.545
51023W        W15843  17.732   2.289   1.024
51024W        W15844  43.300  37.351   2.801
51025W        W15845   1.006  41.950  13.453
51026W        W15846   0.129  16.081   4.700
51027W        W15847  16.568  40.442   0.423
51028W        W15848   4.771  38.924  12.240
51029W        W15849   3.729  19.152   3.876
51030W        W15850  39.394  40.475   3.694
51031W        W15851  32.490  36.036  14.028
51032W        W15852  29.335  30.232   1.238
51033W        W15853  35.536  27.237  12.508
51034W        W15854  14.876   8.338  11.144
51035W        W15855  30.867  42.754  13.889
51036W        W15856  13.222  16.341  13.868
51037W        W15857  34.455   8.679  11.059
51038W        W15858  39.881  17.719  11.816
51039W        W15859  26.660  43.727   0.238
51040W        W15860  19.310  10.905  11.266
51041W        W15861  36.358   5.885   3.497
51042W        W15862  37.311  15.025  13.467
51043W        W15863  14.692   4.615  10.942
51044W        W15864  24.426  29.736   3.423
51045W        W15865   9.207   4.361   4.137
51046W        W15866  36.369  43.416  10.546
51047W        W15867   7.957  43.016  11.130
51048W        W15868  42.961  43.949   1.708
51049W        W15869   7.914  34.390   1.833
51050W        W15870  15.300   6.925   0.968
51051W        W15871  10.654  33.473  10.485
51052W        W15872  36.357  31.034   9.941
51053W        W15873  15.293   5.461   2.772
51054W        W15874  18.224   3.860  13.793
51055W        W15875  39.306  26.634  14.840
51056W        W15876  41.370  34.628  14.367
51057W        W15877   4.800  20.353  14.507
51058W        W15878  22.200  26.732   3.151
51059W        W15879  22.729  41.355   0.486
51060W        W15880  15.064  33.693   0.198
51061W        W15881   0.059  15.058   2.977
51062W        W15882  28.932   5.620   3.295
51063W        W15883  14.609  11.711   2.767
51064W        W15884  27.976  14.187  10.813
51065W        W15885  14.343   2.389  13.325
51066W        W15886  24.474   7.669   1.041
51067W        W15887   6.661  27.606  12.639
51068W        W15888   2.743  25.635   0.693
51069W        W15889   3.088  40.831  11.673
51070W        W15890  27.351  36.026   3.772
51071W        W15891  23.787  29.687  11.613
51072W        W15892   6.411  35.369   2.400
51073W        W15893   1.098   4.687  10.336
51074W        W15894  34.562  37.995   1.393
51075W        W15895   4.948  40.116   2.326
51076W        W15896  11.716  21.937  11.573
51077W        W15897  35.828  39.544  14.537
51078W        W15898  42.727   5.358  14.754
51079W        W15899  25.423  28.733   3.592
51080W        W15900  40.955  34.412  11.931
51081W        W15901  17.509  29.728  14.648
51082W        W15902  32.079  19.292  11.963
51083W        W15903  24.549  20.756  13.445
51084W        W15904  38.875   5.236  12.206
51085W        W15905  14.321  27.050  10.583
51086W        W15906   4.235  24.581   5.099
51087W        W15907   0.520  40.869   1.381
51088W        W15908  33.723  20.086  14.248
51089W        W15909   2.019   3.533   3.110
51090W        W15910  40.016  25.905   2.342
51091W        W15911  16.761  13.753  13.243
51092W        W15912  37.484  16.640  14.348
51093W        W15913  40.434  42.709  13.319
51094W        W15914  23.179  11.026   2.806
51095W        W15915   4.686  16.172  11.844
51096W        W15916  30.483  10.529   0.775
51097W        W15917  10.225  31.974   2.753
51098W        W15918   5.810  21.799   3.702
51099W        W15919  22.158  26.458   1.703
51100W        W15920   6.315  41.179   4.689
51101W        W15921  44.945  32.809   3.230
51102W        W15922   5.467  22.107  13.959
51103W        W15923  17.726   6.042  11.130
51104W        W15924  29.142  24.274  10.684
51105W        W15925  29.204  18.018  14.577
51106W        W15926  44.494  16.506   1.227
51107W        W15927  11.047   9.745   1.602
51108W        W15928   9.628  38.580  14.197
51109W        W15929  42.847   5.874  13.472
51110W        W15930  26.989  43.147  10.548
51111W        W15931  16.237   7.963  12.411
51112W        W15932  10.473   4.763  13.411
51113W        W15933  24.869  11.797   0.336
51114W        W15934  31.503  18.653  12.513
51115W        W15935  36.798  28.336   3.430
51116W        W15936  18.653  22.104   3.171
51117W        W15937   0.231  35.604   2.748
51118W        W15938  16.262  28.899   3.141
51119W        W15939   8.311  15.038   4.328
51120W        W15940  24.120  16.988   2.886
51121W        W15941  41.514  42.350  11.727
51122W        W15942  34.643  14.519  11.425
51123W        W15943  19.672  29.354   1.394
51124W        W15944  37.873  28.569   1.821
51125W        W15945  12.023  15.202  13.596
51126W        W15946  17.080  41.605   3.765
51127W        W15947  26.139  32.875  11.642
51128W        W15948   6.692  33.300  11.114
51129W        W15949  41.989   5.831   2.385
51130W        W15950  30.361  22.649   0.603
51131W        W15951  29.607   2.330   2.335
51132W        W15952  18.290   9.346   1.325
51133W        W15953  17.507  37.984  12.521
51134W        W15954  21.997  31.476  12.314
51135W        W15955   1.277  42.097  13.885
51136W        W15956   6.784   2.004   3.872
51137W        W15957  38.443   8.454   3.233
51138W        W15958  40.092  26.500  11.107
51139W        W15959  21.806   8.823   1.944
51140W        W15960  25.144  27.238  14.796
51141W        W15961  28.226  31.622  13.022
51142W        W15962  19.801  25.083   3.887
51143W        W15963  33.127  39.111  13.506
51144W        W15964  27.176  14.124   9.954
51145W        W15965  12.314  43.914   3.075
51146W        W15966   0.139  26.554  11.586
51147W        W15967  42.354  41.064   4.405
51148W        W15968  10.962   0.117   1.937
51149W        W15969   1.294  32.368  14.411
51150W        W15970  32.810  34.266  11.569
51151W        W15971   0.268  13.244  11.139
51152W        W15972  19.942   0.830  14.919
51153W        W15973   2.613  22.711  11.580
51154W        W15974  10.271   9.368   1.184
51155W        W15975  39.542  12.169  14.471
51156W        W15976  37.877  27.994   1.471
51157W        W15977   6.154  16.128   2.282
51158W        W15978  39.383  42.294   4.399
51159W        W15979  23.658  24.776   0.311
51160W        W15980   6.750   9.115   0.475
51161W        W15981  39.939  25.048  10.666
51162W        W15982  44.418  40.290   1.423
51163W        W15983  23.371   3.988  12.934
51164W        W15984  14.530  12.220   1.235
51165W        W15985  39.548  23.625   1.286
51166W        W15986   1.955  34.535   3.141
51167W        W15987  23.543  40.005  10.710
51168W        W15988  11.402  37.834  14.056
51169W        W15989   1.416  37.990  11.069
51170W        W15990  20.104  20.615  10.710
51171W        W15991  15.625  34.375   2.534
51172W        W15992  15.188  10.387   3.403
51173W        W15993  29.300  33.005   2.805
51174W        W15994  29.435  42.373  13.430
51175W        W15995   8.834  30.456   4.806
51176W        W15996  25.886   6.268   2.458
51177W        W15997  33.596  38.529   4.802
51178W        W15998  42.484  15.595  10.730
51179W        W15999  22.080  27.237   3.209
51180W        W16000   2.606  38.388   0.400
51181W        W16001  31.496  10.919  14.497
51182W        W16002   6.663  13.776  11.652
51183W        W16003  41.027  26.466   5.096
51184W        W16004  28.319  10.240   3.051
51185W        W16005   2.106  16.872  13.009
51186W        W16006  16.142  10.123   0.738
51187W        W16007   1.574  27.888   0.799
51188W        W16008  33.064  44.389   1.860
51189W        W16009  32.865  22.703  13.969
51190W        W16010  18.355  43.301  12.525
51191W        W16011  36.515  17.749  11.838
51192W        W16012  38.904  17.509  10.928
51193W        W16013  10.381   1.779  10.298
51194W        W16014  27.215  21.781  11.466
51195W        W16015  20.196  13.620  13.965
51196W        W16016  43.045   8.218  11.181
51197W        W16017   7.643  11.076  13.103
51198W        W16018  39.344  38.364   1.465
51199W        W16019  35.932  24.317  13.357
51200W        W16020  27.883  41.749  10.583
51201W        W16021  10.645  12.280  10.775
51202W        W16022  19.078  37.778   2.259
51203W        W16023  15.313  28.223  11.149
51204W        W16024  29.538   5.815  13.111
51205W        W16025  16.288  21.276   0.851
51206W        W16026  24.719   9.127   0.381
51207W        W16027  30.643  23.167   2.741
51208W        W16028  23.474  25.031  14.345
51209W        W16029  42.534  19.749  14.957
51210W        W16030  21.604  19.686  11.486
51211W        W16031  44.250  21.055  12.469
51212W        W16032   8.087  30.548   0.781
51213W        W16033   4.520  39.729   4.511
51214W        W16034  10.194  22.239  13.498
51215W        W16035   3.236  26.113  13.882
51216W        W16036  40.884  32.257  14.022
51217W        W16037   7.808  34.966   2.423
51218W        W16038  11.260   2.929  11.979
51219W        W16039  14.301  44.801   2.438
51220W        W16040  16.600  30.271   4.133
51221W        W16041  25.963   6.698   2.739
51222W        W16042  24.623   1.268  14.365
51223W        W16043   8.072  39.972  14.103
51224W        W16044  17.713  14.713  13.224
51225W        W16045  10.848   7.737  14.651
51226W        W16046   6.240  20.524   3.718
51227W        W16047  31.965  43.722  12.706
51228W        W16048  34.032  33.430   3.153
51229W        W16049  19.286  42.965   1.991
51230W        W16050  17.750  42.844  12.201
51231W        W16051   2.758  40.949   4.127
51232W        W16052  12.107  26.425   1.906
51233W        W16053   1.732  39.147   1.009
51234W        W16054   9.237  33.965  13.100
51235W        W16055  30.808  19.138  13.557
51236W        W16056  20.685  20.122   1.161
51237W        W16057  36.755  13.691   0.524
51238W        W16058   9.909  18.672   0.201
51239W        W16059  29.985  10.586   1.155
51240W        W16060  10.367  22.946  10.559
51241W        W16061  10.779  20.060  13.014
51242W        W16062   7.252  37.416  10.395
51243W        W16063   2.252  44.296  13.805
51244W        W16064  33.003  11.757   1.906
51245W        W16065  28.794  11.035  13.389
51246W        W16066   0.428  26.031  13.049
51247W        W16067  42.205  14.081   1.874
51248W        W16068  44.355  17.147  11.375
51249W        W16069  33.337  16.584   3.225
51250W        W16070  22.681  24.884   4.581
51251W        W16071   4.427  30.182   3.613
51252W        W16072  42.760  21.161   5.099
51253W        W16073  10.542  43.313  12.331
51254W        W16074  27.685  41.268  13.884
51255W        W16075  28.957  24.156  11.154
51256W        W16076  19.699  18.739   0.947
51257W        W16077  42.794   3.984   4.201
51258W        W16078  12.418  29.031  13.604
51259W        W16079  43.439  21.813   4.230
51260W        W16080  27.676   4.000  13.813
51261W        W16081   0.250  28.436  13.450
51262W        W16082   3.272  22.156   0.950
51263W        W16083  14.110  12.363   3.495
51264W        W16084  28.091  22.849  10.999
51265W        W16085  37.395  14.007   2.637
51266W        W16086  34.552   8.224  14.159
51267W        W16087  11.655   1.190   2.460
51268W        W16088   3.208  40.791   2.199
51269W        W16089  25.687  17.145  10.864
51270W        W16090  12.198   6.679  14.486
51271W        W16091   2.846  17.501   4.552
51272W        W16092  40.942  39.842  14.428
51273W        W16093   7.429  11.639  14.516
51274W        W16094   7.825  39.563  13.865
51275W        W16095  16.134   3.724  14.392
51276W        W16096   4.078  29.031  13.183
51277W        W16097  25.840  36.137   1.869
51278W        W16098  44.495  12.826   0.267
51279W        W16099  43.792  11.306   3.633
51280W        W16100  11.870  20.116  11.078
51281W        W16101  15.254  41.250   1.007
51282W        W16102  35.459  24.065  14.591
51283W        W16103  15.558  34.067  11.041
51284W        W16104   2.501  43.997   4.288
51285W        W16105  27.077  12.603  12.483
51286W        W16106  14.544   8.958  10.494
51287W        W16107   0.910   8.597   2.348
51288W        W16108   3.011  24.180   0.888
51289W        W16109  17.390  39.297  10.619
51290W        W16110   9.793  42.451  14.733
51291W        W16111  39.109  26.600   9.907
51292W        W16112  29.593  15.864   2.599
51293W        W16113  44.382  33.680  10.708
51294W        W16114  26.719   6.790   0.442
51295W        W16115   9.476  25.127   0.508
51296W        W16116  16.040  37.469  13.606
51297W        W16117  31.443   7.296  11.330
51298W        W16118  38.063   0.872   2.878
51299W        W16119  18.650  39.729   3.550
51300W        W16120   2.294  32.461   0.753
51301W        W16121  18.620  35.887   2.799
51302W        W16122  30.381  40.478   2.345
51303W        W16123  29.156  27.670   0.285
51304W        W16124   9.213  16.643  12.826
51305W        W16125  32.392   6.758  13.915
51306W        W16126  26.479  28.421  13.568
51307W        W16127  21.656  31.015   1.469
51308W        W16128   4.870  24.923   1.332
51309W        W16129  35.996  14.982  14.497
51310W        W16130  39.654  14.240  12.065
51311W        W16131   7.944   6.500  12.929
51312W        W16132  22.120   2.330  12.456
51313W        W16133   6.859  15.702   1.674
51314W        W16134  11.946  39.571  13.026
51315W        W16135  19.127  24.937   3.048
51316W        W16136  11.083   9.367   4.591
51317W        W16137  30.657  28.630   0.622
51318W        W16138  35.981   4.392   1.006
51319W        W16139  11.616  31.203   0.101
51320W        W16140  20.972   7.643   9.844
51321W        W16141   8.673  22.663   2.772
51322W        W16142  34.633   3.889   3.167
51323W        W16143  25.193  12.864  13.032
51324W        W16144  31.385   6.230  13.311
51325W        W16145  15.155  28.553  12.423
51326W        W16146  37.892  21.479   4.267
51327W        W16147  16.528  36.978  13.803
51328W        W16148  31.841  40.259  14.459
51329W        W16149  15.846  30.409  11.624
51330W        W16150   3.208  36.645   5.130
51331W        W16151  20.218  20.804   3.263
51332W        W16152  18.285   5.920  13.866
51333W        W16153  27.014  36.187   4.594
51334W        W16154  21.708  13.255  12.835
51335W        W16155  17.332   4.037  13.279
51336W        W16156  30.858  23.976   2.287
51337W        W16157  18.604  16.027  13.534
51338W        W16158  18.330  27.500  12.558
51339W        W16159  18.718  39.590  14.358
51340W        W16160  21.485   6.067   3.635
51341W        W16161  11.887   4.705   0.230
51342W        W16162  44.523   7.143   0.461
51343W        W16163  15.246  29.450   9.738
51344W        W16164   5.325   9.433  10.553
51345W        W16165  17.219  15.801  13.153
51346W        W16166  28.554  40.427  11.006
51347W        W16167   0.278  11.693  11.536
51348W        W16168  42.708  40.844   0.361
51349W        W16169  41.582  37.175  11.181
51350W        W16170   7.790   7.149   3.214
51351W        W16171  28.078  28.959   2.947
51352W        W16172   3.466  43.815   1.505
51353W        W16173  26.394  18.038   4.670
51354W        W16174  38.874   8.227   1.254
51355W        W16175  31.550   2.284   1.556
51356W        W16176  12.371  37.298  11.540
51357W        W16177  25.399  42.618  10.339
51358W        W16178  38.296  37.619   3.889
51359W        W16179  44.329  25.091   9.465
51360W        W16180  43.779  33.314   1.153
51361W        W16181  39.524  21.765   2.273
51362W        W16182  36.001  37.011  12.578
51363W        W16183  20.502  34.936   0.732
51364W        W16184   8.338   0.010  11.635
51365W        W16185  44.474  12.733  11.984
51366W        W16186  41.498   5.781  14.191
51367W        W16187  12.282  31.382  14.997
51368W        W16188  35.133  27.131   0.929
51369W        W16189  12.306  43.019  12.429
51370W        W16190  38.397  29.203   4.642
51371W        W16191  44.461   8.273   4.997
51372W        W16192  40.678   8.399   1.477
51373W        W16193  37.494  16.877   0.823
51374W        W16194  31.314  39.857  13.823
51375W        W16195  34.338  30.448   3.324
51376W        W16196  17.480  26.589  13.180
51377W        W16197  38.403  34.890  14.809
51378W        W16198  29.447  16.226  12.454
51379W        W16199  31.169  36.647   2.225
51380W        W16200  37.591  23.181  12.343
51381W        W16201   7.409  30.000   4.587
51382W        W16202  42.682  41.004  12.917
51383W        W16203  29.315  35.021   3.528
51384W        W16204  42.490  31.994  12.412
51385W        W16205  10.867  32.465   0.210
51386W        W16206  19.736  36.083   0.283
51387W        W16207  29.725  23.654  11.175
51388W        W16208  22.224   0.926   2.764
51389W        W16209  10.287  34.971  11.146
51390W        W16210  16.547  14.820  13.967
51391W        W16211  32.081  31.227  14.365
51392W        W16212  32.366  29.449   3.693
51393W        W16213  22.850  12.142   1.374
51394W        W16214  41.551  21.602   2.212
51395W        W16215  10.342  19.563   1.755
51396W        W16216  43.485  28.549   1.451
51397W        W16217  27.294  30.559  10.837
51398W        W16218   5.368  42.558  14.613
51399W        W16219  30.966  11.846   0.712
51400W        W16220  18.128  30.854  11.614
51401W        W16221  33.694  16.679  11.734
51402W        W16222   4.427  33.342  14.894
51403W        W16223  17.584   0.393   3.734
51404W        W16224   0.359   8.317  13.088
51405W        W16225  22.654   7.610  13.825
51406W        W16226   8.881  18.671   4.216
51407W        W16227   6.340  19.468   0.338
51408W        W16228   5.264  19.872  11.109
51409W        W16229  20.574  20.299  12.596
51410W        W16230   3.226  16.634  11.221
51411W        W16231  21.151  23.929   0.298
51412W        W16232  24.335  27.378  12.740
51413W        W16233  44.780  38.081  10.738
51414W        W16234  26.123  19.600   0.428
51415W        W16235  35.447  25.690  11.418
51416W        W16236  29.031   5.883  10.485
51417W        W16237  22.758   9.357  14.415
51418W        W16238  34.012  12.904  13.358
51419W        W16239   2.403  13.045  12.918
51420W        W16240   0.813   6.369  14.430
51421W        W16241   2.069   7.149   5.124
51422W        W16242  14.296  11.413  10.542
51423W        W16243  39.122  16.597   9.909
51424W        W16244  33.992  38.460   4.427
51425W        W16245   4.158  42.950   0.174
51426W        W16246  14.958  36.255   5.450
51427W        W16247  11.122  31.036  10.360
51428W        W16248  29.748  37.893  14.426
51429W        W16249  18.250  21.974   1.212
51430W        W16250  42.120  34.765  13.292
51431W        W16251  39.969   7.521  10.898
51432W        W16252  39.404   5.506  13.062
51433W        W16253  14.913  38.430   4.312
51434W        W16254  42.825  20.716  14.382
51435W        W16255  20.181  26.140   3.334
51436W        W16256  43.823  41.409   3.342
51437W        W16257   7.622   1.448  13.917
51438W        W16258  30.684  33.621   3.739
51439W        W16259  23.659   5.306  11.731
51440W        W16260  22.137   4.620   0.452
51441W        W16261  43.340  32.929   2.697
51442W        W16262  19.122  38.003  14.567
51443W        W16263  28.280  24.163   4.267
51444W        W16264   1.270  36.095  11.189
51445W        W16265  27.916  36.075  10.758
51446W        W16266  27.080   8.902  11.529
51447W        W16267   8.975  31.002   2.252
51448W        W16268  12.180  12.177  14.065
51449W        W16269  31.988  27.748   3.549
51450W        W16270   8.261  13.402   1.172
51451W        W16271  11.713  10.825  10.646
51452W        W16272  43.418  22.515   2.137
51453W        W16273  29.868  30.271  13.414
51454W        W16274   8.333  43.747  11.119
51455W        W16275   8.389  31.166  14.372
51456W        W16276  25.205  34.903   2.636
51457W        W16277   2.687  44.726   4.753
51458W        W16278  28.449   8.311   1.600
51459W        W16279   1.164  20.480  14.824
51460W        W16280  35.854  40.695  13.751
51461W        W16281  44.790  22.165   2.203
51462W        W16282  29.705   7.710   2.331
51463W        W16283   0.036  10.825   0.037
51464W        W16284  10.410  37.336   1.395
51465W        W16285   4.257  21.147   1.803
51466W        W16286  12.780  19.535  12.479
51467W        W16287  26.239  38.410  13.688
51468W        W16288  36.379  44.185   0.310
51469W        W16289  20.319   6.764  14.291
51470W        W16290   5.414  33.084   3.817
51471W        W16291  23.589  10.677  12.386
51472W        W16292  19.840  30.659   4.847
51473W        W16293  29.471  40.996  12.067
51474W        W16294  15.243  16.164   0.916
51475W        W16295  15.294  15.983  12.574
51476W        W16296   5.311  28.174  12.603
51477W        W16297  34.315   9.403  12.964
51478W        W16298   9.865  35.497  10.543
51479W        W16299  18.796  26.176   4.604
51480W        W16300  37.525  26.947   2.362
51481W        W16301   5.854   9.114  11.132
51482W        W16302  33.902  32.469  10.601
51483W        W16303   1.772   4.234  13.125
51484W        W16304   6.714  14.138  10.844
51485W        W16305  40.416  40.398   3.717
51486W        W16306  30.166   4.970  14.794
51487W        W16307  20.342  41.540   3.346
51488W        W16308  44.607  34.773  14.327
51489W        W16309   2.522  39.583   0.794
51490W        W16310  24.097  43.267   2.402
51491W        W16311   3.264  44.243   1.771
51492W        W16312  38.507  37.534  10.901
51493W        W16313  10.316  38.927   0.491
51494W        W16314  15.240   5.155   2.353
51495W        W16315  14.775  10.247   3.650
51496W        W16316  23.535  24.028  13.164
51497W        W16317   3.202  29.410   0.630
51498W        W16318  40.690   9.609   4.160
51499W        W16319  12.349  20.835   4.853
51500W        W16320  34.080  39.752   0.263
51501W        W16321  35.408  44.792  10.656
51502W        W16322   5.722  28.602   4.564
51503W        W16323   1.145  36.407   2.367
51504W        W16324   4.640  16.311  12.316
51505W        W16325  30.016   4.671  13.474
51506W        W16326  21.292   3.884   1.824
51507W        W16327  44.406   6.822  11.962
51508W        W16328  26.583  15.770   4.616
51509W        W16329  32.723   0.059  10.830
51510W        W16330  31.058  37.110  11.607
51511W        W16331  23.683  28.473  10.987
51512W        W16332  19.126  43.313  13.752
51513W        W16333  21.051  30.059   2.193
51514W        W16334  20.352  40.257  11.701
51515W        W16335  16.748  15.031   3.131
51516W        W16336  16.300  31.278   3.213
51517W        W16337  24.794  12.373  14.523
51518W        W16338  42.807  21.840   2.715
51519W        W16339  17.688  13.564   4.723
51520W        W16340  38.557  10.380  13.989
51521W        W16341  10.863   3.762  13.287
51522W        W16342  30.682  14.716  10.719
51523W        W16343  25.428  36.862  12.917
51524W        W16344  28.065  31.631   4.826
51525W        W16345  35.922  43.331   1.002
51526W        W16346  10.343  28.097   0.202
51527W        W16347  33.873  39.037   3.768
51528W        W16348   5.904  39.260   1.722
51529W        W16349  36.328  23.781  10.222
51530W        W16350  44.538   9.942  11.778
51531W        W16351  41.687  37.669   3.725
51532W        W16352   5.763  33.259  11.111
51533W        W16353  32.719   1.225  13.542
51534W        W16354  15.374  28.884   3.163
51535W        W16355  10.918  30.764  11.166
51536W        W16356  21.018  10.925  10.828
51537W        W16357   2.219  11.118  13.066
51538W        W16358  40.886   1.721   0.476
51539W        W16359   1.098  27.482  10.634
51540W        W16360  34.390   4.606   1.249
51541W        W16361  36.946   9.026  13.568
51542W        W16362  14.310   7.842   2.711
51543W        W16363  30.978   3.058  12.060
51544W        W16364  19.036  37.336  13.518
51545W        W16365  14.765   9.116   0.427
51546W        W16366  10.110  33.605   2.370
51547W        W16367  10.931  31.794  13.480
51548W        W16368   2.511  41.252  10.188
51549W        W16369  32.026  16.776  14.687
51550W        W16370  10.949  40.404  12.193
51551W        W16371  15.782   5.884  14.788
51552W        W16372  32.986  35.882   4.213
51553W        W16373  42.399  30.116   4.441
51554W        W16374  40.875   9.275  11.995
51555W        W16375  19.647  40.013   1.156
51556W        W16376  37.139  36.601  14.465
51557W        W16377  14.355  11.877  11.562
51558W        W16378  42.559  44.208  14.833
51559W        W16379  21.202  19.509  10.735
51560W        W16380  31.370  34.079  14.590
51561W        W16381  28.048   8.317  11.611
51562W        W16382  27.105  23.606  11.695
51563W        W16383   6.021  13.437  10.532
51564W        W16384  42.047   3.294   9.878
51565W        W16385  18.583  11.109   4.586
51566W        W16386  38.590  22.491  10.474
51567W        W16387  36.917  43.000  13.939
51568W        W16388  23.683  28.228   3.225
51569W        W16389  40.464  30.990  14.767
51570W        W16390   6.786   4.345  14.015
51571W        W16391  32.619  16.848   0.888
51572W        W16392  29.578  37.645   0.160
51573W        W16393  11.246  19.184  10.298
51574W        W16394   8.361   9.367  12.186
51575W        W16395  17.256  29.906  12.530
51576W        W16396  25.888  31.956   3.984
51577W        W16397  33.520  44.055   4.565
51578W        W16398  29.927   4.272  12.144
51579W        W16399   5.077  23.881  10.292
51580W        W16400  33.689  15.671  11.357
51581W        W16401  31.222  40.888  13.305
51582W        W16402  29.000  34.078  12.861
51583W        W16403  15.287  13.736  13.097
51584W        W16404   5.269  32.023  12.613
51585W        W16405  40.442  33.931   3.726
51586W        W16406  36.101   7.204   3.239
51587W        W16407  40.791  18.160  10.959
51588W        W16408   3.670  40.871  14.427
51589W        W16409   2.629  25.607  14.834
51590W        W16410  26.912  39.364  12.628
51591W        W16411  16.506  27.032   3.329
51592W        W16412  29.908  12.684   4.623
51593W        W16413   4.288  31.508  13.319
51594W        W16414  10.164  20.562  10.987
51595W        W16415  13.955  13.590  11.069
51596W        W16416  16.675  33.911  14.435
51597W        W16417  23.406  15.595   2.866
51598W        W16418  34.280  28.186  10.683
51599W        W16419  13.342  16.186   3.056
51600W        W16420  43.734  28.978  11.727
51601W        W16421  42.250  20.531  11.104
51602W        W16422  14.574  19.460  13.762
51603W        W16423  10.559  33.250  12.984
51604W        W16424  13.656   4.271  11.580
51605W        W16425   9.637  13.601   0.926
51606W        W16426  25.636   4.281  10.690
51607W        W16427  28.208  22.896   3.446
51608W        W16428  42.419  35.325   0.923
51609W        W16429  21.276   5.096  11.829
51610W        W16430  20.941  37.154  13.392
51611W        W16431  12.805  16.616  14.002
51612W        W16432   2.955  29.823  10.814
51613W        W16433   4.444  43.098  12.985
51614W        W16434  33.904  15.801   3.590
51615W        W16435  12.206  35.141  14.055
51616W        W16436  14.749  42.496  12.874
51617W        W16437  40.749  43.389   1.276
51618W        W16438   6.489  44.455   2.357
51619W        W16439  30.625   2.077   3.999
51620W        W16440  28.094  26.000  11.467
51621W        W16441  13.265  42.720   1.857
51622W        W16442  21.092   3.649   3.734
51623W        W16443  11.690  25.683   2.882
51624W        W16444  38.788  17.741   0.551
51625W        W16445  11.175  19.637  14.406
51626W        W16446  20.283  13.597   0.416
51627W        W16447  43.408  33.577  11.132
51628W        W16448  28.511  29.989   2.661
51629W        W16449  24.495  28.227   0.898
51630W        W16450  43.136  26.038   1.822
51631W        W16451  11.115   4.492  10.472
51632W        W16452   9.575  32.874   3.570
51633W        W16453  34.133  19.149  14.834
51634W        W16454  14.328  20.834   2.857
51635W        W16455  21.428  43.978  12.299
51636W        W16456  13.412  31.568  14.576
51637W        W16457  28.177  18.191  13.091
51638W        W16458   9.296   8.133  13.413
51639W        W16459  30.630  23.723   1.862
51640W        W16460   1.817  25.645  11.637
51641W        W16461  42.000  39.303  14.942
51642W        W16462  35.637  33.002  11.847
51643W        W16463   2.035  39.069  14.057
51644W        W16464   2.308  21.327   1.225
51645W        W16465   0.833  26.974   3.270
51646W        W16466  25.938  42.867  10.693
51647W        W16467  27.630  11.153   4.481
51648W        W16468  23.553  42.973   0.991
51649W        W16469  29.565  40.340  10.369
51650W        W16470  31.063  35.043  11.593
51651W        W16471  40.516  22.071  13.868
51652W        W16472  34.822  13.602  12.523
51653W        W16473  23.512  20.306  14.585
51654W        W16474  35.943   8.467  12.918
51655W        W16475  44.969  30.905   4.551
51656W        W16476  10.862  24.033   2.650
51657W        W16477  42.434  21.632   3.302
51658W        W16478  20.806  26.022  14.591
51659W        W16479  24.233   4.446   3.913
51660W        W16480  32.562  34.267   4.610
51661W        W16481   2.657  22.991  12.082
51662W        W16482  36.444  10.699   0.068
51663W        W16483  27.727  39.564   4.248
51664W        W16484  15.136  12.890   0.879
51665W        W16485  41.059  11.543   4.636
51666W        W16486  40.907  14.293  11.630
51667W        W16487  34.998  11.241   3.991
51668W        W16488   9.779  16.289  13.494
51669W        W16489  11.126  22.622  12.839
51670W        W16490   1.879  39.502   1.361
51671W        W16491   5.846  40.062   0.925
51672W        W16492  12.129  16.411  10.238
51673W        W16493   9.251   1.316   2.367
51674W        W16494  25.206  15.526   2.342
51675W        W16495  41.725  14.496   3.278
51676W        W16496   3.710  30.216  11.795
51677W        W16497   8.831   5.934   4.444
51678W        W16498  10.762   8.174  13.865
51679W        W16499   7.654  10.653  11.403
51680W        W16500  37.586  19.904  11.049
51681W        W16501  28.173  20.992  13.089
51682W        W16502   4.404  31.393  11.993
51683W        W16503  35.936  18.368  13.925
51684W        W16504  43.347  40.276  11.515
51685W        W16505  15.243  41.035   2.834
51686W        W16506  31.538  13.454  12.917
51687W        W16507  29.184   6.368  13.618
51688W        W16508  41.875  26.222  11.531
51689W        W16509  25.660   7.898  13.914
51690W        W16510  24.796  27.904  13.441
51691W        W16511  40.591  44.327  12.934
51692W        W16512  18.584  32.297   1.705
51693W        W16513  30.201   9.636  13.914
51694W        W16514   6.297  24.244   0.637
51695W        W16515  40.846  23.740   2.398
51696W        W16516   2.200  21.668  14.893
51697W        W16517  40.223   9.523   4.999
51698W        W16518   0.925  38.194  10.512
51699W        W16519  43.578  43.250  13.882
51700W        W16520  33.474   2.517   5.423
51701W        W16521  32.743  13.015   5.504
51702W        W16522  32.534  18.242  12.906
51703W        W16523  26.017  15.978  14.268
51704W        W16524  11.603  32.374  14.380
51705W        W16525  30.430  44.542   2.823
51706W        W16526   3.978  33.210  10.819
51707W        W16527  28.921  19.109   0.378
51708W        W16528  11.613   5.745   2.931
51709W        W16529   1.384  27.522   1.271
51710W        W16530   0.445  32.610   3.900
51711W        W16531  30.619  23.079   0.777
51712W        W16532  22.982  44.898  14.929
51713W        W16533   6.164  44.935  12.101
51714W        W16534   9.852  16.165  14.402
51715W        W16535  30.568  30.157  14.088
51716W        W16536  37.095  37.242   3.232
51717W        W16537  41.277  38.802  12.029
51718W        W16538  20.963  35.098   1.981
51719W        W16539  11.888  13.742  11.846
51720W        W16540   1.433  15.788  11.540
51721W        W16541  24.591  16.058   3.920
51722W        W16542  35.510  11.741  14.882
51723W        W16543  31.146  30.992  10.345
51724W        W16544  30.958  26.208   3.837
51725W        W16545  33.367  17.213  14.869
51726W        W16546  31.943  23.109  10.709
51727W        W16547   6.301  13.118  13.298
51728W        W16548  16.174  28.356   1.517
51729W        W16549  28.391  26.277  14.116
51730W        W16550  14.419  16.326   2.850
51731W        W16551  16.036  30.472   3.303
51732W        W16552  24.557   7.376  13.287
51733W        W16553  15.600  28.283  12.502
51734W        W16554  27.214  23.710  12.955
51735W        W16555   4.685  25.592  14.413
51736W        W16556  11.725   3.443   0.726
51737W        W16557  11.669  26.189   3.063
51738W        W16558   3.450  38.823   0.880
51739W        W16559  33.954  25.517  12.119
51740W        W16560   2.826  12.213  10.967
51741W        W16561  29.187  20.063   1.336
51742W        W16562  35.598  15.866   3.133
51743W        W16563  22.283  39.386   4.005
51744W        W16564  44.028  29.613  12.553
51745W        W16565  39.342  27.617   0.425
51746W        W16566  22.403   9.794   0.207
51747W        W16567  21.992  36.641  14.772
51748W        W16568   2.444  16.904  14.538
51749W        W16569  42.043  35.604   0.063
51750W        W16570  14.415  33.348   1.885
51751W        W16571  10.835   9.202  12.871
51752W        W16572   5.001   1.170   4.831
51753W        W16573  19.026  24.075   3.100
51754W        W16574  24.380  17.637  11.875
51755W        W16575  33.662   8.430  14.530
51756W        W16576   1.827  22.460   0.350
51757W        W16577  17.138  29.491  11.875
51758W        W16578  25.520  14.046  11.569
51759W        W16579  16.194  33.092   4.952
51760W        W16580   9.083  10.541   4.814
51761W        W16581  22.188  20.987   2.317
51762W        W16582  37.874  14.606  12.420
51763W        W16583  14.370  35.521   0.249
51764W        W16584  41.743  17.593  14.376
51765W        W16585  41.285  44.510   1.751
51766W        W16586  29.429  40.752   0.857
51767W        W16587  34.908  28.064  13.391
51768W        W16588   3.866  41.236  11.499
51769W        W16589  24.574  14.741   2.415
51770W        W16590  37.865  34.461  12.918
51771W        W16591  27.659  29.431  11.121
51772W        W16592   1.522  10.530   4.094
51773W        W16593  28.041   8.229   1.291
51774W        W16594  21.900  43.503   3.129
51775W        W16595   2.468  30.422   0.531
51776W        W16596  18.027  27.764  13.453
51777W        W16597  11.196  44.359   2.913
51778W        W16598  35.865   2.321  14.096
51779W        W16599  38.352   0.636  12.483
51780W        W16600  34.083   7.674  14.882
51781W        W16601  36.315  19.306  11.127
51782W        W16602  16.577   3.972   2.291
51783W        W16603  31.515  20.649  11.968
51784W        W16604  44.003   8.802   1.315
51785W        W16605  24.514  33.227  10.402
51786W        W16606  19.539  19.094   4.088
51787W        W16607  36.959   5.620  11.591
51788W        W16608   4.655  24.005  10.650
51789W        W16609   3.250  44.481  10.335
51790W        W16610   1.441   0.118   1.412
51791W        W16611  36.952  21.253   0.398
51792W        W16612  35.000  17.850  14.251
51793W        W16613  43.943   4.866  14.327
51794W        W16614   5.910  30.542   3.279
51795W        W16615  31.687  27.574  11.348
51796W        W16616   7.945  18.917  13.424
51797W        W16617  42.969  37.027   0.436
51798W        W16618  19.238  43.424   0.279
51799W        W16619   8.281  20.833   1.306
51800W        W16620  44.773  37.844  13.037
51801W        W16621   1.161  32.142   3.109
51802W        W16622  19.137  23.411   2.639
51803W        W16623  39.852  29.656   0.654
51804W        W16624  44.669   2.150  12.787
51805W        W16625  34.563  33.331  13.064
51806W        W16626  14.834  10.356   0.979
51807W        W16627  34.187  31.787   3.721
51808W        W16628   3.084  27.111   1.910
51809W        W16629  13.045  21.199   1.435
51810W        W16630  30.031  44.346  14.875
51811W        W16631  16.158  11.535   2.564
51812W        W16632  34.039   8.167  12.069
51813W        W16633  10.414  23.612   3.050
51814W        W16634  36.479  41.914  11.523
51815W        W16635   2.211  23.903   1.740
51816W        W16636  42.546  20.308  12.545
51817W        W16637   3.791  42.372   4.894
51818W        W16638  33.898  11.257   0.487
51819W        W16639  26.536  37.375  13.085
51820W        W16640   6.340  25.695  10.625
51821W        W16641  42.968  34.518  14.785
51822W        W16642  37.769  39.896   5.035
51823W        W16643  40.249  24.142  12.493
51824W        W16644  17.600  29.964   2.346
51825W        W16645  27.235  17.780   3.215
51826W        W16646   1.291  33.967   3.162
51827W        W16647  12.834  31.456   3.104
51828W        W16648   6.299   6.304  12.972
51829W        W16649  29.576  33.922  12.488
51830W        W16650  39.666  34.583   2.647
51831W        W16651  20.732  38.051  13.542
51832W        W16652  37.776   3.029  14.395
51833W        W16653  36.963  42.004   0.017
51834W        W16654  44.457   0.496  13.413
51835W        W16655  41.860  39.577   1.874
51836W        W16656  41.541  15.987   1.945
51837W        W16657   2.772   2.975  14.008
51838W        W16658  34.892  32.509  10.740
51839W        W16659  26.450   3.248  12.005
51840W        W16660  25.267  16.796   1.044
51841W        W16661  42.419  12.677  13.064
51842W        W16662  35.551   4.899   2.687
51843W        W16663  41.989   0.269  13.023
51844W        W16664  43.792  16.731  12.314
51845W        W16665  12.924  20.459   3.879
51846W        W16666  34.296   1.812  11.117
51847W        W16667  35.234   0.592   2.407
51848W        W16668  38.044  13.686   3.386
51849W        W16669  28.689   1.024   2.664
51850W        W16670   3.353  26.416  10.582
51851W        W16671  20.773  12.864   4.129
51852W        W16672  39.553  16.527  11.595
51853W        W16673  21.223  36.515  10.791
51854W        W16674  15.659   2.849  12.511
51855W        W16675  25.547  10.303  10.707
51856W        W16676  44.876   2.173  14.426
51857W        W16677   5.171  22.508  14.149
51858W        W16678  24.602  23.205  13.376
51859W        W16679  17.141   6.353  10.554
51860W        W16680   9.649  36.147   3.281
51861W        W16681   4.890  24.124  13.480
51862W        W16682   0.952  36.412   1.871
51863W        W16683  17.515  21.562  10.324
51864W        W16684  32.806  43.919   1.936
51865W        W16685  13.634  21.745  13.369
51866W        W16686   8.685  17.876   2.388
51867W        W16687  29.033  42.225   4.090
51868W        W16688  23.761   5.415  14.411
51869W        W16689  27.501  27.868  10.646
51870W        W16690  24.118  21.781  11.049
51871W        W16691  13.808  44.935   2.609
51872W        W16692   7.965  22.247   2.631
51873W        W16693  25.559  41.344   4.066
51874W        W16694  17.163  29.079   4.564
51875W        W16695  14.674  36.883  10.649
51876W        W16696  36.243   1.741  10.198
51877W        W16697  28.686   8.729   3.779
51878W        W16698   3.401  29.927   2.532
51879W        W16699  14.256  43.686   1.945
51880W        W16700  39.212  28.015  10.392
51881W        W16701  24.676  38.529   4.037
51882W        W16702  17.594  25.422  12.477
51883W        W16703  36.593  42.573   3.739
51884W        W16704  24.618   7.598   3.341
51885W        W16705  37.036  35.874   2.915
51886W        W16706  21.528  11.218   4.904
51887W        W16707  39.531  39.185  11.644
51888W        W16708  11.372  42.387   3.411
51889W        W16709  18.343  19.438   0.829
51890W        W16710   4.917  36.976  12.658
51891W        W16711   7.624  31.066  13.670
51892W        W16712  38.544  38.598   2.148
51893W        W16713  41.375  19.967   3.563
51894W        W16714  33.620  17.734  14.004
51895W        W16715  41.454   4.832  13.012
51896W        W16716  38.870   4.242  12.206
51897W        W16717  30.007  11.397   3.877
51898W        W16718  20.106  28.438  10.416
51899W        W16719  12.876  37.641  11.529
51900W        W16720   6.504   3.428   1.810
51901W        W16721  17.639   1.760   4.630
51902W        W16722  43.011  41.873   4.877
51903W        W16723  41.223  42.995  12.874
51904W        W16724  31.854   1.525  13.939
51905W        W16725  42.334  33.765  14.719
51906W        W16726  11.642   1.498   4.488
51907W        W16727   4.671  40.890  14.603
51908W        W16728  17.647  11.405   2.126
51909W        W16729  27.636  22.285  14.432
51910W        W16730   0.725  41.352   1.422
51911W        W16731  32.861  19.203  10.658
51912W        W16732  42.371  26.753   1.620
51913W        W16733  41.324  28.504  11.982
51914W        W16734  30.163  32.848   2.812
51915W        W16735  29.301  33.016  10.304
51916W        W16736  25.622  12.220   3.139
51917W        W16737  16.665  28.116  14.057
51918W        W16738  11.824  20.740   2.591
51919W        W16739  14.628   3.873   3.520
51920W        W16740  33.410  12.318   3.861
51921W        W16741  39.055  37.115   1.381
51922W        W16742  26.858  16.792   1.881
51923W        W16743  11.792   8.813  13.012
51924W        W16744  13.020  12.667   1.243
51925W        W16745   8.069  25.029  12.407
51926W        W16746  38.252  17.348   3.125
51927W        W16747  18.323   4.150   0.891
51928W        W16748  19.786  18.962  13.386
51929W        W16749  41.775  12.199   2.390
51930W        W16750  38.373  24.982  11.731
51931W        W16751   6.319   5.689   2.270
51932W        W16752   0.861  35.535  14.887
51933W        W16753  10.451  24.052   3.338
51934W        W16754  18.209  32.845   0.432
51935W        W16755   9.603  13.496  10.248
51936W        W16756  18.214  11.766  11.651
51937W        W16757  29.911  15.029  11.132
51938W        W16758   5.375  34.347   3.016
51939W        W16759  44.312   1.485  13.607
51940W        W16760  34.521  28.927   4.109
51941W        W16761  36.936  25.193  14.838
51942W        W16762   7.179  37.071   1.037
51943W        W16763  21.090  37.863  14.362
51944W        W16764  17.567  38.360   4.079
51945W        W16765  14.703  36.395   2.806
51946W        W16766  16.800  13.821  13.779
51947W        W16767  29.570  24.950   5.088
51948W        W16768  25.418   5.427  12.867
51949W        W16769   9.043  36.099   1.467
51950W        W16770  16.312  31.479   2.319
51951W        W16771   1.238   7.281   3.550
51952W        W16772  12.811  43.437  13.464
51953W        W16773  27.056  37.128   1.780
51954W        W16774  17.071  37.479   0.904
51955W        W16775   1.319  22.352   1.167
51956W        W16776  40.011  39.261  14.242
51957W        W16777  31.781  30.781  13.193
51958W        W16778  43.001  42.852   1.377
51959W        W16779   2.236  39.006  11.952
51960W        W16780  13.131  42.295   4.195
51961W        W16781  23.656   0.259  13.557
51962W        W16782  31.235  28.503   2.822
51963W        W16783  42.012   2.397   2.430
51964W        W16784   5.390  32.597   3.655
51965W        W16785  12.302  23.782   1.075
51966W        W16786  23.974  11.170   4.990
51967W        W16787   0.799  31.339   0.391
51968W        W16788  21.673   5.029   1.118
51969W        W16789  27.227  13.669  14.452
51970W        W16790  41.708   4.370  10.236
51971W        W16791  25.405  36.358  11.858
51972W        W16792  16.094   5.891   4.583
51973W        W16793  17.144  20.189   2.583
51974W        W16794  33.948  42.547   2.162
51975W        W16795   4.885  18.580  11.510
51976W        W16796  14.862  32.576  12.770
51977W        W16797  34.650  19.801   4.137
51978W        W16798  41.861  34.530  14.213
51979W        W16799  36.304  10.207   0.004
51980W        W16800   1.447  14.441   2.380
51981W        W16801  12.708  27.431   3.696
51982W        W16802   2.433   2.342  13.501
51983W        W16803  31.805  23.627   0.484
51984W        W16804  38.327  12.404   1.774
51985W        W16805  30.593   0.207  13.104
51986W        W16806   3.747  30.557   9.489
51987W        W16807  26.683  21.032   2.246
51988W        W16808  32.225  40.419  12.160
51989W        W16809  15.564  43.524   1.957
51990W        W16810   8.541  25.679   2.367
51991W        W16811  35.605  13.391   3.134
51992W        W16812  16.601  30.555  12.038
51993W        W16813  15.778  44.432  10.466
51994W        W16814  24.007  10.259  13.871
51995W        W16815   8.271   3.911  11.562
51996W        W16816   4.633  28.703   2.787
51997W        W16817  25.087  17.067   3.182
51998W        W16818  32.562  31.410  14.503
51999W        W16819  27.692  22.998   0.861
52000W        W16820  32.990   3.942   0.157
52001W        W16821   3.107  33.409  14.273
52002W        W16822  41.979  10.805   3.401
52003W        W16823  31.063  25.862   1.650
52004W        W16824  19.260   0.938  14.416
52005W        W16825  27.556  37.004   1.893
52006W        W16826  23.639   2.101  13.046
52007W        W16827  25.971  16.706   2.195
52008W        W16828  17.752   6.611   3.253
52009W        W16829  39.423  14.811   1.675
52010W        W16830   2.953  34.323  11.327
52011W        W16831  29.441   0.365  10.701
52012W        W16832   7.291  16.645   3.425
52013W        W16833   5.677  41.074   2.193
52014W        W16834  29.533  12.585   2.203
52015W        W16835   3.216   1.585   1.342
52016W        W16836   2.660  12.101   0.813
52017W        W16837   8.336  27.033   3.607
52018W        W16838  15.152  35.392  11.498
52019W        W16839  25.805  32.016  11.020
52020W        W16840  22.871   6.621   0.879
52021W        W16841  29.877  11.173   3.408
52022W        W16842   8.519   6.340  13.837
52023W        W16843  42.689   0.715  11.105
52024W        W16844  40.604  37.968  11.645
52025W        W16845  35.069  27.609  10.568
52026W        W16846  21.602   3.732  14.937
52027W        W16847  31.578  22.195  13.433
52028W        W16848   6.169   8.950   2.913
52029W        W16849   8.279  15.055   3.818
52030W        W16850  38.322  44.931   3.880
52031W        W16851  36.827  17.538   0.799
52032W        W16852  28.976  16.548  13.437
52033W        W16853  12.891  25.094  13.407
52034W        W16854  43.659   9.621  11.570
52035W        W16855   8.323   9.876  12.955
52036W        W16856  28.367  20.084   1.548
52037W        W16857  43.474  34.608  14.923
52038W        W16858  21.548  26.749  11.583
52039W        W16859   6.478  32.973   1.407
52040W        W16860  43.041   1.089  13.041
52041W        W16861  29.546  22.318   1.478
52042W        W16862  29.588  16.383  14.247
52043W        W16863  24.153  15.401  11.684
52044W        W16864  38.292   4.886  12.981
52045W        W16865   4.908   9.178   4.398
52046W        W16866  35.029  35.581   4.049
52047W        W16867  34.490  18.131   3.289
52048W        W16868  18.753  31.057  10.700
52049W        W16869  40.537  19.761   1.292
52050W        W16870   0.740  26.198   2.185
52051W        W16871  10.388  13.298  11.504
52052W        W16872   0.177  42.862   3.752
52053W        W16873  20.622  12.094   5.004
52054W        W16874   2.009  33.977   3.820
52055W        W16875  25.050   1.951   4.610
52056W        W16876  38.353  28.748   1.717
52057W        W16877  21.860  11.781   1.280
52058W        W16878   3.533  36.945  14.768
52059W        W16879  30.114  25.293  13.899
52060W        W16880  14.053  38.138   2.673
52061W        W16881  13.232   5.178   2.184
52062W        W16882   8.837   8.863  13.343
52063W        W16883  34.903  20.548   1.181
52064W        W16884  43.501   0.902  14.776
52065W        W16885  20.656  35.354   0.392
52066W        W16886  39.603   6.145   3.592
52067W        W16887   5.709   2.067  12.061
52068W        W16888  43.508  10.538  14.957
52069W        W16889  29.827  19.483   4.497
52070W        W16890  19.037  20.989   4.496
52071W        W16891  34.794   5.912   1.487
52072W        W16892   6.757  41.849   1.416
52073W        W16893   5.045  28.134   4.470
52074W        W16894  39.119  27.129   0.418
52075W        W16895  30.225  26.828   1.810
52076W        W16896   5.379  19.103  14.260
52077W        W16897   7.459  28.942  14.404
52078W        W16898  37.982   2.304  12.515
52079W        W16899  10.080  27.811   4.533
52080W        W16900  18.047   2.268  10.589
52081W        W16901  39.043  30.950  10.446
52082W        W16902  10.419   6.620  14.033
52083W        W16903  13.806  15.997   3.202
52084W        W16904  41.273  35.513  14.304
52085W        W16905  39.289  16.570  10.581
52086W        W16906  43.918  22.477  13.729
52087W        W16907   3.358  21.633   1.817
52088W        W16908  36.498   6.280  14.114
52089W        W16909  29.196  24.572  13.745
52090W        W16910  13.782  20.552  12.165
52091W        W16911  41.692   9.959   0.374
52092W        W16912  27.023  20.585  11.119
52093W        W16913  29.519  44.837   3.754
52094W        W16914   1.308   2.882   4.714
52095W        W16915  43.476  18.131  14.908
52096W        W16916  38.549   7.324   0.922
52097W        W16917  11.512  22.116   0.774
52098W        W16918   8.960  22.846   9.727
52099W        W16919  31.464   4.629  14.780
52100W        W16920  42.620  18.167  12.634
52101W        W16921  33.343  39.877  12.453
52102W        W16922   3.462   3.669   4.541
52103W        W16923  32.024  11.242  11.410
52104W        W16924  20.827  15.357  13.323
52105W        W16925  14.580   0.933  10.350
52106W        W16926   2.330  12.786   3.143
52107W        W16927   4.768  41.026   1.269
52108W        W16928   9.594  34.411  13.648
52109W        W16929  26.567  39.724   4.956
52110W        W16930  37.031  13.346  10.666
52111W        W16931   2.910   7.806   2.922
52112W        W16932  40.399  12.706   1.203
52113W        W16933  38.199  32.472  12.188
52114W        W16934   2.828  14.549  14.805
52115W        W16935  42.907  22.407  11.234
52116W        W16936  24.109  14.078   1.287
52117W        W16937   3.850   5.830   4.151
52118W        W16938   1.698  43.804  13.529
52119W        W16939  43.267   7.804   0.438
52120W        W16940   2.520  12.784   2.332
52121W        W16941  15.585  36.051  10.606
52122W        W16942   0.807  11.916   2.733
52123W        W16943   7.286  13.582   1.461
52124W        W16944  14.935  16.292   1.355
52125W        W16945   5.310  34.455  13.045
52126W        W16946   2.924  39.623   1.619
52127W        W16947  35.594  13.064  12.949
52128W        W16948  18.559  31.602  13.640
52129W        W16949  40.881  34.507  14.512
52130W        W16950  38.965   8.841   9.857
52131W        W16951  40.821   9.620   4.644
52132W        W16952  22.741  27.027  13.388
52133W        W16953  11.732   4.257   1.177
52134W        W16954  14.080  24.419   3.719
52135W        W16955  22.182  44.255  11.154
52136W        W16956  18.844   0.884   2.257
52137W        W16957  40.190  15.442  14.684
52138W        W16958  38.826  25.712   4.113
52139W        W16959  22.523  27.883  12.233
52140W        W16960   2.724  30.213  14.284
52141W        W16961  25.046  30.044  13.352
52142W        W16962  35.661   5.064   3.533
52143W        W16963  35.655  43.364   2.790
52144W        W16964  44.716  17.091  11.887
52145W        W16965  12.153  20.175   3.689
52146W        W16966  29.144   2.859   1.832
52147W        W16967  20.743  11.828   0.825
52148W        W16968   5.449  21.242  12.833
52149W        W16969  17.142  22.048  14.520
52150W        W16970   6.293  33.003   0.927
52151W        W16971  41.414   2.492   4.173
52152W        W16972  35.872   3.970   3.862
52153W        W16973  27.002  15.619   0.941
52154W        W16974  37.033  19.339   4.569
52155W        W16975  28.598  28.423   3.973
52156W        W16976  17.555   9.222   0.785
52157W        W16977  29.947  12.273   4.277
52158W        W16978  43.381  34.288  10.451
52159W        W16979   6.679   2.714  14.797
52160W        W16980   8.759  34.082  11.647
52161W        W16981  38.407  38.334  14.426
52162W        W16982   1.007   3.315   3.258
52163W        W16983  18.245  26.757   0.346
52164W        W16984  16.126  11.905   1.788
52165W        W16985   2.934  27.489  13.890
52166W        W16986  10.726  35.867  13.524
52167W        W16987  43.300  26.478  11.642
52168W        W16988  19.398   8.054  11.012
52169W        W16989  18.547  34.636   1.361
52170W        W16990  14.703  12.810   3.368
52171W        W16991  38.277  13.797  10.341
52172W        W16992  23.197  28.394   0.364
52173W        W16993  30.887  42.588   3.229
52174W        W16994  38.622   5.791   0.212
52175W        W16995   9.990  12.392  11.215
52176W        W16996  40.015  14.851   2.364
52177W        W16997   9.402  40.791  12.216
52178W        W16998  42.904  14.016   3.309
52179W        W16999   7.132  42.171   2.704
52180W        W17000   9.249  44.615   2.512
52181W        W17001  18.022  41.012  13.381
52182W        W17002  10.668  43.948  10.952
52183W        W17003  37.470  11.710   2.176
52184W        W17004  16.970  19.780  12.974
52185W        W17005  30.521  18.029  13.000
52186W        W17006  35.619  44.719  14.335
52187W        W17007  33.554   5.676   4.518
52188W        W17008  25.585  25.163   4.041
52189W        W17009  16.334  23.168   1.600
52190W        W17010  43.113  16.715  12.053
52191W        W17011  34.934   8.184  12.938
52192W        W17012  25.163  18.840   0.926
52193W        W17013  31.728  43.819  11.265
52194W        W17014  17.311   9.100   2.392
52195W        W17015  10.188  19.185  14.057
52196W        W17016  12.822  27.887  14.317
52197W        W17017   3.368  36.068  13.728
52198W        W17018  28.089  18.688   4.814
52199W        W17019  34.995  13.509  13.380
52200W        W17020  10.924   9.337  12.372
52201W        W17021  27.232  31.430   4.825
52202W        W17022   0.876   1.530   4.103
52203W        W17023  17.597  13.421  13.086
52204W        W17024   6.177  29.577   3.442
52205W        W17025  14.040  23.109   3.784
52206W        W17026  42.769  14.453   4.116
52207W        W17027  23.061   7.522   2.582
52208W        W17028  29.014  14.803  12.496
52209W        W17029  35.952   4.186   4.325
52210W        W17030  14.524  10.965   3.206
52211W        W17031  35.376   5.633   2.319
52212W        W17032  19.104   3.387   4.186
52213W        W17033  11.372  39.572   2.285
52214W        W17034  40.788  30.876  13.362
52215W        W17035  44.280  15.845   2.624
52216W        W17036   4.730  30.905  14.853
52217W        W17037  41.019  14.293  14.396
52218W        W17038  17.745  27.010   0.165
52219W        W17039  28.155   5.167   2.369
52220W        W17040  13.717   8.878   2.215
52221W        W17041  39.895   7.375  14.447
52222W        W17042   3.809  26.091  14.422
52223W        W17043   6.180  10.396  14.365
52224W        W17044  28.231  15.264  14.453
52225W        W17045   7.999  11.696   1.592
52226W        W17046  23.713   7.414  14.503
52227W        W17047   7.665   5.905   3.721
52228W        W17048  44.494   3.980   2.393
52229W        W17049   9.287   9.308   1.187
52230W        W17050  11.773  27.089   4.721
52231W        W17051   3.373   8.604   1.201
52232W        W17052   9.853   6.896   1.890
52233W        W17053  35.484  37.845   4.915
52234W        W17054   1.181  33.965  14.209
52235W        W17055   0.533  34.466  11.542
52236W        W17056   3.634  25.992  10.649
52237W        W17057  25.424  35.493   0.866
52238W        W17058   4.434  37.866  12.387
52239W        W17059  11.957  33.419   0.995
52240W        W17060  13.780  36.088  14.367
52241W        W17061  22.206   4.231   4.153
52242W        W17062  30.013  16.758   2.235
52243W        W17063  38.329   6.401   1.512
52244W        W17064  21.201   2.342  13.940
52245W        W17065  18.835  10.885   2.636
52246W        W17066  24.624  10.333  13.285
52247W        W17067  38.265  42.308  11.120
52248W        W17068   8.653  36.123   3.230
52249W        W17069  10.037  17.240   2.255
52250W        W17070   8.316   2.629  14.446
52251W        W17071  41.548   0.672   0.380
52252W        W17072  42.700  27.620  11.028
52253W        W17073  17.836  35.960   1.630
52254W        W17074   7.518  42.775   0.394
52255W        W17075  25.551  26.346  12.003
52256W        W17076  22.185  43.053   0.057
52257W        W17077  18.826  15.820  11.655
52258W        W17078   2.039  43.368  11.640
52259W        W17079   6.891  44.364   0.698
52260W        W17080  41.318   2.475  14.954
52261W        W17081  23.246   2.635   3.825
52262W        W17082  21.840   1.818  11.607
52263W        W17083   3.320  24.629  13.984
52264W        W17084  30.589   5.941   0.380
52265W        W17085  16.497  10.689   2.077
52266W        W17086  37.633  29.871   4.904
52267W        W17087  41.125  27.656  13.782
52268W        W17088  23.192  20.952  10.767
52269W        W17089  43.964  40.027  11.522
52270W        W17090  32.515  26.084  14.435
52271W        W17091  12.253  28.252  13.532
52272W        W17092  16.802  38.595  14.744
52273W        W17093  39.117  42.782   2.778
52274W        W17094  42.982   7.275  13.680
52275W        W17095  30.965  26.978   4.261
52276W        W17096  30.011  16.844  13.856
52277W        W17097  31.485  27.446   0.379
52278W        W17098  25.481  36.238  10.644
52279W        W17099   6.079  16.867  13.518
52280W        W17100  21.005  38.075   0.073
52281W        W17101  26.710  44.005   3.135
52282W        W17102  15.225  21.287   3.183
52283W        W17103   6.820  28.522  12.445
52284W        W17104   7.835  17.188  10.839
52285W        W17105  37.813  25.506   1.943
52286W        W17106   3.705  29.747  10.591
52287W        W17107  28.914  41.401   3.467
52288W        W17108  27.545  30.027  13.017
52289W        W17109  39.513  42.118  11.055
52290W        W17110  34.173   9.192  13.919
52291W        W17111   6.850  17.746   0.228
52292W        W17112  36.956  16.144  11.444
52293W        W17113   1.280  29.236  12.920
52294W        W17114  35.722   6.485  13.427
52295W        W17115  19.528  32.008  13.422
52296W        W17116  11.466  37.086   2.987
52297W        W17117   4.228  41.155  12.892
52298W        W17118  25.481  31.653  10.344
52299W        W17119  21.707  24.900   2.680
52300W        W17120  16.154  34.117   0.924
52301W        W17121  10.766  24.996   0.325
52302W        W17122  29.187  33.719   2.416
52303W        W17123  20.285  27.473  14.866
52304W        W17124  39.102  39.499   4.678
52305W        W17125  30.094  35.177   1.231
52306W        W17126   4.295  41.891   2.351
52307W        W17127  22.722  38.082  10.839
52308W        W17128  22.897  39.050  11.127
52309W        W17129  29.106   7.897  13.862
52310W        W17130  35.373  26.120   3.297
52311W        W17131  15.749  16.658  12.662
52312W        W17132   7.891  12.872   1.928
52313W        W17133  37.544  29.967  13.603
52314W        W17134  28.895  18.607   1.387
52315W        W17135  35.372  29.475   3.635
52316W        W17136  27.072  25.646  13.093
52317W        W17137  35.692  29.227  13.394
52318W        W17138   0.398   2.290   4.561
52319W        W17139  31.533   3.041  13.533
52320W        W17140  15.881  40.211  11.879
52321W        W17141  25.470  42.712   1.424
52322W        W17142  11.775  16.200  12.528
52323W        W17143  29.141  15.131  13.310
52324W        W17144  22.289   2.334   2.327
52325W        W17145  44.952  34.847   2.348
52326W        W17146   5.530  23.224   0.771
52327W        W17147  37.458  40.220  14.944
52328W        W17148   9.554  32.670  10.213
52329W        W17149  18.948  23.463  13.108
52330W        W17150  43.772  12.627  11.262
52331W        W17151  32.566  36.143  10.745
52332W        W17152  36.965  29.726  14.866
52333W        W17153   0.835  44.596  12.893
52334W        W17154  43.549  15.827   2.253
52335W        W17155  40.496  19.221   0.430
52336W        W17156  38.895  23.356  11.567
52337W        W17157  37.952  16.250   0.314
52338W        W17158  29.629  30.626  13.134
52339W        W17159  29.566   5.314  12.955
52340W        W17160  28.426   9.710  11.323
52341W        W17161  33.987   2.049   0.636
52342W        W17162   5.380  44.292   2.797
52343W        W17163   6.328  27.983   3.600
52344W        W17164  16.792   9.901  12.803
52345W        W17165  41.294   1.969  14.900
52346W        W17166  16.816  13.267  10.701
52347W        W17167  20.724  35.369   2.391
52348W        W17168  12.325  31.054  14.583
52349W        W17169  24.955  11.218   1.640
52350W        W17170  36.102  31.048   0.857
52351W        W17171  30.925   2.327   3.623
52352W        W17172  30.235  16.983  13.403
52353W        W17173   0.629  41.421   3.433
52354W        W17174  34.665  40.964   2.364
52355W        W17175  39.612  36.828   3.754
52356W        W17176  29.124   5.433  11.385
52357W        W17177  40.343  36.639   2.324
52358W        W17178  31.379  16.130   9.858
52359W        W17179   9.271  37.749  10.421
52360W        W17180  17.485  32.977  11.971
52361W        W17181  42.973  32.691   1.307
52362W        W17182  19.318  30.439   0.652
52363W        W17183  34.566  40.802  11.193
52364W        W17184  10.742  16.598  12.228
52365W        W17185  17.289  11.721   4.546
52366W        W17186  21.077  36.609   4.517
52367W        W17187   2.720  19.373   4.128
52368W        W17188  22.563   2.990  13.886
52369W        W17189  41.464  24.152   4.389
52370W        W17190  21.383   0.954   3.183
52371W        W17191  19.052   5.357   2.271
52372W        W17192  22.099  44.797  11.140
52373W        W17193  34.453  12.659   2.287
52374W        W17194  18.242  15.805  12.582
52375W        W17195  17.302  27.255   1.472
52376W        W17196   6.737  22.184  10.210
52377W        W17197  33.925   3.785  11.486
52378W        W17198  35.660  21.374   4.040
52379W        W17199  40.351   4.439   2.192
52380W        W17200  15.568   1.991   2.778
52381W        W17201  21.207   7.228  13.984
52382W        W17202  20.788   6.144   2.730
52383W        W17203  25.289   8.783   3.114
52384W        W17204  30.592   3.507   3.671
52385W        W17205  39.753  27.140   1.787
52386W        W17206  27.038  41.802  13.467
52387W        W17207  42.180  26.667   9.928
52388W        W17208  35.479  12.027   2.745
52389W        W17209  36.470  24.508   1.911
52390W        W17210  16.173   2.866   5.088
52391W        W17211   9.397  15.945   2.802
52392W        W17212   3.402  10.438   5.005
52393W        W17213  10.494  33.538   0.936
52394W        W17214   0.849  30.737  10.862
52395W        W17215   2.499  21.256  14.864
52396W        W17216  31.183   8.972   2.727
52397W        W17217  17.727  32.089   1.350
52398W        W17218  16.118  31.491  11.057
52399W        W17219  19.007   3.318   3.681
52400W        W17220  42.470  30.695   1.808
52401W        W17221  37.959   6.368  14.003
52402W        W17222  13.855  35.267  11.755
52403W        W17223  43.931  15.633   3.424
52404W        W17224  30.531  26.830   1.261
52405W        W17225  28.206  23.798  11.085
52406W        W17226  11.924  24.096   1.248
52407W        W17227  34.909  41.314   0.546
52408W        W17228  34.442   2.509  10.679
52409W        W17229  29.092  28.820   3.263
52410W        W17230  41.011   6.836  14.084
52411W        W17231  36.287   9.455   2.159
52412W        W17232   0.548   2.996  10.434
52413W        W17233   3.296  23.961   4.267
52414W        W17234  40.865  25.583  14.671
52415W        W17235  14.164  26.358  11.151
52416W        W17236  44.998  28.169  12.119
52417W        W17237  12.762   6.834   3.228
52418W        W17238  32.434   1.622   4.109
52419W        W17239  23.964   5.856   0.995
52420W        W17240  26.939   5.073   4.732
52421W        W17241  16.779   4.418   1.285
52422W        W17242  24.525  27.734  14.028
52423W        W17243  36.033  44.310   3.811
52424W        W17244  23.093   6.420  12.033
52425W        W17245  35.096  44.864  11.053
52426W        W17246  28.888  19.744  11.839
52427W        W17247  40.504  34.448   2.933
52428W        W17248  13.667  18.632  12.946
52429W        W17249   2.854  23.241   1.256
52430W        W17250  13.164  38.107   0.792
52431W        W17251  37.907   8.163   3.369
52432W        W17252  43.920  44.527  11.991
52433W        W17253  14.102  38.608   1.788
52434W        W17254  33.591  14.664   9.850
52435W        W17255   9.889  10.719  10.794
52436W        W17256  43.607  43.562  11.603
52437W        W17257  43.934  42.565  13.311
52438W        W17258  18.755   9.343   2.700
52439W        W17259  27.091  35.043   3.587
52440W        W17260   2.944  12.580  10.638
52441W        W17261  43.385   5.843   1.254
52442W        W17262  17.979  38.870   2.278
52443W        W17263  42.467  40.016  13.866
52444W        W17264   8.246   6.247  11.126
52445W        W17265  32.195  36.917   3.803
52446W        W17266  30.166  23.094  12.497
52447W        W17267   4.865  18.630  10.495
52448W        W17268   4.339  24.911  13.827
52449W        W17269  13.596  37.925   2.719
52450W        W17270  42.053  36.122  11.678
52451W        W17271  31.487  31.046   1.747
52452W        W17272  30.077  16.676  10.457
52453W        W17273   2.738   5.184  11.624
52454W        W17274  15.714  36.591   2.788
52455W        W17275   1.490  29.061  13.359
52456W        W17276  14.067  19.600   2.428
52457W        W17277  19.202  18.499  14.724
52458W        W17278  44.429  32.482  11.522
52459W        W17279  26.229  16.328   1.327
52460W        W17280   3.305  14.648   1.321
52461W        W17281  18.610  37.638  13.467
52462W        W17282  35.151  32.398  13.573
52463W        W17283  26.578  28.424  12.864
52464W        W17284  14.244  24.236   4.586
52465W        W17285  30.908   4.524  12.079
52466W        W17286  20.888   8.387  12.020
52467W        W17287  31.171  37.833   3.217
52468W        W17288  11.188  33.427  11.724
52469W        W17289  40.126  27.310   0.351
52470W        W17290  34.803   8.277   0.557
52471W        W17291  21.611  39.645  14.760
52472W        W17292   7.736  16.656   2.720
52473W        W17293   8.176   2.110  14.226
52474W        W17294  23.483  43.712  13.547
52475W        W17295  10.271  23.016   5.170
52476W        W17296  10.181  38.661  11.422
52477W        W17297  30.531   5.191   0.872
52478W        W17298  14.139  19.508  12.004
52479W        W17299  11.186   5.727  12.600
52480W        W17300  23.670  39.453   1.151
52481W        W17301   4.135  31.352  12.856
52482W        W17302  20.151  13.520   3.308
52483W        W17303  11.179  43.567   2.692
52484W        W17304  13.785  22.671  11.505
52485W        W17305   6.209  36.790  13.899
52486W        W17306  20.143  11.344   0.627
52487W        W17307  17.262  25.252  10.716
52488W        W17308  40.580  44.727   4.344
52489W        W17309  29.235   3.265   0.026
52490W        W17310  28.599  29.047   4.445
52491W        W17311   7.358  25.921  13.553
52492W        W17312  44.929  20.808   3.162
52493W        W17313  24.623  13.129  12.379
52494W        W17314  35.824  11.655  12.143
52495W        W17315   8.656  24.595  12.966
52496W        W17316  21.956   5.930   3.736
52497W        W17317  27.142   9.827  13.812
52498W        W17318  22.986  36.262  14.088
52499W        W17319  28.608  18.859   3.986
52500W        W17320   6.174   0.472   0.409
52501W        W17321  44.272  20.494  10.277
52502W        W17322   3.821   8.153  14.864
52503W        W17323  39.344  24.979  11.971
52504W        W17324  13.655   3.965  12.982
52505W        W17325   3.353  41.622  12.001
52506W        W17326  10.183  28.152  10.593
52507W        W17327  38.549  28.233  12.251
52508W        W17328  24.028  10.248   2.128
52509W        W17329  44.423   2.339   4.995
52510W        W17330  20.962  12.855   3.401
52511W        W17331  43.924   7.413   2.637
52512W        W17332  28.539  33.579   3.549
52513W        W17333  24.709  10.219   0.411
52514W        W17334   7.741  31.010  10.456
52515W        W17335  38.893  21.661  11.229
52516W        W17336  43.544  14.915   4.181
52517W        W17337  38.058  24.612   3.595
52518W        W17338   1.379  44.746  14.434
52519W        W17339  29.237  14.470   2.170
52520W        W17340  42.873  16.087  13.098
52521W        W17341  19.036  11.793   3.085
52522W        W17342  44.899  10.698   3.379
52523W        W17343  24.533  34.937  10.741
52524W        W17344  23.197  16.333   2.685
52525W        W17345   4.356   8.623   3.248
52526W        W17346  28.946  15.295   0.001
52527W        W17347  11.061  14.988  11.199
52528W        W17348   6.371  31.050   1.234
52529W        W17349   3.830  12.580   2.679
52530W        W17350   5.590  22.509  10.649
52531W        W17351  40.904  13.830   4.432
52532W        W17352  13.464  42.858   1.391
52533W        W17353  10.180   7.913   0.943
52534W        W17354   5.904   5.384  12.431
52535W        W17355   3.479  41.331   3.554
52536W        W17356   6.751   0.507  11.238
52537W        W17357   6.448   0.312   0.850
52538W        W17358  39.432  11.758  13.498
52539W        W17359  36.009  20.820  11.676
52540W        W17360  30.504   2.227  10.763
52541W        W17361   1.835  27.812  14.583
52542W        W17362  42.422   8.705  11.514
52543W        W17363   9.257  24.245  13.447
52544W        W17364  22.910  41.342  13.620
52545W        W17365   2.255  44.884   3.775
52546W        W17366  44.132  22.203  13.347
52547W        W17367  41.125  23.148   4.763
52548W        W17368  21.355  44.508   3.296
52549W        W17369   8.347   4.522  12.179
52550W        W17370  10.847  42.837   1.447
52551W        W17371  28.989  19.985   2.217
52552W        W17372   0.247  28.234  14.258
52553W        W17373  40.327  31.117  13.356
52554W        W17374  29.997  20.188  13.071
52555W        W17375  30.540  16.072   9.464
52556W        W17376  24.281  41.281   4.753
52557W        W17377  27.598  27.430  10.928
52558W        W17378  14.823  22.309   2.788
52559W        W17379  23.934  21.552  14.900
52560W        W17380  19.285   1.575  11.604
52561W        W17381  23.735  43.432  11.226
52562W        W17382  13.411  39.524   3.158
52563W        W17383  32.951  42.392  14.626
52564W        W17384  41.559  23.330   3.781
52565W        W17385   2.374   6.835   0.366
52566W        W17386  21.412  44.328  14.216
52567W        W17387  19.636  21.545   1.653
52568W        W17388   9.439   7.337   4.970
52569W        W17389  11.157  23.661   0.363
52570W        W17390   4.155  44.400  11.186
52571W        W17391   3.890  32.184  10.655
52572W        W17392  34.555  21.016   3.729
52573W        W17393  26.461  35.633  12.162
52574W        W17394  34.030   7.425  13.371
52575W        W17395  20.688   0.066  13.445
52576W        W17396  19.230  43.046  12.129
52577W        W17397   2.402  11.279  11.413
52578W        W17398  30.172  30.958   4.138
52579W        W17399  40.148  11.388   3.613
52580W        W17400   7.685  35.595   4.741
52581W        W17401  29.880  35.335   2.288
52582W        W17402  13.682   4.772  14.879
52583W        W17403  15.116  36.948   2.220
52584W        W17404  19.742   7.255   5.458
52585W        W17405  31.040  38.104  14.725
52586W        W17406  38.624  22.136  13.587
52587W        W17407  17.575  29.011  13.931
52588W        W17408   4.845  27.226   2.783
52589W        W17409  43.591  42.302  10.957
52590W        W17410  34.353  27.178  13.072
52591W        W17411  16.807   9.239   0.308
52592W        W17412   6.373  10.016   2.158
52593W        W17413  21.119  36.062   5.065
52594W        W17414  12.567  26.436   0.741
52595W        W17415  44.036  15.836  11.966
52596W        W17416  16.642  37.765   0.815
52597W        W17417  33.560   9.566   1.988
52598W        W17418  30.132  34.822  11.460
52599W        W17419  42.457  26.707   2.519
52600W        W17420  33.907  37.116  12.252
52601W        W17421  34.647   1.196  10.711
52602W        W17422   6.433   1.077  11.613
52603W        W17423  28.984  25.642  10.833
52604W        W17424  18.689  38.784   5.556
52605W        W17425  19.648  18.160  10.500
52606W        W17426  27.083   3.482  12.406
52607W        W17427  35.071  24.022   1.711
52608W        W17428   3.355  26.561   4.553
52609W        W17429   1.379  32.631  14.851
52610W        W17430  22.464   0.553   4.165
52611W        W17431  43.650  32.762   4.076
52612W        W17432  30.110  36.024  14.895
52613W        W17433   1.808  34.082   3.351
52614W        W17434  32.585  38.477   4.647
52615W        W17435   7.419  43.745  11.161
52616W        W17436  11.835  13.357  14.816
52617W        W17437  34.191  43.324  11.105
52618W        W17438  37.542  14.940   2.329
52619W        W17439  11.931   0.898   4.186
52620W        W17440   7.351  38.319   1.682
52621W        W17441  37.744   8.574  13.457
52622W        W17442  15.731  12.929  10.760
52623W        W17443  22.762   1.064  11.153
52624W        W17444  39.336  19.570  13.002
52625W        W17445  16.366  11.203   3.832
52626W        W17446  30.078  26.967  13.048
52627W        W17447   2.369  44.548  12.873
52628W        W17448  41.738   1.337   3.301
52629W        W17449  21.969  14.219   3.082
52630W        W17450  15.746  42.694   9.930
52631W        W17451  40.476  12.473   2.221
52632W        W17452  20.470   6.700   5.044
52633W        W17453   0.902  17.978  10.207
52634W        W17454  20.698   1.241   3.843
52635W        W17455   5.230  25.235   2.452
52636W        W17456  25.005  16.981   1.841
52637W        W17457  19.695  22.059   1.284
52638W        W17458  22.853  42.296   0.430
52639W        W17459  43.865  14.612   4.860
52640W        W17460   0.554  24.114  13.848
52641W        W17461  39.079  11.839   1.291
52642W        W17462   0.240  27.464   2.367
52643W        W17463  21.757  11.124  13.464
52644W        W17464  39.077  38.592   0.526
52645W        W17465  11.328   9.291   4.130
52646W        W17466  11.440  11.062   4.262
52647W        W17467   3.585  35.864  11.925
52648W        W17468  32.921  18.127  11.072
52649W        W17469  24.204   4.421  10.419
52650W        W17470  31.417   9.444   3.184
52651W        W17471  32.051  38.657   0.815
52652W        W17472  25.754   0.287  11.367
52653W        W17473  42.725   6.354  12.529
52654W        W17474  18.059  18.971   4.246
52655W        W17475  16.356  12.634  14.774
52656W        W17476  17.470  35.880  13.332
52657W        W17477  10.146  23.994  10.820
52658W        W17478  37.425  31.176   4.154
52659W        W17479  15.797  13.721  14.244
52660W        W17480  41.402  43.258   0.117
52661W        W17481  35.088  11.048  14.814
52662W        W17482  27.940  31.668  13.459
52663W        W17483  30.358  13.827  13.477
52664W        W17484  31.489  31.738  10.955
52665W        W17485  12.233  41.298  13.633
52666W        W17486   0.393  36.462   3.723
52667W        W17487  35.408  35.905   3.856
52668W        W17488  38.423   3.652   1.273
52669W        W17489  36.044  12.736   2.832
52670W        W17490  16.057  28.046  12.485
52671W        W17491  15.087  22.187   3.436
52672W        W17492  37.858   2.921   2.150
52673W        W17493  22.071   7.337   1.686
52674W        W17494  35.441  13.903   3.137
52675W        W17495   2.742  37.013  14.507
52676W        W17496  16.760  38.941  13.447
52677W        W17497  13.379   9.804   4.147
52678W        W17498  26.631  11.384  12.075
52679W        W17499  28.871  39.634   3.677
52680W        W17500  13.259  30.092  13.481
52681W        W17501  34.577   3.419  13.480
52682W        W17502  29.199  26.916  13.109
52683W        W17503  32.845  36.929  12.255
52684W        W17504   3.248   2.709  14.875
52685W        W17505  19.617  11.622  12.383
52686W        W17506  42.378  38.352   2.702
52687W        W17507   6.518   6.524   2.839
52688W        W17508   8.590  24.092   3.272
52689W        W17509  35.455  38.339  10.681
52690W        W17510  36.662  28.062   3.856
52691W        W17511  44.517   6.632   4.210
52692W        W17512  35.750  19.095  13.279
52693W        W17513  40.698  14.771  12.789
52694W        W17514  36.000  33.766  12.000
52695W        W17515  22.653   7.672   2.874
52696W        W17516  38.402  17.361  12.480
52697W        W17517  18.484  43.209  10.997
52698W        W17518  41.787  28.183   1.320
52699W        W17519  12.820   8.668  11.108
52700W        W17520  16.072  36.573   0.800
52701W        W17521  18.800  28.657  10.737
52702W        W17522  39.995  34.543  11.705
52703W        W17523  13.106  41.343  13.384
52704W        W17524   0.411   0.468  14.113
52705W        W17525   9.330   6.772  11.462
52706W        W17526  43.900  32.421  11.603
52707W        W17527  27.607  31.661   1.956
52708W        W17528  31.015  25.648  14.317
52709W        W17529  11.827  37.785  10.168
52710W        W17530  17.991  26.277  12.167
52711W        W17531  28.724   6.663   2.841
52712W        W17532  27.648  33.411  11.714
52713W        W17533  17.155   1.104   1.458
52714W        W17534  30.510  37.349   9.924
52715W        W17535  11.958  36.365  13.374
52716W        W17536  20.832  11.726  10.896
52717W        W17537  12.217  15.153   3.709
52718W        W17538  37.162  33.703   3.251
52719W        W17539  23.000   5.797   1.315
52720W        W17540  12.897  28.444   0.917
52721W        W17541  24.619  14.597   3.925
52722W        W17542  17.109  34.920  12.239
52723W        W17543  10.974  27.082  11.615
52724W        W17544  30.914  34.217   1.849
52725W        W17545   6.183  41.993  14.416
52726W        W17546  28.653  20.730   2.726
52727W        W17547   0.288  21.320  11.737
52728W        W17548  18.559  39.170  13.352
52729W        W17549  40.976  33.871  11.202
52730W        W17550  20.081  38.447  10.777
52731W        W17551  44.129  18.138  10.218
52732W        W17552  24.740  30.055  13.783
52733W        W17553   2.865   8.727   1.785
52734W        W17554  20.485  29.417  10.922
52735W        W17555   7.782  14.797   1.436
52736W        W17556  16.228  31.411   4.588
52737W        W17557  37.461  34.464   3.614
52738W        W17558  27.308  30.685  13.862
52739W        W17559  37.866  29.320  11.278
52740W        W17560   4.591  14.457  14.780
52741W        W17561  34.403   2.921   4.220
52742W        W17562  43.796  31.431   0.325
52743W        W17563  43.352  28.055  13.299
52744W        W17564   4.660   1.475  13.877
52745W        W17565  21.383  17.357  14.342
52746W        W17566  19.042  26.479   4.116
52747W        W17567  12.910  39.226   1.468
52748W        W17568  33.969   8.260   2.628
52749W        W17569  23.994  17.612   1.889
52750W        W17570  42.340  30.010   1.031
52751W        W17571  10.891  36.312   0.408
52752W        W17572  36.770  18.053  14.096
52753W        W17573  33.495  13.085  14.287
52754W        W17574   0.922  28.662   1.306
52755W        W17575   3.824  13.877   3.157
52756W        W17576  14.348  11.213   0.705
52757W        W17577  16.119  36.811   1.812
52758W        W17578  21.548  43.544  11.566
52759W        W17579  13.813  44.817  14.418
52760W        W17580  42.879  11.304   0.830
52761W        W17581  19.567  26.310   4.266
52762W        W17582  15.243  15.277  11.503
52763W        W17583  42.254  29.189  11.418
52764W        W17584  38.459  42.831  10.514
52765W        W17585  34.412  37.520  14.070
52766W        W17586  31.185  24.405   2.290
52767W        W17587  32.368  32.135   3.706
52768W        W17588  11.396  39.813  11.046
52769W        W17589   9.111   9.722   1.466
52770W        W17590   1.581  10.034   0.346
52771W        W17591   5.545  15.369  12.142
52772W        W17592  19.096  41.637   3.711
52773W        W17593  39.513  43.234  14.291
52774W        W17594   2.740  10.804   0.475
52775W        W17595  34.717  25.941   1.246
52776W        W17596   3.929  17.600   3.545
52777W        W17597  27.855   3.041   3.750
52778W        W17598  27.595   5.170   3.630
52779W        W17599  15.108  44.180   0.359
52780W        W17600  39.931  41.264  14.302
52781W        W17601  13.223   9.215  14.035
52782W        W17602   3.443  39.831   0.728
52783W        W17603  26.706  43.929  12.775
52784W        W17604   1.405  22.077  12.822
52785W        W17605  39.618   2.816  11.127
52786W        W17606   0.099  30.366  14.089
52787W        W17607  17.654  22.304  11.501
52788W        W17608  10.755  14.029  12.159
52789W        W17609  42.956  42.930   3.173
52790W        W17610  15.561  36.140  13.416
52791W        W17611  36.551  12.584   2.815
52792W        W17612  29.149  42.497  11.638
52793W        W17613  36.580   2.743  13.659
52794W        W17614  19.930  17.611   1.362
52795W        W17615  42.393  35.406  10.718
52796W        W17616  22.058  43.858  13.573
52797W        W17617  15.150  35.061   4.680
52798W        W17618  31.924   8.679  14.006
52799W        W17619  23.379  18.165   2.840
52800W        W17620  40.633  30.398   5.119
52801W        W17621   9.178   5.749  13.138
52802W        W17622   3.341   9.174   2.379
52803W        W17623   2.460  22.805   2.730
52804W        W17624  30.594  30.268  10.747
52805W        W17625   8.686   9.611   1.784
52806W        W17626  11.542  21.354  12.279
52807W        W17627  18.262  42.621   3.748
52808W        W17628  30.951  41.456  10.322
52809W        W17629   8.166  18.268   1.814
52810W        W17630  17.212  42.908  12.076
52811W        W17631  12.720   3.846  10.720
52812W        W17632  43.881   8.436  10.610
52813W        W17633  37.065  30.501   3.878
52814W        W17634  41.333  32.956  11.132
52815W        W17635  20.694  44.714   2.729
52816W        W17636  32.507  40.320  10.417
52817W        W17637  38.112   0.368  12.880
52818W        W17638  24.673  15.274   3.643
52819W        W17639   7.427  20.050   0.377
52820W        W17640  10.615  44.270  14.845
52821W        W17641   8.728   9.247  12.617
52822W        W17642  33.455  27.682  13.809
52823W        W17643  34.496  13.071  11.691
52824W        W17644  41.965  33.446  13.871
52825W        W17645   8.002   9.785   0.307
52826W        W17646  29.070  39.486   0.717
52827W        W17647  13.857  17.345   3.714
52828W        W17648  20.677  11.291  10.657
52829W        W17649  43.784   6.018   3.659
52830W        W17650  25.014  28.482  12.135
52831W        W17651  24.049   1.316   2.331
52832W        W17652  14.081   3.668  11.123
52833W        W17653   5.975  36.689   3.649
52834W        W17654  14.365  21.761   0.045
52835W        W17655  36.602   5.287  14.208
52836W        W17656  17.595   5.613  12.485
52837W        W17657  23.485  36.840   4.057
52838W        W17658  11.123  18.984  13.573
52839W        W17659   8.934   8.239   4.449
52840W        W17660  42.897  13.131   4.566
52841W        W17661  28.451  43.345   3.668
52842W        W17662  11.798  16.705   1.688
52843W        W17663  22.314  26.712  11.236
52844W        W17664  30.979  38.874  12.905
52845W        W17665  17.025   5.298  13.926
52846W        W17666   6.472  19.633  10.697
52847W        W17667  13.281  25.049  13.045
52848W        W17668  44.986  28.256  10.497
52849W        W17669   8.107  13.510  12.428
52850W        W17670  40.482  41.952  12.668
52851W        W17671  22.729  34.062   0.431
52852W        W17672  32.979  39.571  11.550
52853W        W17673  25.093  39.745   2.148
52854W        W17674   9.200   5.380   2.252
52855W        W17675  37.129  28.041  13.900
52856W        W17676  14.697  27.926  12.483
52857W        W17677  43.145  16.720  13.833
52858W        W17678   2.270  21.521   2.891
52859W        W17679  17.492   4.872   4.274
52860W        W17680   6.120   1.736  14.763
52861W        W17681   1.081  43.692   3.143
52862W        W17682  35.182  19.652  11.123
52863W        W17683  12.569  16.192  14.950
52864W        W17684  43.524  37.445  10.344
52865W        W17685  31.345  17.770   4.561
52866W        W17686   3.322  35.613  14.003
52867W        W17687  30.933  41.411   0.309
52868W        W17688  27.967  31.466  12.589
52869W        W17689  34.501   4.018  14.458
52870W        W17690   9.052  44.549  14.266
52871W        W17691  40.602  23.323   2.226
52872W        W17692  43.831  37.660  14.091
52873W        W17693  36.170  20.670  11.171
52874W        W17694  40.510  11.425  10.585
52875W        W17695  31.494  36.806  11.503
52876W        W17696  28.731  18.796  13.746
52877W        W17697   6.896  44.487   2.674
52878W        W17698  11.483  35.301  11.653
52879W        W17699   9.691   5.792  13.253
52880W        W17700  10.669  14.585   2.226
52881W        W17701  37.570  13.728   1.097
52882W        W17702   6.299   1.382   4.329
52883W        W17703   7.558  23.655   1.883
52884W        W17704  42.888   9.580  10.749
52885W        W17705  31.130  13.216  13.824
52886W        W17706  22.914   5.302   3.333
52887W        W17707  15.264  26.915  11.554
52888W        W17708  15.776  17.272  12.044
52889W        W17709  42.551  41.542  11.815
52890W        W17710  27.529  34.125   3.601
52891W        W17711   3.214  44.019  13.525
52892W        W17712  26.623  14.979   4.989
52893W        W17713   3.848  19.487   1.406
52894W        W17714  14.847  29.947   1.657
52895W        W17715   9.738   0.325  13.067
52896W        W17716  28.201  20.105   3.908
52897W        W17717   5.864   0.599   4.555
52898W        W17718   4.439  26.177  13.927
52899W        W17719  15.684  44.498   2.342
52900W        W17720   2.389  38.407   4.632
52901W        W17721  34.884  11.275   3.468
52902W        W17722  15.076  21.106   4.073
52903W        W17723   3.136   4.887  13.504
52904W        W17724  23.710  13.058  14.806
52905W        W17725   7.539  18.362   2.845
52906W        W17726  10.274  41.895   2.802
52907W        W17727  42.405  37.815   2.674
52908W        W17728   1.310  17.152   0.940
52909W        W17729  42.823   8.496  12.075
52910W        W17730  27.938  10.847  12.352
52911W        W17731  17.668   7.107  10.304
52912W        W17732   7.898  40.899  12.027
52913W        W17733  18.933   0.770   0.742
52914W        W17734  32.515  33.163   1.467
52915W        W17735  22.616  19.659  10.647
52916W        W17736   1.539  10.396   4.590
52917W        W17737  15.624   3.782  10.949
52918W        W17738   2.290  26.284   4.097
52919W        W17739  12.284  10.217   1.848
52920W        W17740  16.131  20.546  10.665
52921W        W17741  26.732  39.423   0.921
52922W        W17742  30.019  24.314   1.563
52923W        W17743  36.643  29.513  11.622
52924W        W17744   6.779   9.055  12.586
52925W        W17745  19.598  23.485  14.789
52926W        W17746  44.073  14.522   0.863
52927W        W17747   8.319  31.872  13.801
52928W        W17748  29.029   7.060   4.177
52929W        W17749  33.231  10.400  11.026
52930W        W17750  40.454  44.476   0.529
52931W        W17751  37.536   4.871   4.169
52932W        W17752  42.956  17.202   0.656
52933W        W17753   4.000  30.131  13.050
52934W        W17754  36.971  42.138  11.493
52935W        W17755  15.116   9.210  14.741
52936W        W17756  17.331   4.386   1.162
52937W        W17757   7.267  29.175   1.382
52938W        W17758  31.352  14.257  13.365
52939W        W17759  32.486   8.236   3.352
52940W        W17760   7.007   6.207  12.466
52941W        W17761  10.199  43.600   2.384
52942W        W17762  10.118  16.149  14.849
52943W        W17763  39.365  41.015   4.375
52944W        W17764  13.754  37.747   3.173
52945W        W17765  13.148   3.754   2.870
52946W        W17766  16.643  11.163  14.453
52947W        W17767  27.851  10.937  11.164
52948W        W17768  10.618  12.723   2.751
52949W        W17769  19.151  13.888  10.669
52950W        W17770  18.221   9.284  14.083
52951W        W17771  34.135  23.246   1.304
52952W        W17772  43.551  20.003   3.700
52953W        W17773  27.695  28.175   3.111
52954W        W17774  10.206   7.665   4.500
52955W        W17775  19.069  44.404  10.793
52956W        W17776  40.387  32.318  11.931
52957W        W17777   4.301  30.670   4.945
52958W        W17778   8.412  12.371   0.803
52959W        W17779  28.727  14.616   2.315
52960W        W17780  37.663  33.694  13.414
52961W        W17781  11.115  34.571   4.119
52962W        W17782  40.231  18.935  12.149
52963W        W17783  43.242  15.360  10.820
52964W        W17784  17.523   9.787  11.584
52965W        W17785  43.474  44.778  12.872
52966W        W17786  16.437   5.680  11.475
52967W        W17787  25.301  35.979  13.861
52968W        W17788  29.930  30.983   2.278
52969W        W17789  13.102  25.680  13.811
52970W        W17790  37.553  17.623  10.799
52971W        W17791  36.030  39.612  12.882
52972W        W17792  43.032  22.273   4.928
52973W        W17793  29.084  36.357   1.772
52974W        W17794  14.082  37.346   3.174
52975W        W17795   9.883  23.640  13.385
52976W        W17796   4.793  26.573  13.498
52977W        W17797  41.145  16.815   0.777
52978W        W17798  20.240  34.434  10.252
52979W        W17799  36.441  38.425   4.424
52980W        W17800  39.424  29.579   4.781
52981W        W17801   9.464  35.975   4.605
52982W        W17802  20.170   7.591  13.275
52983W        W17803   6.355  18.542  11.475
52984W        W17804  34.908  35.400  14.934
52985W        W17805   9.872  17.199  13.927
52986W        W17806  19.452  33.563   3.373
52987W        W17807  41.799   9.767   4.734
52988W        W17808  19.222  22.577  13.039
52989W        W17809  28.042  42.954  12.413
52990W        W17810   3.148  28.904   0.837
52991W        W17811  40.298  23.634   4.910
52992W        W17812  42.430   5.769   4.724
52993W        W17813  10.728  26.598   3.231
52994W        W17814  32.415  43.052  10.711
52995W        W17815  18.853  19.274   1.387
52996W        W17816   8.417  10.589  10.916
52997W        W17817  18.647  14.782   0.755
52998W        W17818  39.920  40.244  14.452
52999W        W17819   9.015  29.681  14.959
53000W        W17820  20.040  26.532   1.523
53001W        W17821   9.272   9.614   4.805
53002W        W17822  34.388  19.137   3.394
53003W        W17823   4.788  38.418   1.848
53004W        W17824  25.640  21.272   4.335
53005W        W17825  32.492  37.785  12.657
53006W        W17826  28.640  38.177   1.811
53007W        W17827   4.692  15.076   5.250
53008W        W17828   4.342  20.139  14.334
53009W        W17829  31.041  34.273   2.810
53010W        W17830  22.569   6.248   4.086
53011W        W17831  43.303  10.253  10.386
53012W        W17832  15.121  19.251   0.118
53013W        W17833  12.784  27.854   4.542
53014W        W17834  12.646   0.844   4.365
53015W        W17835  21.078  42.853   5.051
53016W        W17836  35.873  35.837  11.995
53017W        W17837  16.711  37.384  12.391
53018W        W17838  43.350   2.997  11.562
53019W        W17839  39.554  33.399   1.701
53020W        W17840  29.850  41.643  10.336
53021W        W17841  27.597  41.926  14.664
53022W        W17842  40.725  24.816  14.555
53023W        W17843  44.344   8.833  13.310
53024W        W17844   9.280   6.276  11.521
53025W        W17845  27.653  25.221  11.808
53026W        W17846   2.347  27.323   3.411
53027W        W17847  24.468  22.061  14.388
53028W        W17848   9.828  41.314   3.730
53029W        W17849   8.839  28.023   0.349
53030W        W17850  34.113  22.319  12.013
53031W        W17851  14.781  38.834   0.086
53032W        W17852  31.514  19.478   3.694
53033W        W17853   2.961  38.365   3.446
53034W        W17854  21.833  34.063  13.287
53035W        W17855  10.127   1.486  12.496
53036W        W17856  23.961   9.687   1.230
53037W        W17857  39.961  33.528  12.911
53038W        W17858   3.172  25.394  14.457
53039W        W17859   4.053   5.020  13.531
53040W        W17860   3.674   9.659   2.771
53041W        W17861  43.446  20.057   0.702
53042W        W17862  38.822  37.818  11.973
53043W        W17863  35.951   0.697   3.349
53044W        W17864   0.557  11.720  13.490
53045W        W17865  43.402  23.331   0.451
53046W        W17866  34.722  19.110  11.636
53047W        W17867   2.585   4.770  14.066
53048W        W17868  30.474  22.257  13.116
53049W        W17869  34.338  13.339  10.249
53050W        W17870  10.872  42.435   0.676
53051W        W17871  16.713   6.838  14.103
53052W        W17872  31.460  40.558  14.270
53053W        W17873  36.809   0.471   0.785
53054W        W17874  14.282  26.225   3.263
53055W        W17875  39.174  41.491  12.391
53056W        W17876  36.308  12.314   3.615
53057W        W17877  17.201   8.829   0.899
53058W        W17878  28.879  19.153   1.756
53059W        W17879  36.846   4.179  13.889
53060W        W17880  26.586  27.862  13.771
53061W        W17881  38.005  32.416  10.738
53062W        W17882  34.631  20.715  13.800
53063W        W17883   5.213  13.214  10.923
53064W        W17884   4.780  16.690  13.589
53065W        W17885  29.160  25.405  12.877
53066W        W17886  37.252   1.951  11.620
53067W        W17887  12.845  33.075  12.673
53068W        W17888  12.815  40.240   1.393
53069W        W17889  21.998   1.672   1.283
53070W        W17890  43.743  42.356   1.432
53071W        W17891  10.282   5.595  10.702
53072W        W17892  22.143  18.667   4.969
53073W        W17893  20.751  30.216  12.931
53074W        W17894  16.689  19.050   2.099
53075W        W17895  37.621   5.655  11.855
53076W        W17896  23.664  32.872   1.427
53077W        W17897  27.201  43.683   3.015
53078W        W17898  28.958  25.333   3.257
53079W        W17899   9.199  39.473   4.610
53080W        W17900   4.822  14.638  11.102
53081W        W17901  16.058  41.231  13.592
53082W        W17902  34.362  34.968  13.959
53083W        W17903  34.676  24.244  14.808
53084W        W17904  36.513  12.975  11.925
53085W        W17905  30.138  40.461   3.294
53086W        W17906  34.135   6.681   4.545
53087W        W17907  17.954  12.234  11.643
53088W        W17908  27.187  35.547   0.893
53089W        W17909  10.690  34.856   1.688
53090W        W17910  30.759  23.732  11.083
53091W        W17911  15.819  18.531  12.134
53092W        W17912   3.698  24.500   0.304
53093W        W17913  24.465   4.717  13.511
53094W        W17914  26.996  10.330  13.861
53095W        W17915  14.301  10.075   4.615
53096W        W17916  25.162  10.143  11.982
53097W        W17917   3.664  14.124  11.191
53098W        W17918  44.684  40.017   4.531
53099W        W17919   5.116   1.845  14.653
53100W        W17920  36.422  43.709   0.462
53101W        W17921  15.265  24.863   3.344
53102W        W17922  18.953  13.846  11.550
53103W        W17923  43.613   9.927  11.977
53104W        W17924   4.764   3.990  14.825
53105W        W17925  17.515  32.438  12.681
53106W        W17926  40.960  10.872  12.777
53107W        W17927   3.206  13.323  12.476
53108W        W17928  41.261  36.423  10.544
53109W        W17929  42.828  42.073   2.818
53110W        W17930   1.950  26.160   1.895
53111W        W17931  31.670  31.476   0.879
53112W        W17932  18.128  13.568  10.979
53113W        W17933  35.779  23.289   1.707
53114W        W17934   7.818  20.980  13.035
53115W        W17935  44.529  24.025  13.877
53116W        W17936  26.743  30.117  12.538
53117W        W17937  44.047  19.215  10.797
53118W        W17938  10.780  42.829   5.096
53119W        W17939  28.132   5.203   0.460
53120W        W17940  16.033  18.102   0.979
53121W        W17941  44.422  27.404  14.547
53122W        W17942  33.636   1.139  13.530
53123W        W17943  13.587   1.395   3.876
53124W        W17944   3.408   3.553   0.232
53125W        W17945   9.244  38.530   3.684
53126W        W17946  35.992  37.868   1.851
53127W        W17947  39.908  36.454   4.536
53128W        W17948   1.512   9.088   1.712
53129W        W17949  31.950  44.382  13.303
53130W        W17950  33.570   9.955   1.362
53131W        W17951  32.158  21.684  12.196
53132W        W17952   3.560  34.138  13.018
53133W        W17953  24.490   4.307   4.779
53134W        W17954  26.512  39.305  12.937
53135W        W17955  10.077  29.909  13.092
53136W        W17956   4.802  29.872   3.721
53137W        W17957  31.157  20.270   0.325
53138W        W17958  38.861  30.277  13.296
53139W        W17959  37.459  18.644   2.119
53140W        W17960  11.922  20.317   1.765
53141W        W17961  28.123  31.465   3.834
53142W        W17962  21.099   5.411   3.228
53143W        W17963  16.070   8.957  11.588
53144W        W17964  43.842  43.968   0.437
53145W        W17965  32.593  29.181   2.968
53146W        W17966  42.543  27.247   3.127
53147W        W17967  15.716   9.695  12.916
53148W        W17968  24.375   8.637  11.945
53149W        W17969  25.677   4.448  13.010
53150W        W17970  28.212  40.772  11.886
53151W        W17971  39.441  31.071  14.837
53152W        W17972  38.651   4.012   3.169
53153W        W17973  42.856  39.599   2.604
53154W        W17974  31.961  33.503   3.664
53155W        W17975  37.540  15.658  12.060
53156W        W17976   2.664  28.022   1.254
53157W        W17977   9.388  42.333  14.432
53158W        W17978  20.105  37.887  11.686
53159W        W17979  36.596   6.135   4.427
53160W        W17980  26.494  36.989   3.228
53161W        W17981  30.400  21.747  11.171
53162W        W17982  11.245  43.101   0.458
53163W        W17983  38.387   9.403  14.244
53164W        W17984  16.866  44.346  11.962
53165W        W17985  41.308  42.930  14.529
53166W        W17986  11.821   6.446   3.600
53167W        W17987  20.201   7.575  12.751
53168W        W17988  18.273   6.221   2.763
53169W        W17989  36.019  12.777   1.936
53170W        W17990  37.924  44.337  10.671
53171W        W17991  18.302  23.328  13.917
53172W        W17992  13.808  15.106   1.888
53173W        W17993   1.399   3.895   2.113
53174W        W17994  15.739  33.908  11.948
53175W        W17995  34.650  31.436  13.598
53176W        W17996  21.097  20.066  12.610
53177W        W17997  29.750  40.817   3.265
53178W        W17998  41.361  41.103  14.435
53179W        W17999   9.261   9.820   3.794
53180W        W18000  12.756  29.911  14.769
53181W        W18001  16.958  41.414   0.844
53182W        W18002  28.067   9.343  11.155
53183W        W18003  31.713  42.629  11.391
53184W        W18004  37.774   4.158  11.165
53185W        W18005  40.789  34.034  14.940
53186W        W18006  20.079  17.540   4.542
53187W        W18007  27.197  26.179   4.514
53188W        W18008  30.175  32.068  13.956
53189W        W18009  41.338   5.370   0.448
53190W        W18010  28.214   6.062  11.155
53191W        W18011   1.990  15.732   0.220
53192W        W18012  15.772  42.294   3.157
53193W        W18013  33.182  13.317  13.512
53194W        W18014   9.669   3.205   4.680
53195W        W18015   0.516  40.808  11.639
53196W        W18016  30.033  22.727   2.375
53197W        W18017  35.240   0.405   4.869
53198W        W18018   8.112   0.170   3.698
53199W        W18019  26.772  42.954   3.736
53200W        W18020  19.797  27.477  12.738
53201W        W18021  35.037   3.566   1.733
53202W        W18022  36.829  25.627  12.086
53203W        W18023  43.369  43.462  14.804
53204W        W18024  20.129  15.679  13.578
53205W        W18025  38.285  32.523  11.536
53206W        W18026  11.341  30.857   1.938
53207W        W18027  10.516   7.973  12.514
53208W        W18028  31.021  27.568   0.635
53209W        W18029   9.344  23.903  10.918
53210W        W18030  24.150  14.092  14.533
53211W        W18031  37.336   4.844  10.792
53212W        W18032  32.960   1.390   0.484
53213W        W18033  42.981  43.909   0.598
53214W        W18034  10.730  43.380   4.092
53215W        W18035  21.599  17.825  12.239
53216W        W18036  43.342  41.269   4.189
53217W        W18037  44.949  42.487   1.015
53218W        W18038   4.868  31.947   4.502
53219W        W18039   0.736   4.174   4.056
53220W        W18040  20.056  18.823   3.199
53221W        W18041  27.563  13.343  14.117
53222W        W18042   0.690  23.949  11.053
53223W        W18043   8.430   5.698   2.689
53224W        W18044   4.236  11.684   0.486
53225W        W18045  40.453  39.711   4.536
53226W        W18046  40.815   7.875  11.219
53227W        W18047  21.544   3.158   3.641
53228W        W18048   7.512  23.546  14.821
53229W        W18049  26.500  20.447  11.142
53230W        W18050  16.476   2.286  10.806
53231W        W18051  33.230  28.079   0.443
53232W        W18052  40.837  17.492   1.676
53233W        W18053   9.827   7.208  13.582
53234W        W18054  33.103  10.624   4.630
53235W        W18055   9.747   3.784   0.638
53236W        W18056  37.398  30.458   2.403
53237W        W18057  22.571  16.047  12.417
53238W        W18058  29.866   1.506  14.781
53239W        W18059  36.126  43.431  11.007
53240W        W18060  36.372  32.451  13.922
53241W        W18061  41.424  14.073   3.327
53242W        W18062   5.891  34.483   1.830
53243W        W18063   0.030  35.080  14.333
53244W        W18064   8.122  38.711  11.220
53245W        W18065  10.716  26.716  11.913
53246W        W18066   6.141   0.837  14.987
53247W        W18067  22.661  32.107   3.485
53248W        W18068  19.111  37.570   1.771
53249W        W18069  38.549   0.644  12.971
53250W        W18070  16.102  24.011   2.632
53251W        W18071  29.289  30.105  12.456
53252W        W18072  17.392  29.320  14.311
53253W        W18073  40.981  27.972   4.575
53254W        W18074   4.239  30.532   4.406
53255W        W18075  20.528  24.441  12.069
53256W        W18076  26.221  24.067   3.990
53257W        W18077   5.209  40.299   4.118
53258W        W18078  21.157   4.311  13.808
53259W        W18079  31.157  13.638  14.489
53260W        W18080   2.393  29.247   9.491
53261W        W18081  20.966  26.089   3.731
53262W        W18082  36.459  21.519   1.461
53263W        W18083   6.990   4.291   2.783
53264W        W18084   8.429  24.996   3.455
53265W        W18085  16.551  32.448   0.941
53266W        W18086   0.226  24.646  12.693
53267W        W18087   4.940  34.678  11.992
53268W        W18088  27.929  16.133  12.473
53269W        W18089  15.280  40.397   3.722
53270W        W18090   5.748   5.217  11.048
53271W        W18091  17.300  17.268   0.827
53272W        W18092   0.836   5.790   1.431
53273W        W18093  25.174  26.885  13.361
53274W        W18094  21.483   2.902   3.198
53275W        W18095  40.463  24.440  13.919
53276W        W18096  19.608  12.969   4.516
53277W        W18097  30.873   3.772   1.019
53278W        W18098  42.455  36.308  10.931
53279W        W18099   1.958  29.411  12.823
53280W        W18100   5.944   9.233   3.663
53281W        W18101  31.767  29.703  14.432
53282W        W18102  31.515  36.805   1.852
53283W        W18103   5.906  20.018  13.167
53284W        W18104   4.954  27.654   3.125
53285W        W18105  41.126   3.029  13.210
53286W        W18106  34.524  20.067  10.471
53287W        W18107  20.060  13.408   1.287
53288W        W18108  13.445  11.354  10.315
53289W        W18109  41.695  30.437  14.915
53290W        W18110  14.324  35.908   1.048
53291W        W18111  23.647   9.627  13.990
53292W        W18112  24.592  24.928  10.743
53293W        W18113   2.847  16.698   1.842
53294W        W18114  18.473  28.530   3.198
53295W        W18115  13.910  12.863   2.167
53296W        W18116  27.943  17.039   4.543
53297W        W18117  14.216  16.867   5.464
53298W        W18118  23.567  10.352  11.959
53299W        W18119   0.681  39.848  14.289
53300W        W18120   3.927   1.805   3.598
53301W        W18121  20.116  15.771  14.950
53302W        W18122   0.816  12.917   2.772
53303W        W18123  42.381  35.872   0.398
53304W        W18124  22.895  38.419  10.469
53305W        W18125   8.645   1.957  10.620
53306W        W18126  44.002  24.721  10.827
53307W        W18127  34.402  10.930  13.825
53308W        W18128  37.951  19.734   2.332
53309W        W18129  28.385   2.322  12.053
53310W        W18130  17.796   8.304   1.169
53311W        W18131  41.403  32.449  11.170
53312W        W18132  24.128  34.349  14.351
53313W        W18133   8.221  18.704  14.436
53314W        W18134  20.316   1.908  13.067
53315W        W18135  32.227  30.215  11.469
53316W        W18136  30.051   5.147  13.027
53317W        W18137  38.849  38.970  12.527
53318W        W18138   3.661  32.282   0.352
53319W        W18139  15.416  27.223   0.508
53320W        W18140  13.132  35.481  13.009
53321W        W18141  44.995  41.961   0.956
53322W        W18142  41.328  44.659   4.806
53323W        W18143  22.070  19.558  13.088
53324W        W18144  19.139  34.047  13.892
53325W        W18145  37.449  21.630   4.020
53326W        W18146  11.624   2.009  14.472
53327W        W18147   4.757  29.181   3.147
53328W        W18148   0.412  12.145   4.531
53329W        W18149  39.977  10.848   0.303
53330W        W18150   7.975   2.979   0.370
53331W        W18151  40.045  15.928  14.984
53332W        W18152   9.604   7.656  13.704
53333W        W18153   5.956  22.049  11.610
53334W        W18154   7.705  22.053   2.250
53335W        W18155  13.279  22.045   2.787
53336W        W18156   4.345  28.887   3.203
53337W        W18157  37.135   8.339  11.577
53338W        W18158   5.778  28.883   0.805
53339W        W18159   1.334  30.628  11.941
53340W        W18160  18.170  21.457  14.916
53341W        W18161   9.891  38.907  10.787
53342W        W18162   7.484  20.053   4.216
53343W        W18163   3.332  33.341  13.792
53344W        W18164  12.150  44.196   3.888
53345W        W18165  32.197  21.072   1.464
53346W        W18166  25.263  32.951  13.046
53347W        W18167  43.503  33.384  10.660
53348W        W18168   0.364   1.070  11.543
53349W        W18169  13.708  28.595  14.497
53350W        W18170   4.587  33.968  13.009
53351W        W18171   9.165   8.706   4.597
53352W        W18172  37.154   6.290   1.688
53353W        W18173  42.229  26.720  10.695
53354W        W18174   0.509  34.484   0.530
53355W        W18175   7.411  22.658  14.891
53356W        W18176  33.927   5.841  13.480
53357W        W18177   2.098  37.730  10.326
53358W        W18178  11.446  36.876   3.527
53359W        W18179  24.480  11.826   4.620
53360W        W18180  43.842  30.930   0.389
53361W        W18181  43.389  31.390  14.998
53362W        W18182   1.453  43.249   3.850
53363W        W18183  16.650  39.442   4.031
53364W        W18184  25.657  32.802   0.212
53365W        W18185  28.740   8.777   1.516
53366W        W18186  18.626  17.752   3.133
53367W        W18187  26.793   7.621   1.767
53368W        W18188  13.486  11.136  12.285
53369W        W18189  44.363  33.495  10.025
53370W        W18190  38.258  14.689   3.368
53371W        W18191  24.354  32.076  14.377
53372W        W18192  40.268   3.947  13.347
53373W        W18193  28.130   7.397  10.776
53374W        W18194  42.926  43.493  14.515
53375W        W18195  12.179  15.344  12.112
53376W        W18196  23.946  21.725   1.362
53377W        W18197  37.833  33.250  11.905
53378W        W18198  34.912  38.792  10.776
53379W        W18199  22.101   2.166  10.348
53380W        W18200  37.126  42.175  12.381
53381W        W18201   0.188  16.756  12.323
53382W        W18202   7.281   5.626   2.333
53383W        W18203   0.487  23.509  14.507
53384W        W18204  29.516  20.258  10.694
53385W        W18205  21.037  18.667   1.250
53386W        W18206  12.724  27.859  12.798
53387W        W18207  31.476   3.995   4.614
53388W        W18208  16.479  23.749   1.592
53389W        W18209  20.998  17.147  13.378
53390W        W18210  30.027   3.286   4.836
53391W        W18211   3.792  28.602   1.442
53392W        W18212   7.063   4.905  11.949
53393W        W18213  44.888   6.851   3.731
53394W        W18214  10.662  34.919   0.257
53395W        W18215   0.502  35.166   2.736
53396W        W18216  26.085  25.164   3.908
53397W        W18217   7.137  39.705   2.062
53398W        W18218  29.554  27.449  14.484
53399W        W18219  11.338  38.954   3.601
53400W        W18220  25.383  15.065  12.966
53401W        W18221  33.622  14.343  10.810
53402W        W18222   2.463  26.939  13.157
53403W        W18223  38.561  30.997   4.674
53404W        W18224  25.128  31.415  13.553
53405W        W18225   4.027   6.615  12.171
53406W        W18226   3.890  23.194   3.223
53407W        W18227  29.732  26.657   2.661
53408W        W18228  36.356  40.425   3.687
53409W        W18229  27.338  15.592   2.932
53410W        W18230  18.128  32.626  12.876
53411W        W18231  18.726  39.815   0.749
53412W        W18232   7.378   0.808   4.801
53413W        W18233  39.014  13.958  11.137
53414W        W18234  21.679  20.503   3.348
53415W        W18235  20.737  21.258  12.406
53416W        W18236  27.223   5.207   2.277
53417W        W18237  44.809  35.906   2.686
53418W        W18238  35.827   4.867   0.266
53419W        W18239   2.442  16.200  11.543
53420W        W18240  34.858  34.569  11.630
53421W        W18241  22.798  21.687   1.704
53422W        W18242   8.918   5.847   1.888
53423W        W18243  36.901  36.928   2.843
53424W        W18244  26.755  40.985   4.663
53425W        W18245  33.125  41.296   0.022
53426W        W18246   4.357   7.347  13.059
53427W        W18247  31.531   0.938  10.502
53428W        W18248  38.736  24.206  12.397
53429W        W18249  39.224  27.178  11.498
53430W        W18250  26.931  25.572   3.786
53431W        W18251  29.875   1.716  13.395
53432W        W18252   8.265  17.038  10.551
53433W        W18253   7.874  28.606  12.063
53434W        W18254  28.752  12.419  11.194
53435W        W18255  17.166  22.389  12.161
53436W        W18256  17.233   9.660  12.997
53437W        W18257   2.621  15.296  13.545
53438W        W18258  12.219  14.869  13.269
53439W        W18259  21.221  13.445  12.960
53440W        W18260   5.377  38.749  10.935
53441W        W18261   1.875  29.187   0.142
53442W        W18262  37.392  14.852   0.458
53443W        W18263  19.940  30.016  12.732
53444W        W18264  35.518  24.324   3.277
53445W        W18265  16.321  40.003  12.061
53446W        W18266   4.951  36.251  13.068
53447W        W18267   6.721  31.638   2.798
53448W        W18268  44.993   4.242  11.644
53449W        W18269  31.663  26.672  11.552
53450W        W18270  22.208   5.568  12.513
53451W        W18271  15.552   0.673   4.605
53452W        W18272  10.312  42.083   3.796
53453W        W18273   2.402  14.122   1.256
53454W        W18274  39.697  23.318  12.620
53455W        W18275   1.004  11.893  11.257
53456W        W18276   1.272   9.079  13.955
53457W        W18277  19.178   6.806  12.301
53458W        W18278   1.775  12.181   2.142
53459W        W18279  38.368  41.513   1.656
53460W        W18280  38.949  40.463   4.538
53461W        W18281  35.642  39.872  11.588
53462W        W18282  35.449  23.546   1.336
53463W        W18283  20.173  38.915   3.730
53464W        W18284  27.273   5.370  12.418
53465W        W18285  28.106  30.874  12.875
53466W        W18286   6.533   1.739   3.535
53467W        W18287  26.466  36.930   0.818
53468W        W18288  26.419  18.354   5.078
53469W        W18289  29.786  43.608   3.520
53470W        W18290  15.033  20.613   0.041
53471W        W18291  16.983  42.801   0.430
53472W        W18292  42.385  36.864   0.388
53473W        W18293   9.278  32.978  12.582
53474W        W18294  43.809  13.736   3.795
53475W        W18295   4.015   7.324  10.911
53476W        W18296  39.837  44.830  14.472
53477W        W18297  14.271  14.994   2.148
53478W        W18298  10.733  25.577   4.861
53479W        W18299  42.535  14.058  11.166
53480W        W18300  19.923  27.854  11.906
53481W        W18301  23.724  30.531  13.009
53482W        W18302  42.220  23.158   4.947
53483W        W18303  20.141  28.977  11.170
53484W        W18304  40.371  14.697  14.193
53485W        W18305  27.105  23.079  12.652
53486W        W18306  16.763   6.974   3.329
53487W        W18307  42.823  36.838   4.493
53488W        W18308  25.012  31.542   1.325
53489W        W18309  24.600  15.146  11.583
53490W        W18310  33.131  13.241   1.344
53491W        W18311  30.923   9.657   1.844
53492W        W18312  34.725   5.814  14.046
53493W        W18313  43.833  12.678   3.678
53494W        W18314  40.954  22.266   1.807
53495W        W18315  10.852  37.526   1.165
53496W        W18316  43.343  40.115   0.738
53497W        W18317  36.028   9.548   2.678
53498W        W18318  32.389   3.950  13.883
53499W        W18319  21.697   1.296  13.744
53500W        W18320  41.115  28.179   4.113
53501W        W18321  19.177   6.476  14.322
53502W        W18322  11.954  35.090   3.892
53503W        W18323  41.889  26.204   4.021
53504W        W18324  29.621  24.166  12.893
53505W        W18325  18.683  20.671   5.114
53506W        W18326  30.150   9.225  14.227
53507W        W18327  35.325  43.244  10.590
53508W        W18328  20.032  42.867   3.439
53509W        W18329   8.719  30.001   2.274
53510W        W18330  27.752  22.028  13.993
53511W        W18331  22.008   1.395   0.052
53512W        W18332  33.978  13.530  12.094
53513W        W18333  32.207  40.997  14.847
53514W        W18334  26.135  15.168   2.226
53515W        W18335  43.325  39.395   4.271
53516W        W18336  24.051  12.902  12.974
53517W        W18337  20.128  42.063  11.462
53518W        W18338  17.470  11.215   2.638
53519W        W18339   7.346  19.795   1.028
53520W        W18340  30.051  13.309   0.479
53521W        W18341   7.729  11.380   1.887
53522W        W18342  39.135  41.812   1.766
53523W        W18343  38.613  17.736   4.748
53524W        W18344  43.386  21.002   0.168
53525W        W18345  36.092  17.611   2.761
53526W        W18346  33.576  33.536   4.263
53527W        W18347  25.672  22.026   5.415
53528W        W18348  13.120  11.102   1.453
53529W        W18349  40.010  27.160   4.140
53530W        W18350  39.075  26.460   2.376
53531W        W18351   3.681  24.152  12.039
53532W        W18352  34.019   3.705  12.918
53533W        W18353  23.901  27.649  10.958
53534W        W18354  38.508  17.775  10.713
53535W        W18355  44.456  24.638  10.600
53536W        W18356  42.311  15.276   4.146
53537W        W18357  27.860   1.716   1.724
53538W        W18358  31.073  43.036   2.271
53539W        W18359  15.297  39.360  13.156
53540W        W18360  39.917   6.138   1.744
53541W        W18361  31.110   3.471   0.656
53542W        W18362  10.637  10.264   4.350
53543W        W18363   1.835  21.575  11.128
53544W        W18364  17.418  19.455   3.789
53545W        W18365  25.258  16.292   1.387
53546W        W18366   0.995  26.099  10.732
53547W        W18367  38.749  20.821   0.241
53548W        W18368  39.482   1.851  13.819
53549W        W18369  23.249   7.540  10.654
53550W        W18370  40.540  40.466  10.437
53551W        W18371  41.763  23.464   2.237
53552W        W18372  37.334   3.202   0.549
53553W        W18373  13.641  10.669  12.054
53554W        W18374  36.435  32.014  14.781
53555W        W18375   8.321   7.886   2.219
53556W        W18376   5.201  17.054  13.890
53557W        W18377  36.792  41.933   3.316
53558W        W18378  24.020   9.819   0.327
53559W        W18379  44.829  24.219  13.501
53560W        W18380  44.197  43.207   3.775
53561W        W18381  37.993  37.413  13.557
53562W        W18382  35.834  42.404   0.497
53563W        W18383  39.123   9.336  11.402
53564W        W18384  34.614  35.480   4.355
53565W        W18385  17.743  20.741  13.870
53566W        W18386  29.889  32.790  12.131
53567W        W18387  39.188  10.736  11.142
53568W        W18388  37.526   1.238  14.379
53569W        W18389  32.421  41.450   2.206
53570W        W18390  27.537  44.314   2.714
53571W        W18391  42.932   3.428  11.847
53572W        W18392  13.572  41.116  12.631
53573W        W18393  17.115   2.497   3.822
53574W        W18394  26.549  15.863   0.951
53575W        W18395   2.718  11.091   0.019
53576W        W18396  19.081  34.938   0.645
53577W        W18397  25.051  16.727   2.341
53578W        W18398  36.098  28.869  13.502
53579W        W18399  25.030  35.879  14.288
53580W        W18400  21.049   8.886   1.454
53581W        W18401  12.029   7.321   1.314
53582W        W18402  27.422  13.537   3.718
53583W        W18403  39.049  16.471   2.658
53584W        W18404  23.840  30.639  11.086
53585W        W18405   1.394  12.402   4.541
53586W        W18406  17.868  40.413   4.723
53587W        W18407   0.427  44.979  11.878
53588W        W18408  19.695   0.635  14.491
53589W        W18409  31.553   5.677  11.113
53590W        W18410   8.614  29.953  11.974
53591W        W18411   2.197  35.597   2.284
53592W        W18412  15.668  10.562   1.811
53593W        W18413  36.965  19.116  11.874
53594W        W18414  11.661   7.737   4.483
53595W        W18415  39.159  21.257  13.033
53596W        W18416   0.032  18.470   1.262
53597W        W18417  12.225  16.299   0.748
53598W        W18418   0.571  22.726   4.513
53599W        W18419  22.588   3.896   4.057
53600W        W18420  12.842  11.825   3.213
53601W        W18421  37.921  39.899  14.836
53602W        W18422  23.221   7.312  14.693
53603W        W18423  41.823  18.712   0.696
53604W        W18424  22.886   3.951   3.638
53605W        W18425  31.953  19.673   2.399
53606W        W18426  29.988   2.321   3.185
53607W        W18427  39.539   3.931   3.222
53608W        W18428  42.832  37.424  12.087
53609W        W18429  40.266  40.173  10.084
53610W        W18430  24.927  14.316  14.872
53611W        W18431  39.054   3.432   5.064
53612W        W18432  24.569   9.628  14.485
53613W        W18433  17.549   6.276  13.313
53614W        W18434  44.583  34.062   1.366
53615W        W18435  29.664  43.371  11.245
53616W        W18436  20.414  20.056   0.176
53617W        W18437   6.383  35.955   0.765
53618W        W18438  41.339   9.331   3.364
53619W        W18439  14.357  15.264  14.587
53620W        W18440  41.153  41.790   0.891
53621W        W18441  34.484  11.379  11.959
53622W        W18442  41.720  26.034  12.810
53623W        W18443  34.878  40.490  14.238
53624W        W18444  35.436  43.879   0.490
53625W        W18445  34.604  43.563   3.974
53626W        W18446  28.786  43.414  13.303
53627W        W18447  11.194  27.553  11.996
53628W        W18448  28.473  36.744  12.145
53629W        W18449  25.428  21.178  12.411
53630W        W18450  35.069  30.070   3.822
53631W        W18451  10.709  15.332  13.940
53632W        W18452   4.393  21.952   2.250
53633W        W18453  29.548  34.902  14.411
53634W        W18454  24.148  17.516   2.396
53635W        W18455   4.338  12.175  12.832
53636W        W18456  40.765  25.172   3.272
53637W        W18457  35.526  19.802   4.185
53638W        W18458  13.164  11.677   2.329
53639W        W18459  20.831  23.367   3.904
53640W        W18460  35.795  40.524  10.680
53641W        W18461  26.441  30.936   3.161
53642W        W18462   2.026  34.400  11.219
53643W        W18463  40.046   3.530  14.639
53644W        W18464  40.610   5.755  14.370
53645W        W18465  21.097  42.622  12.063
53646W        W18466  43.286  37.053   4.430
53647W        W18467  38.143   3.435   0.887
53648W        W18468  11.746  37.860   4.332
53649W        W18469  24.611  35.408   1.008
53650W        W18470   8.625   0.794  11.333
53651W        W18471  28.447  39.272   2.839
53652W        W18472  34.137   3.671   1.843
53653W        W18473  18.996  28.706  14.975
53654W        W18474  43.549  34.576   4.106
53655W        W18475  40.890  38.794   1.162
53656W        W18476  36.929  24.952  13.305
53657W        W18477  38.022  34.362  11.191
53658W        W18478   4.431  21.515  11.568
53659W        W18479  24.425  18.992   3.384
53660W        W18480  40.850  34.971  13.139
53661W        W18481  37.065  28.412   3.858
53662W        W18482  28.935  34.035   2.827
53663W        W18483  29.502   8.955   2.644
53664W        W18484  24.256   9.299   4.932
53665W        W18485  30.168  17.194  12.112
53666W        W18486   5.797  31.102   0.471
53667W        W18487   5.893  35.401   1.903
53668W        W18488  26.053   6.169   3.737
53669W        W18489  21.138  10.351   0.515
53670W        W18490   7.696  21.070  12.536
53671W        W18491  42.212  26.844  13.033
53672W        W18492   0.292  31.438  13.405
53673W        W18493  41.841  14.802  13.448
53674W        W18494  29.119  15.914  11.134
53675W        W18495  33.941   9.877  11.545
53676W        W18496   7.174   5.257   0.768
53677W        W18497  28.390  25.257  13.437
53678W        W18498  19.294  43.511  12.461
53679W        W18499  36.852  37.955   3.140
53680W        W18500  19.340  29.101   4.083
53681W        W18501  16.440  36.659  14.480
53682W        W18502  42.421  21.090   2.392
53683W        W18503   2.838  44.723   1.067
53684W        W18504   0.909  10.543   3.245
53685W        W18505  44.748  41.974   2.715
53686W        W18506  19.092  36.802  12.634
53687W        W18507   8.833  31.887   1.154
53688W        W18508  33.231  14.283  11.182
53689W        W18509  10.109  23.790   1.940
53690W        W18510   7.377  31.723   1.392
53691W        W18511   5.867  11.352   4.536
53692W        W18512  17.755  21.435   0.804
53693W        W18513  20.815  33.659   1.725
53694W        W18514  21.422  14.752  13.838
53695W        W18515  11.410   5.023   4.208
53696W        W18516  37.140  27.572   2.805
53697W        W18517  38.971  28.204   3.275
53698W        W18518  31.852  44.964  12.583
53699W        W18519   9.188  13.475  14.458
53700W        W18520   2.630  23.109   2.327
53701W        W18521  21.536  42.406   0.075
53702W        W18522  33.145  39.051   3.285
53703W        W18523  11.064  23.875   0.840
53704W        W18524  40.227  20.613   2.884
53705W        W18525  32.959  43.457  13.725
53706W        W18526  23.132  23.033   4.238
53707W        W18527   1.375  17.565   1.877
53708W        W18528  25.085   0.411   0.303
53709W        W18529   7.108  25.727  11.559
53710W        W18530  31.991   4.239  12.893
53711W        W18531  20.896   1.276  11.011
53712W        W18532  28.959  23.570   3.141
53713W        W18533   3.206  27.727   0.408
53714W        W18534  11.355  27.618   1.709
53715W        W18535  29.717  33.902  11.557
53716W        W18536  38.233  14.437  11.092
53717W        W18537  14.646  38.601   9.674
53718W        W18538  24.407  22.154  13.470
53719W        W18539  16.051  19.548   1.172
53720W        W18540  26.784   3.896  13.900
53721W        W18541  11.613  25.997   0.244
53722W        W18542   4.260  43.593  12.947
53723W        W18543  11.863  19.047  14.359
53724W        W18544  17.517  15.725  10.737
53725W        W18545   7.842  16.834   1.228
53726W        W18546   7.016  37.910   1.666
53727W        W18547  41.504  37.990  10.584
53728W        W18548  44.477   7.833  11.133
53729W        W18549  22.520  43.924   3.718
53730W        W18550  39.808  31.358   1.867
53731W        W18551  42.559  18.778   4.684
53732W        W18552  24.567  22.698  11.736
53733W        W18553  22.548  16.890   0.258
53734W        W18554  41.370  28.049  12.935
53735W        W18555  26.598   2.739  11.967
53736W        W18556  28.044  20.842   0.907
53737W        W18557  43.877  30.001   4.347
53738W        W18558   1.493   5.391   4.497
53739W        W18559  19.317  21.478  12.019
53740W        W18560  29.069  20.522   2.272
53741W        W18561  31.994  32.135  11.606
53742W        W18562  28.314  39.588   1.958
53743W        W18563  28.983  36.042   3.542
53744W        W18564   6.099   1.946  14.284
53745W        W18565  38.374  38.289   1.754
53746W        W18566  29.629  35.879  14.774
53747W        W18567   7.449  38.786  13.887
53748W        W18568  23.258   4.344  11.464
53749W        W18569  13.069  22.199   4.094
53750W        W18570  29.643   7.767   2.845
53751W        W18571   3.999  43.933  14.769
53752W        W18572  22.208  28.919   1.997
53753W        W18573  32.099   4.064   2.508
53754W        W18574  31.410  40.459   2.301
53755W        W18575  34.576  22.265  14.544
53756W        W18576  32.952  33.955   1.721
53757W        W18577   9.606  30.407  11.567
53758W        W18578  38.416  19.707   1.276
53759W        W18579  23.240  31.510  12.336
53760W        W18580  35.332  37.311  10.651
53761W        W18581  21.439  32.119  13.585
53762W        W18582   6.235   2.500   0.005
53763W        W18583  14.933   0.201   1.211
53764W        W18584  10.233   4.349   3.770
53765W        W18585  11.917  12.854   3.389
53766W        W18586  23.032   0.752   2.333
53767W        W18587   6.940  35.578  10.655
53768W        W18588  14.307  19.662  12.481
53769W        W18589  17.642  30.075   0.019
53770W        W18590  14.436   7.497   0.713
53771W        W18591   0.437  23.632   4.322
53772W        W18592  11.639  21.745  12.565
53773W        W18593  43.762   5.498   1.864
53774W        W18594   8.877  18.824  13.740
53775W        W18595   8.863  21.480   3.053
53776W        W18596  11.903  16.590   9.790
53777W        W18597  27.015  24.156  11.513
53778W        W18598  10.132  44.840  10.841
53779W        W18599  32.994  37.560   1.257
53780W        W18600   4.173  25.970  11.609
53781W        W18601   6.623  33.391   4.159
53782W        W18602  24.963   5.661   1.708
53783W        W18603  27.994   8.812   2.770
53784W        W18604  37.566   4.980  11.905
53785W        W18605  42.518  24.076  14.746
53786W        W18606  13.908  15.718   1.859
53787W        W18607  23.214  28.490  12.151
53788W        W18608   3.882  34.399   1.900
53789W        W18609  35.408   9.735   2.502
53790W        W18610  38.281  11.735   1.335
53791W        W18611  15.592   0.796   0.990
53792W        W18612   5.250  10.142  14.768
53793W        W18613  42.068   9.716  13.500
53794W        W18614  36.651  42.970  10.542
53795W        W18615  43.066   1.541  14.032
53796W        W18616  41.988   0.932   3.004
53797W        W18617   0.993  39.812   0.225
53798W        W18618  27.616   1.277  13.431
53799W        W18619  38.331  24.587  11.425
53800W        W18620  30.552   5.727   2.338
53801W        W18621  36.763   7.238   3.860
53802W        W18622  41.707   0.207   0.239
53803W        W18623  43.548  25.204   1.219
53804W        W18624  29.131  34.786   2.174
53805W        W18625  37.309  12.114  13.454
53806W        W18626   4.670  19.519  14.883
53807W        W18627  40.547   3.302   2.779
53808W        W18628  29.663  14.344  12.921
53809W        W18629  18.479  29.418  14.932
53810W        W18630  23.705  20.053   2.674
53811W        W18631  32.399  40.394   1.330
53812W        W18632  20.259  11.966  13.927
53813W        W18633  36.343  12.696   3.269
53814W        W18634  37.349  27.162  12.862
53815W        W18635   1.670   5.921   3.765
53816W        W18636  23.632  33.128   0.982
53817W        W18637  31.981  42.993   0.956
53818W        W18638  38.032  41.979  13.725
53819W        W18639  17.594   9.159   4.589
53820W        W18640  17.844  40.787  12.900
53821W        W18641  38.473  22.306   0.464
53822W        W18642  26.782  10.312   5.026
53823W        W18643  26.662  16.552  10.221
53824W        W18644  27.076   4.985  12.718
53825W        W18645   3.272  14.747   4.907
53826W        W18646  14.030  41.003  12.383
53827W        W18647  29.596  19.120  12.765
53828W        W18648  34.972  21.790  13.855
53829W        W18649   6.376  42.815   5.327
53830W        W18650  34.009  40.891   0.721
53831W        W18651  19.349  16.104  12.126
53832W        W18652  22.814  25.156   1.810
53833W        W18653   5.216  24.969  13.990
53834W        W18654  23.194   7.428  12.003
53835W        W18655  18.003   5.528  12.167
53836W        W18656  38.026  35.832  12.071
53837W        W18657  30.928  23.040   4.532
53838W        W18658  37.564  31.002   3.266
53839W        W18659   1.478  14.829  14.835
53840W        W18660  13.037  40.787  14.727
53841W        W18661   9.084  13.996  14.324
53842W        W18662  32.477  30.531   4.169
53843W        W18663  40.043  32.691  10.700
53844W        W18664  19.063  30.677   0.205
53845W        W18665  20.512  37.450  12.520
53846W        W18666  44.005   6.197   4.099
53847W        W18667   9.104  25.267  13.332
53848W        W18668   4.952  19.070  12.146
53849W        W18669   4.113   9.201   1.366
53850W        W18670  22.164   3.098   4.417
53851W        W18671   5.783   9.911  11.317
53852W        W18672   3.633  27.380  11.393
53853W        W18673  27.734  26.486  11.071
53854W        W18674   8.752  11.750  14.786
53855W        W18675  12.645  20.978   4.095
53856W        W18676  12.737  12.322   1.920
53857W        W18677  23.178  41.891  11.521
53858W        W18678  10.465  39.873  14.829
53859W        W18679  24.973  20.853   1.697
53860W        W18680  33.983  27.840  11.224
53861W        W18681  44.066   1.341   1.062
53862W        W18682  15.368  13.729  13.942
53863W        W18683   2.902  13.786  14.424
53864W        W18684   4.690  29.254  13.551
53865W        W18685   7.422   6.713  10.347
53866W        W18686  20.347  25.013   0.406
53867W        W18687  39.418  20.745   3.452
53868W        W18688  25.589   0.916   0.282
53869W        W18689  23.070  12.931  12.121
53870W        W18690  36.425  29.823   2.522
53871W        W18691  21.462  43.536  14.086
53872W        W18692  13.339  10.097  13.715
53873W        W18693   8.250  10.316  13.404
53874W        W18694  35.915  32.140  13.855
53875W        W18695  16.100   4.223   2.190
53876W        W18696   6.800  13.086   2.205
53877W        W18697  13.222   9.846  12.429
53878W        W18698  40.925  41.919   1.345
53879W        W18699  23.071  30.470  11.706
53880W        W18700  25.578  32.533   4.499
53881W        W18701  20.009  13.833   4.564
53882W        W18702  29.513  22.928   2.168
53883W        W18703  19.560   0.842  12.035
53884W        W18704   5.856  42.270  12.287
53885W        W18705  34.540  14.328   2.085
53886W        W18706  19.873   7.557   1.173
53887W        W18707   6.804   6.349  13.436
53888W        W18708   9.577  16.553   2.640
53889W        W18709   0.045  38.539   1.811
53890W        W18710  38.406  14.185  13.405
53891W        W18711  14.492  26.568  11.491
53892W        W18712  31.097  43.483  10.731
53893W        W18713   9.033  40.530  11.537
53894W        W18714  22.648  41.737  13.371
53895W        W18715  23.529  37.872  13.974
53896W        W18716  18.805  33.066  11.733
53897W        W18717  25.822   4.830   3.291
53898W        W18718   6.488  35.901  13.369
53899W        W18719  40.524   9.042  10.128
53900W        W18720  41.957  42.828  12.450
53901W        W18721  18.226   4.809   1.417
53902W        W18722  14.706  20.267  12.433
53903W        W18723  14.810  30.118  12.152
53904W        W18724   2.688   6.331   3.079
53905W        W18725  19.728   8.146  10.212
53906W        W18726  20.429  37.283   4.604
53907W        W18727  11.725  42.918  13.817
53908W        W18728  15.183   5.834   4.521
53909W        W18729  40.842   2.804   4.378
53910W        W18730   3.998   6.765   2.285
53911W        W18731  29.277   7.683  11.155
53912W        W18732  15.270   7.306   2.089
53913W        W18733   2.133  42.618  14.201
53914W        W18734  41.179  30.390   0.015
53915W        W18735  36.801  42.312  12.794
53916W        W18736  27.889   3.804   4.620
53917W        W18737   7.887  10.138   1.370
53918W        W18738  12.029  11.188   2.243
53919W        W18739  33.080   8.938   1.948
53920W        W18740   8.829  31.784  12.321
53921W        W18741  41.808  32.614  13.301
53922W        W18742   1.311  16.230   0.359
53923W        W18743  12.682  41.864   2.989
53924W        W18744  35.324  44.392   2.129
53925W        W18745  12.703  37.572  14.213
53926W        W18746  37.507  13.145   0.275
53927W        W18747  21.159  18.282  13.317
53928W        W18748  23.581  13.569   2.429
53929W        W18749  30.780  30.367   1.305
53930W        W18750  31.521  34.834   0.324
53931W        W18751  16.522   6.993   0.414
53932W        W18752  42.049   3.477   4.103
53933W        W18753  43.867  35.067  12.157
53934W        W18754  26.162  42.381  13.597
53935W        W18755  35.768  15.299  12.242
53936W        W18756  19.527  21.557  11.571
53937W        W18757  13.843  27.941  12.414
53938W        W18758   8.163  24.152   0.834
53939W        W18759   2.348  17.514   4.731
53940W        W18760  10.145  31.378  12.177
53941W        W18761   2.831  21.900   1.649
53942W        W18762  11.634   5.240  10.519
53943W        W18763   4.428  10.839  13.691
53944W        W18764  32.224  31.647  14.864
53945W        W18765  20.997   0.330  10.464
53946W        W18766   3.931  34.313  14.675
53947W        W18767  44.360  15.299  12.612
53948W        W18768  24.646  23.026  10.025
53949W        W18769   2.011  36.081   2.309
53950W        W18770   5.725  11.962   0.273
53951W        W18771  23.042   9.931   1.339
53952W        W18772  20.532  11.744  14.424
53953W        W18773   8.451  18.797  13.409
53954W        W18774  34.289  15.151   5.039
53955W        W18775  32.087  23.603  14.391
53956W        W18776  43.891   4.654  13.844
53957W        W18777  28.373  16.809   4.180
53958W        W18778  23.035  41.804   0.437
53959W        W18779  36.899  13.981  14.111
53960W        W18780  28.072  33.268  14.879
53961W        W18781  31.203  22.162   4.048
53962W        W18782   2.144  28.487  12.470
53963W        W18783  16.102   3.682   4.064
53964W        W18784  10.314  12.804   3.164
53965W        W18785   9.461  41.286  12.012
53966W        W18786  39.058  24.642   0.399
53967W        W18787  41.959  28.829  11.169
53968W        W18788  24.557   6.639  11.114
53969W        W18789   3.213  22.596   1.878
53970W        W18790  26.204  33.966   4.597
53971W        W18791   9.883  35.296  12.247
53972W        W18792  29.920  28.062   1.253
53973W        W18793  27.928   3.029  11.197
53974W        W18794   6.319   5.480  13.320
53975W        W18795  17.166  43.210   0.007
53976W        W18796   2.845  42.473  12.031
53977W        W18797   9.416  11.385  14.427
53978W        W18798  34.986  38.053   1.065
53979W        W18799   3.359  37.789  11.559
53980W        W18800  16.052   2.789   0.339
53981W        W18801  37.983  27.130  13.579
53982W        W18802  17.665  22.263   4.067
53983W        W18803  24.785  11.465  14.401
53984W        W18804  37.052  31.005  10.552
53985W        W18805  10.729   5.767  12.954
53986W        W18806  41.515  29.011   0.327
53987W        W18807  17.115  39.623   4.912
53988W        W18808   2.157   0.432   0.688
53989W        W18809  37.689  27.957   4.736
53990W        W18810   6.239  10.604  13.866
53991W        W18811  11.228  39.358  11.247
53992W        W18812  18.551   2.813   0.800
53993W        W18813   0.038  14.395   3.346
53994W        W18814  40.205  21.735  14.190
53995W        W18815  39.442  36.494  13.368
53996W        W18816  27.198   2.957  13.349
53997W        W18817  44.507   7.635   3.638
53998W        W18818  25.558  40.103  13.884
53999W        W18819   1.228   7.142  11.568
54000W        W18820  27.147  26.997   1.780
54001W        W18821   2.177  10.794  13.472
54002W        W18822  22.771  12.855  11.607
54003W        W18823  43.700   4.974  13.505
54004W        W18824   3.421  37.852  13.936
54005W        W18825  24.567  24.607  13.046
54006W        W18826  29.099   6.819   3.715
54007W        W18827  20.791  36.654  13.376
54008W        W18828  43.110  32.079  10.748
54009W        W18829   4.846  18.527  14.904
54010W        W18830  15.797  31.031   1.729
54011W        W18831  10.757  26.644   1.825
54012W        W18832  16.996   8.667   4.105
54013W        W18833  37.821  28.504   3.271
54014W        W18834  12.183  22.471  14.769
54015W        W18835  24.825  16.630  13.982
54016W        W18836  38.888  43.293  14.892
54017W        W18837  28.208  11.328  11.211
54018W        W18838   0.676  29.087   0.297
54019W        W18839  24.537  13.569   1.911
54020W        W18840  34.049   3.260  13.409
54021W        W18841  39.852  24.286  11.201
54022W        W18842  34.496  24.689   3.205
54023W        W18843  11.923   9.733   4.656
54024W        W18844  14.348   5.747   4.293
54025W        W18845  38.962  20.468   1.209
54026W        W18846   1.646  18.404   2.219
54027W        W18847  29.058  12.243  14.385
54028W        W18848  11.414  24.631  11.201
54029W        W18849  30.020  13.438   0.995
54030W        W18850  13.225   9.760  14.093
54031W        W18851   0.256   8.945  14.813
54032W        W18852  18.360  19.815   3.659
54033W        W18853  18.125   8.896  12.446
54034W        W18854   6.489  26.564   5.719
54035W        W18855  28.837  16.183   4.130
54036W        W18856  11.704   1.854  12.398
54037W        W18857  38.155  33.888  13.524
54038W        W18858  20.746  10.174  14.762
54039W        W18859  10.869   5.643  14.981
54040W        W18860  15.570  15.735  13.618
54041W        W18861  39.433  44.286  12.161
54042W        W18862  26.922  38.918   0.748
54043W        W18863  16.465  13.069  13.207
54044W        W18864  16.806   0.604  13.588
54045W        W18865  27.056  10.637  10.711
54046W        W18866  27.182  41.510  12.407
54047W        W18867  12.835  11.750  11.256
54048W        W18868  42.104  33.858  10.567
54049W        W18869  21.665  35.570  13.511
54050W        W18870  10.939  39.013   2.689
54051W        W18871  16.716  27.990   3.829
54052W        W18872   7.024   9.273  11.634
54053W        W18873   7.303  29.895   3.723
54054W        W18874  20.156  37.954  12.685
54055W        W18875  19.641   5.719   5.078
54056W        W18876  25.788  17.769  11.582
54057W        W18877   0.323  20.779   2.817
54058W        W18878  42.579  19.844  12.328
54059W        W18879   5.270  28.578  10.398
54060W        W18880  35.890  41.757   2.542
54061W        W18881   5.690  24.043  13.045
54062W        W18882  39.497  17.293  11.152
54063W        W18883   2.845  26.210  11.248
54064W        W18884  35.853  19.585   1.318
54065W        W18885  44.893  17.035   2.796
54066W        W18886  21.452  41.797   1.390
54067W        W18887  23.549  23.412   4.746
54068W        W18888  44.571  32.354  13.843
54069W        W18889   5.742  14.643   2.162
54070W        W18890  28.421  28.033   1.219
54071W        W18891  38.886  17.093  12.432
54072W        W18892  25.753   1.773   2.814
54073W        W18893   8.662  27.438   3.572
54074W        W18894  14.403  39.831   2.479
54075W        W18895   8.075  44.384  13.963
54076W        W18896  27.401  12.581  10.996
54077W        W18897  10.143  12.932   0.263
54078W        W18898  17.135  27.271  11.582
54079W        W18899  41.906  43.374   1.994
54080W        W18900  10.265  40.549  12.448
54081W        W18901   2.480   6.164   0.785
54082W        W18902  20.160  44.896   1.948
54083W        W18903  29.628  29.405  14.442
54084W        W18904   3.522  42.016   3.898
54085W        W18905  41.666  26.021  14.303
54086W        W18906  34.972   0.067  14.491
54087W        W18907  34.977  33.160  14.046
54088W        W18908   2.904  31.880   1.804
54089W        W18909   9.346  18.055  10.742
54090W        W18910  19.542  44.526   3.288
54091W        W18911  35.929  26.795  13.503
54092W        W18912  43.346  16.295   2.696
54093W        W18913  43.225   7.325   3.105
54094W        W18914  29.671  41.965  12.108
54095W        W18915  37.570  15.441   2.211
54096W        W18916  27.234  34.827  12.529
54097W        W18917   3.783   5.320  13.896
54098W        W18918  18.789  21.318  13.762
54099W        W18919   0.941  41.035  12.522
54100W        W18920  39.518  31.418   0.514
54101W        W18921  32.200  11.548  12.883
54102W        W18922  42.445  20.223   2.916
54103W        W18923  27.930  33.841   0.934
54104W        W18924  41.278  35.416   2.215
54105W        W18925   8.046  23.928  14.334
54106W        W18926  18.057  13.722   2.867
54107W        W18927  37.598  29.670   1.648
54108W        W18928  25.499  28.731  14.527
54109W        W18929  30.037  38.331   1.124
54110W        W18930  18.305  43.703  12.186
54111W        W18931  34.335  31.889  11.577
54112W        W18932   8.213  27.939   2.616
54113W        W18933  22.625  25.948  12.356
54114W        W18934  43.353   3.223   1.762
54115W        W18935  40.222  16.475  14.829
54116W        W18936  13.365  39.444   1.652
54117W        W18937  41.720  41.526   3.625
54118W        W18938  38.825  43.931   2.505
54119W        W18939  24.160  31.999  12.691
54120W        W18940  32.424  35.163  12.585
54121W        W18941   9.806  33.796  12.281
54122W        W18942  40.800  26.903   1.823
54123W        W18943  30.682  41.433  10.756
54124W        W18944  27.583   1.025  13.901
54125W        W18945  19.903  12.185  12.885
54126W        W18946  21.473  41.955  10.538
54127W        W18947  28.665  20.239  13.576
54128W        W18948  14.069  21.730   4.546
54129W        W18949  43.427  43.702  11.145
54130W        W18950  38.027   5.604  12.508
54131W        W18951  19.805   2.312   4.645
54132W        W18952  16.788  19.980   0.837
54133W        W18953   4.900  43.429   2.902
54134W        W18954  25.542  26.621  13.580
54135W        W18955  40.838   0.326  11.202
54136W        W18956  40.471  19.727  14.899
54137W        W18957  17.358  27.147  12.012
54138W        W18958  30.764  29.744  13.320
54139W        W18959  23.633  39.330   0.278
54140W        W18960  27.607   6.332  13.883
54141W        W18961  17.860  29.865  10.616
54142W        W18962  43.893  17.225  11.637
54143W        W18963  25.919   0.081   1.809
54144W        W18964  14.018  20.090  14.378
54145W        W18965  37.401  39.711   2.954
54146W        W18966   8.746   1.664   4.521
54147W        W18967  10.733  38.051  13.050
54148W        W18968  31.211  32.144   0.783
54149W        W18969  32.827  12.678   4.987
54150W        W18970  38.486  40.492  11.042
54151W        W18971   4.245  33.899   2.471
54152W        W18972  19.062  40.271   2.330
54153W        W18973  33.486   3.531   3.757
54154W        W18974  20.016  44.060  12.574
54155W        W18975  19.729  18.761   0.399
54156W        W18976  10.873   7.296   4.217
54157W        W18977  41.774   1.847  10.245
54158W        W18978  26.686  15.883  12.084
54159W        W18979   9.115  35.737  12.722
54160W        W18980  38.771  21.063   4.996
54161W        W18981   8.408  43.463   0.404
54162W        W18982  15.283   3.217  14.410
54163W        W18983  44.668  28.949   0.315
54164W        W18984  35.559  25.671   3.452
54165W        W18985  20.286  21.857   3.350
54166W        W18986  23.471  17.360   4.831
54167W        W18987  44.694  30.131  14.788
54168W        W18988  38.713  10.759   0.961
54169W        W18989   9.302  25.582  10.683
54170W        W18990  10.952  29.855  12.380
54171W        W18991  42.348   3.518  11.113
54172W        W18992  21.784   8.216  12.184
54173W        W18993  33.659  32.906   0.177
54174W        W18994  18.031  25.093   4.492
54175W        W18995  26.227  24.953   1.312
54176W        W18996  28.175  34.617  13.471
54177W        W18997   6.226  24.200  13.867
54178W        W18998   2.200  24.850  13.331
54179W        W18999  28.501   7.202  13.884
54180W        W19000  18.695  41.132  10.252
54181W        W19001  29.583  11.067   2.247
54182W        W19002   8.670  27.592   0.031
54183W        W19003  24.107  37.044  13.889
54184W        W19004  44.927  12.002  12.267
54185W        W19005  26.940  18.575   3.680
54186W        W19006  12.211  17.031   3.253
54187W        W19007   3.004  37.996   3.053
54188W        W19008  20.298  17.290   2.693
54189W        W19009  31.551  43.278  10.577
54190W        W19010  37.189  13.832   4.213
54191W        W19011  14.710  43.888   4.204
54192W        W19012  29.669   6.977  11.951
54193W        W19013  19.699  18.721  14.857
54194W        W19014  10.776   0.486  13.002
54195W        W19015   0.515   3.230   3.068
54196W        W19016  43.916  40.128   4.090
54197W        W19017  19.814   0.320   4.502
54198W        W19018  14.680  11.850   4.317
54199W        W19019  31.482  14.652  11.377
54200W        W19020  43.797  31.933  13.034
54201W        W19021   3.007   3.430  11.107
54202W        W19022  32.977  17.020   2.258
54203W        W19023  42.964   7.380   2.654
54204W        W19024   0.389  26.956  13.046
54205W        W19025  16.059  37.330   1.826
54206W        W19026  29.187  10.318  11.729
54207W        W19027  25.285   6.941  10.738
54208W        W19028   8.129  19.149   4.321
54209W        W19029  37.564  21.937   2.236
54210W        W19030   9.707  41.980  11.984
54211W        W19031  21.234  30.497   1.637
54212W        W19032  43.079  19.070   0.700
54213W        W19033  35.372   8.416   0.321
54214W        W19034   5.915  29.686  13.974
54215W        W19035  14.754  30.642   3.634
54216W        W19036  11.418  41.568   4.671
54217W        W19037  35.929  23.284  10.760
54218W        W19038   6.839  36.096   3.349
54219W        W19039   7.086  28.088   4.653
54220W        W19040  32.013  17.001  12.657
54221W        W19041  20.227  33.586  11.500
54222W        W19042   4.851  15.436   4.886
54223W        W19043  31.009   8.347  14.356
54224W        W19044  41.620   2.736   0.280
54225W        W19045   5.086  36.042   4.961
54226W        W19046  33.059   6.210  13.866
54227W        W19047  40.403   7.275  12.750
54228W        W19048  25.395   2.516   4.858
54229W        W19049  22.110  35.483   1.212
54230W        W19050  30.972  21.017  13.544
54231W        W19051  43.823  39.255   3.917
54232W        W19052  40.258   9.313   2.383
54233W        W19053   9.324   8.075   4.120
54234W        W19054   3.418   9.317  10.659
54235W        W19055  14.302   4.709  10.355
54236W        W19056   7.032  34.167   3.968
54237W        W19057   2.010  40.902  11.548
54238W        W19058  26.025  24.712   4.540
54239W        W19059  37.951  44.885   1.170
54240W        W19060  24.703  19.187  13.821
54241W        W19061  34.342  29.328  14.424
54242W        W19062   6.428  15.796   0.959
54243W        W19063  31.743  42.417  12.870
54244W        W19064  38.077  22.618   2.373
54245W        W19065   0.312  40.832   0.868
54246W        W19066  30.585  39.361  13.880
54247W        W19067  18.750   8.280  10.338
54248W        W19068   7.311  30.161  10.660
54249W        W19069  13.739  30.319   0.536
54250W        W19070   2.278  28.756   4.473
54251W        W19071  15.694  41.987  11.555
54252W        W19072  29.964   4.988  13.919
54253W        W19073  18.483  15.151  12.343
54254W        W19074  19.978  20.852  12.252
54255W        W19075  11.262  28.751   3.253
54256W        W19076  28.407  24.529   1.141
54257W        W19077   3.285  30.436   0.919
54258W        W19078  39.586   4.020  12.495
54259W        W19079  26.700   8.828   1.298
54260W        W19080  22.939  25.500  14.295
54261W        W19081  32.641  11.261   4.504
54262W        W19082  25.271  27.166  12.940
54263W        W19083   8.117  32.076  14.345
54264W        W19084  31.611  24.970  14.782
54265W        W19085  36.800  30.716  12.246
54266W        W19086  35.021  15.742  12.347
54267W        W19087  25.032  27.194   4.822
54268W        W19088  17.325  42.848  13.428
54269W        W19089  40.863  15.960   0.316
54270W        W19090  38.834  19.073   4.393
54271W        W19091  10.933   3.498  13.940
54272W        W19092   9.012  22.084  12.044
54273W        W19093  13.878   6.296   0.786
54274W        W19094  22.080  36.921  12.048
54275W        W19095  21.268  27.237  12.894
54276W        W19096  23.008  36.510  10.681
54277W        W19097   1.857   7.783   4.711
54278W        W19098   0.457  38.930  14.876
54279W        W19099   6.285   4.228  13.895
54280W        W19100  31.625  24.079   0.299
54281W        W19101  38.976  40.710  11.712
54282W        W19102  35.102  12.075  14.768
54283W        W19103  21.662  17.585   2.699
54284W        W19104  21.227  18.529   3.172
54285W        W19105  44.949  39.436  11.197
54286W        W19106  22.219  24.729  11.091
54287W        W19107  27.236  17.320  11.712
54288W        W19108  16.324   8.219  13.849
54289W        W19109  14.317  32.399   3.613
54290W        W19110   1.909   2.853  12.963
54291W        W19111  39.278  25.193   1.608
54292W        W19112   8.669   3.136   2.166
54293W        W19113  22.851  31.428   1.512
54294W        W19114  19.466  42.788   2.471
54295W        W19115  28.623  16.593  13.832
54296W        W19116  40.676   3.659  11.965
54297W        W19117  41.082  13.185  11.592
54298W        W19118  22.550  33.849   4.681
54299W        W19119  19.672  14.343  12.125
54300W        W19120   3.916  37.138  12.886
54301W        W19121  22.444  17.324  12.934
54302W        W19122  18.313  37.312   0.442
54303W        W19123  31.666  21.086  10.583
54304W        W19124   8.757  19.773  14.087
54305W        W19125  44.145   9.723   5.148
54306W        W19126  43.632  30.987  10.507
54307W        W19127  16.672   2.359   3.162
54308W        W19128  25.491   4.842   3.684
54309W        W19129  21.293   1.757   2.726
54310W        W19130  32.151  27.510  14.580
54311W        W19131   5.969  11.954  11.112
54312W        W19132  37.334  19.573  10.224
54313W        W19133  17.481  37.244  12.050
54314W        W19134   8.353   5.603  12.776
54315W        W19135  31.138  35.070  10.705
54316W        W19136  29.145  43.788  12.458
54317W        W19137   4.364  44.464  10.694
54318W        W19138  15.019  16.274   0.280
54319W        W19139   1.073  16.927  12.433
54320W        W19140  23.115  33.454   4.112
54321W        W19141  19.495  44.055   0.328
54322W        W19142  28.214   3.985  11.170
54323W        W19143   0.009  31.486   4.521
54324W        W19144  35.117   2.447  11.191
54325W        W19145   9.316   3.323  11.109
54326W        W19146  31.093  37.699   4.941
54327W        W19147  11.463  17.073  13.381
54328W        W19148  23.415  39.886   2.888
54329W        W19149  10.655  13.251  11.940
54330W        W19150  36.401  29.107  10.715
54331W        W19151  22.525  43.915  12.407
54332W        W19152   3.249   2.864   0.744
54333W        W19153   4.486  14.179   0.994
54334W        W19154  17.605  29.470  11.599
54335W        W19155  43.540  10.095  12.794
54336W        W19156  29.151  11.795  11.585
54337W        W19157   1.014  44.187   2.330
54338W        W19158  15.583  13.776  12.698
54339W        W19159  25.409  16.578  14.669
54340W        W19160   3.495   7.848   1.822
54341W        W19161  15.563  12.853  14.337
54342W        W19162  22.167   1.366  12.278
54343W        W19163  30.437   1.707  10.652
54344W        W19164  31.130  11.577  11.508
54345W        W19165  11.134  29.301  13.493
54346W        W19166  30.500  42.739  12.389
54347W        W19167  27.715  25.056  13.940
54348W        W19168  13.700  16.078  12.735
54349W        W19169  37.284  14.737  11.817
54350W        W19170  15.812   8.499  12.430
54351W        W19171  21.182  32.614  14.896
54352W        W19172  21.445  44.869   3.717
54353W        W19173  42.936   3.480   5.032
54354W        W19174  33.785  13.693  12.540
54355W        W19175  41.918  16.203  10.619
54356W        W19176  18.074  39.077  12.541
54357W        W19177   4.962  33.213  13.134
54358W        W19178  15.538  20.732   0.468
54359W        W19179   8.680  11.972   2.695
54360W        W19180  42.615  44.948   4.053
54361W        W19181  11.149  18.160   4.320
54362W        W19182  34.710  40.079  12.511
54363W        W19183  14.646  17.164  12.831
54364W        W19184  20.020  23.779   3.717
54365W        W19185  44.248  18.764   3.774
54366W        W19186  32.482  31.228   0.283
54367W        W19187   1.486  22.559   3.132
54368W        W19188   1.398  12.205  11.237
54369W        W19189  25.733  11.122   1.303
54370W        W19190  22.141  39.751   1.910
54371W        W19191  19.034   3.682  11.146
54372W        W19192  28.194  26.690  11.109
54373W        W19193  20.097  32.615  13.542
54374W        W19194  42.100  19.673   4.962
54375W        W19195  41.509   0.164  12.101
54376W        W19196   5.411  28.245   1.722
54377W        W19197  30.372  39.462   1.006
54378W        W19198   0.810  30.544  11.711
54379W        W19199   4.348   9.555  12.934
54380W        W19200  27.861  12.996  10.241
54381W        W19201  24.178  15.747  12.093
54382W        W19202  11.400  25.713  14.782
54383W        W19203  11.841  33.551  11.086
54384W        W19204  40.632   9.377   0.694
54385W        W19205   4.153  14.983  13.447
54386W        W19206  11.147  22.722   2.436
54387W        W19207  19.262   6.410  13.082
54388W        W19208  20.066  26.638  13.245
54389W        W19209   5.214   7.424   3.698
54390W        W19210  36.288  32.413  12.572
54391W        W19211  12.649  10.312  14.470
54392W        W19212  15.211  20.525  14.493
54393W        W19213  21.761   0.270   1.789
54394W        W19214  43.168  11.697  13.517
54395W        W19215  21.228  29.328   4.524
54396W        W19216  43.302   7.950   4.630
54397W        W19217  26.607   3.768   1.132
54398W        W19218   3.471  18.703   0.432
54399W        W19219  12.697  35.778   1.322
54400W        W19220  38.703  23.172   2.194
54401W        W19221   7.873  42.827   3.810
54402W        W19222   1.145  17.010   4.611
54403W        W19223  15.750  27.505   1.381
54404W        W19224  33.187  33.640  10.257
54405W        W19225  30.895  18.638  14.796
54406W        W19226   5.252  18.236  11.114
54407W        W19227  32.036  16.995   3.291
54408W        W19228  34.492   5.393   3.086
54409W        W19229  36.930  20.711  13.392
54410W        W19230  12.638  23.577  10.627
54411W        W19231   9.600  11.892   1.302
54412W        W19232  26.416  32.861  13.841
54413W        W19233  19.250  23.334  13.496
54414W        W19234  15.740   7.507  13.914
54415W        W19235  33.454  37.305  11.148
54416W        W19236   0.515  30.976  14.459
54417W        W19237   1.744  16.341   2.342
54418W        W19238   1.518   3.783  10.553
54419W        W19239  15.715   2.369   3.078
54420W        W19240  13.196  29.638   1.475
54421W        W19241  33.402  12.799   1.352
54422W        W19242  39.867  20.580   3.646
54423W        W19243  35.249  21.594   0.935
54424W        W19244  40.193  26.622  12.890
54425W        W19245   0.230  39.030   2.162
54426W        W19246  33.079  19.529  11.031
54427W        W19247   1.920   3.789  12.926
54428W        W19248  30.587   2.529  11.707
54429W        W19249  26.040  16.140  10.667
54430W        W19250  26.381   7.613   0.933
54431W        W19251  12.083  11.962  11.536
54432W        W19252  13.154   2.654   4.587
54433W        W19253  22.625  41.519   1.976
54434W        W19254  35.098  23.808  11.205
54435W        W19255   4.344  13.529   0.493
54436W        W19256   0.513  31.138   3.552
54437W        W19257  37.483   8.123  10.654
54438W        W19258  32.498   9.457   0.041
54439W        W19259  39.381  31.054   2.628
54440W        W19260  44.766  15.174   4.232
54441W        W19261  29.515   1.100  14.746
54442W        W19262  29.113   0.808  14.855
54443W        W19263  28.356  17.153   2.767
54444W        W19264  16.006   3.751   3.205
54445W        W19265  32.529  42.503   2.896
54446W        W19266  37.968   5.450  13.943
54447W        W19267  22.706  11.070   0.655
54448W        W19268  44.407  30.381   1.516
54449W        W19269  30.883  26.565  13.533
54450W        W19270  31.095  18.147  11.103
54451W        W19271  33.308  39.090  12.056
54452W        W19272  12.267  21.799   4.167
54453W        W19273   5.420   6.869   3.789
54454W        W19274  13.178  12.128  12.614
54455W        W19275  10.892  38.348   3.245
54456W        W19276  25.679  29.167  14.800
54457W        W19277  28.161  27.082  13.138
54458W        W19278  42.213  21.664   0.884
54459W        W19279  11.339  25.367  14.311
54460W        W19280  38.017   7.344   0.052
54461W        W19281  44.482  28.887  14.833
54462W        W19282  35.136   3.869   4.596
54463W        W19283  25.991  25.704   1.553
54464W        W19284  44.743  14.570   4.919
54465W        W19285  34.412   5.198  12.115
54466W        W19286  38.648  19.280  11.200
54467W        W19287  40.324  28.710   1.267
54468W        W19288  38.995  28.711  11.618
54469W        W19289  17.598  39.435   4.971
54470W        W19290  27.410  40.680   0.319
54471W        W19291   3.875  15.789  13.764
54472W        W19292  26.715  43.885   1.281
54473W        W19293  41.377  13.884  14.361
54474W        W19294   4.969  35.134  14.827
54475W        W19295  30.919   7.487   1.009
54476W        W19296  15.673  20.046   2.729
54477W        W19297  25.488  20.414   3.740
54478W        W19298  27.421  40.994   1.743
54479W        W19299   2.322   0.047   0.354
54480W        W19300  36.271  22.057   3.627
54481W        W19301  12.882  12.718  11.608
54482W        W19302  12.643  33.980   5.050
54483W        W19303   2.421  35.299   3.536
54484W        W19304  11.430  44.644  14.819
54485W        W19305  42.311  32.689   1.979
54486W        W19306  43.957  38.940  12.013
54487W        W19307  24.596  33.342  14.006
54488W        W19308  39.845  14.803  11.722
54489W        W19309  43.947  38.034   1.198
54490W        W19310  32.753  18.621   2.772
54491W        W19311  30.412  38.019  12.631
54492W        W19312  42.706  43.984   2.160
54493W        W19313  12.479  14.296   3.542
54494W        W19314  43.554  10.278  13.680
54495W        W19315   7.577  31.047   1.835
54496W        W19316  19.659   4.372   1.340
54497W        W19317  24.033  15.415  13.829
54498W        W19318  38.831  29.962   3.883
54499W        W19319   4.297   2.481   3.080
54500W        W19320   5.317  16.218   4.397
54501W        W19321  24.511  16.194  11.602
54502W        W19322  23.760  12.524  11.601
54503W        W19323  16.322  28.695   1.865
54504W        W19324  29.677   1.730   2.881
54505W        W19325   1.746   3.898   1.732
54506W        W19326  12.707  27.150   3.266
54507W        W19327   2.448  14.139   4.577
54508W        W19328  23.004   6.008  12.973
54509W        W19329   3.717   1.193   0.307
54510W        W19330  14.895  28.848   9.883
54511W        W19331  16.194   0.920   2.882
54512W        W19332  15.520  19.043   1.543
54513W        W19333  33.212   9.935   1.787
54514W        W19334  27.752   5.704  12.027
54515W        W19335  44.512  11.331  14.493
54516W        W19336  18.739   9.284  14.241
54517W        W19337  30.253  28.459   3.107
54518W        W19338  27.580  32.447   4.110
54519W        W19339  39.817   9.053   2.310
54520W        W19340  12.600  42.563   1.360
54521W        W19341  42.246  34.221   4.287
54522W        W19342  25.068  29.898   3.197
54523W        W19343  20.738   5.512  14.882
54524W        W19344   3.289  22.037  14.284
54525W        W19345   1.109  17.557   0.626
54526W        W19346   1.258  39.194  13.426
54527W        W19347  42.781  34.644   2.727
54528W        W19348  40.919   3.322   0.221
54529W        W19349  41.930  42.233   2.910
54530W        W19350  18.594  33.708   0.406
54531W        W19351  13.645  38.059  12.411
54532W        W19352  37.128  28.484  13.077
54533W        W19353   8.173   5.316   4.173
54534W        W19354  12.627  39.881  14.375
54535W        W19355  20.214  29.832  10.746
54536W        W19356   6.890  26.194  14.953
54537W        W19357  10.538  10.594   1.241
54538W        W19358  40.393  41.435   3.728
54539W        W19359  42.714  17.061   4.667
54540W        W19360  23.537  41.095   3.598
54541W        W19361   2.230  35.873   0.935
54542W        W19362  17.699   8.777   2.552
54543W        W19363  42.822   2.542  14.019
54544W        W19364  31.185  23.789   4.573
54545W        W19365  19.705  41.871  14.056
54546W        W19366   5.915  40.870   2.620
54547W        W19367   8.581  23.084  13.428
54548W        W19368  44.765  26.771   0.010
54549W        W19369  11.786  37.533  13.226
54550W        W19370  15.234  21.527   2.700
54551W        W19371  22.868  40.740  13.426
54552W        W19372  23.273   9.398   3.608
54553W        W19373  25.944   4.329  14.054
54554W        W19374  28.086  27.191  10.989
54555W        W19375  37.550  36.615   4.500
54556W        W19376  21.515  30.117   4.193
54557W        W19377  15.914   4.355   0.887
54558W        W19378  38.837  14.545  13.901
54559W        W19379   3.453  28.905  13.901
54560W        W19380  41.473  39.596  11.714
54561W        W19381   9.817   1.367   1.389
54562W        W19382  31.415   0.375   2.702
54563W        W19383  23.157   9.154  13.049
54564W        W19384  19.985  13.136   0.387
54565W        W19385  16.316  37.794   1.684
54566W        W19386   6.335  30.183   1.286
54567W        W19387  29.286  22.227   3.633
54568W        W19388  10.669  28.486  12.475
54569W        W19389  16.856  34.161  11.531
54570W        W19390  16.988   4.697  14.619
54571W        W19391  44.530  24.073   3.340
54572W        W19392  25.636   5.480   0.953
54573W        W19393   9.031  27.068   0.636
54574W        W19394  36.491  30.131   1.307
54575W        W19395  37.481  31.844   2.796
54576W        W19396  25.195  31.570   4.375
54577W        W19397   5.322  34.340  14.838
54578W        W19398  26.086  21.330   2.988
54579W        W19399  15.275  28.350   4.699
54580W        W19400   5.221  30.966  12.480
54581W        W19401   4.458  23.944  12.538
54582W        W19402  10.624   7.170  12.125
54583W        W19403   2.997  19.600   3.706
54584W        W19404  15.335   4.831  12.869
54585W        W19405  36.329  33.103   0.455
54586W        W19406  41.846   5.376  14.122
54587W        W19407   2.793  24.681  10.326
54588W        W19408  14.273   1.599  13.777
54589W        W19409   8.673  15.121   1.753
54590W        W19410  27.236   1.886   1.001
54591W        W19411  30.006  34.049  14.072
54592W        W19412  10.358  36.338  11.284
54593W        W19413  32.450  42.416   2.370
54594W        W19414  31.675  33.984   3.606
54595W        W19415   6.687  41.823  12.088
54596W        W19416   9.762  39.062  13.954
54597W        W19417  31.002  16.397  10.729
54598W        W19418  43.451  17.217  14.441
54599W        W19419  11.700   4.734  12.081
54600W        W19420  10.138  26.669   0.864
54601W        W19421  18.633  38.012   2.959
54602W        W19422  20.941  42.020   2.798
54603W        W19423  12.279  29.852   2.617
54604W        W19424   3.037  26.758  14.412
54605W        W19425  12.202  38.519  10.935
54606W        W19426  31.048  16.554   2.843
54607W        W19427  26.135  18.563  13.509
54608W        W19428  24.632   7.419   2.832
54609W        W19429  14.536   9.182   1.935
54610W        W19430   6.234  32.878  11.932
54611W        W19431   5.217  31.930  13.649
54612W        W19432   3.842  32.621  13.924
54613W        W19433  18.124   4.236   2.280
54614W        W19434  37.550  10.095   0.427
54615W        W19435  24.445   2.998   3.178
54616W        W19436  41.853  39.868  12.533
54617W        W19437   6.386  23.425  10.743
54618W        W19438  25.027  10.531  11.619
54619W        W19439  32.078  34.889  13.478
54620W        W19440   6.393   7.080  11.075
54621W        W19441  39.618  31.005   0.782
54622W        W19442  30.529  33.969   4.519
54623W        W19443  25.150  12.304   2.185
54624W        W19444  20.584  10.253   5.178
54625W        W19445  20.071  23.125  11.711
54626W        W19446  16.633  40.043  12.463
54627W        W19447  41.019  20.510   1.405
54628W        W19448  37.618   5.077  11.166
54629W        W19449  31.026  26.592   0.898
54630W        W19450  21.684  29.093  10.717
54631W        W19451  25.164   4.336  14.524
54632W        W19452  16.776  33.890  11.070
54633W        W19453  30.066  42.913   0.649
54634W        W19454  38.386  31.879   2.744
54635W        W19455  37.891  20.989   4.091
54636W        W19456  25.288   2.024   5.050
54637W        W19457  15.618  17.060  11.620
54638W        W19458   1.355  13.160  10.685
54639W        W19459  11.791  33.463  13.779
54640W        W19460  38.715  26.187   4.526
54641W        W19461   0.411  10.426  13.812
54642W        W19462  25.681  25.601  12.504
54643W        W19463  36.459  23.288  13.059
54644W        W19464  37.869  26.542  11.542
54645W        W19465  12.825  28.339   4.658
54646W        W19466  24.552  35.829   1.973
54647W        W19467   7.412  33.189  11.674
54648W        W19468  38.129  11.611   0.854
54649W        W19469  14.756  20.584  11.091
54650W        W19470  28.184  29.440  11.266
54651W        W19471  33.978  37.875   3.551
54652W        W19472  16.268   6.724   4.170
54653W        W19473  42.075  18.268  10.757
54654W        W19474  16.200  17.126   0.722
54655W        W19475   5.820  21.979   0.967
54656W        W19476   4.279  25.125  13.351
54657W        W19477  14.351  15.462  13.819
54658W        W19478  31.465  17.499  14.993
54659W        W19479  27.074  32.866   5.408
54660W        W19480  26.027  41.945  11.650
54661W        W19481   7.958   4.564   2.963
54662W        W19482  15.111  44.244   2.031
54663W        W19483  27.563  23.347   4.089
54664W        W19484  12.576  21.235   2.743
54665W        W19485  35.087  17.197  12.541
54666W        W19486  13.063  35.793  12.521
54667W        W19487  14.126  42.033  13.863
54668W        W19488   5.584  35.618  13.524
54669W        W19489   7.649  11.740   0.374
54670W        W19490   4.970  36.772  14.328
54671W        W19491  40.022  16.495   1.563
54672W        W19492  31.445  42.311   2.053
54673W        W19493   4.275   9.994  10.542
54674W        W19494  36.949   0.102   2.623
54675W        W19495  16.694  14.606   1.006
54676W        W19496  24.023  28.022   1.041
54677W        W19497  17.878  15.552   9.877
54678W        W19498  13.841  38.303   4.380
54679W        W19499  34.744  33.711  12.087
54680W        W19500  44.639  27.429   1.582
54681W        W19501  23.640  17.222   2.732
54682W        W19502  40.975  32.437   0.652
54683W        W19503  15.572   9.874   0.733
54684W        W19504  15.856  18.977  13.471
54685W        W19505  38.335   3.890   0.812
54686W        W19506   5.448  24.867  14.432
54687W        W19507  39.146  17.403  14.337
54688W        W19508  43.605  42.570  12.415
54689W        W19509  33.946  11.901  11.500
54690W        W19510   8.850  31.415  14.451
54691W        W19511  16.333   8.473  12.476
54692W        W19512  28.401   2.646   0.893
54693W        W19513  43.478   9.253  14.319
54694W        W19514  23.246  39.026   4.240
54695W        W19515  29.909  21.494  12.905
54696W        W19516   5.310   3.916  11.159
54697W        W19517  26.796  18.389   4.141
54698W        W19518  14.110  15.056   4.096
54699W        W19519   6.221  15.065  10.785
54700W        W19520  39.593  34.619  11.394
54701W        W19521  38.093  14.147   1.982
54702W        W19522  14.031  40.883   0.401
54703W        W19523   2.881   3.498   0.329
54704W        W19524  14.165   2.721   1.305
54705W        W19525  36.884   8.656  12.569
54706W        W19526  22.283   7.001   2.669
54707W        W19527  20.973   0.187   2.157
54708W        W19528  42.692  40.106  11.213
54709W        W19529  14.074  41.066  14.904
54710W        W19530  16.637   4.428  12.569
54711W        W19531   1.646  16.883   2.439
54712W        W19532  39.367  24.159  14.402
54713W        W19533  21.193  15.786   3.694
54714W        W19534  31.478  23.990  13.906
54715W        W19535  19.034  19.364  12.876
54716W        W19536   6.014  32.446  12.139
54717W        W19537   6.339  26.970  11.943
54718W        W19538  27.013  26.640  13.344
54719W        W19539  21.570   0.974   2.317
54720W        W19540   8.213  41.211   2.382
54721W        W19541  12.769  37.103   2.522
54722W        W19542  14.781  24.991  14.382
54723W        W19543  20.144   5.696   4.968
54724W        W19544   7.438  14.046   1.296
54725W        W19545   6.553   4.819   5.182
54726W        W19546  11.751  19.051  13.060
54727W        W19547   5.931  32.511   2.253
54728W        W19548  43.487  12.758   0.266
54729W        W19549   3.375  29.139   3.719
54730W        W19550  30.849  29.053  11.210
54731W        W19551   1.853  36.006   1.311
54732W        W19552  12.777  21.000   4.609
54733W        W19553  43.855  10.766   3.367
54734W        W19554  22.197  42.717   4.272
54735W        W19555  26.700  38.454   1.568
54736W        W19556  22.448  26.515   0.923
54737W        W19557  42.480  18.955   3.737
54738W        W19558  22.107  24.718   2.395
54739W        W19559   6.414  31.924   0.132
54740W        W19560  16.041  20.739  14.855
54741W        W19561   2.697  22.265   4.291
54742W        W19562  13.024  15.684  12.575
54743W        W19563  12.801  23.187  12.907
54744W        W19564  38.903  27.145  10.685
54745W        W19565  13.068  42.503   2.290
54746W        W19566   5.323   5.409   3.992
54747W        W19567   7.168  44.464  13.410
54748W        W19568  40.387  26.470   0.450
54749W        W19569  28.701  34.137   1.364
54750W        W19570  43.541  36.790   4.062
54751W        W19571  44.909  37.167   1.357
54752W        W19572  29.599  20.436   0.014
54753W        W19573  34.619  37.412   0.450
54754W        W19574  41.508  37.827   4.189
54755W        W19575  40.154   5.441  12.431
54756W        W19576  11.893  16.062   4.197
54757W        W19577  31.465  20.517   2.306
54758W        W19578  11.758   8.122   1.144
54759W        W19579  14.686  33.533   4.027
54760W        W19580  37.459  24.828   1.907
54761W        W19581  23.118   2.233   4.557
54762W        W19582  44.254  24.394   4.622
54763W        W19583  31.527  15.310  13.513
54764W        W19584  12.087  38.921   4.191
54765W        W19585  43.477  27.474   0.031
54766W        W19586  14.334  35.122  14.301
54767W        W19587  11.454  40.273   0.497
54768W        W19588  32.878  19.179  14.080
54769W        W19589  12.188  43.037   3.138
54770W        W19590   5.393  40.368   2.201
54771W        W19591  17.720  30.517  13.841
54772W        W19592   7.916  10.862   3.112
54773W        W19593  22.392   2.514  14.790
54774W        W19594  44.258  11.121   2.323
54775W        W19595  10.260  34.977  11.670
54776W        W19596  39.194  22.484   4.054
54777W        W19597  44.899  42.961  10.707
54778W        W19598  25.974  35.372   2.596
54779W        W19599  17.760   2.695  10.741
54780W        W19600  34.124  44.978   0.832
54781W        W19601  14.667  22.231   1.300
54782W        W19602  26.280   8.517   3.200
54783W        W19603  23.965  43.513  14.054
54784W        W19604  23.535  14.597  14.911
54785W        W19605  14.037  42.795   0.468
54786W        W19606  18.119  23.827  12.342
54787W        W19607  12.561  23.946  14.903
54788W        W19608  18.172  43.811  14.035
54789W        W19609  10.068  11.140   0.017
54790W        W19610  42.539  38.370   0.537
54791W        W19611  11.857   4.156   1.679
54792W        W19612  34.410  43.582  10.714
54793W        W19613  18.863   2.981   0.415
54794W        W19614  42.520  17.331  11.128
54795W        W19615  25.625  39.309  12.404
54796W        W19616  32.580  14.807   2.521
54797W        W19617  41.553  39.532   3.181
54798W        W19618  41.465  11.311   3.329
54799W        W19619  42.362  24.747  13.570
54800W        W19620  17.162  16.362   3.196
54801W        W19621  28.681  23.146   1.004
54802W        W19622   9.943  20.238   3.324
54803W        W19623  27.390  32.987  13.542
54804W        W19624  39.900  28.034  14.912
54805W        W19625  28.709  35.970  10.396
54806W        W19626  34.229   5.472  13.831
54807W        W19627  30.259  26.940   2.305
54808W        W19628  28.944  29.540   0.967
54809W        W19629  31.711  28.312   0.509
54810W        W19630   8.068  39.512  14.340
54811W        W19631  34.177   4.798   5.122
54812W        W19632   1.015   8.970  11.182
54813W        W19633  31.047  40.386  14.532
54814W        W19634  40.808  28.074   3.253
54815W        W19635  38.558  17.229   2.163
54816W        W19636  25.646  22.694  12.155
54817W        W19637   3.721  33.538   3.686
54818W        W19638  26.120   4.408   4.320
54819W        W19639  32.673  22.511   5.410
54820W        W19640  24.694  27.564  14.786
54821W        W19641   4.938  40.623  13.065
54822W        W19642  20.107  10.646  13.374
54823W        W19643  40.089   3.334   4.700
54824W        W19644  35.870  14.617  11.232
54825W        W19645   1.577   5.827  13.000
54826W        W19646  26.430  22.485  13.106
54827W        W19647  38.962  32.503  13.883
54828W        W19648  17.229  29.163  11.084
54829W        W19649   7.745  41.520   3.244
54830W        W19650   6.955  10.607  11.120
54831W        W19651  17.610  38.600  11.686
54832W        W19652  10.054  20.800   3.630
54833W        W19653  43.506   9.586   3.233
54834W        W19654  28.905  28.028   3.792
54835W        W19655  23.022  27.253  11.461
54836W        W19656   3.314  25.957   2.824
54837W        W19657  26.972  41.818   3.477
54838W        W19658  41.299  40.586  11.646
54839W        W19659  22.469  43.495   1.691
54840W        W19660  35.602  22.354   4.133
54841W        W19661  24.060  43.821  12.826
54842W        W19662  37.269  44.412  12.324
54843W        W19663  22.298  36.128  10.048
54844W        W19664   0.063   5.887  12.917
54845W        W19665   8.401  29.567   4.023
54846W        W19666   6.273   9.284   0.309
54847W        W19667  22.778  28.335  12.373
54848W        W19668  41.421  10.266   4.638
54849W        W19669   3.930   2.014   2.005
54850W        W19670  10.724  30.520  11.620
54851W        W19671  26.492  11.272   0.332
54852W        W19672  10.375  43.485   1.523
54853W        W19673   8.937  30.899   0.285
54854W        W19674  29.215  31.607  12.302
54855W        W19675  26.491  22.117   4.908
54856W        W19676  33.955  18.136   3.093
54857W        W19677  31.674  27.440  13.459
54858W        W19678  37.090  23.964   3.711
54859W        W19679  17.833  16.314   3.668
54860W        W19680   4.610   6.603   3.444
54861W        W19681  10.857   3.004   2.897
54862W        W19682  26.420  44.783  11.381
54863W        W19683  15.811  36.891  11.535
54864W        W19684  20.946  44.537  11.920
54865W        W19685  30.398  41.934   1.267
54866W        W19686  26.919  44.235  11.376
54867W        W19687  38.785  24.053   1.150
54868W        W19688  35.153  37.023  12.868
54869W        W19689  33.372   6.953   5.018
54870W        W19690  44.701  20.101  13.528
54871W        W19691  18.464  18.826   4.566
54872W        W19692  21.997   0.291  12.870
54873W        W19693  19.079  33.066   1.481
54874W        W19694   5.702  28.494  12.391
54875W        W19695  20.691  12.139   4.465
54876W        W19696  28.636  30.488  13.017
54877W        W19697  27.249  33.602  12.882
54878W        W19698  24.984  39.216   4.642
54879W        W19699  42.800   3.272  13.272
54880W        W19700   5.238  22.509   1.384
54881W        W19701  43.797  39.122   4.426
54882W        W19702  42.748  42.987  12.934
54883W        W19703  43.051   2.708   3.087
54884W        W19704  31.496  39.563  11.257
54885W        W19705  27.665   1.134   4.146
54886W        W19706  37.055  29.198  13.414
54887W        W19707  21.642  43.867   4.406
54888W        W19708   3.538  36.977   4.886
54889W        W19709  44.883   3.968   1.002
54890W        W19710  31.481  11.939  14.576
54891W        W19711   8.564  15.914   2.173
54892W        W19712  15.116  15.784  13.892
54893W        W19713  42.385  19.219  11.743
54894W        W19714  25.549  11.141   0.176
54895W        W19715  14.915  30.148   3.625
54896W        W19716  14.596  24.710  14.864
54897W        W19717  33.484  22.494   1.877
54898W        W19718   6.705  12.151  12.333
54899W        W19719  35.412  37.859   1.312
54900W        W19720  22.752  10.911  13.574
54901W        W19721  17.287  23.023  13.903
54902W        W19722  31.958  40.812   0.266
54903W        W19723  42.373   6.764  13.400
54904W        W19724   1.806  11.877  14.864
54905W        W19725   4.334  23.482   3.134
54906W        W19726  14.391  28.036   4.112
54907W        W19727   3.658  20.568   1.265
54908W        W19728  32.370  23.456   1.974
54909W        W19729  25.694  24.595  14.796
54910W        W19730  16.559  42.982   3.370
54911W        W19731  25.456  40.476   3.596
54912W        W19732   7.197  43.896  14.740
54913W        W19733   3.781  10.621   2.723
54914W        W19734  39.097  29.145  10.863
54915W        W19735  11.002  25.512  11.595
54916W        W19736  35.286  17.129  10.312
54917W        W19737  23.142  38.592   2.383
54918W        W19738  28.638  31.272   1.219
54919W        W19739  13.688   5.669   1.836
54920W        W19740  15.302   0.248  11.735
54921W        W19741   3.705  37.919  13.030
54922W        W19742  14.150  26.403   5.079
54923W        W19743  40.471  40.955  13.085
54924W        W19744   2.569  24.886   2.673
54925W        W19745  34.722  28.098   0.787
54926W        W19746   1.389  38.579   2.403
54927W        W19747  31.891  25.609  12.418
54928W        W19748  40.051  29.569  11.708
54929W        W19749  18.063  27.989  12.583
54930W        W19750  42.830   7.175   4.527
54931W        W19751  21.050  42.716   4.526
54932W        W19752  25.949   2.226   2.989
54933W        W19753  38.531  16.593   4.640
54934W        W19754   5.175  25.053   3.046
54935W        W19755   6.116  12.120  14.556
54936W        W19756  28.038   7.458   3.767
54937W        W19757  27.564  21.499  14.886
54938W        W19758  15.713  44.147   4.535
54939W        W19759  37.480  18.832   0.245
54940W        W19760  27.912  32.996  14.448
54941W        W19761  44.917  31.513  14.397
54942W        W19762  24.246  42.327   2.619
54943W        W19763  36.951  20.190  12.044
54944W        W19764   2.904  25.252  13.172
54945W        W19765  26.073  23.194  10.573
54946W        W19766   1.278  36.896   0.803
54947W        W19767   7.655  35.957  12.701
54948W        W19768  42.352   3.483  14.023
54949W        W19769  17.620  42.991  13.834
54950W        W19770  26.972  40.973   2.018
54951W        W19771  34.175   2.223   3.794
54952W        W19772  24.036  37.727  14.582
54953W        W19773  27.995   9.641   2.399
54954W        W19774  15.064  12.868  12.598
54955W        W19775  16.204  19.589   4.456
54956W        W19776  34.434  42.461  11.424
54957W        W19777  10.243  18.137  11.113
54958W        W19778  28.883  24.591   2.735
54959W        W19779  21.468   5.177   3.533
54960W        W19780  21.297  34.853  13.448
54961W        W19781  36.420  11.076   0.478
54962W        W19782  17.433  22.599  13.021
54963W        W19783  15.138  43.631   0.437
54964W        W19784  13.827  28.936  14.872
54965W        W19785  27.559   4.289  12.348
54966W        W19786   0.046   4.866   0.881
54967W        W19787  40.099   9.289   4.548
54968W        W19788  13.580  28.688  13.504
54969W        W19789  37.152   4.735   1.297
54970W        W19790  37.816   6.308  14.495
54971W        W19791  10.016  44.586   2.474
54972W        W19792  18.672  32.808   1.722
54973W        W19793   9.136  27.806   1.341
54974W        W19794  24.486  44.893   1.042
54975W        W19795  34.872   9.600   9.882
54976W        W19796  41.280   7.307  11.657
54977W        W19797   8.756  16.322  10.020
54978W        W19798  44.836  15.751   3.248
54979W        W19799  35.241  15.472   4.536
54980W        W19800   4.206  14.974   4.323
54981W        W19801  30.396  35.503   4.925
54982W        W19802  38.798  31.697   3.731
54983W        W19803   3.500   5.763   1.354
54984W        W19804  25.246   4.312   2.746
54985W        W19805  19.408  28.164   3.141
54986W        W19806  25.160  17.792   2.346
54987W        W19807  18.755  39.248   4.235
54988W        W19808  21.570  44.550  10.686
54989W        W19809  43.149   8.873   0.689
54990W        W19810  12.387  40.329   2.187
54991W        W19811  23.003  19.552  14.049
54992W        W19812  44.818  12.382  12.585
54993W        W19813  24.126   7.724   1.435
54994W        W19814  22.605  27.940  14.182
54995W        W19815  24.550  32.645   1.840
54996W        W19816  34.343  26.080   2.181
54997W        W19817  24.080   5.831  14.493
54998W        W19818  43.544  17.646   2.849
54999W        W19819  26.437  32.153  14.812
55000W        W19820  37.966   6.078   4.956
55001W        W19821  40.662   4.806   1.911
55002W        W19822  26.740  12.254  12.321
55003W        W19823   7.901  20.191  13.887
55004W        W19824  32.760  19.502  14.889
55005W        W19825  16.366  38.544   0.466
55006W        W19826   1.575  22.849  12.943
55007W        W19827  37.492  34.590  13.376
55008W        W19828  40.478  24.015   2.694
55009W        W19829   0.360  43.106  13.064
55010W        W19830  19.506   4.685  13.674
55011W        W19831   0.934  34.607   4.227
55012W        W19832  40.920  28.896   4.563
55013W        W19833  29.985  17.815   0.400
55014W        W19834  36.073   3.448  13.304
55015W        W19835  24.856  33.268   0.333
55016W        W19836  40.042  36.252   0.932
55017W        W19837  14.151  15.269  12.995
55018W        W19838  15.605   0.333  12.140
55019W        W19839  33.161  35.295   5.008
55020W        W19840  41.996   0.551  10.337
55021W        W19841  28.367   1.279   0.899
55022W        W19842   2.933  10.680  11.955
55023W        W19843  37.404  14.431   2.271
55024W        W19844  24.701  31.231   1.958
55025W        W19845  34.170  33.384  12.286
55026W        W19846  13.252  18.313  11.905
55027W        W19847  25.884  28.210   2.190
55028W        W19848  20.626   1.755  12.364
55029W        W19849  42.777  22.671  11.656
55030W        W19850  26.643  28.978  11.115
55031W        W19851  23.150  34.609   1.434
55032W        W19852  11.637  40.996  13.442
55033W        W19853   2.515   7.492   2.200
55034W        W19854  10.684  23.484  13.935
55035W        W19855  41.771  39.932  10.327
55036W        W19856  34.154  32.666   4.304
55037W        W19857  39.917   3.284  13.418
55038W        W19858  28.107   2.704   1.600
55039W        W19859  16.306   5.368  14.738
55040W        W19860  34.189  37.979   3.045
55041W        W19861  34.069  16.775  13.339
55042W        W19862  17.771  17.771  13.439
55043W        W19863  19.376  25.052   4.452
55044W        W19864   7.830   4.559   1.186
55045W        W19865  31.972   0.481   0.267
55046W        W19866  32.985  11.818  12.399
55047W        W19867  26.716  38.893   0.276
55048W        W19868  15.959  20.241   3.119
55049W        W19869  14.218  35.070   1.260
55050W        W19870  30.415   6.266  11.614
55051W        W19871  43.743  21.043  12.435
55052W        W19872  36.249   2.136   2.260
55053W        W19873  20.480  22.697   3.311
55054W        W19874  27.656  37.701  11.130
55055W        W19875  25.206   6.899   4.079
55056W        W19876  22.906  30.287  12.959
55057W        W19877  38.090  36.080   2.167
55058W        W19878   2.712   0.137  11.700
55059W        W19879  35.559  18.784   4.073
55060W        W19880   3.922   2.325   0.370
55061W        W19881   3.281   0.529  13.378
55062W        W19882  28.120  26.870   4.108
55063W        W19883   6.490  15.613  11.496
55064W        W19884  15.298   2.771  14.770
55065W        W19885  34.383  31.357  13.044
55066W        W19886  17.683   8.582  13.944
55067W        W19887  38.281  27.627   4.587
55068W        W19888  34.641  20.539  12.265
55069W        W19889  41.309  27.630  10.831
55070W        W19890   2.296   0.747  14.806
55071W        W19891  40.854  17.994  12.307
55072W        W19892  27.504  30.887   4.213
55073W        W19893  21.608  43.973  10.738
55074W        W19894  43.930  31.774  11.131
55075W        W19895  36.586  12.217   3.177
55076W        W19896  15.084  25.614  14.522
55077W        W19897  22.411   4.700   2.726
55078W        W19898  32.131   7.653   1.786
55079W        W19899  15.187  36.543   2.705
55080W        W19900  29.268  29.458   5.014
55081W        W19901  18.777  17.599   4.019
55082W        W19902   3.215   9.401   2.840
55083W        W19903  29.064  30.514   0.257
55084W        W19904  35.882   2.921   2.791
55085W        W19905  17.026  23.638  14.902
55086W        W19906  36.394  41.045  10.770
55087W        W19907  19.174  37.923  11.751
55088W        W19908  42.751  18.639  12.910
55089W        W19909  17.076   6.395   2.091
55090W        W19910  28.079  10.859  14.765
55091W        W19911  30.513  28.620   3.896
55092W        W19912   8.345  18.262   2.324
55093W        W19913   8.942  28.543  12.147
55094W        W19914   1.461   1.437   0.736
55095W        W19915  31.462  22.691   3.374
55096W        W19916   2.314  34.154   3.302
55097W        W19917   4.996  39.280  13.006
55098W        W19918  42.068  23.768  10.662
55099W        W19919  29.871  27.500  10.517
55100W        W19920  28.641  21.836   1.275
55101W        W19921  13.841  31.117  13.839
55102W        W19922  20.311   2.776   3.521
55103W        W19923  14.390   4.969   0.279
55104W        W19924  15.778   2.330  13.428
55105W        W19925  34.288  13.321   2.825
55106W        W19926   3.488  44.359   3.554
55107W        W19927  38.473  14.831   2.907
55108W        W19928  31.321   4.329  12.387
55109W        W19929  10.279  34.519  11.381
55110W        W19930   0.309  26.572   4.459
55111W        W19931  16.542  27.689   1.903
55112W        W19932  17.111  18.593   0.302
55113W        W19933  18.841  39.072  12.912
55114W        W19934  44.418  15.573   1.395
55115W        W19935  39.905  29.477   2.272
55116W        W19936  17.646  30.341   2.713
55117W        W19937  35.566  29.524  14.925
55118W        W19938  13.640  28.944  13.049
55119W        W19939  17.248  29.404  12.373
55120W        W19940  39.353  28.003  14.774
55121W        W19941  27.922  32.404  11.551
55122W        W19942  31.680   9.885   2.056
55123W        W19943   9.921  14.605   3.597
55124W        W19944  39.353  18.354   1.901
55125W        W19945  21.590  25.263   2.300
55126W        W19946   4.479  19.777   2.623
55127W        W19947  20.486  30.504  13.424
55128W        W19948  19.393  13.813   3.709
55129W        W19949   9.143  38.107   0.301
55130W        W19950  43.980  24.553   0.369
55131W        W19951   5.383   3.993   4.416
55132W        W19952  18.046  27.500  12.988
55133W        W19953   3.598  30.868   2.756
55134W        W19954  29.399  44.966  13.864
55135W        W19955   8.787   1.234  13.457
55136W        W19956   0.257  13.808   0.805
55137W        W19957  27.897   1.074  10.350
55138W        W19958   1.194  13.263   2.665
55139W        W19959  30.630  22.457  14.662
55140W        W19960  22.416  37.329  10.949
55141W        W19961  24.959   3.178   4.123
55142W        W19962  26.257   4.302   3.812
55143W        W19963  28.354  24.312   3.300
55144W        W19964   8.242  18.827   0.444
55145W        W19965  24.505  24.542  13.568
55146W        W19966  41.468  19.211  12.728
55147W        W19967  43.478  23.716   1.399
55148W        W19968  24.719   8.371   4.585
55149W        W19969  34.998  27.588  13.217
55150W        W19970  28.702  21.445   4.710
55151W        W19971  18.224  42.092   4.614
55152W        W19972  27.731  26.686   2.422
55153W        W19973  44.613  18.196   2.297
55154W        W19974   7.037  33.490  14.568
55155W        W19975  34.851  33.371   5.016
55156W        W19976   2.227  19.135   3.470
55157W        W19977  15.630  44.105  14.754
55158W        W19978  35.288  22.065   3.852
55159W        W19979  27.196  18.412  10.682
55160W        W19980  24.148  13.579   0.432
55161W        W19981  26.120   9.185   4.505
55162W        W19982  18.568  19.055   1.780
55163W        W19983  18.754   6.067   0.385
55164W        W19984  35.277   5.859  10.222
55165W        W19985  24.266   4.974   0.890
55166W        W19986  29.658  44.772   1.064
55167W        W19987  30.051  28.036  10.623
55168W        W19988  24.471  14.590  14.947
55169W        W19989  40.934   4.371   1.948
55170W        W19990   2.206  13.757   0.875
55171W        W19991   7.128  40.859  10.841
55172W        W19992  14.627  29.164  10.787
55173W        W19993  10.564   1.388   4.105
55174W        W19994  34.592  41.642   4.240
55175W        W19995  24.714  40.991  14.303
55176W        W19996  22.452   6.267   2.351
55177W        W19997  24.116  30.567  12.113
55178W        W19998  37.186  31.950   4.938
55179W        W19999   7.442   3.706   2.239
55180W        W20000  39.759  24.046  10.750
55181W        W20001  44.027  30.661   2.784
55182W        W20002  20.014  39.583   2.347
55183W        W20003  14.027   6.813  14.284
55184W        W20004  22.587  36.001   2.404
55185W        W20005  34.913   3.369  14.070
55186W        W20006  14.131  25.198   1.102
55187W        W20007  44.487  40.528  11.558
55188W        W20008  38.083   8.595  14.993
55189W        W20009  42.343  30.549   4.153
55190W        W20010  42.941  35.998   0.546
55191W        W20011  24.922   8.426   3.162
55192W        W20012  21.706  22.057   4.480
55193W        W20013  32.829  29.216  13.841
55194W        W20014  16.748  21.574   0.897
55195W        W20015  15.709   5.333  14.087
55196W        W20016   9.895  24.456   0.987
55197W        W20017   0.519  12.751   1.475
55198W        W20018  43.726  41.556  13.279
55199W        W20019  44.913   8.545   0.555
55200W        W20020  21.212   7.410  13.169
55201W        W20021  33.038  19.999   4.172
55202W        W20022   5.622  22.955   2.313
55203W        W20023  26.440  19.772   3.096
55204W        W20024   0.676   0.470   1.844
55205W        W20025  15.705  21.552  11.980
55206W        W20026  10.336   9.914   3.382
55207W        W20027  37.816  16.470   4.162
55208W        W20028  38.419  21.521   3.049
55209W        W20029  35.919  44.516  12.040
55210W        W20030   3.292  30.103  12.612
55211W        W20031  21.270   3.535   1.310
55212W        W20032   3.282  36.944  10.708
55213W        W20033  41.849  26.179  13.280
55214W        W20034  15.150  35.028  13.901
55215W        W20035  24.041  20.065   3.095
55216W        W20036  14.601   8.773  12.378
55217W        W20037  30.574  39.471   3.835
55218W        W20038  28.162  40.226   3.896
55219W        W20039  30.307  25.422   4.473
55220W        W20040  32.982  16.128  14.731
55221W        W20041  13.526  28.989   0.299
55222W        W20042  35.635   3.457  11.565
55223W        W20043  32.363  20.384   5.353
55224W        W20044  19.781  38.528   2.348
55225W        W20045  18.152   2.976  13.391
55226W        W20046  14.570   9.836  12.339
55227W        W20047  35.412  20.611  12.149
55228W        W20048  19.196  40.836   0.782
55229W        W20049  15.671  20.035   1.048
55230W        W20050  27.036  32.467   4.873
55231W        W20051   7.332   7.923   3.197
55232W        W20052   7.007  18.512   1.075
55233W        W20053  21.837  22.534   2.237
55234W        W20054   5.704  15.158   3.505
55235W        W20055  18.084   2.846  12.899
55236W        W20056  22.773  20.300  11.166
55237W        W20057  19.139  12.847  13.586
55238W        W20058  23.685  11.230   1.610
55239W        W20059  35.152  29.945  12.901
55240W        W20060  42.400  35.151   4.689
55241W        W20061  35.423   8.032   3.136
55242W        W20062  25.641  42.435   2.773
55243W        W20063  34.884  17.779   5.027
55244W        W20064  37.126   3.825   4.695
55245W        W20065  32.981  10.177  10.627
55246W        W20066  15.306   2.008   2.338
55247W        W20067   5.602  36.153  14.364
55248W        W20068  22.427  41.996  11.012
55249W        W20069  12.285   8.794  10.786
55250W        W20070   4.687  25.758  12.622
55251W        W20071   5.564  19.835  11.842
55252W        W20072  30.142  41.913   2.189
55253W        W20073  38.504  19.986   3.566
55254W        W20074  29.053  16.749  12.405
55255W        W20075  20.190  14.553  14.290
55256W        W20076  34.516   0.435  12.854
55257W        W20077  41.678   1.060   3.802
55258W        W20078  26.495  26.924  13.803
55259W        W20079  26.168   8.178  13.361
55260W        W20080   5.919   5.678   1.164
55261W        W20081  22.019  43.012   3.279
55262W        W20082  20.338  29.895  13.833
55263W        W20083  35.814  38.086  14.949
55264W        W20084  44.211  30.701  13.329
55265W        W20085  15.018  31.044   2.418
55266W        W20086  34.879  40.425  12.869
55267W        W20087  13.825  11.866  11.577
55268W        W20088  26.753  41.400  13.987
55269W        W20089   1.642  12.720  11.962
55270W        W20090  16.369  44.244  11.953
55271W        W20091  15.486  24.138  13.883
55272W        W20092  25.663  25.845   3.288
55273W        W20093  35.319  44.533  12.637
55274W        W20094   0.971  27.082  13.911
55275W        W20095  37.996  36.537   4.146
55276W        W20096   8.019  12.775   3.544
55277W        W20097  20.719  35.267  13.872
55278W        W20098  19.636  27.605  14.973
55279W        W20099  24.403   0.372   4.055
55280W        W20100  35.916  36.776   0.462
55281W        W20101  33.175  36.547  12.381
55282W        W20102  36.973   8.342   9.776
55283W        W20103  22.298  24.768   0.261
55284W        W20104  26.622  20.968   5.063
55285W        W20105  18.589  35.489   0.441
55286W        W20106  42.065  44.263   2.068
55287W        W20107  17.630  14.078   3.369
55288W        W20108   5.997  30.241   1.757
55289W        W20109  41.717  18.122  14.431
55290W        W20110  42.828  32.394  11.010
55291W        W20111  44.693  26.539  13.097
55292W        W20112   3.789  44.441  14.020
55293W        W20113  20.577  34.902  12.863
55294W        W20114  17.644  12.753  10.569
55295W        W20115  18.650  27.025   1.368
55296W        W20116  40.195   1.096  14.012
55297W        W20117  40.402  27.626  14.355
55298W        W20118  36.978  27.036   0.689
55299W        W20119  28.395  15.314  10.528
55300W        W20120  31.463   9.784   2.587
55301W        W20121  40.429  17.549  10.266
55302W        W20122   5.828  21.288  13.611
55303W        W20123   7.377   1.854   2.328
55304W        W20124   2.829  34.491  13.562
55305W        W20125  40.432  21.101   1.681
55306W        W20126  31.146  21.151   2.851
55307W        W20127  42.480  39.633  12.181
55308W        W20128   7.851  21.807  12.445
55309W        W20129  14.699  25.018  13.489
55310W        W20130  19.293   6.353  12.560
55311W        W20131  39.461  27.278   4.142
55312W        W20132   5.361  31.827  14.123
55313W        W20133  13.818  32.462  14.392
55314W        W20134  18.118  33.522   1.926
55315W        W20135   8.438  25.529   3.354
55316W        W20136  10.734   6.220   0.797
55317W        W20137   4.288  13.189   2.225
55318W        W20138   1.707  41.421   2.540
55319W        W20139   3.688  17.946  10.861
55320W        W20140   1.009  29.551   4.063
55321W        W20141   4.382   2.354   4.864
55322W        W20142  32.580  14.281   2.444
55323W        W20143  34.674  31.886   1.739
55324W        W20144  36.645  35.834   3.362
55325W        W20145  36.393   3.845  12.568
55326W        W20146   5.184  15.720  14.548
55327W        W20147   0.856  30.162   3.169
55328W        W20148  23.711  27.007   0.903
55329W        W20149  15.197  29.653   0.732
55330W        W20150   2.679  23.756  12.377
55331W        W20151  12.672  21.725  13.467
55332W        W20152  18.457   7.446   0.292
55333W        W20153   1.515  35.922  10.763
55334W        W20154   7.110   8.946   1.196
55335W        W20155  11.479  15.139  13.578
55336W        W20156  20.778   5.508  12.358
55337W        W20157  13.300  38.616  10.442
55338W        W20158  44.996  32.471   3.620
55339W        W20159   4.567  41.399  12.533
55340W        W20160  30.548  29.943   1.490
55341W        W20161  14.321  15.163  12.497
55342W        W20162   6.358   8.375   2.237
55343W        W20163  10.710  43.527  11.903
55344W        W20164   4.929  18.549   4.016
55345W        W20165   4.825   8.656   1.408
55346W        W20166  18.630  20.701   0.935
55347W        W20167   3.892  37.468  13.309
55348W        W20168  42.092   9.312   4.221
55349W        W20169   0.875   1.227  12.906
55350W        W20170  41.887  40.053   1.675
55351W        W20171  36.928   6.760   4.032
55352W        W20172  37.801  28.634  14.472
55353W        W20173  10.167  12.031  10.901
55354W        W20174  34.965  40.339   3.124
55355W        W20175  20.394  24.923  11.139
55356W        W20176  23.495   0.922  11.511
55357W        W20177  41.568  17.173   4.187
55358W        W20178  33.435   5.863  13.771
55359W        W20179  20.642  35.510  11.606
55360W        W20180  23.940  43.774  12.322
55361W        W20181   7.242  29.372  13.392
55362W        W20182  40.850  13.882  13.444
55363W        W20183  31.385  41.471   2.363
55364W        W20184  17.601  38.870   4.142
55365W        W20185  13.338  21.585  14.967
55366W        W20186  15.694  38.777  14.360
55367W        W20187  11.240  12.801  14.505
55368W        W20188  18.086  29.143  14.068
55369W        W20189  12.844  39.949  10.692
55370W        W20190  16.170  31.773  12.894
55371W        W20191  13.423  18.057  10.946
55372W        W20192  36.618   6.887  11.134
55373W        W20193   2.234  37.529  13.878
55374W        W20194  10.206   3.465   3.634
55375W        W20195  32.934  29.063  10.694
55376W        W20196   0.538  42.036   2.313
55377W        W20197  40.797  42.489  14.362
55378W        W20198  37.919  18.490   4.370
55379W        W20199  31.445  44.970   2.355
55380W        W20200   8.195  30.477   4.343
55381W        W20201  12.313  23.814  13.369
55382W        W20202  33.417  28.678   4.325
55383W        W20203  31.791  26.116  12.541
55384W        W20204  36.369  33.509  13.148
55385W        W20205   8.402  42.078   0.171
55386W        W20206   9.134   4.195   3.669
55387W        W20207  17.153  37.285  13.465
55388W        W20208  44.793   3.552  10.249
55389W        W20209  37.269  43.401  12.516
55390W        W20210  40.369   1.237  12.853
55391W        W20211  44.254  24.947   3.804
55392W        W20212   9.178  42.463  14.939
55393W        W20213  10.621  40.306   3.239
55394W        W20214  25.530   8.479   2.735
55395W        W20215   3.393   4.846   2.198
55396W        W20216   9.297  36.148   3.666
55397W        W20217  39.072  29.197   3.321
55398W        W20218  34.693  23.046  11.476
55399W        W20219  24.038   1.790   2.527
55400W        W20220  16.166  21.640   4.546
55401W        W20221  17.111  24.432  12.987
55402W        W20222  31.618  37.500   3.763
55403W        W20223  18.697  37.346   1.512
55404W        W20224  32.650  28.228   4.687
55405W        W20225  18.191   7.812   4.717
55406W        W20226  21.851  24.200  13.948
55407W        W20227  41.480   6.840  12.388
55408W        W20228  31.868   4.417  11.590
55409W        W20229  35.874  20.327  13.839
55410W        W20230   5.364  12.252  14.190
55411W        W20231  42.902  18.224  14.460
55412W        W20232  29.199  26.408  13.048
55413W        W20233  35.064  35.528   2.612
55414W        W20234  36.851   6.629  11.512
55415W        W20235  35.360   5.012   0.453
55416W        W20236  43.703   6.249   1.155
55417W        W20237  37.824   9.195   1.342
55418W        W20238  38.880  32.691   3.680
55419W        W20239  13.739   5.254  11.558
55420W        W20240  21.594  44.984   3.231
55421W        W20241  28.780  36.232   4.663
55422W        W20242  36.163  26.387   0.504
55423W        W20243  42.819  24.423   4.620
55424W        W20244  31.573  10.724   3.859
55425W        W20245  35.018   6.274  10.525
55426W        W20246   2.142  19.924  13.620
55427W        W20247   5.800   8.934   0.297
55428W        W20248  10.730  44.477  13.805
55429W        W20249  34.092  33.189   2.697
55430W        W20250  28.901   9.445  10.776
55431W        W20251  30.529   6.950   4.106
55432W        W20252   5.847  40.814   0.421
55433W        W20253  17.326   9.963  12.023
55434W        W20254   6.716  24.457  14.352
55435W        W20255  16.507  42.400   1.620
55436W        W20256  12.422  40.280   0.853
55437W        W20257  21.993   4.838  14.965
55438W        W20258  22.050  41.956   4.519
55439W        W20259   9.397   1.916   1.399
55440W        W20260   1.258  13.658  12.181
55441W        W20261  44.074  27.755  10.791
55442W        W20262  33.501  37.485  10.674
55443W        W20263  36.253   1.899  11.937
55444W        W20264  14.364  41.879   4.689
55445W        W20265  17.580  31.011  14.872
55446W        W20266  23.045  19.312  11.935
55447W        W20267  22.755  28.232  11.532
55448W        W20268  35.198  29.632   2.317
55449W        W20269  30.599   0.919   4.250
55450W        W20270  38.703  39.476  12.612
55451W        W20271  22.742  34.101   4.286
55452W        W20272  40.943  32.442   4.719
55453W        W20273  25.190  18.509  13.099
55454W        W20274  29.917  26.514   2.152
55455W        W20275  23.695  44.150  10.019
55456W        W20276  31.386  11.583   0.890
55457W        W20277  25.626  27.607   2.176
55458W        W20278   4.986   7.318   3.254
55459W        W20279  11.716  30.360   3.194
55460W        W20280  19.251  28.648   0.439
55461W        W20281  26.606   1.900  12.833
55462W        W20282  37.087   1.188   3.624
55463W        W20283  18.641  34.930   3.116
55464W        W20284   1.402  20.238  10.629
55465W        W20285   5.588   1.264   1.300
55466W        W20286  24.728  20.672   3.321
55467W        W20287  40.331  40.482  14.276
55468W        W20288  13.301  36.446  12.295
55469W        W20289   3.043  11.678  13.007
55470W        W20290   2.666  33.576  14.502
55471W        W20291   8.975  44.524  11.016
55472W        W20292  34.589  22.235   4.472
55473W        W20293   7.199   8.691  13.316
55474W        W20294  24.581   3.899  12.398
55475W        W20295  27.014  15.720   3.324
55476W        W20296  41.194  40.693  14.152
55477W        W20297  10.861  43.306   0.771
55478W        W20298  40.672   0.677   3.686
55479W        W20299  17.574  18.055  14.821
55480W        W20300   2.088  20.707  12.167
55481W        W20301  20.065  39.401   4.563
55482W        W20302  33.039  40.757  12.405
55483W        W20303  22.471  39.821   0.523
55484W        W20304  44.589  20.688   4.586
55485W        W20305  42.831  44.960   2.566
55486W        W20306  37.967  21.604   2.275
55487W        W20307  38.086  29.605   0.784
55488W        W20308  30.437  42.750  12.937
55489W        W20309  39.452  15.097   2.386
55490W        W20310  13.750  35.331  10.692
55491W        W20311  27.240  23.550   4.454
55492W        W20312  38.043  25.084   0.798
55493W        W20313  39.681  11.669   3.591
55494W        W20314  42.259  36.060   1.416
55495W        W20315   9.545  22.933  10.803
55496W        W20316  37.478  25.024  10.696
55497W        W20317  26.164  15.614   0.736
55498W        W20318  42.903   8.258   2.153
55499W        W20319  21.066  13.700   0.839
55500W        W20320  42.942  40.905  10.748
55501W        W20321  22.875  19.083   5.034
55502W        W20322  16.359  34.343   3.153
55503W        W20323   7.597   4.691  11.697
55504W        W20324  30.535  17.149  11.015
55505W        W20325  11.226  13.647   2.709
55506W        W20326  36.360  13.864  11.142
55507W        W20327  22.030  41.396  14.046
55508W        W20328  40.814  25.202   4.651
55509W        W20329  43.357  43.736  13.785
55510W        W20330  40.445  16.275  11.092
55511W        W20331  36.647  38.313   2.450
55512W        W20332   8.972   9.135   3.274
55513W        W20333  16.809  18.320   3.333
55514W        W20334  26.904  41.780  11.694
55515W        W20335  11.285  33.195   0.406
55516W        W20336  23.472   5.963   4.673
55517W        W20337  21.512  21.759   3.637
55518W        W20338  17.626  17.529   1.479
55519W        W20339  41.955  42.830   1.630
55520W        W20340  17.591   3.751  14.378
55521W        W20341  30.611  44.968  12.017
55522W        W20342  38.350  37.684   4.384
55523W        W20343  30.353   8.709   2.699
55524W        W20344   1.276  13.201   1.192
55525W        W20345   6.823   5.648   1.320
55526W        W20346  19.899   5.504   2.003
55527W        W20347   6.264  33.029  11.106
55528W        W20348  12.996   2.883   1.262
55529W        W20349  34.973  35.337   3.585
55530W        W20350  37.892  39.000   4.568
55531W        W20351   5.437   2.309   2.275
55532W        W20352   8.349  37.529   0.467
55533W        W20353  32.971  29.549  14.387
55534W        W20354  26.365  18.093   4.154
55535W        W20355   8.917  13.652   0.407
55536W        W20356   9.074  38.729   2.624
55537W        W20357   1.729  21.806  14.036
55538W        W20358  37.828   8.419   4.668
55539W        W20359  16.546  31.927  10.949
55540W        W20360  26.030  37.737  14.474
55541W        W20361  33.035  38.357  13.131
55542W        W20362  22.451  40.803   2.496
55543W        W20363  15.457  13.947   3.700
55544W        W20364  19.690  38.934  13.381
55545W        W20365  16.678  35.490  10.733
55546W        W20366  43.852  28.731   2.319
55547W        W20367  22.732  25.911   3.185
55548W        W20368  21.760  13.799  13.866
55549W        W20369  29.405  30.690   1.504
55550W        W20370   1.989  17.691  14.542
55551W        W20371  43.997  43.720   4.429
55552W        W20372  27.652  27.011  13.130
55553W        W20373  16.639   7.247  14.941
55554W        W20374   6.670   2.058   1.826
55555W        W20375   4.857  22.225   0.270
55556W        W20376  15.126   1.077   1.425
55557W        W20377   1.880  13.235   1.918
55558W        W20378  36.260   8.219   2.030
55559W        W20379   1.723  17.316   2.185
55560W        W20380  14.141  27.214   3.484
55561W        W20381   1.713  23.417  14.864
55562W        W20382  29.074  40.949  14.710
55563W        W20383  14.242  12.795  13.021
55564W        W20384  35.496  30.879  11.246
55565W        W20385  15.852  14.081   1.329
55566W        W20386  33.960  36.599  12.052
55567W        W20387  36.501  21.530  14.575
55568W        W20388  40.994   5.610  14.036
55569W        W20389  19.176  18.955   2.762
55570W        W20390  22.959   5.985   1.800
55571W        W20391   2.343   1.537  13.090
55572W        W20392   3.438  36.499  11.007
55573W        W20393   0.847   5.040   2.151
55574W        W20394  11.684   0.264  13.675
55575W        W20395  36.991  40.102   1.168
55576W        W20396  22.688   7.348  12.007
55577W        W20397  43.827  13.064   3.327
55578W        W20398  42.827   8.772  12.940
55579W        W20399  21.143  17.928  10.278
55580W        W20400  35.015   2.162  13.285
55581W        W20401  26.969  27.894   2.221
55582W        W20402   5.226  20.311   1.302
55583W        W20403  17.172  41.242   0.410
55584W        W20404  16.229  33.055   1.937
55585W        W20405  27.421   0.395   4.964
55586W        W20406  29.593   7.714  13.864
55587W        W20407  16.576  31.066  12.066
55588W        W20408  36.382  15.561   0.902
55589W        W20409  20.248  26.669   2.479
55590W        W20410  33.530  34.140  14.309
55591W        W20411   7.145  10.124   3.723
55592W        W20412  12.598  11.736  13.124
55593W        W20413  34.451  10.136   2.169
55594W        W20414   1.826  24.225  14.537
55595W        W20415  15.101  23.966   4.308
55596W        W20416   1.508  19.533   1.723
55597W        W20417  22.462  30.525  12.881
55598W        W20418   1.453  25.029   0.833
55599W        W20419  43.058   8.344   0.636
55600W        W20420   3.062  30.954  13.874
55601W        W20421  40.248  17.096  13.655
55602W        W20422  26.276  20.459  10.663
55603W        W20423  27.957  44.448   1.726
55604W        W20424  15.219  20.165  13.310
55605W        W20425   7.437  14.612   2.339
55606W        W20426  33.563  11.308   3.993
55607W        W20427  29.473  24.831  13.415
55608W        W20428  38.091  28.009  12.095
55609W        W20429  29.587  34.576   1.286
55610W        W20430  33.890  12.629   1.296
55611W        W20431  25.253  27.684  13.011
55612W        W20432  31.564  36.319  14.978
55613W        W20433  39.867   0.435  14.760
55614W        W20434  19.909  37.080   4.966
55615W        W20435   7.894   3.269  13.094
55616W        W20436  36.486  10.380  12.009
55617W        W20437  10.282  32.600  11.867
55618W        W20438   8.164  37.706  11.075
55619W        W20439  11.538  41.265  12.428
55620W        W20440  12.824  33.661  13.850
55621W        W20441  42.952  40.900   3.219
55622W        W20442  13.817   0.355  11.091
55623W        W20443  33.166  30.634   3.674
55624W        W20444   0.358  26.487   0.820
55625W        W20445  41.235  29.372   1.884
55626W        W20446  44.209  21.605  13.010
55627W        W20447  24.045  18.005   2.254
55628W        W20448   4.257   4.845   4.712
55629W        W20449   6.458  19.121   3.402
55630W        W20450   5.214  22.610   0.457
55631W        W20451   4.392  31.446   4.406
55632W        W20452  26.875  13.874  11.638
55633W        W20453   0.287   8.409  10.590
55634W        W20454  19.971  36.559  12.597
55635W        W20455  37.257  31.455  10.763
55636W        W20456  25.068  38.636   3.727
55637W        W20457  11.896  43.696  14.100
55638W        W20458  36.025  29.141  11.090
55639W        W20459  39.525  29.085  12.341
55640W        W20460  18.956  14.083   0.375
55641W        W20461  16.673   0.853  12.372
55642W        W20462   4.950  25.756   3.200
55643W        W20463  35.110   7.096  12.886
55644W        W20464  20.272  27.646   4.146
55645W        W20465  20.765  31.915  10.369
55646W        W20466  37.013  16.706   4.462
55647W        W20467  19.680  14.274  14.365
55648W        W20468   7.758  36.832  13.421
55649W        W20469   8.675  44.742   1.870
55650W        W20470   9.037  30.477   2.822
55651W        W20471  41.762  32.111  14.358
55652W        W20472  24.199  10.816   3.717
55653W        W20473  31.845  41.321   0.273
55654W        W20474  21.249  31.160  12.111
55655W        W20475  17.111  40.611  13.897
55656W        W20476  31.189   5.431  10.830
55657W        W20477  25.015   7.347   0.217
55658W        W20478  19.701  24.778   3.357
55659W        W20479  15.114  17.550  13.421
55660W        W20480  24.154   5.252   1.841
55661W        W20481  23.259  40.127   4.658
55662W        W20482  19.244  29.966   0.395
55663W        W20483  22.175  17.331  14.873
55664W        W20484  38.565  36.201  10.961
55665W        W20485  32.858  42.152  12.426
55666W        W20486  27.706  31.367   0.823
55667W        W20487   5.468  24.403   2.435
55668W        W20488   6.023  17.128   3.819
55669W        W20489  27.190  42.237   3.207
55670W        W20490  29.860  41.632  13.830
55671W        W20491   0.102   1.870  12.465
55672W        W20492  21.563  24.900   1.364
55673W        W20493  25.305  20.086  11.541
55674W        W20494  34.621   7.677  14.959
55675W        W20495   7.355   4.801   0.338
55676W        W20496  27.665  41.262   2.847
55677W        W20497   6.884  34.009   4.838
55678W        W20498  25.626  19.766   1.865
55679W        W20499   2.450  29.872  11.554
55680W        W20500   2.468   3.590   4.754
55681W        W20501   6.171  12.073  12.273
55682W        W20502   7.364  43.866  14.254
55683W        W20503   3.253  43.993  10.494
55684W        W20504  17.827  35.847   0.655
55685W        W20505  30.960  38.326   3.425
55686W        W20506  39.567  43.965   0.076
55687W        W20507  29.401   7.712   0.981
55688W        W20508   7.826  24.385  11.665
55689W        W20509  20.253   0.958   0.365
55690W        W20510  11.926  40.286  11.470
55691W        W20511  41.331  23.463  14.889
55692W        W20512  38.543  37.777   3.429
55693W        W20513  31.465  21.951   2.323
55694W        W20514  23.674  21.062   2.385
55695W        W20515  13.571   9.270   5.213
55696W        W20516  28.461  32.170  14.145
55697W        W20517  43.721  21.081  14.303
55698W        W20518  20.280   5.971   2.776
55699W        W20519  32.545  33.139   2.889
55700W        W20520  23.694  42.345  12.141
55701W        W20521  12.657   4.013  14.505
55702W        W20522  43.682  18.185  12.970
55703W        W20523  33.137   5.499  14.576
55704W        W20524  18.170  15.201  10.672
55705W        W20525   8.235  27.480  11.735
55706W        W20526  39.359   7.219   0.332
55707W        W20527   5.960   9.302   2.601
55708W        W20528  27.372  41.859  12.071
55709W        W20529  30.612   5.067   2.149
55710W        W20530  29.722  39.170   2.764
55711W        W20531  38.947   7.152  13.442
55712W        W20532  19.825  17.899   5.151
55713W        W20533  29.638   2.054  11.527
55714W        W20534  35.483  23.789   2.354
55715W        W20535  37.583   6.414   4.114
55716W        W20536  22.015  21.479  11.711
55717W        W20537  23.208  38.862  12.917
55718W        W20538  29.515  40.915   1.344
55719W        W20539  35.028  23.031   1.167
55720W        W20540  31.073  32.394  13.527
55721W        W20541  18.658  21.261  14.845
55722W        W20542  41.275  17.834   2.384
55723W        W20543  17.370   4.694   3.475
55724W        W20544  35.404  27.709  13.544
55725W        W20545  27.422  27.496   1.893
55726W        W20546  19.937  17.393  11.314
55727W        W20547  19.986  23.081  12.219
55728W        W20548  20.056  12.801  11.073
55729W        W20549  13.837   3.713   0.386
55730W        W20550  19.294  39.009   2.707
55731W        W20551  25.643  33.692   3.382
55732W        W20552  20.827  19.743  10.430
55733W        W20553   2.730  20.364  12.401
55734W        W20554  21.568  14.379  14.512
55735W        W20555   4.179  18.808   0.967
55736W        W20556  17.639  22.726   4.328
55737W        W20557  43.453  42.437  11.424
55738W        W20558  14.326  21.246   4.556
55739W        W20559  39.937   6.866   3.998
55740W        W20560  21.010  18.821   0.696
55741W        W20561   9.030   2.795   0.868
55742W        W20562   3.747  26.082   5.338
55743W        W20563  12.931   5.050  11.648
55744W        W20564  42.139  37.917  14.825
55745W        W20565  15.750  10.175   1.481
55746W        W20566   0.045  19.501   4.292
55747W        W20567  39.392  29.106   4.604
55748W        W20568  22.411  25.180  13.883
55749W        W20569  44.398  43.682  10.262
55750W        W20570  41.348  26.208   0.387
55751W        W20571  18.239  31.952  10.588
55752W        W20572  32.522   8.446  13.892
55753W        W20573   7.685  33.675  13.980
55754W        W20574  29.357  38.689  14.289
55755W        W20575  42.447  27.246   0.679
55756W        W20576  30.938  20.227   2.411
55757W        W20577  17.610   6.493  10.906
55758W        W20578   9.455  36.469  10.609
55759W        W20579  22.450   8.446  13.485
55760W        W20580  21.287  44.593  11.543
55761W        W20581   9.268   2.323   0.021
55762W        W20582   8.542  16.099   3.598
55763W        W20583  23.799  32.398  12.674
55764W        W20584  13.188  40.383   1.843
55765W        W20585  14.657  32.436  14.266
55766W        W20586  21.036  17.715   1.269
55767W        W20587  29.930  35.820  11.697
55768W        W20588  25.012   7.921   3.196
55769W        W20589  35.391   5.885  12.507
55770W        W20590  22.019  20.635   3.703
55771W        W20591  30.682   4.934  12.903
55772W        W20592  33.570   2.970   2.847
55773W        W20593  36.812  19.795  14.600
55774W        W20594   4.342  31.365   4.921
55775W        W20595   9.346  31.175   4.194
55776W        W20596  34.131   0.985   2.434
55777W        W20597  24.068  21.006   0.845
55778W        W20598  13.813  43.580   0.953
55779W        W20599  31.541  14.371   1.812
55780W        W20600   6.968  18.127  12.710
55781W        W20601  33.065   0.743  11.534
55782W        W20602  13.354  20.831  12.377
55783W        W20603   3.918  37.304  12.028
55784W        W20604  14.605  35.985  10.708
55785W        W20605   0.722   1.360  13.949
55786W        W20606  22.842  13.558   3.119
55787W        W20607  11.893   4.475   0.737
55788W        W20608   5.455  20.616  12.457
55789W        W20609  39.418  20.572  13.069
55790W        W20610   7.083  11.463   2.671
55791W        W20611  21.145  32.893   2.239
55792W        W20612  23.897  36.235  11.107
55793W        W20613  14.856  44.532  12.235
55794W        W20614   6.808  21.109   4.226
55795W        W20615  27.697  13.597   1.769
55796W        W20616  33.526   7.661  14.405
55797W        W20617   3.340  43.116   4.956
55798W        W20618  42.956  26.382   0.843
55799W        W20619   8.374  32.704   2.284
55800W        W20620  10.417   5.452  14.427
55801W        W20621   0.830  26.910  14.378
55802W        W20622   0.217  29.179  10.871
55803W        W20623  37.907   9.647   4.080
55804W        W20624   0.106  10.450   2.787
55805W        W20625   7.842  43.343   3.696
55806W        W20626   1.944  34.372  12.573
55807W        W20627  13.883  16.790   2.122
55808W        W20628  20.650  21.255  14.317
55809W        W20629  38.749  27.431  12.710
55810W        W20630  18.746  40.556  13.278
55811W        W20631  10.449  21.122   2.786
55812W        W20632  19.200  34.349  12.617
55813W        W20633  35.615  16.291   2.813
55814W        W20634   3.809  14.167   0.296
55815W        W20635  15.286  34.196   2.195
55816W        W20636  15.837  28.904   1.837
55817W        W20637  20.805  36.308   0.456
55818W        W20638  30.209  10.262   3.803
55819W        W20639  27.882  34.440   1.654
55820W        W20640  28.186  33.572  12.449
55821W        W20641  24.896  30.149   2.774
55822W        W20642  44.012  40.027   3.301
55823W        W20643  15.272  32.115   4.064
55824W        W20644   6.513  15.257   4.129
55825W        W20645  30.361  34.687  12.009
55826W        W20646   1.167  38.567  11.076
55827W        W20647   5.238  32.128   3.806
55828W        W20648  35.466  18.091   0.287
55829W        W20649  11.302  41.869  12.904
55830W        W20650  12.084  31.038   2.268
55831W        W20651  40.257  35.113   4.334
55832W        W20652   5.373   6.374  13.592
55833W        W20653   6.628   3.505  11.517
55834W        W20654  36.087  31.836  13.442
55835W        W20655  22.986  14.573   2.188
55836W        W20656  33.656   6.747   0.998
55837W        W20657  26.002  33.858   9.693
55838W        W20658  23.750  44.811  10.801
55839W        W20659  37.840  40.939   2.308
55840W        W20660  25.907  23.213  11.493
55841W        W20661  13.129  13.583  13.125
55842W        W20662  22.766  18.541   1.288
55843W        W20663  25.824  32.131  14.189
55844W        W20664  22.012  37.356   1.262
55845W        W20665  13.382  15.965   3.527
55846W        W20666  34.093  36.115  11.592
55847W        W20667  41.467   5.856   2.627
55848W        W20668  14.480  42.937   2.259
55849W        W20669  41.369  42.711   0.082
55850W        W20670  31.177   7.244  13.813
55851W        W20671  27.077  37.412  12.436
55852W        W20672  33.892  30.211   0.780
55853W        W20673   3.513  32.335  13.601
55854W        W20674  44.455   8.804   0.802
55855W        W20675  37.791   6.235   1.477
55856W        W20676  39.019   7.902   3.606
55857W        W20677  35.934   1.209   3.309
55858W        W20678  37.663  43.079   0.455
55859W        W20679  12.926   4.045   2.489
55860W        W20680  18.540  21.549  14.143
55861W        W20681  30.139  31.969  10.528
55862W        W20682  38.290  36.596  10.770
55863W        W20683  26.558   8.119  12.814
55864W        W20684  38.761  16.359  14.979
55865W        W20685  23.590  29.312  13.610
55866W        W20686  33.417  33.026  13.508
55867W        W20687  30.110  44.872  12.941
55868W        W20688   0.174  34.878   4.690
55869W        W20689  10.599  32.828  14.947
55870W        W20690  22.014  40.710  14.340
55871W        W20691   1.162  23.947  11.948
55872W        W20692  41.434  27.460   4.082
55873W        W20693  34.518  29.775  12.037
55874W        W20694  14.259   6.175   1.141
55875W        W20695   6.193  26.139   4.810
55876W        W20696  22.823  30.593  12.517
55877W        W20697  36.089   6.947  12.810
55878W        W20698  31.933  20.698  12.267
55879W        W20699   2.798  12.445  13.310
55880W        W20700  44.038   4.905   2.300
55881W        W20701   0.705  12.555  10.136
55882W        W20702  43.611  26.661   3.721
55883W        W20703  10.889   5.856  10.848
55884W        W20704  19.886  35.559  14.874
55885W        W20705   0.739  13.149  14.480
55886W        W20706   5.018  36.624   3.678
55887W        W20707   2.977  44.264   2.307
55888W        W20708  28.058   1.945   4.129
55889W        W20709   8.193  16.766  14.282
55890W        W20710  20.837  42.897  14.049
55891W        W20711  10.789   7.925   2.965
55892W        W20712  30.449   2.948   1.366
55893W        W20713   0.896  42.074   0.938
55894W        W20714  19.977   2.785   2.281
55895W        W20715  23.124  36.985  10.491
55896W        W20716   7.680  17.793   2.233
55897W        W20717  10.135  17.665   1.951
55898W        W20718  37.970  36.625   3.259
55899W        W20719   9.388  11.834  13.431
55900W        W20720  11.076  16.802   1.428
55901W        W20721  19.738   8.114   4.015
55902W        W20722  20.324  21.082   4.122
55903W        W20723  27.764   4.783   4.987
55904W        W20724   9.782  25.636   3.238
55905W        W20725  30.947  14.826   1.273
55906W        W20726  41.052  15.569   2.659
55907W        W20727  38.528  32.074   1.647
55908W        W20728   3.153   3.919   1.783
55909W        W20729  44.460  43.567  13.346
55910W        W20730  37.877  24.604  11.678
55911W        W20731  27.604  35.318   2.774
55912W        W20732  39.895  21.960   0.876
55913W        W20733  10.798  33.633   4.564
55914W        W20734  19.318  31.965  10.652
55915W        W20735   7.185  34.393   1.261
55916W        W20736  42.973  38.315  12.220
55917W        W20737   8.759  20.528   1.276
55918W        W20738  31.456   4.377  12.884
55919W        W20739  26.049  39.326  14.172
55920W        W20740   5.681  23.916  11.674
55921W        W20741  28.621  33.440   3.058
55922W        W20742  25.678  22.673  12.640
55923W        W20743  40.472  26.139   2.181
55924W        W20744  13.288   2.921  11.134
55925W        W20745  10.773   0.353   4.586
55926W        W20746  20.123  40.010  14.013
55927W        W20747  36.963  22.659   3.881
55928W        W20748   3.769   1.697  12.341
55929W        W20749  33.428  16.075   2.330
55930W        W20750   7.629  30.293   3.230
55931W        W20751  28.515   5.808  13.406
55932W        W20752   5.812   1.084   4.371
55933W        W20753   5.621  23.066  13.850
55934W        W20754  29.706  25.612  11.953
55935W        W20755  32.364  23.022   2.289
55936W        W20756  22.120  42.243   4.096
55937W        W20757  32.376  42.588   1.717
55938W        W20758  24.160   3.778  12.643
55939W        W20759  16.665  37.610  14.460
55940W        W20760  35.398  31.932  14.193
55941W        W20761  17.066  29.910   1.471
55942W        W20762  24.272  29.633  11.501
55943W        W20763  34.090  37.892   0.704
55944W        W20764   5.497  41.212   1.703
55945W        W20765  11.415  28.710   0.909
55946W        W20766  11.809   9.557  10.033
55947W        W20767  42.354   2.786  11.661
55948W        W20768   3.519  41.433  14.003
55949W        W20769  35.038  24.502   3.266
55950W        W20770  14.633  44.574  11.244
55951W        W20771   7.164   5.861  13.527
55952W        W20772   8.247  15.145  11.520
55953W        W20773  41.271   1.998   2.777
55954W        W20774  35.064   6.887   2.276
55955W        W20775  35.213  19.943   0.311
55956W        W20776  35.829  13.660  11.139
55957W        W20777   6.150  20.792  11.903
55958W        W20778  12.036   5.632  12.127
55959W        W20779   1.477  30.438   2.887
55960W        W20780  42.312  24.195  11.848
55961W        W20781  16.543  22.703  13.610
55962W        W20782   9.290  39.932   3.215
55963W        W20783  20.590  42.933   5.222
55964W        W20784  34.912   4.385   1.345
55965W        W20785  26.664  32.479   2.168
55966W        W20786  27.056  42.370  13.460
55967W        W20787  19.483  23.985   1.803
55968W        W20788  21.946  14.841  13.808
55969W        W20789  35.635  24.228   9.737
55970W        W20790  32.957  14.600  11.949
55971W        W20791  22.543  12.549   0.680
55972W        W20792  20.003  24.657   1.320
55973W        W20793  29.064  11.390   2.365
55974W        W20794  21.201  16.452  10.605
55975W        W20795  20.235   7.461  10.288
55976W        W20796  36.642  33.950  13.347
55977W        W20797  31.397  25.282  10.681
55978W        W20798  35.310  11.370   1.741
55979W        W20799  25.629  29.612   2.777
55980W        W20800  19.593  34.768  13.681
55981W        W20801  20.743   2.158  13.150
55982W        W20802   5.397  37.336   4.860
55983W        W20803  30.025  33.064  13.930
55984W        W20804  14.110  26.516  13.700
55985W        W20805  14.853  39.838   4.094
55986W        W20806  27.424  20.980  11.920
55987W        W20807   7.792  19.623   4.915
55988W        W20808  44.280   0.356  14.881
55989W        W20809   2.266  44.683  10.402
55990W        W20810   5.422  35.028   3.338
55991W        W20811  13.275   0.355   4.103
55992W        W20812  17.430  11.840   3.691
55993W        W20813   0.913   9.509  11.214
55994W        W20814  37.912   6.610   1.833
55995W        W20815  14.456  44.871  10.727
55996W        W20816  36.205  34.483   1.736
55997W        W20817  22.003  37.577  14.381
55998W        W20818   3.844   4.371  10.707
55999W        W20819  10.668  20.579  14.442
56000W        W20820  33.525  37.980   0.123
56001W        W20821  39.637  36.824   4.284
56002W        W20822  14.272  35.942  13.974
56003W        W20823  38.276  20.235  12.074
56004W        W20824  13.215  17.841  12.088
56005W        W20825  29.951  18.662  10.849
56006W        W20826  17.057  33.303   0.678
56007W        W20827   9.374   5.923   4.490
56008W        W20828   2.867  21.378   1.735
56009W        W20829  10.760   7.432   3.148
56010W        W20830  17.499  19.336  14.346
56011W        W20831   2.772   1.715   0.624
56012W        W20832  22.099  16.753  12.553
56013W        W20833   9.660  21.102   2.312
56014W        W20834  21.109   9.415  12.635
56015W        W20835  18.600   1.970   1.875
56016W        W20836   7.719  33.617  12.983
56017W        W20837  15.590  15.888  10.631
56018W        W20838  18.352  30.537   1.349
56019W        W20839   9.109  23.253  13.427
56020W        W20840  30.585  32.630   3.543
56021W        W20841  25.100   5.365  11.457
56022W        W20842  14.889  21.066   0.835
56023W        W20843  35.706  25.040  10.204
56024W        W20844  24.604  15.216  14.359
56025W        W20845  21.831   8.910  12.865
56026W        W20846  28.683  13.604   1.471
56027W        W20847  10.779  32.149  12.183
56028W        W20848  29.436  14.392  11.683
56029W        W20849   7.876   7.231   2.319
56030W        W20850   6.870  19.426   4.211
56031W        W20851  39.311   9.216  13.398
56032W        W20852  39.398  24.459  11.933
56033W        W20853  26.118  44.615   4.087
56034W        W20854   0.928  28.584  11.410
56035W        W20855   0.800  40.094   2.860
56036W        W20856  14.313  41.410   3.134
56037W        W20857  29.204   1.888   2.674
56038W        W20858  11.835  24.987   1.149
56039W        W20859  36.668   9.215   0.279
56040W        W20860  10.469  12.820   3.640
56041W        W20861  42.451  28.958   3.865
56042W        W20862  36.297  25.600   2.842
56043W        W20863  34.476   2.963   2.800
56044W        W20864   5.436   2.953  10.838
56045W        W20865   0.421  10.203   0.622
56046W        W20866  29.960  21.317  12.006
56047W        W20867  42.011  15.712   0.038
56048W        W20868  21.501  20.633   2.904
56049W        W20869  30.231  28.633   2.622
56050W        W20870  32.909  24.236   2.727
56051W        W20871   6.713  21.402  11.555
56052W        W20872  11.392  11.709   3.089
56053W        W20873  41.797  22.052   3.844
56054W        W20874  41.139   9.643   1.194
56055W        W20875  32.563  29.912   3.821
56056W        W20876  17.180  32.645  14.493
56057W        W20877  40.840   0.138   4.135
56058W        W20878   4.116  39.769   4.857
56059W        W20879  22.476   2.654  13.472
56060W        W20880  10.976  36.971   3.754
56061W        W20881   3.695  27.837  13.366
56062W        W20882  10.131  36.960   1.067
56063W        W20883   6.400  41.260  14.792
56064W        W20884  34.828  23.984   2.707
56065W        W20885  34.097  24.671   2.329
56066W        W20886   0.877  43.036  11.122
56067W        W20887  30.124  17.780   3.243
56068W        W20888   0.361  41.110  14.824
56069W        W20889  16.235   2.261   4.353
56070W        W20890  20.124  43.291   3.154
56071W        W20891  36.537   3.713  10.713
56072W        W20892   3.457   3.937   2.757
56073W        W20893  32.997   7.753  14.611
56074W        W20894  44.373  15.362   1.874
56075W        W20895  41.411  21.500  13.884
56076W        W20896   7.918   6.228   1.001
56077W        W20897  43.659  38.698   4.727
56078W        W20898  14.584  12.800   2.863
56079W        W20899  30.263   3.996  11.138
56080W        W20900   5.958  43.306  11.078
56081W        W20901   5.370   7.127   0.481
56082W        W20902  24.238   8.848   2.134
56083W        W20903  32.470  43.050   0.280
56084W        W20904  21.703  15.213   4.292
56085W        W20905  39.938  35.682  12.433
56086W        W20906  28.551  14.542  11.233
56087W        W20907  23.517  29.998  14.862
56088W        W20908  20.165   6.798  11.793
56089W        W20909   6.255  17.981   3.706
56090W        W20910  41.165  41.051  11.500
56091W        W20911   8.021  26.180  10.611
56092W        W20912   5.675  44.940  11.950
56093W        W20913  36.110  23.123  11.576
56094W        W20914  27.176  24.898   1.519
56095W        W20915  23.622  12.167  12.648
56096W        W20916  27.986  15.707  14.277
56097W        W20917  23.186  23.637  14.972
56098W        W20918  42.344  15.647   0.446
56099W        W20919  30.488  37.360  13.880
56100W        W20920  31.573  20.422  13.995
56101W        W20921  21.585  22.049  10.823
56102W        W20922   3.263  17.851  13.678
56103W        W20923   5.423  41.521  13.775
56104W        W20924   9.970   8.599  13.525
56105W        W20925  41.813  37.380   1.270
56106W        W20926  27.433  21.829  13.654
56107W        W20927   9.830  23.854   0.229
56108W        W20928  41.909   8.786  11.450
56109W        W20929  35.368  42.333   4.045
56110W        W20930  30.165  34.079   2.258
56111W        W20931  16.464  37.998   1.227
56112W        W20932  10.581  39.131   4.235
56113W        W20933  43.689  20.948   2.762
56114W        W20934  19.049  43.788  13.966
56115W        W20935  36.013  27.232  10.146
56116W        W20936  44.257  22.825   3.582
56117W        W20937  20.208  15.755  12.179
56118W        W20938  41.816   1.959  14.807
56119W        W20939  39.779  19.640   3.889
56120W        W20940  29.364   8.156  10.801
56121W        W20941   6.874  29.628   3.640
56122W        W20942   1.719  28.258   4.125
56123W        W20943  41.640  12.306   3.398
56124W        W20944  31.847  12.757  11.173
56125W        W20945  43.197  36.008   3.434
56126W        W20946  16.660   2.251   2.655
56127W        W20947  43.126  43.279  11.103
56128W        W20948   2.680  42.981  10.092
56129W        W20949  20.401  16.855   1.416
56130W        W20950  10.583  34.402   4.157
56131W        W20951   5.676   1.110  14.017
56132W        W20952  10.646  19.705  14.377
56133W        W20953  19.351  36.884   1.339
56134W        W20954   1.924  19.621   0.738
56135W        W20955  29.217  10.356  12.652
56136W        W20956  38.898  18.202  12.947
56137W        W20957  32.307  30.151   0.777
56138W        W20958  16.270  22.306  13.342
56139W        W20959  16.436  14.730  13.119
56140W        W20960  30.870  14.563   2.775
56141W        W20961   7.959  37.517  14.798
56142W        W20962   3.709  42.649  11.595
56143W        W20963   5.387  22.090   3.715
56144W        W20964  10.662  35.173   0.702
56145W        W20965  11.769  36.342  12.882
56146W        W20966   1.965  23.264   4.826
56147W        W20967   4.949  41.453  11.565
56148W        W20968  40.245   0.451  13.484
56149W        W20969  12.606  19.561  12.954
56150W        W20970  26.478  44.417  13.001
56151W        W20971   6.734  44.833  14.476
56152W        W20972   8.320  34.009  12.381
56153W        W20973  36.618   1.361  13.114
56154W        W20974  29.667  14.201  13.774
56155W        W20975  11.082  37.821   2.791
56156W        W20976  40.232  11.123   1.588
56157W        W20977  23.261  36.048   0.245
56158W        W20978   2.513  39.533   4.304
56159W        W20979   4.886  18.849  12.979
56160W        W20980   1.743  37.841  10.699
56161W        W20981  24.743   6.351   0.399
56162W        W20982   4.910  33.671   0.843
56163W        W20983   3.589  23.003   3.951
56164W        W20984  13.056  22.786  12.063
56165W        W20985  32.884  15.784   1.701
56166W        W20986  41.403  34.567  12.077
56167W        W20987  19.225   6.919  13.954
56168W        W20988   0.407   7.106  13.886
56169W        W20989  20.745  26.929  14.335
56170W        W20990   7.454   6.356   3.875
56171W        W20991  28.603  36.510  10.288
56172W        W20992  31.378   3.850   0.939
56173W        W20993  44.802  36.024   2.183
56174W        W20994  26.718  18.201  12.546
56175W        W20995  21.383  38.007   4.170
56176W        W20996  16.867  22.875   4.959
56177W        W20997  32.746  19.101  12.441
56178W        W20998  29.469  25.816  13.403
56179W        W20999  37.970  43.010  11.396
56180W        W21000  28.186   1.496  10.635
56181W        W21001  39.984  10.354   2.250
56182W        W21002  22.431  32.823   1.219
56183W        W21003  43.348   8.292  13.538
56184W        W21004  14.451   6.394   0.209
56185W        W21005  30.697   9.114   2.697
56186W        W21006   2.458   9.441  10.569
56187W        W21007  18.150   8.812  13.875
56188W        W21008  35.608   7.244  13.625
56189W        W21009  38.128  15.221   9.751
56190W        W21010  30.959  44.486  10.747
56191W        W21011  43.024   1.716   3.209
56192W        W21012  27.983   4.794   2.755
56193W        W21013  34.487  19.397  14.385
56194W        W21014  16.371   0.883  13.419
56195W        W21015  18.296   4.899  11.547
56196W        W21016   6.159  41.495  14.425
56197W        W21017  34.135  38.706   0.446
56198W        W21018  15.416  37.093  12.322
56199W        W21019  32.584  20.323  10.200
56200W        W21020  35.467  43.734  10.671
56201W        W21021  25.509  26.582   1.262
56202W        W21022  34.086  17.140   4.043
56203W        W21023  22.772  17.547   2.129
56204W        W21024  13.808  11.627  11.122
56205W        W21025   8.200   0.356  14.935
56206W        W21026  17.140  11.471   1.297
56207W        W21027  34.412  39.637  14.285
56208W        W21028  29.682  29.150   1.024
56209W        W21029   3.888  17.887  12.022
56210W        W21030  30.437  42.489  14.899
56211W        W21031   8.682  31.012   3.648
56212W        W21032   2.260   6.293   4.499
56213W        W21033  15.231  13.096  10.608
56214W        W21034  39.547  39.829   1.491
56215W        W21035  10.926   2.762   2.452
56216W        W21036   3.308  20.733   0.379
56217W        W21037  36.438  23.484   0.928
56218W        W21038   0.578  44.557   4.021
56219W        W21039  17.197  33.762  13.747
56220W        W21040   7.404  14.582   4.550
56221W        W21041  26.174  41.082   0.044
56222W        W21042  33.662  40.767  14.786
56223W        W21043  11.631  17.229   3.918
56224W        W21044  23.483  34.159  13.368
56225W        W21045  27.700  19.594   1.271
56226W        W21046   2.365  27.904  11.603
56227W        W21047  36.545   7.828  12.040
56228W        W21048  39.623  25.772  12.362
56229W        W21049   9.456   5.085  10.962
56230W        W21050  12.418  23.175   0.390
56231W        W21051  42.527  16.186  11.608
56232W        W21052  37.414  20.141   4.769
56233W        W21053  36.095  35.862  13.212
56234W        W21054  37.279  25.469   0.822
56235W        W21055  40.044  39.154  11.472
56236W        W21056  29.998  15.329  13.019
56237W        W21057  26.451  18.083  11.290
56238W        W21058  39.861  32.194   9.828
56239W        W21059   0.544  27.767  11.202
56240W        W21060  40.995  29.457   2.322
56241W        W21061   6.135   8.423  12.916
56242W        W21062   7.292  25.031  13.887
56243W        W21063  23.017  35.941  12.443
56244W        W21064  31.512   3.328  10.717
56245W        W21065  28.075  15.310   2.240
56246W        W21066  11.074  41.843   1.783
56247W        W21067  43.322  19.073   3.810
56248W        W21068  22.683  14.545   1.751
56249W        W21069  42.299  37.547   1.145
56250W        W21070  16.501  16.048  13.333
56251W        W21071  15.783  34.011  12.450
56252W        W21072  20.454  11.313  11.526
56253W        W21073  34.546   7.856  12.074
56254W        W21074  13.061  26.179   2.394
56255W        W21075  37.850  29.001  12.973
56256W        W21076  34.672  30.793  11.933
56257W        W21077   9.759  17.581   2.572
56258W        W21078  12.268   0.402  12.838
56259W        W21079   1.230  27.919  12.040
56260W        W21080   7.144  25.675  10.633
56261W        W21081   5.248  15.407   4.177
56262W        W21082   2.248  33.325   3.658
56263W        W21083  38.122  13.083  13.875
56264W        W21084   5.892  36.535   2.210
56265W        W21085  19.574  37.885   3.236
56266W        W21086   2.698  39.352   1.988
56267W        W21087  32.451  23.250  10.773
56268W        W21088  36.030  13.089   3.235
56269W        W21089   3.220  37.758   5.149
56270W        W21090  29.909  31.967  13.459
56271W        W21091  16.404   0.561  14.332
56272W        W21092  37.331  11.800   4.170
56273W        W21093   7.682  12.266  10.629
56274W        W21094  25.569  31.228  10.678
56275W        W21095  12.570   7.771   1.639
56276W        W21096  43.926   9.325   1.787
56277W        W21097  25.163  19.539   1.889
56278W        W21098  17.152  23.838  13.442
56279W        W21099  25.109  27.108  11.982
56280W        W21100  40.913  11.043  13.872
56281W        W21101  23.216  32.577  13.410
56282W        W21102  26.115   4.033   3.377
56283W        W21103   3.516  28.998   2.843
56284W        W21104   0.466  27.383   4.113
56285W        W21105   4.756  17.676  10.695
56286W        W21106  32.938  31.132  13.842
56287W        W21107   1.291  11.747   2.843
56288W        W21108   4.036  10.173  12.444
56289W        W21109  32.910  32.870   1.246
56290W        W21110  27.042  36.158  10.632
56291W        W21111  24.547  23.901   4.584
56292W        W21112  18.844   9.728   2.358
56293W        W21113  32.863  23.733   2.805
56294W        W21114  35.461   9.184   4.584
56295W        W21115   4.167  18.285  14.499
56296W        W21116  40.908  30.673  12.537
56297W        W21117   4.085  30.584  12.773
56298W        W21118   7.860   0.474   3.360
56299W        W21119  11.345  11.155   3.767
56300W        W21120   9.801   5.018   4.238
56301W        W21121  12.189  38.055   4.553
56302W        W21122  41.668  13.653   1.956
56303W        W21123  30.338  37.963   1.360
56304W        W21124   6.993  13.126  12.911
56305W        W21125  34.062  21.226   3.763
56306W        W21126  12.770   4.241   3.499
56307W        W21127  16.815  15.638   0.374
56308W        W21128   7.067  11.876   1.768
56309W        W21129  17.571   7.522  12.641
56310W        W21130  19.142  25.568   3.840
56311W        W21131  13.676  29.140   2.224
56312W        W21132  21.469   2.688   1.287
56313W        W21133  42.984  33.987   0.921
56314W        W21134  12.754   5.261  10.798
56315W        W21135  15.822  21.533   1.772
56316W        W21136   9.404  44.824   3.535
56317W        W21137  14.742  23.445  11.631
56318W        W21138  34.552  28.804   1.175
56319W        W21139   4.874   5.336   0.040
56320W        W21140  18.692  44.511   5.207
56321W        W21141  40.200  34.064  11.686
56322W        W21142  23.245  44.734   2.204
56323W        W21143   2.882   9.146   2.117
56324W        W21144  27.966   8.380  13.551
56325W        W21145  30.036  41.190   0.021
56326W        W21146  10.138  13.685   4.071
56327W        W21147  35.989  30.992  12.508
56328W        W21148  10.424  43.362   3.249
56329W        W21149  34.487  13.392   0.022
56330W        W21150  29.449  21.267  14.785
56331W        W21151  19.550  21.808  13.537
56332W        W21152  24.596  16.550  14.859
56333W        W21153  30.896   7.241   3.850
56334W        W21154  14.022  42.422  11.176
56335W        W21155  38.158  26.467   2.369
56336W        W21156   5.888  26.738   4.546
56337W        W21157  11.325  27.072   1.981
56338W        W21158  17.251  29.485   0.886
56339W        W21159  25.772   0.295  13.253
56340W        W21160  33.138  18.193   0.399
56341W        W21161  39.632  18.962  11.620
56342W        W21162  21.870   9.241   2.647
56343W        W21163   0.914  13.335   0.398
56344W        W21164  35.037  20.798   3.630
56345W        W21165  11.650   4.235   2.650
56346W        W21166  31.889  36.472   1.952
56347W        W21167  11.761   2.736  13.026
56348W        W21168   3.833  36.288  14.357
56349W        W21169  21.205  42.896  14.998
56350W        W21170  44.555  23.663   1.745
56351W        W21171   2.461  39.884   3.616
56352W        W21172  37.388  30.180   0.445
56353W        W21173  24.173   0.706   4.856
56354W        W21174   2.895  15.834   3.915
56355W        W21175  44.876  10.064   1.337
56356W        W21176  32.863  12.260  14.393
56357W        W21177  15.778  37.536  11.925
56358W        W21178  29.033   6.488  14.987
56359W        W21179  12.101  33.106  13.978
56360W        W21180  12.269  10.713  10.342
56361W        W21181   7.049  43.200   4.168
56362W        W21182   0.657  30.185  14.288
56363W        W21183   8.635  23.320  12.165
56364W        W21184  30.602   3.415  12.071
56365W        W21185  12.145   1.534   1.271
56366W        W21186   4.521  15.118  13.982
56367W        W21187   4.245   9.888   3.705
56368W        W21188  20.238   1.363  13.584
56369W        W21189   4.267  13.721   0.968
56370W        W21190  28.010   1.905   0.285
56371W        W21191  10.506   5.627  11.600
56372W        W21192   6.862  22.074   2.425
56373W        W21193  39.780  35.303   0.863
56374W        W21194  44.463  27.224  14.023
56375W        W21195  44.377   0.844  11.244
56376W        W21196   9.701  13.337  14.376
56377W        W21197  12.018  40.406   1.217
56378W        W21198  11.292  33.610  14.443
56379W        W21199   1.984  15.321   2.966
56380W        W21200  18.987  18.909   4.444
56381W        W21201  17.851  13.202  13.519
56382W        W21202  23.822   4.438   2.969
56383W        W21203  28.714  39.574   4.165
56384W        W21204  15.396  21.981  11.138
56385W        W21205  34.050  39.321  13.571
56386W        W21206  12.281  31.876  14.865
56387W        W21207  27.058   3.750   3.045
56388W        W21208  33.487  24.697  12.850
56389W        W21209  35.825  42.849   0.035
56390W        W21210   7.004   9.544  12.456
56391W        W21211  27.017  15.143   4.641
56392W        W21212  34.988  13.035   0.820
56393W        W21213  30.052  36.308  11.571
56394W        W21214   3.379   9.716   2.312
56395W        W21215  12.768  30.374   1.332
56396W        W21216  33.305  13.808  12.455
56397W        W21217  23.668  30.997   4.587
56398W        W21218  44.310  27.682  10.324
56399W        W21219   2.720  23.412  13.131
56400W        W21220   2.229  27.814   3.516
56401W        W21221  39.478  21.060  14.284
56402W        W21222  10.619  33.526  12.550
56403W        W21223  22.871   9.102  13.497
56404W        W21224  25.089  20.830   3.689
56405W        W21225  36.534  11.855   1.706
56406W        W21226   7.976   1.265   0.867
56407W        W21227   3.957  29.067  12.695
56408W        W21228  43.619  40.242  13.990
56409W        W21229  36.365   7.708   3.313
56410W        W21230  22.248  18.593   1.327
56411W        W21231  40.960  12.364   4.160
56412W        W21232  14.815  18.248  14.304
56413W        W21233  32.051  12.618   3.666
56414W        W21234  43.910  28.455  13.868
56415W        W21235  15.671   6.689   3.672
56416W        W21236  34.986  12.111   4.084
56417W        W21237  43.985  40.548  11.544
56418W        W21238  38.172  22.205   0.965
56419W        W21239  22.732   9.669  14.820
56420W        W21240  15.112  44.844   4.150
56421W        W21241  12.102  24.707   2.400
56422W        W21242  21.068  42.461  12.537
56423W        W21243  18.600  13.774  13.588
56424W        W21244  15.999   0.912   0.689
56425W        W21245   4.937  18.542   2.250
56426W        W21246  36.330  14.612   2.763
56427W        W21247  15.139  41.193  13.024
56428W        W21248   5.860  35.869   2.836
56429W        W21249  27.790  20.739   1.390
56430W        W21250  38.776  39.973   4.308
56431W        W21251  15.880  25.040   9.676
56432W        W21252  19.677  23.942  12.098
56433W        W21253  40.324  30.628   0.595
56434W        W21254  33.820   2.726   1.223
56435W        W21255   1.952  41.853   1.374
56436W        W21256  27.189  37.544   0.874
56437W        W21257   7.328  42.771   4.214
56438W        W21258   6.119  17.748  13.436
56439W        W21259  23.114  24.107  14.300
56440W        W21260  34.446  22.412   4.008
56441W        W21261  21.336  22.032  11.683
56442W        W21262  23.725  24.273   1.294
56443W        W21263  15.201  39.956  10.182
56444W        W21264  43.951  30.107  10.527
56445W        W21265  37.543  23.237   4.717
56446W        W21266  17.083  29.448  13.406
56447W        W21267  33.951  15.067   1.744
56448W        W21268  40.236   4.613   1.727
56449W        W21269  43.025   8.891   2.823
56450W        W21270  43.014   4.771  14.077
56451W        W21271  27.964  38.404  13.237
56452W        W21272  18.130  15.647   0.833
56453W        W21273  20.673  11.700   9.896
56454W        W21274   1.526   1.812  11.447
56455W        W21275  18.367  26.594   5.009
56456W        W21276  40.053  42.769   3.471
56457W        W21277  18.430  21.533   1.454
56458W        W21278  14.353   2.441  11.608
56459W        W21279  40.410  24.837  10.778
56460W        W21280  38.638  28.956   4.232
56461W        W21281  10.867   4.772   2.281
56462W        W21282  15.360  19.562   2.739
56463W        W21283  25.526   1.850   0.521
56464W        W21284  17.566  10.106   4.835
56465W        W21285  37.418  13.654   4.673
56466W        W21286   1.240  36.292   4.185
56467W        W21287   5.670  32.051  13.391
56468W        W21288  12.165   5.088   1.778
56469W        W21289  39.957  16.200  12.478
56470W        W21290  11.650  17.287  11.673
56471W        W21291   0.567  31.654   3.645
56472W        W21292  37.596  11.785   4.620
56473W        W21293  23.226  42.762  11.423
56474W        W21294  14.117  16.827  10.584
56475W        W21295  27.723   2.840   4.600
56476W        W21296  25.570   8.219   1.752
56477W        W21297  23.750  23.593   1.915
56478W        W21298  35.480  41.471   2.729
56479W        W21299  32.038  34.533  14.513
56480W        W21300  26.165  19.802  13.538
56481W        W21301  31.887  15.818  14.323
56482W        W21302   2.796  16.663  14.849
56483W        W21303  40.989  32.446   1.691
56484W        W21304  15.762   5.186  11.997
56485W        W21305   8.689  15.323   0.050
56486W        W21306  11.848  20.759  11.931
56487W        W21307  44.789  22.738  12.778
56488W        W21308  13.546  30.024   2.148
56489W        W21309  25.576   3.221   0.960
56490W        W21310  27.921  32.295   9.884
56491W        W21311  17.509  39.576   3.615
56492W        W21312   1.354  28.939   1.458
56493W        W21313  23.003  42.758  13.544
56494W        W21314  41.033   0.321   3.678
56495W        W21315  41.416  11.388  10.968
56496W        W21316   0.118  33.917   3.590
56497W        W21317  16.377  35.304  14.828
56498W        W21318  39.458  10.083  12.620
56499W        W21319  25.121  12.068  13.513
56500W        W21320  20.164   7.164   1.378
56501W        W21321  42.538   0.979   3.257
56502W        W21322  29.545  24.323  10.260
56503W        W21323  19.507  15.780  10.860
56504W        W21324  25.668  11.785   0.914
56505W        W21325  42.576   3.512   4.145
56506W        W21326   4.399  31.523   2.772
56507W        W21327  37.729  10.047  10.810
56508W        W21328  28.777  11.782   4.630
56509W        W21329  17.206  12.220   0.752
56510W        W21330   2.859  35.077   4.742
56511W        W21331  42.976  38.320   2.366
56512W        W21332  21.075  36.432  11.801
56513W        W21333  22.983  31.216   3.268
56514W        W21334  31.050  33.591  11.457
56515W        W21335   1.732  39.544   2.298
56516W        W21336  38.713  18.250   2.324
56517W        W21337   6.979  14.576  10.725
56518W        W21338  39.378  30.479   3.718
56519W        W21339  33.042   6.440  14.344
56520W        W21340   6.112  40.939   1.162
56521W        W21341   1.903  27.224   4.166
56522W        W21342  19.107  30.388  13.393
56523W        W21343  15.760  40.714   4.445
56524W        W21344   3.409  25.152  13.823
56525W        W21345  15.890  37.014  12.047
56526W        W21346   5.445   6.371   0.010
56527W        W21347  15.421  15.790  13.056
56528W        W21348  26.545  19.499   2.678
56529W        W21349   8.844  18.589   2.700
56530W        W21350   8.099  32.515   4.524
56531W        W21351   1.795  33.125  14.498
56532W        W21352  27.069  44.478  13.788
56533W        W21353  39.906   3.684  11.182
56534W        W21354  22.964  22.811  11.986
56535W        W21355  22.455  44.201   4.181
56536W        W21356  27.467  13.567   2.805
56537W        W21357  23.692   3.477   3.095
56538W        W21358  10.723   7.282  14.880
56539W        W21359   9.422  35.289  14.901
56540W        W21360  22.897  20.725  13.858
56541W        W21361  40.100   5.943   3.036
56542W        W21362  14.066  12.340  11.660
56543W        W21363  42.273   8.210  10.730
56544W        W21364  24.752  42.748  11.359
56545W        W21365  15.088  30.272   1.969
56546W        W21366  21.378  26.560  12.930
56547W        W21367  25.994   1.171  12.867
56548W        W21368  33.134  21.569   2.199
56549W        W21369   9.351  30.045   0.712
56550W        W21370  20.082  20.143   1.939
56551W        W21371  37.438   1.464  11.511
56552W        W21372  44.338   8.579   4.565
56553W        W21373  15.611  26.637   4.554
56554W        W21374   4.421   2.963   0.327
56555W        W21375   3.401  11.827  14.992
56556W        W21376   0.751  21.609  11.223
56557W        W21377  24.911  16.107   4.523
56558W        W21378  22.163   8.342  10.503
56559W        W21379   7.798  18.089  14.969
56560W        W21380  22.010  12.977   0.097
56561W        W21381  29.183   8.611  11.190
56562W        W21382   9.239   0.374   1.391
56563W        W21383   9.823  19.654   1.673
56564W        W21384  16.466   1.056   1.056
56565W        W21385  14.179   0.770   4.424
56566W        W21386  26.068  22.920   1.143
56567W        W21387   0.286   3.466  10.386
56568W        W21388  26.427  36.495  12.006
56569W        W21389  26.631  22.207   3.552
56570W        W21390  23.203  33.303  12.632
56571W        W21391  27.064   8.192  13.480
56572W        W21392  25.434  29.689  12.616
56573W        W21393  31.375  38.337   0.308
56574W        W21394  44.929   8.871   0.974
56575W        W21395  34.913  38.338   4.235
56576W        W21396  25.177  22.389  10.463
56577W        W21397  41.913  22.476  12.017
56578W        W21398   3.137  28.536   4.806
56579W        W21399   3.168  22.864   1.424
56580W        W21400   1.008  26.555  13.424
56581W        W21401  18.065  10.671   0.775
56582W        W21402  18.111  28.437   3.582
56583W        W21403  22.572  34.349  11.359
56584W        W21404  25.195  14.200  13.518
56585W        W21405  44.439  10.116   4.955
56586W        W21406  21.692  19.964  14.023
56587W        W21407  25.407  12.431  12.081
56588W        W21408  12.833  21.201   0.554
56589W        W21409   2.205  24.484   3.515
56590W        W21410   0.233  16.010   1.366
56591W        W21411  39.801  22.980   1.936
56592W        W21412  20.127  13.560   4.133
56593W        W21413   5.975  38.333  14.895
56594W        W21414   0.223   3.697   3.081
56595W        W21415  24.685  24.967  13.795
56596W        W21416  21.779  27.761  11.630
56597W        W21417  21.549  15.533   4.662
56598W        W21418  11.968  24.487  12.139
56599W        W21419  15.296  37.506  13.952
56600W        W21420  21.153  12.688   3.849
56601W        W21421  24.705  33.675  13.309
56602W        W21422  33.098  21.771   4.076
56603W        W21423   0.936  16.238  11.001
56604W        W21424  35.100   1.401  12.217
56605W        W21425  13.603  41.921   0.826
56606W        W21426  40.440  42.690  10.603
56607W        W21427  32.343   8.930  11.180
56608W        W21428   1.828  34.996  13.095
56609W        W21429  15.140  12.335   1.737
56610W        W21430  32.170  27.574   2.214
56611W        W21431   1.445  39.054  12.414
56612W        W21432   5.840  16.503   2.468
56613W        W21433   5.912  38.014  14.485
56614W        W21434  19.182   7.683  13.511
56615W        W21435   6.242  32.055   3.584
56616W        W21436  19.976  33.069   3.311
56617W        W21437   5.762   2.993   3.240
56618W        W21438   8.482  39.530   1.174
56619W        W21439  15.458  26.260   1.609
56620W        W21440  15.579  21.876  11.596
56621W        W21441   4.444  27.876  12.348
56622W        W21442  19.977  21.681  14.731
56623W        W21443  14.278  37.142   2.730
56624W        W21444  19.123  37.840  13.593
56625W        W21445   5.492  15.737  11.575
56626W        W21446  10.330  39.502   0.724
56627W        W21447  17.144  32.417  10.620
56628W        W21448   1.506  22.540  12.529
56629W        W21449  28.948  44.030  12.879
56630W        W21450  43.170  33.079   0.374
56631W        W21451  42.902  25.133   3.313
56632W        W21452  31.934  11.090   3.039
56633W        W21453  36.024  23.151  12.829
56634W        W21454  18.001  19.697   1.360
56635W        W21455  26.680  44.362   4.672
56636W        W21456  25.591  28.070   1.415
56637W        W21457  40.929  33.201  13.921
56638W        W21458  40.015  12.067  10.673
56639W        W21459  35.541  31.656   2.923
56640W        W21460  44.230  12.835  11.515
56641W        W21461  11.392  24.681   1.920
56642W        W21462  14.258  43.964  10.272
56643W        W21463  21.804  13.264   0.950
56644W        W21464  18.312   3.690  12.434
56645W        W21465  23.654  42.495   1.925
56646W        W21466  41.499  27.190   3.148
56647W        W21467   0.516   6.171   1.626
56648W        W21468  21.370  34.903  14.799
56649W        W21469  26.890  24.123  10.471
56650W        W21470  15.583  22.295   1.326
56651W        W21471   7.799   9.736  12.872
56652W        W21472  23.748  25.043   1.903
56653W        W21473  25.625   3.334  10.799
56654W        W21474   1.178  22.003   4.000
56655W        W21475  10.241  23.046   0.305
56656W        W21476  36.033   7.312   4.491
56657W        W21477  17.972  44.908  13.954
56658W        W21478  42.354  29.581   3.732
56659W        W21479  26.126  15.275   1.323
56660W        W21480  23.696  37.788  11.032
56661W        W21481  16.697  33.632  10.634
56662W        W21482  41.446  10.767  10.586
56663W        W21483  10.325  31.115   1.870
56664W        W21484  25.275  26.596   0.809
56665W        W21485  25.934   3.511   2.833
56666W        W21486   7.432   5.920  10.800
56667W        W21487   3.977  19.640  11.634
56668W        W21488   6.540  36.349   4.623
56669W        W21489  28.008  19.261  12.137
56670W        W21490  43.957  25.118  14.881
56671W        W21491  11.141  19.832  10.427
56672W        W21492  21.696  16.160   0.712
56673W        W21493   0.860  39.239  10.585
56674W        W21494  43.591   1.045   4.089
56675W        W21495  36.602  39.562   4.658
56676W        W21496   2.965  26.256  14.346
56677W        W21497  40.431  22.807  12.532
56678W        W21498  43.426  20.022  13.481
56679W        W21499   2.204  39.669  11.129
56680W        W21500  17.277  42.313  11.503
56681W        W21501  20.173  11.351  14.461
56682W        W21502  44.442  39.735   2.291
56683W        W21503  23.110  23.206  13.278
56684W        W21504  17.047  23.523   3.295
56685W        W21505  42.386  18.287   4.833
56686W        W21506  29.840   6.063  14.023
56687W        W21507   1.163   5.716  13.491
56688W        W21508  16.339  23.939   3.687
56689W        W21509  24.770  14.588  11.154
56690W        W21510   0.380  43.125  11.927
56691W        W21511  26.203  39.127   4.161
56692W        W21512  11.820  39.502  14.766
56693W        W21513  37.401  31.684   4.125
56694W        W21514   3.292  39.343   1.410
56695W        W21515  22.420  36.717  14.474
56696W        W21516  31.955  12.456  13.515
56697W        W21517  43.749  32.629  12.147
56698W        W21518  21.759  24.566  14.744
56699W        W21519  12.644  33.649   1.317
56700W        W21520   4.310  37.859  13.574
56701W        W21521   1.527   7.489  11.888
56702W        W21522   9.288  37.865   1.883
56703W        W21523  41.312  13.638  10.721
56704W        W21524  41.185  35.027  13.514
56705W        W21525  38.961  39.220  12.976
56706W        W21526  18.181  42.334  12.528
56707W        W21527   6.721  35.545   3.588
56708W        W21528  25.535  44.832   3.636
56709W        W21529   1.844  10.173   2.336
56710W        W21530  16.842  21.600  14.546
56711W        W21531  29.201  27.078  14.935
56712W        W21532  20.445   4.702  11.477
56713W        W21533  33.080  17.749   1.880
56714W        W21534  22.209   3.137  10.511
56715W        W21535  43.536   9.403  13.313
56716W        W21536  41.306  13.375  14.309
56717W        W21537  33.257   8.257   1.241
56718W        W21538  38.087   3.506  10.527
56719W        W21539  43.771  17.643   3.328
56720W        W21540  22.837   8.927  11.176
56721W        W21541  11.561  27.541  11.127
56722W        W21542  40.837  10.120  10.741
56723W        W21543  40.755  32.042   0.914
56724W        W21544  39.979  35.276  13.468
56725W        W21545  37.856  35.034  10.713
56726W        W21546  26.137  16.035   1.749
56727W        W21547  34.986  44.492  12.218
56728W        W21548  36.071  15.715  12.191
56729W        W21549  24.223  18.261  14.858
56730W        W21550  33.557  41.521   0.225
56731W        W21551  29.075  23.426   3.631
56732W        W21552  43.071  11.148  14.257
56733W        W21553  43.001  15.865  10.921
56734W        W21554   9.803  11.806  11.838
56735W        W21555  33.146   3.611  10.804
56736W        W21556  36.877  15.577   2.152
56737W        W21557  30.403  42.603   4.329
56738W        W21558  14.618  15.384   9.717
56739W        W21559   8.245  38.208  11.167
56740W        W21560   2.672  16.119  13.938
56741W        W21561  12.682  33.586   4.645
56742W        W21562   0.968   7.402   2.141
56743W        W21563  38.865   1.341   0.797
56744W        W21564  14.700   4.749   1.253
56745W        W21565   9.468  18.024   3.674
56746W        W21566   1.840  14.373   1.327
56747W        W21567  32.175  20.045   4.799
56748W        W21568  12.837  30.549   3.861
56749W        W21569  31.668  15.145   0.625
56750W        W21570   5.010  42.469  13.681
56751W        W21571  39.377  33.122   2.079
56752W        W21572  41.982  10.320   3.608
56753W        W21573  20.845  28.110   0.141
56754W        W21574  24.224  15.210   3.400
56755W        W21575   0.529  35.010  10.768
56756W        W21576  33.799  33.139  14.376
56757W        W21577  41.374  25.538  14.439
56758W        W21578   3.970  22.679  14.559
56759W        W21579  40.512  24.486  11.136
56760W        W21580   4.441  11.587  11.491
56761W        W21581  44.940   7.109  12.572
56762W        W21582  15.791  10.308  13.953
56763W        W21583  22.520  39.320   1.243
56764W        W21584  19.193  19.816  14.379
56765W        W21585  11.701  20.317  12.446
56766W        W21586   1.250  34.453   4.648
56767W        W21587  35.772  42.066   3.317
56768W        W21588   3.018  36.156   4.638
56769W        W21589  32.935  11.862   2.891
56770W        W21590   7.941  31.278  11.448
56771W        W21591  11.618  38.038   3.838
56772W        W21592   6.294  42.192  13.613
56773W        W21593   2.482  18.646   4.193
56774W        W21594  43.565   1.362   1.072
56775W        W21595  37.093   7.503   2.217
56776W        W21596   1.946  19.498  13.366
56777W        W21597   3.509  12.189  14.449
56778W        W21598  23.655  18.969   4.593
56779W        W21599   4.260  37.452   1.241
56780W        W21600  43.442  33.492   1.494
56781W        W21601  37.552  29.231   5.049
56782W        W21602   9.679  43.297  13.975
56783W        W21603  11.369  40.346  14.906
56784W        W21604  20.988   7.668   1.347
56785W        W21605   8.322   6.154   0.188
56786W        W21606  12.962  14.725  12.984
56787W        W21607  24.516  22.048   0.318
56788W        W21608   2.475  12.622   1.852
56789W        W21609  27.032  27.424   4.490
56790W        W21610  22.074  19.116  12.215
56791W        W21611  25.473  32.531   0.989
56792W        W21612  24.340  11.701   2.296
56793W        W21613  40.609  37.397  14.431
56794W        W21614  22.320  27.998   1.801
56795W        W21615  36.131  20.026   2.785
56796W        W21616  40.789  28.702  11.140
56797W        W21617  35.652  39.329  11.579
56798W        W21618  39.590  16.056  13.914
56799W        W21619   0.549  29.616  12.523
56800W        W21620  26.497  35.424  14.145
56801W        W21621  38.356  39.461   3.586
56802W        W21622   6.514   1.939  11.448
56803W        W21623  29.854  20.056   1.924
56804W        W21624  30.709  34.437  14.491
56805W        W21625  42.852  18.565   0.829
56806W        W21626  14.827   3.753  13.344
56807W        W21627   8.871  24.421  10.188
56808W        W21628   8.066  18.045  10.674
56809W        W21629  40.083  43.743  13.602
56810W        W21630  16.757  29.959  13.964
56811W        W21631  15.968  16.076   4.747
56812W        W21632   5.395   4.218  14.038
56813W        W21633  19.169  41.049  11.716
56814W        W21634  29.413  17.012   4.190
56815W        W21635   0.991  41.006  11.672
56816W        W21636   3.712   6.228   1.368
56817W        W21637   6.872  27.219   4.453
56818W        W21638  39.439  14.228   2.418
56819W        W21639  22.388  33.077  11.163
56820W        W21640  12.537  27.991  11.880
56821W        W21641  42.551  40.923   2.591
56822W        W21642  21.884   7.545   0.318
56823W        W21643   8.853   8.989   1.334
56824W        W21644  30.480  38.056   3.205
56825W        W21645  41.906  20.491  11.516
56826W        W21646   5.983  10.346   0.910
56827W        W21647  37.420  35.067   3.661
56828W        W21648  29.886  27.932   3.749
56829W        W21649  15.253  11.145  14.808
56830W        W21650  27.609  15.336  11.549
56831W        W21651  34.747  31.652  12.579
56832W        W21652  19.774   3.537  13.909
56833W        W21653  14.255  30.973   3.120
56834W        W21654  11.810  25.946  12.994
56835W        W21655  17.737  38.951  10.732
56836W        W21656  30.123  15.460   2.561
56837W        W21657  16.690  20.203  11.029
56838W        W21658  11.076  19.564   3.295
56839W        W21659   3.017  11.577   3.317
56840W        W21660  34.486  25.814   4.639
56841W        W21661   4.750  11.241  13.522
56842W        W21662  21.077  41.544  10.374
56843W        W21663   3.065  28.211  13.389
56844W        W21664   7.752  14.766   1.965
56845W        W21665  14.631  14.794   1.232
56846W        W21666  19.675  29.564   0.363
56847W        W21667  25.615   5.920   2.733
56848W        W21668  19.310  20.403   4.632
56849W        W21669  35.556  14.401   0.067
56850W        W21670  28.934  33.627  13.562
56851W        W21671  24.184  12.350  10.679
56852W        W21672  18.097  13.366  12.091
56853W        W21673  29.523  15.047   1.004
56854W        W21674  43.931  37.102   4.150
56855W        W21675  11.238   8.888   0.452
56856W        W21676  14.566  16.651   3.741
56857W        W21677  42.903  31.468  13.845
56858W        W21678  29.684  36.746   2.363
56859W        W21679  41.338  21.056   3.081
56860W        W21680  22.082  17.646  11.583
56861W        W21681  30.576  12.634   2.669
56862W        W21682   4.434   0.411   3.719
56863W        W21683  18.238   1.050  12.540
56864W        W21684  14.349  21.067  12.420
56865W        W21685  25.892  32.876   2.746
56866W        W21686   9.932   8.768  13.008
56867W        W21687  23.566   4.775  12.965
56868W        W21688  44.879  11.243   4.646
56869W        W21689  43.774  18.732   4.049
56870W        W21690  16.331  14.279   3.145
56871W        W21691  28.888   6.086   0.953
56872W        W21692  38.475   4.719  13.467
56873W        W21693  36.029   8.106   0.485
56874W        W21694   2.767   2.808   0.027
56875W        W21695  22.761   7.483   3.348
56876W        W21696  36.635  35.141  14.451
56877W        W21697  39.802  16.802   0.526
56878W        W21698  18.211  13.112  14.032
56879W        W21699  26.570  32.141   3.634
56880W        W21700  11.163  43.698   4.188
56881W        W21701  26.874  44.699  11.095
56882W        W21702  15.701  39.762  10.979
56883W        W21703  40.421  14.241   2.315
56884W        W21704   3.018  24.807   9.871
56885W        W21705  27.474  33.826   4.072
56886W        W21706   8.363  33.947  14.631
56887W        W21707  29.455   5.952  11.178
56888W        W21708  21.664  40.348   3.679
56889W        W21709  10.723  42.407  12.467
56890W        W21710  15.313  28.806   4.484
56891W        W21711  27.242   0.770  14.237
56892W        W21712  40.523  18.497  14.603
56893W        W21713  37.014  13.418   4.463
56894W        W21714   3.254  35.185   1.714
56895W        W21715   2.883  43.313   0.948
56896W        W21716   1.701  32.745   1.648
56897W        W21717  20.707   5.646   2.599
56898W        W21718  22.043  34.278  14.904
56899W        W21719  32.274  18.812  12.000
56900W        W21720  31.161   9.831  12.496
56901W        W21721  41.794  19.617   1.892
56902W        W21722  13.282   7.384   5.238
56903W        W21723   4.124   9.347  14.993
56904W        W21724  33.890   8.869   4.664
56905W        W21725  38.211   2.494   3.482
56906W        W21726  41.021  25.447   1.820
56907W        W21727  28.651  22.985   0.513
56908W        W21728  18.709  38.300   1.243
56909W        W21729   1.778   2.757   0.964
56910W        W21730   1.921  29.580   1.966
56911W        W21731  22.814   1.879   3.758
56912W        W21732  43.362  21.131   3.682
56913W        W21733  41.687  36.965  14.793
56914W        W21734  20.529  39.653   4.586
56915W        W21735  42.725  25.162   2.351
56916W        W21736  21.278  14.500  10.718
56917W        W21737  30.089  16.486   3.709
56918W        W21738   2.986   2.488  11.088
56919W        W21739  35.364  13.888  11.170
56920W        W21740   8.397   3.772  13.403
56921W        W21741  38.140  36.022  10.709
56922W        W21742  35.062   6.603  12.036
56923W        W21743  34.056  18.075  12.825
56924W        W21744   3.168   9.967   4.318
56925W        W21745  43.818   1.384  13.470
56926W        W21746  11.809  28.124  14.472
56927W        W21747   0.775  26.449  14.590
56928W        W21748   3.331  15.587  12.075
56929W        W21749  33.954  43.558  12.407
56930W        W21750  27.548  36.173   0.750
56931W        W21751  18.602  35.543  10.564
56932W        W21752  13.167  37.618   2.737
56933W        W21753   4.363  14.455  12.472
56934W        W21754  23.169  44.459  13.402
56935W        W21755  33.009  19.590   4.662
56936W        W21756  32.452  42.767  12.935
56937W        W21757  17.065   6.150   4.371
56938W        W21758  17.830  19.654  13.520
56939W        W21759  43.482   5.423  13.462
56940W        W21760  16.556  23.699   3.294
56941W        W21761  33.018  19.210   3.745
56942W        W21762  31.926  33.753   3.191
56943W        W21763  43.703  12.233   4.016
56944W        W21764  25.780  20.528  14.517
56945W        W21765  15.309  41.815  10.676
56946W        W21766  34.517  17.952   5.569
56947W        W21767  31.260  21.147   1.370
56948W        W21768  27.602  28.539  13.308
56949W        W21769  21.669  22.030  13.052
56950W        W21770  14.603   5.804   4.985
56951W        W21771  22.717  32.001  10.530
56952W        W21772   9.315  12.358  13.436
56953W        W21773   7.272   8.165  14.755
56954W        W21774  40.888  10.784   0.214
56955W        W21775  26.981  18.024   0.322
56956W        W21776  21.031  24.181  14.826
56957W        W21777  34.551  17.106   1.400
56958W        W21778  15.782   5.283   4.934
56959W        W21779  23.625  18.139   0.774
56960W        W21780  15.212   1.214   1.929
56961W        W21781  38.910  38.342  12.675
56962W        W21782  20.673   8.734  12.585
56963W        W21783  17.548  29.695  13.422
56964W        W21784  37.148  29.420   1.944
56965W        W21785  23.068  24.562  13.761
56966W        W21786  44.310  25.139   0.272
56967W        W21787  26.089  40.389   1.900
56968W        W21788   5.603  29.514  11.602
56969W        W21789  41.344  17.246   0.558
56970W        W21790   5.821  40.436  12.488
56971W        W21791  18.074  24.772  12.060
56972W        W21792  28.982   3.810   3.088
56973W        W21793  16.631  43.963  11.622
56974W        W21794  35.158  12.047  11.116
56975W        W21795  27.205   3.915  12.101
56976W        W21796   0.429   2.454   0.025
56977W        W21797  23.360  15.842   3.898
56978W        W21798  26.369   7.045  13.565
56979W        W21799   4.427   2.449   0.362
56980W        W21800  10.160  19.503  10.281
56981W        W21801  27.795  19.704  11.936
56982W        W21802   2.069  34.275   0.959
56983W        W21803   6.729   8.798   4.881
56984W        W21804  24.264   5.860  11.688
56985W        W21805  43.338  25.694   2.722
56986W        W21806   2.894  17.709   4.088
56987W        W21807  27.439  15.097  13.939
56988W        W21808  24.103  21.169  12.115
56989W        W21809  24.249   9.855   0.798
56990W        W21810   1.659  41.566   2.047
56991W        W21811  41.483  35.870  14.004
56992W        W21812  19.192  22.316   0.381
56993W        W21813  18.703  10.927  13.968
56994W        W21814  19.002  38.213  12.490
56995W        W21815  15.768  37.993  13.307
56996W        W21816   8.054  24.052  12.539
56997W        W21817  13.304  33.820   3.856
56998W        W21818   1.917  35.642   0.501
56999W        W21819  23.995  16.690   3.348
57000W        W21820  17.232  16.620  12.454
57001W        W21821  26.164  33.413  14.257
57002W        W21822  32.121   0.866  11.105
57003W        W21823   4.443  12.657  11.455
57004W        W21824   4.967  12.236  14.527
57005W        W21825   3.428   4.955   4.732
57006W        W21826  23.182  22.146   3.127
57007W        W21827  33.511  13.844  12.950
57008W        W21828  15.461   0.241  12.633
57009W        W21829  26.334  15.017   1.739
57010W        W21830  40.954  26.492  13.403
57011W        W21831  10.313   1.540   3.174
57012W        W21832  22.439  22.157   9.782
57013W        W21833  36.911  32.160   3.528
57014W        W21834  13.724  42.320  14.047
57015W        W21835  21.476  19.118  10.570
57016W        W21836  31.499  44.680  13.907
57017W        W21837  19.006  39.835  13.611
57018W        W21838   8.364   6.710   0.886
57019W        W21839  42.503   2.257  11.512
57020W        W21840   6.201   9.348  14.347
57021W        W21841  40.790   7.182   3.717
57022W        W21842  22.540  35.672   4.689
57023W        W21843  19.702  43.983   1.937
57024W        W21844   2.136  21.060   4.084
57025W        W21845  19.694  10.827  14.076
57026W        W21846  31.586  23.322   0.884
57027W        W21847   8.701  30.403  14.412
57028W        W21848  27.657  14.683   2.250
57029W        W21849   1.121  31.101  10.557
57030W        W21850  24.614  10.809  13.537
57031W        W21851  21.458   8.267   4.053
57032W        W21852  18.400   7.315   3.844
57033W        W21853  44.342  13.870   1.798
57034W        W21854  23.852   8.155  11.604
57035W        W21855   7.167  17.278  11.481
57036W        W21856  31.049  26.925   1.888
57037W        W21857   7.055   5.851   1.922
57038W        W21858  21.420  12.995  13.712
57039W        W21859  21.087   5.137  14.780
57040W        W21860  31.148  30.391   2.325
57041W        W21861  19.133  42.861   3.348
57042W        W21862  25.087  42.832  14.758
57043W        W21863   8.668  23.104   1.241
57044W        W21864  32.005  43.220  14.429
57045W        W21865  34.141  16.436  11.614
57046W        W21866  20.276  31.512   0.297
57047W        W21867  34.968  30.711   1.405
57048W        W21868   0.534   8.671   1.197
57049W        W21869  17.159  41.089  12.154
57050W        W21870  37.840  32.572  11.850
57051W        W21871   0.392   1.596  11.705
57052W        W21872  28.167  42.209   1.865
57053W        W21873  10.779  20.129  14.086
57054W        W21874   9.893  44.872  13.949
57055W        W21875   4.924  23.894   0.747
57056W        W21876  18.748  30.336  11.886
57057W        W21877  40.571   9.170   4.743
57058W        W21878   8.482  14.101  10.744
57059W        W21879   7.417   5.880  12.370
57060W        W21880  26.970  39.528  11.006
57061W        W21881  28.588  44.853   2.208
57062W        W21882  39.799  24.990   3.475
57063W        W21883  16.767  21.049   0.810
57064W        W21884  12.087  38.874  14.447
57065W        W21885  27.149  41.871   1.928
57066W        W21886  38.070  12.950   4.585
57067W        W21887  25.575  34.636   2.066
57068W        W21888  15.839  33.982   2.805
57069W        W21889  32.191  39.174   0.835
57070W        W21890  10.257  22.614   1.873
57071W        W21891  10.646   4.330   2.306
57072W        W21892  20.925  15.999   3.297
57073W        W21893   8.797  27.096   3.203
57074W        W21894  37.386  14.390   3.500
57075W        W21895  37.816  39.955   3.211
57076W        W21896  31.027  17.982   4.091
57077W        W21897  29.764  40.832  11.139
57078W        W21898   7.396  37.871  11.564
57079W        W21899  37.499  31.337   2.866
57080W        W21900  20.249  30.539  12.068
57081W        W21901  37.341  44.340   3.065
57082W        W21902  28.622  35.110   1.817
57083W        W21903  42.068  14.785   4.172
57084W        W21904  17.859  12.106   1.400
57085W        W21905  27.027  43.507   4.278
57086W        W21906   2.734  15.456  12.122
57087W        W21907  36.758  22.611   0.249
57088W        W21908  18.781  11.926   1.752
57089W        W21909  35.063  33.925  11.706
57090W        W21910  17.277  33.499  14.732
57091W        W21911   8.877  10.036   4.132
57092W        W21912  11.596  36.330  13.924
57093W        W21913  16.088  11.751  14.441
57094W        W21914  36.014   0.174   2.641
57095W        W21915  37.454  37.706  12.994
57096W        W21916  26.553  10.091  11.212
57097W        W21917   9.710  40.986  11.238
57098W        W21918  20.140  21.984   4.088
57099W        W21919   9.769  34.310  12.152
57100W        W21920  41.227  42.794  11.993
57101W        W21921   7.017   6.759  11.256
57102W        W21922  44.689   1.412   1.890
57103W        W21923  40.018   8.303   0.236
57104W        W21924  33.362  27.450  12.071
57105W        W21925  25.651  14.409  12.052
57106W        W21926   3.463   3.598  13.784
57107W        W21927   5.207  20.776  12.895
57108W        W21928  13.365  18.248   1.756
57109W        W21929  30.054  11.874   0.942
57110W        W21930  10.862  39.374  11.609
57111W        W21931  40.845  13.670  10.489
57112W        W21932  24.722  21.614  14.488
57113W        W21933  40.098  11.200  10.290
57114W        W21934  13.311   2.218   2.744
57115W        W21935  35.358  17.237  12.101
57116W        W21936  29.056  31.275  11.920
57117W        W21937  20.202  23.110  13.585
57118W        W21938   1.253  41.231  14.115
57119W        W21939  22.197  38.532  13.393
57120W        W21940  26.546   3.074   4.249
57121W        W21941  27.507  43.239  13.996
57122W        W21942   3.700   4.478  12.929
57123W        W21943  18.756   2.089   1.324
57124W        W21944  22.806  28.545   3.608
57125W        W21945  18.648   4.377   2.254
57126W        W21946  27.208  38.896   3.090
57127W        W21947  33.369  20.953  14.850
57128W        W21948  32.157  36.597   1.534
57129W        W21949  35.351   0.443  13.785
57130W        W21950  41.002  37.456   0.341
57131W        W21951   3.672   5.640  14.677
57132W        W21952  44.734  17.717   0.929
57133W        W21953  12.158  14.381   0.014
57134W        W21954  43.371  10.600   4.134
57135W        W21955  22.059  23.121   2.792
57136W        W21956  36.563  17.845  13.361
57137W        W21957  25.577   7.432   2.825
57138W        W21958  10.315  30.594   4.933
57139W        W21959  14.071  11.392  11.508
57140W        W21960  36.853  43.286   1.623
57141W        W21961  20.686  10.183  12.083
57142W        W21962  20.754  42.923   4.149
57143W        W21963  24.045  30.172   4.650
57144W        W21964  30.112  13.763   1.997
57145W        W21965  11.130  34.143   3.290
57146W        W21966  22.628  12.285   2.204
57147W        W21967  11.866   8.483   1.491
57148W        W21968  24.799  18.048  10.751
57149W        W21969  41.558  44.540  14.154
57150W        W21970   5.625  38.975   1.392
57151W        W21971  21.534  37.339  12.575
57152W        W21972  32.755  36.276  13.595
57153W        W21973  27.429   1.795  13.322
57154W        W21974  26.542  12.356  10.481
57155W        W21975  42.548  21.987   0.372
57156W        W21976  14.632  33.548  14.344
57157W        W21977  21.840   3.794   0.686
57158W        W21978  33.128  26.716  14.856
57159W        W21979  41.234  22.456   0.976
57160W        W21980  38.090   6.401  12.961
57161W        W21981  13.520   8.894   4.535
57162W        W21982   1.083   1.957   3.322
57163W        W21983  36.891  19.285   3.570
57164W        W21984   0.823   4.844  10.749
57165W        W21985   8.482  36.471  12.889
57166W        W21986   0.363  21.835  11.658
57167W        W21987  42.838  15.499   0.372
57168W        W21988  11.845  23.092   1.389
57169W        W21989  13.760  40.951   4.120
57170W        W21990  36.672  18.454  10.649
57171W        W21991  19.008  29.977   2.260
57172W        W21992  27.377  28.162   3.713
57173W        W21993  19.774  31.082   1.839
57174W        W21994  40.953  36.090   1.792
57175W        W21995  29.124  11.762  14.252
57176W        W21996  42.931  16.302  12.380
57177W        W21997   2.473  16.795  11.644
57178W        W21998  21.085  41.830   3.287
57179W        W21999  36.147  23.131   3.182
57180W        W22000  31.442  32.178  13.009
57181W        W22001  22.752  41.998   2.834
57182W        W22002   9.845  41.078  14.898
57183W        W22003   1.721  42.011   1.818
57184W        W22004  15.737  41.733   0.392
57185W        W22005  22.756  12.090  11.990
57186W        W22006  10.826  37.109   5.050
57187W        W22007  44.495  42.820   2.725
57188W        W22008  33.014  14.770  12.444
57189W        W22009   5.238   4.461  10.404
57190W        W22010  43.875   8.333   4.562
57191W        W22011  43.244   7.657  12.264
57192W        W22012  37.811  25.688  11.284
57193W        W22013  39.353  14.932  10.998
57194W        W22014  16.185  22.566  14.425
57195W        W22015  38.844  13.350  14.284
57196W        W22016  39.267  23.106  13.964
57197W        W22017  35.376   8.213  12.095
57198W        W22018   5.654  32.102   4.135
57199W        W22019  36.960   0.574   4.724
57200W        W22020  37.321  31.647  11.565
57201W        W22021  40.380   4.017  13.972
57202W        W22022  12.852  42.281   2.708
57203W        W22023  22.145  19.977   5.396
57204W        W22024  17.632   5.348   4.533
57205W        W22025  34.515  39.019   0.354
57206W        W22026  21.605   7.824  13.398
57207W        W22027   7.700  15.816   2.409
57208W        W22028   2.523  12.987  14.510
57209W        W22029   7.376   4.168   4.586
57210W        W22030  19.109  17.530   3.138
57211W        W22031  33.687  22.023  11.094
57212W        W22032  44.777  17.721  10.584
57213W        W22033   4.836  39.934   5.206
57214W        W22034  44.868  35.113  13.487
57215W        W22035  23.495   4.481   4.582
57216W        W22036  38.049   4.854   4.395
57217W        W22037   8.060  10.201  11.661
57218W        W22038  13.772   3.810   1.953
57219W        W22039  36.603  17.482   4.523
57220W        W22040  37.849   1.442   4.611
57221W        W22041  12.078  27.509   0.340
57222W        W22042  24.209  21.992  12.031
57223W        W22043   8.744  36.398  11.045
57224W        W22044  19.693  10.348  12.991
57225W        W22045  31.973  41.837  12.790
57226W        W22046  41.404  18.851  13.085
57227W        W22047  33.976  44.725  12.967
57228W        W22048  10.308  19.701   4.455
57229W        W22049  18.690  20.977   0.287
57230W        W22050   9.152  11.313   0.306
57231W        W22051  20.230  19.687   2.220
57232W        W22052  21.533  41.972   0.393
57233W        W22053  37.414  37.309  11.592
57234W        W22054  10.931   1.126   1.856
57235W        W22055   8.174  31.331  13.781
57236W        W22056  28.061   1.193  14.382
57237W        W22057  15.323  15.164  12.501
57238W        W22058   3.389  20.635   1.688
57239W        W22059  19.541  28.034  14.677
57240W        W22060  40.236  39.529  13.843
57241W        W22061   4.817  31.988   1.771
57242W        W22062   3.290   4.321  10.727
57243W        W22063  35.815   8.664   3.781
57244W        W22064  11.324   2.334  12.432
57245W        W22065  14.617  32.850   0.004
57246W        W22066  31.438  35.053  14.365
57247W        W22067  42.021  26.491  11.101
57248W        W22068  24.289  20.678  12.094
57249W        W22069  40.540  29.330   4.125
57250W        W22070  38.905  29.751  11.492
57251W        W22071  44.014  17.464   3.733
57252W        W22072  12.682   9.407   1.979
57253W        W22073  37.954   7.830  12.894
57254W        W22074   6.017  42.452   4.959
57255W        W22075  35.379  18.825  11.130
57256W        W22076  30.146  35.436  11.418
57257W        W22077  15.363  11.743   3.759
57258W        W22078  25.915  32.115  11.984
57259W        W22079  33.465  26.335   0.684
57260W        W22080  21.113  39.429  12.568
57261W        W22081  32.152   3.752  12.993
57262W        W22082  10.309   2.110  11.516
57263W        W22083  42.787  36.309   4.537
57264W        W22084  18.904   3.271  10.419
57265W        W22085  42.891  38.906   2.342
57266W        W22086  37.400  28.180   3.283
57267W        W22087  27.209  42.926   0.795
57268W        W22088  38.974  19.548   2.162
57269W        W22089   0.603  19.191  10.662
57270W        W22090  19.600   7.833   3.601
57271W        W22091  22.656  34.052   2.964
57272W        W22092  41.962   3.810   2.045
57273W        W22093  29.691  43.268   0.692
57274W        W22094  28.701   2.610  12.359
57275W        W22095   0.195   1.752  14.363
57276W        W22096   6.608   8.266   4.171
57277W        W22097  32.622   0.022  14.686
57278W        W22098  33.125   0.423   1.389
57279W        W22099   7.971   5.455   4.634
57280W        W22100   7.826  42.201  13.350
57281W        W22101  43.051  43.339  13.927
57282W        W22102   7.811  15.283   4.512
57283W        W22103  33.550  13.779   3.469
57284W        W22104  39.050   9.174  13.830
57285W        W22105  31.654  41.934  10.841
57286W        W22106  27.661  11.649  14.924
57287W        W22107   6.936  37.348  10.809
57288W        W22108  21.604  31.637   3.268
57289W        W22109  21.560  38.525  10.649
57290W        W22110  37.131  34.503  14.168
57291W        W22111  20.772  33.139   1.963
57292W        W22112   2.367   1.049   4.588
57293W        W22113  24.217  21.083   3.276
57294W        W22114  35.415  29.711  12.003
57295W        W22115  44.445  27.091   3.677
57296W        W22116   5.756  13.394  14.245
57297W        W22117  39.910   1.814  11.214
57298W        W22118  19.827  37.002   3.370
57299W        W22119  23.105   7.888   2.965
57300W        W22120  17.126   5.975  10.215
57301W        W22121  43.960  27.118   4.629
57302W        W22122  40.154  30.959   3.286
57303W        W22123  44.764  16.943   4.577
57304W        W22124  24.980   9.134   2.860
57305W        W22125  27.326  20.116  11.525
57306W        W22126  29.479  12.547  12.906
57307W        W22127  40.857  43.284   3.917
57308W        W22128  10.648  13.109  11.085
57309W        W22129  42.012  29.984  13.138
57310W        W22130   8.583  19.310  12.958
57311W        W22131  29.270  24.016   3.131
57312W        W22132  42.319  27.253   1.779
57313W        W22133  42.762   0.932   1.989
57314W        W22134  24.157   6.286   0.681
57315W        W22135  21.461  41.336  11.741
57316W        W22136   3.856   5.015   5.006
57317W        W22137  34.170  43.505   2.412
57318W        W22138  43.255   3.228   3.614
57319W        W22139  18.568  17.316  10.693
57320W        W22140  22.982  32.132   2.222
57321W        W22141  22.416  19.556  11.584
57322W        W22142  41.149  38.243   2.339
57323W        W22143   1.702   5.269   1.322
57324W        W22144  11.189  13.110  11.947
57325W        W22145  33.199  21.583   3.577
57326W        W22146  22.252  37.555  12.478
57327W        W22147  17.027  24.679   2.086
57328W        W22148   4.358  38.559   3.141
57329W        W22149  17.555   8.125   4.570
57330W        W22150  21.814  41.137  10.823
57331W        W22151  20.250  26.375   0.409
57332W        W22152  39.665  24.156   0.906
57333W        W22153  39.701  29.181  11.709
57334W        W22154  32.043  37.354   2.708
57335W        W22155   9.865  19.932   3.752
57336W        W22156  16.084  17.520  13.827
57337W        W22157  22.721   8.326   0.858
57338W        W22158  23.263  26.056   3.349
57339W        W22159  14.715  38.543   5.305
57340W        W22160  39.444  38.846   4.242
57341W        W22161   0.757  20.718   0.758
57342W        W22162  43.931  27.054   3.749
57343W        W22163   5.221   3.812   0.815
57344W        W22164  12.621  31.721  11.221
57345W        W22165  22.999  25.656   3.554
57346W        W22166  40.876  28.490  10.680
57347W        W22167  14.452  15.605   2.476
57348W        W22168  27.466  38.395  14.022
57349W        W22169  41.386   0.232   1.328
57350W        W22170  19.768   7.153   4.957
57351W        W22171  24.986   1.846  13.047
57352W        W22172  20.280  33.090   2.852
57353W        W22173  26.600  33.416   0.667
57354W        W22174  11.108  33.975  13.861
57355W        W22175   4.305  14.288   1.890
57356W        W22176  42.555  12.594  14.317
57357W        W22177  36.022  15.525  14.371
57358W        W22178  44.037  35.775   3.818
57359W        W22179  32.442  40.051   1.739
57360W        W22180  16.883   2.842  13.842
57361W        W22181  30.298  28.552  10.515
57362W        W22182  30.474   2.234   2.953
57363W        W22183  17.271   0.628   1.380
57364W        W22184  35.830   8.875  12.614
57365W        W22185  29.631  10.275  11.297
57366W        W22186  20.296  40.423   3.231
57367W        W22187  44.216   3.239  13.159
57368W        W22188  31.630   3.384  11.536
57369W        W22189   2.499   4.742  10.915
57370W        W22190  16.911  13.821  10.879
57371W        W22191  11.198   8.693  10.694
57372W        W22192  29.121  14.837  14.704
57373W        W22193   4.708  35.824  11.245
57374W        W22194  41.412  26.434   4.108
57375W        W22195  41.002  33.344  11.248
57376W        W22196   0.963  39.916   1.326
57377W        W22197  44.354  10.316  11.421
57378W        W22198  32.167   8.319   0.776
57379W        W22199  43.842  33.100   2.713
57380W        W22200  40.249  35.527   4.671
57381W        W22201  20.714  20.753  14.454
57382W        W22202   6.885  34.032  12.504
57383W        W22203  43.694  28.152  12.021
57384W        W22204   7.230  39.241  12.564
57385W        W22205  28.211  43.350  14.459
57386W        W22206  21.346  28.429   1.885
57387W        W22207  17.140  29.891   0.051
57388W        W22208  34.229  26.108   1.267
57389W        W22209  38.116  43.950  11.891
57390W        W22210  34.136  39.521  10.759
57391W        W22211   3.461  14.825  11.490
57392W        W22212   1.330  30.643  13.700
57393W        W22213  30.152  42.429  10.766
57394W        W22214  41.780  43.961   1.285
57395W        W22215  25.079  31.451  10.618
57396W        W22216   7.063  10.231   4.430
57397W        W22217   0.410  40.933  13.314
57398W        W22218   9.883  22.697   1.434
57399W        W22219   6.203  18.547  12.878
57400W        W22220   8.805  41.437   3.002
57401W        W22221  33.865  13.332  14.025
57402W        W22222  27.843  14.079  10.314
57403W        W22223  38.716  28.627  13.288
57404W        W22224  31.583  44.384   4.451
57405W        W22225  28.458   7.872  12.140
57406W        W22226   2.870  37.038  10.992
57407W        W22227  23.362  29.244   3.120
57408W        W22228   2.941   0.900   0.932
57409W        W22229  27.993  34.147   3.341
57410W        W22230  28.579  37.591  11.700
57411W        W22231   3.104  13.595   0.638
57412W        W22232  36.083   9.105   1.773
57413W        W22233  43.467  28.141   2.799
57414W        W22234   2.876  17.418   2.780
57415W        W22235  24.064  31.020  12.519
57416W        W22236  11.131   1.165   3.296
57417W        W22237  42.988  26.759  14.940
57418W        W22238   3.779  34.122   2.329
57419W        W22239  12.768   4.828   4.169
57420W        W22240  12.058  38.007  12.919
57421W        W22241  34.754  41.567   1.785
57422W        W22242   1.392  39.940   4.610
57423W        W22243  32.458   9.219   3.365
57424W        W22244  23.846   8.502  12.005
57425W        W22245  44.856  22.778   0.905
57426W        W22246  39.519  37.757   4.210
57427W        W22247  10.906  24.189   3.164
57428W        W22248   1.747   7.748  12.535
57429W        W22249  21.553   8.166  11.686
57430W        W22250  41.461  10.722  12.008
57431W        W22251  24.717  41.807  13.313
57432W        W22252   1.625   4.389  11.601
57433W        W22253   4.941  40.033   4.679
57434W        W22254  37.574   5.766   0.053
57435W        W22255   2.434  23.638   0.382
57436W        W22256  45.000  11.867   1.345
57437W        W22257  13.236   0.273  13.758
57438W        W22258  28.100  30.531   0.783
57439W        W22259  42.110  38.893   3.876
57440W        W22260  10.229  11.444   0.905
57441W        W22261  16.709  21.025   2.173
57442W        W22262  20.677  13.911  10.360
57443W        W22263  43.775   7.075   1.709
57444W        W22264   1.211  19.221   2.807
57445W        W22265   8.014  17.393  12.656
57446W        W22266  24.632  31.651   1.679
57447W        W22267  43.383  35.898   2.430
57448W        W22268  29.444  29.547   0.796
57449W        W22269  38.457  10.872  14.693
57450W        W22270  34.381   4.820  11.144
57451W        W22271  13.165   2.899  14.830
57452W        W22272   6.737   3.005   0.884
57453W        W22273  27.384  27.950  14.954
57454W        W22274  25.287  11.368   4.432
57455W        W22275   1.026  39.576   2.794
57456W        W22276  15.639  11.286  10.674
57457W        W22277   9.627   6.834  11.041
57458W        W22278   8.956  24.801  14.438
57459W        W22279  34.748  23.816  10.701
57460W        W22280  39.559  29.321   0.980
57461W        W22281  40.090  26.184  13.159
57462W        W22282  12.303  28.499   2.419
57463W        W22283  40.204  25.550   0.752
57464W        W22284  11.095  32.042   5.643
57465W        W22285  27.245  41.548   4.174
57466W        W22286  13.681  26.780   2.989
57467W        W22287  12.723  12.335   4.625
57468W        W22288  40.666  12.827  10.500
57469W        W22289  15.637   9.740  10.990
57470W        W22290  18.020  36.883   0.512
57471W        W22291  24.780   1.398   2.899
57472W        W22292  32.392  40.422  11.498
57473W        W22293   2.031   2.299   3.622
57474W        W22294  36.673   9.219   9.837
57475W        W22295  16.613  21.267  13.487
57476W        W22296  39.313  14.027   4.666
57477W        W22297  43.352  37.855   0.351
57478W        W22298   0.864  20.712   3.073
57479W        W22299  22.278   7.669   3.405
57480W        W22300  17.552  17.657   2.457
57481W        W22301  23.922  36.522  10.673
57482W        W22302  34.601   9.421   4.594
57483W        W22303  21.817   5.855  13.773
57484W        W22304   0.939   3.672  12.879
57485W        W22305  34.928  17.536  12.884
57486W        W22306   6.220  14.245  12.978
57487W        W22307   6.199  41.957   4.180
57488W        W22308  43.354  34.123   4.829
57489W        W22309   7.845  24.133  10.816
57490W        W22310  30.364   0.398   0.400
57491W        W22311   6.291  15.573   0.495
57492W        W22312  15.868   2.347  12.493
57493W        W22313  16.532  36.578   3.289
57494W        W22314  19.576   0.347   2.284
57495W        W22315  22.169  22.119   3.748
57496W        W22316  42.284   7.909  14.453
57497W        W22317   7.792  33.812  14.807
57498W        W22318  16.928   8.513  14.477
57499W        W22319  20.182  14.098  12.158
57500W        W22320  28.885  29.151   0.347
57501W        W22321  13.045  27.451   4.094
57502W        W22322   5.856  43.818   2.231
57503W        W22323  13.900   1.299   4.684
57504W        W22324  20.611  11.855   1.763
57505W        W22325  13.387  32.875  13.457
57506W        W22326  14.627  38.637  11.590
57507W        W22327  21.966  42.060  10.762
57508W        W22328  36.609  29.932  13.894
57509W        W22329  15.115   7.897   4.421
57510W        W22330  29.671   5.009  12.153
57511W        W22331   6.165  18.178  14.962
57512W        W22332  44.276  35.907   0.746
57513W        W22333   5.329  19.991   2.186
57514W        W22334  43.121  15.840  13.927
57515W        W22335  23.242  12.310  14.436
57516W        W22336   5.269  27.589   4.277
57517W        W22337  22.011  37.038  14.402
57518W        W22338  36.086  19.115   3.132
57519W        W22339  39.337   2.643  11.549
57520W        W22340  19.365  22.438  11.650
57521W        W22341   5.241   1.805   1.834
57522W        W22342   2.776  18.725   0.843
57523W        W22343  17.114  28.054   3.161
57524W        W22344  33.140  34.399   2.363
57525W        W22345  29.651   0.470  12.773
57526W        W22346  27.079  11.903   3.260
57527W        W22347   4.985  42.735   2.259
57528W        W22348  36.514  40.243   4.137
57529W        W22349   2.220   7.195  11.252
57530W        W22350  33.664   0.206   0.895
57531W        W22351  35.982  19.492  12.012
57532W        W22352  27.430  43.244   3.778
57533W        W22353  31.418  44.438   1.634
57534W        W22354  14.465  12.311   2.596
57535W        W22355  31.561   5.147  14.892
57536W        W22356  18.656  34.544  11.533
57537W        W22357  33.394  40.667   5.048
57538W        W22358  11.332  10.857  12.421
57539W        W22359  39.604   0.267   2.402
57540W        W22360  40.982   5.157   1.675
57541W        W22361  29.407   3.908  11.605
57542W        W22362   7.590  37.701   3.906
57543W        W22363  30.079  29.527  11.312
57544W        W22364   2.973  36.511   1.494
57545W        W22365  38.780  19.429   2.653
57546W        W22366  30.704   3.905  11.986
57547W        W22367  16.556   1.294  14.559
57548W        W22368  31.130   4.738   2.025
57549W        W22369  28.570  32.576  13.837
57550W        W22370  23.113  10.887  12.419
57551W        W22371  42.258  32.048   4.647
57552W        W22372   5.763   2.286   0.183
57553W        W22373  16.946  11.079  13.560
57554W        W22374  15.171   3.737   0.784
57555W        W22375  31.900  33.308   1.783
57556W        W22376   9.138  31.868  14.440
57557W        W22377  14.567  27.460  13.451
57558W        W22378  43.867   4.942   4.560
57559W        W22379  37.698  42.921   2.649
57560W        W22380   2.400   5.325  12.041
57561W        W22381  28.020  37.083  14.412
57562W        W22382  17.054  44.357  10.781
57563W        W22383  11.304   9.815   0.538
57564W        W22384   7.468   0.899   1.343
57565W        W22385   9.196  24.604  13.056
57566W        W22386   1.400  14.008  11.811
57567W        W22387  12.434  28.667  12.017
57568W        W22388  28.000  41.372  13.470
57569W        W22389  40.470  12.541  11.456
57570W        W22390  38.906  19.930   1.198
57571W        W22391  36.946  16.071  10.791
57572W        W22392   9.923   1.667   0.351
57573W        W22393  33.368  42.967  11.131
57574W        W22394  31.969  30.023  12.553
57575W        W22395  16.343  12.383   4.438
57576W        W22396   1.294  18.028  11.922
57577W        W22397   8.876   3.393  12.731
57578W        W22398  33.966  10.939   3.359
57579W        W22399  10.309  42.516   3.518
57580W        W22400  11.360  33.676   4.150
57581W        W22401  19.968  34.572  13.976
57582W        W22402  15.458  36.488   5.368
57583W        W22403  32.958   6.716  11.038
57584W        W22404  40.481   9.144   4.228
57585W        W22405   6.487  24.918  14.402
57586W        W22406  23.573  29.989   4.605
57587W        W22407  24.754   1.915   2.744
57588W        W22408  22.323  10.258  10.222
57589W        W22409   0.206  20.218   4.468
57590W        W22410  30.628  44.983   1.318
57591W        W22411  29.597   2.958   4.691
57592W        W22412  19.260  25.202   1.299
57593W        W22413  13.753  10.354   2.316
57594W        W22414  23.184  30.055  11.427
57595W        W22415  19.241  12.271  11.128
57596W        W22416  38.032  26.173  14.860
57597W        W22417  30.181   4.605  11.772
57598W        W22418  29.829  38.798  12.570
57599W        W22419  34.225  18.296  10.701
57600W        W22420  16.311   6.764  14.996
57601W        W22421   1.558  39.878   3.289
57602W        W22422   6.998  24.478  13.380
57603W        W22423  19.762  30.674   4.300
57604W        W22424  34.097  20.747  11.583
57605W        W22425  38.585  21.892   3.870
57606W        W22426  37.486  19.527  10.701
57607W        W22427  40.138  31.861  11.899
57608W        W22428   5.438  30.504  14.866
57609W        W22429   9.631   1.717   1.825
57610W        W22430  33.092  35.667   3.747
57611W        W22431  12.492   4.748  12.908
57612W        W22432   9.908  39.872  14.264
57613W        W22433   2.239  40.187  13.482
57614W        W22434  32.506  25.464   1.772
57615W        W22435   6.700  31.151  12.453
57616W        W22436  15.989  17.721  12.068
57617W        W22437  16.481   5.465   0.212
57618W        W22438  18.531  13.423  11.535
57619W        W22439  42.540  40.139  12.048
57620W        W22440   4.438  33.130  14.384
57621W        W22441  13.604  35.951  14.891
57622W        W22442   2.282  43.777   2.326
57623W        W22443  20.576  15.080   1.023
57624W        W22444  18.316  44.818   3.866
57625W        W22445  42.336   9.211  11.364
57626W        W22446  14.165  23.199   4.319
57627W        W22447  24.876   1.186   0.050
57628W        W22448  20.638  13.789  13.406
57629W        W22449  41.475  32.789   3.424
57630W        W22450  10.588  22.080  14.066
57631W        W22451  35.113  33.509   3.059
57632W        W22452  29.258  12.839  10.618
57633W        W22453  21.466  22.240  12.581
57634W        W22454  33.914  39.548  12.047
57635W        W22455  27.405  27.648   4.221
57636W        W22456   1.661   6.994  11.903
57637W        W22457  32.336  41.941   0.796
57638W        W22458  24.473  34.079  14.804
57639W        W22459  38.952  33.064  12.599
57640W        W22460  21.306   8.648   3.368
57641W        W22461  17.547  21.708   3.787
57642W        W22462  13.273  13.614  11.680
57643W        W22463  21.342  29.249  11.511
57644W        W22464   2.826  35.603  13.892
57645W        W22465   5.263  28.168  14.422
57646W        W22466   4.485  12.312  14.803
57647W        W22467  37.013  43.736   1.870
57648W        W22468  25.691  42.049   0.631
57649W        W22469   5.266  29.373   1.371
57650W        W22470  34.810  27.603  14.285
57651W        W22471  21.179  28.244  11.604
57652W        W22472  26.263  42.079  13.038
57653W        W22473  29.980   4.180   0.259
57654W        W22474  21.245  44.246   4.626
57655W        W22475  26.958  27.365  14.460
57656W        W22476  15.899  29.461   4.591
57657W        W22477   4.070   1.735   0.783
57658W        W22478   2.262  38.022   1.427
57659W        W22479  34.193   1.329  12.651
57660W        W22480  27.080  38.532  10.483
57661W        W22481  17.807   6.667  11.633
57662W        W22482  38.556   3.314   0.592
57663W        W22483  27.968  16.811   2.195
57664W        W22484  42.554  28.991  14.302
57665W        W22485  37.668  17.520  13.249
57666W        W22486  42.245  12.326  10.732
57667W        W22487  23.723  37.100  14.876
57668W        W22488   1.783  16.316   3.809
57669W        W22489  24.035  24.371  10.343
57670W        W22490  13.250  33.454   3.497
57671W        W22491  18.772  33.326   2.752
57672W        W22492  31.689  21.577  10.775
57673W        W22493  24.231   5.339   2.749
57674W        W22494  15.811   2.458  11.596
57675W        W22495  38.047  35.456   0.379
57676W        W22496   3.365  28.884   1.384
57677W        W22497  22.154   5.668   1.343
57678W        W22498  42.982   2.206   3.116
57679W        W22499  23.504   0.068   1.846
57680W        W22500  43.538  32.897   1.390
57681W        W22501  12.669  23.540   2.841
57682W        W22502   1.694   9.602  13.320
57683W        W22503  27.545  44.360   4.074
57684W        W22504  41.085  44.155  12.920
57685W        W22505  38.020  11.669  14.919
57686W        W22506  15.659  16.811  12.199
57687W        W22507   7.487  35.618   4.012
57688W        W22508  16.692   5.942   0.306
57689W        W22509  22.544  26.140  13.798
57690W        W22510  13.986   8.723   4.399
57691W        W22511  37.447  34.142   3.172
57692W        W22512  21.352  44.262   0.308
57693W        W22513  21.368  29.992  14.384
57694W        W22514  10.787  19.361   1.285
57695W        W22515   6.455   7.758   0.253
57696W        W22516  28.146  14.757   4.052
57697W        W22517   8.187   8.485  14.856
57698W        W22518  35.578  41.184   3.173
57699W        W22519  27.914  12.806  12.020
57700W        W22520   6.323   9.915   4.704
57701W        W22521  27.022  16.576  13.350
57702W        W22522  40.079  22.514  12.965
57703W        W22523  11.691   9.646   4.207
57704W        W22524  16.022  44.349   0.394
57705W        W22525  11.842  16.484  11.227
57706W        W22526  42.419  38.039   3.124
57707W        W22527   1.896  27.139  10.298
57708W        W22528  28.180  26.240   4.689
57709W        W22529   1.704   2.349   0.651
57710W        W22530  10.666   1.944   1.862
57711W        W22531   3.970  27.720  11.213
57712W        W22532  22.256  27.066   2.743
57713W        W22533   5.957  15.743  12.961
57714W        W22534  10.886  30.426   0.019
57715W        W22535  32.214  10.781   3.818
57716W        W22536   5.779  11.894  14.231
57717W        W22537   6.189  42.265  14.888
57718W        W22538  43.991   7.352   1.311
57719W        W22539   7.183  24.796  12.011
57720W        W22540  33.376   4.724  10.191
57721W        W22541  37.082  20.312   0.415
57722W        W22542  17.629  18.474   0.287
57723W        W22543  39.754  42.098  11.527
57724W        W22544  42.550  23.567  14.448
57725W        W22545  15.254  36.389  10.399
57726W        W22546   8.682  42.565   4.084
57727W        W22547  41.868   0.406   1.217
57728W        W22548  16.531  37.884   2.586
57729W        W22549  29.997  26.008  11.100
57730W        W22550  12.825   2.354   0.176
57731W        W22551  42.238  20.259   1.896
57732W        W22552  17.696  33.553   2.246
57733W        W22553  16.714  19.043  13.321
57734W        W22554  16.578  37.075   0.298
57735W        W22555  41.350  37.579   1.061
57736W        W22556  43.904   2.247  13.818
57737W        W22557  33.759  18.817   5.082
57738W        W22558  28.225  11.715  13.347
57739W        W22559  11.630  41.365   3.656
57740W        W22560  22.137  33.120   3.785
57741W        W22561  20.145  43.552  11.360
57742W        W22562  41.480   3.940  12.989
57743W        W22563  42.990   1.807  12.476
57744W        W22564  19.079  15.356  11.628
57745W        W22565   7.378   4.335  14.612
57746W        W22566  26.955   7.256   0.303
57747W        W22567   9.685   6.820  13.237
57748W        W22568  40.766   6.413   2.821
57749W        W22569   2.256  34.386   1.739
57750W        W22570  10.268   6.382   3.745
57751W        W22571  22.188  34.626  11.564
57752W        W22572  18.828  27.559   2.178
57753W        W22573  28.477  33.009  12.067
57754W        W22574  19.759  13.196  11.189
57755W        W22575   5.934  40.960  12.522
57756W        W22576   0.394  44.722   3.240
57757W        W22577  24.728  25.142   1.431
57758W        W22578  28.843  17.132   2.598
57759W        W22579  29.143   3.513  12.988
57760W        W22580  30.187   2.961  13.896
57761W        W22581  18.493  39.619  12.538
57762W        W22582  14.056  28.431   4.087
57763W        W22583  41.093  36.029  11.396
57764W        W22584  43.829  13.149  10.583
57765W        W22585  33.051  13.085  13.041
57766W        W22586   3.184  11.652  11.855
57767W        W22587   5.489   1.589   0.882
57768W        W22588  32.672  37.873   0.709
57769W        W22589  20.615  31.367   5.008
57770W        W22590  38.093  11.927  11.435
57771W        W22591  22.643  34.540  12.341
57772W        W22592  32.995   5.747   4.605
57773W        W22593  32.670   5.259   2.567
57774W        W22594  32.526  28.760  12.574
57775W        W22595  42.600   0.704  12.470
57776W        W22596  14.888  19.739   0.244
57777W        W22597   9.121  39.952  13.526
57778W        W22598   4.161   6.829  10.708
57779W        W22599  29.410  42.044  11.642
57780W        W22600  37.529  30.172   1.465
57781W        W22601  37.085  32.142  14.293
57782W        W22602  30.552   1.731  12.842
57783W        W22603  11.024  44.727  11.321
57784W        W22604  24.999  20.708   2.713
57785W        W22605  33.676   0.807   4.247
57786W        W22606  25.567  23.648  12.188
57787W        W22607  29.882  32.852   1.977
57788W        W22608  31.139  16.070  10.319
57789W        W22609  40.585  15.336   3.685
57790W        W22610  20.912   3.697  11.977
57791W        W22611  22.417  35.375  14.986
57792W        W22612  16.363  16.833  14.438
57793W        W22613   9.725  21.588  12.677
57794W        W22614  34.942  41.957  13.883
57795W        W22615  35.522  38.124   1.784
57796W        W22616   1.838   3.665   4.498
57797W        W22617  42.546   9.362   1.765
57798W        W22618  27.500  44.675   0.396
57799W        W22619   6.332  39.818   1.003
57800W        W22620  29.274   8.471   2.715
57801W        W22621  10.689  35.490   4.305
57802W        W22622  41.993  39.019  13.207
57803W        W22623  23.418   7.174  11.617
57804W        W22624   7.179  18.847  12.880
57805W        W22625  21.682  32.994   3.582
57806W        W22626   6.394  29.054  13.270
57807W        W22627  28.139  31.423  14.836
57808W        W22628  15.452  17.887  14.782
57809W        W22629  33.537  42.503   0.386
57810W        W22630   2.481  43.820   3.388
57811W        W22631   9.866  22.735  10.460
57812W        W22632  24.893  26.136   2.262
57813W        W22633  36.516   8.633   3.295
57814W        W22634  21.959  34.316  12.821
57815W        W22635  11.736  23.711  11.219
57816W        W22636  12.768  19.003  14.335
57817W        W22637  29.597  21.716   0.004
57818W        W22638  19.737  35.632   2.429
57819W        W22639   5.824  21.107  14.100
57820W        W22640  42.858  14.365   2.031
57821W        W22641  32.162  16.410  13.017
57822W        W22642  16.325  18.113   3.257
57823W        W22643  20.756  26.055  10.657
57824W        W22644   9.910  37.205   1.463
57825W        W22645  33.836  13.737   4.220
57826W        W22646  38.317  14.376  13.878
57827W        W22647   4.424  14.264   5.107
57828W        W22648  23.572  43.099  11.614
57829W        W22649  39.032  35.654  12.487
57830W        W22650  38.901   9.687   0.898
57831W        W22651  30.027   7.376   0.758
57832W        W22652  28.470  17.838  12.381
57833W        W22653  44.711  38.745   9.951
57834W        W22654   7.688  23.112   3.563
57835W        W22655  34.417  18.898  14.398
57836W        W22656   9.605  15.230   5.539
57837W        W22657   5.846  26.482   5.003
57838W        W22658   4.094  38.556   2.671
57839W        W22659  36.342  33.491   4.574
57840W        W22660   7.940  19.297  11.145
57841W        W22661  14.084   5.167   3.163
57842W        W22662  39.358  16.033  13.068
57843W        W22663  21.742  30.706  13.517
57844W        W22664  40.605  24.121  14.958
57845W        W22665  38.505   2.253  12.075
57846W        W22666  42.069  24.844  12.152
57847W        W22667  26.617   4.379   9.946
57848W        W22668  11.794  12.315  10.487
57849W        W22669  22.547  37.248   4.055
57850W        W22670  11.130  29.452   1.952
57851W        W22671  14.629  13.861   1.264
57852W        W22672  27.952   9.825  12.858
57853W        W22673  12.351   7.437  11.980
57854W        W22674  10.772  41.722  11.633
57855W        W22675   1.866  19.582   4.770
57856W        W22676  41.292   5.628   0.009
57857W        W22677  30.197  17.141  14.349
57858W        W22678  36.050  18.481  12.026
57859W        W22679   1.790  27.156   0.895
57860W        W22680  26.093  28.793  10.511
57861W        W22681  14.927  33.459  13.078
57862W        W22682  17.982  32.109  14.949
57863W        W22683  42.399  17.921   3.979
57864W        W22684   2.745  41.984   1.659
57865W        W22685  42.387  29.205   4.354
57866W        W22686  13.576  22.020  12.573
57867W        W22687   6.414  22.240  11.960
57868W        W22688  18.140  44.436  13.084
57869W        W22689   6.289   3.175  10.989
57870W        W22690  29.665   3.835  12.045
57871W        W22691   0.012  35.954   0.284
57872W        W22692  34.095  10.282  12.676
57873W        W22693  37.026  38.069  13.517
57874W        W22694  10.408   4.482   3.294
57875W        W22695  23.985  34.507   4.601
57876W        W22696  13.438  23.270  12.391
57877W        W22697  33.341   1.714   0.302
57878W        W22698   4.299   8.732   1.209
57879W        W22699  32.059  29.091   2.797
57880W        W22700  16.555   0.932   1.959
57881W        W22701  15.211  32.956  11.892
57882W        W22702  42.234  15.784  10.303
57883W        W22703  43.018  21.546   1.790
57884W        W22704  25.756  31.551  14.849
57885W        W22705  33.308  12.954  11.423
57886W        W22706  19.268  28.407  10.829
57887W        W22707  21.957   2.306  14.991
57888W        W22708  21.630   1.230   3.682
57889W        W22709  10.687   7.777   1.072
57890W        W22710  13.841  28.575   4.563
57891W        W22711  21.314  32.192   2.710
57892W        W22712  41.787  37.397  12.052
57893W        W22713  41.755  43.820   3.579
57894W        W22714  34.662  25.188  14.358
57895W        W22715  27.999  24.304   0.900
57896W        W22716  15.355  10.403  13.036
57897W        W22717  16.075  12.562   0.418
57898W        W22718  28.734  31.125  11.508
57899W        W22719  34.362  27.839  14.388
57900W        W22720  31.015  21.729  12.845
57901W        W22721  25.142  20.166   2.932
57902W        W22722  43.290  35.065   4.742
57903W        W22723  40.853  44.224  14.722
57904W        W22724  40.362   1.138   2.614
57905W        W22725  20.382  13.121   3.847
57906W        W22726  34.116   0.777  10.979
57907W        W22727  15.094  18.347   3.027
57908W        W22728  40.926   4.369  12.404
57909W        W22729  44.032  36.981   2.205
57910W        W22730  21.600  19.269  14.964
57911W        W22731  36.817  29.963  14.373
57912W        W22732  40.104  42.398  14.897
57913W        W22733   7.853   7.682   3.198
57914W        W22734  33.198   5.465   4.218
57915W        W22735  20.251  22.179  13.515
57916W        W22736  29.356  38.934   4.516
57917W        W22737  34.095   7.642  12.034
57918W        W22738  20.607   2.141  10.791
57919W        W22739  26.050  38.509  11.199
57920W        W22740  23.747   2.810  12.309
57921W        W22741  41.505  24.501  11.462
57922W        W22742  25.592  21.302  11.935
57923W        W22743  34.370  44.993  14.314
57924W        W22744  41.448  24.126  11.796
57925W        W22745  30.499  13.057   2.364
57926W        W22746  14.333  17.488   3.509
57927W        W22747  44.063  17.164   2.122
57928W        W22748  23.520  38.552  14.527
57929W        W22749  26.472  25.027   4.659
57930W        W22750  16.281   1.368   1.929
57931W        W22751  38.792   1.921   1.342
57932W        W22752  22.509  36.082  12.319
57933W        W22753  15.598   0.897   1.539
57934W        W22754  31.644  15.298   3.258
57935W        W22755  36.183   1.949  14.294
57936W        W22756   3.464   5.056  12.417
57937W        W22757  16.336   3.858  13.420
57938W        W22758   8.919   2.119   1.355
57939W        W22759  34.040  17.998  12.327
57940W        W22760   5.617  19.593   2.367
57941W        W22761   0.986  27.537   0.429
57942W        W22762  34.458  28.672   3.135
57943W        W22763  36.350   2.715   0.532
57944W        W22764  13.662  33.482   0.236
57945W        W22765  28.928  19.607  13.338
57946W        W22766  21.027  14.718   3.120
57947W        W22767  17.990   6.800  10.689
57948W        W22768   2.317  27.580   2.047
57949W        W22769  14.664  20.148  10.793
57950W        W22770  33.593  37.892  12.171
57951W        W22771  11.904  14.126   9.774
57952W        W22772   2.051   9.317  12.575
57953W        W22773  40.236  31.447  14.938
57954W        W22774  20.396  10.878  14.504
57955W        W22775  15.301   6.907  14.083
57956W        W22776  20.571  12.130  10.718
57957W        W22777  40.119  31.983   4.988
57958W        W22778  15.269  32.020  12.669
57959W        W22779  27.050  36.087   0.557
57960W        W22780  27.066   7.113  14.304
57961W        W22781   0.828  41.332   2.526
57962W        W22782  38.576  25.038  11.268
57963W        W22783  19.855   2.981   3.732
57964W        W22784  16.563  31.487   1.845
57965W        W22785   5.667  33.411  14.501
57966W        W22786   3.535  28.479  11.649
57967W        W22787  10.761  15.715   0.449
57968W        W22788  12.665  25.949   3.703
57969W        W22789   3.465   3.777   5.069
57970W        W22790  16.419   3.266   4.225
57971W        W22791  11.863  43.137   1.430
57972W        W22792  33.448  18.786   3.689
57973W        W22793   3.661  38.941   4.805
57974W        W22794  19.222  11.655   1.755
57975W        W22795  40.123   3.969   2.343
57976W        W22796  25.767  42.851   3.643
57977W        W22797  40.000  33.175  14.403
57978W        W22798  40.949  25.117  14.946
57979W        W22799  21.205  42.367  10.309
57980W        W22800   2.433  35.654  10.703
57981W        W22801  11.083  31.506  13.040
57982W        W22802  35.047  42.493  14.012
57983W        W22803   2.928  18.893   4.264
57984W        W22804  10.707  28.008   3.110
57985W        W22805  13.937  27.555  10.804
57986W        W22806  13.114   4.279   1.214
57987W        W22807  14.812  43.268   0.240
57988W        W22808  13.584  22.611  12.907
57989W        W22809  30.423  21.647   2.646
57990W        W22810  11.565  41.904  14.994
57991W        W22811  11.727   9.729  12.099
57992W        W22812  18.653  15.319   1.926
57993W        W22813  38.556  40.399  13.418
57994W        W22814  10.252   1.314   0.553
57995W        W22815  16.747  17.804  14.551
57996W        W22816  11.489  39.391   4.481
57997W        W22817  21.133  12.689  14.071
57998W        W22818  40.333  44.951  14.325
57999W        W22819   5.754  32.423   4.523
58000W        W22820   1.562   6.477  14.048
58001W        W22821   7.131   8.943   3.331
58002W        W22822  33.210  33.173  12.354
58003W        W22823  26.719  24.822   2.700
58004W        W22824  21.771  27.104   0.895
58005W        W22825   2.978  23.197   3.708
58006W        W22826  36.121   3.039   0.168
58007W        W22827  29.536   8.227   4.608
58008W        W22828   7.379  13.487   3.175
58009W        W22829   6.577   5.718   1.797
58010W        W22830  37.163   9.837  13.853
58011W        W22831  40.953  11.544  13.861
58012W        W22832   7.176   1.620  12.111
58013W        W22833  26.629  31.459  14.577
58014W        W22834  31.657  36.364   1.478
58015W        W22835   5.823   5.254   3.848
58016W        W22836  32.417  10.917  12.180
58017W        W22837  11.341   5.135   0.672
58018W        W22838  32.500  26.187  10.830
58019W        W22839  33.485   6.902  14.808
58020W        W22840  41.751  21.195   1.850
58021W        W22841  18.215  17.637  14.801
58022W        W22842   0.013   0.946  14.844
58023W        W22843  40.724   6.832   4.681
58024W        W22844  33.619  37.079  12.885
58025W        W22845   6.152  16.697  14.388
58026W        W22846   2.489   1.718   4.186
58027W        W22847  24.023  34.599  12.292
58028W        W22848   4.935  33.254   4.023
58029W        W22849  23.754  36.553  12.262
58030W        W22850  28.138  41.077   2.934
58031W        W22851   8.923  42.044  13.964
58032W        W22852  11.950   4.877   1.135
58033W        W22853   8.876   4.971  14.494
58034W        W22854  44.912   9.275  13.418
58035W        W22855  10.788  14.234   1.743
58036W        W22856  39.310  33.905   1.045
58037W        W22857  41.387  33.368   1.323
58038W        W22858  15.292  42.341  10.670
58039W        W22859  22.767   3.427   0.459
58040W        W22860  30.790  30.685   2.787
58041W        W22861  27.055  37.088  12.878
58042W        W22862  27.691  35.082  13.284
58043W        W22863  32.100   7.888  11.938
58044W        W22864  14.243  31.857  11.202
58045W        W22865  37.592  44.246   0.811
58046W        W22866  20.101   2.780   4.647
58047W        W22867  35.919  20.593  13.397
58048W        W22868  13.740  12.189   3.819
58049W        W22869  41.684  27.673   3.120
58050W        W22870  21.659  40.567   3.178
58051W        W22871  38.486  17.689   1.245
58052W        W22872  25.028  13.786   2.290
58053W        W22873  21.281  26.756   3.057
58054W        W22874  39.009  34.931   3.120
58055W        W22875  35.411  15.572   2.755
58056W        W22876  28.678  33.093   3.606
58057W        W22877   7.086  39.539  14.373
58058W        W22878  30.950   9.808   0.335
58059W        W22879  16.085  40.665  12.993
58060W        W22880  13.832  34.388   4.989
58061W        W22881  18.661  29.917   2.651
58062W        W22882  34.885  14.137  12.598
58063W        W22883  28.693  12.818   1.983
58064W        W22884  18.233   1.678   0.471
58065W        W22885  29.485  26.056  12.554
58066W        W22886  39.677  34.179   3.674
58067W        W22887  24.541  22.648  11.212
58068W        W22888  28.766  15.229  14.505
58069W        W22889  36.115  41.219   3.307
58070W        W22890  22.945  16.127  13.275
58071W        W22891  33.611  20.189   2.836
58072W        W22892   5.744   3.241  14.987
58073W        W22893  13.681   1.777   4.667
58074W        W22894  42.779  23.666   3.346
58075W        W22895   8.355  43.931  13.792
58076W        W22896  16.501   4.889  10.127
58077W        W22897  29.556  29.193  13.975
58078W        W22898  24.160   2.377   1.342
58079W        W22899   3.306   8.907  14.928
58080W        W22900   8.190   2.990   4.590
58081W        W22901   7.156  42.002  12.104
58082W        W22902  22.648  21.052   4.053
58083W        W22903   5.833   8.903   5.035
58084W        W22904   2.481  19.643  14.298
58085W        W22905   7.161  42.190   0.989
58086W        W22906  18.906  25.514  11.380
58087W        W22907  10.576  12.139  13.035
58088W        W22908  38.702  37.056   2.836
58089W        W22909  31.405  29.259  13.381
58090W        W22910   8.848   3.765   3.757
58091W        W22911  41.293  17.533   1.924
58092W        W22912  40.214  25.241  11.065
58093W        W22913  19.816  20.823   0.480
58094W        W22914  20.494  25.946  13.879
58095W        W22915  13.615  33.844   2.739
58096W        W22916  11.803  44.850   0.549
58097W        W22917  29.507  11.435  14.944
58098W        W22918   6.054  42.840  13.890
58099W        W22919  28.702  11.317   4.394
58100W        W22920  18.495  12.931   3.344
58101W        W22921   4.620  26.439   4.136
58102W        W22922   5.901  41.844  11.453
58103W        W22923  14.035  20.471   0.229
58104W        W22924  27.010  20.783  12.140
58105W        W22925  20.687  14.588   3.724
58106W        W22926  12.121  20.827  12.877
58107W        W22927  25.614  42.448  12.139
58108W        W22928  23.476  44.827   0.832
58109W        W22929  12.094  33.610  10.639
58110W        W22930  27.919  23.290  14.336
58111W        W22931   9.688  44.740  11.082
58112W        W22932   4.304  32.946  13.920
58113W        W22933  14.974  36.007   2.148
58114W        W22934   8.930  41.441   4.277
58115W        W22935  17.867  15.053  11.085
58116W        W22936  27.946  15.183   3.125
58117W        W22937  31.761  20.175  14.398
58118W        W22938  25.933  19.195   2.200
58119W        W22939  24.068  14.394  10.708
58120W        W22940  11.237  39.822  13.532
58121W        W22941  20.557  27.033   4.664
58122W        W22942  30.102   7.206   3.234
58123W        W22943  30.382  32.092  10.965
58124W        W22944  11.005  23.101   3.327
58125W        W22945  27.664  19.243  11.767
58126W        W22946   3.907  30.760   2.254
58127W        W22947  29.065  40.808   4.753
58128W        W22948  41.216  26.740  13.047
58129W        W22949   1.377  18.478   0.893
58130W        W22950   6.255  23.320   3.213
58131W        W22951  30.539   1.154   2.311
58132W        W22952   6.577  31.315   3.183
58133W        W22953  28.610  33.954  14.955
58134W        W22954  33.970   0.578  11.949
58135W        W22955   0.515  41.417   2.916
58136W        W22956   9.727  25.894   1.204
58137W        W22957  30.081  30.039   1.799
58138W        W22958  30.191  41.526   3.583
58139W        W22959   9.727  17.207  10.758
58140W        W22960   4.680   2.775  14.440
58141W        W22961   7.269  26.011   2.234
58142W        W22962  19.710  27.515   3.384
58143W        W22963  44.351   3.380   4.744
58144W        W22964  32.627  13.274  14.868
58145W        W22965  29.445  39.956  11.161
58146W        W22966  18.672   7.396   2.380
58147W        W22967  18.262  29.604  12.948
58148W        W22968  38.402  18.270   4.239
58149W        W22969  10.721   0.432   1.372
58150W        W22970   9.959  23.386  14.821
58151W        W22971   5.354  16.134  10.656
58152W        W22972   2.052  30.121  10.661
58153W        W22973  36.883   0.063  10.784
58154W        W22974  38.294   1.733   1.421
58155W        W22975  25.719   0.503   3.119
58156W        W22976  12.575  19.104   3.746
58157W        W22977  23.742  12.148   3.187
58158W        W22978   4.302   2.423  14.386
58159W        W22979  40.469  11.344  14.008
58160W        W22980  36.627  44.310  10.769
58161W        W22981  28.447   2.331  11.249
58162W        W22982  33.134   0.001  13.883
58163W        W22983   3.419  23.611  12.982
58164W        W22984   8.128  10.822   1.271
58165W        W22985   1.012  15.069  14.910
58166W        W22986  15.117  29.796  13.509
58167W        W22987  29.182  26.659  12.541
58168W        W22988  35.158  41.507  12.563
58169W        W22989  38.096   6.900  12.775
58170W        W22990  17.100  11.023   0.055
58171W        W22991  25.091  39.264   0.314
58172W        W22992   9.476  44.737   1.196
58173W        W22993  31.267  23.177  14.372
58174W        W22994   1.418  31.126   1.662
58175W        W22995   9.801  22.245   1.188
58176W        W22996  31.537   9.643  10.754
58177W        W22997  19.466  26.070  12.097
58178W        W22998   4.879  22.944  13.405
58179W        W22999  15.554   2.278   4.539
58180W        W23000  34.345  25.675  13.844
58181W        W23001  29.617  35.936  14.258
58182W        W23002  33.664  32.502  11.049
58183W        W23003  36.428  18.559  13.913
58184W        W23004  40.082  19.535   1.165
58185W        W23005  20.534  18.312   1.312
58186W        W23006  33.316  33.559   2.915
58187W        W23007  10.178  44.310  13.988
58188W        W23008   3.904  32.260  12.509
58189W        W23009  33.440  14.738  11.979
58190W        W23010  12.254  39.889   0.454
58191W        W23011   9.016  35.096  14.369
58192W        W23012  33.922  24.979  11.990
58193W        W23013  19.256  37.468   2.642
58194W        W23014  42.275  12.852  13.956
58195W        W23015  32.677   9.648   0.955
58196W        W23016  21.812  10.191   2.667
58197W        W23017   0.234  41.046  12.836
58198W        W23018  17.274  10.827   4.785
58199W        W23019  11.749  21.171  13.576
58200W        W23020   1.627  19.625  12.517
58201W        W23021   9.729   3.895   1.140
58202W        W23022  23.586  35.825   3.358
58203W        W23023  27.004  10.799  11.690
58204W        W23024  36.074  37.626   2.611
58205W        W23025  22.606  29.608   4.519
58206W        W23026  20.014  25.242   2.914
58207W        W23027  23.766  32.452   4.269
58208W        W23028  35.869  14.719   3.659
58209W        W23029  37.008  39.345   2.134
58210W        W23030   1.552  34.563  12.916
58211W        W23031  13.957  11.876  14.922
58212W        W23032  11.321  22.193   3.295
58213W        W23033  11.963  43.233  14.925
58214W        W23034   8.691   0.482  10.691
58215W        W23035  42.713  23.868   4.449
58216W        W23036  30.884   1.785   1.368
58217W        W23037  13.581   9.351   2.164
58218W        W23038   6.641  33.880  11.160
58219W        W23039   1.938   3.286  12.020
58220W        W23040  31.826  28.906   4.215
58221W        W23041  24.817  21.160   2.512
58222W        W23042   1.912  24.396  12.113
58223W        W23043   7.802  11.314  11.186
58224W        W23044  20.976  34.178  13.736
58225W        W23045  24.013  29.473   3.586
58226W        W23046  28.225  33.645   0.199
58227W        W23047  29.271  15.106  14.311
58228W        W23048  29.926  18.745  11.375
58229W        W23049  38.564  22.088  12.148
58230W        W23050  17.817  16.717  11.475
58231W        W23051   2.657   5.533   4.875
58232W        W23052  13.755  14.149  14.970
58233W        W23053  32.333   3.678  12.489
58234W        W23054  37.548   3.453  14.614
58235W        W23055  32.914  31.937   3.208
58236W        W23056   0.054   7.153  14.398
58237W        W23057  41.971   9.873   1.330
58238W        W23058  33.069  14.252   5.086
58239W        W23059  21.548   5.510  14.365
58240W        W23060  15.303  40.517   0.062
58241W        W23061   5.009  10.293   4.536
58242W        W23062  25.431  38.034   0.678
58243W        W23063  42.086  34.070   1.431
58244W        W23064  28.627  20.684  11.488
58245W        W23065  28.607   0.052   1.729
58246W        W23066  33.414   2.249   3.833
58247W        W23067   8.926  33.221   4.058
58248W        W23068  27.889  32.402   3.655
58249W        W23069  27.582  28.594  11.559
58250W        W23070  17.780  16.371  10.634
58251W        W23071  32.130  40.376   2.071
58252W        W23072  42.791   5.460   4.930
58253W        W23073  12.748  13.731  12.460
58254W        W23074  42.418  32.570  11.352
58255W        W23075   8.984   6.669   0.132
58256W        W23076  32.885  10.624   4.155
58257W        W23077  30.423  38.974   1.746
58258W        W23078   9.082  17.332   0.489
58259W        W23079  25.298  25.992   4.122
58260W        W23080  28.445  24.718   0.655
58261W        W23081  21.381  23.600  12.945
58262W        W23082  38.933   7.476  13.047
58263W        W23083  42.307   6.817  14.281
58264W        W23084  20.943  32.658  13.992
58265W        W23085  27.532  16.459  13.293
58266W        W23086  18.777  13.568  12.003
58267W        W23087   5.750  20.752  14.515
58268W        W23088  22.582  34.167  13.181
58269W        W23089  16.206  11.695   3.073
58270W        W23090  43.798  40.641   2.647
58271W        W23091  17.094  20.254   4.409
58272W        W23092  42.371  40.335  11.557
58273W        W23093  10.669  44.491   0.324
58274W        W23094  13.776  31.969  14.557
58275W        W23095  29.286  32.949   0.265
58276W        W23096  23.046  28.131   0.804
58277W        W23097  20.323  24.204   3.661
58278W        W23098  21.220  39.053   4.565
58279W        W23099   3.220  44.237   3.141
58280W        W23100  38.487  34.347  10.973
58281W        W23101   0.783   2.887  12.503
58282W        W23102  16.083  36.532  11.285
58283W        W23103  20.256  13.271   0.813
58284W        W23104   2.128  34.976   4.677
58285W        W23105  34.999  19.055  12.878
58286W        W23106  20.071  29.626   4.083
58287W        W23107  36.032  10.308  12.858
58288W        W23108   1.299  36.811  14.876
58289W        W23109  11.304  44.727   1.942
58290W        W23110  26.710   9.413  12.950
58291W        W23111  39.315   8.370  14.917
58292W        W23112  12.367  39.629   0.006
58293W        W23113  18.204  44.018   3.300
58294W        W23114  30.402  16.650   0.729
58295W        W23115   7.475  33.997   1.480
58296W        W23116   1.919  39.074  12.604
58297W        W23117   9.128  41.359   0.379
58298W        W23118  19.051  12.767   2.661
58299W        W23119   5.289  14.882   3.350
58300W        W23120  40.462   3.815   0.860
58301W        W23121  18.721  22.490   1.257
58302W        W23122  38.206  33.767   3.322
58303W        W23123   6.115  28.402   2.756
58304W        W23124  15.220  29.907  11.851
58305W        W23125   7.382  18.192  14.216
58306W        W23126   9.569   0.443  12.006
58307W        W23127  12.793   2.538  14.207
58308W        W23128  39.439   3.592   4.686
58309W        W23129  16.804  39.665   0.654
58310W        W23130  37.185  32.072  10.013
58311W        W23131  27.988  21.213  14.927
58312W        W23132  19.660  42.289  12.767
58313W        W23133  15.137  42.193  14.039
58314W        W23134  23.727  38.856   4.194
58315W        W23135  35.861  39.310   3.124
58316W        W23136  32.790  42.122  11.649
58317W        W23137   7.889  31.440   2.312
58318W        W23138   8.526   1.976  13.856
58319W        W23139   8.651  21.715   0.254
58320W        W23140  36.571  16.004   4.209
58321W        W23141  35.873  39.426   0.848
58322W        W23142  20.309  18.504  14.652
58323W        W23143  18.011  22.487  14.990
58324W        W23144  11.797  30.024  12.079
58325W        W23145  25.639   9.442  11.120
58326W        W23146  38.094  27.074   1.465
58327W        W23147   4.753  33.182   2.323
58328W        W23148  17.471   5.385   3.029
58329W        W23149   4.261  17.963   1.903
58330W        W23150  42.856  26.131  14.193
58331W        W23151  27.664   7.254  11.727
58332W        W23152  28.704   0.401  12.155
58333W        W23153   1.737  29.957   1.631
58334W        W23154  11.303  36.599   3.109
58335W        W23155  39.628   4.613   0.502
58336W        W23156   9.708  10.619  12.370
58337W        W23157  42.485  13.050  13.530
58338W        W23158  27.680  37.501   4.098
58339W        W23159  15.342   9.212   2.354
58340W        W23160  25.131  26.704   3.619
58341W        W23161  13.538  33.930   0.440
58342W        W23162  23.287   1.208  12.880
58343W        W23163   8.848   0.504  14.256
58344W        W23164  41.479   5.129   1.849
58345W        W23165  37.563   9.064   2.790
58346W        W23166  10.410  16.811   0.896
58347W        W23167  10.708   1.369  11.728
58348W        W23168  21.040  40.717   0.025
58349W        W23169   9.756  31.090   1.661
58350W        W23170   5.845   9.168   4.551
58351W        W23171  29.616   9.846   0.684
58352W        W23172  42.492  21.291  14.757
58353W        W23173  44.254   3.926  11.874
58354W        W23174  20.678   9.989   1.521
58355W        W23175   3.438  16.727  14.042
58356W        W23176   8.949   1.959  12.942
58357W        W23177  31.092   4.892   0.056
58358W        W23178  43.310   6.627  10.682
58359W        W23179  19.362  23.776   1.350
58360W        W23180  43.980   1.687   2.392
58361W        W23181  30.004  43.028  12.376
58362W        W23182  21.147  34.610  11.580
58363W        W23183  20.905  13.094  13.877
58364W        W23184  34.933  17.160  14.907
58365W        W23185  25.901   5.753   3.483
58366W        W23186   2.955   0.372   4.581
58367W        W23187  29.120  27.887  12.981
58368W        W23188   4.166  40.297   3.733
58369W        W23189   6.304   1.733  10.489
58370W        W23190  23.953  14.167  13.511
58371W        W23191   0.167  15.633  11.080
58372W        W23192  10.382  41.928  11.361
58373W        W23193  28.458  17.463  11.951
58374W        W23194  32.870  16.192  11.976
58375W        W23195  13.713   6.137   4.758
58376W        W23196  42.786   7.621  14.326
58377W        W23197  21.488  23.009  12.251
58378W        W23198  14.237  31.686   1.265
58379W        W23199  38.108   6.361  12.048
58380W        W23200  43.541   1.939   9.737
58381W        W23201  34.597  14.282   0.156
58382W        W23202   0.851  31.939  13.866
58383W        W23203  25.968  13.762   1.757
58384W        W23204  25.869  38.627   0.336
58385W        W23205   6.732  32.603   3.232
58386W        W23206   2.908   9.568   2.453
58387W        W23207  43.455  35.285   2.769
58388W        W23208  22.945   0.292  10.631
58389W        W23209  26.147  14.191   2.023
58390W        W23210  38.210  30.643  10.366
58391W        W23211  39.660  36.875   3.203
58392W        W23212   6.266  36.035  12.902
58393W        W23213  23.410  38.286  14.992
58394W        W23214  27.983   9.860   1.898
58395W        W23215  16.342  23.522  11.048
58396W        W23216  25.698  35.694  14.027
58397W        W23217  12.545  32.555  10.201
58398W        W23218  37.061  19.348  14.525
58399W        W23219  31.747  22.495  12.884
58400W        W23220  40.433  37.736   4.959
58401W        W23221  19.142  43.306  13.244
58402W        W23222   7.383   6.304   2.997
58403W        W23223  24.236  42.062   4.225
58404W        W23224  37.391  26.423   0.656
58405W        W23225  15.916  15.321  11.041
58406W        W23226  42.181  44.909  13.393
58407W        W23227  30.085  38.559   3.777
58408W        W23228  25.077   7.592   4.572
58409W        W23229  37.552  27.933   0.689
58410W        W23230  38.100  40.916  13.032
58411W        W23231  16.564   6.876   2.837
58412W        W23232  37.972  22.074   0.490
58413W        W23233  11.794  11.883   3.488
58414W        W23234   4.729   5.278   2.372
58415W        W23235  19.635  16.020   1.202
58416W        W23236   5.373  30.418  14.122
58417W        W23237  18.836  24.665  12.476
58418W        W23238  28.704   8.354  14.771
58419W        W23239  30.369   6.855  11.886
58420W        W23240   6.473  23.786  14.099
58421W        W23241  22.210  10.401   1.351
58422W        W23242  29.726   2.546  11.618
58423W        W23243  43.569  21.344  13.510
58424W        W23244   4.245  40.499   1.475
58425W        W23245  10.774  44.919  11.964
58426W        W23246   8.883  39.091  13.057
58427W        W23247   7.686   0.793  13.381
58428W        W23248  26.970  25.435   4.343
58429W        W23249   0.779   6.787   0.930
58430W        W23250   1.812  44.833   0.267
58431W        W23251  11.878  24.036  10.704
58432W        W23252   8.335  44.896   1.476
58433W        W23253   4.719   4.912   4.506
58434W        W23254  42.463  17.409   4.155
58435W        W23255   4.976  30.143   0.941
58436W        W23256  18.829  16.151  14.958
58437W        W23257  44.915  12.326  13.515
58438W        W23258  16.836  36.532   2.393
58439W        W23259  23.255  18.776   0.316
58440W        W23260  15.663  43.081   0.815
58441W        W23261  44.795  41.606   1.318
58442W        W23262  35.192  17.967  12.092
58443W        W23263  27.518  30.200   1.879
58444W        W23264  38.941  26.005  10.558
58445W        W23265  19.762  15.889  14.072
58446W        W23266  23.478  15.128  14.950
58447W        W23267   0.072  28.770   1.477
58448W        W23268  13.630  25.426  13.064
58449W        W23269  41.846  29.046  13.960
58450W        W23270  31.467  21.054   3.250
58451W        W23271  22.990  34.622   4.622
58452W        W23272  19.252  14.728  12.367
58453W        W23273  15.789  14.665   0.302
58454W        W23274  36.062  15.610   3.262
58455W        W23275  32.301   4.425   4.604
58456W        W23276  25.220   2.835   2.839
58457W        W23277  32.653  21.015   4.095
58458W        W23278  30.599  29.504  11.252
58459W        W23279  41.337  43.558   4.587
58460W        W23280  37.421  44.197  10.611
58461W        W23281  41.726   7.928   0.428
58462W        W23282  34.560  44.104   0.872
58463W        W23283  19.181   8.389   2.629
58464W        W23284  24.252  31.122   3.723
58465W        W23285   8.392  35.246  14.669
58466W        W23286   4.919  30.645  14.000
58467W        W23287  25.585  37.853  12.237
58468W        W23288  11.724  17.719  14.847
58469W        W23289  28.908  21.895   3.418
58470W        W23290   6.282  41.907   1.169
58471W        W23291   8.226   1.370  11.930
58472W        W23292  30.925  35.869   0.755
58473W        W23293  32.947  22.556   1.672
58474W        W23294  13.178  21.557   1.906
58475W        W23295  11.918  28.988  13.766
58476W        W23296  12.581  20.696  12.568
58477W        W23297  33.369  23.742  13.489
58478W        W23298   0.593  32.029  11.077
58479W        W23299  25.972  19.024  13.755
58480W        W23300  14.681   1.690  10.780
58481W        W23301  40.551  15.838   3.892
58482W        W23302  25.045  28.137   5.138
58483W        W23303  42.087  37.671  14.381
58484W        W23304   2.504  25.197   2.216
58485W        W23305  43.889  20.733   3.510
58486W        W23306  40.057  13.774  13.903
58487W        W23307   5.896  19.087   1.822
58488W        W23308  14.378  18.957   4.124
58489W        W23309  28.221  22.073   4.504
58490W        W23310   5.266  15.475   0.425
58491W        W23311   0.261  13.107  13.879
58492W        W23312  17.851  22.507   3.377
58493W        W23313  37.793  40.560   2.940
58494W        W23314  20.141  21.352  11.591
58495W        W23315   0.807   4.360  13.465
58496W        W23316  25.698  16.043  13.002
58497W        W23317  31.149   9.850  13.351
58498W        W23318  24.803  20.590  12.004
58499W        W23319  44.021  34.175  12.121
58500W        W23320  20.264  34.572  11.674
58501W        W23321  37.307  12.484  13.813
58502W        W23322  33.381   6.764  11.315
58503W        W23323  25.771   2.417  12.007
58504W        W23324  18.436  19.079  12.376
58505W        W23325   1.262  44.004  10.615
58506W        W23326  21.365   2.315   4.961
58507W        W23327  21.832   7.814   1.632
58508W        W23328   4.833  19.754   3.008
58509W        W23329  29.574  39.959   3.263
58510W        W23330  27.636  40.625   3.285
58511W        W23331  40.789  19.078   1.770
58512W        W23332  42.267  20.962   3.059
58513W        W23333   1.072  42.772  13.554
58514W        W23334  33.162  17.701  14.886
58515W        W23335  29.508  43.845  10.994
58516W        W23336   9.321  23.080  11.236
58517W        W23337  24.656   3.481   3.111
58518W        W23338   4.920   6.221  10.488
58519W        W23339  38.524  37.422  13.470
58520W        W23340   4.846  12.849   0.873
58521W        W23341  14.081  18.074   1.258
58522W        W23342  14.369  13.276  14.852
58523W        W23343   7.332   3.217   2.065
58524W        W23344   6.182   7.402   4.743
58525W        W23345  26.566  19.543  14.983
58526W        W23346  26.568  25.504  12.731
58527W        W23347  38.565  23.314   0.328
58528W        W23348  20.088  32.728   0.485
58529W        W23349  18.048  43.250   2.857
58530W        W23350  42.098  15.001   0.822
58531W        W23351   6.893  30.997   1.372
58532W        W23352  39.571  26.685   2.382
58533W        W23353  35.155  27.972   2.599
58534W        W23354  43.879  33.625  10.913
58535W        W23355  13.707   5.176   1.920
58536W        W23356  26.563   8.603   3.673
58537W        W23357   0.948  25.210  12.449
58538W        W23358   8.256  43.426  12.448
58539W        W23359  21.946  35.271   0.229
58540W        W23360  29.447  37.769   3.861
58541W        W23361  32.515  15.362  13.135
58542W        W23362  21.740   1.825   0.117
58543W        W23363  21.692  37.998  14.236
58544W        W23364   3.478  29.987  13.089
58545W        W23365   0.223  10.184  11.128
58546W        W23366  33.734  21.540   3.469
58547W        W23367   5.370   5.368   2.348
58548W        W23368  41.988  25.123  10.757
58549W        W23369  35.893  14.807  14.029
58550W        W23370   3.310  16.941   3.213
58551W        W23371  19.996  18.474  13.395
58552W        W23372   3.310   1.035   1.245
58553W        W23373  28.197  33.985   1.400
58554W        W23374   0.217  36.315   4.241
58555W        W23375  16.521  11.885  13.404
58556W        W23376  19.198  22.277   1.309
58557W        W23377  44.510  38.082  12.047
58558W        W23378   2.397  34.678   3.352
58559W        W23379  26.915  37.868  12.237
58560W        W23380  11.672  27.620   2.963
58561W        W23381  29.487   8.735   3.120
58562W        W23382  44.732  22.064   4.643
58563W        W23383  24.972  31.211  12.882
58564W        W23384  12.378   5.571   1.739
58565W        W23385  10.757  13.021   4.123
58566W        W23386  43.786  10.816   4.374
58567W        W23387  19.617  33.204   4.325
58568W        W23388  26.929  28.656   0.190
58569W        W23389  33.566  25.883  12.164
58570W        W23390  41.803  22.195  12.450
58571W        W23391  23.884   7.432  13.734
58572W        W23392  22.065  41.411  13.038
58573W        W23393  17.291   0.046  14.380
58574W        W23394  11.360  15.414  11.225
58575W        W23395  39.244  44.988   3.724
58576W        W23396  31.808  40.265   4.076
58577W        W23397  43.985  10.360   9.926
58578W        W23398  23.501  18.645   0.762
58579W        W23399   4.404  30.203   2.755
58580W        W23400  10.782  12.581   0.810
58581W        W23401  10.800  21.674  13.034
58582W        W23402  41.095  15.246  13.544
58583W        W23403   6.303  19.597   2.927
58584W        W23404   9.251  27.399   4.054
58585W        W23405  37.893   8.782  10.297
58586W        W23406  23.446   3.387  14.378
58587W        W23407  13.343  27.980  14.375
58588W        W23408  29.369  18.827   2.752
58589W        W23409   9.143  24.956  12.459
58590W        W23410  42.973  21.614  10.594
58591W        W23411  36.818  43.562  13.706
58592W        W23412  44.325  18.107  11.179
58593W        W23413   6.141  27.002  10.240
58594W        W23414  35.823  12.254  12.476
58595W        W23415  12.096  39.513  10.629
58596W        W23416  37.312  22.598  14.518
58597W        W23417  28.392  38.110  13.326
58598W        W23418  33.607   8.891   1.367
58599W        W23419  44.786  44.888  13.363
58600W        W23420  28.349  10.606   1.788
58601W        W23421  14.436   6.624  10.530
58602W        W23422  27.880  16.538  14.655
58603W        W23423   0.300  12.300   1.834
58604W        W23424  14.061  23.036  10.578
58605W        W23425   1.281  44.010  13.288
58606W        W23426  26.453  43.561  10.119
58607W        W23427  27.293  21.680  12.326
58608W        W23428  42.276  21.180  12.508
58609W        W23429  29.612  17.411   4.477
58610W        W23430  44.518   8.940  11.042
58611W        W23431  16.734  10.921   0.865
58612W        W23432  32.459  33.426  11.439
58613W        W23433  43.063   1.276   0.889
58614W        W23434  43.443  30.902  14.389
58615W        W23435   7.911  43.352   0.711
58616W        W23436  40.279  10.306  13.624
58617W        W23437   0.959  43.407  14.954
58618W        W23438  35.180  35.097   4.051
58619W        W23439  11.631  16.391   0.280
58620W        W23440  43.844  29.058  13.171
58621W        W23441  42.905  29.747  14.325
58622W        W23442  31.779  25.694  12.901
58623W        W23443   8.682  38.836  13.490
58624W        W23444  23.724  18.638   2.703
58625W        W23445  36.884  16.668  11.500
58626W        W23446  18.229   4.852  13.896
58627W        W23447  15.779  27.692  10.710
58628W        W23448  43.534  12.219   1.936
58629W        W23449  23.263  18.709   2.929
58630W        W23450  23.487  42.509   4.530
58631W        W23451   3.706  33.476   1.420
58632W        W23452  27.707  38.009  13.761
58633W        W23453  43.827  42.757  11.134
58634W        W23454  15.924  20.921  13.214
58635W        W23455   4.690  32.104  10.369
58636W        W23456   1.400  26.950  11.815
58637W        W23457  14.526  12.840   4.248
58638W        W23458   5.258  37.359  13.482
58639W        W23459  12.165  24.240   3.780
58640W        W23460  14.414   2.653   0.838
58641W        W23461  32.208  21.285   0.389
58642W        W23462  10.709  30.686  12.823
58643W        W23463  18.216  43.380   1.301
58644W        W23464  25.315   7.429  12.930
58645W        W23465  42.969  27.877  14.840
58646W        W23466   9.198  17.758   2.332
58647W        W23467  16.111   5.028   1.405
58648W        W23468   6.484   7.332   3.628
58649W        W23469  42.080  25.097   1.131
58650W        W23470   0.330  24.256  10.652
58651W        W23471  14.274  14.134   4.091
58652W        W23472  36.469  42.424   1.375
58653W        W23473  15.258   1.121  12.454
58654W        W23474  33.641  14.287   2.714
58655W        W23475  23.073  20.554  13.349
58656W        W23476  28.084  31.510   2.805
58657W        W23477  25.294  23.001  13.070
58658W        W23478   0.049  23.340  12.594
58659W        W23479  13.392   7.416  11.145
58660W        W23480  26.202  21.367  13.626
58661W        W23481  34.512  20.897   1.720
58662W        W23482  31.968  17.016   2.761
58663W        W23483  37.566  32.170   1.883
58664W        W23484  26.155   7.665   0.427
58665W        W23485   8.556  15.892  11.030
58666W        W23486  14.656  25.174   1.108
58667W        W23487  31.352  28.215   0.862
58668W        W23488  28.714  29.164   3.579
58669W        W23489  23.763   1.997   0.321
58670W        W23490  43.431  37.358  14.232
58671W        W23491  40.879   3.041  13.766
58672W        W23492  28.056  19.574   2.610
58673W        W23493  40.446  12.468   4.021
58674W        W23494  35.116  37.978   2.778
58675W        W23495  39.597  25.889  11.141
58676W        W23496  19.304   2.280   4.478
58677W        W23497  29.077  25.698   2.887
58678W        W23498  40.417  21.022   4.238
58679W        W23499   1.722  21.117  12.626
58680W        W23500  18.387  33.168  10.338
58681W        W23501  34.514   9.042   1.774
58682W        W23502  21.308   6.275   0.703
58683W        W23503  10.263  41.024   3.665
58684W        W23504  41.078  20.116  13.592
58685W        W23505  35.819  20.485   2.921
58686W        W23506  26.004  37.532  11.120
58687W        W23507  30.938   9.728  12.039
58688W        W23508  41.418  30.972   2.695
58689W        W23509  40.480   3.583   0.379
58690W        W23510  27.604  30.175  11.545
58691W        W23511   1.745  17.610  14.991
58692W        W23512  28.431   8.200  12.591
58693W        W23513  21.803  38.709   3.340
58694W        W23514  35.499  17.762   4.069
58695W        W23515   2.365  30.656  12.146
58696W        W23516  12.222  43.408  13.000
58697W        W23517  23.290  16.061   2.248
58698W        W23518  16.027  19.172   4.189
58699W        W23519  36.180  29.937  13.583
58700W        W23520   5.871  16.725   0.339
58701W        W23521  43.920  44.534  14.877
58702W        W23522  31.236  31.016   3.090
58703W        W23523  15.193  20.201   0.291
58704W        W23524  42.145  11.245   4.120
58705W        W23525  17.957  40.774  10.684
58706W        W23526  32.591  38.104  13.057
58707W        W23527  40.241  34.532  13.091
58708W        W23528   2.282   3.143  12.371
58709W        W23529  18.092   9.456   5.681
58710W        W23530  26.496  41.381  11.196
58711W        W23531  19.740  25.969  10.689
58712W        W23532  40.640  16.798  10.849
58713W        W23533  29.425  26.390   0.345
58714W        W23534  16.316  15.839  12.883
58715W        W23535  14.388  34.359   1.909
58716W        W23536  21.468  23.076   1.109
58717W        W23537  12.567  10.017  12.665
58718W        W23538   1.741  18.125   3.727
58719W        W23539  38.488  10.335  14.514
58720W        W23540   4.221  21.028   4.144
58721W        W23541  43.440  20.443   1.780
58722W        W23542  17.049  36.974  13.870
58723W        W23543  13.170  37.410   0.041
58724W        W23544  44.297  11.218   3.738
58725W        W23545  26.262  33.801   5.460
58726W        W23546  38.101  39.143  10.610
58727W        W23547  39.757  13.324   2.266
58728W        W23548  23.524  11.037  14.814
58729W        W23549  14.272   7.156   1.073
58730W        W23550  21.006   9.840   0.495
58731W        W23551  35.133  13.082   3.060
58732W        W23552  21.596  21.066   4.781
58733W        W23553  15.348   4.182  14.846
58734W        W23554   5.250  36.957  13.815
58735W        W23555  27.026  13.649  13.436
58736W        W23556  19.185  15.180  12.105
58737W        W23557  13.514   0.827   0.723
58738W        W23558  21.765   3.907  14.493
58739W        W23559   7.417   5.656   0.020
58740W        W23560  40.264  16.490   2.779
58741W        W23561  12.702  26.380  13.122
58742W        W23562  19.799  30.137   2.046
58743W        W23563  37.867  36.583  12.563
58744W        W23564  38.018  39.780  12.177
58745W        W23565   9.836  20.565  14.942
58746W        W23566  44.771   8.842   3.853
58747W        W23567  39.385   6.337   2.775
58748W        W23568   2.244  31.143  12.321
58749W        W23569  28.640  44.842   5.002
58750W        W23570  29.077  43.198   5.040
58751W        W23571  12.773   8.124  13.009
58752W        W23572  25.620   5.886   4.811
58753W        W23573  40.462   0.996  14.434
58754W        W23574  39.850  27.772   3.547
58755W        W23575  35.177  32.918   1.030
58756W        W23576   4.898  32.408   3.538
58757W        W23577  14.165  10.739  14.959
58758W        W23578  15.319   8.829   2.705
58759W        W23579   6.249  40.932   3.088
58760W        W23580  18.005  38.893  14.960
58761W        W23581   8.138  13.205   0.174
58762W        W23582  25.435   1.370   4.181
58763W        W23583  15.200  38.804   2.724
58764W        W23584  42.558   7.830   4.079
58765W        W23585  23.042  30.703  10.690
58766W        W23586  20.144  28.574  13.922
58767W        W23587  39.440  10.625   0.265
58768W        W23588  38.942  24.230  11.929
58769W        W23589  34.938   5.029   1.679
58770W        W23590  27.048   9.735   2.340
58771W        W23591  11.866  19.775  13.621
58772W        W23592   6.292  10.993  12.905
58773W        W23593  39.984  17.633   1.653
58774W        W23594  11.012  30.252  13.473
58775W        W23595   6.875   1.770   1.440
58776W        W23596  10.668  22.475   4.190
58777W        W23597  12.771  39.413   3.976
58778W        W23598  40.308  39.889   1.893
58779W        W23599  36.141  39.173   2.680
58780W        W23600  31.887  38.413   1.268
58781W        W23601  17.787  44.956   1.270
58782W        W23602  31.956   9.857  13.955
58783W        W23603   9.364  34.249  11.071
58784W        W23604  33.175   3.608  14.797
58785W        W23605  29.915  41.254  12.021
58786W        W23606  22.203   8.777  14.890
58787W        W23607  15.081  39.017  14.505
58788W        W23608  12.140  21.020   2.920
58789W        W23609  23.668  10.465  12.856
58790W        W23610  18.797  43.525  12.301
58791W        W23611  15.152  25.992   4.155
58792W        W23612  29.508  23.624  14.012
58793W        W23613  16.283  32.199  10.572
58794W        W23614  40.475   7.696  13.411
58795W        W23615  31.894  15.146   3.700
58796W        W23616  14.084  17.619   1.798
58797W        W23617  15.829  38.919  13.435
58798W        W23618   7.097  39.957   3.972
58799W        W23619  15.130  22.292   0.383
58800W        W23620  37.587  34.044   1.138
58801W        W23621  20.328  37.089   9.968
58802W        W23622   0.429  23.318  13.296
58803W        W23623  15.671   6.774  11.940
58804W        W23624  29.118  43.969   2.995
58805W        W23625  28.525  43.730  12.920
58806W        W23626  35.598  25.034  14.008
58807W        W23627   6.237  16.637   3.702
58808W        W23628  30.662  41.877   0.302
58809W        W23629  40.172  18.655  13.776
58810W        W23630  32.642  37.929   1.237
58811W        W23631  21.158  35.532  11.841
58812W        W23632  13.154   4.387   0.362
58813W        W23633  19.112  13.630   4.467
58814W        W23634   1.245  39.324   1.145
58815W        W23635  12.145   8.083  14.434
58816W        W23636  40.943  18.250  14.781
58817W        W23637   0.539  27.991  13.314
58818W        W23638   2.357  15.654  10.430
58819W        W23639  26.393  35.447   0.476
58820W        W23640   3.366  20.581  12.447
58821W        W23641  33.130  18.329  13.567
58822W        W23642  44.084  34.841  14.148
58823W        W23643  40.077  10.802   2.501
58824W        W23644  17.881   2.976  13.996
58825W        W23645  17.199  40.525  12.107
58826W        W23646   3.914  18.722  14.543
58827W        W23647  38.524  30.456   0.246
58828W        W23648  38.387  42.028   0.442
58829W        W23649  39.696  28.664   2.689
58830W        W23650  15.050   4.131  14.406
58831W        W23651   9.328  21.751  11.360
58832W        W23652  36.291  24.233  11.153
58833W        W23653  10.815   1.201  10.768
58834W        W23654  38.981  18.012   1.869
58835W        W23655  22.754  19.979  11.563
58836W        W23656  25.998  25.747  13.293
58837W        W23657  25.256  26.135  13.624
58838W        W23658  44.440  22.528  13.087
58839W        W23659  44.371  14.848   1.866
58840W        W23660  35.141   6.581  12.993
58841W        W23661   0.987  12.644   2.386
58842W        W23662  10.762  14.390  13.879
58843W        W23663   5.399  28.927  14.025
58844W        W23664   5.384  24.501  13.895
58845W        W23665  26.575  42.690   4.163
58846W        W23666   4.417  40.609  11.977
58847W        W23667  23.199  32.572   3.576
58848W        W23668  17.173  35.008  13.767
58849W        W23669   1.435  24.378  11.873
58850W        W23670  38.607  43.502   4.487
58851W        W23671  21.826  19.851   4.119
58852W        W23672  10.551  32.087  11.236
58853W        W23673   1.021   1.994   4.315
58854W        W23674  14.185  32.518  14.002
58855W        W23675  15.112  43.751   2.182
58856W        W23676  39.336   5.722   3.756
58857W        W23677   3.682  10.777   3.858
58858W        W23678  15.576  12.737   1.704
58859W        W23679  18.566   7.648   0.938
58860W        W23680  13.320  30.184  12.171
58861W        W23681  44.140  35.469   4.499
58862W        W23682   6.630  16.076   2.871
58863W        W23683  32.890  40.091  12.367
58864W        W23684  37.871  20.752  11.996
58865W        W23685  37.892  35.814  13.851
58866W        W23686  27.551   4.197   4.510
58867W        W23687  41.229  31.955   4.523
58868W        W23688  35.525  42.834   4.014
58869W        W23689  28.937  20.330   0.802
58870W        W23690  10.310   1.423  10.702
58871W        W23691  20.850  29.079  11.496
58872W        W23692  40.293  25.241   4.752
58873W        W23693  42.076  27.534   1.398
58874W        W23694   3.158  23.401  11.084
58875W        W23695  13.155  23.204   3.829
58876W        W23696  12.100  41.119  14.671
58877W        W23697  31.900  27.150   3.271
58878W        W23698   8.796  23.217  12.627
58879W        W23699  19.330  15.254  13.522
58880W        W23700   5.887   8.443   0.464
58881W        W23701  22.543   0.009   2.148
58882W        W23702  36.992   0.053  13.441
58883W        W23703  40.509  20.664   1.423
58884W        W23704  19.736  44.276  14.912
58885W        W23705  21.205  20.007  13.493
58886W        W23706  42.737  40.344  13.387
58887W        W23707  39.991  14.822   0.301
58888W        W23708  13.547  13.713  14.784
58889W        W23709  34.622   4.435  11.667
58890W        W23710  15.750  12.299  14.041
58891W        W23711  15.119  26.147  11.085
58892W        W23712   7.539  13.136   4.117
58893W        W23713   2.911  20.865   1.709
58894W        W23714  21.190  18.548   2.310
58895W        W23715  35.444  13.912   0.226
58896W        W23716   7.927  35.372  13.329
58897W        W23717   1.244  31.369  12.442
58898W        W23718   4.161  18.253   4.114
58899W        W23719   9.420  29.308   3.209
58900W        W23720  23.603  36.373   4.190
58901W        W23721  27.691  23.084  10.737
58902W        W23722  28.898  24.057   1.005
58903W        W23723  43.954  43.695   0.881
58904W        W23724   5.239  22.296   4.139
58905W        W23725  29.159  12.506   3.151
58906W        W23726  37.286  18.070  11.890
58907W        W23727  28.794  21.189   9.768
58908W        W23728  43.811   1.572  11.050
58909W        W23729  32.322  44.795   0.060
58910W        W23730   2.934   9.842   1.451
58911W        W23731  34.230  40.185   4.114
58912W        W23732  12.488  24.693   3.216
58913W        W23733  41.964   3.557  13.562
58914W        W23734  25.670  13.070   3.694
58915W        W23735  32.595  31.692  11.131
58916W        W23736  30.873  22.955  10.746
58917W        W23737  31.278  20.563  12.431
58918W        W23738   9.730  27.542  10.738
58919W        W23739  32.500  37.630   2.349
58920W        W23740  41.960  43.270  12.714
58921W        W23741  16.961  32.580   4.577
58922W        W23742  18.792  14.927  14.085
58923W        W23743  10.538  28.669  12.958
58924W        W23744  43.728  10.245   3.139
58925W        W23745  34.417   6.710   1.406
58926W        W23746  20.811  44.120   4.879
58927W        W23747  30.039  19.869   1.438
58928W        W23748  30.072  39.419  14.331
58929W        W23749  40.513  23.107  13.418
58930W        W23750  27.522   9.773   2.113
58931W        W23751  10.379  31.306   0.279
58932W        W23752  44.562  42.302  11.149
58933W        W23753  36.976  21.534  11.580
58934W        W23754  24.632  41.647   3.177
58935W        W23755  16.035  22.523   3.662
58936W        W23756  29.819  31.296   0.888
58937W        W23757   4.880  24.932   0.705
58938W        W23758   0.652  35.961   2.717
58939W        W23759  34.955  38.453   2.898
58940W        W23760   5.239  30.631  13.170
58941W        W23761  29.575  22.660   3.750
58942W        W23762  36.372  18.120  12.955
58943W        W23763  24.744  19.246  12.039
58944W        W23764  32.923  33.361   3.218
58945W        W23765  41.461  22.220  12.076
58946W        W23766  19.148  15.099   0.301
58947W        W23767  24.644   7.927   2.847
58948W        W23768  42.835   6.689  12.108
58949W        W23769  42.447   8.239   4.422
58950W        W23770   2.976  14.223   1.198
58951W        W23771  23.184   0.904  14.006
58952W        W23772  41.678   5.735   9.882
58953W        W23773  23.510  36.873  11.932
58954W        W23774  32.621  30.929  10.840
58955W        W23775  23.588  30.139  12.684
58956W        W23776  22.479  23.085   1.912
58957W        W23777   2.351  30.162  12.434
58958W        W23778  36.068  19.299  14.906
58959W        W23779   9.326  27.403   5.075
58960W        W23780  33.962  31.273  12.676
58961W        W23781  16.242  33.665   0.215
58962W        W23782  29.141  33.496   1.379
58963W        W23783  17.720  26.671   1.868
58964W        W23784  12.853  27.041  13.930
58965W        W23785  29.937   8.745  11.534
58966W        W23786  35.247  29.529  13.524
58967W        W23787  25.105   4.164  10.907
58968W        W23788  17.779  12.849  12.086
58969W        W23789  29.441  25.339   1.232
58970W        W23790   6.590  39.624  11.066
58971W        W23791  16.383  29.627   3.668
58972W        W23792  12.794  29.126  13.234
58973W        W23793  10.834  21.925  11.222
58974W        W23794   2.258   2.220   1.966
58975W        W23795  37.469  39.866   0.379
58976W        W23796   3.975  12.655   4.109
58977W        W23797  12.940  13.223  11.790
58978W        W23798  22.342  22.457   2.219
58979W        W23799  13.091   5.941  13.419
58980W        W23800  20.485  34.978   2.146
58981W        W23801  36.380  14.119  14.788
58982W        W23802  32.039  40.000   2.820
58983W        W23803   3.093  42.944   1.737
58984W        W23804  24.492  37.930  14.450
58985W        W23805  17.889  37.961   4.076
58986W        W23806   1.450  39.975   0.381
58987W        W23807   3.592  41.321  11.084
58988W        W23808  43.708  14.561  10.584
58989W        W23809  42.269  31.651   0.823
58990W        W23810  20.247  28.701  11.862
58991W        W23811  24.784  22.591  10.750
58992W        W23812  28.494  10.664   0.404
58993W        W23813  36.821  12.833   0.425
58994W        W23814  42.968  28.721   0.840
58995W        W23815   9.231  10.086  10.412
58996W        W23816  20.797  10.901   1.431
58997W        W23817  11.639   1.508   1.165
58998W        W23818  22.031  18.624   4.095
58999W        W23819  20.684  23.647   4.326
59000W        W23820  29.985   5.914   1.242
59001W        W23821  27.199  38.022   2.661
59002W        W23822   9.956  13.071   1.791
59003W        W23823  26.019  18.368   1.399
59004W        W23824  25.985  39.097   0.495
59005W        W23825  16.357  26.273  10.768
59006W        W23826  26.054   9.208  11.857
59007W        W23827  43.830  18.978  12.744
59008W        W23828  33.572   5.142  13.340
59009W        W23829  21.786  13.333   0.407
59010W        W23830  22.548  10.969   2.878
59011W        W23831  25.770  17.047  14.244
59012W        W23832  35.916  42.146   1.444
59013W        W23833  15.148   5.436  14.936
59014W        W23834  34.418   6.004  12.632
59015W        W23835   1.947  35.972  11.633
59016W        W23836  44.477   2.126  14.792
59017W        W23837   6.349   0.568  11.583
59018W        W23838  10.073  30.687   0.976
59019W        W23839  27.155  14.653  14.931
59020W        W23840  44.051   7.921  11.938
59021W        W23841  27.954  40.813  10.707
59022W        W23842  15.047  20.494   2.198
59023W        W23843  43.399  31.903   3.698
59024W        W23844  18.061   0.860  13.020
59025W        W23845  18.827  19.251   2.198
59026W        W23846  23.569  26.987   2.926
59027W        W23847   0.959  24.238   3.657
59028W        W23848  42.802   2.832  13.557
59029W        W23849  21.455   9.876  11.637
59030W        W23850   0.420  37.405   3.234
59031W        W23851  17.823  19.041  11.119
59032W        W23852  11.249  12.348   0.863
59033W        W23853  10.705   3.964  11.195
59034W        W23854  37.584  37.930  14.510
59035W        W23855  38.147  27.009   4.632
59036W        W23856  15.558  33.060  10.202
59037W        W23857  28.548  21.202   1.738
59038W        W23858  15.184  42.781  13.530
59039W        W23859  18.283  32.529  14.887
59040W        W23860  34.611  22.114   2.716
59041W        W23861  24.908   4.289  14.080
59042W        W23862  23.720  37.149  11.553
59043W        W23863  10.717  28.015  14.797
59044W        W23864  22.527  41.242   4.159
59045W        W23865  29.603  13.837  14.655
59046W        W23866   6.336   8.014  12.029
59047W        W23867  17.637  25.450   0.388
59048W        W23868   4.104  43.238   2.357
59049W        W23869  11.325  26.065   2.215
59050W        W23870   0.977  27.437   3.088
59051W        W23871  38.637  40.920  13.062
59052W        W23872   1.335  40.296   1.320
59053W        W23873  35.133  31.609   1.476
59054W        W23874  26.943  34.942  13.969
59055W        W23875   7.877  35.481   2.505
59056W        W23876   6.645  37.855   0.721
59057W        W23877  24.075  10.786   9.735
59058W        W23878  44.905  15.885  11.477
59059W        W23879  11.221   3.691   3.178
59060W        W23880   4.985   1.975   2.877
59061W        W23881  43.635  33.207  14.094
59062W        W23882  13.763  28.914   1.304
59063W        W23883  40.296  17.236  12.484
59064W        W23884  29.932  23.997  13.836
59065W        W23885  25.746  15.614   1.056
59066W        W23886  15.797  40.244  13.169
59067W        W23887   1.412  38.336  13.077
59068W        W23888   8.693   8.862  13.848
59069W        W23889   8.406  23.618  11.319
59070W        W23890  25.578  26.190   0.465
59071W        W23891  31.980  41.056  10.418
59072W        W23892   6.827  33.035   0.985
59073W        W23893  42.938   8.745   1.326
59074W        W23894  30.959  10.335  14.341
59075W        W23895  17.057  36.924   0.213
59076W        W23896  20.565  30.996  11.389
59077W        W23897   3.208   6.227  10.658
59078W        W23898  26.276   9.625  12.057
59079W        W23899  24.242   2.416  12.023
59080W        W23900  43.282  34.595   4.553
59081W        W23901  41.903   4.306   1.941
59082W        W23902  24.618  26.012   3.880
59083W        W23903  41.342  16.744   3.134
59084W        W23904  11.254  41.527  11.527
59085W        W23905  18.617  39.912  13.954
59086W        W23906  10.861  17.137   0.799
59087W        W23907  44.507  16.226   3.098
59088W        W23908  30.390  10.656  13.386
59089W        W23909  21.837   6.959   1.962
59090W        W23910  35.382  39.770  13.940
59091W        W23911  30.038  37.778   0.411
59092W        W23912  25.098  15.849  11.602
59093W        W23913  27.107   6.023   2.830
59094W        W23914  26.085  29.501  11.662
59095W        W23915  34.510  36.285  13.548
59096W        W23916  19.379  33.274   2.924
59097W        W23917   0.081  28.362   1.902
59098W        W23918   0.027  26.889   0.822
59099W        W23919  40.041   7.595   2.690
59100W        W23920  36.448  29.878  11.204
59101W        W23921  23.373  23.912  11.096
59102W        W23922  43.743  19.092  13.268
59103W        W23923  42.385   2.545  11.107
59104W        W23924  20.273  30.644   0.684
59105W        W23925  16.159   6.652  12.020
59106W        W23926  26.689   7.641  12.853
59107W        W23927   0.446   0.282   2.315
59108W        W23928  28.506  22.962  13.740
59109W        W23929  27.205  43.570   4.759
59110W        W23930  30.519  26.457   0.850
59111W        W23931  16.254  37.847  13.333
59112W        W23932  32.044  30.492   3.351
59113W        W23933  17.768  44.321  13.403
59114W        W23934   9.222  19.972  13.871
59115W        W23935  44.228  17.020  10.305
59116W        W23936  42.038  10.190  11.122
59117W        W23937   9.472   4.012  11.503
59118W        W23938   1.040  15.604   3.756
59119W        W23939  24.639  33.965   2.249
59120W        W23940  17.042  26.026   4.198
59121W        W23941  38.770  25.360   1.820
59122W        W23942  35.168  44.768  14.094
59123W        W23943  22.790  35.448  10.690
59124W        W23944  24.492   6.250  11.434
59125W        W23945  12.509  37.689   4.346
59126W        W23946   1.487  29.842  12.476
59127W        W23947  14.560   9.900   0.959
59128W        W23948  15.111  10.279  14.762
59129W        W23949  27.109  42.936  12.395
59130W        W23950  11.588  22.647  14.476
59131W        W23951   7.635   8.648   4.426
59132W        W23952  25.453   7.229  13.587
59133W        W23953  19.834  10.803   4.618
59134W        W23954  32.639   1.425   2.820
59135W        W23955  18.867  32.957  10.315
59136W        W23956   9.472  41.431  13.147
59137W        W23957  24.178  39.381   0.285
59138W        W23958  17.860  31.383   0.576
59139W        W23959  35.449  15.366  13.489
59140W        W23960  19.326   0.153   3.868
59141W        W23961   6.619  12.214  14.440
59142W        W23962  26.277  26.484   5.271
59143W        W23963  33.032  34.046  12.028
59144W        W23964   7.206   5.327  14.304
59145W        W23965  40.346   3.885  11.631
59146W        W23966   9.709  37.383   2.793
59147W        W23967  39.576  23.360  13.510
59148W        W23968   1.876  14.242   0.221
59149W        W23969  40.818  23.936  10.532
59150W        W23970  34.891  43.477   4.403
59151W        W23971   8.047  17.278   0.523
59152W        W23972  27.669  16.375   1.326
59153W        W23973   4.158   2.416  12.029
59154W        W23974   7.911  28.488   1.749
59155W        W23975  39.109  35.808  10.753
59156W        W23976  10.560  27.962  13.936
59157W        W23977  13.933  44.983  10.745
59158W        W23978  12.790  22.239   2.831
59159W        W23979  36.683  20.404  11.156
59160W        W23980  40.932  14.149  10.753
59161W        W23981  34.863   9.761  10.704
59162W        W23982  21.593  18.887   4.213
59163W        W23983  14.086  32.845  14.954
59164W        W23984  37.777  12.662  10.203
59165W        W23985  38.362  40.292   3.743
59166W        W23986  26.434  41.907   4.751
59167W        W23987  37.996  16.784  14.452
59168W        W23988  32.475  29.230   0.835
59169W        W23989  37.628  14.827  11.460
59170W        W23990  12.424   5.807   4.073
59171W        W23991  34.429  37.140  14.417
59172W        W23992  15.298  30.844  11.946
59173W        W23993  10.785  33.536  13.837
59174W        W23994  36.409   7.314   1.936
59175W        W23995  35.957   4.491   1.503
59176W        W23996  40.320  42.136   0.285
59177W        W23997  44.534   6.786  12.570
59178W        W23998  44.338  32.381   2.712
59179W        W23999   2.815  28.873  11.194
59180W        W24000  35.569   9.171   1.862
59181W        W24001  34.164   2.816  12.778
59182W        W24002  42.880  28.071  11.233
59183W        W24003  35.445  32.060   2.577
59184W        W24004  28.105  40.448  13.321
59185W        W24005  22.556  10.756   1.506
59186W        W24006  28.103  31.029   0.611
59187W        W24007   7.262  29.686   1.388
59188W        W24008  31.956  16.068   5.393
59189W        W24009   2.589  26.993   4.743
59190W        W24010  13.450  28.093   3.730
59191W        W24011  26.789  32.872  12.944
59192W        W24012  40.303  36.592  11.419
59193W        W24013  18.342  28.264   0.443
59194W        W24014  15.150  37.634  14.808
59195W        W24015  41.380   1.237   1.234
59196W        W24016  13.223  29.700  14.947
59197W        W24017  33.958  25.761   0.448
59198W        W24018   7.260  15.125  12.548
59199W        W24019  43.725   0.349  11.648
59200W        W24020  43.913  25.672  10.425
59201W        W24021  20.288   8.238  14.400
59202W        W24022   7.284  13.359   4.565
59203W        W24023  37.322  22.298  14.951
59204W        W24024  32.903  20.453   1.931
59205W        W24025  40.978   1.199   0.376
59206W        W24026   5.144  41.765  11.220
59207W        W24027  32.019  14.992   4.714
59208W        W24028  19.128  36.065  14.942
59209W        W24029  41.304  38.574   0.726
59210W        W24030  32.413  17.696   1.166
59211W        W24031  10.867   4.725  13.039
59212W        W24032  14.106  22.126   2.364
59213W        W24033  11.712   7.236  14.206
59214W        W24034  19.614  12.923  14.385
59215W        W24035  36.816   1.337   3.195
59216W        W24036  20.914   6.961  14.884
59217W        W24037  17.447  41.344   4.700
59218W        W24038   0.959  11.248  12.523
59219W        W24039  22.725  14.241   4.727
59220W        W24040  44.193  26.623  12.959
59221W        W24041  43.455  26.212  13.468
59222W        W24042   2.927  15.640   1.797
59223W        W24043   5.272  23.051   1.323
59224W        W24044  12.632  30.953  12.473
59225W        W24045  42.602   6.269  11.138
59226W        W24046   6.191  13.020  12.462
59227W        W24047  19.681  25.568   1.432
59228W        W24048  44.974   5.373  14.264
59229W        W24049  42.358  31.957  12.916
59230W        W24050  15.581  38.439  13.500
59231W        W24051  19.142  17.020   3.306
59232W        W24052  20.163  42.985  13.065
59233W        W24053   0.394  16.660   2.823
59234W        W24054  13.734   9.962  14.019
59235W        W24055  36.099  14.206   1.893
59236W        W24056  26.997  14.794  12.587
59237W        W24057  20.667  37.741  11.133
59238W        W24058  31.519  26.810   2.627
59239W        W24059  34.978  39.873  12.971
59240W        W24060  39.985  27.666  12.649
59241W        W24061  44.021  36.439  14.886
59242W        W24062  33.597  18.477   4.183
59243W        W24063   2.159  10.701   0.235
59244W        W24064  26.362  19.316  11.989
59245W        W24065  28.895  34.813  14.940
59246W        W24066   3.502  44.973  11.925
59247W        W24067  41.420  22.481  13.534
59248W        W24068  21.254  37.021   4.221
59249W        W24069  10.090  25.710   3.680
59250W        W24070  35.113  44.063  11.870
59251W        W24071  29.526  18.725   1.866
59252W        W24072  17.170  32.846  11.556
59253W        W24073  15.235  39.198  11.355
59254W        W24074  21.076  38.848  14.028
59255W        W24075  39.951  30.518  14.668
59256W        W24076   4.854  44.686  10.671
59257W        W24077  14.976  19.213  14.052
59258W        W24078  34.653  16.731  14.809
59259W        W24079  24.056  25.654  13.787
59260W        W24080  36.870  43.292  12.843
59261W        W24081  38.031  25.687  13.971
59262W        W24082  35.447  31.032  13.622
59263W        W24083  15.776  42.237   0.315
59264W        W24084  17.261  28.043   0.898
59265W        W24085   0.811   0.976  14.293
59266W        W24086  32.577  15.463   5.442
59267W        W24087  29.890  40.344   2.337
59268W        W24088  27.375  28.472  12.821
59269W        W24089   4.034  36.288   4.478
59270W        W24090  23.524   8.572   4.108
59271W        W24091  11.708  18.048  11.238
59272W        W24092   0.480  30.113  12.425
59273W        W24093  12.665   0.465  11.578
59274W        W24094  44.354   6.157  11.102
59275W        W24095   9.262  15.050   3.357
59276W        W24096  16.208  25.165   1.246
59277W        W24097  14.866  28.953   3.140
59278W        W24098  18.140  26.553   4.007
59279W        W24099   9.203  25.161   0.923
59280W        W24100  22.191  38.931  13.037
59281W        W24101  37.331  14.762  13.921
59282W        W24102  18.514  11.753  10.931
59283W        W24103   0.238   1.299  12.095
59284W        W24104   5.134  29.503  11.921
59285W        W24105  14.203  41.446  14.560
59286W        W24106  32.873  15.542   2.921
59287W        W24107  28.773  39.029  12.336
59288W        W24108   0.332   7.779   4.592
59289W        W24109  11.352   0.582  13.466
59290W        W24110  42.892  13.238   2.771
59291W        W24111  10.221  28.500   2.147
59292W        W24112  22.045  23.063  12.897
59293W        W24113  35.471   3.810   1.898
59294W        W24114  33.906  21.202  14.050
59295W        W24115  19.638  16.201   4.508
59296W        W24116   3.420  35.663   1.852
59297W        W24117   1.522  17.165  14.851
59298W        W24118   2.207   1.493   2.452
59299W        W24119   9.443  43.599  11.838
59300W        W24120  13.619  24.274   3.988
59301W        W24121  15.816  29.222   0.175
59302W        W24122  35.693  12.817  12.489
59303W        W24123  22.555  16.761  10.581
59304W        W24124   2.149   3.180   2.250
59305W        W24125  32.730  31.594  14.955
59306W        W24126  22.857   0.821  13.101
59307W        W24127  31.869  15.624  14.864
59308W        W24128  30.138   5.658   3.267
59309W        W24129  42.120   6.733   3.601
59310W        W24130  22.635  17.133   0.714
59311W        W24131   8.760  34.103  12.680
59312W        W24132  36.956  31.795  14.894
59313W        W24133   5.475   4.858   0.764
59314W        W24134  22.470  20.385   5.298
59315W        W24135  39.901  44.836   2.407
59316W        W24136  10.904  29.430   0.796
59317W        W24137  12.745  21.282  10.429
59318W        W24138  16.183  33.591  10.566
59319W        W24139  27.265  33.360   4.387
59320W        W24140  39.806  41.766  10.692
59321W        W24141  10.864  19.691   2.644
59322W        W24142  14.793  40.570   0.778
59323W        W24143   7.428  20.335  11.841
59324W        W24144  23.606  39.028  13.400
59325W        W24145  34.133   0.681  13.259
59326W        W24146  24.096   9.896  11.477
59327W        W24147  41.475   3.675  12.536
59328W        W24148  33.599  21.231  13.430
59329W        W24149  22.897  23.995  11.225
59330W        W24150  21.718  16.414  14.231
59331W        W24151   2.798  20.766   4.563
59332W        W24152  39.828   4.624   4.606
59333W        W24153   5.502  10.247   1.655
59334W        W24154  13.200  27.628   1.161
59335W        W24155  12.893  24.030  10.558
59336W        W24156  21.122  19.113   1.821
59337W        W24157  38.926  17.552  10.410
59338W        W24158  26.155   5.714   3.943
59339W        W24159  27.686  33.345   4.078
59340W        W24160  18.979   5.416   1.140
59341W        W24161   6.077  27.645  13.451
59342W        W24162  44.441  36.648   2.182
59343W        W24163  36.729  15.106   0.015
59344W        W24164  20.153  17.009  12.398
59345W        W24165  42.214  44.825  10.947
59346W        W24166  40.827  36.452   4.636
59347W        W24167  17.225  21.979  10.224
59348W        W24168  32.529  30.555   1.091
59349W        W24169  26.439  33.435   1.691
59350W        W24170  32.264  39.372  13.588
59351W        W24171  25.365  43.500  14.831
59352W        W24172  26.558  38.820  11.686
59353W        W24173  10.386  39.353  14.736
59354W        W24174  31.086   6.539   2.718
59355W        W24175  11.428  40.821   4.268
59356W        W24176  13.165  32.127  12.332
59357W        W24177  44.850  38.062  11.668
59358W        W24178  10.073  24.254  14.969
59359W        W24179  43.848  41.909   1.160
59360W        W24180  37.937   2.496   0.367
59361W        W24181  29.510  22.143   0.963
59362W        W24182  39.653  38.740  13.578
59363W        W24183  36.556  44.509   1.206
59364W        W24184  40.418  33.462   3.485
59365W        W24185  17.122  13.399  12.051
59366W        W24186  19.134  29.661   2.648
59367W        W24187   2.029  34.503  13.115
59368W        W24188  33.627  20.109   0.952
59369W        W24189  36.219  30.463   4.085
59370W        W24190   9.017  14.496   0.345
59371W        W24191  31.485  38.490   3.510
59372W        W24192  20.867  34.397  14.199
59373W        W24193   7.112  10.869   0.353
59374W        W24194  28.917  19.628  12.329
59375W        W24195  29.614  25.676  12.918
59376W        W24196  28.888   0.510   3.340
59377W        W24197  19.008  15.683  12.114
59378W        W24198  24.964  35.682   0.732
59379W        W24199   1.439  19.544  11.982
59380W        W24200  41.712  20.505  12.293
59381W        W24201  40.788  38.564  12.034
59382W        W24202  32.596   7.242  14.455
59383W        W24203  27.656  27.618  11.919
59384W        W24204  28.179  19.207   0.939
59385W        W24205  28.995  34.145   4.134
59386W        W24206  22.601   0.027   1.194
59387W        W24207   8.047  28.964  13.765
59388W        W24208  14.334   5.925  13.812
59389W        W24209   8.125  43.775   2.330
59390W        W24210  26.566   9.025  10.094
59391W        W24211   2.687  29.118  11.997
59392W        W24212   5.803  29.490   4.412
59393W        W24213  22.215  34.467  14.338
59394W        W24214  35.936   3.694  11.049
59395W        W24215  11.831  42.513  12.912
59396W        W24216  38.880  12.396  11.979
59397W        W24217  32.092  34.585  12.533
59398W        W24218  15.343  41.421   0.503
59399W        W24219  37.385  24.526  14.865
59400W        W24220  20.723   6.730  10.608
59401W        W24221  38.404  19.272  14.744
59402W        W24222   6.326   4.459  11.813
59403W        W24223   4.089  26.921  10.725
59404W        W24224  21.749  27.524  14.883
59405W        W24225  10.783  36.367  11.608
59406W        W24226   6.439  23.046  14.433
59407W        W24227   9.180  16.436   9.642
59408W        W24228  32.273   1.149   4.099
59409W        W24229  33.474   3.617  12.207
59410W        W24230  29.650   8.723   3.728
59411W        W24231  36.049  44.211   0.954
59412W        W24232  15.486  15.266   4.165
59413W        W24233  37.992  28.719   3.837
59414W        W24234  40.018  32.235  12.473
59415W        W24235  17.466   4.008   4.360
59416W        W24236   4.896  37.422   0.018
59417W        W24237  32.454  30.585  12.572
59418W        W24238   4.527   3.301   4.673
59419W        W24239  13.186  28.970   2.150
59420W        W24240  40.482  35.522  10.688
59421W        W24241  39.017  34.577  14.964
59422W        W24242  21.971  15.627   4.068
59423W        W24243  44.439  35.751   4.149
59424W        W24244   6.814  29.988   1.393
59425W        W24245  11.470   2.019  11.107
59426W        W24246  37.939   2.738  13.984
59427W        W24247  15.322  14.605   3.179
59428W        W24248   3.854   6.706   2.797
59429W        W24249  41.287  33.999  10.750
59430W        W24250  18.264  33.658  10.253
59431W        W24251  23.255  24.088   0.183
59432W        W24252  16.489  38.499  11.480
59433W        W24253  18.327   4.294  10.327
59434W        W24254   0.432  27.427  11.564
59435W        W24255  24.082  12.388   3.861
59436W        W24256  33.156  38.031   1.437
59437W        W24257  17.812  39.897   2.722
59438W        W24258  15.779  23.279   2.832
59439W        W24259  23.580  33.847  12.891
59440W        W24260   5.264  21.022  13.361
59441W        W24261  11.883  31.431  13.384
59442W        W24262  33.258  19.183  13.733
59443W        W24263   8.648  13.466  11.247
59444W        W24264  43.731  23.227   4.103
59445W        W24265   4.341  12.792  11.979
59446W        W24266  43.809  41.801  12.816
59447W        W24267  25.020  37.807   4.152
59448W        W24268  24.969  23.396  11.303
59449W        W24269  13.674  18.625  14.450
59450W        W24270  18.951  20.050   4.708
59451W        W24271  15.883  22.182   0.760
59452W        W24272  21.710  29.016  11.219
59453W        W24273   4.376  20.659  14.348
59454W        W24274  15.327  42.792  14.789
59455W        W24275  36.954  25.877  14.387
59456W        W24276  34.861  10.790   3.813
59457W        W24277   3.351  27.024   1.468
59458W        W24278  16.642   7.635  12.501
59459W        W24279  17.177  13.427  11.060
59460W        W24280  23.916  15.599   2.769
59461W        W24281  40.857  22.025   3.881
59462W        W24282  41.316  13.152  14.857
59463W        W24283   9.113   9.796   1.991
59464W        W24284  43.998  34.520  12.512
59465W        W24285  12.935  12.639   3.308
59466W        W24286  30.440  40.670  11.720
59467W        W24287  27.578   7.738   3.728
59468W        W24288  14.592  30.457   9.915
59469W        W24289  25.674  23.467   1.933
59470W        W24290  36.456  13.205   1.591
59471W        W24291  31.045  33.169  12.533
59472W        W24292  29.514  19.923   4.584
59473W        W24293  43.941  30.176   3.835
59474W        W24294  43.559  14.495   0.873
59475W        W24295  14.673  42.868  10.792
59476W        W24296  14.284  35.312  11.432
59477W        W24297  27.207  18.622   4.952
59478W        W24298  33.823  28.942  11.960
59479W        W24299  17.027   2.184   0.456
59480W        W24300   4.795  38.533   1.285
59481W        W24301  36.383  41.786  13.789
59482W        W24302  29.209   8.986  11.619
59483W        W24303   0.590   9.807  14.808
59484W        W24304  18.466   0.845   9.706
59485W        W24305   1.450  21.345  13.872
59486W        W24306  10.313   6.518   0.762
59487W        W24307  34.749  40.273   2.661
59488W        W24308  19.232   3.997  14.309
59489W        W24309   9.324  42.582  11.505
59490W        W24310   4.052  44.428  13.560
59491W        W24311  19.987   6.341   0.961
59492W        W24312  35.563  12.530   2.844
59493W        W24313  13.742  19.500   1.407
59494W        W24314   4.707  23.743   1.800
59495W        W24315  22.013   0.867   0.955
59496W        W24316  11.160  32.891  14.994
59497W        W24317  26.647  14.735   4.542
59498W        W24318  16.341  29.703   1.783
59499W        W24319  38.406  30.901   1.779
59500W        W24320  32.638  28.503  10.234
59501W        W24321  26.159  38.258   2.145
59502W        W24322   6.666  27.065  10.252
59503W        W24323  37.246  34.024  14.576
59504W        W24324  24.754  11.373  13.488
59505W        W24325   2.525   1.602  13.862
59506W        W24326  18.019  26.202   4.881
59507W        W24327   6.952   1.218   0.860
59508W        W24328  26.271  40.949   3.215
59509W        W24329   0.849  41.143  14.950
59510W        W24330  42.094   4.922  13.908
59511W        W24331  14.151  35.390  13.866
59512W        W24332  14.791  29.641  11.903
59513W        W24333  13.101   4.504  11.946
59514W        W24334   2.341  22.682   4.106
59515W        W24335  39.046   0.079  11.371
59516W        W24336  23.935  23.415  12.108
59517W        W24337   9.251   9.651  10.706
59518W        W24338   9.004  32.118   1.678
59519W        W24339  30.222  23.250  14.444
59520W        W24340  14.193  25.558  13.801
59521W        W24341  39.368  16.576  13.055
59522W        W24342  28.641  34.611   1.626
59523W        W24343  24.360  16.114  13.320
59524W        W24344   8.446  14.839  12.846
59525W        W24345  25.866  39.381   2.803
59526W        W24346  10.365  35.449  12.363
59527W        W24347   3.323  22.717   2.707
59528W        W24348  19.029  39.344  13.427
59529W        W24349  15.105  32.417   1.145
59530W        W24350  12.711  18.463   2.420
59531W        W24351  10.057  28.587   2.654
59532W        W24352  39.582  23.701   4.163
59533W        W24353  13.248  13.233   4.135
59534W        W24354  38.574  41.975   4.577
59535W        W24355  22.668   0.354   1.659
59536W        W24356  37.466   2.757   0.318
59537W        W24357   2.915  17.486  12.781
59538W        W24358   5.617   8.825  13.924
59539W        W24359  44.025   0.587  12.046
59540W        W24360  31.143  22.104  12.489
59541W        W24361  38.351  41.754   3.283
59542W        W24362  37.969  18.706   2.132
59543W        W24363  33.145   8.794   4.141
59544W        W24364  12.528   7.662   4.170
59545W        W24365   6.732  43.212  12.376
59546W        W24366  39.781  17.086   0.981
59547W        W24367  37.351  13.842   3.256
59548W        W24368  22.349  25.647   0.151
59549W        W24369  28.649  36.330  10.765
59550W        W24370  26.484  16.632   2.374
59551W        W24371   6.008  34.831   4.568
59552W        W24372   3.181   3.061   0.269
59553W        W24373  41.506  15.226  14.480
59554W        W24374  11.343   9.731  13.595
59555W        W24375  40.820  11.700  13.395
59556W        W24376  39.696  16.705   1.930
59557W        W24377   6.987  37.769   2.670
59558W        W24378  21.588  37.888  13.737
59559W        W24379   9.180  28.338   1.464
59560W        W24380  31.911  33.708   0.960
59561W        W24381  37.068  29.881  11.590
59562W        W24382   5.405  18.139  12.701
59563W        W24383  34.817  23.592  13.142
59564W        W24384  31.653  44.138  13.715
59565W        W24385   6.167   0.773   0.843
59566W        W24386   7.478  29.183  11.541
59567W        W24387  37.440   1.506  12.417
59568W        W24388  17.849  44.822  14.893
59569W        W24389  26.697  13.307   0.773
59570W        W24390  18.532   5.518   4.475
59571W        W24391  42.517   9.658  11.123
59572W        W24392  26.031  36.458   4.541
59573W        W24393  17.272  11.742  11.661
59574W        W24394  31.472  38.724  13.074
59575W        W24395  16.544  42.892  14.506
59576W        W24396   6.774  41.082  13.813
59577W        W24397  10.790  31.487  13.933
59578W        W24398   4.337  10.122  11.035
59579W        W24399  19.112  26.233   1.358
59580W        W24400   7.496   8.143   4.504
59581W        W24401  15.158  14.776   1.189
59582W        W24402  13.411  19.218  11.419
59583W        W24403   1.651  19.335  13.940
59584W        W24404  12.371  34.416  12.092
59585W        W24405  19.695  32.182   4.593
59586W        W24406  12.639  27.479  11.921
59587W        W24407   2.265  40.088  10.833
59588W        W24408  11.548  29.205   0.864
59589W        W24409  40.443  25.799   1.134
59590W        W24410  42.353  13.711   0.429
59591W        W24411  16.170   3.764   0.765
59592W        W24412  40.494  12.718  14.375
59593W        W24413  10.617  43.533  10.544
59594W        W24414  14.603  38.044  13.528
59595W        W24415   3.784   2.484   2.944
59596W        W24416  10.382  32.291   1.874
59597W        W24417  33.387   8.182  11.626
59598W        W24418  27.495  34.367  14.384
59599W        W24419  32.409  10.842   0.730
59600W        W24420  11.073  41.440   3.047
59601W        W24421  29.629  14.559   1.778
59602W        W24422   8.317  31.652   4.659
59603W        W24423   4.674  14.288   2.941
59604W        W24424  27.521  24.366  13.366
59605W        W24425  39.552  16.209   1.725
59606W        W24426   7.791  13.045   1.001
59607W        W24427  33.583  31.066   1.679
59608W        W24428  20.112  28.799  12.953
59609W        W24429  15.948  35.148   3.250
59610W        W24430   8.768  29.908   0.354
59611W        W24431  15.065  30.170   0.919
59612W        W24432   7.419   1.965   0.266
59613W        W24433  37.367   3.931  12.503
59614W        W24434  14.121  17.097   1.794
59615W        W24435   4.686  28.941   1.956
59616W        W24436   4.297  36.852  11.366
59617W        W24437  24.632   4.252  13.620
59618W        W24438  34.481  28.468  12.482
59619W        W24439   8.140  34.831  11.518
59620W        W24440   2.056   0.855  11.637
59621W        W24441  22.082  20.069  12.937
59622W        W24442  20.535   9.117   3.927
59623W        W24443  32.151  38.981  11.503
59624W        W24444   3.668  23.119  12.998
59625W        W24445  27.694   4.622   3.582
59626W        W24446  20.529  20.098   0.667
59627W        W24447   0.902   3.844  14.469
59628W        W24448  22.762  28.274   1.763
59629W        W24449  30.517   7.975   4.061
59630W        W24450  25.442  42.826   3.111
59631W        W24451  36.947  35.536  10.754
59632W        W24452  33.244  21.151  10.332
59633W        W24453  16.982  19.320  14.421
59634W        W24454  31.917  18.161  14.438
59635W        W24455   8.471  11.135   2.455
59636W        W24456  39.335  26.302   2.827
59637W        W24457  13.645  28.020   2.261
59638W        W24458   6.941  27.712   5.013
59639W        W24459  11.053  21.982  14.330
59640W        W24460   9.262  18.300  12.973
59641W        W24461  23.577  27.918   0.793
59642W        W24462  18.666  14.056  10.751
59643W        W24463   3.927   0.764  13.844
59644W        W24464  43.226   8.223   3.377
59645W        W24465  21.011  32.846   0.324
59646W        W24466  30.200   6.204   4.210
59647W        W24467  21.707  19.503  11.962
59648W        W24468  42.165  15.698  14.061
59649W        W24469  29.022   9.636   4.674
59650W        W24470  42.820  14.270  12.334
59651W        W24471  21.627  14.013   2.762
59652W        W24472  17.397  33.537   3.347
59653W        W24473  41.464   0.835   4.230
59654W        W24474  11.845  41.069   2.334
59655W        W24475  36.186   9.170  11.516
59656W        W24476  14.639  21.681  11.459
59657W        W24477  14.737  35.562  12.065
59658W        W24478  35.901  23.776   1.486
59659W        W24479  38.960  44.486  10.552
59660W        W24480   3.265   0.278   0.207
59661W        W24481  28.062  35.854   9.950
59662W        W24482  43.951   9.475   0.531
59663W        W24483   1.274  26.727   2.433
59664W        W24484  23.032  33.424  10.741
59665W        W24485  15.167   8.399  13.068
59666W        W24486  23.806   3.988  11.642
59667W        W24487  44.293  20.124   4.149
59668W        W24488  21.213  37.835  10.857
59669W        W24489  33.145  11.470   4.241
59670W        W24490   2.352  18.117  13.589
59671W        W24491  11.415  44.878  13.893
59672W        W24492  14.029  41.910  11.041
59673W        W24493  15.805   2.259  14.686
59674W        W24494  37.645  20.284  14.531
59675W        W24495  10.228  33.188  14.976
59676W        W24496  28.883  27.608  13.866
59677W        W24497  39.044   7.958  12.094
59678W        W24498  28.860  28.442   2.474
59679W        W24499  30.211   0.734  13.338
59680W        W24500  19.557   1.967   2.799
59681W        W24501  43.863  15.079  12.462
59682W        W24502   1.943   9.328  11.244
59683W        W24503  21.474   9.484  14.585
59684W        W24504  23.468  20.067   2.210
59685W        W24505  18.369  43.760   0.062
59686W        W24506  25.831  21.792   3.062
59687W        W24507   9.624  19.746   2.208
59688W        W24508  13.744  44.196  12.119
59689W        W24509  34.605   9.977   5.353
59690W        W24510  43.484  35.799  11.632
59691W        W24511  10.366   4.305  13.894
59692W        W24512  25.611  42.878   4.586
59693W        W24513  38.473  34.345  12.330
59694W        W24514  12.235   7.380   3.845
59695W        W24515  14.430  34.099   2.383
59696W        W24516   4.293   0.018   3.323
59697W        W24517  18.507  16.586   4.194
59698W        W24518  23.544  32.644  11.360
59699W        W24519  27.678   0.720  13.481
59700W        W24520  24.491  29.445   3.835
59701W        W24521  30.493  22.693  13.792
59702W        W24522  41.468  10.902  13.672
59703W        W24523  17.018  25.171  13.529
59704W        W24524   6.121  18.497   5.116
59705W        W24525  19.507  18.579   4.219
59706W        W24526  20.002  36.057  13.283
59707W        W24527  16.170  24.726   3.836
59708W        W24528  32.129  15.716   2.402
59709W        W24529  15.018  14.688  14.892
59710W        W24530  12.081  14.383  13.400
59711W        W24531   1.664   7.708   3.299
59712W        W24532  40.376   2.309   1.513
59713W        W24533  12.129  21.286   4.045
59714W        W24534  36.996   4.045   0.420
59715W        W24535  29.813  23.686   1.424
59716W        W24536  35.433  22.032  14.731
59717W        W24537  44.356  42.002   1.758
59718W        W24538   6.393   7.335  12.183
59719W        W24539  21.182  19.770  13.038
59720W        W24540   1.872  37.950   5.126
59721W        W24541  42.947  22.746  14.382
59722W        W24542  11.422   5.225   2.385
59723W        W24543  25.216  42.097  12.163
59724W        W24544  40.096   4.383  14.238
59725W        W24545  12.065  41.871   0.883
59726W        W24546  12.017  15.314   1.785
59727W        W24547  27.721   6.430   1.932
59728W        W24548  31.726  43.341   4.600
59729W        W24549  44.805  28.583  11.265
59730W        W24550   2.902  30.699  13.377
59731W        W24551  43.981  35.314  14.362
59732W        W24552  20.748   6.815   0.378
59733W        W24553  13.535  38.924  10.819
59734W        W24554  20.084  16.693  11.987
59735W        W24555  16.774   5.311   3.978
59736W        W24556  20.911  41.543   2.618
59737W        W24557  13.882  26.077  13.860
59738W        W24558  33.937   7.909   1.218
59739W        W24559  42.641  18.478   3.050
59740W        W24560  34.080  34.361  14.894
59741W        W24561  16.708  23.285  10.733
59742W        W24562  21.680  12.143  11.211
59743W        W24563  36.845  16.525  10.603
59744W        W24564  42.971  36.516   2.704
59745W        W24565   5.423  37.257  12.057
59746W        W24566  19.809  43.619  12.397
59747W        W24567  17.645   8.203   1.998
59748W        W24568  22.191  13.849  10.728
59749W        W24569  21.216   2.480  12.443
59750W        W24570   2.264  30.709   4.802
59751W        W24571  12.451  22.897  13.117
59752W        W24572   9.678  30.953   2.154
59753W        W24573  13.591  20.144   3.905
59754W        W24574  43.686   0.353  14.033
59755W        W24575  19.487   3.877   2.424
59756W        W24576  28.971  36.983  11.232
59757W        W24577  32.126   3.925   0.382
59758W        W24578  28.342   2.856   3.755
59759W        W24579  28.481  20.553   0.830
59760W        W24580  22.240  23.551   1.018
59761W        W24581   4.559  39.533   1.344
59762W        W24582  38.333  41.540   3.820
59763W        W24583  30.696  36.450   3.120
59764W        W24584  38.323  24.524  12.529
59765W        W24585  10.595  20.088   0.002
59766W        W24586  24.065   5.843  12.991
59767W        W24587  37.878   9.765  13.136
59768W        W24588  24.464   2.420  11.090
59769W        W24589  29.049  14.809   0.204
59770W        W24590  35.106  32.490   4.136
59771W        W24591  42.945  33.604  12.088
59772W        W24592  39.920  14.088  14.906
59773W        W24593  39.478   2.356  10.566
59774W        W24594  21.615  44.747   1.791
59775W        W24595  13.738  23.624   0.468
59776W        W24596  32.019   8.398  11.987
59777W        W24597  18.975   7.283   3.196
59778W        W24598  11.710  24.801   5.056
59779W        W24599  12.562   8.515  11.576
59780W        W24600  17.486  13.494   1.044
59781W        W24601  40.447  37.835   4.266
59782W        W24602   9.702   2.961   0.312
59783W        W24603  10.417  24.790   2.703
59784W        W24604   7.319  13.638   4.130
59785W        W24605  25.236  20.096  12.095
59786W        W24606  18.754  25.666  13.874
59787W        W24607  37.417  22.079   0.430
59788W        W24608  14.685  37.125   9.874
59789W        W24609  12.697   5.195   1.903
59790W        W24610  11.272  38.707   4.056
59791W        W24611  29.484  41.216  14.553
59792W        W24612  10.114  35.878   3.193
59793W        W24613  31.002   0.609   4.152
59794W        W24614  13.241   0.637   3.659
59795W        W24615  25.512  10.342   1.812
59796W        W24616  14.138  11.379   1.144
59797W        W24617  44.542  27.495  10.745
59798W        W24618   4.483  29.479   4.105
59799W        W24619   3.094  37.490   0.202
59800W        W24620  31.377  36.566   0.452
59801W        W24621  31.214  21.549   4.602
59802W        W24622   5.988   6.385   2.841
59803W        W24623  10.164  44.736   3.184
59804W        W24624   8.610  24.312  11.170
59805W        W24625  28.213  38.480   1.818
59806W        W24626  44.766  32.301   3.171
59807W        W24627  17.746  39.105   0.883
59808W        W24628  37.602  11.779   3.710
59809W        W24629   1.709  14.896   2.211
59810W        W24630  14.700  42.304   3.245
59811W        W24631  30.358  10.881  14.744
59812W        W24632   7.180   7.138   0.376
59813W        W24633  38.886  36.461   3.135
59814W        W24634  23.624  10.130  11.480
59815W        W24635  10.393  31.498   3.611
59816W        W24636   1.201  44.401   1.882
59817W        W24637  11.203  10.420  13.073
59818W        W24638  39.925  34.245  13.423
59819W        W24639   2.973  41.936   2.140
59820W        W24640  41.749  12.203  13.815
59821W        W24641  30.114  14.401  11.924
59822W        W24642  10.259   9.703  13.842
59823W        W24643  31.017   4.369   1.464
59824W        W24644  42.442  35.080   4.150
59825W        W24645   9.131  22.783   3.198
59826W        W24646  33.076  42.581  10.960
59827W        W24647  40.798  13.723   3.905
59828W        W24648  15.734   7.135  14.286
59829W        W24649   3.987  10.286   3.522
59830W        W24650  12.331  11.300   2.659
59831W        W24651   4.155  39.038   3.290
59832W        W24652  36.303   3.716   1.837
59833W        W24653  40.759  29.422   0.988
59834W        W24654   4.672  38.880   4.107
59835W        W24655  28.770  14.196   4.635
59836W        W24656  26.450   4.247   1.265
59837W        W24657   6.609  20.542   0.252
59838W        W24658   3.688  17.413  13.882
59839W        W24659   6.834   1.324  11.875
59840W        W24660  11.753  43.011   2.863
59841W        W24661  43.994  31.193   3.579
59842W        W24662  25.317  44.946   0.330
59843W        W24663  43.901  33.202  13.254
59844W        W24664   9.299   8.290   0.480
59845W        W24665   9.837  11.861  14.015
59846W        W24666  40.021  29.064  12.486
59847W        W24667  36.982  14.111   2.315
59848W        W24668  41.101  29.962  11.309
59849W        W24669   2.762  28.515  13.681
59850W        W24670   7.241   2.635  12.160
59851W        W24671  25.799  34.448  14.703
59852W        W24672  37.117  38.523   1.155
59853W        W24673  40.779  40.153   2.456
59854W        W24674  36.495  36.818  11.578
59855W        W24675  31.327  39.384   2.200
59856W        W24676  14.680  23.562  13.813
59857W        W24677  25.686  19.156   0.866
59858W        W24678   5.086  21.796  10.105
59859W        W24679   7.818  41.994   4.259
59860W        W24680  43.571  37.307   2.181
59861W        W24681  31.339  41.906  11.672
59862W        W24682  26.419  22.147   0.165
59863W        W24683  11.690   6.206  10.310
59864W        W24684   8.212   9.815  10.487
59865W        W24685  33.583  14.789   4.252
59866W        W24686  13.085  22.667  11.167
59867W        W24687  11.948  25.945   1.405
59868W        W24688  32.942   8.773   3.643
59869W        W24689  27.868  29.859   1.376
59870W        W24690   0.505  17.536  13.399
59871W        W24691  42.319  16.225   3.714
59872W        W24692   2.733   7.242   1.201
59873W        W24693  21.139  36.842   1.400
59874W        W24694  43.056  27.431  13.987
59875W        W24695  24.757   0.533  11.244
59876W        W24696   6.831  16.151  10.697
59877W        W24697  18.269  35.427  11.347
59878W        W24698  41.261   3.874  13.471
59879W        W24699  32.122  41.985  11.987
59880W        W24700  12.101   3.589   4.677
59881W        W24701  34.909   9.830  11.577
59882W        W24702  20.969  23.188   1.289
59883W        W24703  33.141   1.874  12.134
59884W        W24704   0.141  36.993  12.921
59885W        W24705  11.359  35.514  13.585
59886W        W24706  12.528  21.698  10.686
59887W        W24707  14.564  13.764  14.805
59888W        W24708  15.613  17.591  13.583
59889W        W24709  26.778   2.846  14.849
59890W        W24710  14.111  22.712  12.920
59891W        W24711  34.685  24.319   3.584
59892W        W24712   3.066  15.621  12.982
59893W        W24713  11.156  29.762   3.052
59894W        W24714  34.839  17.239  12.087
59895W        W24715  13.312   9.553   2.539
59896W        W24716   3.625  42.468  12.676
59897W        W24717  41.265  39.306  13.811
59898W        W24718   2.078  33.787  12.089
59899W        W24719  30.128   6.648   3.955
59900W        W24720   5.933  28.416   0.655
59901W        W24721  31.490  26.976   4.054
59902W        W24722   9.921  14.498  11.953
59903W        W24723  25.933  22.138   2.400
59904W        W24724  41.960  21.976   2.174
59905W        W24725  43.594  42.315  12.870
59906W        W24726  35.436  41.959   3.691
59907W        W24727   4.961   3.403  12.429
59908W        W24728   8.352  39.232  12.668
59909W        W24729  35.560  37.067   3.875
59910W        W24730  10.813  16.785  13.149
59911W        W24731  15.187  11.624   1.457
59912W        W24732  17.692  30.094  14.311
59913W        W24733   2.868  34.140   3.684
59914W        W24734  32.788  24.506  11.541
59915W        W24735  27.618  10.399  10.683
59916W        W24736   7.276  41.787   0.662
59917W        W24737  23.354  37.372  11.843
59918W        W24738  25.423  13.245   1.338
59919W        W24739   1.538   8.908   4.129
59920W        W24740  43.510  29.921   3.991
59921W        W24741  26.215  30.404   1.832
59922W        W24742  11.737   3.368   3.164
59923W        W24743  13.157  12.058   0.510
59924W        W24744  43.515  36.790  10.992
59925W        W24745  37.806   8.780   2.417
59926W        W24746  36.144  21.681   3.210
59927W        W24747  32.214  29.376   4.213
59928W        W24748   1.124   1.349   2.768
59929W        W24749  11.072  15.212  14.856
59930W        W24750   0.965   0.841  10.630
59931W        W24751  25.406  32.444  11.389
59932W        W24752   5.934  30.707  12.937
59933W        W24753  24.605  13.837   0.482
59934W        W24754  11.846  28.440   3.078
59935W        W24755  30.950  11.302   0.857
59936W        W24756   3.721  35.495   4.052
59937W        W24757  38.834   8.842  14.147
59938W        W24758  16.214  38.064   0.726
59939W        W24759  19.223  40.013  14.630
59940W        W24760  37.395  14.228  13.860
59941W        W24761  22.061  25.694  14.268
59942W        W24762  15.073  19.013   4.202
59943W        W24763  34.068   3.620  11.028
59944W        W24764  30.452   8.891   4.144
59945W        W24765   9.614  38.387   0.303
59946W        W24766  25.972  28.310  10.691
59947W        W24767  13.310   6.266   2.641
59948W        W24768  36.872  34.959  14.883
59949W        W24769  32.195  28.046  12.799
59950W        W24770  13.807  17.508   1.351
59951W        W24771   7.882  16.170  10.335
59952W        W24772   4.814  41.041  11.112
59953W        W24773  14.916  39.799  13.915
59954W        W24774  12.619  23.978   3.850
59955W        W24775  42.432  39.311  14.456
59956W        W24776  21.297  34.521   1.852
59957W        W24777  40.496  19.252   3.875
59958W        W24778  28.496  19.747  12.599
59959W        W24779  25.406   3.411  11.248
59960W        W24780   3.967  21.237   4.541
59961W        W24781   1.655  34.358  13.460
59962W        W24782  26.624  34.026  11.148
59963W        W24783   2.061   9.798  12.029
59964W        W24784  12.333   7.692  14.102
59965W        W24785  18.561  29.412   4.332
59966W        W24786  14.563   6.340  13.564
59967W        W24787  16.810   2.483  13.444
59968W        W24788  12.125  25.982   2.847
59969W        W24789  29.360  22.696   2.952
59970W        W24790  32.614  40.256   2.182
59971W        W24791  37.447  38.429  10.667
59972W        W24792  38.609   1.783   2.890
59973W        W24793  38.893   9.055   5.425
59974W        W24794  18.606  25.068   1.852
59975W        W24795   0.217  36.107   2.474
59976W        W24796  36.393  14.146  12.889
59977W        W24797  40.254  15.562   1.891
59978W        W24798  19.059   0.389   2.368
59979W        W24799  38.614   3.632  12.446
59980W        W24800   9.812  31.713  14.633
59981W        W24801  44.379   8.918  11.899
59982W        W24802   7.098   3.893  11.600
59983W        W24803  34.188  32.525  11.053
59984W        W24804  17.737   4.596  14.766
59985W        W24805  27.163   5.500   1.371
59986W        W24806  16.826   7.861   4.114
59987W        W24807  36.131   0.307   2.073
59988W        W24808  21.731  29.420  10.317
59989W        W24809  13.573  14.627  11.542
59990W        W24810  25.835  12.260   3.611
59991W        W24811   4.821  42.896  13.451
59992W        W24812  24.142  31.956   0.061
59993W        W24813  35.888  44.363   3.295
59994W        W24814   9.734  13.920  13.721
59995W        W24815  32.381  24.569   0.441
59996W        W24816  33.334  22.281  10.612
59997W        W24817   8.669   7.794   4.520
59998W        W24818  12.863   3.496  13.873
59999W        W24819  23.588  29.573   1.357
60000W        W24820  18.758  17.013   1.303
60001W        W24821  10.880  32.161   1.873
60002W        W24822   4.853  35.646  13.799
60003W        W24823  43.886  27.123  12.012
60004W        W24824  24.561  36.853   1.174
60005W        W24825  20.098   5.328   4.234
60006W        W24826   0.518   9.552   3.986
60007W        W24827  15.195  41.855  11.867
60008W        W24828  37.144  41.434  11.130
60009W        W24829   2.421  40.012   2.261
60010W        W24830  21.275   6.452   3.387
60011W        W24831   9.606  27.945  14.886
60012W        W24832  18.292  37.128  11.721
60013W        W24833  15.587  34.476  12.565
60014W        W24834  12.630   5.347   4.286
60015W        W24835   6.771   8.593   0.450
60016W        W24836  30.998   6.119   3.067
60017W        W24837   3.768   6.440  11.786
60018W        W24838  20.539  41.108  11.447
60019W        W24839  22.094  20.499  13.559
60020W        W24840  15.322  42.318  14.533
60021W        W24841   1.230   3.408  13.199
60022W        W24842  17.537  27.637  12.883
60023W        W24843  41.974  44.256  13.046
60024W        W24844  16.134  12.883  12.499
60025W        W24845   3.480   0.227   3.606
60026W        W24846  25.209  34.827  12.806
60027W        W24847  31.422   5.866   1.322
60028W        W24848  20.078  30.824  10.648
60029W        W24849  40.947  11.138  10.685
60030W        W24850  35.904   2.958   1.706
60031W        W24851  14.026   0.815   0.685
60032W        W24852   6.640  28.976  11.112
60033W        W24853  24.181  41.547  11.024
60034W        W24854   2.173  23.237   2.535
60035W        W24855  43.505  11.461  13.024
60036W        W24856  22.297  16.794   4.658
60037W        W24857  40.056  33.334   0.747
60038W        W24858  15.148  40.432   1.506
60039W        W24859  18.137   2.451   2.786
60040W        W24860   9.860  27.034  12.003
60041W        W24861  23.047  15.888   0.807
60042W        W24862  39.281  30.597   1.500
60043W        W24863  31.626  15.246   0.110
60044W        W24864  44.179  17.601  14.225
60045W        W24865   6.298  21.143  13.862
60046W        W24866  34.748   0.426   4.713
60047W        W24867  11.118  24.627  13.578
60048W        W24868   3.371  23.672  12.062
60049W        W24869  35.054  24.170   5.458
60050W        W24870  42.160   6.477   0.248
60051W        W24871   0.426  41.824  14.323
60052W        W24872   6.992   5.388  11.550
60053W        W24873   5.763  34.348   3.712
60054W        W24874  15.708  44.903  11.838
60055W        W24875  11.605   1.993   1.001
60056W        W24876  42.420   3.018   4.117
60057W        W24877   8.502  34.770  11.128
60058W        W24878  31.615  17.021   1.417
60059W        W24879  32.388   6.706  10.447
60060W        W24880  17.843  22.327  12.853
60061W        W24881  29.973   6.965  11.126
60062W        W24882  28.145  15.307   0.359
60063W        W24883  27.644  19.052   3.164
60064W        W24884  18.095  18.800   1.456
60065W        W24885  15.246  35.674  10.511
60066W        W24886  18.042  28.777   3.195
60067W        W24887  26.149   6.882  10.493
60068W        W24888   6.878  39.061   0.769
60069W        W24889  29.906  44.541   2.829
60070W        W24890  31.649   9.706   3.556
60071W        W24891  30.904   1.970  14.014
60072W        W24892  24.692  19.364   1.790
60073W        W24893  19.695   2.463   5.155
60074W        W24894  29.656   7.363   4.893
60075W        W24895   4.886  31.003   1.278
60076W        W24896  39.851  16.580   3.188
60077W        W24897  16.342  24.180  14.596
60078W        W24898  30.107  16.054  13.455
60079W        W24899  22.114  31.530  13.800
60080W        W24900  17.252  12.196  12.952
60081W        W24901   7.784  34.592   5.307
60082W        W24902   7.584  35.652   3.482
60083W        W24903  17.043   9.200  11.080
60084W        W24904   0.206  34.984  14.801
60085W        W24905  43.363  12.932  11.883
60086W        W24906  37.388  18.030   0.627
60087W        W24907  40.359  40.378   1.220
60088W        W24908  28.146  27.556   1.226
60089W        W24909  34.415  23.119   3.405
60090W        W24910  24.870   8.815  12.980
60091W        W24911  12.053  26.695   4.511
60092W        W24912  22.128   3.323  12.813
60093W        W24913  16.050  31.039   2.192
60094W        W24914  12.056  28.720  13.349
60095W        W24915  16.290  30.630   0.800
60096W        W24916  29.608   2.184  13.037
60097W        W24917  42.803   3.211   0.887
60098W        W24918   6.784  25.851   3.336
60099W        W24919  37.567  42.293  11.432
60100W        W24920  32.535  32.054  13.033
60101W        W24921  37.185  35.030   4.158
60102W        W24922  39.346   4.236   4.653
60103W        W24923   2.353   0.945  10.387
60104W        W24924   5.975  13.174   2.683
60105W        W24925   6.171   3.816   1.796
60106W        W24926  16.635  40.689   0.875
60107W        W24927  41.644  24.326   1.376
60108W        W24928  28.057  18.647  14.284
60109W        W24929  43.118  20.586   4.468
60110W        W24930   7.683  25.057  13.563
60111W        W24931   9.913  29.927  13.964
60112W        W24932  32.445  12.349  12.950
60113W        W24933  25.281  11.004  12.209
60114W        W24934  37.055  19.865  12.889
60115W        W24935  10.038   9.670   1.537
60116W        W24936  15.521   6.732  14.544
60117W        W24937  18.868   3.231  10.972
60118W        W24938  26.993   4.976   1.879
60119W        W24939  43.936  11.709  10.435
60120W        W24940   1.468  36.311   3.708
60121W        W24941  10.416  11.457   0.233
60122W        W24942  17.547  18.048  12.031
60123W        W24943  37.330  30.730  11.541
60124W        W24944  24.276  41.554  12.427
60125W        W24945  41.273   0.802   4.759
60126W        W24946   1.399  39.258  14.782
60127W        W24947   8.796  36.843  13.967
60128W        W24948   4.737  37.214  14.537
60129W        W24949   8.159   2.538   2.767
60130W        W24950  25.742  43.534   0.263
60131W        W24951  38.103  31.700  12.038
60132W        W24952  14.398  20.637   3.863
60133W        W24953   4.786  15.275   0.238
60134W        W24954  18.311  21.201  14.471
60135W        W24955  31.060  40.397  11.158
60136W        W24956   2.711   8.406  11.601
60137W        W24957  10.353  13.270   2.817
60138W        W24958  24.889  16.711   1.372
60139W        W24959   0.715  30.896   2.729
60140W        W24960   3.409  14.340  11.590
60141W        W24961  26.309  29.981   0.321
60142W        W24962  18.236  10.227  14.000
60143W        W24963   9.339  22.008  14.854
60144W        W24964  31.844   5.831  11.492
60145W        W24965  25.745  41.515   4.549
60146W        W24966  15.156  39.547  14.655
60147W        W24967  23.399  27.122  12.705
60148W        W24968  17.073  32.379  12.421
60149W        W24969  42.999  10.291   2.110
60150W        W24970  14.317  11.369   4.939
60151W        W24971  29.031   1.038  13.852
60152W        W24972  32.981  38.939  13.987
60153W        W24973  28.466  29.178   2.625
60154W        W24974   1.496   7.850   3.802
60155W        W24975  20.303  39.592   4.142
60156W        W24976  38.941  38.008   2.544
60157W        W24977  37.813   7.750   5.478
60158W        W24978  43.891  20.983   4.158
60159W        W24979  37.372   2.852   4.430
60160W        W24980   0.891   8.085  12.207
60161W        W24981  44.585  34.994   0.603
60162W        W24982   3.380  27.037  12.109
60163W        W24983   0.312   5.696   1.805
60164W        W24984  26.948  41.794  11.159
60165W        W24985  14.811  42.065   0.587
60166W        W24986   5.740  10.969  14.471
60167W        W24987   8.853  35.367  14.901
60168W        W24988   8.505  32.414  14.454
60169W        W24989   4.738  18.261   3.610
60170W        W24990  15.253   8.720  11.170
60171W        W24991  10.892  31.147  12.501
60172W        W24992   7.577   2.390  11.891
60173W        W24993  28.566  29.886   0.815
60174W        W24994  24.415  19.681   3.004
60175W        W24995  35.036  27.668   3.516
60176W        W24996  24.965  33.384   2.102
60177W        W24997  13.878  27.482   1.415
60178W        W24998   4.718  30.190   3.180
60179W        W24999  13.293  37.341  13.051
60180W        W25000  28.481  36.963  14.680
60181W        W25001  35.028  25.030  10.933
60182W        W25002  27.390  39.354   2.890
60183W        W25003   8.987  17.289   2.324
60184W        W25004   9.445  34.374   0.710
60185W        W25005  12.338   6.887   2.917
60186W        W25006  31.901  15.386  11.076
60187W        W25007  33.506  21.136   0.343
60188W        W25008  43.965  39.840  12.052
60189W        W25009  38.259  39.966   4.184
60190W        W25010  17.619  38.419   5.012
60191W        W25011   8.649  35.489   0.381
60192W        W25012  40.968  14.128   3.592
60193W        W25013  37.041  16.334  14.170
60194W        W25014   9.422   4.925  10.449
60195W        W25015  43.860  33.355  12.472
60196W        W25016  37.955   5.280  10.709
60197W        W25017  42.367  18.693  10.912
60198W        W25018  33.768   1.902   3.691
60199W        W25019  32.447  31.368   2.445
60200W        W25020  41.496   0.915  14.383
60201W        W25021  33.768  29.652   0.318
60202W        W25022  26.632  39.600   3.216
60203W        W25023  28.591   2.798   4.190
60204W        W25024  12.825  42.335   3.231
60205W        W25025  26.103  17.585   4.131
60206W        W25026   7.963  42.369  11.969
60207W        W25027   4.294  34.655  14.500
60208W        W25028  36.013  20.413  14.338
60209W        W25029  33.623  18.030  11.962
60210W        W25030  29.868  29.988  11.189
60211W        W25031  26.516  23.860   2.840
60212W        W25032  26.575  24.791  12.026
60213W        W25033  37.032  33.141  11.965
60214W        W25034  23.088  11.812   4.112
60215W        W25035   5.330  29.207   2.107
60216W        W25036  26.047  41.860   2.857
60217W        W25037  37.787  11.320   3.583
60218W        W25038  12.929  10.268  12.352
60219W        W25039  13.635  31.632  12.902
60220W        W25040  27.151  27.690  12.848
60221W        W25041  17.226  39.341   5.333
60222W        W25042  24.276   4.941  12.494
60223W        W25043  41.528  14.042   1.431
60224W        W25044  25.024  38.695  13.095
60225W        W25045  30.989  19.599   0.951
60226W        W25046   4.366  14.500   1.417
60227W        W25047  20.649  15.876   1.472
60228W        W25048  25.467  11.641  11.206
60229W        W25049   2.258  12.196  11.683
60230W        W25050  36.375   8.742  11.727
60231W        W25051  11.637  23.925  13.934
60232W        W25052  28.233  37.537   1.874
60233W        W25053  36.551   1.981   4.585
60234W        W25054  21.687  33.144  12.891
60235W        W25055  24.700  31.420   3.793
60236W        W25056  12.489   8.783   2.667
60237W        W25057  37.915  28.071  13.052
60238W        W25058  30.947   9.414  14.678
60239W        W25059  35.895  44.825   2.191
60240W        W25060  13.836   4.750  11.574
60241W        W25061   4.843  44.419  12.963
60242W        W25062  33.176  29.635  12.080
60243W        W25063  19.023  31.684  11.442
60244W        W25064  11.879   4.355   4.548
60245W        W25065  32.341   4.438  14.783
60246W        W25066  20.314  35.805  14.683
60247W        W25067  24.560   4.832   4.674
60248W        W25068  27.142  12.177   0.264
60249W        W25069   5.937  43.863   0.385
60250W        W25070  21.081  30.900  14.347
60251W        W25071  18.633   1.391   0.736
60252W        W25072  34.471  33.668   4.683
60253W        W25073  32.631   8.985  12.470
60254W        W25074  41.114  39.796   2.904
60255W        W25075  38.647  32.583   4.109
60256W        W25076  37.722   2.734   0.765
60257W        W25077  39.800  15.529  11.904
60258W        W25078  33.973   7.888   3.335
60259W        W25079  16.747  14.634   4.254
60260W        W25080  20.967  14.329  12.523
60261W        W25081   0.948  10.207  13.445
60262W        W25082  44.864  14.270   4.099
60263W        W25083  31.412   8.243   1.298
60264W        W25084   1.270  40.035   3.695
60265W        W25085   7.687   1.918   1.840
60266W        W25086  19.249   3.453  12.556
60267W        W25087  11.602   7.292   0.995
60268W        W25088  14.222  25.051  13.740
60269W        W25089  24.204  28.535   3.925
60270W        W25090   9.725   1.338  13.784
60271W        W25091  10.106  16.532   1.225
60272W        W25092  15.034  31.015   1.276
60273W        W25093  35.467  44.319  12.152
60274W        W25094  33.752  40.813   1.168
60275W        W25095  32.239  29.069  14.890
60276W        W25096  21.751  18.737  11.413
60277W        W25097   8.738   4.189   4.028
60278W        W25098  19.228  11.605  13.931
60279W        W25099  43.373  40.551  12.534
60280W        W25100  38.926  23.974  13.017
60281W        W25101  31.454  24.246   0.768
60282W        W25102  11.627  38.162   5.253
60283W        W25103  35.482  11.416  12.503
60284W        W25104   1.219  28.638  13.425
60285W        W25105  31.153  37.791  14.298
60286W        W25106   4.695   0.371   3.246
60287W        W25107  40.158  21.114  12.913
60288W        W25108  38.862  44.253   1.847
60289W        W25109  27.957   0.292  14.362
60290W        W25110   2.334  15.567  14.389
60291W        W25111  28.164  40.058   0.373
60292W        W25112  10.725  33.450  11.474
60293W        W25113  42.688   1.845   4.461
60294W        W25114   4.693  38.993   3.133
60295W        W25115  23.303  20.527  12.864
60296W        W25116  16.363  34.548  10.677
60297W        W25117  19.861  17.577   2.730
60298W        W25118  16.940  18.259   1.860
60299W        W25119  33.424   2.890  12.994
60300W        W25120  24.949   5.166  13.000
60301W        W25121  35.331  40.823  13.559
60302W        W25122  28.179  26.274  14.934
60303W        W25123  37.388  16.755   4.095
60304W        W25124   4.950  36.301   4.094
60305W        W25125  25.909   8.879  13.012
60306W        W25126  21.157  15.235   4.859
60307W        W25127  41.169  34.644   0.784
60308W        W25128  19.283  12.587   4.163
60309W        W25129   4.340  14.633  13.869
60310W        W25130   0.327  17.775  12.032
60311W        W25131  30.831  29.517  14.043
60312W        W25132  23.689  36.755   1.303
60313W        W25133  23.142  16.775  12.840
60314W        W25134  31.507  16.942  14.942
60315W        W25135   7.375  35.415   2.771
60316W        W25136  41.354  27.017  13.453
60317W        W25137   1.968   1.806  12.212
60318W        W25138  25.120   7.923   5.163
60319W        W25139  34.109  32.761  11.494
60320W        W25140  17.127  42.469   2.183
60321W        W25141  28.845  11.557   0.357
60322W        W25142   8.452  26.682   0.436
60323W        W25143  10.794  38.588  13.007
60324W        W25144   4.690  35.828   4.019
60325W        W25145   5.851  14.205  13.333
60326W        W25146   4.811   6.589  12.454
60327W        W25147  27.878  28.232   2.231
60328W        W25148  19.715  22.087  14.486
60329W        W25149  44.543  12.795   1.180
60330W        W25150  30.478   4.803   2.638
60331W        W25151  24.120  18.617   3.870
60332W        W25152  39.218  42.762   0.734
60333W        W25153  35.605  33.243  14.704
60334W        W25154  22.002  16.868   3.830
60335W        W25155  35.943  25.663  11.581
60336W        W25156  27.703  26.053  10.699
60337W        W25157  11.013  28.528   4.197
60338W        W25158  17.377  28.558   0.845
60339W        W25159  22.912  10.778   0.280
60340W        W25160  12.639   7.238  12.389
60341W        W25161  37.475  32.643  11.508
60342W        W25162   9.993  22.001   2.921
60343W        W25163  21.175   6.790   1.929
60344W        W25164  27.129   4.000   0.420
60345W        W25165  30.115  15.092  14.608
60346W        W25166  21.631   7.435   1.345
60347W        W25167  35.539   1.770   1.827
60348W        W25168  21.959   0.509  10.860
60349W        W25169   3.463  20.221  13.803
60350W        W25170  25.193  36.869   3.143
60351W        W25171   6.896  15.423  11.186
60352W        W25172   0.255  39.407  13.473
60353W        W25173  44.424  40.946   3.638
60354W        W25174  35.028  43.368  14.967
60355W        W25175   1.964  30.954   4.457
60356W        W25176  42.318  30.935   1.371
60357W        W25177  33.459  24.716  13.844
60358W        W25178  14.883  40.341   2.767
60359W        W25179  21.141   4.372  14.334
60360W        W25180  14.990   8.841   2.277
60361W        W25181  16.776  36.986   2.664
60362W        W25182  11.786   8.936  10.704
60363W        W25183  12.266  38.892  13.960
60364W        W25184  11.178  30.946  14.412
60365W        W25185   9.921   2.792  13.450
60366W        W25186  29.746  35.553   1.834
60367W        W25187   7.909  44.953   3.244
60368W        W25188   4.311  39.780   1.748
60369W        W25189   5.191  26.614   0.491
60370W        W25190  29.101  26.182   1.740
60371W        W25191  44.725  37.571   4.526
60372W        W25192  40.825   2.373   4.737
60373W        W25193  30.294  36.604  11.049
60374W        W25194  44.758  43.169   1.605
60375W        W25195  42.952  34.067  14.417
60376W        W25196  24.746  41.518   0.444
60377W        W25197  27.119  17.826  14.811
60378W        W25198  11.261   1.667   3.307
60379W        W25199  23.802  34.907   2.844
60380W        W25200   1.926  20.081   1.001
60381W        W25201   7.917  44.686   0.418
60382W        W25202  25.650  27.429   3.624
60383W        W25203  31.080   3.818   4.057
60384W        W25204  41.711  36.115   3.795
60385W        W25205  28.932  22.098  11.539
60386W        W25206  17.064  44.742  12.920
60387W        W25207   5.712  23.384  14.280
60388W        W25208   5.426  33.240  11.514
60389W        W25209  40.123   7.586   4.997
60390W        W25210  36.391  22.778   2.637
60391W        W25211  18.667  23.785   3.921
60392W        W25212  43.878   7.334   2.139
60393W        W25213  13.309   4.468   4.702
60394W        W25214   1.919  37.033   3.940
60395W        W25215  32.827  35.408   4.161
60396W        W25216   7.673   4.950  12.925
60397W        W25217  14.067  21.512  13.557
60398W        W25218   9.203   5.770  11.526
60399W        W25219  21.574  10.101   1.287
60400W        W25220  33.469   3.149  13.470
60401W        W25221   3.279  17.613  10.792
60402W        W25222   3.692   9.301   3.675
60403W        W25223  34.797  11.689   1.431
60404W        W25224  12.172   8.946  12.680
60405W        W25225   1.761  36.438  10.689
60406W        W25226   6.537  36.435  13.075
60407W        W25227  44.462  19.557  12.851
60408W        W25228  44.803   1.777  14.063
60409W        W25229  29.376   0.997  11.216
60410W        W25230   0.684  37.116  14.394
60411W        W25231  44.730  19.822  13.984
60412W        W25232  13.671  15.156  14.034
60413W        W25233  23.624  41.811  14.095
60414W        W25234  12.667  31.737   0.181
60415W        W25235  11.915  21.861  14.093
60416W        W25236  27.491  14.262  10.670
60417W        W25237  32.279   8.839  12.091
60418W        W25238   5.634   0.708   0.864
60419W        W25239   2.183  39.846  11.621
60420W        W25240   2.763  14.660   4.743
60421W        W25241   5.960  15.629  11.399
60422W        W25242   7.867  17.519  13.702
60423W        W25243  25.378  37.063   2.294
60424W        W25244  43.862  14.091   2.355
60425W        W25245  40.815  18.273  11.868
60426W        W25246  28.774   5.632   1.870
60427W        W25247  40.304  12.572  13.388
60428W        W25248   3.978  11.552  12.550
60429W        W25249  42.451  44.461  12.178
60430W        W25250  29.037  36.147  11.076
60431W        W25251  24.082  26.303  10.776
60432W        W25252  39.746   7.838   0.139
60433W        W25253  17.550  40.219   2.236
60434W        W25254  33.616  29.237  13.519
60435W        W25255  24.349  38.974  13.877
60436W        W25256  22.495  39.841  11.533
60437W        W25257  31.103  16.200   1.620
60438W        W25258  24.412  38.443  11.152
60439W        W25259  20.841   2.424   4.882
60440W        W25260  20.710  25.787  11.098
60441W        W25261  42.734  42.926  13.803
60442W        W25262  22.694   8.640  12.447
60443W        W25263  32.995  31.874  11.388
60444W        W25264   6.233   4.487   1.234
60445W        W25265  36.556  32.718   4.163
60446W        W25266  33.587  32.905  10.669
60447W        W25267  15.125  17.289  11.607
60448W        W25268  39.836   8.564  14.824
60449W        W25269  24.596  40.306   4.193
60450W        W25270   1.193  38.078   4.103
60451W        W25271  28.947  11.029   1.281
60452W        W25272  44.015  30.630  12.030
60453W        W25273  38.895   5.681   1.962
60454W        W25274   7.859  20.650  11.533
60455W        W25275  24.078   8.978   3.485
60456W        W25276  38.897   2.946   1.446
60457W        W25277  23.729   5.612  12.618
60458W        W25278  29.884  14.585   0.335
60459W        W25279  26.145  21.939  12.372
60460W        W25280  31.797  37.389   0.391
60461W        W25281  16.039  33.514   2.747
60462W        W25282   7.187  15.337  13.014
60463W        W25283  28.127  18.054   2.834
60464W        W25284   1.965  35.470   3.739
60465W        W25285  10.351  13.148  12.376
60466W        W25286   5.373  14.390   1.155
60467W        W25287   5.752   7.136  10.548
60468W        W25288   0.698   1.679  14.811
60469W        W25289   0.706  12.426   2.762
60470W        W25290  11.233  44.298  13.072
60471W        W25291  31.591  33.896   2.212
60472W        W25292  26.972   0.599   4.341
60473W        W25293  35.980  36.358   1.275
60474W        W25294  14.128  35.674   3.722
60475W        W25295  42.935  28.606  10.906
60476W        W25296   0.784  11.779   3.620
60477W        W25297  42.737  43.954   3.315
60478W        W25298  34.682  33.559   1.274
60479W        W25299  35.583   8.226   0.763
60480W        W25300  17.411  32.960  13.407
60481W        W25301  34.202  24.225   0.448
60482W        W25302  28.002  23.343   3.251
60483W        W25303  30.432   2.150  14.168
60484W        W25304  37.960  28.017   0.357
60485W        W25305  15.195   7.359  10.434
60486W        W25306  44.881  17.758   2.319
60487W        W25307  11.553  38.314  14.269
60488W        W25308  21.677  12.417  11.635
60489W        W25309  17.024  21.152  14.410
60490W        W25310  30.847   5.866  12.905
60491W        W25311   0.556   8.803   2.691
60492W        W25312  14.017  31.855   3.690
60493W        W25313  25.984   4.390  11.509
60494W        W25314  31.606  10.438  12.891
60495W        W25315  44.933  29.496  14.078
60496W        W25316   6.832  18.699   4.738
60497W        W25317   7.802  24.524  12.717
60498W        W25318   9.717  37.545   4.545
60499W        W25319  18.283  12.403  12.421
60500W        W25320  33.906  17.137   3.191
60501W        W25321  11.374  13.422  14.543
60502W        W25322  29.549  25.124  12.070
60503W        W25323   4.994  41.929  14.234
60504W        W25324  41.202  21.989   0.742
60505W        W25325  28.957  41.543  11.924
60506W        W25326  17.874   1.824  11.236
60507W        W25327  14.210   6.253   4.457
60508W        W25328  29.139  17.443   4.266
60509W        W25329  38.897   3.467  14.905
60510W        W25330  32.164  15.295   3.277
60511W        W25331  25.225  20.570  12.305
60512W        W25332  30.465  12.114   2.419
60513W        W25333  39.168  14.213   5.140
60514W        W25334  20.191  30.472  14.690
60515W        W25335  11.697   3.723   0.303
60516W        W25336  18.269  41.608  11.489
60517W        W25337  27.189  28.898   2.281
60518W        W25338  43.741  19.243   4.085
60519W        W25339   2.553  11.235  14.016
60520W        W25340  14.675  21.195   1.307
60521W        W25341  21.101  10.574   4.044
60522W        W25342  35.940  38.361   4.559
60523W        W25343   6.937  18.982   0.882
60524W        W25344  43.048  34.090  12.926
60525W        W25345   3.350  15.261  11.233
60526W        W25346  44.652  28.043  10.134
60527W        W25347  26.060  36.929  12.864
60528W        W25348  34.032  31.206   4.083
60529W        W25349   7.499  43.309  11.994
60530W        W25350  18.764  29.096  13.409
60531W        W25351  44.669   1.261  12.929
60532W        W25352  28.130  20.943   2.943
60533W        W25353  14.083   4.784  14.490
60534W        W25354   1.976  40.323   4.189
60535W        W25355  41.394  35.594  12.223
60536W        W25356   4.678   2.374   3.973
60537W        W25357  31.961   8.747   3.718
60538W        W25358  39.355  31.388   4.637
60539W        W25359  42.982  34.466   0.702
60540W        W25360  18.168   5.170  14.379
60541W        W25361  18.703  39.786   2.125
60542W        W25362   8.394  43.555   4.931
60543W        W25363  11.644  39.387  10.874
60544W        W25364   6.491   9.775  13.442
60545W        W25365   8.030  28.051  12.900
60546W        W25366  14.388  26.258  14.038
60547W        W25367  21.351  18.018  10.761
60548W        W25368   5.555  32.688   4.130
60549W        W25369  32.291   3.752  14.380
60550W        W25370  12.902  44.552   1.783
60551W        W25371   4.653  32.502   1.765
60552W        W25372  20.087  17.177   1.709
60553W        W25373   7.056  31.601   3.176
60554W        W25374  15.726   7.412  14.842
60555W        W25375  14.124   9.833   1.752
60556W        W25376  24.177  16.486   0.188
60557W        W25377   9.174   0.748  10.712
60558W        W25378  18.723   4.247   1.325
60559W        W25379  24.287  20.082  13.631
60560W        W25380  22.550  12.864   1.409
60561W        W25381  24.968  37.102   0.711
60562W        W25382  16.300  43.687  10.722
60563W        W25383  17.907   8.868   3.020
60564W        W25384  19.328   1.242   3.730
60565W        W25385  14.096  32.183  13.073
60566W        W25386  34.949  19.789   1.680
60567W        W25387  25.619  35.064   2.372
60568W        W25388  24.692   8.039   0.393
60569W        W25389  17.178   7.359  10.680
60570W        W25390  18.344   6.828   4.667
60571W        W25391  29.316  43.331   1.519
60572W        W25392  22.018  12.523  14.074
60573W        W25393   3.943   1.667  13.336
60574W        W25394  37.850  22.494  13.327
60575W        W25395  42.448  25.625  11.923
60576W        W25396  26.475  35.457  14.657
60577W        W25397  20.465  15.725   2.384
60578W        W25398  15.579  23.596   3.193
60579W        W25399  34.834  17.543   5.514
60580W        W25400  26.195  23.725   3.569
60581W        W25401  32.137   5.446   3.886
60582W        W25402  17.725  27.988   0.387
60583W        W25403  27.195  22.683   0.365
60584W        W25404  16.700  40.467  10.659
60585W        W25405  35.465  38.338   4.754
60586W        W25406  14.678   9.630   0.524
60587W        W25407  18.465  40.361  12.881
60588W        W25408  30.395  24.013  13.569
60589W        W25409   0.461  31.774   4.627
60590W        W25410  28.798  12.346   1.749
60591W        W25411  22.948  20.580   9.848
60592W        W25412  14.225   9.806   0.197
60593W        W25413  14.790  16.960  11.862
60594W        W25414  14.261  20.357   2.608
60595W        W25415  43.067  35.629   2.785
60596W        W25416   9.989  35.321  11.387
60597W        W25417  23.525  16.127   4.305
60598W        W25418  41.912  19.029  14.519
60599W        W25419  34.993  19.664  13.549
60600W        W25420   8.447  23.157   2.665
60601W        W25421  21.624   3.626   2.662
60602W        W25422  38.333  44.079  13.922
60603W        W25423   9.891  42.022   1.358
60604W        W25424  31.048   7.496  11.092
60605W        W25425  28.191  30.320  11.182
60606W        W25426  40.419  36.941  14.224
60607W        W25427  19.150  35.515  10.522
60608W        W25428  25.979  13.447   3.852
60609W        W25429  20.975   4.380   3.166
60610W        W25430  14.296  38.273   1.393
60611W        W25431  27.865  33.826  11.489
60612W        W25432   8.952  19.346   1.515
60613W        W25433  15.066  13.667   4.969
60614W        W25434  18.094  34.187  12.091
60615W        W25435  44.960  42.542  13.921
60616W        W25436  12.418  29.110   1.427
60617W        W25437  10.782  37.177  11.303
60618W        W25438  12.448  31.541  14.454
60619W        W25439  30.818   4.191  12.455
60620W        W25440  40.370  43.974  12.007
60621W        W25441   3.341  37.461   2.649
60622W        W25442  35.109   8.195  14.326
60623W        W25443  13.353  38.371  13.476
60624W        W25444  37.861   9.887  12.615
60625W        W25445  40.586  40.865   4.594
60626W        W25446  36.741   0.332   3.790
60627W        W25447  28.730   5.206   3.077
60628W        W25448  42.371  38.425  13.298
60629W        W25449  29.359  32.053   5.123
60630W        W25450  32.631  29.710   0.746
60631W        W25451  15.133  10.038   4.469
60632W        W25452  20.335  11.668  10.733
60633W        W25453  20.219  29.385  10.473
60634W        W25454  34.472  25.653  12.109
60635W        W25455   8.578  21.092  13.563
60636W        W25456  44.964  42.486  13.009
60637W        W25457  19.486  42.471   1.857
60638W        W25458  35.238  18.275   4.518
60639W        W25459   4.347  30.626   3.901
60640W        W25460  21.050   8.260  11.139
60641W        W25461  13.754   8.375   2.336
60642W        W25462  17.792  40.918   2.529
60643W        W25463  38.033  21.642   4.736
60644W        W25464  25.416  13.307   0.559
60645W        W25465  16.899  34.634  10.650
60646W        W25466  40.490  15.155  14.394
60647W        W25467  21.735  19.379   1.457
60648W        W25468  15.611   9.008  14.771
60649W        W25469  18.048  25.052  13.463
60650W        W25470  26.705   8.789  14.028
60651W        W25471  37.004  34.115   3.724
60652W        W25472  34.155  43.945  14.329
60653W        W25473  25.639   9.150   3.195
60654W        W25474  10.366  37.853   3.299
60655W        W25475  11.135  43.966   2.369
60656W        W25476  26.930  16.910  11.472
60657W        W25477  12.965  27.048   2.372
60658W        W25478  17.982  12.662  10.929
60659W        W25479  17.597  28.045  14.141
60660W        W25480  15.641   7.257   4.534
60661W        W25481  13.442  34.472  10.613
60662W        W25482  29.216  40.010   3.657
60663W        W25483  23.113  27.137   4.411
60664W        W25484  18.782   6.205  11.008
60665W        W25485   1.968   4.555  12.554
60666W        W25486   7.077  16.888  13.462
60667W        W25487  23.291   7.859   0.315
60668W        W25488  13.344   3.269   1.401
60669W        W25489  34.934   1.337  14.012
60670W        W25490  43.678  11.233  12.556
60671W        W25491  17.756  24.656  13.558
60672W        W25492   9.711  27.146   3.376
60673W        W25493   7.702   8.234   0.589
60674W        W25494  19.638  17.157   3.598
60675W        W25495  26.220  26.834  11.640
60676W        W25496  27.600  30.631   3.726
60677W        W25497  27.148  24.094   3.717
60678W        W25498  36.156   0.248   4.451
60679W        W25499  31.717  24.003  14.375
60680W        W25500   2.181  39.449  12.821
60681W        W25501   0.870   1.531   3.158
60682W        W25502  35.832  43.417   3.271
60683W        W25503  19.820   2.182  11.880
60684W        W25504  29.796  20.641  12.744
60685W        W25505  33.758  36.597   2.755
60686W        W25506  11.751  36.566   2.852
60687W        W25507  12.845  39.353  12.442
60688W        W25508  35.290   0.401  12.426
60689W        W25509  26.937  25.624   2.802
60690W        W25510   8.104  27.373   0.880
60691W        W25511  31.893  23.247   0.106
60692W        W25512  37.279  20.121   0.857
60693W        W25513  13.184  27.808   9.607
60694W        W25514  25.939  38.837  12.561
60695W        W25515  12.716  35.251   1.336
60696W        W25516  41.522  30.547  11.962
60697W        W25517  14.271   0.698  13.523
60698W        W25518  28.647  17.170   2.131
60699W        W25519  25.271   6.141  11.067
60700W        W25520  33.208  21.829  14.903
60701W        W25521   7.189   6.411   1.304
60702W        W25522  35.106  16.367   2.624
60703W        W25523  27.726  11.702   0.842
60704W        W25524  23.103  13.766  13.432
60705W        W25525  13.687  19.135   2.850
60706W        W25526  25.155  30.533  14.936
60707W        W25527   0.978  10.134   2.940
60708W        W25528  21.648  14.538  13.405
60709W        W25529  41.926  34.162   3.887
60710W        W25530  44.989   4.636  13.072
60711W        W25531  17.674  11.548   4.237
60712W        W25532  19.068  22.966  14.464
60713W        W25533   2.731  28.188  12.065
60714W        W25534  16.025   6.877   0.440
60715W        W25535  26.520   0.791   0.325
60716W        W25536  21.079  16.822   4.604
60717W        W25537  33.112  35.059   1.798
60718W        W25538  11.922  40.551   2.365
60719W        W25539  20.819   6.909  11.142
60720W        W25540  25.946  20.666   0.449
60721W        W25541  32.778   4.797   2.849
60722W        W25542   4.770  29.070   0.684
60723W        W25543  25.029  23.734   2.312
60724W        W25544  16.922   9.825  12.294
60725W        W25545  12.557  11.567  12.081
60726W        W25546  20.038  11.612  11.607
60727W        W25547   8.335  13.331   2.332
60728W        W25548  11.667  26.641  14.412
60729W        W25549  15.067  29.790   2.965
60730W        W25550  36.876  37.909   3.655
60731W        W25551  39.026   0.672  10.456
60732W        W25552  23.986  23.772   2.356
60733W        W25553  20.151  30.543   2.132
60734W        W25554  40.181  27.438   3.070
60735W        W25555  32.468  35.840   4.156
60736W        W25556  34.059  30.501   2.203
60737W        W25557   7.383  21.457  10.493
60738W        W25558  24.513  16.261   0.930
60739W        W25559   0.473  28.232   3.069
60740W        W25560  42.067  44.417  14.081
60741W        W25561  33.009  32.345   4.535
60742W        W25562   3.476   4.115  13.670
60743W        W25563  18.081  35.547   9.987
60744W        W25564  16.194  18.013  13.868
60745W        W25565  37.476   6.707   1.528
60746W        W25566   7.956  22.430   1.385
60747W        W25567  15.678  20.617  11.496
60748W        W25568   9.912  29.192   3.211
60749W        W25569  13.301  22.486   0.456
60750W        W25570   2.706  43.358   3.254
60751W        W25571  42.982  31.035  12.964
60752W        W25572  19.032  11.255  11.528
60753W        W25573   9.453  14.248   1.624
60754W        W25574  40.048  12.355   0.356
60755W        W25575  21.542  35.919   2.378
60756W        W25576  29.703  13.587   4.262
60757W        W25577  40.874  44.289   2.657
60758W        W25578  44.333   9.942  11.071
60759W        W25579  16.139  34.920   2.823
60760W        W25580  12.693  40.720   0.479
60761W        W25581   9.786  29.698  14.389
60762W        W25582  28.528  41.420  13.542
60763W        W25583  11.738  21.285   3.138
60764W        W25584  26.993  19.275  12.489
60765W        W25585  22.557  17.872   4.048
60766W        W25586  25.503   8.217   2.280
60767W        W25587  19.177   4.343   1.564
60768W        W25588  33.046  24.047   4.468
60769W        W25589  33.115  30.138   4.501
60770W        W25590   2.733  33.563  10.775
60771W        W25591  29.119  36.292  12.468
60772W        W25592   6.082  19.657  14.029
60773W        W25593   4.315  11.703  13.031
60774W        W25594  22.826   3.313  13.543
60775W        W25595  25.959  42.251  12.621
60776W        W25596  42.925  19.432  13.551
60777W        W25597  41.494  36.805  12.841
60778W        W25598   8.377  41.695  11.276
60779W        W25599  15.503  24.663  13.931
60780W        W25600   7.902  13.496  13.950
60781W        W25601   4.966  23.336   1.632
60782W        W25602  42.846  38.019  13.763
60783W        W25603  21.501  44.290   1.573
60784W        W25604   0.287  33.683   1.734
60785W        W25605  14.094  15.876   4.699
60786W        W25606  42.602  17.237   1.102
60787W        W25607  13.866   6.831  13.804
60788W        W25608  16.110  20.301  11.146
60789W        W25609   6.222  26.229   1.140
60790W        W25610  39.033   3.151   2.869
60791W        W25611  21.135  30.663   0.734
60792W        W25612  32.156   9.796  13.491
60793W        W25613   3.193  13.193  13.873
60794W        W25614  27.092  28.476  10.684
60795W        W25615  15.875  30.197  10.929
60796W        W25616  23.016  13.650   3.713
60797W        W25617   0.429  13.502  10.725
60798W        W25618  33.604  19.657   2.733
60799W        W25619  27.439  28.081  12.046
60800W        W25620  24.030   0.966   0.216
60801W        W25621  27.979  10.931   0.306
60802W        W25622  16.146  39.462  13.855
60803W        W25623   2.327  30.760  12.647
60804W        W25624  42.207  19.794   1.637
60805W        W25625  18.753  26.710   0.979
60806W        W25626  38.004  20.585  14.790
60807W        W25627   3.846   2.899   2.446
60808W        W25628  39.906  25.185  13.915
60809W        W25629  27.214  16.468  12.889
60810W        W25630  18.730  40.761  14.000
60811W        W25631   1.196  17.372   4.211
60812W        W25632  15.165  28.424   0.858
60813W        W25633   5.292  11.096   1.663
60814W        W25634  16.471  33.206  12.187
60815W        W25635  40.874  10.881   1.188
60816W        W25636  35.508  15.688  12.546
60817W        W25637  29.641  18.032   2.444
60818W        W25638  16.399  40.789  11.589
60819W        W25639  41.488  14.719  10.551
60820W        W25640  31.582  10.416   1.833
60821W        W25641  26.956  29.756  11.182
60822W        W25642   9.593  43.057   1.816
60823W        W25643  11.634  26.402   3.542
60824W        W25644  24.633  37.495   0.916
60825W        W25645  29.860  21.115   2.303
60826W        W25646   7.609   9.017   2.720
60827W        W25647  39.169  17.100   1.306
60828W        W25648  41.768   3.233   2.327
60829W        W25649  15.157  18.599   1.722
60830W        W25650  24.061  15.408  10.785
60831W        W25651  44.900  17.437   1.370
60832W        W25652  38.339  26.703   1.931
60833W        W25653   8.542  26.894   4.610
60834W        W25654   3.870  18.152   3.613
60835W        W25655  13.973  20.392  13.939
60836W        W25656  34.951  42.908  12.948
60837W        W25657  36.495   9.349   2.642
60838W        W25658  21.524  12.441   4.099
60839W        W25659  42.883  41.787  11.521
60840W        W25660   8.226  11.979  11.685
60841W        W25661  37.217  18.714   5.081
60842W        W25662  36.467  11.719  10.732
60843W        W25663  20.543  33.826  10.175
60844W        W25664   7.583   8.995  13.175
60845W        W25665  28.580  44.294   3.330
60846W        W25666  13.723  24.311  10.728
60847W        W25667  14.447  37.900  12.075
60848W        W25668  10.914  27.191   1.705
60849W        W25669  23.274   3.885  11.689
60850W        W25670   4.078   9.946  13.151
60851W        W25671   8.104  20.708  14.362
60852W        W25672  36.681  21.999   1.993
60853W        W25673  11.853   8.289   3.594
60854W        W25674  29.040  37.311  12.575
60855W        W25675  26.103  18.911   3.569
60856W        W25676  23.001  17.638  14.442
60857W        W25677  33.044   5.392   0.483
60858W        W25678  36.047  20.071   1.354
60859W        W25679   1.059   5.962  12.995
60860W        W25680   1.390  33.632  14.962
60861W        W25681  22.210   4.385   0.920
60862W        W25682  23.075  17.293   3.704
60863W        W25683  20.693  42.063  10.946
60864W        W25684  19.324  30.881  14.312
60865W        W25685  24.106  37.815  12.071
60866W        W25686  19.807  14.977  12.967
60867W        W25687  25.983  44.360  13.184
60868W        W25688  39.786  19.422   0.272
60869W        W25689   1.477  34.936   0.387
60870W        W25690  39.065  15.284  11.925
60871W        W25691  18.489  35.695   3.636
60872W        W25692  19.192  34.175   3.198
60873W        W25693  25.584   7.444   3.734
60874W        W25694  43.073   8.634  12.506
60875W        W25695  23.773   8.110   3.628
60876W        W25696  37.635  12.218  10.430
60877W        W25697  18.738   0.857  11.608
60878W        W25698  35.991  15.539  12.667
60879W        W25699  34.989   0.739  10.638
60880W        W25700  16.789  34.369  14.850
60881W        W25701   4.652  41.005  11.593
60882W        W25702   1.206  20.652   3.584
60883W        W25703  42.410   8.359   3.915
60884W        W25704  12.892  24.049  12.668
60885W        W25705  26.795  26.193  13.480
60886W        W25706  32.096  43.476   3.717
60887W        W25707  42.596   4.359   0.107
60888W        W25708  34.617  39.376  14.985
60889W        W25709   5.170  34.368  11.580
60890W        W25710  10.767  12.629  13.551
60891W        W25711  44.190  11.107  12.521
60892W        W25712  23.674  32.874  14.067
60893W        W25713   8.318  14.050  13.412
60894W        W25714   4.436  36.884  14.267
60895W        W25715   6.321  29.651  11.981
60896W        W25716  42.751  40.428  10.679
60897W        W25717  10.927  28.527   0.879
60898W        W25718  24.994  27.719   4.811
60899W        W25719  16.508  35.420  11.217
60900W        W25720  25.649   8.905  11.702
60901W        W25721  38.103  26.638  10.631
60902W        W25722  17.500  44.469   0.706
60903W        W25723   9.682   7.411  12.642
60904W        W25724  17.345  34.556  14.470
60905W        W25725  12.585  34.840   0.213
60906W        W25726  10.286  29.728   0.971
60907W        W25727   1.706  24.607   1.534
60908W        W25728  17.317  17.558  12.454
60909W        W25729  32.337  21.116  13.107
60910W        W25730  27.629  43.780   2.711
60911W        W25731  24.569  26.549  12.968
60912W        W25732   1.313   7.711   2.376
60913W        W25733  42.050   6.215   3.581
60914W        W25734  10.178   2.541   3.326
60915W        W25735  33.688  23.134  12.395
60916W        W25736  31.947  31.854   1.294
60917W        W25737   2.157   5.636  11.228
60918W        W25738  29.071  32.797  14.012
60919W        W25739  12.620  31.660   2.576
60920W        W25740  44.409  38.573   0.904
60921W        W25741   0.188   6.948   4.864
60922W        W25742   7.176  26.663   3.045
60923W        W25743  42.516   6.817  12.495
60924W        W25744  19.044  44.573  13.238
60925W        W25745  11.653  44.282  13.368
60926W        W25746   7.331  36.482  11.549
60927W        W25747  22.729  29.530   2.329
60928W        W25748   8.365  41.154  11.220
60929W        W25749  30.940  34.887   4.273
60930W        W25750   7.467  38.889  11.666
60931W        W25751   1.513   2.451   0.188
60932W        W25752  24.293   1.229  11.272
60933W        W25753  14.716  19.358   4.441
60934W        W25754   2.689   8.922  11.714
60935W        W25755   9.756   5.860  13.746
60936W        W25756  20.762  24.363   0.992
60937W        W25757  19.772  37.904   0.924
60938W        W25758   9.655   2.669  14.834
60939W        W25759   0.207  11.546   3.717
60940W        W25760  35.215  27.989   0.735
60941W        W25761  20.146   2.491   2.689
60942W        W25762  26.115  44.320  12.587
60943W        W25763  10.700  42.140   2.663
60944W        W25764  31.610   5.264  13.968
60945W        W25765  43.233  40.985   4.734
60946W        W25766  11.583  30.115   0.989
60947W        W25767  19.094  12.931   2.155
60948W        W25768  35.881  39.786  14.087
60949W        W25769  34.922   3.143  13.234
60950W        W25770  23.540  21.399  12.936
60951W        W25771  29.114  21.612   1.223
60952W        W25772  44.549  33.072   3.488
60953W        W25773  43.889  13.646  14.404
60954W        W25774   0.671  31.773  13.426
60955W        W25775  19.206  11.636  13.064
60956W        W25776  40.372   1.451  13.301
60957W        W25777  30.304  38.386   2.850
60958W        W25778  12.764   0.078  13.329
60959W        W25779  17.211  31.793  11.489
60960W        W25780  25.517   7.175   3.288
60961W        W25781  10.372   5.335   5.220
60962W        W25782  12.757   2.686  13.081
60963W        W25783  11.361  14.798   2.295
60964W        W25784   2.930  36.291  11.683
60965W        W25785   5.631  22.727   2.779
60966W        W25786  33.328   7.328  11.111
60967W        W25787  31.550  33.764  11.927
60968W        W25788  18.244  16.235  10.860
60969W        W25789  24.781  39.039  10.989
60970W        W25790  19.048  33.784  13.464
60971W        W25791  22.883  28.966   4.243
60972W        W25792   4.520  33.633  11.349
60973W        W25793  37.030   2.495   0.431
60974W        W25794  34.066  18.771   0.473
60975W        W25795  21.060  31.660  14.897
60976W        W25796  40.061  21.038   2.649
60977W        W25797   8.973  20.480  12.322
60978W        W25798  43.099  20.490   0.768
60979W        W25799  18.133  12.701   4.324
60980W        W25800  14.652  24.554  11.513
60981W        W25801  30.058  10.195  14.430
60982W        W25802  34.706  23.220  13.877
60983W        W25803  31.400  39.572  13.385
60984W        W25804  43.429  28.718  11.202
60985W        W25805   7.649  28.639  13.680
60986W        W25806  32.025  22.914  11.184
60987W        W25807   3.809   9.891  14.434
60988W        W25808  17.492   5.193   1.614
60989W        W25809  43.427  22.003   4.740
60990W        W25810   9.661  29.381  11.512
60991W        W25811  22.516  42.776  13.306
60992W        W25812  18.588  33.090  11.280
60993W        W25813  26.141  25.620   4.159
60994W        W25814  33.579  28.270   1.950
60995W        W25815  14.521  13.249  13.019
60996W        W25816   6.101  39.467   0.407
60997W        W25817   5.448  38.326  14.950
60998W        W25818  42.736  13.666   4.575
60999W        W25819  30.467  12.217  14.444
61000W        W25820   6.730  35.860  11.826
61001W        W25821   2.706  20.204  11.503
61002W        W25822  18.227  42.255  13.513
61003W        W25823  33.691  37.023   3.659
61004W        W25824   8.502  12.804   3.768
61005W        W25825   2.393  37.006  14.128
61006W        W25826   1.445  20.288   1.195
61007W        W25827  17.189   3.687   4.708
61008W        W25828  20.532  24.951   2.744
61009W        W25829  15.600   7.755   0.232
61010W        W25830  44.314  17.754   2.218
61011W        W25831  35.186  32.504  11.172
61012W        W25832   6.780   8.792  11.670
61013W        W25833  35.872  40.602  14.459
61014W        W25834  19.802  37.920   1.896
61015W        W25835  34.257  27.618   5.494
61016W        W25836  11.774  27.280   0.676
61017W        W25837  12.395  26.518  14.517
61018W        W25838   9.116  36.363   3.218
61019W        W25839  11.856  34.413  10.718
61020W        W25840   4.174  17.262   0.232
61021W        W25841  15.258   0.370   0.811
61022W        W25842  19.826   1.895  12.974
61023W        W25843  17.569  27.030  12.457
61024W        W25844   5.916  32.912  12.332
61025W        W25845  21.423   2.949   4.109
61026W        W25846  24.035  26.527   4.264
61027W        W25847  44.715  21.738  13.030
61028W        W25848   8.307  38.667   1.978
61029W        W25849  14.588  17.960  11.990
61030W        W25850  12.702  17.852   3.234
61031W        W25851  43.352  35.939  14.404
61032W        W25852  34.107  33.498  12.800
61033W        W25853  35.335   6.794   2.723
61034W        W25854  41.759   1.899   2.603
61035W        W25855  32.140  12.620   2.821
61036W        W25856  16.722  33.123  11.521
61037W        W25857  35.489   2.396  14.571
61038W        W25858  19.994  28.688   2.112
61039W        W25859   5.212  40.330   3.605
61040W        W25860  42.057  31.164  11.921
61041W        W25861  14.195   5.047  14.036
61042W        W25862  17.297  29.664  13.922
61043W        W25863  19.404  14.307  10.840
61044W        W25864   4.377   8.899  11.173
61045W        W25865  30.921  32.325   3.753
61046W        W25866  13.903  13.185   2.726
61047W        W25867  16.986  19.076   1.051
61048W        W25868  21.112  39.474   2.885
61049W        W25869  42.396  23.700  12.008
61050W        W25870  11.739   0.588  10.241
61051W        W25871  41.198  34.514  13.386
61052W        W25872  16.672  41.414   0.344
61053W        W25873   8.344  14.675  14.019
61054W        W25874  31.987  25.689   2.512
61055W        W25875   5.422  31.472   0.337
61056W        W25876  26.090  17.362   0.470
61057W        W25877  44.605  39.990  10.713
61058W        W25878  39.521  40.569   4.183
61059W        W25879  36.079  31.410  12.170
61060W        W25880   2.400   0.863  12.491
61061W        W25881  30.066  25.223   2.710
61062W        W25882  35.230  25.132   5.073
61063W        W25883   0.325  33.400   4.961
61064W        W25884  15.606   5.818   3.564
61065W        W25885  29.013   8.913   2.853
61066W        W25886   2.715   9.869  10.790
61067W        W25887  21.274   4.386   4.284
61068W        W25888  36.182  35.028   3.216
61069W        W25889  15.548  32.531   0.946
61070W        W25890  33.861  14.209  11.770
61071W        W25891  13.312  29.615  13.087
61072W        W25892   3.691  28.073  11.936
61073W        W25893  18.646  17.681   0.933
61074W        W25894  40.654  24.644   0.463
61075W        W25895  16.124  32.781  12.067
61076W        W25896  21.636   5.534   3.880
61077W        W25897   8.949  39.479   0.963
61078W        W25898  30.702  32.260  11.328
61079W        W25899  20.079   7.984   2.670
61080W        W25900  21.549  40.831  11.662
61081W        W25901  23.034  38.550  14.758
61082W        W25902  26.606  14.170  14.879
61083W        W25903  12.801   8.093   2.249
61084W        W25904   6.348  26.450  11.943
61085W        W25905  41.092  25.293  13.943
61086W        W25906  26.384   1.739  12.017
61087W        W25907  15.100  29.517  14.678
61088W        W25908  35.994  20.482   3.780
61089W        W25909  26.691  37.944   0.364
61090W        W25910  10.133  24.980  12.555
61091W        W25911  41.063   6.074  14.268
61092W        W25912  40.878  42.869  10.357
61093W        W25913   1.339   8.092  11.991
61094W        W25914   5.919  36.555  13.471
61095W        W25915  41.853  40.550  13.780
61096W        W25916  32.457  19.081   2.815
61097W        W25917  30.430  21.301   0.898
61098W        W25918   0.497  20.055   1.215
61099W        W25919  18.466  19.254   0.316
61100W        W25920  12.873  20.787  12.138
61101W        W25921  15.797  16.722  13.629
61102W        W25922  27.782  26.144   2.758
61103W        W25923  13.261   3.376  15.000
61104W        W25924  28.026  36.819  14.889
61105W        W25925  10.870  39.316   2.217
61106W        W25926  34.554  40.941  14.148
61107W        W25927   6.783   3.385   0.516
61108W        W25928  12.404  16.962  12.901
61109W        W25929  13.403  26.066   3.441
61110W        W25930   0.330  41.568   2.333
61111W        W25931   0.241  35.428  10.796
61112W        W25932   6.368   9.240  13.504
61113W        W25933  24.117  11.385   1.938
61114W        W25934   8.307  41.497  12.528
61115W        W25935  29.945  30.554  14.716
61116W        W25936  10.353  30.077   4.969
61117W        W25937  36.139  23.315   1.341
61118W        W25938   5.000  17.822  12.908
61119W        W25939   5.727  11.885  14.758
61120W        W25940  30.148  24.534   2.263
61121W        W25941   6.663  29.639   4.923
61122W        W25942  13.157  35.553   1.297
61123W        W25943   7.630  13.284  13.545
61124W        W25944  42.535  42.131   0.445
61125W        W25945  38.630   9.838   2.923
61126W        W25946  36.183  38.396   0.170
61127W        W25947  40.723  16.798   4.270
61128W        W25948  22.716  12.997   0.855
61129W        W25949  29.390  29.625  13.169
61130W        W25950   6.277  25.205   4.559
61131W        W25951  34.879  38.860   2.247
61132W        W25952   3.022  32.460  13.878
61133W        W25953  43.288  25.408   0.805
61134W        W25954  39.138   6.003   0.252
61135W        W25955  12.763  41.847   2.460
61136W        W25956  38.062  29.153   1.884
61137W        W25957  32.357   4.953   4.636
61138W        W25958  27.476  34.002   4.983
61139W        W25959  42.870  37.284   0.911
61140W        W25960  18.860  26.855  11.194
61141W        W25961  34.512   3.797  11.224
61142W        W25962  10.348  24.946   1.115
61143W        W25963  10.921  36.611   1.872
61144W        W25964  12.228  31.155  11.803
61145W        W25965  12.668  26.712  11.371
61146W        W25966   8.723  16.231   9.507
61147W        W25967  12.722  37.052   3.315
61148W        W25968  37.931   8.691  11.695
61149W        W25969  35.870   7.740  14.032
61150W        W25970  28.023  14.674   3.045
61151W        W25971   9.977  27.157   4.265
61152W        W25972   3.764  24.140  10.695
61153W        W25973  30.624   3.062  11.647
61154W        W25974   4.041  25.043   0.881
61155W        W25975  27.560  12.432   4.284
61156W        W25976   5.373   8.256   1.231
61157W        W25977  23.004  15.181  13.525
61158W        W25978  40.703   1.046   1.769
61159W        W25979  13.770  16.928   3.391
61160W        W25980  39.241  30.144  14.958
61161W        W25981  35.871  26.264   3.189
61162W        W25982  33.560  17.656   1.719
61163W        W25983  21.538  42.891   4.617
61164W        W25984  17.186  26.109  14.624
61165W        W25985  35.577  16.769  12.271
61166W        W25986  32.629  26.243   4.314
61167W        W25987  25.232  12.292  11.436
61168W        W25988  44.998  11.173  14.407
61169W        W25989  14.874  31.952   0.396
61170W        W25990  27.692  13.966  11.224
61171W        W25991  18.253  36.960  14.448
61172W        W25992  19.094  15.725  14.828
61173W        W25993  43.061  37.064  11.711
61174W        W25994  21.181   3.942  11.573
61175W        W25995  16.712  22.519   4.573
61176W        W25996  26.900  16.165   2.374
61177W        W25997  22.156  15.284  14.034
61178W        W25998  44.561  41.094  14.779
61179W        W25999   7.167  13.570  14.403
61180W        W26000  16.700  30.853  13.064
61181W        W26001   4.479   4.954   2.048
61182W        W26002   8.675  41.787   4.544
61183W        W26003   1.905  32.821   0.819
61184W        W26004  23.196  44.837   3.131
61185W        W26005   8.338  24.213   2.820
61186W        W26006  22.573  20.978  10.129
61187W        W26007   1.293  30.011  11.132
61188W        W26008  10.918  34.522   2.857
61189W        W26009  21.176   3.864   2.876
61190W        W26010  25.327  28.663   2.478
61191W        W26011  11.115  42.472  14.294
61192W        W26012  18.721   2.464   1.745
61193W        W26013  41.088  12.917   4.935
61194W        W26014  42.867  17.194  10.707
61195W        W26015   8.181  17.540  10.577
61196W        W26016  44.915  25.021  10.757
61197W        W26017   4.938   9.690  13.719
61198W        W26018  42.309  21.853   2.822
61199W        W26019  22.020  25.128   2.054
61200W        W26020   9.928   8.903  14.026
61201W        W26021  36.858  24.699   3.982
61202W        W26022   6.357  26.640   3.821
61203W        W26023  12.180  37.842   1.038
61204W        W26024  16.809   9.002   2.537
61205W        W26025  11.019  23.025  13.145
61206W        W26026  42.756  18.701  11.237
61207W        W26027  22.418   4.476  12.849
61208W        W26028   9.082  12.327  12.976
61209W        W26029  15.554  26.106   4.473
61210W        W26030   8.668   4.888   9.723
61211W        W26031  29.269  14.550  11.226
61212W        W26032  12.540  18.720   5.426
61213W        W26033  33.907   2.835   2.314
61214W        W26034  30.013   5.988  14.844
61215W        W26035  16.832  37.501  13.016
61216W        W26036   9.667  44.217  14.915
61217W        W26037  10.388  23.591   4.391
61218W        W26038  35.905   0.733   3.876
61219W        W26039  35.071  11.711   2.829
61220W        W26040   0.741  36.521  10.666
61221W        W26041  28.514  23.260   3.192
61222W        W26042  41.464  33.850   2.242
61223W        W26043  11.753  15.087  14.042
61224W        W26044  43.248   5.158  14.436
61225W        W26045  25.411  40.395  13.072
61226W        W26046  28.207  29.585   2.803
61227W        W26047  43.465  27.390  11.619
61228W        W26048  24.285  43.375  10.729
61229W        W26049  36.428  33.387  11.021
61230W        W26050  23.011  27.237   3.546
61231W        W26051  12.550  15.946   0.447
61232W        W26052  29.981   9.698   1.672
61233W        W26053   3.978  35.881   3.176
61234W        W26054  15.383  43.725   4.476
61235W        W26055  25.031   2.206   0.726
61236W        W26056  28.043  12.628  13.278
61237W        W26057  34.573   3.185  14.848
61238W        W26058  12.066  17.962   1.753
61239W        W26059  33.579  44.367   2.001
61240W        W26060   6.110  22.488  11.424
61241W        W26061  29.186  16.322   2.339
61242W        W26062  33.668  44.383  12.499
61243W        W26063  41.538   0.420  13.849
61244W        W26064  32.002   4.536   1.178
61245W        W26065  36.844  38.568  14.372
61246W        W26066  36.914  14.950   4.018
61247W        W26067  31.970  41.262  12.705
61248W        W26068  16.191  12.356  11.344
61249W        W26069  37.523  27.196   2.821
61250W        W26070   8.639  33.683  12.941
61251W        W26071  31.930  29.842   0.295
61252W        W26072  35.331  28.002  14.366
61253W        W26073  30.656  43.011  13.450
61254W        W26074  33.619  38.096   1.160
61255W        W26075  36.548  25.788   4.578
61256W        W26076  34.454  20.549  10.699
61257W        W26077  40.968  33.508  14.820
61258W        W26078  30.739   5.763   3.810
61259W        W26079   4.244  35.423   4.235
61260W        W26080   3.453  35.066   1.255
61261W        W26081  27.954   2.475  12.802
61262W        W26082  10.646  14.124  11.240
61263W        W26083  10.910   0.866   3.812
61264W        W26084   9.492   5.290  13.995
61265W        W26085  28.098  12.746   3.663
61266W        W26086  11.120  42.754   1.872
61267W        W26087   5.903   1.465   4.722
61268W        W26088  22.315  26.141  14.277
61269W        W26089  17.526  37.395   3.073
61270W        W26090  22.280  28.557  10.699
61271W        W26091  41.425  25.677  11.971
61272W        W26092  41.734  10.276  14.829
61273W        W26093   0.518  21.209   0.070
61274W        W26094  31.746   7.785  10.709
61275W        W26095  15.743  39.773   2.342
61276W        W26096  21.187  33.429  12.197
61277W        W26097  33.165  24.859  11.526
61278W        W26098  18.386   5.322  10.807
61279W        W26099  22.267   9.813  12.995
61280W        W26100  21.652   8.694  12.428
61281W        W26101  36.399  31.885  11.178
61282W        W26102  27.229  33.832   4.573
61283W        W26103  44.451   0.555   3.586
61284W        W26104  42.985  14.331  11.339
61285W        W26105  12.624  32.592   2.842
61286W        W26106   1.778  20.016  14.380
61287W        W26107  35.819   3.909   1.085
61288W        W26108  29.283  22.224   4.856
61289W        W26109  24.543   1.179  13.495
61290W        W26110  18.108  10.964   1.870
61291W        W26111  38.398  37.388   4.786
61292W        W26112  40.322  29.745  12.941
61293W        W26113  17.057  27.037  12.432
61294W        W26114  33.851  39.017   1.392
61295W        W26115  13.902  34.278   1.705
61296W        W26116  14.335  33.517  10.928
61297W        W26117  23.508   2.707  13.929
61298W        W26118  40.863  18.101   2.566
61299W        W26119   5.842  33.804  11.792
61300W        W26120  28.539  44.506   1.791
61301W        W26121  40.295  19.721   3.718
61302W        W26122  15.609  36.506  14.413
61303W        W26123  36.446  31.389  11.231
61304W        W26124  29.479  41.994   2.854
61305W        W26125   6.804   7.295  11.311
61306W        W26126  41.071   8.765   1.103
61307W        W26127   2.917   6.907  11.593
61308W        W26128  19.532  25.559  14.429
61309W        W26129  13.578  22.090  14.185
61310W        W26130  32.829  18.642   0.361
61311W        W26131  14.354  31.131  14.504
61312W        W26132  38.309  16.310   3.143
61313W        W26133  34.652  44.251   3.921
61314W        W26134  20.531  25.527  10.518
61315W        W26135  19.578  18.288   0.576
61316W        W26136  35.540  10.227  12.866
61317W        W26137  16.733   8.279   3.803
61318W        W26138  43.517  24.427   3.340
61319W        W26139   0.371  32.106  10.619
61320W        W26140  32.594  15.819   0.804
61321W        W26141  36.583  35.037   1.261
61322W        W26142  39.571   2.774   2.626
61323W        W26143   4.699  40.180   0.810
61324W        W26144  13.625  32.075   3.412
61325W        W26145  19.907  40.277   2.882
61326W        W26146  19.602  23.483   2.821
61327W        W26147  25.829  16.937   0.339
61328W        W26148  35.979  34.790  11.133
61329W        W26149  10.102  43.044   1.858
61330W        W26150  31.402   3.075  11.147
61331W        W26151  19.158  19.589  13.907
61332W        W26152  12.316   2.953  13.101
61333W        W26153   5.828  38.219   3.723
61334W        W26154  20.809  16.764  10.721
61335W        W26155   4.346   9.800  14.437
61336W        W26156  13.842  35.676  12.158
61337W        W26157   7.613   8.453   3.632
61338W        W26158  22.114  42.953  13.546
61339W        W26159  29.828  27.076  13.500
61340W        W26160   1.767   8.842  12.597
61341W        W26161  11.557  15.302  14.944
61342W        W26162  14.217  19.110   0.290
61343W        W26163  31.375   0.138   3.168
61344W        W26164  27.984   2.777  11.993
61345W        W26165  27.963  10.610  11.547
61346W        W26166  22.141  26.750   1.262
61347W        W26167  11.133  28.222   3.327
61348W        W26168  11.244  41.021   3.797
61349W        W26169  35.481  17.593  14.354
61350W        W26170  36.102   0.796  13.801
61351W        W26171  39.476  24.740   1.734
61352W        W26172   9.317  39.513   1.406
61353W        W26173  22.937  24.055  14.783
61354W        W26174   2.368   1.926   2.814
61355W        W26175  30.901  31.824   3.950
61356W        W26176  41.334  44.232   1.291
61357W        W26177  17.635  42.814  11.690
61358W        W26178  40.525  14.906  10.644
61359W        W26179   5.016   2.720   4.165
61360W        W26180  24.975  11.699   1.335
61361W        W26181  16.267  44.134  14.545
61362W        W26182  35.478  32.573  10.757
61363W        W26183   9.781  27.457  14.946
61364W        W26184   1.603  38.766  13.370
61365W        W26185   8.408  36.110  14.321
61366W        W26186   7.580   9.023   1.963
61367W        W26187  37.121  38.343   3.405
61368W        W26188  39.856  26.179  12.673
61369W        W26189  28.416  38.812  12.003
61370W        W26190  23.952  21.579  13.912
61371W        W26191  31.052   4.047   2.828
61372W        W26192  35.391  13.628   4.482
61373W        W26193   7.866  24.977   2.660
61374W        W26194   3.766  35.497  11.132
61375W        W26195  16.041  38.260  11.587
61376W        W26196  11.936   0.898   3.649
61377W        W26197  15.214  15.809   2.787
61378W        W26198  15.241  25.026  13.055
61379W        W26199  34.736  32.742   0.334
61380W        W26200  14.762   8.732   0.774
61381W        W26201  44.065  26.467   1.462
61382W        W26202  32.000   6.504  11.214
61383W        W26203  33.294  14.066  10.105
61384W        W26204  33.910  23.298  11.019
61385W        W26205  43.912  11.693  11.692
61386W        W26206  29.420  19.521  13.499
61387W        W26207  40.384  17.837  13.954
61388W        W26208  42.217  32.082   1.433
61389W        W26209  30.924  41.218   2.775
61390W        W26210   0.940  23.133  10.718
61391W        W26211  31.039   7.878  11.445
61392W        W26212  19.314  37.877   0.468
61393W        W26213  36.910  15.966   3.067
61394W        W26214  34.076   2.192   2.870
61395W        W26215   1.363   1.389   2.304
61396W        W26216  26.061   4.760  12.837
61397W        W26217   7.217  39.852   1.109
61398W        W26218  17.181   3.404   2.735
61399W        W26219  37.444  40.518   4.636
61400W        W26220  22.541  25.094  12.235
61401W        W26221  25.720   5.278   3.536
61402W        W26222  15.998   4.022  11.310
61403W        W26223   0.168  21.730  14.023
61404W        W26224  29.457  32.895  14.367
61405W        W26225   8.400  21.461   4.525
61406W        W26226   8.956  39.936  14.363
61407W        W26227  22.003  34.860   0.556
61408W        W26228  25.165   2.508   0.305
61409W        W26229  30.971   5.578  11.273
61410W        W26230  31.054  43.519   0.667
61411W        W26231  13.888  18.792  11.544
61412W        W26232  36.241   2.906  14.685
61413W        W26233  17.610  37.760  12.003
61414W        W26234  19.836  30.637  13.823
61415W        W26235  14.124  12.809  14.921
61416W        W26236  21.339  13.402  14.004
61417W        W26237   3.696  19.998   1.340
61418W        W26238  29.410  29.115   0.421
61419W        W26239   9.719   2.833   3.243
61420W        W26240  22.891  16.319  11.164
61421W        W26241  23.582  14.881   3.664
61422W        W26242  39.880  44.289   1.771
61423W        W26243  11.727   8.214  12.076
61424W        W26244  44.141   4.465  11.015
61425W        W26245   6.361  24.120   3.714
61426W        W26246  38.167  28.411   1.342
61427W        W26247  35.861  36.845   4.710
61428W        W26248  35.553   0.980   0.912
61429W        W26249  19.358  10.989   0.435
61430W        W26250  19.620  21.097  11.353
61431W        W26251  22.610  33.044  12.935
61432W        W26252   8.247  18.169   1.294
61433W        W26253  13.673  36.668  12.009
61434W        W26254  17.993  44.219  10.510
61435W        W26255   0.646  16.163  14.706
61436W        W26256  31.064  24.104   5.343
61437W        W26257   2.513  29.454   2.745
61438W        W26258  41.841  24.925  11.682
61439W        W26259  42.225  27.430  11.213
61440W        W26260  10.466  41.679  12.059
61441W        W26261  33.727  26.571   2.859
61442W        W26262  39.539  39.730  11.653
61443W        W26263  41.707  43.463   2.972
61444W        W26264  22.223   6.091  14.565
61445W        W26265  31.019   4.376   2.422
61446W        W26266  33.488  14.662   0.596
61447W        W26267  22.493  11.139  13.951
61448W        W26268  31.871  34.317   1.758
61449W        W26269  29.399  34.985   3.032
61450W        W26270  31.013  29.706  14.958
61451W        W26271  43.992   6.128  11.661
61452W        W26272  17.583  40.976  10.337
61453W        W26273  28.402  27.684  14.867
61454W        W26274  18.733  17.069   3.627
61455W        W26275  16.122  40.858   0.894
61456W        W26276  19.954  18.220   4.139
61457W        W26277   2.510   5.618  11.602
61458W        W26278  23.615  22.445  13.326
61459W        W26279  21.524  35.962  13.010
61460W        W26280  44.401  23.038   1.039
61461W        W26281  13.867  19.165   1.788
61462W        W26282   9.318  15.656  13.042
61463W        W26283  12.113  16.712   1.074
61464W        W26284  26.977  15.337  13.857
61465W        W26285  39.394  13.638   1.185
61466W        W26286  31.954   4.827   3.205
61467W        W26287  23.539  30.038   0.826
61468W        W26288   3.219   8.357  11.640
61469W        W26289  24.465  34.822   5.441
61470W        W26290  31.616  13.361  14.768
61471W        W26291  26.553  28.161   3.982
61472W        W26292   5.863   1.022  10.807
61473W        W26293  18.235  25.705  10.642
61474W        W26294  27.165  27.856  14.456
61475W        W26295  40.592  10.516   3.904
61476W        W26296  40.641  32.911   1.265
61477W        W26297   7.748  35.802   2.110
61478W        W26298  29.554  35.432  14.476
61479W        W26299  44.903  15.288   1.887
61480W        W26300  33.006   9.061   3.204
61481W        W26301  34.466  39.252   4.136
61482W        W26302   6.638   0.340   4.057
61483W        W26303   7.801  35.536   1.082
61484W        W26304  32.129   4.678  13.148
61485W        W26305  43.465  26.765  11.173
61486W        W26306  33.358  34.533   1.887
61487W        W26307  43.843  39.027   2.122
61488W        W26308   5.835  32.345   3.730
61489W        W26309  21.848  38.360   1.202
61490W        W26310   6.862   8.229  10.658
61491W        W26311  16.184   4.213   1.672
61492W        W26312  30.553  42.842   2.820
61493W        W26313  43.065  11.857  14.677
61494W        W26314  30.375  21.218  12.356
61495W        W26315  32.087   6.443   2.279
61496W        W26316  23.631  11.663   4.888
61497W        W26317   4.415  21.105  10.227
61498W        W26318  39.503  19.352   2.153
61499W        W26319  29.890  31.879  14.362
61500W        W26320  25.515   7.918  12.941
61501W        W26321  44.498  14.264   4.465
61502W        W26322  41.894  18.515   4.186
61503W        W26323  25.951  10.264   3.426
61504W        W26324  33.152  19.483   2.517
61505W        W26325   2.736  10.799   3.794
61506W        W26326  23.704  17.032  12.125
61507W        W26327  10.368  10.434   3.328
61508W        W26328  26.302   9.878   0.933
61509W        W26329   6.495   4.778   0.892
61510W        W26330  43.047   4.912   2.132
61511W        W26331   3.259  18.814  14.963
61512W        W26332  36.631  12.028  11.992
61513W        W26333   7.277  29.066   2.416
61514W        W26334   2.195  26.622  11.922
61515W        W26335  16.784  35.429   0.919
61516W        W26336  39.562  37.420  14.477
61517W        W26337   4.161  36.532  14.678
61518W        W26338  12.471  41.992   3.434
61519W        W26339  20.076  39.884   4.835
61520W        W26340  33.904  40.550   3.755
61521W        W26341  13.843  27.343  11.688
61522W        W26342  20.486  13.616   4.669
61523W        W26343   7.790   3.532  10.507
61524W        W26344  16.786  41.449   4.163
61525W        W26345  33.101  19.288  13.110
61526W        W26346  42.322  16.660  14.804
61527W        W26347  43.804  18.819   1.787
61528W        W26348  22.189  35.611   3.340
61529W        W26349   4.772  11.286   1.742
61530W        W26350  16.660  28.717  12.096
61531W        W26351  22.587  26.568   1.425
61532W        W26352   3.473  42.818   4.491
61533W        W26353  12.198  27.227  10.707
61534W        W26354  25.203  13.651  13.363
61535W        W26355  16.130  36.271   1.767
61536W        W26356   7.146  42.969  12.109
61537W        W26357  20.456  44.996  12.589
61538W        W26358  21.580   5.597   0.210
61539W        W26359   1.933  20.913   0.554
61540W        W26360  23.083   8.788   3.575
61541W        W26361  44.763   9.173  14.955
61542W        W26362  15.366  21.086   4.541
61543W        W26363  13.547  44.375   3.866
61544W        W26364  32.534  22.864  11.115
61545W        W26365  33.868   8.609   3.871
61546W        W26366  40.418  35.528  12.569
61547W        W26367  14.692  34.841  12.760
61548W        W26368  31.878  12.959  13.377
61549W        W26369  17.211   3.697   0.791
61550W        W26370  37.886  11.083   4.921
61551W        W26371  11.942  41.084  10.834
61552W        W26372  34.354  27.659  12.887
61553W        W26373  37.792  40.936   4.207
61554W        W26374   7.876   8.763  12.819
61555W        W26375  22.067  37.769  13.890
61556W        W26376  20.477  14.261   3.215
61557W        W26377  34.840  29.464  14.472
61558W        W26378   8.244  12.609   1.577
61559W        W26379   0.323  16.600   0.766
61560W        W26380  26.940  18.541  14.374
61561W        W26381  24.043  33.913   3.965
61562W        W26382  28.006  34.135  13.566
61563W        W26383  32.558  30.465   0.399
61564W        W26384  43.739  40.840  11.200
61565W        W26385  15.320   6.298   3.629
61566W        W26386  15.161  37.007  13.761
61567W        W26387  29.986  37.131  14.398
61568W        W26388  30.996  18.638  12.391
61569W        W26389  13.131  26.609   2.123
61570W        W26390  23.123  37.447   3.211
61571W        W26391  39.492   3.471  13.870
61572W        W26392  27.621  41.213  11.144
61573W        W26393  18.726  35.628  11.575
61574W        W26394  44.358  44.009   0.545
61575W        W26395  29.159  40.841   3.527
61576W        W26396  29.495  30.521  11.688
61577W        W26397   5.351   0.780   0.449
61578W        W26398   6.479  31.891  14.106
61579W        W26399  14.323  31.461   3.483
61580W        W26400  13.061  28.586   1.590
61581W        W26401  17.231  17.969  10.882
61582W        W26402   1.968  31.871   2.815
61583W        W26403  31.245   0.025  14.231
61584W        W26404  23.576  36.927  13.876
61585W        W26405  41.761  35.315   3.448
61586W        W26406  22.304  11.823  11.996
61587W        W26407   4.669  20.688   1.344
61588W        W26408  30.693  18.157   3.711
61589W        W26409  38.548  35.005   2.217
61590W        W26410  13.110  31.316  10.712
61591W        W26411  27.189  19.104   5.171
61592W        W26412  28.650  28.913   0.743
61593W        W26413  29.008  25.094  12.115
61594W        W26414   4.420   2.721  10.712
61595W        W26415  24.610   3.774  12.911
61596W        W26416  26.122   3.993   0.328
61597W        W26417  22.805  34.204   4.962
61598W        W26418   0.279   8.141   3.652
61599W        W26419  24.249  24.028   4.991
61600W        W26420   0.255  38.517   4.096
61601W        W26421  15.823  13.717  13.173
61602W        W26422  27.748  24.717  13.053
61603W        W26423  24.052   3.291  12.262
61604W        W26424  19.464  41.460  10.830
61605W        W26425   0.141  37.995   1.766
61606W        W26426  29.638  23.205  13.146
61607W        W26427   0.269  12.328   1.307
61608W        W26428  42.422  39.313   0.250
61609W        W26429  41.492  10.149  12.997
61610W        W26430  14.295  13.273   3.093
61611W        W26431   3.019  39.434   4.254
61612W        W26432  31.927  34.689  13.018
61613W        W26433   5.318  37.582  11.672
61614W        W26434  31.909   2.195  10.670
61615W        W26435  10.734  27.488  14.838
61616W        W26436  35.974  10.938   0.738
61617W        W26437  28.921  17.625   4.704
61618W        W26438  21.540  17.049   4.740
61619W        W26439  19.266  15.848   3.709
61620W        W26440  44.911  22.045  11.538
61621W        W26441  10.987  30.621   1.668
61622W        W26442  12.087  22.257   4.406
61623W        W26443  21.582  39.546  10.788
61624W        W26444  30.034   9.905   4.138
61625W        W26445  38.912   9.113   4.097
61626W        W26446   9.566  42.094   1.753
61627W        W26447  10.738  39.874   0.904
61628W        W26448  18.010  41.972   0.723
61629W        W26449  22.369   1.698   4.740
61630W        W26450  20.369   3.039  12.393
61631W        W26451  40.370  20.220   3.610
61632W        W26452  26.252   1.932   3.748
61633W        W26453   5.315   1.171   3.157
61634W        W26454   8.179   5.437  10.725
61635W        W26455  35.053  10.676   0.803
61636W        W26456  12.220  28.688   3.347
61637W        W26457  35.260  22.180  12.908
61638W        W26458  39.384  26.816  13.627
61639W        W26459  29.483  37.150   3.322
61640W        W26460  33.856  27.447   2.837
61641W        W26461  10.309  29.069  10.169
61642W        W26462   5.983  38.474  13.588
61643W        W26463  15.356   2.408  12.556
61644W        W26464   7.301  15.447  13.922
61645W        W26465  23.546  31.001  12.243
61646W        W26466  44.107  19.078   2.114
61647W        W26467  13.991  24.961  10.931
61648W        W26468   1.457  20.210   0.228
61649W        W26469   4.881   5.319  13.596
61650W        W26470   1.558   5.334   3.623
61651W        W26471   7.607  30.206   5.026
61652W        W26472   4.738  12.694  14.542
61653W        W26473  11.946   8.510  12.506
61654W        W26474  34.824  20.225   0.734
61655W        W26475  24.999  43.430   3.658
61656W        W26476  33.817  44.779   1.242
61657W        W26477  31.927  38.142   0.797
61658W        W26478   9.714   8.905  10.941
61659W        W26479  28.463   1.808   2.223
61660W        W26480  30.964  20.583  13.248
61661W        W26481   0.812  24.112  13.379
61662W        W26482   5.415  15.394   3.145
61663W        W26483  24.772  16.320   0.455
61664W        W26484  30.556  29.639   0.217
61665W        W26485  17.048  13.706  14.262
61666W        W26486   4.020  37.601   1.668
61667W        W26487   1.060  23.997  13.802
61668W        W26488  14.641  35.603  11.043
61669W        W26489  35.105  12.599  11.730
61670W        W26490   3.277  37.435   4.714
61671W        W26491  25.211   3.831  11.681
61672W        W26492  34.350   6.412   2.207
61673W        W26493  21.699  19.893  11.033
61674W        W26494  40.836  44.463   1.450
61675W        W26495   8.809  28.925  14.479
61676W        W26496  13.313  30.014   4.359
61677W        W26497  14.364  12.291  10.790
61678W        W26498  23.216  22.919  13.780
61679W        W26499  12.395  39.858  13.126
61680W        W26500   2.342  14.340  12.464
61681W        W26501   3.495  39.361   4.088
61682W        W26502  33.663   9.252  13.981
61683W        W26503  32.891  36.161   2.759
61684W        W26504   0.994  18.883   1.618
61685W        W26505  35.047  25.752  14.851
61686W        W26506  29.901  40.500   3.757
61687W        W26507  15.498   0.436  13.460
61688W        W26508  30.547  10.722   3.806
61689W        W26509  27.003  31.252  12.005
61690W        W26510   9.878  12.821   2.282
61691W        W26511   5.866  31.565   1.207
61692W        W26512  28.454  28.676   2.706
61693W        W26513  41.936   7.861   1.666
61694W        W26514  43.745  29.154   0.084
61695W        W26515   7.136  32.401   1.926
61696W        W26516  10.239   7.198  12.484
61697W        W26517  33.294  26.303   2.095
61698W        W26518  10.096  35.298   2.568
61699W        W26519  39.014   6.460   2.423
61700W        W26520  28.152  44.447  14.730
61701W        W26521   6.946  22.282   4.529
61702W        W26522  18.597  36.624  12.572
61703W        W26523  17.050   2.997  11.057
61704W        W26524  15.036  18.178   9.803
61705W        W26525  27.502  37.114  14.266
61706W        W26526  20.712  27.485   4.437
61707W        W26527  31.843  21.601   0.814
61708W        W26528  17.047   0.781   1.866
61709W        W26529  36.830  16.802   1.343
61710W        W26530   1.518  15.254   3.146
61711W        W26531  34.980  44.099  11.386
61712W        W26532   8.865  11.167  11.668
61713W        W26533  36.508  13.289   0.255
61714W        W26534  23.688  34.881  12.023
61715W        W26535  22.080  27.705  13.523
61716W        W26536  32.053  25.985   0.751
61717W        W26537  34.187   2.704  12.261
61718W        W26538  35.295  37.544   4.544
61719W        W26539  26.257  42.402   2.140
61720W        W26540   2.629  17.647   1.399
61721W        W26541   0.291   6.281  14.463
61722W        W26542  28.552  42.645  14.902
61723W        W26543  23.714  22.593  10.955
61724W        W26544  10.772  34.289  14.530
61725W        W26545   4.944   3.705   4.465
61726W        W26546  35.625  41.739  12.507
61727W        W26547  44.821   4.242   3.249
61728W        W26548  34.971  26.489   1.746
61729W        W26549  16.246  44.163  11.334
61730W        W26550   0.190  43.077  11.445
61731W        W26551  34.333  38.422  13.873
61732W        W26552  37.428   3.010  12.403
61733W        W26553  36.115  36.810  12.114
61734W        W26554   9.473  20.612  12.456
61735W        W26555  31.374  27.790   1.954
61736W        W26556  31.532   2.542  14.509
61737W        W26557  11.235  38.605   1.439
61738W        W26558  26.671  13.325   4.630
61739W        W26559  36.839   1.446  14.878
61740W        W26560  16.883  20.519  11.672
61741W        W26561  10.366   7.910  14.552
61742W        W26562  22.742  22.113   4.578
61743W        W26563  24.169  36.529  13.072
61744W        W26564  22.951  11.947  11.117
61745W        W26565  18.794  41.329   4.487
61746W        W26566  14.322   9.403  11.529
61747W        W26567  24.963  41.952  14.729
61748W        W26568  18.693   7.998   1.299
61749W        W26569  13.883  15.461   4.953
61750W        W26570  35.399   2.821  13.350
61751W        W26571  27.736  10.156   5.138
61752W        W26572  38.916   8.657  10.519
61753W        W26573  44.837  11.255  10.634
61754W        W26574   8.929  28.439  14.518
61755W        W26575  44.425  10.205  14.051
61756W        W26576  44.194   1.082  12.050
61757W        W26577  30.679  30.841   4.244
61758W        W26578  29.768   1.722   0.896
61759W        W26579   8.366  24.179   2.309
61760W        W26580  18.116  20.722   3.210
61761W        W26581  37.385  40.220   2.891
61762W        W26582   4.320  14.145   3.343
61763W        W26583   9.413  30.610  11.102
61764W        W26584   0.682  39.326   2.161
61765W        W26585  17.816  35.560   2.344
61766W        W26586   9.717   8.865  10.423
61767W        W26587  21.058  17.177  12.313
61768W        W26588  13.663   2.267   2.348
61769W        W26589  44.922  21.587  10.573
61770W        W26590  29.899   8.198  11.498
61771W        W26591  25.761  16.230  11.122
61772W        W26592  11.811  38.757   0.221
61773W        W26593   4.212   6.250   1.295
61774W        W26594  34.564  17.140  12.544
61775W        W26595  25.619  18.738   0.121
61776W        W26596  19.728  30.070   0.187
61777W        W26597   4.177   4.878  11.644
61778W        W26598  19.814   0.792   2.248
61779W        W26599  12.204  12.398  14.527
61780W        W26600  25.168  31.104   2.630
61781W        W26601  29.181  44.759  11.490
61782W        W26602  27.089  24.595  11.215
61783W        W26603  19.314  27.094  11.057
61784W        W26604  16.860  18.317  14.455
61785W        W26605  16.489  39.795  13.409
61786W        W26606  32.801  26.319   2.638
61787W        W26607  28.351  20.474   3.063
61788W        W26608  11.393  22.671  13.998
61789W        W26609  11.570  18.656   3.333
61790W        W26610  24.924  19.021  11.609
61791W        W26611  38.271  28.672  12.245
61792W        W26612  18.040  14.306   0.264
61793W        W26613  37.001  33.963   4.703
61794W        W26614  29.855   1.370  12.613
61795W        W26615  22.587  33.200   3.546
61796W        W26616   0.861  40.055  14.781
61797W        W26617  14.813   8.160  13.489
61798W        W26618  21.784  26.518   4.540
61799W        W26619  23.521  18.296  14.530
61800W        W26620  18.209  27.787   0.344
61801W        W26621   8.656   4.068   3.051
61802W        W26622   3.394  29.525   2.164
61803W        W26623  15.191  30.701  13.350
61804W        W26624   0.230  34.961  11.195
61805W        W26625  15.566  41.887   4.069
61806W        W26626  20.701  19.708  14.275
61807W        W26627  28.039  28.417   1.211
61808W        W26628   6.874   2.498   4.770
61809W        W26629  40.732  16.650   2.936
61810W        W26630  23.077  34.966  13.616
61811W        W26631  11.670  33.062  11.133
61812W        W26632  17.282  36.407   0.974
61813W        W26633  26.083  22.028  11.207
61814W        W26634  21.188  40.384   3.457
61815W        W26635   6.887   1.822   2.646
61816W        W26636   2.742  31.029  12.209
61817W        W26637  43.432   4.446  13.991
61818W        W26638   8.812  44.760   1.151
61819W        W26639  21.756  33.467   3.753
61820W        W26640  43.482  26.362   0.932
61821W        W26641   9.369   1.917  12.004
61822W        W26642  15.144  25.456   1.838
61823W        W26643  26.184  33.713  13.401
61824W        W26644   9.349  13.277  12.952
61825W        W26645  11.767  17.343   5.444
61826W        W26646  10.624  32.210  13.496
61827W        W26647  13.910  23.012  12.392
61828W        W26648  42.369  26.087   4.810
61829W        W26649  19.095  30.687   2.732
61830W        W26650  38.586  35.890  12.994
61831W        W26651  36.977   9.298   2.818
61832W        W26652   8.898   3.290   0.872
61833W        W26653  19.903  29.586  13.921
61834W        W26654  31.300  38.397   3.028
61835W        W26655  19.301  21.243   1.343
61836W        W26656  28.987  22.469   0.034
61837W        W26657  16.794  13.152   0.891
61838W        W26658  17.921  14.743  10.670
61839W        W26659  44.356  11.612   2.087
61840W        W26660  22.677  42.054   1.918
61841W        W26661  10.213   4.634   0.456
61842W        W26662  28.079  35.120  11.967
61843W        W26663   1.774  29.958   4.699
61844W        W26664  18.283  35.843   0.893
61845W        W26665   9.293  21.163   0.712
61846W        W26666   6.897  43.049   2.759
61847W        W26667  38.861   0.390   1.929
61848W        W26668  41.619  15.132   0.918
61849W        W26669  32.521  11.207   1.683
61850W        W26670  29.497  27.427   2.353
61851W        W26671  30.008   0.471   3.771
61852W        W26672   8.661  22.848  11.946
61853W        W26673   7.685   5.819   1.259
61854W        W26674  42.972  35.861  13.552
61855W        W26675   1.478  31.717   2.890
61856W        W26676  33.966  42.870  13.161
61857W        W26677  18.810  24.565   1.794
61858W        W26678   6.478  29.168  14.278
61859W        W26679  19.014  27.999   4.942
61860W        W26680  13.935  33.065   0.399
61861W        W26681  43.214  19.614   0.515
61862W        W26682  31.100  14.687  10.425
61863W        W26683  38.908  24.387  14.462
61864W        W26684   6.550  44.802   2.877
61865W        W26685  22.908  18.355   2.828
61866W        W26686  10.449  17.592   2.363
61867W        W26687  38.526   4.875  12.400
61868W        W26688  16.144  36.578  11.796
61869W        W26689   3.724  31.583   1.146
61870W        W26690  18.129  34.446  10.617
61871W        W26691  25.073  41.133   4.112
61872W        W26692  43.046  34.615   3.185
61873W        W26693  27.006   6.860  14.956
61874W        W26694  44.944  19.095  13.343
61875W        W26695  18.256  18.632  12.210
61876W        W26696  42.011  14.119  12.920
61877W        W26697  23.666  22.142   3.494
61878W        W26698   3.737  26.715  12.569
61879W        W26699   4.952   6.906  12.014
61880W        W26700  25.252  11.179  11.041
61881W        W26701  16.068  24.479   1.888
61882W        W26702  29.624   6.961  14.506
61883W        W26703  11.870  20.189  13.266
61884W        W26704  22.067  37.060   3.506
61885W        W26705  17.233  39.977  12.958
61886W        W26706  19.611  25.097  14.703
61887W        W26707   2.420  19.708  12.954
61888W        W26708  21.805  36.036   1.921
61889W        W26709  10.343  17.769  12.128
61890W        W26710  22.122  29.950  11.022
61891W        W26711  40.184  29.077  11.575
61892W        W26712   7.118   4.420   3.272
61893W        W26713  22.100   4.597   4.764
61894W        W26714  18.376  43.832   4.586
61895W        W26715  29.050   6.276   4.607
61896W        W26716  18.351  14.819   1.324
61897W        W26717   2.691   8.773  12.961
61898W        W26718  12.829  41.470   0.143
61899W        W26719  39.804  23.568   3.567
61900W        W26720  34.633  44.884   1.607
61901W        W26721  19.246  37.895   1.413
61902W        W26722  18.652   3.174  13.446
61903W        W26723  36.778  35.042  10.752
61904W        W26724   4.356   5.270  11.907
61905W        W26725  19.089  43.539   0.786
61906W        W26726   0.171  13.848   4.918
61907W        W26727  26.236  41.873  11.162
61908W        W26728  35.527  37.358  12.977
61909W        W26729  19.156  26.355   3.287
61910W        W26730  33.984  27.881  13.741
61911W        W26731  17.065  12.689   4.942
61912W        W26732  44.359  26.034   0.293
61913W        W26733  16.814   6.849   2.158
61914W        W26734  21.010  42.668  13.415
61915W        W26735  27.265  23.038   4.423
61916W        W26736  19.021  33.652   3.075
61917W        W26737  32.635  13.722   0.152
61918W        W26738  33.149   9.292  14.035
61919W        W26739  17.337  31.896   1.740
61920W        W26740  18.515  28.018   4.062
61921W        W26741   7.744  23.495  14.345
61922W        W26742  17.386  26.399   4.097
61923W        W26743  20.408  43.593  10.901
61924W        W26744   1.254   8.285   1.296
61925W        W26745  12.306  20.369   4.664
61926W        W26746  21.091  30.569   2.119
61927W        W26747  38.116   7.428   2.350
61928W        W26748   6.198  24.465  14.325
61929W        W26749  22.054  38.260   2.551
61930W        W26750  39.428   6.131   2.302
61931W        W26751  24.626  31.150  12.459
61932W        W26752  37.601   9.424  12.490
61933W        W26753  21.831  12.078  11.981
61934W        W26754   5.142   7.806  14.982
61935W        W26755  32.043  28.510   3.979
61936W        W26756  26.503  26.229   0.741
61937W        W26757  16.378  11.621  11.713
61938W        W26758  36.259  15.222  12.378
61939W        W26759  37.366  21.213  13.034
61940W        W26760  39.225  43.660   4.993
61941W        W26761  39.815   6.126  14.880
61942W        W26762  30.002  27.551  12.839
61943W        W26763  18.377  38.115   3.949
61944W        W26764  25.056   0.914   0.465
61945W        W26765  30.514  14.521  11.145
61946W        W26766   2.992  33.157   4.817
61947W        W26767  11.699  22.038   2.200
61948W        W26768  36.075  14.164  11.473
61949W        W26769  12.541  10.977   0.715
61950W        W26770   0.811  31.053  12.378
61951W        W26771   3.867  41.564   3.854
61952W        W26772   6.694   0.775   0.844
61953W        W26773  19.237  32.020  14.897
61954W        W26774  33.486   3.702   4.881
61955W        W26775  36.910  16.104   2.185
61956W        W26776  10.520  25.171   1.541
61957W        W26777  20.577  38.614  12.987
61958W        W26778  23.976  22.115   0.430
61959W        W26779  23.015  13.239  10.746
61960W        W26780  10.781  39.101   9.929
61961W        W26781   0.178  26.511  10.692
61962W        W26782  20.753  41.260   3.490
61963W        W26783  31.400  42.331   3.555
61964W        W26784  25.617  15.457   3.409
61965W        W26785  13.074  17.820   1.823
61966W        W26786  35.445  14.595  12.823
61967W        W26787  28.449  35.615  14.461
61968W        W26788   6.147  34.952   1.813
61969W        W26789  29.119  36.851   1.697
61970W        W26790   7.862   4.941   0.413
61971W        W26791  12.399   8.333  10.571
61972W        W26792  36.970  23.592   2.691
61973W        W26793  23.581  43.437   2.317
61974W        W26794  17.351  32.513   1.425
61975W        W26795  34.645  27.912   4.157
61976W        W26796  12.604  33.027   4.543
61977W        W26797  39.821   1.782  14.420
61978W        W26798  20.949  10.460  13.755
61979W        W26799  17.336  20.234   3.082
61980W        W26800  13.378  39.073  14.033
61981W        W26801  37.372  37.951   3.148
61982W        W26802  33.399  22.769   3.293
61983W        W26803  11.098  14.383   4.146
61984W        W26804  29.557  42.315   2.398
61985W        W26805  31.664  12.320   1.281
61986W        W26806   9.923  27.551  13.614
61987W        W26807  23.196  16.837   2.780
61988W        W26808  15.592  11.258   4.121
61989W        W26809  23.160   7.425  13.806
61990W        W26810  14.386  21.574  12.373
61991W        W26811  29.194  12.331   1.399
61992W        W26812   0.294   3.211   3.947
61993W        W26813  10.712   8.401  13.401
61994W        W26814  16.279  29.020   0.450
61995W        W26815  16.045  26.467  14.967
61996W        W26816  19.484  19.597   2.735
61997W        W26817  18.133   0.458  11.717
61998W        W26818  28.866  27.463  14.852
61999W        W26819  28.230  20.020   4.489
62000W        W26820  28.383  20.834  10.176
62001W        W26821  17.114  20.529  10.664
62002W        W26822  22.270  38.497   3.162
62003W        W26823  32.482  32.548  14.828
62004W        W26824   8.664  21.759   2.621
62005W        W26825  38.128   7.296   4.139
62006W        W26826  43.768  22.993  12.033
62007W        W26827  26.882   7.477  13.987
62008W        W26828   5.127  38.919  13.373
62009W        W26829  41.259  27.074   3.746
62010W        W26830  15.667  44.517  12.668
62011W        W26831  41.502   4.365  13.312
62012W        W26832  30.233  37.549   2.268
62013W        W26833  15.569  25.769   1.738
62014W        W26834  26.705  25.298  13.174
62015W        W26835  18.309  38.055   0.958
62016W        W26836  43.733  34.436  13.495
62017W        W26837   5.408  37.909   4.852
62018W        W26838   1.255  33.341   1.244
62019W        W26839  24.994  42.566   3.900
62020W        W26840   1.388   8.980   0.302
62021W        W26841  27.215  13.266   0.781
62022W        W26842  42.470   7.477   1.853
62023W        W26843  30.097  19.868   0.529
62024W        W26844  11.830  17.767   2.201
62025W        W26845   3.925  36.919  14.443
62026W        W26846  38.930   0.037   3.270
62027W        W26847  12.067  41.027  11.948
62028W        W26848  23.656  31.482  13.339
62029W        W26849  26.749  12.214   2.194
62030W        W26850  29.164  31.316  10.913
62031W        W26851   1.973  19.522  14.329
62032W        W26852  20.675  38.689  11.082
62033W        W26853  15.990   9.351   2.737
62034W        W26854  11.836  33.752   2.682
62035W        W26855  12.861  16.038  13.039
62036W        W26856  19.825  41.212   1.800
62037W        W26857   1.046  34.956   2.076
62038W        W26858  22.311   1.096   4.823
62039W        W26859  19.107  38.629  14.982
62040W        W26860  36.044  44.671  13.921
62041W        W26861  11.301  42.100   0.440
62042W        W26862   1.242  43.983   0.588
62043W        W26863  31.098  14.307   4.109
62044W        W26864   4.626  41.455  14.962
62045W        W26865  14.733   0.426   1.892
62046W        W26866  42.980  12.718   1.887
62047W        W26867   2.766   0.855   3.327
62048W        W26868  11.698  34.832   3.511
62049W        W26869  28.238   8.827  10.930
62050W        W26870   2.409   9.622   1.823
62051W        W26871  32.072   1.810   2.386
62052W        W26872  18.319  11.381  14.072
62053W        W26873  34.774  39.659   1.745
62054W        W26874   9.153   9.830  13.461
62055W        W26875  19.720  19.093  12.196
62056W        W26876  12.473   7.576  12.922
62057W        W26877  44.764  25.610   1.488
62058W        W26878  28.166  32.885   1.335
62059W        W26879  40.644  27.445   0.596
62060W        W26880  38.689  13.808  14.483
62061W        W26881  32.863  25.856   1.273
62062W        W26882  24.525  40.048  11.510
62063W        W26883  30.440  42.430  13.928
62064W        W26884  44.894  29.426  11.641
62065W        W26885  38.431   5.670  13.815
62066W        W26886  29.609  38.461   0.823
62067W        W26887  10.768  34.973  13.979
62068W        W26888  39.498  14.484   4.899
62069W        W26889  22.491  22.483  13.714
62070W        W26890  25.388  21.764   3.545
62071W        W26891  30.156  19.114  11.090
62072W        W26892   6.335   1.806   0.244
62073W        W26893  31.483  36.522  10.427
62074W        W26894  30.790  12.804  11.042
62075W        W26895  14.792  15.853   0.450
62076W        W26896  28.742  32.403   4.039
62077W        W26897  25.992  13.633  13.882
62078W        W26898   3.873  41.032   3.777
62079W        W26899   2.914  18.359   1.739
62080W        W26900   4.459  32.382   1.289
62081W        W26901  14.562  19.790  13.314
62082W        W26902  27.874   0.456   0.478
62083W        W26903   2.712  27.633   3.172
62084W        W26904  14.194  27.734   3.403
62085W        W26905  38.776  30.020  12.841
62086W        W26906  12.599  35.525   0.860
62087W        W26907  43.351  22.023   1.840
62088W        W26908   1.536  35.612  11.186
62089W        W26909   5.971  12.591   5.091
62090W        W26910  37.532  20.899   4.462
62091W        W26911  18.320   5.835   0.319
62092W        W26912   4.971  20.922   2.328
62093W        W26913   8.265  16.264   9.826
62094W        W26914   3.160  25.563  14.940
62095W        W26915   0.398  39.397   4.680
62096W        W26916  37.317  21.115   2.635
62097W        W26917  16.713  36.039   0.169
62098W        W26918   9.155  12.742  11.217
62099W        W26919  35.112  34.925  14.364
62100W        W26920  30.630  37.537   1.226
62101W        W26921  29.699   9.597  13.893
62102W        W26922  18.405  32.429   4.643
62103W        W26923   8.905  42.554  12.217
62104W        W26924  34.120   6.206   3.627
62105W        W26925   5.217  15.685   2.748
62106W        W26926  39.880  35.883  11.953
62107W        W26927  29.148  19.624   3.764
62108W        W26928  21.470  31.718  13.933
62109W        W26929  25.066  10.898   2.462
62110W        W26930  38.856   6.881   0.899
62111W        W26931  17.559   6.764   1.525
62112W        W26932  37.497  16.763  10.221
62113W        W26933  28.566  19.765  11.460
62114W        W26934  12.054   2.618   0.827
62115W        W26935  15.553  31.569   0.880
62116W        W26936   0.151  42.933  14.837
62117W        W26937  40.284  21.188  11.552
62118W        W26938  11.184  14.488  10.284
62119W        W26939  39.478  19.986  11.662
62120W        W26940  13.059  21.243  12.012
62121W        W26941  10.249  43.486  14.629
62122W        W26942  14.874  33.066  13.471
62123W        W26943  31.611  19.229   4.438
62124W        W26944  27.710   2.717   3.077
62125W        W26945  29.742  27.942  14.490
62126W        W26946  13.298  30.548  12.855
62127W        W26947  27.233  18.351  12.564
62128W        W26948  18.528  39.567   4.599
62129W        W26949  37.822  15.047  13.395
62130W        W26950  17.867  42.955   3.788
62131W        W26951  20.281  26.118  14.561
62132W        W26952   8.828  21.283   0.537
62133W        W26953  25.558  25.690   1.256
62134W        W26954  37.440  35.500  10.934
62135W        W26955  21.129  34.233   3.750
62136W        W26956  29.723  14.723  11.985
62137W        W26957   2.454  18.632  14.420
62138W        W26958  26.702  31.865  12.450
62139W        W26959   5.851   5.973  14.167
62140W        W26960  39.907  20.652  12.881
62141W        W26961  38.724   0.233   3.685
62142W        W26962  22.351   4.960   3.651
62143W        W26963  10.829   8.712   4.093
62144W        W26964   9.271  26.160  14.268
62145W        W26965   2.233  39.279  11.480
62146W        W26966  13.825  29.267  11.856
62147W        W26967  35.730  40.580  12.863
62148W        W26968  12.196   0.903   3.145
62149W        W26969  18.048  38.696   5.150
62150W        W26970   1.044  33.092   0.820
62151W        W26971  25.609   2.774  12.488
62152W        W26972  10.890   7.234   0.374
62153W        W26973  34.526  27.009   2.615
62154W        W26974  31.570  25.259  13.060
62155W        W26975   1.663   9.220   4.517
62156W        W26976  42.602  24.253  14.262
62157W        W26977  10.496  13.831   0.407
62158W        W26978  36.419  16.024  14.966
62159W        W26979  24.830  27.328   0.668
62160W        W26980  18.224  29.715   1.348
62161W        W26981  30.363  19.015  12.823
62162W        W26982  18.090   2.416  12.038
62163W        W26983  43.887  42.367   0.918
62164W        W26984  43.477  33.638  12.126
62165W        W26985  44.404  14.181   0.659
62166W        W26986   2.723   4.496  13.051
62167W        W26987  12.758  10.677   1.331
62168W        W26988  18.362  28.131   1.656
62169W        W26989  25.061  44.017  13.505
62170W        W26990   5.158   7.604   0.491
62171W        W26991  19.869  17.843  12.556
62172W        W26992  27.767   1.861   3.669
62173W        W26993   4.733  15.022  12.927
62174W        W26994  29.911  27.511   4.542
62175W        W26995  24.123  34.462   0.706
62176W        W26996  33.957  13.740   2.686
62177W        W26997   2.746  13.808   1.968
62178W        W26998  25.730   0.294   3.598
62179W        W26999  12.732  44.905  13.927
62180W        W27000  25.105  30.752   1.214
62181W        W27001  33.628   1.933   2.668
62182W        W27002  25.316  21.623  11.574
62183W        W27003  44.195  13.435   2.783
62184W        W27004  40.620  35.916   2.613
62185W        W27005   7.235  19.379  12.837
62186W        W27006  21.545  41.925  13.608
62187W        W27007  17.369  16.008   1.218
62188W        W27008   8.591  26.657  11.583
62189W        W27009  34.707  23.239  12.420
62190W        W27010  12.353  34.827  14.485
62191W        W27011   1.468   4.185  14.792
62192W        W27012  19.477  23.184  10.578
62193W        W27013  17.062  39.888  11.642
62194W        W27014  39.027  34.966  14.385
62195W        W27015   7.453  21.440   0.626
62196W        W27016  25.190  39.998   3.535
62197W        W27017  32.454   5.740   1.258
62198W        W27018  12.368   4.824  10.669
62199W        W27019  44.573  26.037   3.231
62200W        W27020   2.869  24.406  11.629
62201W        W27021  10.593  10.115  13.264
62202W        W27022   9.521  41.737   2.130
62203W        W27023  40.083  20.611  13.391
62204W        W27024  28.915  36.533   3.324
62205W        W27025  36.346  15.871  13.561
62206W        W27026  11.385  28.453  14.500
62207W        W27027  38.079  17.668  13.534
62208W        W27028  24.139   8.265  13.005
62209W        W27029  12.992   2.203   4.853
62210W        W27030  10.665  27.401  13.051
62211W        W27031  30.910   7.888   0.088
62212W        W27032  25.191  25.588  14.483
62213W        W27033  13.215  22.197  11.322
62214W        W27034   5.719  40.283   1.766
62215W        W27035  13.141  36.077   1.346
62216W        W27036   3.991  43.443  11.751
62217W        W27037   8.786  16.267   3.157
62218W        W27038  38.014  40.442  11.212
62219W        W27039  15.935  40.937   3.983
62220W        W27040  13.559  33.399  14.441
62221W        W27041   2.054  13.190  14.433
62222W        W27042  29.662  15.148  13.493
62223W        W27043   4.373   0.286  11.739
62224W        W27044  15.342  33.005   4.233
62225W        W27045   0.744  39.475   1.158
62226W        W27046  11.274  27.952  14.486
62227W        W27047  11.249  15.105   4.451
62228W        W27048  11.803  33.678  14.724
62229W        W27049  25.240  11.613  10.740
62230W        W27050  36.598  15.905  11.137
62231W        W27051  35.400  28.633   4.727
62232W        W27052  29.978  33.936  11.991
62233W        W27053   5.972  29.732   1.834
62234W        W27054  33.573  29.621   1.351
62235W        W27055  42.927  15.574   1.362
62236W        W27056  42.542  20.600   3.328
62237W        W27057  34.846  26.188   4.576
62238W        W27058   6.270  33.517   0.321
62239W        W27059  21.019  36.540   9.922
62240W        W27060   8.264   5.635   0.260
62241W        W27061  30.007  20.047   0.055
62242W        W27062  34.799   0.457  10.238
62243W        W27063  41.282  12.258  12.354
62244W        W27064  35.375   4.766   1.304
62245W        W27065  37.366  35.508   0.902
62246W        W27066  28.004  10.775  13.721
62247W        W27067  37.377  12.668   4.178
62248W        W27068   0.309  29.619   2.833
62249W        W27069  10.821   6.838   4.491
62250W        W27070  38.848  35.010  13.883
62251W        W27071  13.757  32.727   4.465
62252W        W27072  41.316  38.060   0.836
62253W        W27073  24.372  33.721  10.268
62254W        W27074   7.637  14.917   4.845
62255W        W27075  33.947  26.919  13.346
62256W        W27076   6.757  36.947  14.843
62257W        W27077  17.839   7.085  12.824
62258W        W27078   2.436   9.555   3.031
62259W        W27079  44.934  24.465   4.102
62260W        W27080   7.214  20.741  12.902
62261W        W27081   5.328   3.318   3.252
62262W        W27082  33.656  24.915  12.428
62263W        W27083  17.585   2.050  14.885
62264W        W27084  26.057  15.877  14.771
62265W        W27085  27.635  26.645  11.566
62266W        W27086  38.646   2.706  14.782
62267W        W27087   9.340   0.371   3.296
62268W        W27088  14.564  17.105  13.818
62269W        W27089  35.577   5.237   0.914
62270W        W27090  15.252  40.875   5.018
62271W        W27091  33.885  35.460  12.514
62272W        W27092  40.376   0.853  13.198
62273W        W27093  23.608  38.378  14.035
62274W        W27094  34.861  24.703   0.976
62275W        W27095  24.144  28.538  10.769
62276W        W27096  10.765  24.447  11.369
62277W        W27097  36.494  30.003  14.926
62278W        W27098  37.592   5.105  13.765
62279W        W27099  33.512   6.636  14.376
62280W        W27100  19.111  14.744   2.348
62281W        W27101  33.919  17.180  14.812
62282W        W27102   6.846  18.740  11.381
62283W        W27103  38.344  31.548  13.342
62284W        W27104  18.334  34.931  10.683
62285W        W27105  35.594  12.393  13.733
62286W        W27106  19.930  41.754   2.873
62287W        W27107  27.431  40.948   1.214
62288W        W27108   9.936  12.025   4.453
62289W        W27109  32.396  30.211  10.969
62290W        W27110  38.352  12.433   0.463
62291W        W27111   7.855  19.106   0.866
62292W        W27112  17.066  16.090   4.108
62293W        W27113  17.550  18.015   2.844
62294W        W27114  41.070  39.514   0.697
62295W        W27115   4.890  24.226   1.715
62296W        W27116  11.751  18.553  11.144
62297W        W27117  35.100  34.024   0.228
62298W        W27118  25.365  37.956  11.369
62299W        W27119  43.957  41.931   4.190
62300W        W27120  38.470  16.659  14.209
62301W        W27121   4.904  22.654  12.064
62302W        W27122   7.355  37.401  11.372
62303W        W27123  19.297  41.351  13.407
62304W        W27124  27.144  32.052   3.200
62305W        W27125   1.313  33.702  12.987
62306W        W27126  39.991  43.877   0.933
62307W        W27127  42.232  44.190   4.572
62308W        W27128  13.491  13.143  11.726
62309W        W27129  42.702  36.474   2.278
62310W        W27130  41.265  44.000   1.742
62311W        W27131   4.122  38.057   0.022
62312W        W27132  37.549  44.329   1.343
62313W        W27133  39.146  12.270   3.093
62314W        W27134  24.950  38.453  11.161
62315W        W27135  26.725  20.160  13.065
62316W        W27136   3.948  19.637   4.137
62317W        W27137   8.957  13.293   1.500
62318W        W27138  43.242  16.239  14.522
62319W        W27139  21.764  29.796   1.922
62320W        W27140  36.848   4.568  13.509
62321W        W27141  30.804   6.903   2.352
62322W        W27142  28.950  39.808  11.265
62323W        W27143   3.512  25.031  14.308
62324W        W27144   1.843   6.441  14.470
62325W        W27145  17.796   1.791   2.247
62326W        W27146   0.651  17.550   1.401
62327W        W27147   3.769   0.840   3.162
62328W        W27148  26.813  21.261   1.273
62329W        W27149  36.610   4.883  12.014
62330W        W27150   4.502   5.422   2.813
62331W        W27151  18.765  21.973   1.272
62332W        W27152  36.981   0.205  12.525
62333W        W27153  33.289   2.984  13.951
62334W        W27154  29.619   5.025  13.552
62335W        W27155  15.577   7.626  14.403
62336W        W27156  14.068  28.109   4.507
62337W        W27157   8.280   4.028   3.831
62338W        W27158  42.349  21.288  11.488
62339W        W27159  19.382  21.525   3.143
62340W        W27160   5.857  23.239   1.368
62341W        W27161  28.447  26.551   3.821
62342W        W27162   3.723   2.312   4.237
62343W        W27163  36.077  28.705  10.811
62344W        W27164  11.972   6.161  12.136
62345W        W27165  28.538  17.903  13.317
62346W        W27166  10.983   9.493   3.780
62347W        W27167   8.920  20.602   2.339
62348W        W27168  25.319  44.062   4.054
62349W        W27169   6.390  36.885  11.976
62350W        W27170  17.760   6.910  12.075
62351W        W27171  32.921   8.485   0.272
62352W        W27172  15.773  33.939   2.286
62353W        W27173   2.705  15.817  11.255
62354W        W27174  40.848   7.936   2.264
62355W        W27175  29.441  18.053   0.068
62356W        W27176   7.719   3.074   3.258
62357W        W27177  27.314  29.863  14.413
62358W        W27178  25.154  10.575   2.857
62359W        W27179  13.203  18.213  11.404
62360W        W27180  37.127  44.880  12.967
62361W        W27181  43.516   1.696  14.303
62362W        W27182   3.723  11.320  11.273
62363W        W27183  44.536  11.240   4.209
62364W        W27184  43.012  34.871  11.630
62365W        W27185  25.533  32.080   0.730
62366W        W27186  28.155   2.615  14.371
62367W        W27187  30.482  13.024  13.985
62368W        W27188  44.900  37.234   4.163
62369W        W27189  16.809  40.165   2.624
62370W        W27190  34.275  39.950  11.665
62371W        W27191  17.612  25.616  13.199
62372W        W27192  20.771   8.488   0.810
62373W        W27193  16.858  35.314  13.475
62374W        W27194  37.976  33.779   0.900
62375W        W27195  21.700  12.909   4.049
62376W        W27196  40.632  42.899   5.193
62377W        W27197  23.451  19.337  10.308
62378W        W27198  13.985  42.834   2.306
62379W        W27199  37.554  19.879   1.212
62380W        W27200  24.798  10.575   0.031
62381W        W27201  42.805  15.453  11.138
62382W        W27202   5.497   5.859   0.887
62383W        W27203  36.346   0.620  11.198
62384W        W27204  21.056  43.321  13.824
62385W        W27205  42.374  19.679  11.418
62386W        W27206   3.368  41.765  11.250
62387W        W27207  38.403  17.762  12.138
62388W        W27208   2.902  39.444   2.449
62389W        W27209  34.071  20.106  14.681
62390W        W27210  39.919  38.853  11.860
62391W        W27211  16.581  28.595   5.054
62392W        W27212  36.422   0.972  12.826
62393W        W27213  23.747  27.729   3.103
62394W        W27214  31.163  42.872   1.268
62395W        W27215   4.438   3.441  12.401
62396W        W27216  27.138  44.683   1.419
62397W        W27217  22.899  19.325   4.578
62398W        W27218  10.137   8.546   4.509
62399W        W27219  17.920   8.884   9.795
62400W        W27220  32.377   9.314  10.498
62401W        W27221  27.979  29.921  13.585
62402W        W27222  27.317  44.298  10.553
62403W        W27223  16.623   9.202  13.014
62404W        W27224  26.662  43.915   3.652
62405W        W27225  39.152   1.908   0.242
62406W        W27226  44.917  27.080   2.547
62407W        W27227  18.172  17.587   0.308
62408W        W27228   0.656   2.242  11.130
62409W        W27229   9.833  27.389   2.338
62410W        W27230  16.967   7.425   4.711
62411W        W27231  15.621  40.288   3.239
62412W        W27232  20.994  27.113   3.737
62413W        W27233  25.955  28.685  12.102
62414W        W27234  23.421  33.340   3.673
62415W        W27235  35.585  12.280  12.012
62416W        W27236  33.560  20.814   1.330
62417W        W27237  35.455  13.257   0.882
62418W        W27238  29.024  19.840   0.881
62419W        W27239  31.957  15.798  10.685
62420W        W27240  31.576  23.555  13.610
62421W        W27241  22.986  32.092  13.615
62422W        W27242  23.636  11.713  12.905
62423W        W27243  43.769  13.598   2.528
62424W        W27244  39.377  35.369  10.856
62425W        W27245  23.648   1.943  12.516
62426W        W27246  36.952   2.751  10.741
62427W        W27247  15.871  35.502  12.853
62428W        W27248  15.532  28.786  12.710
62429W        W27249  25.557  21.199  14.340
62430W        W27250  19.544  37.314  13.605
62431W        W27251  40.316  31.550   1.898
62432W        W27252  36.421   2.299   1.714
62433W        W27253  15.161  34.925   1.756
62434W        W27254   0.307  25.016  11.627
62435W        W27255   0.904   4.653  13.913
62436W        W27256   4.829  17.231  11.855
62437W        W27257  38.487   3.247   1.602
62438W        W27258  15.574  11.323  11.559
62439W        W27259  30.855  10.810   4.692
62440W        W27260  13.146  42.490  12.689
62441W        W27261  11.885  13.306   1.206
62442W        W27262  37.811  32.058  11.160
62443W        W27263  14.158  12.839  11.890
62444W        W27264  39.728  25.995   1.905
62445W        W27265  11.276  15.103   5.425
62446W        W27266  26.643   5.514   4.658
62447W        W27267  22.785  18.092  10.600
62448W        W27268  36.179  40.548  13.077
62449W        W27269  21.632  13.937   4.025
62450W        W27270  19.240  13.150  11.094
62451W        W27271   8.716  43.351  14.995
62452W        W27272  26.469  13.187  10.721
62453W        W27273  29.155  12.730  11.907
62454W        W27274  36.294   0.825   0.357
62455W        W27275   2.191   2.346   0.805
62456W        W27276   9.921  20.217  13.574
62457W        W27277  22.536  25.553  11.423
62458W        W27278  38.705  21.451   2.174
62459W        W27279  21.130   6.706  13.807
62460W        W27280   6.161  37.436  10.369
62461W        W27281  22.835   7.973  11.329
62462W        W27282  13.004  37.557   0.845
62463W        W27283  29.586   1.723  12.846
62464W        W27284   8.701  35.878   4.160
62465W        W27285  30.890   3.002  12.964
62466W        W27286  19.719  29.271  13.031
62467W        W27287  25.698  28.935  13.023
62468W        W27288  28.163   0.329  11.308
62469W        W27289   9.244  11.891  11.044
62470W        W27290  20.739  18.045  13.073
62471W        W27291  17.078  42.091  11.982
62472W        W27292  36.586  10.708   2.294
62473W        W27293  15.403  39.388   1.842
62474W        W27294  44.768   6.402   3.180
62475W        W27295  17.572  23.686   0.866
62476W        W27296  30.032   2.266   2.662
62477W        W27297  16.247   9.390  10.669
62478W        W27298  35.823   4.216   2.921
62479W        W27299   1.219  30.610  13.174
62480W        W27300   8.823  36.080  13.016
62481W        W27301  32.950   2.096  11.330
62482W        W27302   8.078  12.426  14.732
62483W        W27303  43.741  22.417  10.992
62484W        W27304  32.018  20.148  13.967
62485W        W27305  40.638   2.075  11.604
62486W        W27306  40.873  24.895  11.004
62487W        W27307  26.402   5.070   4.784
62488W        W27308  35.415  30.150   2.389
62489W        W27309  32.237  40.864   3.338
62490W        W27310  17.569  41.742   2.131
62491W        W27311  14.134  31.469   2.969
62492W        W27312   9.660  10.361  11.096
62493W        W27313  13.924  34.426  10.425
62494W        W27314  23.699  32.794  11.955
62495W        W27315  44.493  29.378  13.213
62496W        W27316  22.049  18.375  14.853
62497W        W27317  20.815  14.871  11.139
62498W        W27318  30.105  43.480  11.485
62499W        W27319  10.360  20.538  14.878
62500W        W27320   2.697  15.789   0.832
62501W        W27321  13.163  32.464  14.265
62502W        W27322  42.640  29.349  11.154
62503W        W27323   3.639  20.042  12.468
62504W        W27324  36.987  14.567   0.253
62505W        W27325  28.112   8.872  13.736
62506W        W27326  11.230  12.647  12.195
62507W        W27327   2.459  37.471  14.529
62508W        W27328  44.751   0.718  10.471
62509W        W27329  25.515  22.755  11.674
62510W        W27330  34.348  38.357   0.127
62511W        W27331  24.208  28.165  12.353
62512W        W27332  30.588   0.344  12.610
62513W        W27333  30.624   3.221  13.923
62514W        W27334  44.956  37.789   4.120
62515W        W27335  14.784  25.512  12.598
62516W        W27336  13.704   8.143   1.843
62517W        W27337  25.448  24.936   3.189
62518W        W27338   9.313  26.539   2.053
62519W        W27339  29.806  28.574   1.372
62520W        W27340  40.275   8.630  12.995
62521W        W27341   6.688  22.589  14.272
62522W        W27342  29.159  39.390   1.719
62523W        W27343   4.402   3.798  13.043
62524W        W27344  24.724  41.021  12.723
62525W        W27345  24.965  34.463   1.306
62526W        W27346  24.053  23.968   0.267
62527W        W27347  17.005   7.779  14.323
62528W        W27348  22.925  43.501  14.946
62529W        W27349  22.991  27.221  10.549
62530W        W27350   2.492  15.182  11.762
62531W        W27351  10.050  39.960  10.155
62532W        W27352  27.492  37.544   0.035
62533W        W27353  36.940   2.252  10.627
62534W        W27354  16.387  34.028  11.385
62535W        W27355  31.614  34.515  12.329
62536W        W27356  11.769  14.350   0.380
62537W        W27357  29.794  43.529  12.952
62538W        W27358  35.337  29.897   4.766
62539W        W27359   2.089  42.882  12.616
62540W        W27360  35.128  42.949  14.441
62541W        W27361  22.718  16.812  11.097
62542W        W27362   2.415  44.455  14.291
62543W        W27363   9.615   0.767  12.452
62544W        W27364   9.643  29.713  11.918
62545W        W27365  25.275  30.945  13.721
62546W        W27366   1.230   8.466   0.470
62547W        W27367   9.299  26.109  10.544
62548W        W27368   0.156   8.469  13.894
62549W        W27369  21.984  35.163  12.485
62550W        W27370  28.129   0.522  13.005
62551W        W27371  23.136  39.246  12.067
62552W        W27372  25.055  17.685   1.492
62553W        W27373  26.326  33.428   9.712
62554W        W27374  38.029   5.183   2.877
62555W        W27375  27.309   2.625   2.647
62556W        W27376  38.815  11.547   5.081
62557W        W27377   8.926   1.004  12.157
62558W        W27378  31.306  38.395   1.656
62559W        W27379   8.702  30.451  11.417
62560W        W27380  12.837   6.510   3.625
62561W        W27381   0.433   9.702  12.876
62562W        W27382   8.171   2.801  10.779
62563W        W27383  25.917  43.925  12.071
62564W        W27384  31.722  24.103  12.470
62565W        W27385  43.793  30.949  10.998
62566W        W27386  15.158   8.454  11.606
62567W        W27387  39.311  38.658  10.728
62568W        W27388  20.243  35.084  11.877
62569W        W27389  42.374   8.798  12.021
62570W        W27390   4.393  35.380   2.060
62571W        W27391  16.072  35.424   0.227
62572W        W27392   1.451  40.278   4.151
62573W        W27393  31.993  16.528   3.523
62574W        W27394  12.896  23.570   2.372
62575W        W27395  44.227   7.326   3.303
62576W        W27396  44.388  17.827   0.137
62577W        W27397  28.712   8.346  12.166
62578W        W27398  31.807  15.015   1.183
62579W        W27399  22.540  31.482   0.060
62580W        W27400  40.313   5.973   2.357
62581W        W27401  12.702  37.898   1.108
62582W        W27402   4.225  38.300  11.709
62583W        W27403   8.383  30.514  11.018
62584W        W27404   9.761  22.518  11.900
62585W        W27405   6.929  24.266  12.579
62586W        W27406  19.002  10.681   0.644
62587W        W27407  29.019  43.050  12.894
62588W        W27408  20.406  41.478   2.486
62589W        W27409  10.518  43.682   0.652
62590W        W27410  16.325  31.018  11.098
62591W        W27411   4.256  32.453  11.582
62592W        W27412  13.718  12.602   1.751
62593W        W27413  14.101  27.328  11.235
62594W        W27414  13.285  11.169  13.031
62595W        W27415  31.039   6.458   2.207
62596W        W27416  10.257   5.272   0.815
62597W        W27417  38.974   3.877   3.967
62598W        W27418  33.739  28.096  11.596
62599W        W27419  28.518  15.687  13.321
62600W        W27420  22.716  38.016   2.068
62601W        W27421  25.046  16.942  12.998
62602W        W27422  29.995  33.943   4.336
62603W        W27423  16.621  32.888   5.701
62604W        W27424  39.924  16.632  13.386
62605W        W27425  43.301  44.821   3.354
62606W        W27426  22.183  32.074  11.621
62607W        W27427   1.977   6.902   3.619
62608W        W27428  17.922  31.896  14.498
62609W        W27429  13.965  28.675   1.819
62610W        W27430  29.478   0.247  13.368
62611W        W27431  31.767  42.793   4.634
62612W        W27432  11.183  15.678   3.758
62613W        W27433   2.327   3.285   2.725
62614W        W27434   6.715   3.860   2.742
62615W        W27435   9.552  44.936  12.083
62616W        W27436  36.308  22.992  10.571
62617W        W27437  21.556  19.193  11.535
62618W        W27438  30.555  17.496   1.284
62619W        W27439  38.752  21.121  14.798
62620W        W27440  23.701   9.230   1.288
62621W        W27441  22.207  10.076  12.559
62622W        W27442  39.152  19.058   0.898
62623W        W27443  18.290  32.841  13.390
62624W        W27444  31.311  30.587   2.808
62625W        W27445  17.751  39.885   4.041
62626W        W27446  26.451  33.100   3.537
62627W        W27447   0.487   3.160   0.739
62628W        W27448  11.330  38.418  14.747
62629W        W27449   0.583  30.487   1.354
62630W        W27450  20.422  39.377  14.270
62631W        W27451  39.084   2.852  11.098
62632W        W27452   7.248   8.586  10.621
62633W        W27453  23.030  19.136  10.552
62634W        W27454  32.374   8.920  13.963
62635W        W27455  37.065  25.156  11.616
62636W        W27456   2.326  27.444   2.587
62637W        W27457  27.761   3.465   0.818
62638W        W27458   6.973  27.623  14.079
62639W        W27459  31.040  30.933  11.807
62640W        W27460   9.731  44.967   0.741
62641W        W27461  37.068   1.377  13.925
62642W        W27462  43.272  17.523  11.653
62643W        W27463  36.449  19.720  13.600
62644W        W27464  29.362  11.095   3.329
62645W        W27465  16.187  19.964   2.708
62646W        W27466  11.802  10.216  11.356
62647W        W27467  18.061  42.971   2.393
62648W        W27468  12.821  43.845   3.363
62649W        W27469  21.373  25.597  12.428
62650W        W27470  42.477  32.465  14.080
62651W        W27471   9.495  44.131  10.031
62652W        W27472  39.814   0.189   3.773
62653W        W27473  32.637  35.478  13.908
62654W        W27474   8.198   2.041   2.710
62655W        W27475  15.049  32.935  13.974
62656W        W27476  31.712  28.995  14.781
62657W        W27477  39.269   7.757   3.163
62658W        W27478  32.795  44.889   3.795
62659W        W27479  13.841  21.210  10.590
62660W        W27480  29.983   8.793  12.504
62661W        W27481  28.638   2.433  10.773
62662W        W27482   5.627  32.740   2.834
62663W        W27483  13.212   2.856  12.915
62664W        W27484   2.434   6.366  12.033
62665W        W27485  22.745  44.808  10.584
62666W        W27486   7.115  18.796  13.785
62667W        W27487  29.973  44.868   0.619
62668W        W27488   4.226   0.754  11.561
62669W        W27489  10.065  28.174  14.756
62670W        W27490  18.308  24.088   4.360
62671W        W27491  25.835  43.727   3.323
62672W        W27492  32.351  13.659   1.154
62673W        W27493   2.846  40.460   4.311
62674W        W27494   3.457  44.859   0.441
62675W        W27495  28.907   5.125   1.868
62676W        W27496   1.356   7.825   4.866
62677W        W27497   0.708  34.175   5.094
62678W        W27498   0.645  43.327  11.467
62679W        W27499  17.685  24.102  12.280
62680W        W27500  26.440  26.743   1.516
62681W        W27501  13.662  19.228  10.566
62682W        W27502   4.605  42.584  13.044
62683W        W27503  25.577  43.058   0.425
62684W        W27504  15.210  40.039  12.497
62685W        W27505   1.762   7.379   3.740
62686W        W27506  21.384   8.537  12.021
62687W        W27507  17.340   9.630  14.545
62688W        W27508  35.978  10.769  13.122
62689W        W27509  11.686  22.438  11.599
62690W        W27510  36.395  15.013   0.849
62691W        W27511  11.792  38.322  11.993
62692W        W27512  38.507   2.079  13.080
62693W        W27513  10.753  40.080  10.729
62694W        W27514   2.834  41.303  10.637
62695W        W27515   8.769  33.180  11.178
62696W        W27516   1.962  41.446   4.369
62697W        W27517  38.651  22.960  14.806
62698W        W27518  39.284  39.807   3.267
62699W        W27519  32.306  43.421   2.581
62700W        W27520  20.199  31.408  12.933
62701W        W27521  43.747  42.557   3.380
62702W        W27522  41.132  23.307   3.395
62703W        W27523   2.176  44.015  14.243
62704W        W27524  40.096   7.316   2.237
62705W        W27525   4.645  36.538  13.370
62706W        W27526  40.391   2.854   4.090
62707W        W27527  37.181  33.045   0.714
62708W        W27528  15.832   4.003  14.773
62709W        W27529   4.156  25.444  12.497
62710W        W27530  19.466  43.550   3.695
62711W        W27531  17.129  19.780   4.654
62712W        W27532  12.570  43.110   0.362
62713W        W27533   2.159  43.825  11.922
62714W        W27534   6.713  24.163  13.032
62715W        W27535  15.700  42.428  11.868
62716W        W27536  40.591  24.053  13.618
62717W        W27537  39.815   7.589  13.143
62718W        W27538  21.554  36.598  11.690
62719W        W27539  30.151  44.032   2.233
62720W        W27540   7.253  21.835   2.209
62721W        W27541  24.074   4.685   1.290
62722W        W27542  22.210  41.501  13.532
62723W        W27543  22.980  31.177  13.758
62724W        W27544  25.982  36.471   1.469
62725W        W27545   4.135  22.417   3.670
62726W        W27546  44.819  11.277  14.923
62727W        W27547  26.657  42.374   2.471
62728W        W27548  17.726  30.523  14.780
62729W        W27549  15.340  36.125   1.791
62730W        W27550  29.975  31.251  11.920
62731W        W27551   2.797  25.692   3.368
62732W        W27552  14.175  17.090   1.282
62733W        W27553  30.070  12.652  14.976
62734W        W27554  35.215  24.067  10.043
62735W        W27555   8.709  29.139  10.925
62736W        W27556  31.804  15.516   2.795
62737W        W27557   8.379   2.642   0.456
62738W        W27558   8.358   6.815  12.952
62739W        W27559  43.817  35.666   2.719
62740W        W27560   1.823  39.831  12.210
62741W        W27561  37.763  30.534   3.128
62742W        W27562  30.108  22.634   4.630
62743W        W27563  12.728  36.316   2.772
62744W        W27564  44.001  35.450  12.548
62745W        W27565  34.430  34.569  12.104
62746W        W27566   1.886  11.835  13.857
62747W        W27567  22.948  17.289   5.031
62748W        W27568  14.221  43.449   1.263
62749W        W27569  35.442  27.913   3.845
62750W        W27570  38.061  27.791   2.946
62751W        W27571   9.284  11.642  12.933
62752W        W27572  25.061  24.219   1.807
62753W        W27573  35.048  36.469   2.961
62754W        W27574   2.629  23.160   4.084
62755W        W27575   6.670  40.799  12.090
62756W        W27576  42.738  10.419  12.513
62757W        W27577   9.349  12.256  12.541
62758W        W27578  10.454  41.515  12.930
62759W        W27579  33.511  29.635  14.845
62760W        W27580   7.162   6.728   0.065
62761W        W27581  10.046  20.822  12.470
62762W        W27582  12.214  23.731   3.634
62763W        W27583   8.609  12.939   2.849
62764W        W27584  17.184  34.944  13.246
62765W        W27585  36.627  35.831  13.157
62766W        W27586  34.814  31.305  12.188
62767W        W27587  20.287  40.574   4.259
62768W        W27588  22.601  26.900  10.839
62769W        W27589  18.298  42.471   3.260
62770W        W27590  34.405   7.960  14.575
62771W        W27591  15.118  19.128  14.568
62772W        W27592  35.970  31.974  11.447
62773W        W27593  25.791  26.462  12.744
62774W        W27594  38.899  19.638   0.741
62775W        W27595  22.176  31.893  12.113
62776W        W27596   0.306  29.764   1.860
62777W        W27597  37.790   5.250   4.607
62778W        W27598  43.879  16.055  11.530
62779W        W27599  22.077   0.177   3.223
62780W        W27600  35.529   7.936   0.341
62781W        W27601  31.359   7.728   1.366
62782W        W27602  25.719  20.735   2.207
62783W        W27603  20.951  44.228  11.476
62784W        W27604  38.746   8.439   3.674
62785W        W27605  11.143  30.511  13.053
62786W        W27606  16.261  44.198  13.023
62787W        W27607  10.963  39.814   3.805
62788W        W27608  33.223  14.769  12.908
62789W        W27609   8.340  15.649   3.730
62790W        W27610  33.900  40.476   2.404
62791W        W27611   4.198   9.309  14.434
62792W        W27612  12.103  18.697   3.299
62793W        W27613   8.401  34.343   0.996
62794W        W27614  11.407  44.220   2.001
62795W        W27615  28.483   8.104  14.369
62796W        W27616  21.592  42.562  12.889
62797W        W27617  43.926  43.578  12.405
62798W        W27618  30.124   5.834   3.780
62799W        W27619  20.320  36.061   5.499
62800W        W27620  23.486  34.962   1.823
62801W        W27621   6.217  27.454  12.884
62802W        W27622  41.970   4.361   4.263
62803W        W27623  15.862  36.161  10.177
62804W        W27624  41.860  34.375  11.083
62805W        W27625   2.151   1.276  12.656
62806W        W27626  35.636  29.634   4.365
62807W        W27627   4.807  14.180   1.887
62808W        W27628  17.960  42.378  12.057
62809W        W27629  21.860  28.143  12.780
62810W        W27630   3.242  37.429   3.720
62811W        W27631   4.376   7.849   1.453
62812W        W27632   4.961   3.203  14.502
62813W        W27633   4.228  22.244  13.449
62814W        W27634  10.801  15.226   0.285
62815W        W27635  33.199  37.413  13.082
62816W        W27636  37.719  41.067   2.845
62817W        W27637   6.438   2.290   1.444
62818W        W27638  41.912  26.221  12.397
62819W        W27639   2.241  19.477   4.423
62820W        W27640  13.198   5.209   1.257
62821W        W27641  15.768  24.642   4.164
62822W        W27642  13.605   0.435  11.542
62823W        W27643  21.166  18.309  14.173
62824W        W27644  41.008   0.278  12.202
62825W        W27645  24.202  12.845  11.524
62826W        W27646  10.489  37.447  13.796
62827W        W27647  34.780  12.242   3.609
62828W        W27648  31.882  19.135   0.845
62829W        W27649  16.379  24.069  11.097
62830W        W27650   7.640   7.546  10.576
62831W        W27651  23.878  19.609  12.947
62832W        W27652  33.135  30.478   4.904
62833W        W27653  25.163  23.620  10.484
62834W        W27654  17.256  24.894  11.074
62835W        W27655  27.403  24.003   4.625
62836W        W27656  12.562   8.053  11.341
62837W        W27657  41.916   5.375   2.111
62838W        W27658  13.331   9.006  11.756
62839W        W27659  35.462  40.924   0.568
62840W        W27660  10.648  43.765  11.446
62841W        W27661  26.707   3.066  11.590
62842W        W27662  31.654   4.642  11.134
62843W        W27663   2.947  22.574   1.045
62844W        W27664  25.172  33.996  12.642
62845W        W27665  19.047  22.705  12.033
62846W        W27666  14.572   5.895   2.371
62847W        W27667  32.253   7.020  11.211
62848W        W27668   1.994   3.303   0.691
62849W        W27669   3.681  38.552   9.998
62850W        W27670  21.764  21.435   3.316
62851W        W27671  35.294  13.629  10.717
62852W        W27672   5.272  42.738   2.853
62853W        W27673   6.834  27.087  12.573
62854W        W27674  24.435  41.422  13.043
62855W        W27675  13.403  35.957  12.144
62856W        W27676  26.490   1.554   0.642
62857W        W27677  33.567  41.283  14.762
62858W        W27678  34.953   2.731   2.120
62859W        W27679   8.832   0.943  13.019
62860W        W27680  35.672   9.221  11.470
62861W        W27681  18.757  14.195   3.838
62862W        W27682   0.454  39.499  11.253
62863W        W27683   3.044  31.760  12.952
62864W        W27684  30.721   6.662  11.535
62865W        W27685  22.061  43.413  13.321
62866W        W27686  35.396  39.473  12.486
62867W        W27687  24.077  35.342   2.796
62868W        W27688  39.734  41.027  14.855
62869W        W27689  35.059  20.463  13.907
62870W        W27690  33.841  12.869  12.871
62871W        W27691  25.684  12.641  14.829
62872W        W27692  13.683  43.336  14.287
62873W        W27693   2.086  25.475   2.337
62874W        W27694  23.163   0.528   1.876
62875W        W27695   1.003   3.880  10.596
62876W        W27696   7.644  37.078  10.574
62877W        W27697  12.246  27.191   3.604
62878W        W27698  34.367  28.541   2.230
62879W        W27699   2.263   1.828   3.715
62880W        W27700   4.994  19.703  10.561
62881W        W27701   2.252  32.227  12.906
62882W        W27702  10.712  21.679  12.124
62883W        W27703  29.680   8.484  11.128
62884W        W27704  24.999  40.527  10.691
62885W        W27705  14.884   1.290   3.598
62886W        W27706  40.378  15.096   1.693
62887W        W27707  28.769   9.511   1.134
62888W        W27708   2.479  11.245   3.685
62889W        W27709  36.446   9.252   3.571
62890W        W27710  11.185  19.737   1.237
62891W        W27711  37.169  35.123  14.470
62892W        W27712  26.456  34.161  14.463
62893W        W27713   5.288  35.380  13.871
62894W        W27714   0.445  28.632   0.211
62895W        W27715  29.584  34.427   0.299
62896W        W27716  39.819  37.908  14.455
62897W        W27717   1.062   2.794   2.437
62898W        W27718  34.165  37.563  14.534
62899W        W27719  23.200  44.067  13.778
62900W        W27720   6.789  10.855   0.786
62901W        W27721   8.184  27.396   0.001
62902W        W27722  11.717  18.948  10.358
62903W        W27723  10.710  21.265   3.217
62904W        W27724  14.736  28.240  12.891
62905W        W27725   2.404  17.500   4.211
62906W        W27726   5.895  23.627  10.711
62907W        W27727   7.384  31.594   0.296
62908W        W27728  34.983   7.981   0.167
62909W        W27729  22.956  42.516   2.792
62910W        W27730  20.580   1.514  13.940
62911W        W27731   7.752  22.922   1.422
62912W        W27732  21.239  38.892  12.482
62913W        W27733  21.365   4.103  13.357
62914W        W27734  18.800   8.692  12.153
62915W        W27735   5.256  11.294  12.839
62916W        W27736  39.235  14.103   1.235
62917W        W27737  10.140  38.756   1.895
62918W        W27738  29.532   1.836  13.778
62919W        W27739  32.689  26.673  12.842
62920W        W27740  17.433  17.202   2.810
62921W        W27741   5.989  28.670  14.688
62922W        W27742  41.291   6.077   1.737
62923W        W27743   8.835  19.287   3.034
62924W        W27744  29.991   3.138  14.356
62925W        W27745  14.261  20.573  12.366
62926W        W27746  37.714  19.053   1.304
62927W        W27747   9.951  35.812  11.500
62928W        W27748  28.554  23.084  12.891
62929W        W27749  28.889  33.317   0.947
62930W        W27750  39.825   6.365   3.167
62931W        W27751  14.636  28.448  12.415
62932W        W27752   1.748  14.156  11.095
62933W        W27753   3.826  15.717  11.908
62934W        W27754  14.696  28.439  11.527
62935W        W27755  17.133   8.367  10.559
62936W        W27756  23.823  41.975  14.558
62937W        W27757   0.357  30.622   4.339
62938W        W27758  35.523  44.273   0.838
62939W        W27759  39.783  33.054  11.973
62940W        W27760  40.408  43.013  11.689
62941W        W27761  11.583  16.288  13.945
62942W        W27762   1.896  25.274  10.782
62943W        W27763  36.926  28.618   0.835
62944W        W27764  27.886  31.651  12.111
62945W        W27765  21.681  39.503  13.854
62946W        W27766  20.239  42.370   4.672
62947W        W27767   9.081  36.379  13.883
62948W        W27768   4.754   3.267  11.055
62949W        W27769   7.195  35.107  11.896
62950W        W27770  27.665  11.129  13.443
62951W        W27771  31.176  35.336   4.275
62952W        W27772  12.308  26.596   0.317
62953W        W27773   7.662   7.156  10.217
62954W        W27774  32.966   7.720  11.134
62955W        W27775  42.307  34.008   0.174
62956W        W27776  27.689  37.595  12.038
62957W        W27777   1.856  25.311   3.293
62958W        W27778  22.608  43.404  12.538
62959W        W27779  11.154  27.265  14.039
62960W        W27780  25.416  40.482  14.197
62961W        W27781  39.958  19.588  12.435
62962W        W27782  36.211  22.510   4.957
62963W        W27783   4.337  38.044  14.126
62964W        W27784  39.045  39.082  14.321
62965W        W27785  40.732  10.889  11.917
62966W        W27786  13.417  26.194   1.991
62967W        W27787  19.713  17.448  14.521
62968W        W27788  11.048  43.151  13.958
62969W        W27789   2.552  35.930   4.561
62970W        W27790   2.748  22.776   3.431
62971W        W27791   7.358  31.195   1.372
62972W        W27792  43.332  27.706   3.644
62973W        W27793   0.598   0.380   0.371
62974W        W27794  23.757  10.670   2.083
62975W        W27795  36.383  21.566  13.212
62976W        W27796  10.334   6.182  11.563
62977W        W27797  27.118   8.735  12.513
62978W        W27798  15.325   0.068  10.896
62979W        W27799   4.131  29.533  12.121
62980W        W27800  36.873   9.717  14.244
62981W        W27801  20.478  34.825   3.244
62982W        W27802  40.533  11.678   3.326
62983W        W27803  38.079   1.036   0.355
62984W        W27804  42.096  27.620  11.909
62985W        W27805  19.478  13.206   0.400
62986W        W27806  38.174  34.947   4.587
62987W        W27807   6.799  40.585  13.961
62988W        W27808  31.669  34.822  14.788
62989W        W27809   7.417  19.068   3.131
62990W        W27810   2.713  24.812  13.378
62991W        W27811   3.182  35.467  12.084
62992W        W27812  21.977  28.622  12.526
62993W        W27813  31.893  26.151   1.219
62994W        W27814   3.987   0.857  12.439
62995W        W27815  31.875  21.688   0.302
62996W        W27816  39.574   1.937   4.361
62997W        W27817   1.267  21.053  11.674
62998W        W27818  17.313  36.333   2.268
62999W        W27819  44.377  39.110  13.841
63000W        W27820  31.199  26.799  12.428
63001W        W27821  44.038   9.629  14.736
63002W        W27822  35.763  32.347  12.614
63003W        W27823  29.900   0.426   2.202
63004W        W27824   1.413  19.752   5.010
63005W        W27825  13.274   3.549  12.909
63006W        W27826  40.733   6.737   1.872
63007W        W27827   1.979  35.253   4.230
63008W        W27828  41.684  15.231  14.999
63009W        W27829  12.264  42.642  11.036
63010W        W27830  33.713  32.921   1.719
63011W        W27831  11.346   8.285   4.471
63012W        W27832  17.697  12.430  13.054
63013W        W27833  10.248  31.034  10.821
63014W        W27834  40.562  39.324   1.799
63015W        W27835   6.608  16.365   3.944
63016W        W27836  32.398  37.148   3.366
63017W        W27837  24.185  30.711  14.975
63018W        W27838  15.469  23.481  10.503
63019W        W27839   8.765  39.849   0.440
63020W        W27840  18.240  12.910  12.321
63021W        W27841  42.461  41.666   0.695
63022W        W27842   8.286  33.034  14.904
63023W        W27843  40.822  18.500   3.392
63024W        W27844  40.305   4.018  11.151
63025W        W27845  18.743  26.688   4.506
63026W        W27846  33.367   0.907  14.679
63027W        W27847  43.418  33.642  13.853
63028W        W27848  19.054  10.187  14.480
63029W        W27849  29.162  20.691  12.899
63030W        W27850  29.759  29.898  12.407
63031W        W27851  17.158  28.640   3.684
63032W        W27852  37.613  43.996   0.014
63033W        W27853  32.649  24.241  11.109
63034W        W27854  28.873  44.982  13.832
63035W        W27855  32.388   7.798  13.122
63036W        W27856  16.070  44.042  13.994
63037W        W27857  25.556   2.362   1.515
63038W        W27858  19.693  18.011  13.329
63039W        W27859  28.163  29.554   1.031
63040W        W27860   2.360  32.557   2.082
63041W        W27861  13.621   5.017   4.041
63042W        W27862  17.762  32.876  12.488
63043W        W27863  20.089  40.584  14.892
63044W        W27864  30.658  25.157  11.176
63045W        W27865  11.870  23.908   4.559
63046W        W27866  42.921   7.709   1.773
63047W        W27867   9.599   4.430  13.397
63048W        W27868  43.378  17.339   1.580
63049W        W27869  36.111   6.722  11.956
63050W        W27870  23.010  35.028  13.090
63051W        W27871   8.132  18.148   0.787
63052W        W27872   6.288  43.983  10.660
63053W        W27873  11.368  36.900   4.083
63054W        W27874  23.160  31.668  11.066
63055W        W27875  32.869   6.471  12.597
63056W        W27876  40.352  39.448   2.247
63057W        W27877  19.718  11.621  14.879
63058W        W27878  16.025  15.342  13.550
63059W        W27879  40.644   5.491  12.505
63060W        W27880  16.490   3.865  11.171
63061W        W27881  11.090  26.639  11.165
63062W        W27882  20.592   9.732  12.978
63063W        W27883  24.595  32.099  10.415
63064W        W27884  16.136  24.399   3.449
63065W        W27885  37.618   3.205   3.646
63066W        W27886  10.294  22.424  10.584
63067W        W27887  27.499  35.466   1.292
63068W        W27888  29.516  21.108   0.709
63069W        W27889  10.294  33.615  11.208
63070W        W27890  15.014  26.928   3.018
63071W        W27891  28.418  10.282   4.110
63072W        W27892   9.799  31.903   4.613
63073W        W27893   4.739  15.318  12.471
63074W        W27894   0.737  25.465  11.017
63075W        W27895  20.137  37.829   0.220
63076W        W27896   2.833  25.497  11.474
63077W        W27897  40.850   1.290  12.661
63078W        W27898  10.137  36.933   4.506
63079W        W27899  25.499  36.515   1.682
63080W        W27900  24.714  26.801  14.160
63081W        W27901   5.451  10.467   0.694
63082W        W27902  30.993  37.535  10.674
63083W        W27903   9.441  23.654  12.009
63084W        W27904  11.050  15.424  13.558
63085W        W27905   0.389   6.055   4.865
63086W        W27906   5.213  29.211  14.443
63087W        W27907  23.007   6.736  13.022
63088W        W27908  26.081  15.331   3.610
63089W        W27909   4.227  19.624  12.086
63090W        W27910  36.112  19.979   3.624
63091W        W27911  11.621  31.865  14.328
63092W        W27912   9.409   4.876   2.309
63093W        W27913   6.385   2.784  11.798
63094W        W27914  38.243  19.260  13.478
63095W        W27915   9.784  20.792   0.773
63096W        W27916  40.184  24.464  13.475
63097W        W27917  41.402   2.960   4.357
63098W        W27918   0.779  12.605  11.816
63099W        W27919  24.672  11.500  11.698
63100W        W27920  31.003  40.257   1.759
63101W        W27921  41.429  42.036  14.370
63102W        W27922  18.611   8.969   1.482
63103W        W27923  42.778  41.901  14.747
63104W        W27924  44.097  36.490  12.533
63105W        W27925  38.958  29.307   2.824
63106W        W27926  11.265  11.867  12.489
63107W        W27927  41.778  15.545   1.777
63108W        W27928  28.567  21.587  14.835
63109W        W27929  39.919   0.362   0.630
63110W        W27930   1.171   2.191  11.332
63111W        W27931  35.631  20.048   2.715
63112W        W27932   8.918   1.697   2.391
63113W        W27933  16.089  36.113  12.569
63114W        W27934  19.854  21.152   4.624
63115W        W27935  42.825  27.577   4.366
63116W        W27936  39.634  17.334   1.420
63117W        W27937  22.511  13.646  12.025
63118W        W27938  20.542  16.699  11.759
63119W        W27939   3.899  20.492  12.412
63120W        W27940   5.625   0.281   2.275
63121W        W27941   8.284  19.883  13.307
63122W        W27942  19.215  18.112  11.638
63123W        W27943   6.446  30.589  11.578
63124W        W27944  17.128  15.288  11.543
63125W        W27945  22.532  40.545  14.238
63126W        W27946   5.673  31.315   3.735
63127W        W27947  44.968   3.627  12.936
63128W        W27948  22.389  34.402   3.241
63129W        W27949  38.800  12.627  14.123
63130W        W27950  36.922  13.064  14.339
63131W        W27951  26.399   7.467  11.311
63132W        W27952  43.368  20.704   1.172
63133W        W27953  19.792   6.718  10.509
63134W        W27954  39.665  22.961   0.807
63135W        W27955  42.847  12.897  12.877
63136W        W27956  21.500  11.890  14.538
63137W        W27957  11.431  29.134   0.223
63138W        W27958   6.345  38.436  12.249
63139W        W27959  35.831   5.804   1.214
63140W        W27960  36.323  25.518   1.020
63141W        W27961  20.507  17.985  12.213
63142W        W27962   0.791   7.800   3.031
63143W        W27963  15.952  35.836   0.991
63144W        W27964  25.654  42.905   5.090
63145W        W27965  21.939  13.744  10.263
63146W        W27966  29.154  27.904  14.820
63147W        W27967   4.999  42.747  11.897
63148W        W27968  28.797  15.234   4.592
63149W        W27969   1.889  22.524   3.861
63150W        W27970   8.880  37.416   2.787
63151W        W27971   2.774   8.031   4.075
63152W        W27972  30.686  37.534  14.330
63153W        W27973  17.743  40.398  14.252
63154W        W27974  12.315  34.638  13.998
63155W        W27975  42.897  35.980  10.919
63156W        W27976  13.091   7.804  11.000
63157W        W27977  13.796  18.520   2.852
63158W        W27978  37.880  26.532   3.693
63159W        W27979  37.332  15.716  14.910
63160W        W27980  13.386   1.301  10.736
63161W        W27981  42.393  34.870   0.400
63162W        W27982  40.927  30.322  13.439
63163W        W27983  39.787  28.067  13.854
63164W        W27984  27.064  38.382  14.701
63165W        W27985  12.732  34.532   2.446
63166W        W27986  40.458  19.780  12.451
63167W        W27987  31.392   1.233  12.884
63168W        W27988  31.008  20.708   1.253
63169W        W27989  31.715  40.912  11.091
63170W        W27990   2.158  23.127   4.282
63171W        W27991  25.573  16.881  13.321
63172W        W27992  41.903   8.970   1.233
63173W        W27993  43.341  28.241  10.301
63174W        W27994  35.600  10.275  14.337
63175W        W27995   2.185  42.414   0.591
63176W        W27996  29.664  14.591   0.784
63177W        W27997  12.808  32.078  10.218
63178W        W27998  12.839   4.639   5.059
63179W        W27999   6.797   8.637   2.294
63180W        W28000  34.576  23.630  10.238
63181W        W28001  41.346  35.956   0.960
63182W        W28002  37.591  43.254  13.454
63183W        W28003  13.180  17.231  11.616
63184W        W28004  22.571  32.124  13.325
63185W        W28005  40.014  28.890   3.350
63186W        W28006  14.196  36.453   4.857
63187W        W28007   8.256  41.597   0.279
63188W        W28008  27.369   1.469  11.872
63189W        W28009  29.762  15.732  12.009
63190W        W28010  38.415  12.550  12.756
63191W        W28011  12.326  42.305  14.861
63192W        W28012   2.561   8.579  10.910
63193W        W28013  15.336  19.726   1.851
63194W        W28014   9.234  27.690  14.113
63195W        W28015  25.810  40.270  13.439
63196W        W28016  15.805   1.374   4.664
63197W        W28017  27.494  27.053   3.628
63198W        W28018  20.680   7.820   2.227
63199W        W28019  19.816  29.336  12.045
63200W        W28020  40.762  35.796   3.857
63201W        W28021  29.979  36.143   2.705
63202W        W28022   2.380  42.112   1.274
63203W        W28023  13.157  44.797  13.518
63204W        W28024   3.808  12.533   1.662
63205W        W28025  16.089  35.342  11.607
63206W        W28026   4.985  29.638   4.143
63207W        W28027  33.165   0.500  13.856
63208W        W28028   5.210  32.063  10.587
63209W        W28029  12.701   2.828   4.388
63210W        W28030  43.512  39.033  12.548
63211W        W28031  30.390  37.527   0.751
63212W        W28032  18.177  40.250   2.755
63213W        W28033  24.349  41.715  11.893
63214W        W28034  44.037   2.177   0.519
63215W        W28035  32.011   0.945  13.164
63216W        W28036   1.230  42.626   0.457
63217W        W28037  34.560  39.764   0.927
63218W        W28038  12.105  11.778   4.230
63219W        W28039  23.580  28.048  13.913
63220W        W28040  43.232  40.423  12.010
63221W        W28041  12.333  28.485  10.280
63222W        W28042  14.851  27.059  10.315
63223W        W28043  26.783  41.355   4.297
63224W        W28044  43.363  26.206   2.833
63225W        W28045  19.382   4.949   2.614
63226W        W28046  36.641  35.974  10.388
63227W        W28047  15.035  38.484   3.472
63228W        W28048  41.555  37.399   3.294
63229W        W28049  33.125  14.635  14.798
63230W        W28050  42.869  31.908   3.138
63231W        W28051  21.788  27.212  10.695
63232W        W28052  15.789  35.476   0.649
63233W        W28053  15.141   8.733   3.705
63234W        W28054  35.624  10.147   0.526
63235W        W28055  10.598  19.643   2.197
63236W        W28056  28.046   4.819   1.863
63237W        W28057   2.330  38.968   3.784
63238W        W28058  27.554  35.844   9.798
63239W        W28059  12.898  37.607  12.406
63240W        W28060   8.387   4.493  14.184
63241W        W28061  21.260  12.304  10.972
63242W        W28062  16.645  19.616   3.442
63243W        W28063  27.425   7.298   2.216
63244W        W28064  27.924  42.558  10.614
63245W        W28065  25.694   7.535  10.319
63246W        W28066   3.181  26.602  11.863
63247W        W28067  24.430  31.223   0.755
63248W        W28068   9.631  27.680   4.781
63249W        W28069  20.289  30.959  12.356
63250W        W28070   0.179  40.306   3.650
63251W        W28071  10.354  11.403  12.520
63252W        W28072  39.100  25.661  12.382
63253W        W28073  36.414  13.306  13.391
63254W        W28074   0.740  33.198   1.222
63255W        W28075  13.761  12.364  14.879
63256W        W28076  44.919  23.255   1.089
63257W        W28077  34.163  10.112  14.062
63258W        W28078  26.994  21.250  14.893
63259W        W28079   4.102  18.729  12.167
63260W        W28080   1.237  18.108   3.742
63261W        W28081   3.436  39.515  10.481
63262W        W28082  38.622  42.788   3.312
63263W        W28083  31.111  38.865  10.348
63264W        W28084  43.953  42.297   3.811
63265W        W28085   1.758   6.244   1.236
63266W        W28086  21.449  28.089  12.025
63267W        W28087  39.404  24.701   2.287
63268W        W28088  40.974  42.965   3.067
63269W        W28089  20.783  15.174  11.576
63270W        W28090   0.511  35.791   0.363
63271W        W28091  39.731  19.554   2.819
63272W        W28092   0.516   1.916   4.192
63273W        W28093  27.205  22.833   3.217
63274W        W28094  40.473  27.134   1.004
63275W        W28095  25.323  35.809  13.121
63276W        W28096   8.284  41.459   3.771
63277W        W28097  26.199  29.180  12.976
63278W        W28098  12.438  39.905   2.469
63279W        W28099   9.821  29.547   1.166
63280W        W28100   6.169  14.015  12.535
63281W        W28101  35.170  32.100   1.594
63282W        W28102   4.313  44.864  13.454
63283W        W28103  37.464   4.105   3.080
63284W        W28104  41.744  33.866  10.995
63285W        W28105  15.367  44.847   3.695
63286W        W28106   7.099  21.529  13.850
63287W        W28107  36.109   1.448  13.593
63288W        W28108  35.307  11.160   0.688
63289W        W28109   7.937   6.435   3.733
63290W        W28110  42.545  38.562   2.235
63291W        W28111  26.460  16.045  11.639
63292W        W28112   5.830   1.354  13.339
63293W        W28113  12.835  31.190   1.780
63294W        W28114   1.023  41.803   4.567
63295W        W28115  35.649  25.490   0.239
63296W        W28116  29.637  14.880  14.570
63297W        W28117  23.679  24.025  14.436
63298W        W28118  41.348  11.823  12.657
63299W        W28119  26.583  41.570  13.463
63300W        W28120  23.501  37.920   0.351
63301W        W28121  22.445  15.321  12.106
63302W        W28122  15.173  29.367   5.457
63303W        W28123  37.240  41.433  11.940
63304W        W28124   5.464  30.441   2.654
63305W        W28125  15.605  34.001  10.047
63306W        W28126  14.622  29.852  13.453
63307W        W28127  32.256  23.409   1.467
63308W        W28128  17.109  40.889   0.818
63309W        W28129   3.056   3.836   4.264
63310W        W28130  38.091  11.938  12.871
63311W        W28131  27.241  36.119   1.891
63312W        W28132   6.869  35.020   3.926
63313W        W28133  11.764  39.313   4.931
63314W        W28134  31.383  17.329   0.467
63315W        W28135  31.251  27.211   2.272
63316W        W28136  14.727   6.290  10.248
63317W        W28137  18.331  39.822   1.380
63318W        W28138  34.237  43.820   1.190
63319W        W28139  24.041  28.622  13.399
63320W        W28140  44.193  12.525  14.863
63321W        W28141  37.136  12.647  11.497
63322W        W28142  16.612   5.186   5.032
63323W        W28143  38.499  28.828  14.482
63324W        W28144  39.874  14.907   3.594
63325W        W28145  37.582   1.802   2.820
63326W        W28146   7.247   8.897   2.348
63327W        W28147  17.675  14.609  12.326
63328W        W28148  30.446   3.979   3.861
63329W        W28149  28.723  33.445  10.895
63330W        W28150  30.469  30.581  14.377
63331W        W28151   0.200   2.152  12.040
63332W        W28152  11.308  30.585   2.370
63333W        W28153  36.344   7.190  12.043
63334W        W28154  18.866   3.895  11.580
63335W        W28155   6.056  40.962  13.382
63336W        W28156  43.265  16.733   4.713
63337W        W28157   9.362  21.265  11.502
63338W        W28158  28.614  43.767  10.707
63339W        W28159   4.506  15.633  14.986
63340W        W28160  22.485   1.127   3.164
63341W        W28161   5.863   6.248  13.401
63342W        W28162  43.838  40.098   2.821
63343W        W28163  27.938  30.374   1.270
63344W        W28164  44.518  17.435   3.842
63345W        W28165  11.112  28.574   1.909
63346W        W28166  19.206   0.374   0.992
63347W        W28167   3.740  33.027   1.696
63348W        W28168  39.379  14.210   3.813
63349W        W28169  20.246   4.227  14.222
63350W        W28170   3.116  28.696   2.966
63351W        W28171  22.088   6.850  13.894
63352W        W28172  24.454  41.814  13.800
63353W        W28173   6.093  11.088   3.765
63354W        W28174  19.237  17.716  13.398
63355W        W28175   9.271   6.918   1.072
63356W        W28176  33.912  27.789   1.063
63357W        W28177   1.794  18.736  12.113
63358W        W28178   0.718   6.733  14.075
63359W        W28179  30.146   1.270   0.184
63360W        W28180  34.472  27.586   0.388
63361W        W28181  19.111  30.994  10.338
63362W        W28182  29.188   7.053   0.751
63363W        W28183  12.376  33.710   1.761
63364W        W28184  10.130  28.083   0.665
63365W        W28185  35.454  39.047   3.342
63366W        W28186  29.429  37.373  10.682
63367W        W28187  17.672  34.557   3.632
63368W        W28188  11.946  25.603   0.411
63369W        W28189  24.139  14.365  10.007
63370W        W28190   3.869   6.357   0.884
63371W        W28191  24.631  39.954   4.608
63372W        W28192  17.190  33.818   0.645
63373W        W28193  14.638  28.465  14.268
63374W        W28194  10.692   4.372  12.060
63375W        W28195  23.132  24.056  13.781
63376W        W28196   7.953   4.459   0.258
63377W        W28197  12.628  37.465  11.957
63378W        W28198  36.502  20.147  12.915
63379W        W28199   4.541  43.827   3.287
63380W        W28200  39.964   0.316   1.133
63381W        W28201   3.383  38.829   1.953
63382W        W28202  15.274  11.361   4.675
63383W        W28203  23.712  43.122   2.722
63384W        W28204  25.133  19.661   2.397
63385W        W28205  31.071  18.300   1.366
63386W        W28206   8.830  10.207  11.650
63387W        W28207  43.458   4.718   3.783
63388W        W28208  20.815   7.836   3.168
63389W        W28209  40.878  16.959  11.634
63390W        W28210   4.709  22.460   1.391
63391W        W28211   7.924  26.633  13.291
63392W        W28212  28.311  28.182   0.686
63393W        W28213  23.043  26.230   2.040
63394W        W28214  19.818   6.837  11.419
63395W        W28215  11.444  31.393  14.396
63396W        W28216   2.337   6.738  14.399
63397W        W28217   3.194  37.884   3.506
63398W        W28218  12.671   5.960   3.604
63399W        W28219  29.843  16.476   1.806
63400W        W28220  23.694  43.953   3.241
63401W        W28221  20.684  24.904  13.959
63402W        W28222   8.356  44.262   3.289
63403W        W28223  16.163  28.679   4.683
63404W        W28224   7.238   2.222  10.638
63405W        W28225  42.196  40.815  12.830
63406W        W28226  28.940  22.604   2.657
63407W        W28227   4.847  18.016  14.892
63408W        W28228  34.978  36.146  13.032
63409W        W28229  18.748  41.368  11.684
63410W        W28230  41.072   0.748   3.267
63411W        W28231  23.470  33.682   2.446
63412W        W28232   9.155  24.017   1.298
63413W        W28233  20.292  19.169   1.212
63414W        W28234  38.928  36.955  11.663
63415W        W28235  40.830  13.727  11.527
63416W        W28236  34.452  42.246  11.885
63417W        W28237   8.282   4.850   4.380
63418W        W28238  20.463  25.242  13.621
63419W        W28239  38.589  36.334  14.503
63420W        W28240   1.987  23.630   1.330
63421W        W28241  28.402  44.303  11.557
63422W        W28242   0.331   8.908  10.440
63423W        W28243  44.722   0.038  12.491
63424W        W28244   4.896   7.291  10.675
63425W        W28245  26.684  20.259   0.035
63426W        W28246  20.634   4.867   2.167
63427W        W28247  30.141   0.554  12.475
63428W        W28248  20.125  25.157  12.424
63429W        W28249   8.130  41.757  14.225
63430W        W28250  12.022   5.629  13.370
63431W        W28251  19.450  17.466   1.347
63432W        W28252  14.895  41.128   0.607
63433W        W28253  42.232  17.110   3.802
63434W        W28254   7.886   2.472   0.417
63435W        W28255   2.514  41.731  11.870
63436W        W28256  39.874   7.382  11.902
63437W        W28257  12.302  27.723  13.596
63438W        W28258   3.829  37.870  11.182
63439W        W28259  11.208   5.918   1.253
63440W        W28260  30.576  15.214  10.590
63441W        W28261  22.409  43.780   2.761
63442W        W28262   1.385  39.976  10.424
63443W        W28263   2.953  14.815  13.494
63444W        W28264   5.258  22.613  13.161
63445W        W28265  39.782  40.174  11.972
63446W        W28266   8.667  40.648   3.574
63447W        W28267  34.430  37.851  12.635
63448W        W28268  25.071   4.665  10.956
63449W        W28269  40.947  24.227   2.571
63450W        W28270  12.072  27.938   3.026
63451W        W28271  11.183  27.726   3.155
63452W        W28272  39.504  11.401  11.510
63453W        W28273   3.771  10.738   4.753
63454W        W28274  24.392  10.683  10.155
63455W        W28275  44.359  10.137   0.978
63456W        W28276  31.623   1.313   3.634
63457W        W28277  12.251  14.141   4.530
63458W        W28278  17.199  34.739   5.490
63459W        W28279  17.069  12.266   9.709
63460W        W28280  22.033  33.248  14.716
63461W        W28281  35.526   6.082   4.753
63462W        W28282  43.101  16.566   1.364
63463W        W28283   3.376  37.278  11.638
63464W        W28284   6.469  37.449  11.667
63465W        W28285  20.287  42.786   4.361
63466W        W28286   6.254   8.766   1.450
63467W        W28287  22.477  13.915  12.987
63468W        W28288  29.157  26.925   3.705
63469W        W28289  41.363  44.941  13.833
63470W        W28290  35.764  10.128   3.465
63471W        W28291  41.732   3.759  11.221
63472W        W28292   1.324   6.011  12.122
63473W        W28293   9.461  25.567  13.095
63474W        W28294  28.101  12.235  14.226
63475W        W28295   7.433   3.861   0.348
63476W        W28296  17.618  13.714   2.585
63477W        W28297  27.714  44.057   3.180
63478W        W28298  41.313  11.375   1.097
63479W        W28299  21.253   3.401  14.706
63480W        W28300  15.914  25.506   4.110
63481W        W28301   0.807  39.800   2.360
63482W        W28302  24.507   1.982  12.841
63483W        W28303  15.116  27.958  11.594
63484W        W28304   4.902  39.410  12.245
63485W        W28305   4.278  33.430   3.233
63486W        W28306  39.792  44.493  13.798
63487W        W28307  38.849  23.489   0.930
63488W        W28308   5.475  17.469  14.070
63489W        W28309  19.811   0.490   1.823
63490W        W28310  24.908  23.135   4.404
63491W        W28311  10.286   3.628  11.706
63492W        W28312  21.082  20.307   3.017
63493W        W28313  21.517  13.811  12.074
63494W        W28314  33.723  14.190  11.285
63495W        W28315  13.449  11.871  14.803
63496W        W28316  37.010   0.817  13.949
63497W        W28317  34.065   8.376   4.833
63498W        W28318  12.287   6.411   4.325
63499W        W28319   9.210  42.841   4.129
63500W        W28320  22.066  29.917  14.870
63501W        W28321   4.690  11.792   1.625
63502W        W28322  18.573  17.925   1.383
63503W        W28323  23.263  10.694   3.218
63504W        W28324  27.179  23.067   0.847
63505W        W28325  33.580  43.434  14.500
63506W        W28326  40.253  44.777  12.506
63507W        W28327  39.925  39.311  10.479
63508W        W28328  39.809  24.716  12.145
63509W        W28329  15.073   9.169   1.858
63510W        W28330  25.142  42.551  11.912
63511W        W28331  36.359   6.497  11.486
63512W        W28332  11.946   7.946  14.912
63513W        W28333  35.315   3.369   2.508
63514W        W28334   7.467  36.162  14.833
63515W        W28335   5.717  40.428   3.582
63516W        W28336  29.437  43.969   0.351
63517W        W28337  32.371  18.235   0.897
63518W        W28338  28.014  42.858  14.460
63519W        W28339  24.580  32.198   2.905
63520W        W28340  27.978  11.365   3.747
63521W        W28341  10.157   9.432   0.689
63522W        W28342  22.185  22.947   2.300
63523W        W28343  35.351  18.049   3.653
63524W        W28344  27.002  19.489   1.672
63525W        W28345  33.988  32.123  13.333
63526W        W28346   3.169  33.473   5.237
63527W        W28347  21.001  25.471  12.762
63528W        W28348  43.570  11.206   4.621
63529W        W28349  34.697  23.635   4.414
63530W        W28350   2.458  27.070   2.972
63531W        W28351   7.124  19.805  11.958
63532W        W28352  28.635   9.595  13.487
63533W        W28353  32.884  35.070  11.149
63534W        W28354   6.049  25.224   3.658
63535W        W28355  34.908  14.348  13.935
63536W        W28356  10.778  21.887   1.217
63537W        W28357  22.387  39.843   1.376
63538W        W28358  39.319  20.684   2.965
63539W        W28359  12.539  10.405   3.222
63540W        W28360  28.708   0.967  14.324
63541W        W28361  31.449  16.920  10.985
63542W        W28362  40.402   7.330   0.235
63543W        W28363  18.492  29.083   3.144
63544W        W28364   2.007  34.752   4.197
63545W        W28365   3.758  11.251   4.154
63546W        W28366  42.815   0.580   4.304
63547W        W28367  42.074  22.972   1.336
63548W        W28368   4.753  41.862  12.423
63549W        W28369  33.679  22.015   1.821
63550W        W28370  10.228  15.290   2.377
63551W        W28371  21.357  22.933   0.554
63552W        W28372  30.138  13.018  12.602
63553W        W28373  22.065  28.171   0.913
63554W        W28374   6.117  25.980   4.316
63555W        W28375  32.734   8.662   2.209
63556W        W28376   5.841  18.151   1.281
63557W        W28377  33.599  10.075   0.804
63558W        W28378  41.203  20.787   2.658
63559W        W28379  34.624  30.029   2.638
63560W        W28380  29.957  42.725  14.777
63561W        W28381  33.445   6.741   1.455
63562W        W28382  31.659  27.949  14.565
63563W        W28383  40.634  16.780   0.743
63564W        W28384  20.072   5.596   5.474
63565W        W28385  32.494  16.345  14.725
63566W        W28386   7.179  15.810  14.396
63567W        W28387  16.248  16.265   0.795
63568W        W28388  40.239  30.708   4.583
63569W        W28389  35.051  20.437  11.552
63570W        W28390  26.335  13.741   2.210
63571W        W28391  30.130  18.308  12.446
63572W        W28392  25.141   7.157   3.627
63573W        W28393  24.980   0.323  11.655
63574W        W28394  17.728   9.287   3.255
63575W        W28395  37.368  12.634   0.330
63576W        W28396  15.220  30.037  10.355
63577W        W28397  44.736   0.936   1.698
63578W        W28398  39.442   3.656   1.376
63579W        W28399  27.615  19.245   2.680
63580W        W28400  20.226  37.480  12.954
63581W        W28401   1.327  12.055  13.163
63582W        W28402  34.033  15.195   3.635
63583W        W28403  42.722   5.596  12.945
63584W        W28404  39.901  41.883   2.882
63585W        W28405  33.710   1.791  14.244
63586W        W28406  26.958  16.275   3.398
63587W        W28407   3.727   9.375  14.227
63588W        W28408   7.677  39.498  12.461
63589W        W28409  30.621  41.342  12.688
63590W        W28410   9.266  25.731  13.971
63591W        W28411  17.713  39.949  13.980
63592W        W28412  22.513  18.760  11.201
63593W        W28413  41.234  42.049  12.997
63594W        W28414  33.910  15.927   0.388
63595W        W28415  38.409  34.392   2.316
63596W        W28416  16.028  15.732  13.873
63597W        W28417  42.459  37.574   4.121
63598W        W28418   0.927  28.199   3.326
63599W        W28419  27.518  24.167  12.906
63600W        W28420  44.742  29.009  12.556
63601W        W28421   8.886  15.594   1.730
63602W        W28422  12.010  19.693   4.975
63603W        W28423  23.746  40.430  11.606
63604W        W28424  32.931  12.849  12.596
63605W        W28425  14.677   0.431   4.889
63606W        W28426  16.643  35.072  12.031
63607W        W28427  17.178   9.165   5.523
63608W        W28428  33.068   0.891   1.127
63609W        W28429   8.139  15.624  13.781
63610W        W28430   2.920  14.686   3.384
63611W        W28431  41.998   4.827  12.980
63612W        W28432  40.430  10.043   4.103
63613W        W28433  12.239  37.575   4.764
63614W        W28434  33.610  39.548  10.734
63615W        W28435   9.112   3.888   4.312
63616W        W28436  39.227  19.767  10.752
63617W        W28437  21.711  41.541   4.520
63618W        W28438  44.712  43.786   2.245
63619W        W28439   5.000  44.884  12.749
63620W        W28440  13.585  31.779   0.588
63621W        W28441  16.319  12.980  11.991
63622W        W28442   7.102  14.097  10.508
63623W        W28443  31.780  34.599   4.670
63624W        W28444   0.013  22.418  12.425
63625W        W28445  41.144  43.841  14.547
63626W        W28446  28.691  41.511   4.579
63627W        W28447  44.389  16.134  10.405
63628W        W28448   0.533  23.377  12.790
63629W        W28449   9.389  24.307   2.616
63630W        W28450  11.506   2.780   1.457
63631W        W28451   5.933  11.495   2.234
63632W        W28452   5.612  28.442   2.759
63633W        W28453  44.547  43.713  11.714
63634W        W28454  32.103   1.702   1.822
63635W        W28455  43.946  43.108  11.622
63636W        W28456  16.826   4.240   2.686
63637W        W28457   6.106  34.823   3.584
63638W        W28458  37.318  34.598   4.442
63639W        W28459   0.956  20.170  12.061
63640W        W28460  17.281  43.966  10.538
63641W        W28461  25.035  29.133   4.250
63642W        W28462  21.511  44.339  11.929
63643W        W28463  42.044  19.288   3.848
63644W        W28464   6.720  11.414   1.789
63645W        W28465  12.100  14.330   3.205
63646W        W28466  33.317  26.249   2.704
63647W        W28467   2.857  12.810   0.261
63648W        W28468  43.468  22.983   0.841
63649W        W28469  36.616   5.246  11.179
63650W        W28470  38.519  14.138   0.323
63651W        W28471  21.135   3.869  14.497
63652W        W28472   4.859  39.830  11.958
63653W        W28473  33.826  18.935  12.569
63654W        W28474  29.612  19.656   1.707
63655W        W28475   8.185  44.037  14.890
63656W        W28476  21.727  35.490  12.037
63657W        W28477  20.540  22.664   0.478
63658W        W28478   2.236  36.943   1.959
63659W        W28479   8.915  30.526   3.742
63660W        W28480   5.209   1.708   0.441
63661W        W28481   1.581  35.585   1.590
63662W        W28482  15.230   0.717  12.037
63663W        W28483   6.002  11.283   0.843
63664W        W28484  40.874  30.149  11.723
63665W        W28485  30.578   2.751  10.742
63666W        W28486   1.779  12.273  13.002
63667W        W28487  33.114   5.224   2.850
63668W        W28488   6.363  20.008   3.783
63669W        W28489  32.745  14.342  12.336
63670W        W28490  36.317  14.670   1.858
63671W        W28491  39.993  22.638   3.329
63672W        W28492  37.183  19.118   1.331
63673W        W28493  23.160  24.761  12.790
63674W        W28494  17.196  11.547   4.050
63675W        W28495  11.826   0.832  12.497
63676W        W28496  20.612  11.268  13.803
63677W        W28497   4.726   3.866  12.458
63678W        W28498  15.433  12.709   2.626
63679W        W28499  12.516  16.612  12.524
63680W        W28500   0.721  34.999  14.872
63681W        W28501  39.806   5.142   2.977
63682W        W28502  42.886  16.050   2.663
63683W        W28503  36.987  17.517  10.335
63684W        W28504  43.910  35.967   2.296
63685W        W28505  31.664  25.011   0.311
63686W        W28506  26.259  34.326  14.946
63687W        W28507  38.979  24.005   2.173
63688W        W28508  36.957  15.622  11.380
63689W        W28509  37.683  37.926  12.406
63690W        W28510  27.684   1.857  12.394
63691W        W28511  12.803  33.685   3.732
63692W        W28512   8.915  30.704  11.018
63693W        W28513  12.373  25.781   0.631
63694W        W28514  34.198  10.903  12.482
63695W        W28515  22.748   9.720   3.487
63696W        W28516  32.806  30.209   0.793
63697W        W28517  35.333   3.371   3.519
63698W        W28518  34.036  33.152  10.655
63699W        W28519  30.441  12.200   2.927
63700W        W28520  38.608  16.874   2.918
63701W        W28521  26.675  21.717  14.887
63702W        W28522  23.584  37.811   3.150
63703W        W28523   0.317  20.163  13.907
63704W        W28524   3.455  17.346   2.219
63705W        W28525  35.613  28.437  10.741
63706W        W28526  19.539  44.238   4.742
63707W        W28527  19.502   0.071   2.687
63708W        W28528   8.286   2.542  11.538
63709W        W28529  31.130  32.599   1.851
63710W        W28530  12.822  22.298   1.923
63711W        W28531   8.560  33.934  14.157
63712W        W28532  13.285  36.839   0.789
63713W        W28533  21.022   8.306   3.075
63714W        W28534   0.044  19.715  12.977
63715W        W28535   4.456  36.285  12.137
63716W        W28536  35.950  37.050   0.004
63717W        W28537  30.961  31.512   0.291
63718W        W28538  14.262  34.935  12.436
63719W        W28539  35.292  36.026  14.287
63720W        W28540  25.066   3.834  14.844
63721W        W28541  21.624  40.324  11.713
63722W        W28542  28.104   7.828  12.898
63723W        W28543  30.390   6.257   3.682
63724W        W28544  40.062  27.598  11.435
63725W        W28545  44.469  19.524   0.831
63726W        W28546  31.421  38.442  14.545
63727W        W28547   8.347  19.526  10.851
63728W        W28548  11.297  37.447  11.100
63729W        W28549  30.047  25.921  12.795
63730W        W28550  25.400  41.889   1.603
63731W        W28551  42.772  41.990  11.986
63732W        W28552  34.472  39.204   1.761
63733W        W28553  18.409  22.176   2.709
63734W        W28554  23.630  25.525   1.007
63735W        W28555  25.527  35.928  12.168
63736W        W28556  28.700   3.833   1.808
63737W        W28557  21.479  42.759   1.333
63738W        W28558  20.133  13.871   2.318
63739W        W28559  13.684   8.373   3.377
63740W        W28560  18.372  22.538   3.407
63741W        W28561  32.592   6.178  14.380
63742W        W28562  35.383   9.855   1.083
63743W        W28563  35.950  12.697  11.076
63744W        W28564   9.572  18.703  14.808
63745W        W28565  42.058  37.311  12.478
63746W        W28566  42.059   9.223   2.058
63747W        W28567  34.279  21.162   5.118
63748W        W28568   3.979   4.839   2.151
63749W        W28569  43.069  11.459   1.414
63750W        W28570  42.575  43.983   0.875
63751W        W28571  30.871  41.726   2.676
63752W        W28572  40.081  18.435   0.345
63753W        W28573   3.859  10.862   1.402
63754W        W28574  42.725  30.377  12.474
63755W        W28575  14.353  27.274   1.417
63756W        W28576   0.922  23.741  11.540
63757W        W28577   5.874  27.256   4.480
63758W        W28578   2.510   3.845  10.782
63759W        W28579  11.644   8.653   3.877
63760W        W28580  27.070  15.255   2.601
63761W        W28581  26.506   2.907  13.970
63762W        W28582  22.779  27.972   2.361
63763W        W28583  44.765  12.394   0.382
63764W        W28584   4.715  36.334   0.870
63765W        W28585  39.018  24.925   1.992
63766W        W28586  38.752  31.481  14.829
63767W        W28587   8.120  43.515   1.308
63768W        W28588   1.156  38.792  13.115
63769W        W28589   4.362   7.492   1.825
63770W        W28590  44.615  18.731   3.407
63771W        W28591   5.974  29.402   3.927
63772W        W28592  41.421  12.081  14.779
63773W        W28593  19.599  30.611   1.937
63774W        W28594  18.487  34.058   0.000
63775W        W28595  37.337   8.993   5.375
63776W        W28596  10.144  20.111   1.398
63777W        W28597  12.746  13.015  12.535
63778W        W28598  21.744  42.917   0.831
63779W        W28599  16.124  25.140   2.845
63780W        W28600  16.448  25.615   1.450
63781W        W28601  35.459  33.141   3.211
63782W        W28602  17.849  15.767  14.226
63783W        W28603  21.257  10.120   1.834
63784W        W28604   8.334  34.976   5.038
63785W        W28605  43.495   3.319   0.296
63786W        W28606   8.669   2.928  12.604
63787W        W28607  24.234  18.782  14.342
63788W        W28608  20.273  41.269  14.303
63789W        W28609  11.873  21.309   1.715
63790W        W28610  41.419  41.806  11.028
63791W        W28611  19.276  30.991   1.712
63792W        W28612   7.609   4.294   0.627
63793W        W28613  26.992  10.560   2.688
63794W        W28614  16.758   2.697  12.511
63795W        W28615  12.667  36.833   1.487
63796W        W28616   3.754  25.477   0.629
63797W        W28617  42.957   7.834   0.842
63798W        W28618  37.830   3.877   0.925
63799W        W28619  30.926   8.853  11.231
63800W        W28620  20.006  12.160  11.593
63801W        W28621   8.448   0.046  12.980
63802W        W28622  27.508  34.630  12.987
63803W        W28623  17.130  20.331   4.931
63804W        W28624  31.567  40.326  10.443
63805W        W28625   9.728  25.406  10.931
63806W        W28626  26.783  26.981   4.504
63807W        W28627  36.341   4.732  13.465
63808W        W28628  31.336  14.170   3.651
63809W        W28629   5.438   7.316  11.348
63810W        W28630  30.512  37.971   2.130
63811W        W28631   7.809   0.524   2.437
63812W        W28632   4.273  12.378   2.872
63813W        W28633  30.766   3.213  12.513
63814W        W28634   8.261   5.107  12.713
63815W        W28635  30.753  42.351  12.993
63816W        W28636   7.829  40.581   4.128
63817W        W28637  26.354   9.590   3.696
63818W        W28638  20.280   4.490  13.772
63819W        W28639  25.711  36.909   1.394
63820W        W28640  34.136  36.553   0.530
63821W        W28641  38.789   3.434   4.146
63822W        W28642  40.405  38.647   4.691
63823W        W28643  33.260  15.553  14.336
63824W        W28644  34.120  21.045   0.432
63825W        W28645  43.788  10.989  14.930
63826W        W28646   0.228  39.471   1.242
63827W        W28647  29.529  43.867   0.866
63828W        W28648  10.171   1.735   0.854
63829W        W28649  34.123  34.856  12.397
63830W        W28650   4.746  36.124  14.801
63831W        W28651  16.041  32.644   2.697
63832W        W28652  42.083  17.627  13.498
63833W        W28653   2.695  16.790   3.837
63834W        W28654  37.313   2.149   1.901
63835W        W28655  35.930  23.982  12.532
63836W        W28656  17.849  27.652   2.806
63837W        W28657  18.624  36.436   2.758
63838W        W28658  42.481  38.613   4.227
63839W        W28659   7.913  35.314   1.972
63840W        W28660  21.585  33.482   4.712
63841W        W28661  30.569  12.399  14.923
63842W        W28662  15.299   5.260   0.929
63843W        W28663  36.336  23.260  13.916
63844W        W28664  20.633   8.597   9.988
63845W        W28665  22.497  20.357   9.693
63846W        W28666  41.238  30.915   0.342
63847W        W28667  25.555  24.939   4.486
63848W        W28668  19.843  26.180  13.101
63849W        W28669  12.790  15.231  12.522
63850W        W28670  26.896  22.439   1.850
63851W        W28671  25.176  21.011   2.154
63852W        W28672  14.361   2.875  14.381
63853W        W28673  26.814  19.385   3.097
63854W        W28674  16.270  26.526   3.250
63855W        W28675  21.015  16.617   0.551
63856W        W28676  20.264  25.603  14.658
63857W        W28677  21.785  17.077  10.581
63858W        W28678  12.154  19.749   2.242
63859W        W28679  12.714  36.101   4.463
63860W        W28680   6.869  31.470   2.241
63861W        W28681  18.591  21.798  14.861
63862W        W28682  25.496   3.187   4.188
63863W        W28683  40.956  32.722   4.124
63864W        W28684  33.404  11.139   3.080
63865W        W28685  22.984  17.829   2.832
63866W        W28686   9.196   7.634  13.368
63867W        W28687   0.525  16.338   3.323
63868W        W28688  38.509  24.384   3.349
63869W        W28689  24.912   6.833   0.964
63870W        W28690  17.145  12.630  10.608
63871W        W28691  32.414   4.410  11.605
63872W        W28692  36.627  18.377  12.574
63873W        W28693  27.241  42.808  12.947
63874W        W28694  31.141   8.055   1.712
63875W        W28695  34.306   6.278   3.157
63876W        W28696  25.095  27.641  13.819
63877W        W28697  39.176   4.590  10.638
63878W        W28698  40.416   8.220  11.276
63879W        W28699  36.515  42.741   1.830
63880W        W28700  39.999  17.629   2.182
63881W        W28701   6.701  13.376  14.213
63882W        W28702  41.615   3.712   3.389
63883W        W28703  31.189   6.220  14.153
63884W        W28704   4.077  32.179   5.151
63885W        W28705  14.639  11.039  10.586
63886W        W28706  16.646   5.331  12.441
63887W        W28707  19.969  26.431  10.552
63888W        W28708  23.001  35.768   1.632
63889W        W28709   0.175  39.812  14.232
63890W        W28710  13.790  36.324  10.590
63891W        W28711  17.318  13.307   4.268
63892W        W28712  29.472  20.589   0.502
63893W        W28713   7.131  13.146   5.037
63894W        W28714  12.362  16.825  12.045
63895W        W28715  27.508  44.221  13.871
63896W        W28716  39.354  28.466  14.480
63897W        W28717  38.828   5.356  14.963
63898W        W28718  21.716  28.013  14.719
63899W        W28719  41.811  31.352   2.765
63900W        W28720  42.930  36.530  11.746
63901W        W28721  27.520  21.819   3.453
63902W        W28722  13.844  24.731   4.033
63903W        W28723  44.455   2.881  13.744
63904W        W28724  30.371  10.908   1.180
63905W        W28725  28.704  35.931   1.341
63906W        W28726   3.280  13.665  14.744
63907W        W28727  17.703  40.918  14.851
63908W        W28728  18.507   0.555   1.663
63909W        W28729  27.942   9.708   1.365
63910W        W28730  27.945  32.890  11.128
63911W        W28731  11.087   1.387  12.621
63912W        W28732  27.426  41.534  10.804
63913W        W28733   1.407  41.042   3.740
63914W        W28734  30.602  30.167  13.571
63915W        W28735  42.512  15.002  12.387
63916W        W28736  32.193  32.804   3.121
63917W        W28737   9.664  18.706  11.463
63918W        W28738  43.098  21.552   3.913
63919W        W28739  43.129  26.382  13.828
63920W        W28740   2.926   5.316   3.897
63921W        W28741  44.303  33.346  14.660
63922W        W28742  38.864  25.633   3.618
63923W        W28743  23.480  43.604  12.436
63924W        W28744  43.198  40.397   4.612
63925W        W28745   1.709  35.532  11.849
63926W        W28746  11.570  28.431  12.751
63927W        W28747  30.679  23.883  11.594
63928W        W28748   6.863   3.193   2.291
63929W        W28749  13.509  29.582  11.578
63930W        W28750  18.918  35.972  10.615
63931W        W28751  33.277   4.736   2.944
63932W        W28752  23.174  15.867   1.745
63933W        W28753   0.751   6.470   3.315
63934W        W28754  31.327   5.832  11.587
63935W        W28755  42.307   9.170  14.972
63936W        W28756  41.265  42.712  10.729
63937W        W28757   4.221  25.899  13.546
63938W        W28758  35.902   8.171  12.094
63939W        W28759  20.097  40.582  10.793
63940W        W28760  21.585   1.857   4.889
63941W        W28761  30.169   3.277  11.860
63942W        W28762  42.048  16.623   3.927
63943W        W28763  18.148  33.558  14.078
63944W        W28764  33.128  39.349   1.645
63945W        W28765  21.197  36.548   2.292
63946W        W28766  22.109  21.284   2.937
63947W        W28767  40.351  25.973  12.728
63948W        W28768  38.061  13.202   2.651
63949W        W28769  29.460  20.856  12.328
63950W        W28770  32.180   0.648   0.779
63951W        W28771  40.244   0.849  11.221
63952W        W28772  35.120  11.821   1.898
63953W        W28773  28.055  17.726  13.325
63954W        W28774  36.249  27.184  13.365
63955W        W28775   8.703  16.359  11.174
63956W        W28776  30.756  38.105   1.670
63957W        W28777  11.722  22.039   4.107
63958W        W28778   3.042   7.811  12.978
63959W        W28779  21.745  37.346  13.965
63960W        W28780  32.502  13.137  12.484
63961W        W28781  11.603  11.831  10.460
63962W        W28782  39.164  34.598   2.746
63963W        W28783  38.489  10.171   0.452
63964W        W28784  44.621  19.066   2.020
63965W        W28785  25.902  40.464   3.847
63966W        W28786  14.282  36.197  11.649
63967W        W28787   5.777   2.775  12.477
63968W        W28788  21.314  24.700  12.629
63969W        W28789  34.474   8.018   3.213
63970W        W28790   3.910  43.580  14.028
63971W        W28791   5.353  18.702  11.268
63972W        W28792  16.329   5.041   0.469
63973W        W28793  40.155  29.459  13.788
63974W        W28794  31.123  37.251  14.324
63975W        W28795   7.661   8.776  13.643
63976W        W28796  15.832  26.277  10.727
63977W        W28797  36.611  39.783   0.981
63978W        W28798  26.377  42.430   4.597
63979W        W28799  30.384  18.568   2.466
63980W        W28800  41.270  29.187  11.657
63981W        W28801   2.414  28.369  14.007
63982W        W28802  12.321  22.658  13.936
63983W        W28803  12.765  25.289  11.148
63984W        W28804  22.275  30.059   0.326
63985W        W28805  42.113   6.021   5.117
63986W        W28806  21.681   6.222   1.422
63987W        W28807  32.464  20.838  10.222
63988W        W28808  35.788   0.817   0.463
63989W        W28809  21.095  35.804   2.629
63990W        W28810  10.142  14.535   0.071
63991W        W28811  43.587   6.096   2.856
63992W        W28812   5.032  25.216  14.394
63993W        W28813  44.011   0.910   4.401
63994W        W28814  33.051  36.644  11.894
63995W        W28815  42.666  10.839   0.895
63996W        W28816  15.620  10.163   4.204
63997W        W28817  23.420   3.218  10.642
63998W        W28818  34.960  12.282   2.087
63999W        W28819  21.066  24.525  14.053
64000W        W28820  23.263  14.347   4.042
64001W        W28821  24.417  30.853  13.450
64002W        W28822  29.153  38.028   3.512
64003W        W28823  44.293  23.583  11.280
64004W        W28824  35.915   8.617   0.691
64005W        W28825   4.143  27.704   1.830
64006W        W28826   2.665  10.827   1.981
64007W        W28827  14.095  34.441  11.193
64008W        W28828  44.987   5.937   3.356
64009W        W28829  13.588   9.764  11.136
64010W        W28830  10.312  15.384   0.328
64011W        W28831  34.095  37.460   0.409
64012W        W28832  24.372  27.924  14.530
64013W        W28833  19.110  30.119  11.485
64014W        W28834   8.404   1.003  12.226
64015W        W28835   1.441  35.358  13.287
64016W        W28836  18.756  43.333  11.428
64017W        W28837  43.928  13.639  10.767
64018W        W28838  43.205   7.807   1.344
64019W        W28839  40.865   8.333  11.016
64020W        W28840   7.978  42.486  11.082
64021W        W28841  28.833  17.634  11.095
64022W        W28842  40.448  38.538  12.472
64023W        W28843   4.938  11.974   1.208
64024W        W28844  44.849   3.447   4.841
64025W        W28845  44.666   4.136  10.916
64026W        W28846  29.900   1.892   4.697
64027W        W28847  29.295  24.650  14.940
64028W        W28848  35.765  35.440   0.327
64029W        W28849  17.218   6.317  13.711
64030W        W28850  25.011   7.365  10.981
64031W        W28851  44.698  41.295  13.596
64032W        W28852   4.857   1.237   3.404
64033W        W28853  41.051  28.193  11.521
64034W        W28854   2.815  18.952  12.969
64035W        W28855  29.321  37.825   1.491
64036W        W28856   4.021  12.237  14.523
64037W        W28857  17.153  11.440   2.283
64038W        W28858  34.084  33.655  10.607
64039W        W28859  43.899  12.587  13.568
64040W        W28860   9.546  15.618   5.013
64041W        W28861  12.206  14.131  12.976
64042W        W28862  13.222  11.481  11.988
64043W        W28863  26.448  18.546  11.063
64044W        W28864  28.953  37.199  13.630
64045W        W28865  15.341  12.600   4.063
64046W        W28866  31.424  42.232   4.523
64047W        W28867  10.734  20.176  10.535
64048W        W28868  10.172  34.488   1.418
64049W        W28869  14.495   6.459  11.728
64050W        W28870  23.156  30.827   4.569
64051W        W28871   2.269  30.678   2.213
64052W        W28872  41.520   9.633  13.500
64053W        W28873  40.093   1.910   1.741
64054W        W28874  13.531   7.663   1.714
64055W        W28875  23.869  18.599   5.145
64056W        W28876  16.781  42.029   3.718
64057W        W28877  28.445   3.607  12.563
64058W        W28878  16.040  11.719  13.387
64059W        W28879  37.434  28.983  14.780
64060W        W28880   9.100  16.567   1.758
64061W        W28881  26.922  29.122  13.312
64062W        W28882  15.840  23.804   4.756
64063W        W28883  34.366  20.804  13.132
64064W        W28884  16.579  12.137   3.950
64065W        W28885  29.235   6.610   0.452
64066W        W28886  31.982  22.045  14.360
64067W        W28887   2.188  29.068   2.615
64068W        W28888  26.791  25.561  12.182
64069W        W28889   6.135   6.680   0.918
64070W        W28890   7.756  15.916   3.256
64071W        W28891  23.545   7.138  10.725
64072W        W28892   6.748  13.171   0.265
64073W        W28893  10.405   2.746   2.332
64074W        W28894  28.141  39.997  13.036
64075W        W28895  20.372  20.606   1.842
64076W        W28896  40.865  11.539   1.253
64077W        W28897  14.253  18.650   3.144
64078W        W28898  31.553   1.761   0.762
64079W        W28899  36.491   6.377   0.859
64080W        W28900  37.671   3.293   4.894
64081W        W28901  40.437  34.662   2.453
64082W        W28902  19.708  25.454   0.393
64083W        W28903  14.651  30.495   0.113
64084W        W28904   8.911  26.064   0.806
64085W        W28905  19.192  24.240   0.048
64086W        W28906  25.114  33.063   2.890
64087W        W28907  20.652   6.530  14.913
64088W        W28908  25.381  22.264  13.429
64089W        W28909  22.064  16.606  10.498
64090W        W28910   8.386   8.798  12.853
64091W        W28911   3.966   5.452   2.755
64092W        W28912   2.665  32.384  14.420
64093W        W28913  29.652  44.781  14.309
64094W        W28914  16.169  13.511  14.576
64095W        W28915   8.791   0.745   0.313
64096W        W28916  23.012  38.014  14.797
64097W        W28917  25.610   9.393  11.636
64098W        W28918  35.047   9.818  13.802
64099W        W28919  30.938  36.119   2.158
64100W        W28920  15.618  32.359  13.451
64101W        W28921  42.684   9.469  13.783
64102W        W28922  44.823  12.814  10.699
64103W        W28923  11.509   1.029  13.333
64104W        W28924  21.072   0.898  14.320
64105W        W28925  39.793  35.285   4.558
64106W        W28926   7.895  34.153   3.878
64107W        W28927   4.356   4.633   2.457
64108W        W28928  14.577  12.041   0.305
64109W        W28929  33.066   4.963   4.145
64110W        W28930  22.080  19.041  11.186
64111W        W28931   9.294  27.292   3.061
64112W        W28932  22.706  40.978  12.169
64113W        W28933   8.309  36.593   4.236
64114W        W28934  31.120  29.632  10.627
64115W        W28935  36.269  28.680   3.651
64116W        W28936   4.457   2.951  14.000
64117W        W28937   0.311  34.404   2.501
64118W        W28938  20.643  26.137  11.522
64119W        W28939  18.568   2.178   2.698
64120W        W28940   6.454  26.198  11.495
64121W        W28941  37.107   8.090   1.486
64122W        W28942  17.511  31.888  14.860
64123W        W28943   2.530   7.267  14.371
64124W        W28944   9.148  29.711   2.399
64125W        W28945  23.226   2.699  13.046
64126W        W28946  16.256  42.110   0.476
64127W        W28947   8.954  25.594   1.015
64128W        W28948  14.333  42.311  14.340
64129W        W28949  40.325  41.787  10.731
64130W        W28950  37.903  19.493   4.565
64131W        W28951  44.055  14.587   2.208
64132W        W28952  18.192  13.600  13.892
64133W        W28953  14.167   8.220   4.352
64134W        W28954  19.283  38.411   1.360
64135W        W28955   2.087  24.966   2.464
64136W        W28956  14.918  15.315   5.494
64137W        W28957  30.963   3.985  14.972
64138W        W28958  31.410   6.415   3.132
64139W        W28959  34.929  28.121   3.750
64140W        W28960  34.928  10.893  12.995
64141W        W28961  18.887  35.199  11.326
64142W        W28962  40.243  33.645  14.293
64143W        W28963  39.756  28.741  13.320
64144W        W28964  38.279  38.899  11.566
64145W        W28965  17.579  19.256   3.334
64146W        W28966  12.221  33.990  14.785
64147W        W28967  37.604  20.085   0.470
64148W        W28968  39.820   9.217  11.108
64149W        W28969  38.270  28.130  11.588
64150W        W28970  32.109  16.090  14.948
64151W        W28971  25.302  14.795   1.174
64152W        W28972   5.008   5.647   2.093
64153W        W28973  27.731   6.753   1.315
64154W        W28974   6.164  19.879   5.142
64155W        W28975  17.676  10.235   1.825
64156W        W28976  21.265  30.581   4.068
64157W        W28977  26.600  43.917  14.769
64158W        W28978  25.381  37.803   3.679
64159W        W28979  14.275  22.293   2.830
64160W        W28980  10.336  23.280  11.545
64161W        W28981  34.509  13.743   4.257
64162W        W28982  42.638  38.490   3.225
64163W        W28983  15.393   2.449  10.721
64164W        W28984  41.968  37.167  10.841
64165W        W28985  27.930  38.626  14.244
64166W        W28986   0.874   0.439  13.287
64167W        W28987  13.811  18.464  13.421
64168W        W28988  22.330  28.666  13.811
64169W        W28989  18.912  32.381  12.028
64170W        W28990  14.273  13.779  11.461
64171W        W28991  37.595  43.432   2.704
64172W        W28992  10.801  18.232   3.084
64173W        W28993  21.065  41.010  14.377
64174W        W28994  29.954  14.486   4.783
64175W        W28995   4.692  33.877   0.394
64176W        W28996  25.315  40.437  13.579
64177W        W28997   9.336  36.756  14.904
64178W        W28998   2.201  37.404   3.703
64179W        W28999   4.776   3.850   2.730
64180W        W29000  24.990  23.973   3.193
64181W        W29001  13.396  38.975   4.604
64182W        W29002  15.724  26.692   2.159
64183W        W29003  23.015   6.767  11.171
64184W        W29004   3.823  42.526  11.107
64185W        W29005  31.029  22.467   2.123
64186W        W29006  38.501  15.179  10.569
64187W        W29007   3.183   5.324   1.331
64188W        W29008   2.911  44.018  13.952
64189W        W29009  42.564  44.892   1.791
64190W        W29010  13.618   8.962  10.489
64191W        W29011  38.729  40.729   0.275
64192W        W29012   2.301  18.947  11.980
64193W        W29013  26.270  17.273   2.130
64194W        W29014  41.043  14.361   3.126
64195W        W29015  12.898  35.388  10.722
64196W        W29016  22.347  41.433   9.857
64197W        W29017  43.751  19.591   0.395
64198W        W29018  23.153  31.008   1.524
64199W        W29019  39.068  42.376  12.637
64200W        W29020  13.328  17.236   4.691
64201W        W29021  40.853  29.880  12.189
64202W        W29022  10.131  14.782   2.214
64203W        W29023  26.677  12.210  10.987
64204W        W29024  35.224  25.697  13.277
64205W        W29025  30.560  39.622  14.505
64206W        W29026  43.647  38.477   3.330
64207W        W29027  22.987  23.373  13.752
64208W        W29028  40.506   4.467  14.956
64209W        W29029  27.683  38.444   1.862
64210W        W29030  20.936  24.413   5.238
64211W        W29031  31.502  38.559  10.498
64212W        W29032  22.800  27.453  14.067
64213W        W29033  21.431  18.482  13.728
64214W        W29034   8.111   7.067   0.283
64215W        W29035  20.110  28.701   4.260
64216W        W29036  15.852  37.618   4.065
64217W        W29037  42.275  25.078   4.573
64218W        W29038  33.883   3.996  11.948
64219W        W29039  34.463  31.198  12.558
64220W        W29040   7.950  12.962  14.740
64221W        W29041  22.528  14.599  13.553
64222W        W29042  29.048  28.585  14.246
64223W        W29043   0.985  18.569   3.893
64224W        W29044  12.926  23.312   0.397
64225W        W29045   5.140   2.320   1.839
64226W        W29046  42.919  31.977   0.383
64227W        W29047  19.279  38.768   3.592
64228W        W29048  29.935  14.097  13.318
64229W        W29049   9.692  37.476   1.069
64230W        W29050   1.850   3.294   0.212
64231W        W29051  39.590  31.821  11.981
64232W        W29052  25.968  16.243  12.491
64233W        W29053  36.176   2.730   1.291
64234W        W29054  16.314  38.973   3.195
64235W        W29055  11.817  19.289   1.745
64236W        W29056  40.982  41.918   3.843
64237W        W29057  43.948   1.961  12.962
64238W        W29058  28.500  15.939   4.452
64239W        W29059  25.520  20.776  13.089
64240W        W29060   8.437  10.304  11.338
64241W        W29061  33.810   6.806  14.007
64242W        W29062  32.912  43.325  14.235
64243W        W29063  31.052  30.010  14.015
64244W        W29064  26.549  39.800   0.331
64245W        W29065   1.817   3.136  11.225
64246W        W29066  33.954  22.419   0.188
64247W        W29067   5.418  23.177   1.816
64248W        W29068   0.565   7.695  12.120
64249W        W29069  26.138  20.484  14.991
64250W        W29070  42.947   9.387   2.098
64251W        W29071  16.128  16.308  11.106
64252W        W29072  41.426  19.519   0.839
64253W        W29073   0.987  19.282  12.108
64254W        W29074   3.417  11.527   0.975
64255W        W29075  18.041  10.546  10.724
64256W        W29076  23.105  21.176  14.053
64257W        W29077  18.785   7.784  13.188
64258W        W29078  17.125   7.416  11.596
64259W        W29079  40.960  36.896   4.883
64260W        W29080  14.732  25.089   4.521
64261W        W29081  30.742  36.217   5.216
64262W        W29082   0.240  19.548  12.133
64263W        W29083  31.154   0.252   0.057
64264W        W29084   7.990   8.375  13.542
64265W        W29085  20.520  17.334  13.474
64266W        W29086   7.148  20.598   0.459
64267W        W29087  38.491   4.197  11.601
64268W        W29088  40.319   9.925  11.604
64269W        W29089  26.183  27.590  11.175
64270W        W29090  34.631  40.083  14.434
64271W        W29091  30.671  32.582   0.819
64272W        W29092  37.063  14.346   4.268
64273W        W29093  22.529  18.309  10.992
64274W        W29094  26.671  26.021   3.702
64275W        W29095   1.454  14.291  14.877
64276W        W29096  11.615  32.979   2.297
64277W        W29097  10.836  13.777   0.822
64278W        W29098  41.368   1.280  13.340
64279W        W29099   9.793  10.978  11.227
64280W        W29100   4.918   3.863  12.992
64281W        W29101   1.797  43.873  14.554
64282W        W29102  28.169  19.409   9.886
64283W        W29103   5.247  37.055   0.258
64284W        W29104  16.252  22.278  14.857
64285W        W29105  14.831  21.536   0.068
64286W        W29106  13.103  24.406   2.604
64287W        W29107  40.207  44.150  10.500
64288W        W29108  22.418  29.416   3.679
64289W        W29109  11.353   1.390   2.878
64290W        W29110  42.079  39.454   4.975
64291W        W29111  25.018  16.216  14.434
64292W        W29112  23.989  17.769   1.371
64293W        W29113  27.097  16.657  10.504
64294W        W29114  41.140  28.692   4.115
64295W        W29115  37.858  36.334  13.920
64296W        W29116   6.434  44.840  14.065
64297W        W29117  21.934  12.290   1.221
64298W        W29118  38.444  18.245   2.787
64299W        W29119  28.207  29.863   1.835
64300W        W29120   3.447   6.862   4.613
64301W        W29121  42.923  26.346   4.205
64302W        W29122  23.050  31.758   1.865
64303W        W29123  14.872  14.902   3.028
64304W        W29124  34.073  19.263   4.397
64305W        W29125  40.847   9.919  12.987
64306W        W29126  30.958   5.678   4.333
64307W        W29127  41.407  41.459   2.715
64308W        W29128  11.313  21.334   5.088
64309W        W29129   2.215  13.075   4.628
64310W        W29130   0.931  37.735   2.189
64311W        W29131  26.018  10.239   2.902
64312W        W29132   0.044   7.913  14.824
64313W        W29133  34.974  14.826  12.835
64314W        W29134  38.112   1.459  12.138
64315W        W29135  27.215  25.102  13.887
64316W        W29136  44.508  31.478  14.067
64317W        W29137  32.450   6.605  10.957
64318W        W29138  28.917  37.430   2.681
64319W        W29139  41.509  18.505  13.474
64320W        W29140  13.120  21.572  11.214
64321W        W29141   3.611   9.149  11.543
64322W        W29142  27.970  27.136   9.940
64323W        W29143   3.594  43.351   0.421
64324W        W29144   3.299  19.111  12.891
64325W        W29145  33.199  11.606   3.272
64326W        W29146   5.996  13.272   1.097
64327W        W29147  17.318  38.037  11.670
64328W        W29148  40.398  44.174   1.494
64329W        W29149  18.619   3.685   3.619
64330W        W29150  12.030   5.025   2.853
64331W        W29151  22.767   2.503   2.224
64332W        W29152  33.949   1.960  13.250
64333W        W29153   2.426  22.158   2.431
64334W        W29154   7.568  42.452   1.236
64335W        W29155  28.136  25.818  13.942
64336W        W29156  31.671  44.775  14.389
64337W        W29157  36.087  33.127  14.524
64338W        W29158  32.630  41.300  11.769
64339W        W29159   9.857  42.761   3.630
64340W        W29160  23.211  19.635   2.298
64341W        W29161  15.838   7.693  12.815
64342W        W29162  38.886  43.160   4.204
64343W        W29163  41.797  12.677   3.822
64344W        W29164  25.484  23.779  14.823
64345W        W29165   8.169  26.092  11.618
64346W        W29166   6.902  20.148  14.054
64347W        W29167  27.462  34.927   2.308
64348W        W29168  14.138  34.913   2.148
64349W        W29169   8.445  24.513   9.878
64350W        W29170  16.714  44.366   2.317
64351W        W29171  37.912  25.007  11.998
64352W        W29172  19.273  32.105  13.995
64353W        W29173   8.639  38.752  11.160
64354W        W29174  44.807  43.496  14.333
64355W        W29175  13.855  30.082   3.507
64356W        W29176  24.644  17.711  13.061
64357W        W29177  20.171  36.901   0.685
64358W        W29178  18.422   0.024  11.231
64359W        W29179   7.180  15.618  13.453
64360W        W29180  37.537   7.675  13.188
64361W        W29181  41.758   4.833  13.446
64362W        W29182  12.790  44.419  11.187
64363W        W29183   9.178  34.941   3.800
64364W        W29184  43.959  23.940  11.022
64365W        W29185  34.049  37.048  14.778
64366W        W29186  34.104  41.364   0.946
64367W        W29187   8.555  35.690   4.647
64368W        W29188  33.598   9.897  13.576
64369W        W29189  27.718  32.563  14.227
64370W        W29190  44.965  41.468  12.189
64371W        W29191  19.533  12.140  12.445
64372W        W29192   2.992  42.808   4.356
64373W        W29193  21.233  15.327   0.527
64374W        W29194  18.443  36.713   0.769
64375W        W29195  27.988  11.957   0.152
64376W        W29196  12.769  39.291  11.058
64377W        W29197  24.611  23.437  14.952
64378W        W29198  23.522  39.957  11.597
64379W        W29199  39.560  17.607   2.482
64380W        W29200  41.063  33.328  12.140
64381W        W29201   9.317  40.697  11.147
64382W        W29202  34.472  24.543  12.802
64383W        W29203  10.731  36.678  11.201
64384W        W29204  13.590  12.817   0.334
64385W        W29205  27.445  13.331  13.076
64386W        W29206  42.233  33.982  11.053
64387W        W29207  14.753  36.990   1.363
64388W        W29208   8.887   3.476  10.876
64389W        W29209  28.551   9.845   0.767
64390W        W29210  33.425  41.953   1.655
64391W        W29211   5.756  15.697   4.844
64392W        W29212  22.556  11.611  11.092
64393W        W29213   8.747  23.405   4.137
64394W        W29214   2.271  27.910  12.960
64395W        W29215  26.937   6.223   4.662
64396W        W29216  39.574  28.111   4.642
64397W        W29217  22.685  18.741  14.427
64398W        W29218  24.904  41.418   4.914
64399W        W29219  20.750  33.873  10.653
64400W        W29220  38.115  10.838  10.271
64401W        W29221  15.937  14.030  11.611
64402W        W29222  27.739  18.646   2.366
64403W        W29223  12.659  24.529  12.581
64404W        W29224   0.701   9.102   4.187
64405W        W29225  30.685  25.382   3.641
64406W        W29226   6.460   5.113  10.300
64407W        W29227  23.668  23.374  11.674
64408W        W29228  43.231   9.787   1.885
64409W        W29229  39.348  32.636   4.599
64410W        W29230  31.913  34.614  11.919
64411W        W29231   5.869  19.074  11.991
64412W        W29232  37.848   3.111   4.435
64413W        W29233  11.358  29.280   3.258
64414W        W29234  40.018  15.890  14.471
64415W        W29235  34.863  42.430  12.186
64416W        W29236  44.824   4.974   1.339
64417W        W29237  43.936  36.267   3.755
64418W        W29238  40.965  19.489   3.140
64419W        W29239  40.874  37.495  13.974
64420W        W29240  44.607  33.137  14.291
64421W        W29241   7.854   6.424  10.056
64422W        W29242  36.020  30.227  14.831
64423W        W29243  28.157  26.159  10.984
64424W        W29244  11.899  42.859  10.260
64425W        W29245   2.774  12.563   3.349
64426W        W29246  37.383   1.625   2.012
64427W        W29247  32.664   2.385  12.847
64428W        W29248  39.352  26.899  12.395
64429W        W29249  27.033  30.043  10.773
64430W        W29250  36.418  41.131   0.908
64431W        W29251  17.796   3.711  10.763
64432W        W29252  34.451   1.982  11.580
64433W        W29253   1.476   4.392   3.315
64434W        W29254  18.132  35.136   2.228
64435W        W29255  30.910   9.574   4.101
64436W        W29256  38.511  26.970   4.239
64437W        W29257  18.391  20.295   3.308
64438W        W29258  21.037   6.821   1.410
64439W        W29259  32.209  36.339  14.559
64440W        W29260  43.736  10.267  12.349
64441W        W29261  41.471  20.531  11.763
64442W        W29262   3.214  37.836   4.093
64443W        W29263  37.721  26.694   1.538
64444W        W29264  11.769  17.529  13.066
64445W        W29265  28.282   4.826   4.107
64446W        W29266  28.671  11.527  13.515
64447W        W29267  32.032  10.808  14.555
64448W        W29268  14.107  26.082   0.082
64449W        W29269  35.258  31.564  12.398
64450W        W29270  33.609  14.666   2.360
64451W        W29271   0.242   8.700  14.351
64452W        W29272  21.681   1.665  14.308
64453W        W29273  18.864   1.315  12.337
64454W        W29274  28.484  41.420   1.734
64455W        W29275  11.235  16.895  10.657
64456W        W29276   2.397   7.108   3.321
64457W        W29277  39.550   0.729   2.611
64458W        W29278   7.759  26.522   1.833
64459W        W29279   3.405  13.426   4.611
64460W        W29280  26.697  30.566   2.807
64461W        W29281   4.690   8.504  12.520
64462W        W29282  15.583  39.127   2.878
64463W        W29283   1.007   0.724  12.873
64464W        W29284  43.410  11.353   1.057
64465W        W29285  40.284   9.882   5.419
64466W        W29286  37.552  41.259  14.935
64467W        W29287  12.291  32.460   0.829
64468W        W29288   4.431  10.165   3.236
64469W        W29289  21.302  28.896  13.389
64470W        W29290  32.706  12.866  10.685
64471W        W29291  25.701   1.809  10.366
64472W        W29292  39.598  39.670   4.638
64473W        W29293  21.184  13.307   3.255
64474W        W29294   3.083  15.815   2.733
64475W        W29295   2.378  13.283   3.297
64476W        W29296  33.527   4.434   1.699
64477W        W29297  32.204  37.038   1.271
64478W        W29298  12.688  20.029   3.630
64479W        W29299   1.931  13.864   1.323
64480W        W29300  39.087   6.659   5.141
64481W        W29301  22.082   2.841   0.062
64482W        W29302   4.996  44.676   0.426
64483W        W29303  40.847  26.580   0.219
64484W        W29304  35.616  37.071   3.360
64485W        W29305  10.532  31.485  10.747
64486W        W29306  44.690  25.686   3.606
64487W        W29307  30.139  43.915   4.499
64488W        W29308   8.427  14.685   0.944
64489W        W29309  36.557  14.909   3.248
64490W        W29310   8.734  19.197  10.758
64491W        W29311  23.990  23.450  11.257
64492W        W29312   8.930  22.998   2.484
64493W        W29313  16.658  31.548  13.794
64494W        W29314   7.002  44.991   3.060
64495W        W29315  31.953  40.352   4.590
64496W        W29316   3.447  31.857  14.923
64497W        W29317  41.573   4.219   3.315
64498W        W29318  21.658  23.786   0.232
64499W        W29319  35.336  26.125   0.501
64500W        W29320  33.041  22.576   1.162
64501W        W29321  42.348  21.718  11.776
64502W        W29322   6.900   7.254   0.856
64503W        W29323   3.203  44.395   5.178
64504W        W29324  18.060  35.498  10.538
64505W        W29325  38.629   5.893  14.282
64506W        W29326  22.225  28.493   4.564
64507W        W29327   1.769  28.041  10.762
64508W        W29328  42.259  31.875   2.395
64509W        W29329  29.915   8.891   0.009
64510W        W29330  37.734  16.133   4.835
64511W        W29331  18.780  40.052  13.161
64512W        W29332  24.618  33.224   0.832
64513W        W29333   6.144  34.585  11.669
64514W        W29334  19.474   7.595  10.784
64515W        W29335  22.215  19.463   5.404
64516W        W29336  17.228   7.134  12.023
64517W        W29337  41.843  31.889  11.571
64518W        W29338  21.753  18.001   4.531
64519W        W29339  31.992  13.139  10.809
64520W        W29340  23.271  36.403   2.196
64521W        W29341   1.026  37.589   4.631
64522W        W29342  36.842  12.287   3.611
64523W        W29343  38.093  16.550  10.997
64524W        W29344  23.952  12.520  11.130
64525W        W29345  16.002  42.993   3.608
64526W        W29346   2.509   5.362   3.092
64527W        W29347  35.716  24.784   3.139
64528W        W29348  17.008  24.905  13.976
64529W        W29349  24.430  35.454  14.942
64530W        W29350  23.052  43.945  13.272
64531W        W29351  40.721  20.806   2.848
64532W        W29352  44.836   7.161   1.677
64533W        W29353   0.311  38.119   4.869
64534W        W29354   1.232  15.691  11.088
64535W        W29355  22.347  21.055  14.583
64536W        W29356  35.384  24.565  14.791
64537W        W29357  38.253  34.025  14.411
64538W        W29358  38.921  28.968  12.920
64539W        W29359  10.834  37.463   3.642
64540W        W29360  30.729   2.277   0.619
64541W        W29361  11.104   4.183  12.368
64542W        W29362  32.573  20.152   4.469
64543W        W29363   8.835  27.971  10.602
64544W        W29364  18.631  11.276  13.164
64545W        W29365  24.132  36.340  12.565
64546W        W29366  41.987  18.525  14.696
64547W        W29367  26.846  33.092   1.800
64548W        W29368  41.712  31.016   2.240
64549W        W29369  29.522  20.414  13.119
64550W        W29370   2.106  29.743   2.502
64551W        W29371  23.237  44.967  14.472
64552W        W29372  36.664  24.268   3.653
64553W        W29373  16.192   7.159  12.028
64554W        W29374  16.545  35.703   3.666
64555W        W29375  11.313  14.366  14.480
64556W        W29376  32.037   3.269   3.610
64557W        W29377   9.701  27.501  12.693
64558W        W29378  35.427  32.137   3.118
64559W        W29379  27.104   4.913  11.192
64560W        W29380  13.372   4.345  14.903
64561W        W29381  14.914  23.695  13.304
64562W        W29382  34.104  31.825   2.808
64563W        W29383  27.511   0.100   0.717
64564W        W29384  21.140  34.404  10.029
64565W        W29385   1.371  29.295   0.024
64566W        W29386  17.568  35.480  12.660
64567W        W29387  43.373  40.285   3.215
64568W        W29388  33.751  23.135  13.651
64569W        W29389  38.346  12.137  12.459
64570W        W29390  19.383   5.525  10.703
64571W        W29391   9.335  13.660   1.438
64572W        W29392  39.969   6.857  12.475
64573W        W29393   0.252  42.051  14.739
64574W        W29394   4.919  22.366   3.650
64575W        W29395  15.633  12.261   0.380
64576W        W29396  41.747  44.865   1.429
64577W        W29397  36.987  28.267   1.202
64578W        W29398   3.903  23.682  12.066
64579W        W29399  37.955  33.373   9.997
64580W        W29400  31.064   2.454  13.841
64581W        W29401  15.536  28.288  14.828
64582W        W29402  21.065  36.091  13.962
64583W        W29403  15.218   7.431   1.071
64584W        W29404  13.586  10.301  10.936
64585W        W29405  20.472  18.061  11.018
64586W        W29406  28.668  37.249  12.085
64587W        W29407  35.964  19.838  13.782
64588W        W29408  20.553  20.578   2.395
64589W        W29409   5.736  30.414   4.381
64590W        W29410   0.998  35.139  10.949
64591W        W29411  12.589  26.577  14.027
64592W        W29412  21.150  14.681  14.342
64593W        W29413  10.941   0.236  10.406
64594W        W29414  39.575  24.052  11.617
64595W        W29415  25.010  41.612   1.832
64596W        W29416  38.382  12.704  11.253
64597W        W29417   7.217  21.041   4.543
64598W        W29418  27.773  27.530   0.718
64599W        W29419  10.936  44.809  14.945
64600W        W29420   2.482  24.210  14.782
64601W        W29421   4.895  38.095   5.130
64602W        W29422  26.090  39.833  12.531
64603W        W29423  33.235  30.098   0.029
64604W        W29424  41.836  29.432   3.579
64605W        W29425  16.256  42.386   0.936
64606W        W29426  36.473  37.068  14.342
64607W        W29427  39.336  37.833  13.243
64608W        W29428   3.330  17.903  11.227
64609W        W29429  24.407  37.184  12.162
64610W        W29430  41.241  37.267  12.935
64611W        W29431  30.096  20.623   0.890
64612W        W29432  10.273   3.455  12.195
64613W        W29433  31.428  10.257   4.060
64614W        W29434  25.408   4.965  11.235
64615W        W29435  33.697  22.072  11.845
64616W        W29436  39.528  10.559   5.484
64617W        W29437  42.766  20.189  14.288
64618W        W29438   6.809  37.611  13.815
64619W        W29439  15.760   1.767   1.410
64620W        W29440   8.914  16.832  11.098
64621W        W29441  27.921  30.997   3.864
64622W        W29442  21.075  35.380  13.507
64623W        W29443   3.362   5.663   4.297
64624W        W29444   2.814  30.631   3.199
64625W        W29445  20.600  18.076   4.120
64626W        W29446  12.853  14.506  10.751
64627W        W29447  12.688  42.272  12.538
64628W        W29448  14.040  44.482  14.031
64629W        W29449   0.340  14.447   3.802
64630W        W29450  12.663   7.418  14.875
64631W        W29451   5.883  21.528   0.019
64632W        W29452  12.085   8.595  14.436
64633W        W29453  15.776  25.562   2.210
64634W        W29454  42.318  39.390  11.750
64635W        W29455  42.882  31.157   2.616
64636W        W29456  36.806  27.638  13.985
64637W        W29457   7.362  41.370  14.248
64638W        W29458  39.143  41.509   2.283
64639W        W29459  38.110   0.876  11.683
64640W        W29460  27.526   2.785   0.273
64641W        W29461  34.038   7.126   2.889
64642W        W29462  21.711  12.721  12.844
64643W        W29463  10.163  24.938  13.148
64644W        W29464  27.395   4.749   1.338
64645W        W29465  27.434  32.000   2.771
64646W        W29466  23.342  35.052   9.869
64647W        W29467   1.556  19.125  13.310
64648W        W29468  12.404  21.991   0.800
64649W        W29469  43.781  33.465   2.059
64650W        W29470  34.082  21.057   1.953
64651W        W29471   4.405  40.082   4.130
64652W        W29472   8.769   2.890   1.729
64653W        W29473  38.113  31.668  11.047
64654W        W29474  19.591  40.530   4.678
64655W        W29475   4.626  25.233  12.493
64656W        W29476  33.599  27.444   3.279
64657W        W29477  28.098  19.087   2.897
64658W        W29478  11.141  20.260  11.672
64659W        W29479  25.546  42.752  11.624
64660W        W29480  21.751  30.601   4.238
64661W        W29481  22.949  35.052   1.937
64662W        W29482  41.820  35.442  13.907
64663W        W29483  43.808  12.157  11.477
64664W        W29484  29.136  18.718  12.145
64665W        W29485  26.541  24.561  13.649
64666W        W29486   5.812  16.485  12.588
64667W        W29487  28.445  27.438  10.679
64668W        W29488  30.619  33.373   1.340
64669W        W29489  37.331   1.766   0.525
64670W        W29490   8.503  26.046  10.774
64671W        W29491  16.168  42.641  10.658
64672W        W29492   5.047   1.987   3.707
64673W        W29493  10.178  36.906  10.759
64674W        W29494  36.280  12.538   2.332
64675W        W29495   5.294   1.444  13.396
64676W        W29496  37.319  30.553  10.619
64677W        W29497   3.154   1.492   0.355
64678W        W29498  40.544  37.589  10.681
64679W        W29499  27.980   7.264   0.385
64680W        W29500  32.610  39.802  12.061
64681W        W29501  43.117  33.174   1.276
64682W        W29502  17.523   8.002  13.461
64683W        W29503  19.841  28.152  13.820
64684W        W29504   2.068  44.817   1.728
64685W        W29505  18.148  44.490   2.410
64686W        W29506  17.708  16.668   4.504
64687W        W29507  12.695   2.530   1.931
64688W        W29508  18.505  41.762  14.853
64689W        W29509  16.216   4.226   3.187
64690W        W29510  30.899  23.365   3.698
64691W        W29511  30.828  38.689  11.616
64692W        W29512  44.671   2.307   3.312
64693W        W29513   5.781   9.157  10.615
64694W        W29514  32.211  27.173  14.978
64695W        W29515  29.820  40.249  12.332
64696W        W29516  20.618   9.688  14.790
64697W        W29517  25.491  20.223  11.011
64698W        W29518  30.498  23.457  14.988
64699W        W29519  33.422  19.880   2.305
64700W        W29520   3.366  44.760   1.798
64701W        W29521  34.555  16.206  12.971
64702W        W29522  27.469  32.971  10.924
64703W        W29523  14.334  38.136  13.958
64704W        W29524  34.505   7.448   2.639
64705W        W29525  14.541  37.459  13.385
64706W        W29526  24.221  33.588   4.644
64707W        W29527  27.726   1.409   0.213
64708W        W29528   3.458  18.349   2.371
64709W        W29529   5.840   7.060   0.721
64710W        W29530  15.729  26.959  12.864
64711W        W29531  32.417  42.047   3.159
64712W        W29532  31.959   9.744   0.423
64713W        W29533  36.096  17.658  11.569
64714W        W29534   3.873  10.800  10.556
64715W        W29535   3.173  31.161  13.416
64716W        W29536   1.251  10.831   0.485
64717W        W29537  30.653  30.686  10.408
64718W        W29538  17.034  43.522   0.882
64719W        W29539   0.918  35.125  10.429
64720W        W29540  20.702  29.473  12.429
64721W        W29541  36.412  40.143   1.297
64722W        W29542  31.159  25.257  14.742
64723W        W29543  42.458  12.954   2.753
64724W        W29544   3.556  39.836   2.917
64725W        W29545  10.601  26.626  12.403
64726W        W29546  20.111   8.869   1.812
64727W        W29547   3.764  29.455  12.451
64728W        W29548   4.931  21.245  12.872
64729W        W29549  44.930  37.094  10.919
64730W        W29550   5.777  28.050   2.471
64731W        W29551  37.754  15.036   2.851
64732W        W29552   3.596  25.721  11.097
64733W        W29553   1.306  41.758   0.850
64734W        W29554   3.008   8.742  10.033
64735W        W29555  35.439  33.366  14.172
64736W        W29556   7.338  32.626   0.328
64737W        W29557  28.548  19.573   0.877
64738W        W29558  12.862   7.728  13.963
64739W        W29559  22.064  16.294   4.603
64740W        W29560  28.633  37.124   4.453
64741W        W29561  39.597  28.250  13.387
64742W        W29562   5.758  15.164   4.810
64743W        W29563  44.178  37.982   2.691
64744W        W29564  21.773  34.372  10.690
64745W        W29565   0.372  41.351   0.754
64746W        W29566  11.861  24.993  12.044
64747W        W29567  22.237  18.212   0.962
64748W        W29568   3.296  15.797  12.539
64749W        W29569   3.881  34.480  12.056
64750W        W29570  36.857  32.120   2.109
64751W        W29571   6.120  30.514  13.474
64752W        W29572  13.112  18.790   0.317
64753W        W29573   5.808   8.582   3.685
64754W        W29574  25.811  17.374   4.511
64755W        W29575   3.431   7.737   2.823
64756W        W29576  13.430  27.530  10.785
64757W        W29577  21.711  18.505   2.353
64758W        W29578  41.427  39.845   1.829
64759W        W29579  22.157   4.095   4.661
64760W        W29580   6.701  26.650  14.000
64761W        W29581  23.234  35.785   2.636
64762W        W29582   6.256   0.073  14.505
64763W        W29583  31.881  30.100   2.122
64764W        W29584  12.802  43.850  12.472
64765W        W29585  17.911  19.486   0.009
64766W        W29586  39.090  22.186  12.086
64767W        W29587  36.228  36.772  12.980
64768W        W29588  40.066  27.016  11.152
64769W        W29589  26.651  32.286   3.135
64770W        W29590  34.095   8.141   1.786
64771W        W29591  38.598  22.163   4.435
64772W        W29592  18.239  42.979   0.964
64773W        W29593   2.408  36.055  12.405
64774W        W29594  26.458  31.454  14.068
64775W        W29595   1.299  11.706  14.963
64776W        W29596   3.170  11.780  12.365
64777W        W29597  39.695  44.157  11.229
64778W        W29598  33.994  42.796   3.144
64779W        W29599  13.783   7.887  11.689
64780W        W29600  18.069  21.844   1.701
64781W        W29601  17.347  25.248   9.793
64782W        W29602  30.883  30.580   0.003
64783W        W29603  13.332  19.315   0.345
64784W        W29604  23.976  20.989   2.821
64785W        W29605  44.962  28.537   0.403
64786W        W29606  32.429  11.065  12.682
64787W        W29607  22.611  38.829  13.411
64788W        W29608  44.455   5.937  11.553
64789W        W29609  15.872  27.172  10.003
64790W        W29610  27.696  23.127  13.461
64791W        W29611  34.174  21.106  14.548
64792W        W29612  24.591   7.299  14.275
64793W        W29613  25.772  23.090  12.937
64794W        W29614   9.405   8.133  13.947
64795W        W29615  38.450  23.058   4.560
64796W        W29616  36.884   8.036   2.349
64797W        W29617  25.212  22.963  12.092
64798W        W29618  41.506   5.656   1.949
64799W        W29619  35.726   3.210   0.451
64800W        W29620   4.636  37.411   2.784
64801W        W29621  31.616   8.663   5.055
64802W        W29622  28.947  14.596  11.627
64803W        W29623  27.852  35.382   2.271
64804W        W29624   3.858  20.863   1.650
64805W        W29625  29.574  25.224   4.323
64806W        W29626  24.828  34.141   1.693
64807W        W29627  41.889  44.337  14.576
64808W        W29628   3.290  25.019   1.245
64809W        W29629   0.379   4.403  14.920
64810W        W29630   1.502  38.472   4.320
64811W        W29631   3.503  12.805  13.831
64812W        W29632   4.591  42.834  11.511
64813W        W29633  42.334   8.364   3.400
64814W        W29634  18.893  18.306  12.846
64815W        W29635  10.747   9.150   1.905
64816W        W29636  44.016   9.380  13.075
64817W        W29637   8.560  24.959  12.526
64818W        W29638  36.087  41.076  12.946
64819W        W29639  19.774  16.047  13.574
64820W        W29640   4.154  26.988  14.459
64821W        W29641   8.299  11.852  10.775
64822W        W29642  27.665  25.188  10.739
64823W        W29643  21.194  35.080  13.932
64824W        W29644  19.607  40.078  10.612
64825W        W29645   4.535  16.614   1.460
64826W        W29646  36.473  26.542   4.090
64827W        W29647  43.998  18.105   2.636
64828W        W29648  39.888  12.012  11.884
64829W        W29649  15.282   5.744  13.409
64830W        W29650  35.977  40.689   0.280
64831W        W29651  29.870  39.753   4.193
64832W        W29652  44.539  44.331  14.290
64833W        W29653   4.927  18.769  14.348
64834W        W29654  30.974  31.550   4.426
64835W        W29655   9.665  22.545  12.876
64836W        W29656   9.771  31.264   2.968
64837W        W29657  40.652  31.811  11.930
64838W        W29658   9.706  41.787  12.482
64839W        W29659  42.175  23.508   1.863
64840W        W29660  32.859  39.030  10.689
64841W        W29661  27.760   1.779   2.773
64842W        W29662  34.846  38.022   3.836
64843W        W29663  33.382  39.722  14.815
64844W        W29664  17.126  15.597   3.512
64845W        W29665  31.979  31.625   4.562
64846W        W29666  36.328  14.353   1.424
64847W        W29667  42.371   9.177  10.344
64848W        W29668  18.692  24.322   1.336
64849W        W29669   4.855   7.123  13.907
64850W        W29670  31.106  36.735  14.274
64851W        W29671  26.547  11.716  13.979
64852W        W29672  13.237  30.615   1.288
64853W        W29673  17.995  20.023  14.980
64854W        W29674  44.116  30.004  11.383
64855W        W29675  43.529  16.856  10.457
64856W        W29676  21.974  35.466   2.885
64857W        W29677  31.680  42.607   0.279
64858W        W29678  34.087   9.870   3.267
64859W        W29679  30.595   5.898   3.332
64860W        W29680  26.374   6.330  10.550
64861W        W29681  20.093  27.366   0.356
64862W        W29682  27.760  44.976   2.300
64863W        W29683  27.604  29.436  14.324
64864W        W29684  11.131  10.578  12.024
64865W        W29685  25.933  14.214   1.045
64866W        W29686  40.266  15.463   4.089
64867W        W29687  19.582  43.109   1.324
64868W        W29688  32.928  13.417   4.619
64869W        W29689  12.682   1.003   4.862
64870W        W29690  12.791  25.959   0.833
64871W        W29691  21.569   2.447  12.042
64872W        W29692  36.490  26.060  13.288
64873W        W29693  25.013  42.119   1.939
64874W        W29694  23.902  42.733   2.356
64875W        W29695  33.825  26.982  12.078
64876W        W29696  18.113  17.219  14.103
64877W        W29697  18.607  16.220   1.943
64878W        W29698  42.703  44.853   3.556
64879W        W29699  12.253   8.177   3.299
64880W        W29700  23.428  39.558   2.120
64881W        W29701  29.308  37.038   1.254
64882W        W29702  39.690  34.531  13.933
64883W        W29703  22.644  29.083  11.662
64884W        W29704   9.398  23.663   4.640
64885W        W29705  11.629   8.521  13.808
64886W        W29706  15.293  31.133   2.928
64887W        W29707   7.705   4.039  13.181
64888W        W29708   8.255  35.600   4.236
64889W        W29709  25.883   8.725  12.112
64890W        W29710  41.429  11.844   0.891
64891W        W29711  34.472  25.251   2.741
64892W        W29712  15.056   9.747  14.741
64893W        W29713  27.257  37.930   4.559
64894W        W29714   6.432  18.028  14.542
64895W        W29715  44.783  42.440  11.801
64896W        W29716   5.299   6.370   1.856
64897W        W29717   2.196  44.242   3.122
64898W        W29718   8.215  44.485   4.763
64899W        W29719  24.952  37.435  12.094
64900W        W29720  36.730  21.740   0.504
64901W        W29721  27.092  42.743   1.801
64902W        W29722  32.643  27.609  11.496
64903W        W29723   6.818   2.085  12.507
64904W        W29724   1.948  21.937  12.044
64905W        W29725  13.367  32.666  10.643
64906W        W29726  33.918  32.680  14.148
64907W        W29727  16.029  18.576  11.192
64908W        W29728   0.730  23.986   2.149
64909W        W29729  31.406  14.863   4.110
64910W        W29730  13.070  42.039   2.082
64911W        W29731  17.868  13.971  11.136
64912W        W29732  42.405  24.611   4.336
64913W        W29733   0.974  24.666   0.722
64914W        W29734  15.837  10.152  12.050
64915W        W29735  12.442  11.588  11.546
64916W        W29736  31.457  38.403  12.538
64917W        W29737   0.053   2.032   2.457
64918W        W29738  23.392  17.319  14.480
64919W        W29739  36.008   2.357  12.076
64920W        W29740   5.341  39.521   0.327
64921W        W29741  13.099  31.269   2.279
64922W        W29742  10.850  33.928  14.951
64923W        W29743  16.160   8.940   3.594
64924W        W29744  39.281  29.574   3.615
64925W        W29745  43.053  10.403  11.102
64926W        W29746  16.837   9.412  14.540
64927W        W29747   1.865  40.774  14.431
64928W        W29748  24.668  33.822  13.807
64929W        W29749   9.668  44.042   3.125
64930W        W29750  23.066  10.871   4.818
64931W        W29751  25.864  24.132  14.882
64932W        W29752  22.252  22.762  11.161
64933W        W29753  29.463  17.655   2.107
64934W        W29754  30.606  29.095  14.461
64935W        W29755  10.524  35.830  12.674
64936W        W29756  21.261   0.349  11.971
64937W        W29757  22.296   2.544   3.216
64938W        W29758  15.315  23.865   3.526
64939W        W29759   4.787  23.597  14.726
64940W        W29760  18.685  43.427  14.008
64941W        W29761  21.997  31.824  14.823
64942W        W29762  43.858  35.828  14.437
64943W        W29763   4.885   0.276  10.570
64944W        W29764  37.436   3.448   2.718
64945W        W29765  44.284   8.893  14.831
64946W        W29766  23.258  13.068  14.017
64947W        W29767  26.721  37.703  10.710
64948W        W29768  10.673  41.864  12.490
64949W        W29769  25.539   5.891  12.260
64950W        W29770   8.582  12.415  12.962
64951W        W29771   5.450   7.400   0.002
64952W        W29772  42.620  16.107   3.310
64953W        W29773  16.618  34.540  12.415
64954W        W29774  15.034  20.282  12.840
64955W        W29775  25.171  39.939  12.989
64956W        W29776  38.611  43.530   3.935
64957W        W29777  15.702  26.479  13.418
64958W        W29778  23.947  38.222  11.285
64959W        W29779  39.968  29.167   0.481
64960W        W29780  12.889  32.919   4.093
64961W        W29781  29.434  28.409  13.918
64962W        W29782  41.448   3.795  14.415
64963W        W29783  12.714  16.783   1.681
64964W        W29784   2.033  15.013  11.045
64965W        W29785  26.795  29.909   4.520
64966W        W29786   8.479  15.624   0.881
64967W        W29787  43.467   2.952   1.317
64968W        W29788   0.078   1.359   3.395
64969W        W29789  31.758  13.743  11.556
64970W        W29790  23.221  36.219   1.704
64971W        W29791  36.001  21.495  10.655
64972W        W29792  15.678  36.062   9.697
64973W        W29793   6.129  23.185  14.891
64974W        W29794  32.531  30.896  14.441
64975W        W29795   8.954  37.004   1.276
64976W        W29796   2.214  26.996  14.242
64977W        W29797  14.822  22.127  10.525
64978W        W29798   9.322  19.013   3.662
64979W        W29799  31.960   8.165  11.532
64980W        W29800  39.642  23.916  14.891
64981W        W29801  21.040  19.244  10.309
64982W        W29802   8.575  12.321  14.747
64983W        W29803  13.469  21.628  13.898
64984W        W29804  23.234  26.538   3.576
64985W        W29805  30.967  19.327  10.684
64986W        W29806  35.057  30.514  11.712
64987W        W29807  22.552  15.117  12.593
64988W        W29808  41.943  33.473   1.779
64989W        W29809  34.626  43.270   2.432
64990W        W29810  22.176  11.309   4.172
64991W        W29811  36.527  43.783  10.994
64992W        W29812  44.728  30.890  10.922
64993W        W29813   4.346   1.795   1.707
64994W        W29814   9.054  11.123  13.050
64995W        W29815   9.452  17.083   3.227
64996W        W29816  36.382  23.917  14.313
64997W        W29817   3.999  44.334   3.543
64998W        W29818  26.044  15.587  13.141
64999W        W29819   7.795  22.014  10.835
65000W        W29820  20.939  23.207   5.149
65001W        W29821  10.523  33.221   1.615
65002W        W29822  13.597  42.815  10.709
65003W        W29823  34.056   1.521   1.901
65004W        W29824  14.705  42.830   2.711
65005W        W29825  15.156  33.084   1.714
65006W        W29826   0.014  12.848   0.270
65007W        W29827  43.947  15.578  12.405
65008W        W29828  27.928  38.928  13.416
65009W        W29829  25.698   6.370   4.173
65010W        W29830  40.898  17.184  12.944
65011W        W29831  28.973  20.653  13.931
65012W        W29832  40.372  31.747  14.113
65013W        W29833  10.329  18.238   2.791
65014W        W29834   6.735   8.351  11.132
65015W        W29835  22.058   4.518   3.706
65016W        W29836  32.374  35.393  14.339
65017W        W29837   8.773  13.030   2.363
65018W        W29838  15.280  12.288   4.778
65019W        W29839  34.479  25.377  13.447
65020W        W29840  34.031  19.418  12.100
65021W        W29841  11.529  24.785   3.305
65022W        W29842  21.212  33.126   2.925
65023W        W29843  23.589  30.286   0.335
65024W        W29844  11.331  31.584   2.418
65025W        W29845  28.431  40.921   2.365
65026W        W29846   8.322  29.903   3.638
65027W        W29847  29.076  30.548   2.783
65028W        W29848   2.338  41.734  13.823
65029W        W29849  44.792  31.833  13.549
65030W        W29850   0.589  23.824   4.859
65031W        W29851   0.437  33.866  10.468
65032W        W29852   9.688  38.948   3.281
65033W        W29853  33.946  38.800   2.887
65034W        W29854  41.715  27.971  12.085
65035W        W29855  29.676   3.232   5.182
65036W        W29856  39.770  15.761  12.911
65037W        W29857  21.658  30.316   2.840
65038W        W29858  27.195  39.541   4.293
65039W        W29859  43.516  26.387   4.183
65040W        W29860  40.671  23.463   0.419
65041W        W29861  31.400  16.680   3.238
65042W        W29862  39.935  35.363   2.176
65043W        W29863  42.005  16.232   4.271
65044W        W29864  21.204  20.733   4.729
65045W        W29865  16.200  44.400   2.273
65046W        W29866  35.093  27.433  12.278
65047W        W29867   7.487  12.776   3.689
65048W        W29868  30.361  15.218   3.507
65049W        W29869  12.725  28.356  14.526
65050W        W29870  29.806  29.192  11.041
65051W        W29871  16.667  11.462   2.421
65052W        W29872  26.244  12.825   1.635
65053W        W29873  41.354  13.190   1.835
65054W        W29874   6.328   9.217  14.814
65055W        W29875  30.106  18.119   4.204
65056W        W29876   2.486  20.965  12.035
65057W        W29877   2.272  14.338   4.108
65058W        W29878  10.361  33.747  14.136
65059W        W29879  41.480  17.962   3.697
65060W        W29880  42.559  21.057   0.217
65061W        W29881  21.342   0.400  13.590
65062W        W29882  32.656  23.473   2.396
65063W        W29883  28.095  11.858   3.868
65064W        W29884  31.061  17.734   1.409
65065W        W29885  28.889  42.435  12.068
65066W        W29886   5.236  40.723  11.208
65067W        W29887  14.683  41.350  12.789
65068W        W29888  15.376  32.420  10.669
65069W        W29889  20.794  37.253  10.225
65070W        W29890  38.809   3.667   0.873
65071W        W29891  13.939   5.351  14.455
65072W        W29892  44.355   3.256  10.203
65073W        W29893   5.775  21.016  15.000
65074W        W29894   4.602  38.762  10.457
65075W        W29895  37.367  20.501  10.780
65076W        W29896  24.179  39.372   1.135
65077W        W29897  38.874  41.949   2.336
65078W        W29898  29.395  10.017   2.422
65079W        W29899  28.031  36.033  13.094
65080W        W29900  10.923  13.890  13.850
65081W        W29901  36.818  38.209  12.372
65082W        W29902  24.250   2.880   1.009
65083W        W29903  41.072  42.192   0.059
65084W        W29904  32.994  42.614  11.487
65085W        W29905   5.178  30.001   3.357
65086W        W29906  43.768   3.259  12.854
65087W        W29907  14.605  12.326  11.642
65088W        W29908  28.752   5.392  12.171
65089W        W29909  37.793  36.158   4.476
65090W        W29910  16.634  42.748  10.872
65091W        W29911  28.752  21.033   5.546
65092W        W29912  35.770  39.918  13.603
65093W        W29913  18.051   9.385   4.621
65094W        W29914  28.998  17.616   2.343
65095W        W29915   2.915   4.444   3.120
65096W        W29916  33.657  10.238  13.953
65097W        W29917  42.661   9.322  13.279
65098W        W29918  19.128  33.921   1.702
65099W        W29919   8.906   6.286  12.318
65100W        W29920  18.658  11.353   4.143
65101W        W29921  19.797   0.774  12.491
65102W        W29922  38.392  30.437   2.128
65103W        W29923  15.072  13.633   3.449
65104W        W29924  19.907  10.702  14.522
65105W        W29925  11.569  37.683   2.260
65106W        W29926  10.147  18.728   3.027
65107W        W29927  13.397  16.808   4.987
65108W        W29928  13.714  36.592   3.574
65109W        W29929  31.143  12.209  10.552
65110W        W29930   5.386  36.487   3.212
65111W        W29931  26.552   2.693   0.301
65112W        W29932   9.167  19.500   0.411
65113W        W29933  31.995  29.866  13.050
65114W        W29934  44.532  44.000  13.077
65115W        W29935  30.602   9.652  11.640
65116W        W29936  39.594  22.300   3.117
65117W        W29937  33.441   9.678  12.123
65118W        W29938  37.085  15.593  12.378
65119W        W29939  14.258  12.185   2.129
65120W        W29940  27.224   5.995  12.850
65121W        W29941  43.698  33.962  11.756
65122W        W29942  33.836  23.516   0.945
65123W        W29943  20.541  43.378   0.515
65124W        W29944  29.691   0.007   2.961
65125W        W29945  16.291  11.325   2.080
65126W        W29946  23.256  24.661  11.386
65127W        W29947   3.318  17.447  11.426
65128W        W29948  28.447  37.026  11.216
65129W        W29949   8.576  22.646  10.849
65130W        W29950  26.032  28.420  12.536
65131W        W29951  13.561   0.036  14.868
65132W        W29952  22.711  19.623   2.452
65133W        W29953  13.906   3.254   0.137
65134W        W29954   1.941  26.280  10.409
65135W        W29955  39.186  42.811  14.782
65136W        W29956  24.144   3.630   3.307
65137W        W29957  34.453  20.642   0.671
65138W        W29958  32.160  24.983   0.637
65139W        W29959  32.140  30.500  13.493
65140W        W29960  12.290  24.418   2.839
65141W        W29961  30.423  34.876   1.477
65142W        W29962  12.961  42.806   0.481
65143W        W29963  22.282  38.840   2.224
65144W        W29964  44.956   3.924  14.340
65145W        W29965  37.117  26.418   2.388
65146W        W29966  43.995  16.102   2.202
65147W        W29967  13.172  31.859  13.265
65148W        W29968  12.240  26.674  13.646
65149W        W29969  21.003   8.474   4.167
65150W        W29970  29.878  13.795  11.233
65151W        W29971  32.449  16.054   1.257
65152W        W29972  31.559  28.899   2.882
65153W        W29973  18.164  42.371  14.872
65154W        W29974  28.940  22.651  12.203
65155W        W29975  11.246  33.973   0.799
65156W        W29976  11.603  42.460   2.260
65157W        W29977  24.887  17.704  12.590
65158W        W29978  33.769  38.422  13.627
65159W        W29979   5.872  31.585   0.645
65160W        W29980  16.305  19.243  11.528
65161W        W29981  13.995  14.071   0.436
65162W        W29982  27.680  43.905  10.466
65163W        W29983  26.024   1.800   3.284
65164W        W29984   6.696  38.745  11.978
65165W        W29985  29.891   5.384  12.473
65166W        W29986  36.842  16.493   1.770
65167W        W29987  11.298  43.783   3.192
65168W        W29988  32.643  44.887  13.729
65169W        W29989  18.051  39.433   1.161
65170W        W29990  27.752  23.063   3.663
65171W        W29991  42.430  33.369   0.849
65172W        W29992   5.331  39.533  11.986
65173W        W29993  30.677   0.840  13.501
65174W        W29994  41.882  34.844   0.330
65175W        W29995   6.903  31.517   1.346
65176W        W29996  19.495  30.131  12.984
65177W        W29997  36.602  29.028  13.594
65178W        W29998  24.426  44.586  12.962
65179W        W29999  13.793  32.688  12.033
65180W        W30000   2.886  28.440  10.962
65181W        W30001   9.205  38.929  13.459
65182W        W30002   6.355  23.186   1.149
65183W        W30003  36.907  36.547  11.727
65184W        W30004  43.077  35.006   2.371
65185W        W30005   3.409  24.475  12.632
65186W        W30006  13.654  40.242   3.376
65187W        W30007  27.110  26.640   4.203
65188W        W30008  44.494  40.750  13.293
65189W        W30009  15.119  24.513  13.009
65190W        W30010  26.552  36.457   4.543
65191W        W30011  19.686  11.129   2.169
65192W        W30012  33.295  36.323  13.340
65193W        W30013  19.471  42.995   4.772
65194W        W30014  19.892  35.057   4.046
65195W        W30015   4.300   8.101   4.111
65196W        W30016  44.020  16.701  13.089
65197W        W30017  43.067  20.181   2.733
65198W        W30018   0.213   9.086  11.625
65199W        W30019   0.144  17.871   0.255
65200W        W30020  39.064   1.831   0.758
65201W        W30021  19.593  38.495   1.855
65202W        W30022  27.316  29.018  14.382
65203W        W30023  42.802  36.874   3.594
65204W        W30024  33.213  31.091  12.911
65205W        W30025  42.851   9.656   0.452
65206W        W30026  22.109   7.153   1.204
65207W        W30027  39.229  18.530  12.097
65208W        W30028  15.562  10.452  13.512
65209W        W30029  16.798  24.032  13.765
65210W        W30030  26.186  27.176  12.912
65211W        W30031  38.055  15.316  10.296
65212W        W30032  16.229  24.488  11.679
65213W        W30033  43.932  39.099  14.450
65214W        W30034  32.029  36.825  11.963
65215W        W30035  43.447  38.289  12.966
65216W        W30036  16.366  42.789   1.299
65217W        W30037  18.621  34.324  12.071
65218W        W30038  44.810  13.145  14.907
65219W        W30039  32.493  12.282  13.983
65220W        W30040  20.040   5.181   0.473
65221W        W30041   6.352  26.194  10.699
65222W        W30042  42.919  15.586  13.083
65223W        W30043  31.376  27.536   2.757
65224W        W30044  23.986  16.962   1.013
65225W        W30045  30.555   6.886  12.810
65226W        W30046   5.629  39.290   3.353
65227W        W30047  33.577  17.786   3.707
65228W        W30048  10.081  20.219   2.820
65229W        W30049  26.164  18.174  12.311
65230W        W30050  17.000  16.243  13.398
65231W        W30051  29.466  40.569  12.994
65232W        W30052   6.881  11.135  14.908
65233W        W30053  34.316  32.722   2.789
65234W        W30054  39.751  14.922   4.774
65235W        W30055  12.693  27.592  13.257
65236W        W30056  25.615   8.443  10.550
65237W        W30057  13.740  41.394   0.796
65238W        W30058  40.120  17.201  14.164
65239W        W30059  37.883  17.284  14.506
65240W        W30060  29.281  41.029  13.172
65241W        W30061  32.232   9.672  14.574
65242W        W30062  41.368  39.336  10.745
65243W        W30063  33.563  38.757  11.766
65244W        W30064  15.162  13.403   0.770
65245W        W30065  18.590  43.961   4.122
65246W        W30066  26.963  33.363   5.231
65247W        W30067  23.042  44.380   0.257
65248W        W30068   5.627  32.009   2.253
65249W        W30069  18.430  30.077   3.089
65250W        W30070  41.959  29.924   3.667
65251W        W30071  18.666  32.603  11.544
65252W        W30072  42.905  38.440   1.453
65253W        W30073  43.382   8.619   3.085
65254W        W30074  32.888  34.049  12.961
65255W        W30075  35.607  33.152  10.748
65256W        W30076  20.640  13.261   3.421
65257W        W30077  40.374  17.443  12.032
65258W        W30078  18.818   6.470   4.981
65259W        W30079  22.840  44.053  14.181
65260W        W30080  41.825  28.443   3.743
65261W        W30081  43.347  44.716   0.733
65262W        W30082  35.127  40.346  11.851
65263W        W30083   0.976   7.728  13.975
65264W        W30084   4.983  30.829  11.982
65265W        W30085  31.733  43.882   4.512
65266W        W30086  37.591   9.837   4.464
65267W        W30087  28.601  16.143  14.120
65268W        W30088  39.573  13.581  14.861
65269W        W30089  43.863  41.379   1.881
65270W        W30090  42.314   5.581   1.797
65271W        W30091  38.303  17.589   0.591
65272W        W30092  40.496  23.600  14.956
65273W        W30093  23.197  30.932   2.862
65274W        W30094  33.892  23.020   4.463
65275W        W30095  44.621  43.122  11.096
65276W        W30096  26.465  44.335  12.153
65277W        W30097  30.581   2.674  13.504
65278W        W30098  13.228   6.901   2.979
65279W        W30099  16.195   9.422   3.425
65280W        W30100  40.057  26.764  10.251
65281W        W30101  13.537  43.918  11.455
65282W        W30102   6.439  33.208  11.580
65283W        W30103  39.547  12.213   2.144
65284W        W30104  32.584  27.460   0.779
65285W        W30105  43.829   3.713   4.089
65286W        W30106  40.749  23.258  12.471
65287W        W30107   3.850  10.870  11.061
65288W        W30108  37.035   6.311   4.224
65289W        W30109  33.928  24.929  13.856
65290W        W30110  27.685  11.681  13.247
65291W        W30111  37.323  30.939   3.721
65292W        W30112  36.271  16.802   0.643
65293W        W30113  10.793  44.405  13.293
65294W        W30114  33.681  40.829   2.073
65295W        W30115  41.388  44.776  11.166
65296W        W30116  29.899  41.378  14.301
65297W        W30117  39.440  13.143   1.194
65298W        W30118   3.923  40.412   4.637
65299W        W30119  12.385  20.028   1.843
65300W        W30120  17.725  33.524   3.757
65301W        W30121  28.661  21.628  11.898
65302W        W30122  33.926  26.748   5.826
65303W        W30123  20.059   5.215   3.225
65304W        W30124  36.830   8.313  11.125
65305W        W30125   1.047   6.745   2.723
65306W        W30126  25.661  18.720   4.486
65307W        W30127  34.104  37.392   3.735
65308W        W30128  31.884   8.418   1.179
65309W        W30129  19.190  11.367   3.341
65310W        W30130  17.288  36.742  13.380
65311W        W30131  33.125   9.692   1.272
65312W        W30132   4.737  12.256   3.770
65313W        W30133  32.764  30.949   4.901
65314W        W30134  36.737  42.866   1.344
65315W        W30135  11.129  39.391  10.746
65316W        W30136  18.655  38.348  12.997
65317W        W30137  19.559  21.118   0.840
65318W        W30138  28.444  25.249   3.233
65319W        W30139  35.517  23.521   2.807
65320W        W30140  22.771  34.601   4.158
65321W        W30141  21.791  39.266  11.768
65322W        W30142   4.996   5.864  12.424
65323W        W30143  41.321  33.124  10.635
65324W        W30144   7.925  11.414   0.666
65325W        W30145  31.939  36.444   3.748
65326W        W30146  25.395  29.699  13.576
65327W        W30147  14.629  35.128   4.325
65328W        W30148  44.552   7.264   4.556
65329W        W30149  28.232   2.442  10.383
65330W        W30150  25.308   9.637  14.917
65331W        W30151  18.013  43.094   4.617
65332W        W30152  28.460  35.117   0.111
65333W        W30153  10.140  12.616  14.721
65334W        W30154  42.408  19.479   1.233
65335W        W30155  36.828   9.383   2.276
65336W        W30156  24.017  18.156   4.631
65337W        W30157  30.973  36.572  12.887
65338W        W30158  36.327  39.227   4.387
65339W        W30159  15.960  22.160   4.479
65340W        W30160  36.086  39.940   1.642
65341W        W30161  32.976   9.132  13.569
65342W        W30162  39.802  34.939   4.178
65343W        W30163  43.839  18.653   2.298
65344W        W30164  13.591   9.815   0.801
65345W        W30165  23.820   1.003  12.285
65346W        W30166  33.551   7.677   0.275
65347W        W30167   0.998  30.161   4.926
65348W        W30168   5.625  18.605  13.490
65349W        W30169  12.618  20.957  13.012
65350W        W30170  24.099  40.818   4.560
65351W        W30171  34.514   7.227   1.634
65352W        W30172  40.028  36.706   1.700
65353W        W30173  27.156  35.342  11.476
65354W        W30174  12.302  10.257  12.164
65355W        W30175  35.973  34.844   4.493
65356W        W30176  12.171  13.141   3.767
65357W        W30177  10.307   1.080  11.571
65358W        W30178   7.010  27.122   3.972
65359W        W30179  33.658  24.179   3.343
65360W        W30180  15.410  14.854  13.246
65361W        W30181  24.756  12.121  11.286
65362W        W30182  39.320  29.450  12.719
65363W        W30183  25.030  29.506   1.351
65364W        W30184  41.875  11.366  10.767
65365W        W30185  29.071  15.366   1.012
65366W        W30186  27.404  33.007  14.515
65367W        W30187  29.219  28.724   4.553
65368W        W30188   2.804  13.900   2.488
65369W        W30189  20.120   7.071   3.690
65370W        W30190  31.337  19.533  10.989
65371W        W30191   7.767  31.602  11.112
65372W        W30192  18.656  16.096   0.925
65373W        W30193   7.400   7.691  13.522
65374W        W30194  33.951  18.021  11.028
65375W        W30195  16.230  21.268   2.265
65376W        W30196  43.710  37.084   0.897
65377W        W30197  42.023  41.814  12.472
65378W        W30198  32.446   5.438   2.125
65379W        W30199   0.845  33.343   4.549
65380W        W30200  32.552  27.123  11.657
65381W        W30201  23.749   5.423   0.260
65382W        W30202  38.790  42.746   1.468
65383W        W30203  22.947  35.975  13.220
65384W        W30204  32.401   5.957   2.233
65385W        W30205  33.650   9.636  10.318
65386W        W30206  20.847  29.686   1.655
65387W        W30207   5.677  15.246  11.657
65388W        W30208  37.560  19.069  10.479
65389W        W30209  37.773  37.826   1.306
65390W        W30210  19.067   9.624   3.041
65391W        W30211   8.712   8.819   2.748
65392W        W30212   7.405  17.236  14.250
65393W        W30213  39.503  33.139  14.298
65394W        W30214  36.371   4.677   1.186
65395W        W30215  19.624  24.901   2.854
65396W        W30216  16.763  13.224   2.913
65397W        W30217  27.547  44.845  13.196
65398W        W30218  26.972  33.780   4.155
65399W        W30219  30.971  31.599   1.206
65400W        W30220  18.150   2.990   4.635
65401W        W30221  20.528   4.021  13.763
65402W        W30222  18.588  33.306  13.933
65403W        W30223  23.201   9.953  10.342
65404W        W30224  41.528   4.955  12.424
65405W        W30225   9.460  16.231  11.816
65406W        W30226   2.414  20.590   4.895
65407W        W30227   3.488   8.607  14.375
65408W        W30228   2.889   9.783   1.974
65409W        W30229   2.025  16.493  11.599
65410W        W30230  21.914  16.297  11.449
65411W        W30231  16.216  29.194   0.942
65412W        W30232   0.497  15.655   0.379
65413W        W30233  39.495  35.429  12.530
65414W        W30234   5.014   0.810   2.955
65415W        W30235  35.859  43.792  13.552
65416W        W30236   5.932   2.931   4.342
65417W        W30237  31.385  13.909  14.904
65418W        W30238   2.734  34.829   2.949
65419W        W30239  11.791  36.644   1.436
65420W        W30240  42.226   6.244  13.409
65421W        W30241  41.813  21.308   0.882
65422W        W30242  11.170  24.574   3.761
65423W        W30243  10.667  26.762  10.890
65424W        W30244  10.290   5.733  12.428
65425W        W30245  39.720  30.011  13.010
65426W        W30246  17.222   3.221  11.490
65427W        W30247   7.315  14.188   0.798
65428W        W30248  34.379  42.593   4.283
65429W        W30249  20.344   4.327   4.592
65430W        W30250  41.413  10.518  13.346
65431W        W30251   2.833  18.028  11.120
65432W        W30252  29.661  27.716   2.750
65433W        W30253  25.521  43.966   1.142
65434W        W30254  35.179   5.250   4.879
65435W        W30255  38.130  17.848   9.844
65436W        W30256  29.508  25.729   4.481
65437W        W30257  11.070  42.055  14.944
65438W        W30258  42.584   4.311  11.476
65439W        W30259  10.696  18.129   3.565
65440W        W30260  15.668   2.846   3.888
65441W        W30261   2.701  10.860  13.497
65442W        W30262  17.242  26.172  11.615
65443W        W30263  26.015  33.589  12.928
65444W        W30264  21.070  41.348   5.088
65445W        W30265  11.351   7.915   0.401
65446W        W30266   3.719  26.401   0.031
65447W        W30267  26.055  14.302  14.096
65448W        W30268  38.594  43.348   3.380
65449W        W30269  14.685  26.765  14.845
65450W        W30270  26.886  27.951  10.180
65451W        W30271  13.501  22.483   3.511
65452W        W30272   7.222   0.575  14.587
65453W        W30273  39.527  11.132  14.376
65454W        W30274  35.856   3.458   1.835
65455W        W30275   1.252  25.908  14.087
65456W        W30276   8.080  13.786   2.061
65457W        W30277  22.969   5.231  13.982
65458W        W30278   5.370  11.623  10.210
65459W        W30279  30.440  12.070   3.426
65460W        W30280  37.418   0.525  13.849
65461W        W30281  27.699  37.962   0.283
65462W        W30282   2.455  34.811  12.058
65463W        W30283  41.809   0.420   4.202
65464W        W30284  38.316  27.234  12.531
65465W        W30285  30.527  26.282  14.463
65466W        W30286  18.026   1.940  11.853
65467W        W30287   4.556  25.055  12.004
65468W        W30288  32.440   8.324  11.640
65469W        W30289  35.110  43.989   4.561
65470W        W30290  20.554  39.978   3.262
65471W        W30291  39.961   1.782   0.642
65472W        W30292   5.201   1.885  12.667
65473W        W30293  14.821  30.891  11.085
65474W        W30294   9.507  26.521  13.132
65475W        W30295  26.487   4.387   3.351
65476W        W30296  23.916  25.270  11.535
65477W        W30297  22.119  12.076  11.547
65478W        W30298  27.969   5.360   4.401
65479W        W30299  10.890  18.323  14.785
65480W        W30300  26.519  38.944   4.519
65481W        W30301  13.438  44.883   1.767
65482W        W30302  19.730  39.190  13.820
65483W        W30303  42.891  26.193  10.827
65484W        W30304  10.422  18.804   0.293
65485W        W30305  21.687  19.644   2.285
65486W        W30306  11.221   5.281  11.489
65487W        W30307  42.633  29.440  14.019
65488W        W30308  24.131   3.723  14.844
65489W        W30309  12.897  14.208   4.103
65490W        W30310  16.804   1.169   3.622
65491W        W30311   6.179  44.375  14.000
65492W        W30312   9.728  21.702  12.181
65493W        W30313  30.322  14.135   3.816
65494W        W30314  35.631  39.227   2.524
65495W        W30315  39.440  36.825  12.569
65496W        W30316  25.391   6.447   4.590
65497W        W30317  44.765  34.552  13.461
65498W        W30318   5.236  17.720  10.434
65499W        W30319  20.839  39.737  14.368
65500W        W30320  28.494   0.351  13.541
65501W        W30321  13.755  17.172   5.044
65502W        W30322  21.867  21.573  13.870
65503W        W30323  15.107  31.045   3.739
65504W        W30324   9.852  13.256   3.535
65505W        W30325   7.841  28.528  10.983
65506W        W30326   1.850  39.518  14.946
65507W        W30327  10.292  37.075   0.527
65508W        W30328  33.974   2.329  10.528
65509W        W30329  22.947  38.975  12.470
65510W        W30330  41.481  26.070  14.886
65511W        W30331  20.226  19.305  12.069
65512W        W30332  29.507  10.747  11.173
65513W        W30333  10.418  14.320  11.937
65514W        W30334  28.350  42.165  14.953
65515W        W30335  43.385  25.006  12.472
65516W        W30336  36.567  22.478  13.544
65517W        W30337   3.710  27.170   0.231
65518W        W30338   7.300  34.626  10.708
65519W        W30339  16.823  15.751  14.534
65520W        W30340  44.775  27.264  11.996
65521W        W30341  34.537   7.601   3.514
65522W        W30342  42.000  33.592  12.923
65523W        W30343   0.320  20.503  12.399
65524W        W30344  39.236   0.369   0.434
65525W        W30345   7.952   1.023  14.010
65526W        W30346  12.742  31.264  11.648
65527W        W30347  29.624   4.346  10.484
65528W        W30348  42.442   1.126  11.528
65529W        W30349  39.212  24.019  12.577
65530W        W30350  44.256  16.148   3.601
65531W        W30351   0.323  44.108   1.752
65532W        W30352  41.066   9.696   2.992
65533W        W30353  25.450   2.076   2.401
65534W        W30354  15.044   7.404   4.625
65535W        W30355  38.059  24.775   1.210
65536W        W30356  11.782  25.500  12.059
65537W        W30357   2.693  28.425   4.578
65538W        W30358  31.167   4.097  11.934
65539W        W30359   3.329  32.131  13.174
65540W        W30360  20.591  29.834  14.680
65541W        W30361  17.333   3.794  11.599
65542W        W30362  13.680  44.310  14.391
65543W        W30363  19.524   0.895   3.372
65544W        W30364  10.131   9.665  10.732
65545W        W30365  25.488   7.814  14.437
65546W        W30366  11.060  28.331  14.999
65547W        W30367  30.574  37.367  11.485
65548W        W30368  14.681   7.950   4.686
65549W        W30369  37.685  33.524   0.385
65550W        W30370   3.258  35.170  12.910
65551W        W30371   9.211  38.917  12.464
65552W        W30372  43.272   3.270   2.725
65553W        W30373  16.220  38.590  14.414
65554W        W30374  14.690  37.563   1.248
65555W        W30375  37.369  43.764  14.605
65556W        W30376  36.917  19.333  12.344
65557W        W30377   9.191   0.112   2.691
65558W        W30378  31.495   8.478  11.988
65559W        W30379  29.070  32.478  11.165
65560W        W30380  28.407  24.118  14.883
65561W        W30381  39.900  19.527   1.831
65562W        W30382   5.210  21.677  13.724
65563W        W30383  37.482  39.811  12.162
65564W        W30384   8.390  38.811  14.708
65565W        W30385  39.909  34.680  12.620
65566W        W30386  14.809  40.228  10.539
65567W        W30387  35.405  37.573   0.842
65568W        W30388  17.892   3.869   0.740
65569W        W30389  10.851  10.276   3.224
65570W        W30390  15.383  36.428  14.913
65571W        W30391  17.698  14.856   3.545
65572W        W30392  38.545   3.970  10.591
65573W        W30393  14.424  33.559  13.000
65574W        W30394  38.526  11.442  13.812
65575W        W30395  18.378  24.550  11.220
65576W        W30396  26.100  39.321  12.608
65577W        W30397   6.891  34.489   1.664
65578W        W30398  11.986  27.463  12.458
65579W        W30399  27.374   0.918  13.099
65580W        W30400  38.743  27.308   3.429
65581W        W30401  39.866  35.536  14.836
65582W        W30402   4.383  12.184   0.322
65583W        W30403  15.192  36.700   0.304
65584W        W30404  33.089  27.513   3.369
65585W        W30405  28.207  35.123  13.373
65586W        W30406  31.056  41.186   3.597
65587W        W30407  14.191  21.989   1.353
65588W        W30408  43.704  34.432   2.733
65589W        W30409  14.036  22.570  10.869
65590W        W30410  17.271  23.433   2.809
65591W        W30411  15.938  42.956   2.707
65592W        W30412  36.874   1.532   0.713
65593W        W30413  33.470  14.998   1.887
65594W        W30414   0.375  43.622  12.967
65595W        W30415  23.199  38.629  11.278
65596W        W30416  44.004   2.092  14.993
65597W        W30417  37.647  43.731  12.017
65598W        W30418  24.103  33.914  11.687
65599W        W30419  26.624  25.459  14.557
65600W        W30420  41.631  32.182   4.058
65601W        W30421   0.331  12.588  12.587
65602W        W30422  25.479  26.389   3.353
65603W        W30423  23.391   1.478  11.115
65604W        W30424   0.871  14.556  13.537
65605W        W30425  10.279  41.206  13.322
65606W        W30426  23.250  14.775  12.893
65607W        W30427   9.999  26.613  13.021
65608W        W30428  24.125  34.886  14.241
65609W        W30429  29.986  24.023   2.528
65610W        W30430  38.854  43.473  13.969
65611W        W30431   9.885   6.987  14.945
65612W        W30432   6.050  33.921   3.672
65613W        W30433   0.762  25.125  13.199
65614W        W30434  14.238  36.140   2.865
65615W        W30435   2.687  44.208   4.787
65616W        W30436   1.375   2.954   3.323
65617W        W30437  17.420   9.770   4.084
65618W        W30438   6.882  28.672  14.873
65619W        W30439   1.316  23.586   2.351
65620W        W30440   4.571  34.374   2.697
65621W        W30441   0.065  22.548  10.619
65622W        W30442  13.272  24.635  13.405
65623W        W30443   0.099   0.461   0.372
65624W        W30444  16.409  31.610  13.331
65625W        W30445   4.649   1.791  10.589
65626W        W30446  19.967  19.696   3.726
65627W        W30447  27.663  20.514  10.720
65628W        W30448  21.211   1.630  11.160
65629W        W30449  29.197  29.161  12.985
65630W        W30450  31.621   8.876  14.388
65631W        W30451  38.596  27.420  13.200
65632W        W30452   4.813  11.044  13.991
65633W        W30453  44.467  17.310   2.417
65634W        W30454   6.501  39.931  11.506
65635W        W30455  20.692   5.514  13.974
65636W        W30456  22.730   3.882  12.500
65637W        W30457   8.917  31.719   2.524
65638W        W30458  34.307  26.159   0.316
65639W        W30459  37.111   8.777   2.887
65640W        W30460  16.510  22.233  12.882
65641W        W30461  30.104  23.918  12.888
65642W        W30462  37.118  16.667  13.336
65643W        W30463  27.330   2.490   4.426
65644W        W30464  27.101  44.009   1.825
65645W        W30465  34.028  13.031  12.033
65646W        W30466  36.283  31.225   0.347
65647W        W30467   2.966  18.715  11.601
65648W        W30468   5.196  11.880  10.678
65649W        W30469  22.253  13.355  12.403
65650W        W30470  19.396  26.743   0.427
65651W        W30471   4.323  42.635  11.097
65652W        W30472  36.459  28.874   0.805
65653W        W30473  22.787   2.843   0.689
65654W        W30474  21.838  23.999   3.813
65655W        W30475  27.478  31.564   2.456
65656W        W30476  33.503  42.508  13.252
65657W        W30477  40.645  37.073  13.753
65658W        W30478   8.659  30.653   3.181
65659W        W30479  42.343  39.664  14.849
65660W        W30480  38.953  18.622   3.117
65661W        W30481   8.211  36.514   1.831
65662W        W30482  19.714   1.259  11.728
65663W        W30483   1.320   0.616   3.946
65664W        W30484  11.406  42.772  13.001
65665W        W30485  29.961  19.149   0.067
65666W        W30486   8.684   2.543  14.861
65667W        W30487   5.799  19.796   1.923
65668W        W30488   8.670  29.601  13.546
65669W        W30489  42.487  31.187   0.944
65670W        W30490   6.609  22.441  10.639
65671W        W30491  35.910  32.676  13.973
65672W        W30492  38.807  35.881   0.441
65673W        W30493  14.522   7.703  13.477
65674W        W30494  16.099   7.698  11.145
65675W        W30495  25.939  18.093   0.970
65676W        W30496  12.587   6.217  12.613
65677W        W30497  26.397  14.207  12.372
65678W        W30498   7.625  44.301   3.830
65679W        W30499  23.682  29.949  13.973
65680W        W30500  33.127   9.410   1.740
65681W        W30501  36.237  11.022   5.055
65682W        W30502  44.491  22.244  11.177
65683W        W30503  35.147  42.661   3.171
65684W        W30504  12.236  31.006  13.362
65685W        W30505  36.014   9.010   4.125
65686W        W30506  11.756  28.065  13.070
65687W        W30507  39.992  12.383   1.280
65688W        W30508  20.206  35.827   5.030
65689W        W30509   3.530  34.038   2.805
65690W        W30510  22.611  15.773  10.464
65691W        W30511  36.969  14.636   3.137
65692W        W30512  44.003   6.325  12.909
65693W        W30513  31.564  39.218   1.288
65694W        W30514  14.767  31.578   2.179
65695W        W30515  39.960   9.072  13.073
65696W        W30516   9.744  30.093   4.559
65697W        W30517  13.766  13.094   0.783
65698W        W30518  24.183  15.322   0.978
65699W        W30519  42.910  22.743  10.830
65700W        W30520  19.642  20.312  13.469
65701W        W30521  31.441  30.448   1.889
65702W        W30522  10.315  15.207  14.313
65703W        W30523  23.922   9.535   4.198
65704W        W30524  29.097  36.778   4.601
65705W        W30525   1.398  27.256   0.236
65706W        W30526  32.566  33.872  14.320
65707W        W30527  13.835  43.594  12.457
65708W        W30528  36.916  16.052  10.287
65709W        W30529   6.622   2.180  10.220
65710W        W30530   4.787   4.830  12.482
65711W        W30531  34.468  13.120  13.279
65712W        W30532  35.947  21.018   3.770
65713W        W30533  12.520  35.957  11.947
65714W        W30534   2.961  24.114   2.893
65715W        W30535  21.827  41.150  12.199
65716W        W30536   1.589  42.894   4.789
65717W        W30537  13.825  10.162  11.879
65718W        W30538   9.797  23.622  10.957
65719W        W30539  38.262  26.201  11.480
65720W        W30540  41.340  23.018  10.744
65721W        W30541  15.005  43.235  13.841
65722W        W30542   7.263   2.584   4.023
65723W        W30543  41.928   4.515   0.863
65724W        W30544  35.043   1.836  10.554
65725W        W30545  34.412  10.405  14.946
65726W        W30546   5.302  32.712   4.596
65727W        W30547  20.043  29.657   2.113
65728W        W30548   3.003  34.916   4.266
65729W        W30549  18.669   5.595  14.139
65730W        W30550   8.242  30.671  14.402
65731W        W30551  15.609   8.718  11.993
65732W        W30552  31.707   2.827   0.836
65733W        W30553   2.899  41.385   4.388
65734W        W30554   7.420  23.612  12.971
65735W        W30555  39.359   7.769  12.971
65736W        W30556  26.751  33.323   4.189
65737W        W30557  37.905  33.963  13.069
65738W        W30558   6.206  15.430   4.946
65739W        W30559   2.170   5.854  13.457
65740W        W30560  13.145  38.112   2.872
65741W        W30561  30.042  22.313   0.376
65742W        W30562  30.184  20.729  12.405
65743W        W30563  38.529  20.645  14.800
65744W        W30564  15.666  38.762   2.482
65745W        W30565  17.084  28.405   4.170
65746W        W30566  34.445  11.178   2.162
65747W        W30567   0.389  11.633   0.750
65748W        W30568  25.607   1.833   4.692
65749W        W30569  16.359  25.022  14.247
65750W        W30570  16.154  22.676   1.905
65751W        W30571  34.871   5.757   3.581
65752W        W30572  41.919  15.841   2.754
65753W        W30573  17.535  16.332   4.086
65754W        W30574  12.208  16.039   2.146
65755W        W30575  26.709   3.815   2.651
65756W        W30576   0.050  30.792  13.813
65757W        W30577  28.441  39.953  12.615
65758W        W30578  29.376  14.817   3.170
65759W        W30579  26.902  14.289  12.342
65760W        W30580  19.987  26.107  11.163
65761W        W30581  30.888   3.825  11.493
65762W        W30582  37.832  41.452  13.907
65763W        W30583  17.607   5.010  13.362
65764W        W30584  27.392   4.361  11.054
65765W        W30585  38.528  28.129   4.683
65766W        W30586   1.816  28.155  12.882
65767W        W30587  32.997  25.245   2.661
65768W        W30588  30.520  36.044  13.068
65769W        W30589   0.318  37.190  11.707
65770W        W30590  42.295  18.087  13.446
65771W        W30591   8.240  18.251  14.740
65772W        W30592   7.529  18.284  11.517
65773W        W30593   1.042   1.304  10.882
65774W        W30594   4.326  20.929   2.296
65775W        W30595  32.351  33.203   3.923
65776W        W30596  34.288   5.326  11.066
65777W        W30597   6.768  26.517   1.727
65778W        W30598  26.630  31.113   1.680
65779W        W30599  25.713  22.666   2.339
65780W        W30600  40.840   4.697   4.699
65781W        W30601  43.224  25.933   4.219
65782W        W30602  18.509   7.641  11.085
65783W        W30603   6.165  14.601  13.456
65784W        W30604   0.184  15.759   0.867
65785W        W30605  21.576  29.368   3.694
65786W        W30606  14.740   0.460   0.795
65787W        W30607   2.767  38.996  10.683
65788W        W30608  16.631  17.270   0.973
65789W        W30609  30.189  10.289   3.278
65790W        W30610  28.087  40.400   1.232
65791W        W30611  30.082  26.031   0.933
65792W        W30612  18.258   5.002   3.658
65793W        W30613  15.548  20.000  12.010
65794W        W30614  14.299  31.652  14.512
65795W        W30615  37.876  42.795   2.188
65796W        W30616  43.095  17.217  12.508
65797W        W30617  39.943  36.713  12.416
65798W        W30618  41.785  13.837   4.260
65799W        W30619  10.351   1.245   1.080
65800W        W30620  14.215  13.213   4.069
65801W        W30621   4.923  28.468   1.877
65802W        W30622  25.035   0.855   3.711
65803W        W30623  41.776   6.301   0.552
65804W        W30624  10.272  35.438  10.940
65805W        W30625  22.456  39.335  10.631
65806W        W30626  10.729  10.613   2.145
65807W        W30627  25.393  17.593   0.562
65808W        W30628  29.633  12.924  11.995
65809W        W30629  27.607   1.452   3.133
65810W        W30630   2.344  38.366  14.589
65811W        W30631  15.995  29.376   1.364
65812W        W30632   5.158  33.167   1.514
65813W        W30633  34.302  27.184  11.978
65814W        W30634  14.749  24.450  12.643
65815W        W30635  37.575  43.740  12.748
65816W        W30636  15.170  40.908  10.316
65817W        W30637  41.830  39.807  14.956
65818W        W30638  18.572   2.676  14.572
65819W        W30639  21.064  33.789  12.683
65820W        W30640  18.040  43.596  12.833
65821W        W30641  23.496   9.205  14.918
65822W        W30642  24.125   3.522  10.612
65823W        W30643   2.873  38.554  13.008
65824W        W30644  39.769  19.710   4.406
65825W        W30645  14.812  23.519   1.262
65826W        W30646  16.217  16.823  12.861
65827W        W30647  40.056   3.860   0.467
65828W        W30648  21.705  41.949   2.289
65829W        W30649  13.818  11.749  13.409
65830W        W30650   2.438  38.587   4.141
65831W        W30651  27.497  25.179  14.405
65832W        W30652  35.999  26.165  13.732
65833W        W30653  29.489  13.312  13.314
65834W        W30654  42.295  34.449   1.953
65835W        W30655   9.265  23.378   2.345
65836W        W30656  13.754   9.379  12.435
65837W        W30657  44.079  36.963  13.707
65838W        W30658   3.660   1.693   1.102
65839W        W30659   4.408  13.229  11.666
65840W        W30660  31.526  33.869   1.284
65841W        W30661  18.811  28.733   0.984
65842W        W30662  14.606  18.261   3.199
65843W        W30663  39.838  11.083  12.155
65844W        W30664  40.942  18.459  12.558
65845W        W30665  32.372  37.646  14.929
65846W        W30666  12.725  43.429  11.078
65847W        W30667  34.417  22.434   0.431
65848W        W30668  24.723  32.360   2.288
65849W        W30669  16.098   5.666  12.404
65850W        W30670  25.154  37.429   4.529
65851W        W30671   3.888  39.958  11.989
65852W        W30672  16.928  43.779  14.159
65853W        W30673   7.260  16.489  12.105
65854W        W30674  15.520  29.601  10.149
65855W        W30675  42.021  24.311   4.179
65856W        W30676   9.698  17.711  13.853
65857W        W30677  42.525  44.473   2.136
65858W        W30678  28.693  22.248   1.758
65859W        W30679   1.756  31.972   3.776
65860W        W30680  34.990  34.409  10.789
65861W        W30681   3.828  10.594  11.976
65862W        W30682  23.537   2.415   2.618
65863W        W30683   2.422  26.421  13.859
65864W        W30684  36.332  24.573   1.412
65865W        W30685  34.065  32.119  12.829
65866W        W30686  35.780   7.630   3.180
65867W        W30687  43.050  25.965  11.803
65868W        W30688  36.866  30.178  11.215
65869W        W30689   8.131   8.656   3.218
65870W        W30690  34.811  25.488  13.974
65871W        W30691  18.113   9.281   9.485
65872W        W30692  32.941  38.622   4.992
65873W        W30693  28.123   4.464  13.028
65874W        W30694   2.421  37.790  11.484
65875W        W30695  44.962  31.515   1.875
65876W        W30696  18.096  11.269  12.567
65877W        W30697  36.383  41.663   0.899
65878W        W30698  19.864  19.241   0.260
65879W        W30699  25.899  36.771   0.464
65880W        W30700  29.625  26.707  12.888
65881W        W30701  37.851  10.914   9.823
65882W        W30702  36.519  10.497  12.543
65883W        W30703  32.068  26.582  13.777
65884W        W30704  18.589  19.789   0.530
65885W        W30705  18.645   0.886  10.529
65886W        W30706  14.868  41.798  13.641
65887W        W30707  10.765  41.046  14.459
65888W        W30708  26.993  34.205  14.439
65889W        W30709   8.565  36.897  12.616
65890W        W30710  22.707  32.548  11.985
65891W        W30711  18.084  42.432   2.417
65892W        W30712  43.977  37.645   3.271
65893W        W30713   1.495  21.205   4.638
65894W        W30714  23.480   6.713   3.196
65895W        W30715  43.834  24.061  13.374
65896W        W30716   7.620   1.797   3.760
65897W        W30717  41.738  28.344  11.229
65898W        W30718  32.172  22.424  11.052
65899W        W30719  32.235  26.838  13.361
65900W        W30720  16.545  36.765   0.798
65901W        W30721  40.091  15.370   3.592
65902W        W30722  13.867  23.635  11.208
65903W        W30723  11.515  21.668   0.476
65904W        W30724   6.604  34.059  10.680
65905W        W30725  22.979  31.194  10.944
65906W        W30726  13.577   1.451  14.451
65907W        W30727   9.355   6.966  14.874
65908W        W30728  40.262  21.607   2.920
65909W        W30729  43.926  22.016   5.011
65910W        W30730  38.528  16.850  11.154
65911W        W30731  31.394  26.510  13.426
65912W        W30732  20.730  23.220  13.464
65913W        W30733   2.734  33.690   1.319
65914W        W30734  36.769   2.969   5.222
65915W        W30735  41.884   9.646   1.830
65916W        W30736   1.915  29.525   4.946
65917W        W30737  19.811  10.807  11.299
65918W        W30738  19.632  12.117   4.167
65919W        W30739   7.048  23.487   2.638
65920W        W30740  15.134  24.440  12.086
65921W        W30741   5.841  28.504  13.348
65922W        W30742  37.958   0.026  13.264
65923W        W30743  41.872   9.233  11.051
65924W        W30744  17.323  40.961  13.018
65925W        W30745  25.753  35.913   2.760
65926W        W30746  21.723  14.090   3.519
65927W        W30747   2.202   8.847   0.454
65928W        W30748  28.479   4.115  14.794
65929W        W30749  35.812  12.274   3.673
65930W        W30750  28.538  21.290  10.520
65931W        W30751  34.662  23.568  14.511
65932W        W30752  26.024  31.133  12.162
65933W        W30753  21.616  13.441   5.572
65934W        W30754  37.462   0.896  14.805
65935W        W30755  13.349  18.750   2.723
65936W        W30756  32.079  44.372  14.306
65937W        W30757  43.912  23.494   0.339
65938W        W30758  37.608  16.899   3.626
65939W        W30759  16.322   1.691   2.330
65940W        W30760   1.302  15.381   2.165
65941W        W30761  30.003  43.039  12.904
65942W        W30762  12.856  19.609   0.769
65943W        W30763   3.855   3.825   3.585
65944W        W30764  14.992   2.358  13.912
65945W        W30765   3.534  39.081  11.109
65946W        W30766  26.210  44.256  10.694
65947W        W30767  12.639  42.785   2.360
65948W        W30768  13.967   2.646  13.566
65949W        W30769   1.259  24.718   3.803
65950W        W30770  35.824  31.108  13.970
65951W        W30771  41.236  31.726  10.743
65952W        W30772   0.494  23.807  13.100
65953W        W30773   7.663   1.973  12.248
65954W        W30774  43.410  28.460   2.411
65955W        W30775  33.642  12.571  13.234
65956W        W30776  30.803  13.079  13.184
65957W        W30777  21.050  22.149  10.927
65958W        W30778  36.090   2.424   2.937
65959W        W30779   3.926   4.143   2.742
65960W        W30780  22.467  41.551  12.733
65961W        W30781  10.130   2.989   4.543
65962W        W30782  40.368  38.567   0.704
65963W        W30783   2.463  27.392  11.673
65964W        W30784  35.621  21.689   0.062
65965W        W30785  22.120  17.722  13.931
65966W        W30786  44.025  15.020  11.431
65967W        W30787  28.007  32.070  12.895
65968W        W30788  11.240   4.432  13.260
65969W        W30789  20.145  31.727   3.558
65970W        W30790   7.443  44.410   0.561
65971W        W30791  31.645   6.952  14.428
65972W        W30792  36.721  28.621   2.128
65973W        W30793   2.386  13.612   1.332
65974W        W30794   8.931  26.702  13.185
65975W        W30795   8.260   2.836  12.983
65976W        W30796  17.222  13.439   2.782
65977W        W30797  16.793  17.472   0.516
65978W        W30798   4.005  18.712  11.568
65979W        W30799  12.851  13.086   0.868
65980W        W30800  38.882   3.225  13.891
65981W        W30801  18.275  25.183   2.762
65982W        W30802  29.400  21.504   1.775
65983W        W30803  16.703  43.922   0.171
65984W        W30804  24.865  24.310   0.001
65985W        W30805  26.839   3.830   4.482
65986W        W30806  40.881   5.706  11.139
65987W        W30807  36.365  29.164   4.529
65988W        W30808  39.779  32.564  13.211
65989W        W30809  30.621  31.570   4.810
65990W        W30810   9.198  43.509  13.815
65991W        W30811   4.625   9.098  13.986
65992W        W30812  39.891  39.898   0.387
65993W        W30813  17.106  39.357   2.352
65994W        W30814  33.918   9.486  14.346
65995W        W30815  10.317  39.162  10.699
65996W        W30816  22.757  24.641   1.926
65997W        W30817  38.893  11.093  14.885
65998W        W30818  32.470  35.927   1.520
65999W        W30819  24.489  34.092   4.107
66000W        W30820  44.845  18.845  11.407
66001W        W30821   6.882  40.524  12.485
66002W        W30822   9.920  39.013  14.965
66003W        W30823  35.869  11.386   3.735
66004W        W30824  44.908  10.495  13.394
66005W        W30825  18.141   0.176   0.469
66006W        W30826  23.182  22.769  14.438
66007W        W30827   5.740  38.038  13.557
66008W        W30828  10.733  12.339  11.718
66009W        W30829  33.084  18.797   0.781
66010W        W30830  34.557  29.177   3.064
66011W        W30831  24.801   3.301  12.965
66012W        W30832  32.926  19.707  14.030
66013W        W30833  40.059  10.723  12.442
66014W        W30834  24.127  23.508  12.949
66015W        W30835  32.826   7.268   2.809
66016W        W30836  39.412  23.233   1.643
66017W        W30837  13.798  35.148   3.995
66018W        W30838  21.248  33.603   2.015
66019W        W30839  32.531  42.989   5.374
66020W        W30840  40.795  44.430  11.686
66021W        W30841  41.777  13.152   2.138
66022W        W30842  11.960  27.898  10.829
66023W        W30843  31.918   6.723  14.812
66024W        W30844  34.794  32.503  12.324
66025W        W30845  14.294  26.424   0.440
66026W        W30846  37.905  27.873   1.967
66027W        W30847  36.463   6.857   2.356
66028W        W30848  26.447  15.660  11.303
66029W        W30849  14.809   6.396   3.668
66030W        W30850  21.808   1.702  12.933
66031W        W30851   0.966   5.917   0.575
66032W        W30852   5.232  40.953   0.991
66033W        W30853  27.203  26.664  14.954
66034W        W30854   4.004  33.589   0.757
66035W        W30855  32.930  40.845   3.663
66036W        W30856  39.496  35.017   4.881
66037W        W30857   8.293   0.501  11.590
66038W        W30858  40.936  35.788  12.028
66039W        W30859  10.176  21.293  12.584
66040W        W30860   6.462  44.170  11.099
66041W        W30861   1.373  18.372  14.073
66042W        W30862   9.736  18.900  10.976
66043W        W30863   3.991  39.619  13.916
66044W        W30864  33.814  28.617   5.196
66045W        W30865   5.440  11.088   4.697
66046W        W30866  42.247  21.074   1.903
66047W        W30867  33.685   0.896   2.743
66048W        W30868  33.825  12.905  11.570
66049W        W30869   3.474  32.549  12.008
66050W        W30870  16.787   8.749  12.787
66051W        W30871  29.520  18.959  14.839
66052W        W30872  13.067  26.583   0.821
66053W        W30873  19.027  41.319  10.601
66054W        W30874  44.214  31.135  10.712
66055W        W30875  29.158  12.088  11.144
66056W        W30876  12.129  20.804   0.327
66057W        W30877  37.037  18.053  12.595
66058W        W30878  21.396  39.849   4.284
66059W        W30879  15.300  38.909   3.250
66060W        W30880  44.733  26.574  12.129
66061W        W30881  12.775  32.632  11.497
66062W        W30882   6.824  17.188   0.695
66063W        W30883   6.905  17.752  14.691
66064W        W30884   5.954  13.385   4.044
66065W        W30885  18.240   6.420  13.959
66066W        W30886   7.759   2.157  11.459
66067W        W30887  43.133  15.654   4.485
66068W        W30888   0.686  13.469  14.899
66069W        W30889  11.493  30.550  13.470
66070W        W30890  21.116  25.157   1.231
66071W        W30891  36.886  37.616   4.560
66072W        W30892  34.986  19.764  12.181
66073W        W30893  23.534  28.498   2.810
66074W        W30894   5.003   1.670  11.374
66075W        W30895   8.226  26.111   2.694
66076W        W30896  14.876  35.339   1.776
66077W        W30897  28.543  33.345   4.043
66078W        W30898  18.523  37.575  10.253
66079W        W30899  16.647   1.335   3.119
66080W        W30900  36.045  32.932  11.509
66081W        W30901  29.055   9.292   4.147
66082W        W30902   9.790  36.678   1.369
66083W        W30903  21.233  24.445   2.239
66084W        W30904  13.711  33.510   3.767
66085W        W30905   8.774   2.456  10.735
66086W        W30906  23.754   0.251   0.954
66087W        W30907  13.330  35.651  10.680
66088W        W30908  40.317  44.196  14.625
66089W        W30909  21.790  39.561   4.127
66090W        W30910  26.213  43.320   2.351
66091W        W30911  23.026   0.094   0.923
66092W        W30912  18.761  21.958  12.422
66093W        W30913  23.180  14.744  10.508
66094W        W30914  22.204  40.794  10.770
66095W        W30915   8.162  13.512  11.435
66096W        W30916  32.815  36.651  11.464
66097W        W30917  36.636  41.826  13.311
66098W        W30918  44.631   6.320   1.255
66099W        W30919   3.189  14.305   4.147
66100W        W30920   1.904  34.719  14.468
66101W        W30921  31.172  15.006   2.812
66102W        W30922  11.335   4.252  14.476
66103W        W30923  26.778  16.625  12.649
66104W        W30924  28.073  23.810   0.814
66105W        W30925  32.898  32.367  11.470
66106W        W30926  13.102   0.514   2.868
66107W        W30927  33.629  12.324   2.498
66108W        W30928  33.450  35.858  14.896
66109W        W30929   8.986   6.751  12.604
66110W        W30930  42.309  30.675  13.633
66111W        W30931  12.193   1.311  14.987
66112W        W30932   2.307  31.042  14.808
66113W        W30933  39.572  17.852  12.527
66114W        W30934   4.216  34.410   2.320
66115W        W30935  15.202   2.356  12.056
66116W        W30936  21.767  26.919   2.851
66117W        W30937   5.395  40.778   3.364
66118W        W30938  29.222   4.723   3.290
66119W        W30939  17.720  19.828   4.370
66120W        W30940  27.694   9.705  13.312
66121W        W30941  10.199  43.094   2.373
66122W        W30942  30.853  40.041  11.844
66123W        W30943  18.603  43.241   2.230
66124W        W30944  23.096  24.154   3.308
66125W        W30945  39.838  31.941   0.972
66126W        W30946  27.510  31.057  10.711
66127W        W30947   7.491  39.538  13.483
66128W        W30948  11.183  41.828  10.481
66129W        W30949   6.761  35.141   0.384
66130W        W30950  12.606  16.512  14.531
66131W        W30951  10.691   2.432   1.651
66132W        W30952  40.356   3.471  12.490
66133W        W30953  12.490   6.753   4.656
66134W        W30954  32.593  36.499  12.098
66135W        W30955  13.268  19.616  14.016
66136W        W30956  19.557  17.638  12.176
66137W        W30957  36.159  25.478   2.351
66138W        W30958  20.187   1.549  12.701
66139W        W30959   7.597  42.390  14.189
66140W        W30960  16.461  13.579   4.136
66141W        W30961  28.877  43.379   2.318
66142W        W30962  31.168   3.969  12.787
66143W        W30963  12.278  13.592   1.484
66144W        W30964  33.526   4.722   2.164
66145W        W30965   7.899  42.112  13.879
66146W        W30966   1.901  30.859  12.027
66147W        W30967  10.063  14.549   4.100
66148W        W30968  17.646  13.248   3.400
66149W        W30969   2.220  41.477  12.594
66150W        W30970   4.871  14.070   4.982
66151W        W30971  24.457  29.481   2.037
66152W        W30972  19.853  14.129  11.619
66153W        W30973  33.485  20.670   2.608
66154W        W30974   5.333  15.927  11.133
66155W        W30975  27.616  27.898  11.143
66156W        W30976   6.880   7.343   3.950
66157W        W30977   2.333  25.520  12.565
66158W        W30978  34.579   1.016   3.888
66159W        W30979  35.144  17.707   0.419
66160W        W30980  38.798   4.795  13.041
66161W        W30981  43.378  29.542  14.316
66162W        W30982  12.695  23.020  10.589
66163W        W30983  19.945  41.723   1.734
66164W        W30984  21.770  33.615   0.304
66165W        W30985  22.703  34.030  12.184
66166W        W30986  29.956  13.697   0.072
66167W        W30987  21.524  24.019  11.202
66168W        W30988  29.026  30.021   2.681
66169W        W30989  22.603  31.694  13.041
66170W        W30990  27.982  37.743   0.667
66171W        W30991  24.711  37.893   2.277
66172W        W30992  39.431  18.807   2.157
66173W        W30993  42.276  19.384  13.000
66174W        W30994  39.226  31.286  13.418
66175W        W30995   6.391  16.019  13.052
66176W        W30996  19.589  17.364   3.115
66177W        W30997  12.864  40.903   3.173
66178W        W30998  33.167  21.110   1.145
66179W        W30999  22.666  41.239   1.000
66180W        W31000  25.235  43.293  13.928
66181W        W31001  23.667  34.482   0.919
66182W        W31002   5.472  20.602  11.544
66183W        W31003  44.522  12.264   3.644
66184W        W31004  31.186  12.313   3.649
66185W        W31005  11.664  19.964  12.850
66186W        W31006  40.555  38.347  11.043
66187W        W31007  26.509   1.298   1.664
66188W        W31008  43.007  16.702   2.741
66189W        W31009  37.391  32.418   3.634
66190W        W31010   5.147  21.719  12.005
66191W        W31011  36.356  37.593   5.272
66192W        W31012   6.791  28.959   2.204
66193W        W31013  19.804  13.429  14.547
66194W        W31014  40.346   1.934   3.640
66195W        W31015  28.712  44.559   2.836
66196W        W31016  27.218  27.045   2.764
66197W        W31017  42.001  42.004   1.152
66198W        W31018  26.971  22.645  14.884
66199W        W31019  11.377  43.010  13.459
66200W        W31020  28.766  41.432   3.990
66201W        W31021  18.857   9.403   1.328
66202W        W31022  12.639  22.964   0.827
66203W        W31023  35.318  10.250   2.696
66204W        W31024   3.355  31.382   2.277
66205W        W31025  42.178  26.405   0.274
66206W        W31026   5.890  23.838   3.617
66207W        W31027  31.033   9.996   3.768
66208W        W31028  44.918  44.583   2.350
66209W        W31029  29.828  36.923  14.871
66210W        W31030  20.580  19.265  11.080
66211W        W31031  10.731  27.541  11.749
66212W        W31032  29.037  40.945   2.551
66213W        W31033  26.570   6.056  14.456
66214W        W31034  33.867   3.206  12.921
66215W        W31035   7.481  28.183  10.068
66216W        W31036  15.669  10.236   3.254
66217W        W31037  14.575   1.304  12.995
66218W        W31038   7.506   3.046  14.497
66219W        W31039  10.116  39.244   4.045
66220W        W31040   5.353  34.978  12.102
66221W        W31041  28.154  26.756  12.422
66222W        W31042  43.914  11.599   4.513
66223W        W31043  15.277   3.282  14.928
66224W        W31044  23.569  30.448  13.954
66225W        W31045  26.376   8.874  12.115
66226W        W31046  21.719   2.807   4.497
66227W        W31047  42.613  34.847   0.879
66228W        W31048   2.755  11.259   1.402
66229W        W31049  21.026   3.329  10.940
66230W        W31050  28.529  17.990  14.988
66231W        W31051  42.322  38.283  11.026
66232W        W31052  32.560  26.366   4.823
66233W        W31053  35.944  32.819  12.595
66234W        W31054  11.723  21.619   1.333
66235W        W31055  26.243  21.633   1.784
66236W        W31056  13.379  36.044  10.277
66237W        W31057   4.178   7.626   4.226
66238W        W31058  43.831  26.412  11.602
66239W        W31059   6.668  18.137   1.009
66240W        W31060  27.929  32.104   4.988
66241W        W31061  17.883  18.689   0.675
66242W        W31062  10.920  37.375  12.495
66243W        W31063  11.225  33.946   4.564
66244W        W31064  17.290  23.261  12.622
66245W        W31065   6.895  16.408   3.159
66246W        W31066   7.029   8.261  11.548
66247W        W31067  10.750   8.288   2.123
66248W        W31068  13.609  35.680  13.051
66249W        W31069  39.592  42.507  14.936
66250W        W31070   2.267  15.752   3.086
66251W        W31071  20.471  41.758   1.602
66252W        W31072  24.407   2.492  13.458
66253W        W31073  17.622  40.686  13.358
66254W        W31074   0.459  12.874   2.380
66255W        W31075  10.741  25.684  13.297
66256W        W31076  28.270  21.510   1.406
66257W        W31077   2.329  40.816   1.256
66258W        W31078  33.460  30.756   0.366
66259W        W31079  17.017  36.532   1.419
66260W        W31080  10.270  39.791   1.669
66261W        W31081  19.073   3.729  12.054
66262W        W31082  30.341  30.126  14.563
66263W        W31083   3.893   1.307   2.284
66264W        W31084  38.539  27.284  11.646
66265W        W31085   8.679  24.638   3.193
66266W        W31086  17.069  43.227  13.133
66267W        W31087   5.977  43.233   4.538
66268W        W31088  40.473  41.145   4.171
66269W        W31089  21.430   7.921   1.318
66270W        W31090  44.740  34.753  12.591
66271W        W31091  24.016   0.371  14.351
66272W        W31092  41.275  22.447  14.948
66273W        W31093  14.796   7.186   0.906
66274W        W31094  41.842  28.200  13.830
66275W        W31095  39.067   9.269   3.582
66276W        W31096  21.283  36.542   5.010
66277W        W31097  28.561  21.693   2.428
66278W        W31098  10.433  44.323  10.072
66279W        W31099   4.683  14.710   2.669
66280W        W31100   1.599  19.574  11.082
66281W        W31101  32.299  12.096   1.937
66282W        W31102  27.979  19.033  10.778
66283W        W31103   2.909   0.254  13.095
66284W        W31104  13.184  25.611   0.763
66285W        W31105  24.894  37.597   3.679
66286W        W31106  36.846   3.362  12.886
66287W        W31107   8.617  21.235   1.358
66288W        W31108   1.833  26.990   0.391
66289W        W31109  13.889  32.597  10.687
66290W        W31110  15.173  42.457   2.460
66291W        W31111  30.796  17.401  10.660
66292W        W31112   9.292  26.487   1.480
66293W        W31113  43.484  26.265  11.107
66294W        W31114  37.832   1.943   1.347
66295W        W31115  11.728  16.614  13.349
66296W        W31116   0.953  14.607   2.675
66297W        W31117  40.270  21.142  14.891
66298W        W31118  17.022  37.076   1.706
66299W        W31119  14.615  41.831  12.970
66300W        W31120  28.455  15.200  13.999
66301W        W31121   2.435  16.035  12.080
66302W        W31122   8.814  44.042   4.123
66303W        W31123   3.806  36.475   0.370
66304W        W31124  23.557   2.482   3.157
66305W        W31125   7.904  14.995  14.823
66306W        W31126  24.608   9.366  11.129
66307W        W31127  32.534  10.294   1.393
66308W        W31128   2.395  43.026  14.328
66309W        W31129  28.866  14.174  10.628
66310W        W31130  38.586   9.886   1.431
66311W        W31131   3.741   5.913   2.655
66312W        W31132  42.680  15.523  14.008
66313W        W31133  14.275  18.252   3.589
66314W        W31134  29.541  13.694   3.778
66315W        W31135  29.660  18.647  13.812
66316W        W31136  17.691  21.662  14.858
66317W        W31137  16.277  21.629  10.717
66318W        W31138  36.528  42.151   0.932
66319W        W31139  36.264  40.889  13.447
66320W        W31140  20.043  15.764  11.019
66321W        W31141  21.015   7.480  12.706
66322W        W31142  14.318  33.586   2.361
66323W        W31143   7.727  16.156   0.399
66324W        W31144  44.424  11.631   3.062
66325W        W31145  42.989  23.314  14.280
66326W        W31146  12.328  13.742  14.328
66327W        W31147  10.154   9.126  14.686
66328W        W31148  30.706   8.150   0.908
66329W        W31149  37.762  18.621   1.647
66330W        W31150  24.467  33.676  11.372
66331W        W31151  41.875  10.695  12.558
66332W        W31152   9.142  33.412  12.335
66333W        W31153   2.384  30.603  14.498
66334W        W31154  25.710   8.467   1.270
66335W        W31155  31.077   2.749  13.391
66336W        W31156  10.777  38.860   4.696
66337W        W31157   9.355  33.728  11.065
66338W        W31158  42.950  19.984   0.808
66339W        W31159  15.271   9.090   4.501
66340W        W31160  10.012  35.354   3.081
66341W        W31161  19.231  39.400  11.807
66342W        W31162  13.342  32.245  10.167
66343W        W31163  15.379  11.679   2.353
66344W        W31164  36.535  35.470  12.475
66345W        W31165  43.783  32.402   4.756
66346W        W31166   7.162  18.118   0.775
66347W        W31167  26.745   9.120  14.779
66348W        W31168  20.282   2.702  13.834
66349W        W31169   4.715  17.564   1.740
66350W        W31170  14.766  10.370   2.263
66351W        W31171  36.150  32.392   4.153
66352W        W31172  43.825   0.897   0.916
66353W        W31173  24.322  31.636  11.611
66354W        W31174  17.831   7.201   0.751
66355W        W31175  38.322   8.220  14.718
66356W        W31176   2.408  12.014   0.365
66357W        W31177  21.727  37.878  13.234
66358W        W31178   6.115  10.995   2.270
66359W        W31179  24.113  36.467  13.611
66360W        W31180  38.309  23.459  12.535
66361W        W31181  42.256  19.718  11.913
66362W        W31182  24.417   5.267  10.615
66363W        W31183  36.960  31.892  12.379
66364W        W31184  29.663   5.728   4.860
66365W        W31185  34.419  41.985   0.415
66366W        W31186  22.822  18.357   1.763
66367W        W31187  38.285  14.777   4.565
66368W        W31188   6.017  35.506  10.697
66369W        W31189  22.488   0.035   2.689
66370W        W31190   4.267   3.776   2.654
66371W        W31191  22.778  37.926  13.380
66372W        W31192   6.802  30.540   2.675
66373W        W31193  14.164  34.822   5.092
66374W        W31194  11.565  40.942  11.149
66375W        W31195   6.885   2.798   3.371
66376W        W31196  16.208   8.285   4.098
66377W        W31197  37.258   0.472  10.793
66378W        W31198  26.321  15.928   5.084
66379W        W31199  30.084  28.068  13.989
66380W        W31200  10.961  11.126  12.637
66381W        W31201  41.993   2.832  10.642
66382W        W31202  42.905  37.826   3.882
66383W        W31203   9.641  34.297  13.139
66384W        W31204   3.416  19.679   4.146
66385W        W31205  41.871  21.552  11.533
66386W        W31206  13.373   6.177  12.405
66387W        W31207  43.680  11.704  13.450
66388W        W31208  22.780  29.612   0.461
66389W        W31209  15.637  33.867  14.410
66390W        W31210  41.925  24.197  13.492
66391W        W31211  25.461  24.761   3.691
66392W        W31212  11.220  41.320  14.364
66393W        W31213  21.020  28.479  12.496
66394W        W31214  21.157  22.522   2.004
66395W        W31215  42.226  40.426  10.697
66396W        W31216  10.724  27.312   3.757
66397W        W31217  14.130  12.819  14.410
66398W        W31218  13.872  41.854  14.384
66399W        W31219  18.302  10.903   0.366
66400W        W31220  11.229  13.381  10.696
66401W        W31221   0.763  19.713  11.914
66402W        W31222  26.979  33.924  10.795
66403W        W31223  25.728  37.417  12.474
66404W        W31224  15.817  21.046   1.951
66405W        W31225  20.829   4.435   4.530
66406W        W31226  38.294  20.309   4.479
66407W        W31227  39.569   3.127  11.581
66408W        W31228  33.824  30.158  13.434
66409W        W31229  36.824  32.778   0.141
66410W        W31230  34.748   1.905   4.951
66411W        W31231  40.782  36.926  11.677
66412W        W31232  18.159  11.578  12.140
66413W        W31233  40.097   0.251   4.877
66414W        W31234  19.275  42.865  13.534
66415W        W31235  12.127   0.548   4.899
66416W        W31236   4.892   4.671   1.765
66417W        W31237   0.282  43.959  13.821
66418W        W31238  35.314   1.153   1.363
66419W        W31239  44.266  27.913  14.630
66420W        W31240  14.186   4.444  10.793
66421W        W31241  33.631   5.959   1.710
66422W        W31242  24.077  12.791   4.214
66423W        W31243  13.193  42.439  14.002
66424W        W31244  38.568  22.058  14.630
66425W        W31245   4.105  35.272   0.027
66426W        W31246  29.670   0.534   1.743
66427W        W31247  36.157  42.414  14.942
66428W        W31248  23.221  24.374  10.973
66429W        W31249   0.974  43.086   4.137
66430W        W31250  41.156  12.839  13.519
66431W        W31251  25.085  26.166  12.709
66432W        W31252  33.552   1.569   1.829
66433W        W31253   3.874   6.457  13.026
66434W        W31254  24.047  21.664  12.893
66435W        W31255  34.177  13.693   4.630
66436W        W31256  26.513  17.132   3.398
66437W        W31257   5.861   1.200   0.866
66438W        W31258   8.652  14.323  10.294
66439W        W31259  44.686  23.113   3.821
66440W        W31260  30.939  20.099  13.474
66441W        W31261  44.849  10.758  11.477
66442W        W31262  11.670  21.034  11.525
66443W        W31263   8.132  38.329  12.009
66444W        W31264  35.432   0.296   1.786
66445W        W31265  31.295   1.329  14.853
66446W        W31266  29.959  18.146  14.206
66447W        W31267  43.447   2.385   4.656
66448W        W31268  18.660   0.033   1.680
66449W        W31269   6.908  21.470   3.274
66450W        W31270   6.118  16.602  11.081
66451W        W31271  37.522  19.295  13.830
66452W        W31272  18.350  18.026   2.354
66453W        W31273  35.528  41.377  10.496
66454W        W31274   3.777  12.841   3.160
66455W        W31275   1.860   3.140  13.957
66456W        W31276  32.189  11.249   2.585
66457W        W31277  12.843  42.097   3.792
66458W        W31278  44.527  28.121  12.336
66459W        W31279  22.028  36.308  13.806
66460W        W31280  40.254  42.027  12.216
66461W        W31281   7.958   9.840  14.383
66462W        W31282  10.071  27.493  12.048
66463W        W31283  34.332  15.137   4.149
66464W        W31284   0.040  16.768  12.842
66465W        W31285  19.556  34.658  11.836
66466W        W31286   8.259  21.915   2.903
66467W        W31287   9.059  29.649  13.207
66468W        W31288  25.524  18.183   2.274
66469W        W31289  44.652  36.836  13.064
66470W        W31290  16.936   5.528   3.125
66471W        W31291  40.074  24.424   4.080
66472W        W31292  42.930  32.661  11.768
66473W        W31293  12.839   7.320  13.371
66474W        W31294  17.153   3.465  11.948
66475W        W31295  17.356  36.398  14.991
66476W        W31296  11.178  37.157   0.338
66477W        W31297  44.434  43.001   4.175
66478W        W31298  33.849   4.182  12.802
66479W        W31299  24.702  38.591  13.862
66480W        W31300  19.838  23.804   1.139
66481W        W31301  29.461  39.514   2.492
66482W        W31302  35.941  15.586   0.252
66483W        W31303   2.747  21.106  11.171
66484W        W31304  33.083  13.576  12.037
66485W        W31305  15.787  13.074  12.182
66486W        W31306  26.507  21.515   2.233
66487W        W31307   1.903  24.072   2.751
66488W        W31308  28.221  24.570   4.570
66489W        W31309   7.766  20.648   1.793
66490W        W31310  11.164   8.143  13.474
66491W        W31311   1.060   4.711   2.486
66492W        W31312  38.891  32.978   1.321
66493W        W31313  11.637  35.541  11.221
66494W        W31314  22.498   7.264  13.408
66495W        W31315  17.280   9.663  14.015
66496W        W31316  19.986  40.952   0.270
66497W        W31317  41.933  42.863   2.151
66498W        W31318  43.254   1.906  14.994
66499W        W31319  40.991  31.465   4.511
66500W        W31320   3.983  16.657  12.790
66501W        W31321  44.141   6.349   1.428
66502W        W31322  17.637  14.256  10.786
66503W        W31323  12.327  34.086   3.795
66504W        W31324  14.268   7.880  11.550
66505W        W31325  19.073  30.631  10.781
66506W        W31326  41.060  15.984  12.510
66507W        W31327  42.917   4.316  12.432
66508W        W31328  34.155   7.737   3.818
66509W        W31329  28.237   5.198  10.843
66510W        W31330  31.292  37.569   0.976
66511W        W31331   0.998  14.561  14.811
66512W        W31332  12.633  36.646  12.666
66513W        W31333   8.167  31.030  14.844
66514W        W31334  30.245   9.282  10.755
66515W        W31335  27.502   1.543  11.081
66516W        W31336  31.268  21.738  14.197
66517W        W31337  22.774  36.584   1.132
66518W        W31338  10.824  28.688  11.039
66519W        W31339  32.779  27.012   1.825
66520W        W31340  40.601  36.497   0.410
66521W        W31341   5.756  11.445  13.769
66522W        W31342  30.555   2.001   3.438
66523W        W31343  23.695  11.548  14.753
66524W        W31344  22.864  42.371  11.480
66525W        W31345  35.281  12.214   3.637
66526W        W31346  24.688  28.567  13.810
66527W        W31347  37.076  41.871   1.890
66528W        W31348  33.946  20.740  10.686
66529W        W31349  37.831  30.219   0.134
66530W        W31350  30.927  26.259   1.313
66531W        W31351  44.964  15.677  12.868
66532W        W31352  40.950  36.757   3.621
66533W        W31353   9.190  24.917  11.603
66534W        W31354  43.383  41.071  12.456
66535W        W31355  44.314  13.016  14.811
66536W        W31356  33.516  25.231   1.224
66537W        W31357  28.969  30.568  14.749
66538W        W31358  23.125   2.478  11.200
66539W        W31359  20.366  28.947  14.784
66540W        W31360  17.788   8.015  12.588
66541W        W31361  25.897  14.103   4.515
66542W        W31362  33.944   4.213  13.322
66543W        W31363   2.711  23.350  10.797
66544W        W31364   4.874   0.394  14.033
66545W        W31365   9.303  16.159   3.273
66546W        W31366   7.239   0.531  14.084
66547W        W31367  19.706  10.641   3.623
66548W        W31368  25.567  40.796  10.347
66549W        W31369  11.143   4.804   4.599
66550W        W31370  27.528  19.546   0.779
66551W        W31371  22.572  17.244   4.582
66552W        W31372  11.923  27.795   0.820
66553W        W31373  35.506  15.724  10.220
66554W        W31374   2.140  22.973  12.026
66555W        W31375   9.219  44.846   0.755
66556W        W31376  13.079  22.261   2.367
66557W        W31377  30.393  20.166  11.630
66558W        W31378  41.418  21.674   0.373
66559W        W31379  33.077  32.828  10.667
66560W        W31380  24.119  27.560   3.606
66561W        W31381   4.896  33.050   4.527
66562W        W31382  35.951  32.976   3.371
66563W        W31383  41.239   3.879  14.901
66564W        W31384  41.781  18.331  11.550
66565W        W31385   0.864  33.141   3.343
66566W        W31386   0.184   2.185  14.025
66567W        W31387  19.673  44.529   2.787
66568W        W31388  40.035  35.545   4.177
66569W        W31389  34.560  38.021  10.488
66570W        W31390  22.985  27.685  14.498
66571W        W31391  24.950  22.573   2.919
66572W        W31392  40.780  20.631   4.090
66573W        W31393  23.974  37.460   4.384
66574W        W31394   2.782  13.412   2.310
66575W        W31395  14.921  12.246  12.048
66576W        W31396  44.885  34.299   2.225
66577W        W31397  19.704  32.353  14.300
66578W        W31398  11.247  40.730   0.740
66579W        W31399  40.307   8.601  13.952
66580W        W31400  21.291  27.162   1.155
66581W        W31401  29.496   1.493   3.335
66582W        W31402   9.808  12.499  13.302
66583W        W31403  36.217  42.931   1.132
66584W        W31404  13.031  27.929  10.105
66585W        W31405  24.625  41.161   2.988
66586W        W31406  37.620  12.800   2.116
66587W        W31407  28.505  28.524   1.022
66588W        W31408  36.859  26.421  12.580
66589W        W31409  39.355  33.095  12.272
66590W        W31410   7.282  16.846   2.417
66591W        W31411  10.975  15.206   9.838
66592W        W31412  18.539  18.610  12.625
66593W        W31413  30.672   4.289   3.232
66594W        W31414  26.256  15.527   1.836
66595W        W31415  34.737  13.526   2.051
66596W        W31416  33.853   8.776  13.883
66597W        W31417  14.608  16.618   1.094
66598W        W31418  14.656  13.793  13.906
66599W        W31419  43.314   7.683  14.506
66600W        W31420  17.538  33.519   4.240
66601W        W31421   1.730  29.869  13.486
66602W        W31422  44.735   3.003  14.668
66603W        W31423  34.883  21.109   2.315
66604W        W31424  38.314   2.636  10.605
66605W        W31425  16.555  36.296   1.445
66606W        W31426  15.763  15.608   0.395
66607W        W31427  19.804   4.405  13.991
66608W        W31428   0.949  21.376  13.036
66609W        W31429  28.578  28.699  14.916
66610W        W31430   3.488  20.586  14.312
66611W        W31431  44.962  28.499   0.933
66612W        W31432  12.428  19.249  11.142
66613W        W31433  31.949  26.555  11.142
66614W        W31434  10.016  12.301   4.005
66615W        W31435   8.384  39.121  13.177
66616W        W31436  32.200  35.985   3.726
66617W        W31437  40.459   5.986  11.152
66618W        W31438   0.400  12.231  14.579
66619W        W31439  36.781  18.297   3.699
66620W        W31440  25.121  38.351  14.834
66621W        W31441  24.921  12.734   4.127
66622W        W31442  44.483   4.831  11.912
66623W        W31443  42.424  17.126   0.612
66624W        W31444  29.925  35.165  13.619
66625W        W31445  32.610  22.239   3.413
66626W        W31446  30.791  36.520  14.622
66627W        W31447  17.779  41.575  11.649
66628W        W31448  24.560  31.652  10.744
66629W        W31449  13.852   7.407   1.357
66630W        W31450  14.339  36.379  12.545
66631W        W31451  18.007  21.628  10.673
66632W        W31452   2.656  44.561  12.426
66633W        W31453  28.387   3.964   4.698
66634W        W31454  24.126   5.270  13.880
66635W        W31455  16.389   3.764   1.875
66636W        W31456  21.191   8.808  14.791
66637W        W31457   6.235  17.190  11.228
66638W        W31458  11.336  19.121   3.284
66639W        W31459  15.332  40.157  11.172
66640W        W31460  36.446   8.962   2.293
66641W        W31461   6.884   9.117  12.096
66642W        W31462  16.678  17.988  14.073
66643W        W31463  26.758  23.709  10.171
66644W        W31464  20.771  13.248   0.768
66645W        W31465  35.610  28.899  10.925
66646W        W31466  13.335  39.294  12.324
66647W        W31467  37.107  18.978  11.408
66648W        W31468  23.794  13.559  13.837
66649W        W31469  35.584  21.393   2.278
66650W        W31470  20.517  32.681   0.768
66651W        W31471  22.822  43.656  11.477
66652W        W31472  28.366  12.369   0.942
66653W        W31473   7.923  15.243  14.351
66654W        W31474  15.354  23.186   3.693
66655W        W31475   2.100  30.787   3.709
66656W        W31476  27.838  32.326   9.361
66657W        W31477   3.524  40.494   3.085
66658W        W31478   6.658  31.909   2.372
66659W        W31479   1.628  26.110  14.376
66660W        W31480  38.789  34.379   3.696
66661W        W31481  22.520  24.420   1.496
66662W        W31482   8.589  10.340   3.656
66663W        W31483  23.233  29.711  10.485
66664W        W31484  33.870   2.064   4.626
66665W        W31485  20.973  22.766  12.054
66666W        W31486   5.321  38.009  12.678
66667W        W31487   8.653  13.324   1.941
66668W        W31488  31.568  26.650  13.889
66669W        W31489  16.800  13.626   3.732
66670W        W31490  21.791   6.335   0.911
66671W        W31491  32.101  44.325   4.480
66672W        W31492  38.207   9.147  11.439
66673W        W31493  32.713  44.342   2.260
66674W        W31494   1.915  19.965  11.195
66675W        W31495  39.180   9.029   4.531
66676W        W31496   2.277  44.428   4.513
66677W        W31497  13.832  33.594   0.724
66678W        W31498  23.687   5.454   4.595
66679W        W31499  29.427  10.216  12.204
66680W        W31500   9.219  11.124  12.061
66681W        W31501  12.127  25.086   4.924
66682W        W31502   6.022  43.860  13.579
66683W        W31503  31.292  40.317  12.030
66684W        W31504  32.704  28.223   1.887
66685W        W31505  31.897  36.336  10.676
66686W        W31506  42.312  41.547   3.643
66687W        W31507   2.396  35.820   3.628
66688W        W31508   5.725  22.947   5.061
66689W        W31509   7.197  12.229  12.420
66690W        W31510  34.158  39.225  14.085
66691W        W31511   7.413  18.972   3.641
66692W        W31512  18.996  37.067   1.841
66693W        W31513  32.927  31.456   0.421
66694W        W31514  41.308   7.640  13.029
66695W        W31515  43.231   9.646  12.896
66696W        W31516  36.906  23.504   3.567
66697W        W31517  43.796  16.064   2.675
66698W        W31518  19.752   6.958  13.524
66699W        W31519  22.781  39.527   3.650
66700W        W31520  23.608  30.162  11.685
66701W        W31521  42.017  38.061   3.788
66702W        W31522  24.458  37.114  14.287
66703W        W31523  25.603  23.134  13.479
66704W        W31524  37.490  19.056   1.782
66705W        W31525  37.975  42.302   0.541
66706W        W31526   1.055   8.234   3.202
66707W        W31527  24.768  44.762  12.563
66708W        W31528  11.990  44.115   5.095
66709W        W31529  15.869  11.857   2.250
66710W        W31530  12.692  25.571  13.433
66711W        W31531  39.178  13.242  12.051
66712W        W31532   8.230   9.719   1.600
66713W        W31533  29.848  14.220  10.684
66714W        W31534   2.409   5.911   2.107
66715W        W31535   5.708   2.854  14.352
66716W        W31536  43.551  32.795  14.424
66717W        W31537  27.961  39.589   0.357
66718W        W31538  37.239   5.816   0.924
66719W        W31539  35.828   7.064   4.059
66720W        W31540  26.914   9.272  13.396
66721W        W31541  28.871   3.669   2.270
66722W        W31542   3.592  24.545  13.551
66723W        W31543   1.936  42.357   1.526
66724W        W31544  11.705  23.638  12.679
66725W        W31545  31.452   7.784   4.581
66726W        W31546  20.318  28.311   1.959
66727W        W31547  41.361  40.495   1.198
66728W        W31548  31.240   8.409   2.621
66729W        W31549  30.364  31.940  14.544
66730W        W31550   7.522  16.637  13.413
66731W        W31551  33.971  38.346  10.640
66732W        W31552   5.376   0.432  14.089
66733W        W31553   9.646  27.522  13.191
66734W        W31554  33.359  10.713  11.530
66735W        W31555  12.326  35.951   3.428
66736W        W31556  35.003  12.664   1.750
66737W        W31557  42.063   6.084   4.609
66738W        W31558  12.662  11.913   0.613
66739W        W31559  15.063  38.470  13.479
66740W        W31560  30.479   8.751  11.465
66741W        W31561  37.323   7.616   1.753
66742W        W31562  37.622  41.017   1.791
66743W        W31563  17.139  18.087  12.385
66744W        W31564   1.363  29.716   4.372
66745W        W31565  32.649   2.878  11.585
66746W        W31566   6.078  12.685  13.426
66747W        W31567  27.074  32.544  14.840
66748W        W31568   0.878  31.114   3.174
66749W        W31569   5.328  19.955  13.312
66750W        W31570  12.364  36.340  10.709
66751W        W31571  19.975  29.071  13.839
66752W        W31572   3.331  31.313   1.407
66753W        W31573  40.364  28.174  11.907
66754W        W31574  16.274  17.702  14.283
66755W        W31575   7.637  24.121   1.659
66756W        W31576  43.406  44.416  12.488
66757W        W31577   9.811  37.015  14.920
66758W        W31578   6.276  37.124   2.363
66759W        W31579  12.877  39.226   2.325
66760W        W31580  31.392  35.981   2.375
66761W        W31581  26.228  35.081   0.862
66762W        W31582  39.211   7.241  10.701
66763W        W31583  17.138  40.754  12.559
66764W        W31584  19.068  22.310  11.228
66765W        W31585  16.732  42.200   0.767
66766W        W31586  27.891  21.374   4.276
66767W        W31587  11.067  34.506  13.548
66768W        W31588  10.770  17.520  14.039
66769W        W31589  25.384   3.730   0.681
66770W        W31590   0.461  16.031  10.922
66771W        W31591   8.251  16.054   3.174
66772W        W31592  13.596  22.193   2.337
66773W        W31593   0.549  28.949   3.627
66774W        W31594   2.477  19.562  13.443
66775W        W31595  43.066  30.680   3.633
66776W        W31596  21.708  20.520   0.356
66777W        W31597  23.730   2.632  13.148
66778W        W31598  31.617   2.827  10.744
66779W        W31599  26.591  32.013   1.427
66780W        W31600   9.949  24.160   3.279
66781W        W31601  39.867  24.403  14.967
66782W        W31602  30.365  36.953  12.596
66783W        W31603  16.074  27.567   9.729
66784W        W31604  34.465  42.986   3.192
66785W        W31605  17.020  17.162   4.030
66786W        W31606  10.146   3.519  10.831
66787W        W31607  16.502  41.874   4.152
66788W        W31608  18.231  11.592   3.541
66789W        W31609  12.136  33.303  13.420
66790W        W31610  33.363   1.866  11.130
66791W        W31611  20.988  36.375   0.948
66792W        W31612  26.744   7.786   3.762
66793W        W31613   2.918   5.397   2.777
66794W        W31614  22.551  18.808   3.754
66795W        W31615   9.154  43.809   1.020
66796W        W31616   5.528   5.237   2.835
66797W        W31617  13.411  12.699   2.182
66798W        W31618   9.242   7.650  11.556
66799W        W31619  21.464  16.166  10.956
66800W        W31620  44.075  20.823   4.658
66801W        W31621  41.266  22.508   3.096
66802W        W31622  19.028  24.624  10.562
66803W        W31623  38.559  15.212  13.868
66804W        W31624  43.542  39.960   2.308
66805W        W31625  38.510   4.672   1.451
66806W        W31626   7.386  29.401   3.912
66807W        W31627  11.756  14.059   1.829
66808W        W31628  21.047  21.234   1.786
66809W        W31629  22.292   7.780   0.803
66810W        W31630  10.858  43.047  13.485
66811W        W31631  39.070  44.950  12.882
66812W        W31632  38.150   3.845   3.291
66813W        W31633  25.427  43.366   0.802
66814W        W31634  37.599  16.910   2.726
66815W        W31635  32.086  30.630   0.792
66816W        W31636  21.353   0.479  14.111
66817W        W31637   3.924  17.882  13.963
66818W        W31638  20.198  19.134   2.724
66819W        W31639  32.733  23.730  11.055
66820W        W31640  29.860  13.999  12.585
66821W        W31641   8.831  43.778   0.269
66822W        W31642  42.699  44.293   0.325
66823W        W31643  25.707  14.150   2.280
66824W        W31644  21.761  33.158  11.963
66825W        W31645  23.142  41.226   1.288
66826W        W31646  35.426  15.068  12.999
66827W        W31647   4.121   4.823  13.995
66828W        W31648  32.188   3.726  11.999
66829W        W31649  25.593   1.191   5.106
66830W        W31650  10.063  23.078  12.172
66831W        W31651  26.564  19.309   0.468
66832W        W31652  17.660  13.714   4.215
66833W        W31653  12.239  30.018  13.361
66834W        W31654  35.662  22.748  11.505
66835W        W31655   2.866  23.640   4.175
66836W        W31656  43.715  20.734  11.399
66837W        W31657  12.851  26.071  13.512
66838W        W31658  23.056  33.787  12.491
66839W        W31659  40.338  21.105  10.654
66840W        W31660  40.389  34.969  13.353
66841W        W31661  32.621  12.374  14.924
66842W        W31662  44.511  26.601   3.216
66843W        W31663  28.047   6.952  14.049
66844W        W31664  26.410  11.282  14.794
66845W        W31665   0.921  40.015  13.870
66846W        W31666   5.833   3.430   4.215
66847W        W31667  23.327  34.653   0.029
66848W        W31668  34.044  15.511   4.473
66849W        W31669   0.838  24.563  13.801
66850W        W31670   5.814   6.648  12.060
66851W        W31671   2.153  44.278  11.112
66852W        W31672  30.930   8.232   0.458
66853W        W31673  16.621  24.639  14.490
66854W        W31674  42.130   4.365   1.330
66855W        W31675  14.071  30.683   5.059
66856W        W31676   3.243  26.633   1.802
66857W        W31677  40.460  11.063   0.278
66858W        W31678  24.513  44.882   1.873
66859W        W31679  39.209  11.797   2.854
66860W        W31680  41.841  36.815   3.237
66861W        W31681  26.606  34.722  14.905
66862W        W31682   8.721  40.779  14.926
66863W        W31683  24.206  23.322   2.303
66864W        W31684  39.995  30.759   1.026
66865W        W31685   2.951  35.886   2.192
66866W        W31686   6.090   6.397  14.342
66867W        W31687  25.213  31.574  12.579
66868W        W31688  12.402  23.086   4.184
66869W        W31689  20.537  25.880   3.583
66870W        W31690  26.706  40.848   5.157
66871W        W31691  37.145  22.282   2.154
66872W        W31692  30.568  21.041  14.923
66873W        W31693  37.239  38.061  12.652
66874W        W31694  11.672   8.033  13.588
66875W        W31695   2.189   4.383   0.396
66876W        W31696  10.887  17.020  13.973
66877W        W31697  38.095   6.713   2.742
66878W        W31698  10.568  27.686  11.271
66879W        W31699  19.495  31.429  13.546
66880W        W31700   4.825  16.542  14.944
66881W        W31701  20.547  32.088   4.265
66882W        W31702  20.040  11.681   2.991
66883W        W31703   8.543  20.275  12.090
66884W        W31704  33.489   1.722   4.590
66885W        W31705  18.009  15.685   2.379
66886W        W31706   1.489  35.116  11.070
66887W        W31707  37.110  22.791  14.939
66888W        W31708   1.281  25.720  11.507
66889W        W31709  39.986  43.844   1.468
66890W        W31710  22.232  39.172  13.511
66891W        W31711  40.852  33.152  14.462
66892W        W31712  28.657   9.831   3.934
66893W        W31713  14.566  13.505   3.536
66894W        W31714  24.647  35.374   1.528
66895W        W31715  41.945  20.466   2.268
66896W        W31716  38.314  22.526   2.828
66897W        W31717  20.765  15.141  12.861
66898W        W31718  35.623  35.838  10.717
66899W        W31719  20.554  21.684  11.508
66900W        W31720  20.421  20.309  14.449
66901W        W31721  42.222  24.863  14.534
66902W        W31722  15.119  38.935  13.945
66903W        W31723  34.032  43.331   3.219
66904W        W31724  42.806  40.624   1.626
66905W        W31725   5.822  39.903   3.607
66906W        W31726   5.585  43.711  11.117
66907W        W31727  39.459   7.625   1.235
66908W        W31728  39.748  18.673  12.056
66909W        W31729  43.230  16.838   2.276
66910W        W31730  26.654  18.624  13.410
66911W        W31731   4.500  37.318   4.141
66912W        W31732  14.891   3.396   4.774
66913W        W31733   0.708  20.820   3.595
66914W        W31734  13.326  40.576   2.328
66915W        W31735  40.581  37.586  13.543
66916W        W31736  42.807  36.533   0.373
66917W        W31737  30.210  30.998  11.549
66918W        W31738  15.573  28.153  11.566
66919W        W31739  42.170  18.772   0.338
66920W        W31740  40.577  37.575   3.186
66921W        W31741  39.639  30.986   3.062
66922W        W31742  29.659  43.805  14.297
66923W        W31743  18.750   1.332  14.778
66924W        W31744  33.185  34.929   4.127
66925W        W31745  21.620   7.769  12.434
66926W        W31746  42.866  16.807   0.973
66927W        W31747  22.223  14.172   2.642
66928W        W31748  15.181  24.608   0.973
66929W        W31749   8.240  30.935   3.423
66930W        W31750  12.300  43.085  13.450
66931W        W31751  19.773  30.160   4.689
66932W        W31752   4.864  26.491  14.000
66933W        W31753   1.494   4.476  12.215
66934W        W31754  34.773  39.522   3.691
66935W        W31755  29.317  17.763  11.236
66936W        W31756  39.315  30.849   4.064
66937W        W31757  35.212  33.561   1.424
66938W        W31758  21.552  39.369   1.328
66939W        W31759  41.972  32.892  11.626
66940W        W31760  37.125  19.718   3.634
66941W        W31761  28.974   0.263  13.427
66942W        W31762   4.805  32.110  10.882
66943W        W31763  36.172  39.389   1.697
66944W        W31764  20.967  13.840   4.526
66945W        W31765   7.440  14.788  14.816
66946W        W31766  37.064  15.604   3.390
66947W        W31767  25.425  19.086   1.309
66948W        W31768  33.386   3.188  11.033
66949W        W31769  37.287   9.442  13.542
66950W        W31770   1.467  15.174  12.978
66951W        W31771  40.984  16.759  12.108
66952W        W31772  38.322  12.963   4.108
66953W        W31773  30.817  35.047  13.933
66954W        W31774   7.259  22.340   2.204
66955W        W31775  42.592  27.721   2.446
66956W        W31776  31.586  39.108   4.200
66957W        W31777  10.655  19.233   0.545
66958W        W31778  37.459   8.781   3.262
66959W        W31779  44.372  28.677  13.842
66960W        W31780  19.135  44.733   4.112
66961W        W31781   0.886   2.448   1.835
66962W        W31782   6.025  19.440   4.148
66963W        W31783  27.851  36.998   4.130
66964W        W31784   3.753  23.746   1.538
66965W        W31785  11.567   3.367  11.980
66966W        W31786  13.921  16.381   4.600
66967W        W31787   2.479   1.045  12.995
66968W        W31788  40.546  41.382  10.953
66969W        W31789   8.698   2.262  14.367
66970W        W31790  33.160  44.841   2.651
66971W        W31791   0.289  43.324  14.496
66972W        W31792  43.332  18.769  12.577
66973W        W31793   2.771   6.252  10.936
66974W        W31794  26.194  28.124   3.052
66975W        W31795  34.917  22.008  14.833
66976W        W31796  13.229   5.691  12.532
66977W        W31797  36.622  22.661   0.725
66978W        W31798  24.642  19.378  13.354
66979W        W31799  19.268  21.066  11.707
66980W        W31800   5.397   8.601   3.279
66981W        W31801  36.303  41.389   1.754
66982W        W31802   1.801   6.866  13.147
66983W        W31803  39.393  17.088  13.030
66984W        W31804  16.059  17.227  14.316
66985W        W31805  32.678  40.832  11.575
66986W        W31806   3.861   9.409  13.104
66987W        W31807  29.620  20.791  14.629
66988W        W31808  10.127  31.571   2.219
66989W        W31809  22.008  43.536  13.983
66990W        W31810  38.561  36.953   1.503
66991W        W31811  44.821  27.770   2.404
66992W        W31812  42.045  23.792  13.159
66993W        W31813  30.249  11.328  11.125
66994W        W31814  44.136   2.911   4.696
66995W        W31815   1.899  38.591  14.708
66996W        W31816  34.563  33.625  14.420
66997W        W31817   8.896  10.805  10.816
66998W        W31818  31.826   7.439  11.957
66999W        W31819  17.200  43.454  10.632
67000W        W31820  23.048  10.800  14.441
67001W        W31821  16.887  27.966   2.719
67002W        W31822  26.426   7.052   3.991
67003W        W31823  28.038  39.509  12.572
67004W        W31824  14.227  21.626  14.547
67005W        W31825  44.994  25.379   3.219
67006W        W31826  26.061  39.746   3.103
67007W        W31827  34.473  28.877   2.627
67008W        W31828   9.989  33.528   0.811
67009W        W31829  43.077  36.858   2.269
67010W        W31830  26.706   4.524  14.751
67011W        W31831  21.508  37.340   1.998
67012W        W31832  25.054  33.594  14.034
67013W        W31833  42.060  39.868   2.625
67014W        W31834  29.778  34.506  11.208
67015W        W31835   4.759  11.758  14.461
67016W        W31836   7.268   4.980  11.428
67017W        W31837  35.354  26.695  11.634
67018W        W31838  37.293  37.549  12.521
67019W        W31839  39.125  40.483  12.640
67020W        W31840  39.502   8.643  14.410
67021W        W31841  22.681  29.783   1.850
67022W        W31842  25.091  16.666  10.753
67023W        W31843  30.384  30.062   0.450
67024W        W31844  23.023  39.531   0.537
67025W        W31845  14.774  10.374   4.675
67026W        W31846  43.082  31.485   2.233
67027W        W31847  14.351   9.177  11.993
67028W        W31848  37.485   1.360  12.916
67029W        W31849  29.190  36.124   1.298
67030W        W31850  15.680   8.616  12.925
67031W        W31851  42.937   6.221   1.975
67032W        W31852   2.475  20.761  13.557
67033W        W31853   0.470  30.464   2.902
67034W        W31854   1.852  13.333  10.691
67035W        W31855  43.411  28.847  12.511
67036W        W31856  31.923  19.622   4.602
67037W        W31857  19.520  28.009   4.096
67038W        W31858  25.376   6.817   0.720
67039W        W31859   6.389  28.212   3.133
67040W        W31860  18.254  39.962   3.845
67041W        W31861  12.758   2.079  11.456
67042W        W31862  27.211  31.513   3.338
67043W        W31863   1.464  19.236   4.751
67044W        W31864  15.703  23.553   3.816
67045W        W31865   6.229  27.121   3.647
67046W        W31866  17.276  37.378   1.372
67047W        W31867  17.189  31.496  12.519
67048W        W31868  39.097   6.467  10.954
67049W        W31869  32.318  43.476  11.647
67050W        W31870  40.275  10.826  14.864
67051W        W31871  36.392  28.751   1.753
67052W        W31872  42.551   7.710  12.423
67053W        W31873  19.823  34.465   1.825
67054W        W31874  11.350  22.983   1.168
67055W        W31875  35.142  39.809  11.560
67056W        W31876  17.033   7.092   2.930
67057W        W31877  28.504  38.675  10.608
67058W        W31878  21.856  10.086  11.126
67059W        W31879  14.780  16.700   2.924
67060W        W31880  23.271   0.652   2.758
67061W        W31881  39.895  40.778  12.084
67062W        W31882  21.451   3.993   5.114
67063W        W31883  25.706   3.352   1.949
67064W        W31884  34.476  43.995  11.504
67065W        W31885   7.490  27.258  10.617
67066W        W31886  29.893   8.846  10.802
67067W        W31887  22.495   4.937   4.604
67068W        W31888  20.207   8.599  13.372
67069W        W31889   6.781   6.759   4.657
67070W        W31890  33.635  10.878   3.751
67071W        W31891   6.246  32.939  13.692
67072W        W31892  18.047   9.152   0.010
67073W        W31893   0.007  31.952   4.078
67074W        W31894  43.440  40.749   3.453
67075W        W31895   7.233  44.388   2.211
67076W        W31896  31.618  27.994  13.561
67077W        W31897  38.559  41.991  13.827
67078W        W31898   3.281  21.544   4.211
67079W        W31899   4.707  44.448   1.804
67080W        W31900   9.616  27.617   2.789
67081W        W31901  18.753   4.936   2.308
67082W        W31902  22.100  40.728   4.695
67083W        W31903  41.548  31.118  11.237
67084W        W31904  35.538   6.655   2.272
67085W        W31905  36.057  33.149   2.904
67086W        W31906  30.598  16.688   0.047
67087W        W31907  44.528  10.378  14.522
67088W        W31908  26.985  14.209  14.212
67089W        W31909  41.999  19.893  14.928
67090W        W31910  22.508  37.049   2.454
67091W        W31911  17.751  19.028  14.835
67092W        W31912  31.227   6.725  11.632
67093W        W31913  14.903  14.320   1.272
67094W        W31914  24.558  16.366  12.480
67095W        W31915  23.403  41.027  14.834
67096W        W31916  10.325  37.083  12.965
67097W        W31917   3.982  12.548   0.303
67098W        W31918  22.222  29.387   4.857
67099W        W31919   5.029  43.409  10.358
67100W        W31920  29.782  44.451  13.007
67101W        W31921  22.000  14.116  12.957
67102W        W31922  40.738  16.115   2.167
67103W        W31923  20.579  23.552  13.811
67104W        W31924  18.068  22.837   0.984
67105W        W31925  16.038   4.925  10.351
67106W        W31926  36.021  17.789   1.366
67107W        W31927  24.108  30.113  10.631
67108W        W31928  20.044  15.600   2.018
67109W        W31929   4.904   7.935   0.806
67110W        W31930  28.443  39.930  11.015
67111W        W31931  35.348  35.926   1.380
67112W        W31932  23.671  33.839  11.982
67113W        W31933  42.036  15.157  13.122
67114W        W31934  15.366  26.143  11.545
67115W        W31935  24.573   2.957  13.746
67116W        W31936   4.860  43.288  14.302
67117W        W31937  43.370  41.201   3.175
67118W        W31938  41.003  30.924   4.554
67119W        W31939  26.196   6.632  13.889
67120W        W31940  31.037  24.569  13.193
67121W        W31941   4.695  13.155  12.105
67122W        W31942   2.822  37.632   0.765
67123W        W31943  30.135   9.929  11.677
67124W        W31944  35.534  18.331  11.145
67125W        W31945  12.109  24.158  13.920
67126W        W31946  25.582  32.609  13.443
67127W        W31947  10.448  36.553   5.131
67128W        W31948   8.476  28.974  13.467
67129W        W31949   6.689  36.366   0.936
67130W        W31950  41.561  20.079  12.571
67131W        W31951  16.100  21.967   0.304
67132W        W31952  24.897  25.040   2.859
67133W        W31953   5.660  35.387  13.038
67134W        W31954  31.994  18.227  14.961
67135W        W31955  32.608  24.406   2.330
67136W        W31956  17.115  31.985   4.560
67137W        W31957  26.351  12.247   3.669
67138W        W31958  26.245  31.865   1.029
67139W        W31959  29.116  44.533  13.961
67140W        W31960  10.921  19.641  13.944
67141W        W31961  19.146  39.766   2.361
67142W        W31962   7.424   6.865  14.627
67143W        W31963  41.314  11.540  14.252
67144W        W31964  36.049   4.807  14.799
67145W        W31965   1.957   2.214   4.567
67146W        W31966  32.561   5.230  11.014
67147W        W31967  28.044  18.730   3.322
67148W        W31968  22.691  13.360  11.561
67149W        W31969  23.461  37.454   2.231
67150W        W31970  35.946  15.545   2.240
67151W        W31971  23.146  16.192   3.595
67152W        W31972  22.031   9.309   3.139
67153W        W31973  22.850  27.426   2.327
67154W        W31974  37.320   3.371   1.276
67155W        W31975   6.356  19.737  14.894
67156W        W31976  26.151   1.316   2.407
67157W        W31977  25.689  12.329  14.006
67158W        W31978  17.350  40.792   1.270
67159W        W31979  21.116   0.869  11.866
67160W        W31980  31.927   0.328   1.796
67161W        W31981  38.802  35.391   3.014
67162W        W31982   1.188  40.825  12.109
67163W        W31983  22.971   5.497  12.981
67164W        W31984   5.725  21.074  11.556
67165W        W31985  37.326  16.303  10.498
67166W        W31986   8.338  32.125   1.677
67167W        W31987  36.901   6.956  10.440
67168W        W31988  33.843  41.054  14.367
67169W        W31989  34.498  17.118  13.970
67170W        W31990  37.799  25.538   0.780
67171W        W31991   9.495  11.814   0.450
67172W        W31992  35.799  18.103  11.539
67173W        W31993  40.181  31.120   0.729
67174W        W31994  20.337  34.971   4.302
67175W        W31995  37.637  24.121   2.275
67176W        W31996  25.942  36.235  12.423
67177W        W31997  15.548  40.956  14.836
67178W        W31998  39.996  12.359  11.536
67179W        W31999  28.091   2.201   9.928
67180W        W32000  19.725  31.662   4.712
67181W        W32001  27.643   8.663  12.306
67182W        W32002  23.528  24.232  12.028
67183W        W32003  10.215  41.369   2.723
67184W        W32004  37.979  34.895  14.204
67185W        W32005  38.617   6.816   0.251
67186W        W32006  13.203  26.189  13.072
67187W        W32007  17.117  11.533  14.992
67188W        W32008  10.798  41.588   0.107
67189W        W32009  15.630   2.654  12.042
67190W        W32010  33.500  19.083   1.870
67191W        W32011  16.558  17.019   0.359
67192W        W32012  21.219  40.774  10.741
67193W        W32013  13.362  39.794  14.878
67194W        W32014  42.579  34.901   1.799
67195W        W32015  34.651  36.458  11.951
67196W        W32016   8.367  17.061  12.447
67197W        W32017   6.163  39.960   1.842
67198W        W32018  21.952  21.192   1.899
67199W        W32019   5.925  37.020  13.064
67200W        W32020  10.344  31.720  13.904
67201W        W32021  33.238  23.153  13.536
67202W        W32022   4.187  44.782   4.325
67203W        W32023   0.056  18.119   0.870
67204W        W32024  20.267   9.456   2.669
67205W        W32025  20.707  36.377   2.332
67206W        W32026  42.137  31.707  11.182
67207W        W32027   6.028  35.011  12.577
67208W        W32028  13.089   5.731   3.805
67209W        W32029  14.905  39.798   2.648
67210W        W32030  18.758  23.371   2.978
67211W        W32031   6.283  37.877  12.430
67212W        W32032  14.585   7.936   3.662
67213W        W32033  10.223   5.962  14.433
67214W        W32034  37.788   6.857   2.312
67215W        W32035  13.792  25.468  12.052
67216W        W32036  12.371   4.655   0.878
67217W        W32037  36.811  34.992  12.387
67218W        W32038   9.097  42.964   1.821
67219W        W32039  23.342  42.348  11.704
67220W        W32040   7.611  30.174  14.308
67221W        W32041   8.074  43.275   2.201
67222W        W32042  33.515  19.463  13.404
67223W        W32043  43.288  39.374  14.493
67224W        W32044  21.157  27.594   1.396
67225W        W32045   6.653  20.541  14.297
67226W        W32046  21.735  40.088  10.889
67227W        W32047  13.130   8.740  12.176
67228W        W32048  24.786  44.937  14.508
67229W        W32049  43.977  18.708   1.282
67230W        W32050  23.622  32.603   0.970
67231W        W32051   8.637  10.917   1.304
67232W        W32052  38.852   5.238  11.221
67233W        W32053  12.169   1.254   2.658
67234W        W32054  21.497  34.102  13.894
67235W        W32055   4.300  34.971  13.096
67236W        W32056  19.300  35.060  13.981
67237W        W32057  24.655   1.306   1.141
67238W        W32058  26.515  32.475  13.506
67239W        W32059  21.039  21.666   4.123
67240W        W32060  38.102  44.114   0.882
67241W        W32061  41.567   6.808   0.380
67242W        W32062  19.123   3.416  11.665
67243W        W32063  23.593  12.614   4.476
67244W        W32064   5.955  21.053   4.316
67245W        W32065   7.702  39.367   4.525
67246W        W32066  29.163   1.181   1.434
67247W        W32067  29.255  34.980  10.826
67248W        W32068   7.421   8.664  14.891
67249W        W32069  12.998   6.867   4.541
67250W        W32070  25.664  21.582   0.310
67251W        W32071  24.526   8.694  14.249
67252W        W32072  44.239  12.926   2.669
67253W        W32073  44.393  30.681   4.030
67254W        W32074  37.787  30.912  11.661
67255W        W32075   6.046  16.518   0.895
67256W        W32076   4.614  35.118   0.958
67257W        W32077   0.452   2.027   2.805
67258W        W32078  14.744  41.844  12.483
67259W        W32079  11.729  30.607   1.641
67260W        W32080  23.740   1.906   4.410
67261W        W32081  44.533   7.724  12.145
67262W        W32082  33.701  20.131   0.361
67263W        W32083   7.959   4.730  12.485
67264W        W32084   9.903   5.680   0.863
67265W        W32085  41.434  36.906   0.263
67266W        W32086  42.544  22.657  14.769
67267W        W32087  22.116  35.630  11.618
67268W        W32088  43.839   3.309   4.850
67269W        W32089  32.019  32.512   3.568
67270W        W32090  25.258   8.235  10.839
67271W        W32091   1.510  40.463   0.862
67272W        W32092  29.072  39.019  13.348
67273W        W32093  43.498  39.339   2.396
67274W        W32094  15.556   1.214   0.714
67275W        W32095   1.274  12.238  14.895
67276W        W32096   3.273  35.312   0.431
67277W        W32097  11.960  27.231   3.167
67278W        W32098  29.651  10.852   1.791
67279W        W32099  32.451  11.685   3.713
67280W        W32100   2.064   6.892  11.626
67281W        W32101  30.960   6.428  14.976
67282W        W32102   7.245  26.160   3.139
67283W        W32103   2.653  36.494  12.613
67284W        W32104  20.161  33.196  13.844
67285W        W32105  19.482  35.064   3.260
67286W        W32106  41.273  12.607  13.093
67287W        W32107  29.054  18.565  11.262
67288W        W32108  38.498  43.781  12.238
67289W        W32109  17.577  10.513  14.478
67290W        W32110  15.297  23.397  14.922
67291W        W32111  36.076   0.276  12.784
67292W        W32112  18.733   8.734   0.091
67293W        W32113   1.487  27.407   1.771
67294W        W32114  35.798   9.051   4.956
67295W        W32115  17.175  24.800   0.219
67296W        W32116  33.125   1.772  14.777
67297W        W32117  39.983  33.995  14.585
67298W        W32118  33.981  28.538   4.045
67299W        W32119  36.359  25.768  12.250
67300W        W32120  38.122  26.188  12.949
67301W        W32121  20.138  35.369  11.448
67302W        W32122  31.684  19.708   2.848
67303W        W32123  37.556   9.071   0.508
67304W        W32124  34.541   9.611   3.353
67305W        W32125  33.048   9.815  12.424
67306W        W32126  30.906  24.423   3.484
67307W        W32127  31.329   6.216  14.667
67308W        W32128  24.249  38.991   1.456
67309W        W32129  13.242  38.083   1.456
67310W        W32130  29.091   1.886  11.651
67311W        W32131  38.881  25.601  13.336
67312W        W32132  21.156  11.208   2.752
67313W        W32133  19.274   6.786  13.433
67314W        W32134  35.391  27.386   3.730
67315W        W32135  10.902  40.319   2.305
67316W        W32136  38.866  25.005   1.384
67317W        W32137   3.506  19.551  10.763
67318W        W32138  19.231  38.503   2.294
67319W        W32139  19.403  15.543   1.193
67320W        W32140   7.296  33.692  11.658
67321W        W32141  31.953   7.597   4.544
67322W        W32142  18.729  16.359  10.681
67323W        W32143   4.311  20.621  13.815
67324W        W32144  17.915   5.924  13.418
67325W        W32145  28.190  44.780  14.317
67326W        W32146  44.546  17.180  12.876
67327W        W32147  20.160  40.103   1.281
67328W        W32148  30.312  16.730   1.783
67329W        W32149  28.242  25.539   4.162
67330W        W32150   5.841  34.068  12.468
67331W        W32151  11.777  15.846   2.937
67332W        W32152  32.041  23.182   0.608
67333W        W32153   8.395  40.843  12.598
67334W        W32154  15.006  28.873   5.423
67335W        W32155  27.378  11.938  11.809
67336W        W32156  14.841  39.345  11.063
67337W        W32157  31.081  31.852   4.860
67338W        W32158  31.112   3.863   1.474
67339W        W32159   8.637  36.977  10.786
67340W        W32160  13.723  41.548  11.193
67341W        W32161   5.411  27.705  12.381
67342W        W32162  12.070  20.524   0.759
67343W        W32163   8.353  39.331  14.738
67344W        W32164  17.224   7.353   3.330
67345W        W32165  38.026   6.254   3.859
67346W        W32166  30.116  36.452  12.393
67347W        W32167   2.165  18.275   4.017
67348W        W32168   6.922  16.615  12.832
67349W        W32169  34.482   6.143  12.140
67350W        W32170  25.693   6.180   1.996
67351W        W32171  36.063  25.307  10.490
67352W        W32172  10.878  33.487   1.308
67353W        W32173  15.651  39.628   3.673
67354W        W32174  29.782  37.371   3.688
67355W        W32175  17.670  14.564   4.554
67356W        W32176  20.421  42.737   1.455
67357W        W32177  14.773   6.673   0.913
67358W        W32178  38.862  17.432   0.961
67359W        W32179  40.277  23.515  12.018
67360W        W32180   9.992  20.716   3.118
67361W        W32181   9.139  19.721   3.160
67362W        W32182  37.511  36.862   4.061
67363W        W32183  17.563   8.808   5.412
67364W        W32184  33.343  42.719   2.749
67365W        W32185  26.408  13.178   3.781
67366W        W32186   7.174   2.911  14.931
67367W        W32187   6.227  13.522  12.555
67368W        W32188   1.273  24.283   2.415
67369W        W32189   2.563  29.708  14.450
67370W        W32190  30.154  17.232   2.560
67371W        W32191  20.379  15.021   3.698
67372W        W32192  24.693  25.139   3.797
67373W        W32193   0.281  19.628   1.454
67374W        W32194  35.408  11.210  13.516
67375W        W32195  26.047  24.201  12.093
67376W        W32196  38.129  34.804   2.475
67377W        W32197  27.443   0.531  10.958
67378W        W32198  39.120  29.927  11.942
67379W        W32199  27.938  40.035  12.527
67380W        W32200  29.261  32.481   3.974
67381W        W32201  36.430   6.417   0.022
67382W        W32202   6.476  42.025   0.249
67383W        W32203  22.740  11.829   3.730
67384W        W32204  25.885   5.349  10.655
67385W        W32205  43.864  29.619  10.640
67386W        W32206  35.115  14.882   1.138
67387W        W32207  39.946  40.481   4.465
67388W        W32208  31.158   6.792   3.671
67389W        W32209   6.325  43.276   0.920
67390W        W32210   6.108   9.664  12.554
67391W        W32211  10.140  15.143   3.414
67392W        W32212  34.078  40.442   0.947
67393W        W32213   6.495  35.588  10.925
67394W        W32214  32.015  41.634  12.327
67395W        W32215   4.262  44.261   3.118
67396W        W32216   8.997   6.125   0.854
67397W        W32217  33.665  12.367   0.901
67398W        W32218  35.329  28.017  10.739
67399W        W32219  14.403  29.391  14.391
67400W        W32220  36.834  25.545   3.725
67401W        W32221  42.640  20.753   4.326
67402W        W32222   7.701  44.353   4.710
67403W        W32223  29.525   0.802   2.491
67404W        W32224   3.049  35.402   1.086
67405W        W32225  29.226  30.190   4.090
67406W        W32226   7.255   6.320  13.184
67407W        W32227  32.032  20.685   2.818
67408W        W32228  17.282   6.036  12.607
67409W        W32229  16.619  31.435  11.011
67410W        W32230  43.316  11.500   3.659
67411W        W32231  18.314  34.393  12.527
67412W        W32232  17.224   1.978   3.806
67413W        W32233  43.271  39.228   0.563
67414W        W32234   9.254  36.594   1.362
67415W        W32235  32.517  10.642  14.433
67416W        W32236   7.903  23.920   2.692
67417W        W32237   3.383  35.555  10.759
67418W        W32238   2.685  40.057   0.527
67419W        W32239  38.864   9.439   2.316
67420W        W32240  35.030  20.059   2.132
67421W        W32241  27.672  22.273   3.246
67422W        W32242  22.699  10.293   3.657
67423W        W32243   5.909   7.390   1.200
67424W        W32244  19.354  37.629  14.012
67425W        W32245  14.781  18.065  10.687
67426W        W32246   7.934  21.578   3.146
67427W        W32247   2.232  11.730   3.537
67428W        W32248  43.386  37.385  14.753
67429W        W32249  12.684  21.592   2.266
67430W        W32250   5.909  24.264  12.632
67431W        W32251  31.862  25.468   5.213
67432W        W32252   1.886  40.989   1.487
67433W        W32253  35.947   7.488  13.278
67434W        W32254  24.898   6.624   1.858
67435W        W32255  30.007  27.783   0.787
67436W        W32256  42.276  32.394  13.188
67437W        W32257  28.151  23.497   2.256
67438W        W32258  44.587  35.581  13.491
67439W        W32259  19.010   4.738  13.502
67440W        W32260   2.513  13.445  13.506
67441W        W32261   4.440  36.951   4.536
67442W        W32262  26.612  20.720  13.881
67443W        W32263  15.184  25.279   2.351
67444W        W32264  44.947  28.099   4.326
67445W        W32265  36.872  42.160  14.529
67446W        W32266   2.004  38.953  13.088
67447W        W32267  18.632  41.286  13.920
67448W        W32268   3.233  37.090  14.389
67449W        W32269  29.071  40.686  12.170
67450W        W32270   6.758  11.204   4.623
67451W        W32271  14.912  12.732  11.778
67452W        W32272  24.987   3.965   1.433
67453W        W32273  34.070  39.734  13.914
67454W        W32274  20.530  22.069  14.900
67455W        W32275  29.737   7.927  11.044
67456W        W32276   4.252  35.128  11.109
67457W        W32277   0.518  13.956  14.342
67458W        W32278   9.614  44.345   2.163
67459W        W32279  11.534  43.378  13.917
67460W        W32280   7.236  42.051  10.675
67461W        W32281  32.413  36.382   2.821
67462W        W32282  17.441  42.461  11.990
67463W        W32283   3.539  35.457   0.861
67464W        W32284  20.197  30.099  11.751
67465W        W32285  36.459  16.166  10.681
67466W        W32286  13.748  36.565   0.723
67467W        W32287  37.885  42.869  12.392
67468W        W32288  26.687  36.048  13.455
67469W        W32289   4.626  37.058   2.399
67470W        W32290  18.612  22.857   5.108
67471W        W32291   3.338  22.688  13.074
67472W        W32292   8.061   5.727  14.778
67473W        W32293  16.041  34.291  11.667
67474W        W32294  18.659  28.884   4.279
67475W        W32295  28.235  12.587   1.889
67476W        W32296  25.256   1.038   4.692
67477W        W32297  18.325   1.198   5.059
67478W        W32298  41.797  21.176   3.772
67479W        W32299   7.593  23.930  10.408
67480W        W32300  17.163  38.111  13.784
67481W        W32301  28.230  25.463  14.469
67482W        W32302  40.549  43.392  12.148
67483W        W32303  28.105  13.784   2.111
67484W        W32304  44.924  43.914  11.094
67485W        W32305  41.351  36.887   0.790
67486W        W32306   2.730  26.502   0.795
67487W        W32307  20.978  28.129  10.126
67488W        W32308   1.019  19.725   2.756
67489W        W32309   1.395  28.475  12.965
67490W        W32310  31.788  42.395  10.566
67491W        W32311  10.860  43.473  11.084
67492W        W32312  14.661  26.008  14.452
67493W        W32313   8.001  23.472  11.629
67494W        W32314  43.276  30.965  11.055
67495W        W32315  42.047  29.609  11.620
67496W        W32316  25.739  22.657  13.603
67497W        W32317   0.312  38.202  13.757
67498W        W32318  28.511  14.548   4.350
67499W        W32319  31.334  34.229  11.991
67500W        W32320  27.276  16.359   2.726
67501W        W32321  19.229   5.764   3.200
67502W        W32322  21.188  38.728  11.999
67503W        W32323   2.499   2.043  11.606
67504W        W32324  17.348   6.769  13.477
67505W        W32325  22.999   0.031   1.878
67506W        W32326   8.391   1.876   1.460
67507W        W32327  20.654  20.493   0.322
67508W        W32328  19.221  18.257   0.191
67509W        W32329  35.578  13.611  11.589
67510W        W32330  32.895  33.425   0.268
67511W        W32331  12.944  21.288   5.016
67512W        W32332  14.567  22.511  10.762
67513W        W32333  23.891  39.351   1.610
67514W        W32334  25.531   5.772  10.768
67515W        W32335  21.573   2.858  10.756
67516W        W32336   5.320  18.204   5.166
67517W        W32337  39.188   0.023  10.472
67518W        W32338  38.495  24.951   2.038
67519W        W32339  17.304   6.608   4.299
67520W        W32340  29.120  26.803  11.598
67521W        W32341  25.416  12.787   0.678
67522W        W32342  14.297  42.249  12.984
67523W        W32343  26.609   5.136   4.309
67524W        W32344  12.906   1.908   4.125
67525W        W32345   2.164  32.230  14.443
67526W        W32346  36.688  15.103   1.921
67527W        W32347  29.950  21.969   4.215
67528W        W32348  25.158  13.177   1.805
67529W        W32349   6.195  44.338  13.487
67530W        W32350   5.706  29.569   2.265
67531W        W32351   6.820   5.759   0.181
67532W        W32352  35.093  40.586   0.692
67533W        W32353  19.661  14.806   3.581
67534W        W32354  43.817  11.634   0.810
67535W        W32355  21.767  31.503  12.953
67536W        W32356   5.449  22.181  12.890
67537W        W32357   1.591  21.037   3.817
67538W        W32358  29.977  30.817   0.751
67539W        W32359   1.854  23.551  13.442
67540W        W32360  10.680  27.429   1.299
67541W        W32361  19.804  21.151   3.205
67542W        W32362  22.268  25.750  13.469
67543W        W32363  44.432  16.774   2.882
67544W        W32364  37.500  11.191  11.482
67545W        W32365   1.261  33.455   4.869
67546W        W32366   2.688  19.296   2.660
67547W        W32367  28.183  27.509  10.233
67548W        W32368   9.650  12.771  11.338
67549W        W32369  41.947   2.350   4.920
67550W        W32370  30.274  26.276   1.859
67551W        W32371  35.574  34.396   3.725
67552W        W32372  22.122  30.619   3.582
67553W        W32373  10.341  26.396   4.539
67554W        W32374  31.822   7.480   1.379
67555W        W32375  35.533  31.502  14.863
67556W        W32376  41.825  19.526  14.364
67557W        W32377  38.238  13.421  10.684
67558W        W32378  16.313  19.708  14.903
67559W        W32379  28.853  13.227   3.861
67560W        W32380  23.451   8.255  13.703
67561W        W32381   0.215  20.357  13.425
67562W        W32382  10.541  34.398   2.314
67563W        W32383  41.444  32.383  12.888
67564W        W32384  24.207   2.221   4.533
67565W        W32385   4.152   8.872   0.255
67566W        W32386  19.309  35.075   1.421
67567W        W32387  26.617  43.005  10.896
67568W        W32388  42.290  42.889  11.164
67569W        W32389  11.288  21.312  13.794
67570W        W32390   2.347  30.210  11.917
67571W        W32391   2.928  36.191   3.044
67572W        W32392   5.976  14.288  14.964
67573W        W32393  17.111  10.925  12.716
67574W        W32394  32.487  32.983   0.968
67575W        W32395  15.616  24.741   1.693
67576W        W32396   8.110  27.633   1.352
67577W        W32397  20.842   7.122   9.824
67578W        W32398   5.813  32.490   3.240
67579W        W32399  39.821  12.230  14.042
67580W        W32400   4.716  23.592  11.566
67581W        W32401  11.659  35.809  11.679
67582W        W32402   9.883  32.144   4.062
67583W        W32403  35.621  44.966  13.854
67584W        W32404  41.183  39.209   0.274
67585W        W32405   9.840  10.144   1.457
67586W        W32406  32.985  12.077  11.936
67587W        W32407   8.373   6.432   2.219
67588W        W32408  17.182   9.925   4.527
67589W        W32409  38.683  17.210   0.516
67590W        W32410  17.097  31.412   2.783
67591W        W32411  22.788  33.022   1.568
67592W        W32412  12.102   7.412   4.372
67593W        W32413  41.792  11.781  13.021
67594W        W32414  35.817   9.838  14.129
67595W        W32415  27.043  32.537   3.367
67596W        W32416  43.265  32.825   4.467
67597W        W32417  40.892  28.567   3.378
67598W        W32418  26.636  36.641   3.615
67599W        W32419   5.326  15.584  14.079
67600W        W32420   0.663   3.666   0.773
67601W        W32421  18.150  31.456  13.362
67602W        W32422   5.855  30.639  13.909
67603W        W32423  34.328  42.578  14.601
67604W        W32424  12.697  23.209   3.369
67605W        W32425  29.404  20.887  13.353
67606W        W32426  26.678  24.329   4.091
67607W        W32427  37.636   2.387   1.539
67608W        W32428  34.919   3.481  11.074
67609W        W32429  15.574  10.427   3.734
67610W        W32430  28.414  17.243   3.283
67611W        W32431  38.514  32.987  12.334
67612W        W32432  11.338  24.031   4.073
67613W        W32433  44.895  10.059   0.435
67614W        W32434  13.616  34.820   0.268
67615W        W32435  42.991  40.795  13.374
67616W        W32436   8.410   1.100  12.728
67617W        W32437  21.738  19.353  10.184
67618W        W32438  34.627  30.529  13.362
67619W        W32439  16.765  17.177   4.634
67620W        W32440  44.097  17.402  12.599
67621W        W32441  12.764  22.172  12.541
67622W        W32442   0.908  11.389   2.690
67623W        W32443  27.458  25.191  14.927
67624W        W32444  11.939  11.690   1.755
67625W        W32445  15.519   5.258   4.099
67626W        W32446  30.479  34.590   1.914
67627W        W32447  34.356   9.368   2.134
67628W        W32448  31.476  43.449  12.587
67629W        W32449  36.122   8.306  11.628
67630W        W32450  21.362  38.628   4.314
67631W        W32451  30.794  41.309  13.931
67632W        W32452  14.105   7.310  14.452
67633W        W32453  31.000  19.843  10.701
67634W        W32454  22.871  27.918   1.387
67635W        W32455   2.947  28.665  12.107
67636W        W32456   1.736  10.380  13.884
67637W        W32457  40.483  34.350  12.078
67638W        W32458  29.424  42.949  11.533
67639W        W32459  41.165  10.488   1.398
67640W        W32460  35.760  43.988   4.668
67641W        W32461  10.274  36.574  12.996
67642W        W32462  29.481   5.251   2.684
67643W        W32463   2.420   7.373  10.796
67644W        W32464   2.262   2.448   2.988
67645W        W32465  24.966  21.603  14.023
67646W        W32466  25.770  24.193   1.443
67647W        W32467  18.804  12.860   0.037
67648W        W32468   3.296   2.696   4.863
67649W        W32469  11.714  11.104  12.783
67650W        W32470   1.768  28.653   0.911
67651W        W32471  40.572  25.177   3.755
67652W        W32472  39.830  31.671  11.532
67653W        W32473  11.745  29.590   0.031
67654W        W32474  26.310  44.306   0.900
67655W        W32475  31.379  25.461   0.334
67656W        W32476  12.130  10.883   4.806
67657W        W32477  12.241   0.741  11.650
67658W        W32478  25.212   9.745   2.318
67659W        W32479  31.926  40.000  14.947
67660W        W32480   9.271  33.224  11.047
67661W        W32481   8.657  26.202   1.691
67662W        W32482  19.501  34.861   1.873
67663W        W32483  42.703   0.212  11.629
67664W        W32484   6.806  39.478  13.918
67665W        W32485  31.917  39.358   3.536
67666W        W32486  34.571  29.208  13.032
67667W        W32487  11.965  14.563   5.362
67668W        W32488  17.501  41.446  11.248
67669W        W32489  37.096  31.392  13.252
67670W        W32490  19.215  43.496  10.522
67671W        W32491  14.849   5.701   4.123
67672W        W32492  19.575  43.124   3.393
67673W        W32493  32.193  15.360   1.376
67674W        W32494   8.852  11.120  12.559
67675W        W32495  15.597  32.993  14.743
67676W        W32496  17.280  40.008  11.203
67677W        W32497   9.682   8.701   4.626
67678W        W32498  37.520  25.221   1.567
67679W        W32499   6.319  23.417  13.223
67680W        W32500  36.593  18.261   1.257
67681W        W32501  35.657  19.551  14.080
67682W        W32502  12.801   0.553   1.891
67683W        W32503  44.358  36.522   2.792
67684W        W32504  25.618  18.161  13.854
67685W        W32505  15.056  14.142  12.012
67686W        W32506  24.400  25.595  12.244
67687W        W32507  12.902   3.387   4.045
67688W        W32508   2.763  32.738  11.516
67689W        W32509  13.868  24.489   3.238
67690W        W32510  43.483  13.818  11.322
67691W        W32511  21.652  26.230  13.569
67692W        W32512  37.042   4.216   1.331
67693W        W32513  34.699  32.721  11.176
67694W        W32514  12.666   9.146  10.819
67695W        W32515  12.341  38.778  11.750
67696W        W32516  16.823  27.464  14.514
67697W        W32517   5.863  24.346   3.604
67698W        W32518  21.568  42.295  14.564
67699W        W32519   3.620  38.350   0.157
67700W        W32520  31.854   1.047  12.687
67701W        W32521  26.154   3.225  13.486
67702W        W32522   2.849  33.489   1.796
67703W        W32523  38.180  22.775  10.730
67704W        W32524  22.153   4.247  14.542
67705W        W32525  26.225  31.727  11.075
67706W        W32526  10.627   9.774   1.173
67707W        W32527  15.718  26.413   3.733
67708W        W32528  21.722  28.376   3.752
67709W        W32529  24.147  33.834  14.443
67710W        W32530  34.127  16.312   3.554
67711W        W32531  18.349  16.865  11.511
67712W        W32532  28.192  11.644  12.461
67713W        W32533  25.204  37.986   1.158
67714W        W32534  25.975  26.309  10.678
67715W        W32535   9.924  18.372   3.675
67716W        W32536   6.398  12.852   3.753
67717W        W32537  29.626  37.944   5.076
67718W        W32538  22.986  31.549  10.559
67719W        W32539  20.822  29.802   0.952
67720W        W32540   4.298  44.374  12.082
67721W        W32541  44.286  32.110   0.238
67722W        W32542   8.261  25.730   1.479
67723W        W32543  34.928   0.544   1.941
67724W        W32544   9.706   0.380   0.421
67725W        W32545   7.319   9.412   1.226
67726W        W32546  44.001  20.329  12.874
67727W        W32547   8.422  20.562   2.228
67728W        W32548  30.502   5.572  12.590
67729W        W32549  12.680   7.629  11.658
67730W        W32550   8.693   9.717  10.689
67731W        W32551   9.963  26.503   2.704
67732W        W32552  34.595  17.611   3.158
67733W        W32553  11.922   3.896   2.334
67734W        W32554  20.161   4.821   1.955
67735W        W32555  17.560  35.318  10.638
67736W        W32556  11.364  34.467   3.691
67737W        W32557  31.715  22.638   4.257
67738W        W32558   1.013   9.548   0.979
67739W        W32559   2.640  26.650  11.048
67740W        W32560  25.066   9.165  14.980
67741W        W32561  14.587  44.572  14.879
67742W        W32562  33.101   4.704   3.713
67743W        W32563  26.178   5.577  13.332
67744W        W32564   3.091  25.585  13.970
67745W        W32565  35.477  31.007   0.034
67746W        W32566  27.484  27.913   2.192
67747W        W32567  18.561  11.908   3.306
67748W        W32568  40.690  24.658  13.482
67749W        W32569  17.454   3.342   1.346
67750W        W32570  30.514  21.803   0.938
67751W        W32571  35.075  20.968  13.587
67752W        W32572  39.881  27.729  14.484
67753W        W32573   1.115  23.540  13.575
67754W        W32574  32.679  30.907   3.851
67755W        W32575  16.296  20.762   1.913
67756W        W32576  20.058  41.903   2.409
67757W        W32577  11.953   9.340  12.371
67758W        W32578   7.417  11.803  11.830
67759W        W32579   5.859   8.293   1.458
67760W        W32580  19.348  14.329   2.139
67761W        W32581  20.461  44.496   1.749
67762W        W32582   5.406  15.713   2.250
67763W        W32583  24.183   9.716   4.596
67764W        W32584  31.663   2.536   4.291
67765W        W32585  19.714  29.664  14.845
67766W        W32586  42.371  42.668   0.990
67767W        W32587  29.563  38.962  13.508
67768W        W32588  38.298  16.131  14.948
67769W        W32589  15.583   0.205   9.977
67770W        W32590  16.320  42.981   4.328
67771W        W32591  34.219  19.261  11.648
67772W        W32592   3.475  44.076   1.060
67773W        W32593  14.645  17.335   4.503
67774W        W32594   0.313  34.693   3.785
67775W        W32595  26.884  25.343   0.628
67776W        W32596  14.893  41.737  14.151
67777W        W32597  34.831  35.970  12.069
67778W        W32598  30.038  43.345   4.078
67779W        W32599  38.642   2.750   2.797
67780W        W32600  39.045  34.300   1.812
67781W        W32601  38.060   3.022  13.561
67782W        W32602  29.926   3.256  13.490
67783W        W32603  16.315   3.807  11.666
67784W        W32604  43.235  37.293   1.299
67785W        W32605  32.390  34.441  12.150
67786W        W32606  37.842  21.297  10.734
67787W        W32607  43.285   6.007   4.261
67788W        W32608  43.848  41.497   0.437
67789W        W32609  36.521   4.823   2.610
67790W        W32610  42.823  13.715  12.646
67791W        W32611  12.773  10.798   2.308
67792W        W32612  36.819  10.796  12.863
67793W        W32613   4.038   8.203   1.236
67794W        W32614   6.306  42.161   1.617
67795W        W32615  20.092  29.558   4.616
67796W        W32616  29.635  16.197   9.949
67797W        W32617  16.262   8.642  11.206
67798W        W32618  13.224   4.391   2.758
67799W        W32619  37.494  15.162  12.059
67800W        W32620  27.190  42.479   0.209
67801W        W32621  30.911   3.182   3.283
67802W        W32622  14.728  14.316   4.350
67803W        W32623  15.555  39.076   4.486
67804W        W32624   3.437  12.783   2.417
67805W        W32625  15.817  12.682   3.608
67806W        W32626  42.424   4.861   3.706
67807W        W32627   9.125  19.490  10.267
67808W        W32628  42.364  43.195   2.248
67809W        W32629  13.391  34.554  12.973
67810W        W32630  20.838   5.826   4.588
67811W        W32631  21.955  26.098  11.941
67812W        W32632  35.111  12.131  13.878
67813W        W32633  18.160  37.614   0.059
67814W        W32634  35.934  37.644  11.729
67815W        W32635   3.187  12.713   2.898
67816W        W32636  34.421  41.660  14.828
67817W        W32637   5.820  23.387  10.161
67818W        W32638  31.281   3.346  12.415
67819W        W32639  41.632  32.128  13.395
67820W        W32640   9.629   5.988  11.285
67821W        W32641   3.439  29.530  14.757
67822W        W32642   8.675  18.581  14.682
67823W        W32643  39.517   9.560   3.567
67824W        W32644  36.993  31.866   4.437
67825W        W32645  40.565   2.743  11.950
67826W        W32646  37.828  42.079  13.251
67827W        W32647  28.814  44.343  14.349
67828W        W32648   8.820  30.603  12.344
67829W        W32649  35.124   8.708  14.405
67830W        W32650  41.173  31.832  12.036
67831W        W32651  33.045   3.736   2.845
67832W        W32652   0.982  26.973  10.754
67833W        W32653  29.881   3.224   0.223
67834W        W32654  30.225  23.657   2.236
67835W        W32655  21.608   8.927   0.487
67836W        W32656  38.757  36.040  13.507
67837W        W32657  24.886  15.917  11.155
67838W        W32658   8.159  42.965   3.396
67839W        W32659  29.126  20.479  14.406
67840W        W32660  10.251  42.894  11.642
67841W        W32661  32.824  17.457  12.534
67842W        W32662   5.370  38.841   0.750
67843W        W32663  30.031  16.792   2.827
67844W        W32664  43.001  10.604  10.598
67845W        W32665  13.463  33.918  12.547
67846W        W32666  19.292  39.261   3.301
67847W        W32667  21.999  19.237  10.683
67848W        W32668  26.137  25.224   1.750
67849W        W32669  18.247   7.165  14.883
67850W        W32670  27.677  35.819  14.961
67851W        W32671  14.389  42.719   4.900
67852W        W32672  26.963  30.133   1.858
67853W        W32673  34.706  40.793  14.619
67854W        W32674  14.668  42.494   0.327
67855W        W32675  19.979  34.921   0.773
67856W        W32676  19.561   4.540  11.468
67857W        W32677  31.673  29.027  11.621
67858W        W32678   5.550  26.544  12.433
67859W        W32679  13.639  44.810   3.588
67860W        W32680  12.641  42.491  13.924
67861W        W32681  24.500   4.835   3.696
67862W        W32682  31.665  24.529  13.478
67863W        W32683  42.516  16.219  13.443
67864W        W32684  11.720  24.786  12.488
67865W        W32685  34.172  10.036  11.112
67866W        W32686  24.919  18.774   4.947
67867W        W32687  43.607  34.927   2.364
67868W        W32688  35.935   9.630  11.621
67869W        W32689  13.124   1.191  14.327
67870W        W32690  30.505   1.330   2.821
67871W        W32691  40.097   7.773   3.624
67872W        W32692   4.345  13.166   4.791
67873W        W32693  11.938  21.754   3.221
67874W        W32694  38.832  15.122  14.514
67875W        W32695   4.315  14.230  13.478
67876W        W32696  38.242  43.572  14.019
67877W        W32697  14.410  38.385   4.386
67878W        W32698   8.293   0.461  14.444
67879W        W32699  29.127  21.637   2.208
67880W        W32700   7.259  21.048   2.835
67881W        W32701   5.361   6.652  12.592
67882W        W32702  34.951  30.618   4.163
67883W        W32703  11.032  12.160  14.969
67884W        W32704  17.112  41.729  14.599
67885W        W32705  24.150  11.049  13.492
67886W        W32706  32.212  23.931  12.554
67887W        W32707  37.143  38.766  13.936
67888W        W32708   7.035  36.373   4.736
67889W        W32709  20.615  18.268   1.826
67890W        W32710  40.416  38.045   0.818
67891W        W32711  39.240  27.171   1.751
67892W        W32712  17.074  31.181  12.085
67893W        W32713  30.708  31.182  10.556
67894W        W32714   7.951  34.365  12.393
67895W        W32715   4.374  22.638   4.096
67896W        W32716  35.619  25.929  10.986
67897W        W32717  13.790   1.838   1.220
67898W        W32718  39.443  27.686   2.291
67899W        W32719  35.104  23.496   4.046
67900W        W32720   2.757  40.264  14.004
67901W        W32721  11.448  26.221   0.769
67902W        W32722  14.264  37.829   3.204
67903W        W32723  17.658  30.579   0.330
67904W        W32724   9.676  31.095  10.961
67905W        W32725  33.001  39.093   1.222
67906W        W32726   8.691  22.788  11.349
67907W        W32727  38.322  19.665   2.705
67908W        W32728  29.649   9.893  10.974
67909W        W32729  42.220  25.598  10.780
67910W        W32730   0.794  33.630  10.786
67911W        W32731  28.995   9.087  14.976
67912W        W32732  15.471  36.785   4.931
67913W        W32733  40.770  29.378  12.126
67914W        W32734   7.826  37.989  12.992
67915W        W32735   3.849   7.178  13.804
67916W        W32736  39.123  26.688   4.150
67917W        W32737  28.518  40.496   3.641
67918W        W32738  35.792  39.110   4.695
67919W        W32739  31.827  43.952   0.978
67920W        W32740  24.860  25.614   3.612
67921W        W32741  25.914  44.502   2.761
67922W        W32742  41.326  36.312   2.253
67923W        W32743  28.469   8.926   4.245
67924W        W32744  39.827  44.016  14.590
67925W        W32745  41.931   5.625   0.076
67926W        W32746  36.883  43.876  11.386
67927W        W32747  20.198   6.899  13.819
67928W        W32748   2.421  40.760  12.426
67929W        W32749  23.620   7.647  11.436
67930W        W32750  31.688  26.629  12.430
67931W        W32751  24.745  38.150   0.251
67932W        W32752  33.623   1.422   3.740
67933W        W32753  25.293  44.301   0.816
67934W        W32754  14.075  15.602   0.998
67935W        W32755  10.844   5.225   1.446
67936W        W32756  21.651  35.403   2.437
67937W        W32757  14.999  35.083   0.881
67938W        W32758   8.876  39.569  11.961
67939W        W32759  31.887   6.699  13.944
67940W        W32760  10.163  17.811  10.704
67941W        W32761  24.758  44.706   1.443
67942W        W32762   0.030  24.641  14.351
67943W        W32763  38.974  38.519   4.318
67944W        W32764  35.993  25.943   0.980
67945W        W32765  15.310  26.701   3.624
67946W        W32766  14.086   9.336   2.956
67947W        W32767   7.786  27.410   2.351
67948W        W32768  41.727  25.594   2.322
67949W        W32769   5.885  40.748  14.094
67950W        W32770   2.867  41.833   3.250
67951W        W32771  40.068  15.424   0.174
67952W        W32772  16.734  15.602  13.152
67953W        W32773   7.330  18.033  11.087
67954W        W32774  33.351  42.532  13.742
67955W        W32775  37.417  28.495  13.877
67956W        W32776  22.074  41.708   4.044
67957W        W32777  19.694  12.394  14.313
67958W        W32778  29.310  38.299  10.989
67959W        W32779  44.823  18.249   4.173
67960W        W32780   7.682  38.618   0.241
67961W        W32781  36.973  30.874  13.087
67962W        W32782  44.278  25.523  14.931
67963W        W32783  18.514  13.539   3.534
67964W        W32784  19.118  34.086   2.708
67965W        W32785  32.398  27.968  11.164
67966W        W32786  34.614  10.675   2.199
67967W        W32787  11.778  28.626  14.199
67968W        W32788  37.625  28.466   1.356
67969W        W32789  38.879  19.358  12.044
67970W        W32790  17.369  25.226   3.663
67971W        W32791  28.845  26.772   4.114
67972W        W32792  12.463  18.487  12.424
67973W        W32793  10.194  41.325   4.527
67974W        W32794  13.822  25.810  13.376
67975W        W32795  35.049  27.031   2.702
67976W        W32796  24.864  15.798   3.570
67977W        W32797  11.330  27.867  12.463
67978W        W32798   5.906  28.315  10.205
67979W        W32799  43.732  26.856   2.816
67980W        W32800  28.548  39.356   0.989
67981W        W32801  43.325  14.303  13.008
67982W        W32802  41.797  18.403   2.831
67983W        W32803   2.521  10.084  10.359
67984W        W32804  16.642  34.265   3.701
67985W        W32805  34.088  37.839   1.208
67986W        W32806   8.558  17.276   0.359
67987W        W32807  34.207  21.868   1.951
67988W        W32808  19.145  11.422  12.510
67989W        W32809  14.170  16.925   0.542
67990W        W32810  31.539  13.157   3.631
67991W        W32811  15.794   6.909   4.160
67992W        W32812  18.034  11.618   1.332
67993W        W32813  23.679   1.239  13.332
67994W        W32814  18.639  40.806   0.887
67995W        W32815   7.474   3.641   1.713
67996W        W32816  12.061  11.933   0.082
67997W        W32817  38.035  13.513  13.575
67998W        W32818  35.817   6.171   3.205
67999W        W32819  19.609  37.859   0.044
68000W        W32820  42.601   6.773   0.221
68001W        W32821   2.903  37.764  10.826
68002W        W32822  39.675  42.757   1.658
68003W        W32823   1.698  25.136   2.777
68004W        W32824   9.662  42.412  13.786
68005W        W32825  18.284  43.851   1.871
68006W        W32826  15.142  12.793  11.317
68007W        W32827  13.509  41.092   3.714
68008W        W32828  11.973  35.703   1.740
68009W        W32829  15.383   2.757   4.310
68010W        W32830  27.667  22.157   2.734
68011W        W32831  37.810  27.424   1.712
68012W        W32832  33.249  23.602  11.088
68013W        W32833  31.542  12.552   4.655
68014W        W32834  38.513   8.143   0.196
68015W        W32835  19.992  26.527  12.741
68016W        W32836  26.471  17.405  10.704
68017W        W32837  15.725  23.883  12.561
68018W        W32838  20.698  19.209   2.705
68019W        W32839  11.210  33.624   3.201
68020W        W32840  32.406  32.540  12.876
68021W        W32841  17.724  38.052  14.424
68022W        W32842  28.911  14.905  11.192
68023W        W32843  26.712  26.127   2.739
68024W        W32844  39.589  44.733  12.952
68025W        W32845   8.961  17.178   3.102
68026W        W32846  10.289  43.431  12.916
68027W        W32847  20.060  11.098   1.753
68028W        W32848  44.843  24.408   3.574
68029W        W32849  10.774   2.313  12.515
68030W        W32850  26.664  10.785  14.973
68031W        W32851  35.199   9.131   1.475
68032W        W32852   7.741  26.082   2.451
68033W        W32853  21.449  43.790   2.388
68034W        W32854  29.826   6.778  14.061
68035W        W32855  24.280  41.348  11.496
68036W        W32856  37.152  33.837  13.506
68037W        W32857  31.961  31.880  12.868
68038W        W32858  35.397   6.994  11.596
68039W        W32859  20.067  25.708  11.839
68040W        W32860  43.395  13.631   0.315
68041W        W32861  25.571   8.339   0.176
68042W        W32862   1.731  40.017   0.813
68043W        W32863  42.352  41.312  10.461
68044W        W32864  31.096   1.840   4.725
68045W        W32865   1.803  40.855  13.064
68046W        W32866  28.978  41.448  13.299
68047W        W32867   5.958  18.160  12.612
68048W        W32868  37.142  34.958  13.144
68049W        W32869  34.321  12.295  13.416
68050W        W32870  32.195   0.272   2.377
68051W        W32871  29.901  40.561   0.606
68052W        W32872  29.160  31.579   1.809
68053W        W32873  38.050  40.932  12.038
68054W        W32874  24.220  25.177   1.170
68055W        W32875  27.341  14.501   3.644
68056W        W32876  22.131  26.912   4.561
68057W        W32877  32.995  12.715   3.607
68058W        W32878  24.458   4.023   3.722
68059W        W32879  18.277  20.676  13.897
68060W        W32880  25.171  33.918  12.101
68061W        W32881  25.459  13.614   0.977
68062W        W32882  17.130   3.919   3.975
68063W        W32883  44.980  37.248  14.872
68064W        W32884   3.305  18.593  12.910
68065W        W32885   7.867  26.976   2.623
68066W        W32886  18.438  18.695  13.516
68067W        W32887  12.780  37.361   1.289
68068W        W32888  23.124  11.814   4.661
68069W        W32889  25.098  35.369   2.914
68070W        W32890   1.508  42.455   2.438
68071W        W32891  43.847   1.312  14.628
68072W        W32892  31.519  40.269  12.921
68073W        W32893  31.018  30.101  12.977
68074W        W32894  24.564  44.826  13.931
68075W        W32895   1.794  40.083  14.971
68076W        W32896  39.956  37.994  11.287
68077W        W32897  34.210  21.709   3.352
68078W        W32898  16.064   6.927   4.633
68079W        W32899  29.609  25.941   3.603
68080W        W32900  16.061   3.017  11.165
68081W        W32901  34.669  28.407  11.136
68082W        W32902  44.301  28.497   2.889
68083W        W32903   5.619  14.436   1.684
68084W        W32904  34.697  21.796  10.969
68085W        W32905  41.790  43.505   1.010
68086W        W32906   5.190   5.663  13.865
68087W        W32907  19.209   9.813   1.269
68088W        W32908   6.804   6.706  12.569
68089W        W32909  38.277   3.076  13.002
68090W        W32910  39.419   9.106   0.385
68091W        W32911  44.677  41.926  11.714
68092W        W32912  18.065  32.130   4.116
68093W        W32913  39.964  18.810   3.370
68094W        W32914  41.816  42.910  14.281
68095W        W32915  44.514   0.319  11.194
68096W        W32916  33.364  24.062   0.161
68097W        W32917  26.770  37.595   3.752
68098W        W32918  18.938   9.301  14.725
68099W        W32919  22.266  19.613  14.469
68100W        W32920  38.858  36.177  14.989
68101W        W32921   2.323   6.670  12.999
68102W        W32922  18.628  34.963   4.191
68103W        W32923  21.067  20.015   3.435
68104W        W32924  14.645   6.378   1.424
68105W        W32925  16.830   7.703   1.148
68106W        W32926  15.479  28.949  10.601
68107W        W32927  43.578   5.741  12.021
68108W        W32928  33.922  35.038   4.580
68109W        W32929  35.783  13.567   4.141
68110W        W32930   8.006  14.942   2.422
68111W        W32931   0.849   7.938  11.280
68112W        W32932  19.908  15.149   3.889
68113W        W32933  23.226  39.506  13.465
68114W        W32934  44.381  36.151   2.458
68115W        W32935   4.995  40.106   1.270
68116W        W32936  28.454  38.392   2.305
68117W        W32937   0.841  19.274   0.227
68118W        W32938  20.109  25.630   3.708
68119W        W32939  23.026  35.598   0.234
68120W        W32940   2.419  13.939  13.381
68121W        W32941   8.339  32.055  14.806
68122W        W32942  11.110   5.962   0.339
68123W        W32943  44.240  15.026   4.190
68124W        W32944   6.429   1.504   1.764
68125W        W32945  15.878  21.132   3.599
68126W        W32946   2.205   6.162  11.094
68127W        W32947  15.439  17.532  10.246
68128W        W32948   8.460  40.283   4.322
68129W        W32949  16.728  12.355   0.954
68130W        W32950  22.428  19.126   0.320
68131W        W32951  41.400  10.024  14.463
68132W        W32952  20.970  24.999   0.317
68133W        W32953   1.357  30.192   1.921
68134W        W32954   9.303  10.225  11.448
68135W        W32955  37.974  38.730   1.170
68136W        W32956   0.474  24.606   4.760
68137W        W32957  16.690  10.244  10.514
68138W        W32958  38.477  23.609  10.430
68139W        W32959  41.243  31.714  14.584
68140W        W32960  38.479  26.450  13.288
68141W        W32961  20.579  26.856  13.866
68142W        W32962  13.148   0.101   3.671
68143W        W32963   6.305  21.211  14.920
68144W        W32964  24.714   0.366   1.012
68145W        W32965  20.013  23.102  13.094
68146W        W32966  26.454   4.718   4.062
68147W        W32967   8.465   6.705  10.992
68148W        W32968   2.665  17.703  13.512
68149W        W32969  36.783  37.857  10.724
68150W        W32970  20.354  14.119   0.543
68151W        W32971  31.191  19.381  11.463
68152W        W32972  44.718  25.794   0.928
68153W        W32973   9.886  34.778  13.012
68154W        W32974  24.002  10.039  12.598
68155W        W32975  16.651  33.073   3.155
68156W        W32976  28.107  14.665  11.020
68157W        W32977  24.800  31.112  11.659
68158W        W32978   6.765  31.205   0.934
68159W        W32979   5.937  31.432  10.774
68160W        W32980  32.419  32.913   4.829
68161W        W32981   5.936  31.659   1.713
68162W        W32982  39.187  30.671  14.629
68163W        W32983  20.147  19.671   1.329
68164W        W32984  16.598   6.230  13.546
68165W        W32985  32.844  35.752  14.303
68166W        W32986  34.477   2.490  11.604
68167W        W32987  24.365  18.196   1.317
68168W        W32988  11.275  32.671   0.471
68169W        W32989  22.726   3.424   4.221
68170W        W32990  39.554  26.196   4.281
68171W        W32991  34.472  18.173  14.901
68172W        W32992  38.847   8.868   0.536
68173W        W32993  27.679  36.308   2.485
68174W        W32994   3.807  26.264   4.605
68175W        W32995  25.949  37.990  13.545
68176W        W32996  30.188  23.542  13.754
68177W        W32997  37.551   6.993  11.508
68178W        W32998  22.114   7.310   0.714
68179W        W32999  13.342  25.228   2.187
68180W        W33000   7.327  23.670   0.313
68181W        W33001  43.836  30.343   3.286
68182W        W33002  21.697   4.299   0.769
68183W        W33003  41.808  11.664   2.564
68184W        W33004  16.948   4.269   0.806
68185W        W33005  44.754  16.107   3.747
68186W        W33006  42.601  16.824  11.029
68187W        W33007   3.389  22.476   3.212
68188W        W33008  15.535  31.922   2.283
68189W        W33009  35.604  23.297   2.199
68190W        W33010   9.939  41.610   4.157
68191W        W33011  31.798  27.115  13.887
68192W        W33012  31.412  17.770  12.415
68193W        W33013  18.676   6.743   0.878
68194W        W33014   2.741  12.315   0.109
68195W        W33015  33.147  29.460   2.288
68196W        W33016  21.655  24.096   4.660
68197W        W33017   3.694  38.426   1.653
68198W        W33018  17.660  34.508   5.048
68199W        W33019  23.445  34.169  14.865
68200W        W33020  24.498  11.602   1.194
68201W        W33021   5.388  32.890  12.989
68202W        W33022  36.057  29.704  14.882
68203W        W33023  20.248  12.347   0.911
68204W        W33024  38.079  17.733  10.378
68205W        W33025  10.841  24.259  14.340
68206W        W33026  39.900  32.446  14.232
68207W        W33027  40.057  31.542   4.151
68208W        W33028  31.878  15.096   4.209
68209W        W33029  32.351   6.353   3.157
68210W        W33030   7.198   3.933   0.831
68211W        W33031   5.886  43.428   2.614
68212W        W33032  40.283  12.355   1.742
68213W        W33033  16.756  33.566  13.990
68214W        W33034  16.526   2.810  12.062
68215W        W33035  26.891   5.484   1.857
68216W        W33036  21.217  16.114   4.107
68217W        W33037  16.359  31.595  10.577
68218W        W33038  17.600  31.454  14.580
68219W        W33039  20.928  39.237  14.328
68220W        W33040  42.188  11.013  14.367
68221W        W33041  25.458  28.109   2.460
68222W        W33042  37.412   0.396  11.285
68223W        W33043  28.084  19.231   3.395
68224W        W33044   7.358  10.180   3.241
68225W        W33045  40.786   8.399  12.947
68226W        W33046  33.594  29.053  14.786
68227W        W33047  41.992  14.238  14.401
68228W        W33048  19.567  33.946  13.410
68229W        W33049   6.117  38.979   0.272
68230W        W33050  28.257  40.927  14.567
68231W        W33051  29.438  40.561   0.363
68232W        W33052  29.559  13.220   0.407
68233W        W33053  22.834  29.477  11.894
68234W        W33054  10.920  14.740  11.631
68235W        W33055   7.368  28.488  12.707
68236W        W33056   3.803  38.913  14.411
68237W        W33057  12.557   3.705  13.495
68238W        W33058  44.069  36.622  11.120
68239W        W33059   3.378  41.468   4.603
68240W        W33060   2.395  25.692   0.299
68241W        W33061  12.934   8.337  12.567
68242W        W33062  41.598  15.531  11.111
68243W        W33063  27.014  12.354   1.694
68244W        W33064  21.969   8.144   3.176
68245W        W33065   5.584   8.743  14.788
68246W        W33066  42.729  36.073   0.080
68247W        W33067   3.353  26.977  13.397
68248W        W33068  12.881   1.304  10.612
68249W        W33069  26.506  33.332   5.479
68250W        W33070  29.883  29.395  12.540
68251W        W33071  27.212   5.082   3.192
68252W        W33072  40.517  20.295  12.499
68253W        W33073  43.123   6.292   1.138
68254W        W33074   1.722   0.984  14.490
68255W        W33075  17.950   0.850   0.821
68256W        W33076   3.488  21.214  13.662
68257W        W33077  26.107  26.965   0.222
68258W        W33078  13.898  34.048  11.537
68259W        W33079  22.548  39.024   1.816
68260W        W33080   5.171   3.504   2.802
68261W        W33081   5.460  13.258  13.762
68262W        W33082   7.204  10.949  12.864
68263W        W33083  36.814  19.218  11.062
68264W        W33084  19.385   2.789  12.910
68265W        W33085   0.912  11.091  12.003
68266W        W33086  37.789  20.683  13.773
68267W        W33087   6.665  44.924  12.072
68268W        W33088  31.991  32.616  14.588
68269W        W33089   7.372  25.143   2.402
68270W        W33090  16.300  15.264   4.512
68271W        W33091  25.488  40.843   4.226
68272W        W33092   3.779   0.704  13.352
68273W        W33093  25.395  39.658  14.694
68274W        W33094  22.573   4.899   1.683
68275W        W33095  44.660  31.910   4.456
68276W        W33096   5.896  11.715   1.116
68277W        W33097   2.952  25.488   2.303
68278W        W33098  14.075  26.132   5.518
68279W        W33099  30.450  36.373   2.676
68280W        W33100  33.539   4.461  14.084
68281W        W33101   9.207  11.766   0.934
68282W        W33102   8.291   9.114  13.645
68283W        W33103  20.098   9.784  14.753
68284W        W33104  28.069  13.049  11.591
68285W        W33105  21.941  41.221   4.148
68286W        W33106  29.011  15.841  14.001
68287W        W33107  28.744   1.670   0.843
68288W        W33108  24.660  26.275  14.095
68289W        W33109  25.094  12.550   0.345
68290W        W33110  13.650  41.313  12.170
68291W        W33111  35.503  20.226   1.279
68292W        W33112  25.204  19.574  11.996
68293W        W33113  38.820  24.638  12.653
68294W        W33114  34.315  19.976  13.763
68295W        W33115  28.077  10.403  10.444
68296W        W33116  24.734  42.390   2.358
68297W        W33117  40.480   7.534   0.715
68298W        W33118  32.126  26.223  14.855
68299W        W33119  16.871  44.641   3.874
68300W        W33120  14.767  43.540  14.808
68301W        W33121   6.255   3.735   4.275
68302W        W33122   7.365  33.603   0.025
68303W        W33123  41.312  43.774   0.245
68304W        W33124  24.071  23.467   4.141
68305W        W33125   4.955  14.882  14.503
68306W        W33126  17.768  29.532   2.096
68307W        W33127  24.121  33.746   1.382
68308W        W33128  37.003  40.838   4.611
68309W        W33129  32.143   8.688   4.966
68310W        W33130  29.956  36.470   4.962
68311W        W33131  26.178  38.547  14.931
68312W        W33132   1.364  27.575  13.363
68313W        W33133  29.523  18.080  12.231
68314W        W33134  29.555  35.956  10.734
68315W        W33135  21.778  27.562  13.945
68316W        W33136   0.732   2.935   2.022
68317W        W33137   7.787  42.764  10.691
68318W        W33138  20.798  32.453   1.227
68319W        W33139  17.074  31.546   0.953
68320W        W33140  39.358  40.830   3.343
68321W        W33141   7.601  31.832  10.307
68322W        W33142  38.088   4.905  11.165
68323W        W33143  18.984  22.156  14.888
68324W        W33144  40.421  12.047  11.629
68325W        W33145   0.210  40.328   1.877
68326W        W33146  37.938  23.698   0.326
68327W        W33147  20.007  27.384   1.967
68328W        W33148  36.628  34.580  10.518
68329W        W33149  44.246   8.341   2.459
68330W        W33150  42.368  20.985  14.292
68331W        W33151   2.669  40.410   4.852
68332W        W33152  29.047   9.091  11.134
68333W        W33153  12.651  40.089  13.539
68334W        W33154   3.118  22.536  11.574
68335W        W33155  16.853   6.017   3.232
68336W        W33156  37.836  20.291  10.771
68337W        W33157  18.830  23.236   0.725
68338W        W33158  20.520  26.384   5.066
68339W        W33159   2.035  24.112   3.830
68340W        W33160  17.557  44.389   1.823
68341W        W33161  10.884  20.173  11.032
68342W        W33162  38.074  34.563  10.722
68343W        W33163  19.349   1.468  14.488
68344W        W33164  16.847  27.780  11.536
68345W        W33165  15.174  25.919  11.959
68346W        W33166  11.682  37.813  11.983
68347W        W33167  16.257   8.692  13.551
68348W        W33168  15.626  19.641  10.688
68349W        W33169   5.980  44.293   2.401
68350W        W33170  42.171   1.384  12.877
68351W        W33171  13.618  13.255  11.259
68352W        W33172  44.502  29.860   0.868
68353W        W33173  32.505   1.132   3.239
68354W        W33174  34.923   0.464   0.982
68355W        W33175  36.438  37.820  11.549
68356W        W33176  20.711   9.624   2.468
68357W        W33177  27.215  31.586  12.873
68358W        W33178  12.662  17.433  12.504
68359W        W33179  12.065  20.351  11.499
68360W        W33180   9.775  15.801   1.851
68361W        W33181  10.682  26.160  14.571
68362W        W33182  22.265  34.871   0.095
68363W        W33183  10.326  10.079   0.070
68364W        W33184  41.505  43.214   4.948
68365W        W33185   6.839  41.208   0.363
68366W        W33186  25.734   7.591  13.273
68367W        W33187  43.043  16.202  10.516
68368W        W33188  27.284  37.980   3.197
68369W        W33189  20.011   7.494  10.741
68370W        W33190  32.959  35.152   3.722
68371W        W33191  18.833  19.546   0.933
68372W        W33192  17.726  33.984   4.127
68373W        W33193   8.289  36.590  14.464
68374W        W33194  42.761  31.014   2.127
68375W        W33195  36.940  15.577  10.873
68376W        W33196  32.270   3.658   2.153
68377W        W33197   0.850  37.120  14.933
68378W        W33198   8.359  39.123   1.473
68379W        W33199   6.952   3.015   3.853
68380W        W33200  40.646  33.390   0.218
68381W        W33201  32.648   4.888  11.697
68382W        W33202  44.359  32.620   0.334
68383W        W33203  30.815  40.881  12.983
68384W        W33204  19.534  30.471   2.887
68385W        W33205   6.208   2.854   0.782
68386W        W33206  32.134  41.940   1.347
68387W        W33207  14.237   7.265  11.096
68388W        W33208  39.086  43.020   3.256
68389W        W33209  17.574  24.423   0.317
68390W        W33210  18.171   3.266   4.214
68391W        W33211   7.737  32.696  12.959
68392W        W33212  37.560  36.045  12.022
68393W        W33213  40.942  16.657  14.912
68394W        W33214  19.571  32.562  13.354
68395W        W33215   6.457  29.632  10.217
68396W        W33216   9.347  29.995   1.712
68397W        W33217   2.729   2.447  11.879
68398W        W33218  34.522  21.073  10.580
68399W        W33219  38.035  36.164   4.928
68400W        W33220  26.001  24.568  11.364
68401W        W33221   3.449  19.856   2.665
68402W        W33222  37.480  26.533  13.433
68403W        W33223  20.076  21.707   1.424
68404W        W33224  31.453  32.504  13.919
68405W        W33225  27.281  23.960  12.496
68406W        W33226  41.369  31.931   3.182
68407W        W33227  34.324  34.537  13.402
68408W        W33228  16.499  21.789   2.309
68409W        W33229  27.518  12.281  10.583
68410W        W33230   5.056  11.623   0.806
68411W        W33231  24.517   7.158   0.837
68412W        W33232   7.088  11.151  10.749
68413W        W33233   4.192   1.305  11.131
68414W        W33234  32.096   6.491   0.392
68415W        W33235  26.709   7.939  13.823
68416W        W33236  26.709  31.773   3.227
68417W        W33237  13.325  19.168  12.461
68418W        W33238  17.222  16.348   2.194
68419W        W33239  41.257  22.064  10.799
68420W        W33240  11.249  13.104   3.411
68421W        W33241  16.554  15.794  14.958
68422W        W33242   8.339  34.870  13.890
68423W        W33243  41.994  24.557  10.321
68424W        W33244  10.246  37.399  14.258
68425W        W33245  25.154  17.762   4.960
68426W        W33246  17.200   7.313  10.096
68427W        W33247  33.409   5.434  12.005
68428W        W33248  21.673  15.049  12.494
68429W        W33249  18.561  41.004   1.390
68430W        W33250  15.564  35.749   4.957
68431W        W33251   6.417  21.669   3.196
68432W        W33252  12.572  44.512   0.359
68433W        W33253  25.778   9.676  12.019
68434W        W33254  14.349  39.429  12.564
68435W        W33255  39.554  14.054   3.341
68436W        W33256  41.252  37.377  12.068
68437W        W33257  37.885  42.515  13.520
68438W        W33258  12.279  29.697  12.930
68439W        W33259  12.252  38.310   1.262
68440W        W33260  42.882  20.524   1.757
68441W        W33261  33.366  36.505  10.653
68442W        W33262  11.767   3.771  11.152
68443W        W33263  13.458  33.387   1.550
68444W        W33264  10.579   4.821  11.144
68445W        W33265  17.497  10.651   3.218
68446W        W33266  23.525  13.070  10.758
68447W        W33267  16.521  27.517   1.000
68448W        W33268   2.863  21.297  14.490
68449W        W33269  38.070  15.231   4.683
68450W        W33270  10.259  27.707  14.899
68451W        W33271   8.916  14.634   0.829
68452W        W33272  41.249   0.966  12.915
68453W        W33273   7.424  10.926   4.393
68454W        W33274   1.313  27.963   4.074
68455W        W33275  10.112  10.172   3.763
68456W        W33276  28.487   4.671  13.938
68457W        W33277  40.930  15.019   0.484
68458W        W33278   7.469   2.477  11.154
68459W        W33279  18.772  28.435   1.870
68460W        W33280   5.245  14.761   2.343
68461W        W33281  24.141   2.884  12.920
68462W        W33282  23.328   6.096   3.548
68463W        W33283   7.608  33.065  13.314
68464W        W33284  11.388  14.844   0.835
68465W        W33285  16.978   1.168  14.861
68466W        W33286   7.712   6.635   3.244
68467W        W33287   8.281  29.599   2.180
68468W        W33288   1.224  10.405   0.172
68469W        W33289  30.034   1.957  13.872
68470W        W33290  19.571  32.320  11.655
68471W        W33291  14.184  40.185  12.672
68472W        W33292  10.378   6.989  14.403
68473W        W33293  41.285   6.274   2.888
68474W        W33294  10.950  23.052   4.162
68475W        W33295  40.017  37.315  10.693
68476W        W33296   4.647  36.907  11.767
68477W        W33297  40.391  14.685  13.185
68478W        W33298  26.544   0.474  12.574
68479W        W33299  17.243  22.406  10.515
68480W        W33300  29.151   5.028  13.348
68481W        W33301  22.545  39.840  10.660
68482W        W33302  40.753   2.336  10.574
68483W        W33303  41.834  37.063   0.851
68484W        W33304  41.001  31.747   2.630
68485W        W33305  23.999   2.195  11.090
68486W        W33306  18.637  13.826  14.864
68487W        W33307   0.492  27.027   3.700
68488W        W33308  26.919   2.011   3.274
68489W        W33309  36.948  31.409   0.242
68490W        W33310   9.152  28.207  14.115
68491W        W33311  27.419   3.304  13.007
68492W        W33312  14.145  28.435  10.473
68493W        W33313  38.258   1.187  11.311
68494W        W33314  28.958  18.118  11.043
68495W        W33315  37.890  10.923   0.430
68496W        W33316  14.661  41.342  11.292
68497W        W33317  29.815   7.902   3.381
68498W        W33318   4.866  29.358  12.508
68499W        W33319  23.243   3.167  13.882
68500W        W33320  36.729   3.780   0.024
68501W        W33321  36.497  15.301  13.478
68502W        W33322  41.290  21.497   0.868
68503W        W33323  15.081  10.928   3.406
68504W        W33324  39.367  15.137   3.897
68505W        W33325  17.303  38.343   0.953
68506W        W33326   1.374  24.229   0.206
68507W        W33327   6.246   6.829   0.351
68508W        W33328  14.908  15.051  13.356
68509W        W33329   0.312   8.976  13.875
68510W        W33330  28.457   8.833   0.657
68511W        W33331  38.519   1.736  11.969
68512W        W33332  11.589  41.788   1.808
68513W        W33333  25.192  33.067  11.191
68514W        W33334  32.447  19.650   4.513
68515W        W33335  24.730  33.298  11.132
68516W        W33336   3.410  18.322   3.416
68517W        W33337   2.076  20.880   2.332
68518W        W33338  22.714   1.848  12.869
68519W        W33339  16.577  27.056   0.730
68520W        W33340  23.208  13.022   1.008
68521W        W33341  11.673  42.498   3.826
68522W        W33342   4.356  34.137  14.476
68523W        W33343   8.181  24.333  12.974
68524W        W33344  20.511  23.942  10.598
68525W        W33345   4.045  27.831   4.660
68526W        W33346  37.929  25.254  13.333
68527W        W33347  10.288   4.850   3.654
68528W        W33348   2.451  35.936  13.796
68529W        W33349  32.623  36.513   0.272
68530W        W33350  39.076   8.881  11.631
68531W        W33351   8.966  17.328  11.164
68532W        W33352  15.523  38.500   1.719
68533W        W33353   4.335  20.292   4.542
68534W        W33354  38.878  30.624  14.201
68535W        W33355  19.158  24.986  10.917
68536W        W33356  29.729  10.496   4.547
68537W        W33357  27.663  42.049   1.817
68538W        W33358  25.126  40.854  13.076
68539W        W33359  19.978   6.683   4.939
68540W        W33360  33.690  35.827   0.872
68541W        W33361  40.904   1.642  11.531
68542W        W33362  28.099  14.309  12.975
68543W        W33363   0.016  24.963   4.274
68544W        W33364  33.468   5.897  14.827
68545W        W33365  27.519  41.597   5.034
68546W        W33366   3.038  31.536  13.794
68547W        W33367  30.979  18.879  11.565
68548W        W33368  10.897   8.864  11.075
68549W        W33369  11.547  25.527  11.578
68550W        W33370  36.537   7.967   1.234
68551W        W33371  31.533   7.878  14.072
68552W        W33372  24.050  13.029   5.102
68553W        W33373  38.016   8.231   5.513
68554W        W33374  29.196  38.855  12.561
68555W        W33375  35.518  27.284   1.882
68556W        W33376  37.861  10.552   1.777
68557W        W33377  38.375  36.845   0.521
68558W        W33378  11.341  14.176  10.673
68559W        W33379  11.766  38.156   0.647
68560W        W33380  36.637   8.162   3.537
68561W        W33381   7.317  38.213  12.426
68562W        W33382  20.974  26.162  11.978
68563W        W33383  30.587  40.873   1.360
68564W        W33384  12.805  26.326   1.200
68565W        W33385   0.433   6.909  12.494
68566W        W33386   7.113  10.525  13.949
68567W        W33387  11.268   5.197  12.589
68568W        W33388   3.458   9.649   4.021
68569W        W33389  34.563   9.570   1.715
68570W        W33390   6.455  20.602   1.682
68571W        W33391  36.823  25.660   2.862
68572W        W33392  24.485  39.504  14.317
68573W        W33393  22.514  32.746   2.913
68574W        W33394  20.131  18.227  10.679
68575W        W33395  31.522  27.500   1.321
68576W        W33396  44.306   3.176   5.198
68577W        W33397  31.952  30.330  13.965
68578W        W33398  29.212  27.041   1.615
68579W        W33399  35.174   4.555   0.888
68580W        W33400  26.689  33.907   0.330
68581W        W33401   1.335   9.725  11.008
68582W        W33402  40.867  19.195  10.743
68583W        W33403   4.411  33.934   4.155
68584W        W33404  32.004  11.370   4.498
68585W        W33405   7.443  38.807   1.841
68586W        W33406  31.165  37.046   2.905
68587W        W33407  24.529  13.636  13.017
68588W        W33408  16.991  39.988  10.786
68589W        W33409  22.635   7.992   3.274
68590W        W33410  27.032  22.167   0.997
68591W        W33411  11.898  41.654   4.970
68592W        W33412  11.798  31.147   2.775
68593W        W33413  10.312  17.194  12.961
68594W        W33414   7.898   0.233  11.801
68595W        W33415  24.010  34.983   1.748
68596W        W33416  29.420  13.261   1.467
68597W        W33417   2.258  26.096  12.505
68598W        W33418  14.308  12.306  14.960
68599W        W33419  29.948  40.926   0.973
68600W        W33420  12.165  11.255  13.095
68601W        W33421   4.431  18.156  13.116
68602W        W33422   6.264  19.788  13.521
68603W        W33423  27.884   6.384  14.871
68604W        W33424  16.178   4.898  11.842
68605W        W33425   0.787  37.624  13.471
68606W        W33426  24.653  24.689  14.597
68607W        W33427  16.599  17.260   3.718
68608W        W33428  17.603   9.273   9.561
68609W        W33429  42.377  34.476  11.169
68610W        W33430   2.881  43.555   3.704
68611W        W33431  21.550  44.830  14.941
68612W        W33432  19.816  11.828   2.575
68613W        W33433   3.436   5.601  13.191
68614W        W33434   9.874  44.046  13.579
68615W        W33435  20.622  23.020  11.034
68616W        W33436  21.569  36.057  11.835
68617W        W33437   7.386   9.984  13.112
68618W        W33438   8.304  24.741   2.836
68619W        W33439   5.408  23.100   0.263
68620W        W33440   3.277  38.901  12.907
68621W        W33441   6.813  15.648   3.630
68622W        W33442   7.237  34.932   1.389
68623W        W33443  14.865  31.530   3.532
68624W        W33444   2.984  14.655   0.852
68625W        W33445   3.746  20.109   4.201
68626W        W33446  41.559  35.004   0.852
68627W        W33447  43.701  27.580   4.557
68628W        W33448  23.765   9.662  14.890
68629W        W33449   2.669  41.192  12.486
68630W        W33450  29.123  23.266   4.939
68631W        W33451   8.820   4.432   1.608
68632W        W33452  30.587   2.752   0.462
68633W        W33453  43.519   1.711   0.397
68634W        W33454   3.752   6.874  11.003
68635W        W33455  24.122  14.882  12.499
68636W        W33456  21.561  40.048   3.278
68637W        W33457   1.955  43.866   1.900
68638W        W33458  26.032  25.743  13.833
68639W        W33459  32.654  41.528   0.066
68640W        W33460  23.521  19.675  14.958
68641W        W33461  26.161  36.135  13.519
68642W        W33462  24.244  38.856   4.124
68643W        W33463   4.273  40.367  13.584
68644W        W33464  40.770   6.830  12.070
68645W        W33465  35.044  38.020   4.676
68646W        W33466  22.128   3.341   1.156
68647W        W33467  28.594  21.048   0.727
68648W        W33468  44.985  26.381   3.268
68649W        W33469  12.884   1.799   1.352
68650W        W33470  32.041  27.270  11.657
68651W        W33471   9.864   3.434   0.237
68652W        W33472   2.430  10.691  13.908
68653W        W33473  28.190  24.579   1.892
68654W        W33474  44.524  30.328   2.009
68655W        W33475  38.630  25.473  12.375
68656W        W33476   9.911  36.662  12.433
68657W        W33477  14.974  24.595  11.120
68658W        W33478   1.889  18.598   1.762
68659W        W33479  15.231  36.018   0.967
68660W        W33480  18.285  18.094   0.058
68661W        W33481  26.126  18.579  14.980
68662W        W33482   2.270   7.809  11.930
68663W        W33483  32.573  27.211   4.614
68664W        W33484  25.430  27.952   0.897
68665W        W33485  11.250  25.686   3.138
68666W        W33486  16.295  11.064  11.099
68667W        W33487  29.131  10.509   0.479
68668W        W33488  24.166  21.701  13.394
68669W        W33489  35.090  34.505  14.974
68670W        W33490  27.853   0.327  12.616
68671W        W33491  23.547  23.074   2.814
68672W        W33492  29.664  43.336   2.463
68673W        W33493  25.048  28.017  11.873
68674W        W33494  17.262  28.336   2.661
68675W        W33495  28.466   5.277   3.522
68676W        W33496   1.760  39.599  11.740
68677W        W33497  38.529  36.004   0.880
68678W        W33498  31.143  10.547   1.576
68679W        W33499  42.380  11.135   2.271
68680W        W33500   2.738  22.778   1.964
68681W        W33501  29.955  16.697   1.326
68682W        W33502  27.707  41.283  10.431
68683W        W33503  24.498  39.441   2.967
68684W        W33504  11.833  21.046   2.166
68685W        W33505   0.475   0.885  12.938
68686W        W33506  29.442   1.471   0.077
68687W        W33507  24.630   0.178   0.093
68688W        W33508  36.805   3.020   3.165
68689W        W33509  22.002  29.705  11.638
68690W        W33510  11.650  19.806   0.879
68691W        W33511  37.969  44.718  12.291
68692W        W33512   6.270  35.184  13.745
68693W        W33513  21.277  17.591   1.804
68694W        W33514  22.132  19.324  14.925
68695W        W33515  10.841  43.225  11.521
68696W        W33516   9.272  43.982   4.674
68697W        W33517   2.189  23.966  12.160
68698W        W33518   9.266  28.475  10.592
68699W        W33519  16.169  29.509   2.263
68700W        W33520   0.028   3.921  11.224
68701W        W33521  32.631  36.876   1.490
68702W        W33522   7.415  36.390  14.344
68703W        W33523   5.036  23.026   0.752
68704W        W33524   6.166  27.389  14.745
68705W        W33525   3.415   0.932  14.486
68706W        W33526  42.793  25.726  14.922
68707W        W33527  43.219  23.459   1.761
68708W        W33528  40.305  17.698   4.402
68709W        W33529  23.437   5.313   3.332
68710W        W33530  32.877  11.125  14.534
68711W        W33531  30.994   2.503  12.922
68712W        W33532  31.134  21.638  14.684
68713W        W33533   7.245  26.680  12.293
68714W        W33534  44.957  18.062  11.830
68715W        W33535   6.125  15.734  10.532
68716W        W33536  13.133   2.700   2.774
68717W        W33537  38.173  43.054   3.321
68718W        W33538  34.750  10.399  11.941
68719W        W33539  31.903   7.646  11.507
68720W        W33540  14.775  12.437  12.523
68721W        W33541  10.161   1.986  12.468
68722W        W33542  15.320  15.149  13.671
68723W        W33543   4.907  17.741   0.338
68724W        W33544  16.151  21.124  12.189
68725W        W33545  40.959  12.190   0.090
68726W        W33546  43.946   9.243  11.826
68727W        W33547  42.862  43.855   2.638
68728W        W33548  44.960   3.862   4.576
68729W        W33549  30.608  32.309  13.760
68730W        W33550  24.621  43.356   2.291
68731W        W33551  10.137  39.777  13.412
68732W        W33552  33.419  36.287   0.237
68733W        W33553  30.050  28.438   1.830
68734W        W33554  29.664  39.531  10.975
68735W        W33555  17.208  29.354   4.998
68736W        W33556  39.495   1.482   2.310
68737W        W33557  37.596   0.846   0.885
68738W        W33558   8.309  15.322  14.694
68739W        W33559   6.531   0.909   3.204
68740W        W33560   0.899  36.330   0.411
68741W        W33561  25.665  15.262  12.516
68742W        W33562  13.709  14.375  11.966
68743W        W33563  32.962  42.874  14.478
68744W        W33564   5.115  42.555  13.105
68745W        W33565  37.708  39.293  14.742
68746W        W33566  32.112  14.099   1.385
68747W        W33567  35.181  10.382   1.773
68748W        W33568  28.400  30.619   3.289
68749W        W33569  30.942  24.210  12.828
68750W        W33570  16.420  40.306  14.912
68751W        W33571   6.358  13.963   4.600
68752W        W33572  37.678   8.826  12.173
68753W        W33573  17.587  34.498  11.207
68754W        W33574   5.978  18.206  11.596
68755W        W33575  41.835  20.200   3.577
68756W        W33576  27.007  33.083  11.128
68757W        W33577   3.766  27.733  12.660
68758W        W33578   3.558  27.831   9.757
68759W        W33579  10.562  33.086  10.149
68760W        W33580  12.877  35.442  11.577
68761W        W33581   0.709  39.586  12.082
68762W        W33582  10.919  20.641  12.142
68763W        W33583   6.654   3.929   1.870
68764W        W33584  37.142  35.767  14.057
68765W        W33585   7.998  21.548  10.622
68766W        W33586   5.855  42.688  14.776
68767W        W33587   2.856  31.014   2.275
68768W        W33588  26.601  42.097  13.505
68769W        W33589  30.498  12.708  11.853
68770W        W33590  32.798  43.409  10.752
68771W        W33591  25.829  26.605   2.972
68772W        W33592  33.865  28.991  11.118
68773W        W33593  29.398  24.317  13.329
68774W        W33594   6.417   9.273   0.819
68775W        W33595  22.585  44.579  11.191
68776W        W33596  10.057  32.507  10.221
68777W        W33597  22.487  18.220   0.497
68778W        W33598  11.162  11.849  14.263
68779W        W33599  22.287  19.450   9.816
68780W        W33600  30.876  25.166  12.499
68781W        W33601  14.798  20.257   1.492
68782W        W33602   3.317  34.995  10.912
68783W        W33603  35.418  25.663   0.703
68784W        W33604  38.933  31.679  12.543
68785W        W33605   0.492  40.073  10.657
68786W        W33606  28.506  19.440   5.555
68787W        W33607  43.936  11.121   2.745
68788W        W33608  14.814  22.591   4.676
68789W        W33609  29.558  20.425  13.631
68790W        W33610  25.676  17.594   4.982
68791W        W33611   7.643   7.735  13.974
68792W        W33612   1.343  24.730  11.478
68793W        W33613  40.399   1.194   3.589
68794W        W33614  39.024   3.765  10.503
68795W        W33615  24.592  13.541   0.047
68796W        W33616  35.998  44.865  12.436
68797W        W33617   1.009  22.495   3.318
68798W        W33618  19.696  29.142  10.920
68799W        W33619   6.545  29.195   3.507
68800W        W33620  24.157  38.736   5.079
68801W        W33621  29.595  23.612  14.523
68802W        W33622  36.536  22.216   3.220
68803W        W33623  26.202  14.562  12.048
68804W        W33624   4.400  39.246   2.753
68805W        W33625  19.565  23.974  10.904
68806W        W33626  38.676  25.124  14.993
68807W        W33627  33.872  13.251   2.506
68808W        W33628  34.837   2.621   4.231
68809W        W33629  22.673  22.470  11.190
68810W        W33630  35.614  22.859  13.490
68811W        W33631   9.276   8.297  12.891
68812W        W33632  25.200  18.282   0.089
68813W        W33633  19.949  20.019   0.435
68814W        W33634  14.277  20.388  11.090
68815W        W33635  27.027   1.761  11.089
68816W        W33636  14.266  44.295   2.278
68817W        W33637   3.774   6.445  11.288
68818W        W33638  32.274   7.936  10.634
68819W        W33639  14.635  17.587  10.528
68820W        W33640  13.358  42.013  14.276
68821W        W33641  25.637  20.804  12.095
68822W        W33642  18.145   0.171  10.835
68823W        W33643  21.171  42.238   1.253
68824W        W33644  23.426  43.516  14.909
68825W        W33645  26.619  22.621   2.298
68826W        W33646  22.983  42.802   3.316
68827W        W33647  21.763  39.550   3.191
68828W        W33648  13.729   5.695  12.453
68829W        W33649  37.288  24.268  10.993
68830W        W33650  26.894  33.166  13.683
68831W        W33651  14.673   8.559  13.786
68832W        W33652  38.867  38.389   3.816
68833W        W33653   9.743   4.426   2.892
68834W        W33654  42.278   8.815   0.365
68835W        W33655   4.736   8.600  13.924
68836W        W33656  38.584  34.823  11.189
68837W        W33657   3.493  40.109  13.554
68838W        W33658  28.170  10.296   0.600
68839W        W33659  34.992  33.412  13.370
68840W        W33660  23.267   7.835  11.075
68841W        W33661   8.351  11.277  12.495
68842W        W33662  15.661  25.950   3.988
68843W        W33663  38.528  33.668  11.767
68844W        W33664  13.232  28.464   4.039
68845W        W33665  28.512  27.546  14.346
68846W        W33666  32.007  13.706  12.344
68847W        W33667  38.976  13.754  14.925
68848W        W33668   5.428   5.982  13.230
68849W        W33669  30.127  36.665  13.297
68850W        W33670   8.195  35.396  13.765
68851W        W33671  34.948  21.693  14.400
68852W        W33672  27.076  14.784   2.860
68853W        W33673  36.794  40.886  14.474
68854W        W33674  11.715   6.909   0.676
68855W        W33675   9.235   3.832   4.845
68856W        W33676  10.154  11.956  11.486
68857W        W33677  23.986  35.695   3.687
68858W        W33678  15.346   8.089  13.452
68859W        W33679  28.607  26.000  10.734
68860W        W33680  43.439  31.744  10.940
68861W        W33681  29.152  10.255   1.543
68862W        W33682   2.543  16.272   0.763
68863W        W33683   6.970  27.734  13.069
68864W        W33684  20.022  22.500  12.365
68865W        W33685   5.119   8.950  13.925
68866W        W33686  25.048  23.910   4.902
68867W        W33687  29.719  11.089  12.851
68868W        W33688  42.565   9.533   4.226
68869W        W33689   1.804  14.887   1.210
68870W        W33690  41.503  27.121   0.219
68871W        W33691  40.025   4.862   0.258
68872W        W33692  13.571  18.012   1.318
68873W        W33693  10.793  11.591  13.423
68874W        W33694  30.336  28.282   5.008
68875W        W33695  22.524   2.447  13.961
68876W        W33696  37.130  36.077  14.481
68877W        W33697  41.439  25.559   4.186
68878W        W33698  43.794   5.236  13.049
68879W        W33699  40.597  10.579  10.282
68880W        W33700   6.636   4.925  12.815
68881W        W33701   3.876  28.632   4.285
68882W        W33702  36.785   8.134  10.641
68883W        W33703  27.621  12.974  14.504
68884W        W33704  20.175   2.672   4.044
68885W        W33705  27.322   0.020  11.025
68886W        W33706   6.325   6.740  11.958
68887W        W33707  23.573  32.365  13.948
68888W        W33708  30.026  30.533   0.278
68889W        W33709  33.828   2.334   2.434
68890W        W33710  39.701   1.399  10.992
68891W        W33711   4.401   8.249  10.548
68892W        W33712   8.555   6.207   1.790
68893W        W33713  37.781  33.532   1.916
68894W        W33714   0.065  14.818  14.892
68895W        W33715  33.368  38.918   1.543
68896W        W33716  38.406  42.923  11.663
68897W        W33717  27.690  25.322   4.083
68898W        W33718   2.494  24.049   3.597
68899W        W33719   0.248   4.249   1.880
68900W        W33720  42.841  17.560  13.012
68901W        W33721  32.284  43.892   1.889
68902W        W33722   9.213  34.045   4.121
68903W        W33723   2.029  18.725   1.270
68904W        W33724  36.143  22.198   4.526
68905W        W33725  32.170   4.774  14.347
68906W        W33726  32.746  30.067   4.890
68907W        W33727  28.181   5.138  14.363
68908W        W33728  26.146  28.926   4.094
68909W        W33729  20.503  13.110   4.820
68910W        W33730  18.902  28.058  11.949
68911W        W33731  22.914  29.191   0.744
68912W        W33732  16.103  27.439  11.242
68913W        W33733   0.262  16.501  11.309
68914W        W33734  14.562  36.629   5.402
68915W        W33735  29.904   0.533  10.532
68916W        W33736  12.388  38.411  13.214
68917W        W33737  34.593  36.052  11.627
68918W        W33738  39.890  31.858   1.916
68919W        W33739   8.000  43.422   3.198
68920W        W33740  35.560  18.315   2.422
68921W        W33741  11.523  28.132  14.040
68922W        W33742   2.326  29.961   3.609
68923W        W33743   6.347  12.685  13.891
68924W        W33744  38.889  41.091  14.323
68925W        W33745   1.852  38.060   1.087
68926W        W33746  21.514  20.023   3.191
68927W        W33747  14.761  31.721  11.106
68928W        W33748  39.504  13.771   2.656
68929W        W33749  33.234  12.294   3.372
68930W        W33750  24.650  11.080   3.800
68931W        W33751  16.087  22.284  13.894
68932W        W33752  22.103  24.265  13.487
68933W        W33753  38.522  44.394  14.311
68934W        W33754   1.271  16.172   1.362
68935W        W33755  41.922   9.975  10.612
68936W        W33756  29.663  17.737  10.572
68937W        W33757  29.666  26.146  12.048
68938W        W33758  18.097  42.178   2.874
68939W        W33759  32.342  10.463   2.298
68940W        W33760  29.329  17.492  13.455
68941W        W33761  19.633  26.739  10.891
68942W        W33762  11.399   6.458  12.068
68943W        W33763  30.271  34.308  13.329
68944W        W33764  12.076  33.846  11.415
68945W        W33765  24.052  21.943   3.242
68946W        W33766   8.789  35.128  13.014
68947W        W33767  26.404   1.197  12.039
68948W        W33768  37.583   6.346   2.437
68949W        W33769  16.595  34.897  11.027
68950W        W33770  40.179   4.238   0.797
68951W        W33771  20.004  16.606  14.557
68952W        W33772   3.858   7.746   4.622
68953W        W33773  42.334  30.756  11.151
68954W        W33774  14.601  19.497  12.887
68955W        W33775   2.124  13.737  14.977
68956W        W33776   0.471  42.297  11.314
68957W        W33777  14.024  39.560   2.722
68958W        W33778  16.403   6.068   9.926
68959W        W33779   2.604  39.335   2.874
68960W        W33780  33.727  19.143  11.718
68961W        W33781  33.604  31.142   0.712
68962W        W33782   5.028  44.177  13.374
68963W        W33783   5.381  13.889   2.476
68964W        W33784  30.423  42.200  12.055
68965W        W33785  40.309  13.304   1.909
68966W        W33786  22.415  23.256  11.612
68967W        W33787  37.179   9.290   1.918
68968W        W33788  21.995  31.592   1.760
68969W        W33789  33.992  38.985  14.521
68970W        W33790  14.089  36.481   9.761
68971W        W33791  17.222   9.391  12.304
68972W        W33792  33.044  26.543   4.814
68973W        W33793  10.160  20.106   4.184
68974W        W33794   0.992  44.778  14.011
68975W        W33795  20.502   7.169  11.568
68976W        W33796  17.795  15.256   0.859
68977W        W33797  11.770  21.007  14.491
68978W        W33798   5.181   0.730  11.334
68979W        W33799  33.977  35.271  12.006
68980W        W33800  25.455  10.676   1.389
68981W        W33801   3.855  37.557  11.579
68982W        W33802  39.919  39.362  11.936
68983W        W33803  13.375  44.833   0.767
68984W        W33804  11.592  28.734  11.511
68985W        W33805  42.843  29.975   0.260
68986W        W33806  11.902  28.429   4.511
68987W        W33807  18.574  44.873  10.761
68988W        W33808  16.214  22.060  14.376
68989W        W33809   1.272  13.969   0.945
68990W        W33810  10.920  31.275  13.478
68991W        W33811  33.339   0.742   4.645
68992W        W33812  16.740  23.120   1.929
68993W        W33813  21.660  42.614  11.809
68994W        W33814  10.569  32.886  13.840
68995W        W33815   3.175   5.855   2.663
68996W        W33816  22.179  15.162   4.115
68997W        W33817  22.146  27.156   4.081
68998W        W33818  37.176  22.564  10.625
68999W        W33819  40.446  40.931  10.732
69000W        W33820  42.234   9.383  12.941
69001W        W33821  10.647  43.835  12.881
69002W        W33822  31.848  32.100   3.794
69003W        W33823  32.518  39.785   2.685
69004W        W33824  40.818  22.710   4.707
69005W        W33825   9.237   3.937  11.975
69006W        W33826  34.927  17.937   0.844
69007W        W33827  22.547   4.525   3.886
69008W        W33828  13.141  29.783   3.245
69009W        W33829   1.742  26.608  12.858
69010W        W33830  14.576  15.700  11.416
69011W        W33831   9.668  17.688  10.576
69012W        W33832   6.394  40.121   1.421
69013W        W33833  36.627  18.123   1.763
69014W        W33834   5.365  36.082   2.864
69015W        W33835  37.885  31.482  14.196
69016W        W33836  21.053  43.844  13.983
69017W        W33837  39.904  29.989  11.469
69018W        W33838  17.072   9.338   2.831
69019W        W33839   0.221   7.336  11.542
69020W        W33840  33.795  39.015  12.168
69021W        W33841  28.996   5.423   2.690
69022W        W33842  20.954   0.956   4.295
69023W        W33843   1.894  15.971  13.525
69024W        W33844  14.729  37.051   4.529
69025W        W33845  11.176  19.931   4.258
69026W        W33846  12.552  44.352   3.217
69027W        W33847  44.805  22.129   3.131
69028W        W33848  34.614  25.432  14.918
69029W        W33849  25.050  20.227   1.158
69030W        W33850  33.482  26.018  12.656
69031W        W33851   9.331   2.115  12.504
69032W        W33852  26.432   5.375  12.024
69033W        W33853  25.517  21.633  14.006
69034W        W33854  10.348  29.130  12.925
69035W        W33855  11.729  42.401  13.865
69036W        W33856   2.763   5.851  14.288
69037W        W33857   9.162  10.069   4.590
69038W        W33858   7.227  33.916   2.736
69039W        W33859  42.770   6.070   4.505
69040W        W33860  44.444  31.118  13.116
69041W        W33861  41.763  17.290  11.541
69042W        W33862  15.735  42.475  12.916
69043W        W33863   3.247   0.222   4.048
69044W        W33864  37.412  19.826  14.711
69045W        W33865  43.530  42.793   5.048
69046W        W33866  10.696   5.880   2.090
69047W        W33867  17.235   4.619   0.536
69048W        W33868  40.932   3.448  13.450
69049W        W33869  37.548  25.476   0.209
69050W        W33870  19.563   6.830   2.372
69051W        W33871  37.542  34.360  14.829
69052W        W33872  22.479  38.565  10.196
69053W        W33873  36.853  37.377   1.523
69054W        W33874  12.897  44.807  12.466
69055W        W33875  40.872  10.224  14.526
69056W        W33876  35.346  14.128  13.781
69057W        W33877  21.130   1.375  14.529
69058W        W33878  25.089  23.124   1.652
69059W        W33879  24.289  20.780   0.435
69060W        W33880  43.443  17.058  11.425
69061W        W33881   8.314  35.680   1.159
69062W        W33882  28.731   2.543   1.682
69063W        W33883  42.990  37.449   3.245
69064W        W33884   0.487  40.832   1.930
69065W        W33885  32.776  37.862  11.163
69066W        W33886   1.887  18.781  13.114
69067W        W33887  24.583   9.796   3.697
69068W        W33888  34.569   6.871   4.232
69069W        W33889  29.072  19.155   4.020
69070W        W33890   8.175  26.584   3.395
69071W        W33891  41.081  35.930  10.544
69072W        W33892  37.928  30.526  13.308
69073W        W33893  27.667  44.473   2.219
69074W        W33894   5.873   2.539  10.581
69075W        W33895   3.464  29.846   0.505
69076W        W33896  28.719  37.871  14.952
69077W        W33897  25.093  23.459   3.143
69078W        W33898  14.332   7.618  14.903
69079W        W33899  30.247  12.013  13.691
69080W        W33900  42.524  42.259   1.875
69081W        W33901  15.679  28.610  11.742
69082W        W33902  44.010  34.731   4.879
69083W        W33903  10.688  39.418   1.217
69084W        W33904  10.585  40.223   4.993
69085W        W33905  32.583   9.351  10.980
69086W        W33906   6.638  34.033   1.848
69087W        W33907  34.972  18.215   1.868
69088W        W33908  11.278  31.156   4.632
69089W        W33909   7.669  26.446  12.423
69090W        W33910  34.918   0.210  13.996
69091W        W33911  15.840  40.941   1.627
69092W        W33912   7.914   4.315  13.991
69093W        W33913   3.066  28.995  12.938
69094W        W33914   4.366  28.599  13.098
69095W        W33915  41.459  42.422  11.188
69096W        W33916  29.418  42.889   1.780
69097W        W33917  35.951   7.125  12.359
69098W        W33918  41.241  31.451   0.019
69099W        W33919  29.315   6.325  12.543
69100W        W33920   0.756  11.199   1.323
69101W        W33921  18.033  13.485   1.397
69102W        W33922   2.657  18.532  12.013
69103W        W33923  33.035  36.081  13.953
69104W        W33924  16.765  33.656   5.425
69105W        W33925  41.840  26.282  10.662
69106W        W33926   0.368   9.302  12.068
69107W        W33927   2.133   7.201   2.344
69108W        W33928  32.458  27.432   1.706
69109W        W33929  14.679  39.309   3.596
69110W        W33930   3.715   1.288   1.409
69111W        W33931   3.195   7.311   2.650
69112W        W33932   2.185   3.838  12.114
69113W        W33933   6.314  23.672   5.223
69114W        W33934   9.763   6.740  13.794
69115W        W33935  23.432  44.539   2.662
69116W        W33936  15.838  40.737  14.456
69117W        W33937  28.169  28.036   3.175
69118W        W33938  15.530  35.934   3.612
69119W        W33939  25.915   8.902   0.933
69120W        W33940  34.644  36.553   3.829
69121W        W33941  14.160  27.767  13.624
69122W        W33942  40.342  40.798   2.495
69123W        W33943  38.934  35.577  13.414
69124W        W33944  28.122  15.336  11.236
69125W        W33945   0.439   0.999   3.574
69126W        W33946  36.647  39.506  13.840
69127W        W33947   4.759  35.143   4.780
69128W        W33948   4.628  44.408  12.465
69129W        W33949   0.466   3.914  14.189
69130W        W33950  28.684  44.980   0.883
69131W        W33951  13.109  39.281   2.794
69132W        W33952  27.585   3.740   0.300
69133W        W33953  17.079   7.740  13.395
69134W        W33954  17.180  37.040  12.497
69135W        W33955   2.742   9.265  11.326
69136W        W33956  24.070  16.468  11.579
69137W        W33957  25.152  24.702   4.695
69138W        W33958  44.055   5.683  10.727
69139W        W33959  29.548   6.244  14.925
69140W        W33960   6.845   4.929   2.020
69141W        W33961  32.970   3.963   1.469
69142W        W33962  30.658  44.055   4.400
69143W        W33963   4.739  41.029   2.227
69144W        W33964  26.149   2.976  14.409
69145W        W33965  24.623  23.234   1.439
69146W        W33966  44.498  30.658   5.013
69147W        W33967  35.970  32.001  10.924
69148W        W33968  15.066  36.029  13.348
69149W        W33969   7.682  15.547  12.933
69150W        W33970  18.779  17.772  10.841
69151W        W33971  29.888  39.470   3.207
69152W        W33972   4.992  43.070   9.940
69153W        W33973  33.016   5.211   0.956
69154W        W33974  11.992   2.476  13.798
69155W        W33975  34.617  12.350  11.067
69156W        W33976  39.403  28.906  10.521
69157W        W33977  12.305  26.853   3.191
69158W        W33978  16.787  16.143   4.559
69159W        W33979  39.995  22.962  14.819
69160W        W33980   7.212  29.749   3.228
69161W        W33981  23.302  28.744   4.411
69162W        W33982  18.220  14.318  12.017
69163W        W33983  11.724   8.977   1.866
69164W        W33984  35.989  27.407  14.382
69165W        W33985   9.648   2.113   2.677
69166W        W33986   7.828  34.379  10.646
69167W        W33987  26.104  17.290   4.920
69168W        W33988  18.204  38.508   1.207
69169W        W33989  23.525   8.848   0.885
69170W        W33990  33.256  11.102  12.138
69171W        W33991   4.702  15.632  10.003
69172W        W33992  37.542  43.213   2.224
69173W        W33993  36.076  39.080  14.543
69174W        W33994   5.800   4.474   0.855
69175W        W33995  17.675  22.781   3.776
69176W        W33996  27.623  11.643   4.653
69177W        W33997  25.336  44.447   0.035
69178W        W33998  23.237  20.046  12.662
69179W        W33999   5.747   3.373  14.128
69180W        W34000   5.922   2.291  13.296
69181W        W34001   2.444   5.214   5.418
69182W        W34002  40.826  15.249  12.970
69183W        W34003  34.487  16.460  13.440
69184W        W34004  15.083  12.679  13.516
69185W        W34005   6.190  27.204   2.244
69186W        W34006  32.565  37.683  14.420
69187W        W34007  22.476  35.990  11.773
69188W        W34008   6.895  36.857  11.071
69189W        W34009   1.476   2.524  11.068
69190W        W34010  41.454  32.563  14.908
69191W        W34011  43.260   2.026  11.133
69192W        W34012  21.550  42.888   2.254
69193W        W34013  39.049  25.930   2.287
69194W        W34014  14.773  11.830  13.823
69195W        W34015   3.949   2.168  12.461
69196W        W34016  30.242   6.273  12.124
69197W        W34017  23.679  22.247   2.997
69198W        W34018  21.486  29.085   0.688
69199W        W34019   0.020  36.322  14.851
69200W        W34020  29.918  18.760  12.968
69201W        W34021  35.197   1.046   2.175
69202W        W34022  10.166  39.548   4.489
69203W        W34023  31.610   2.904   3.590
69204W        W34024   5.641  41.478   3.911
69205W        W34025  43.550   2.845  10.637
69206W        W34026   3.418  15.726   4.080
69207W        W34027  11.895  40.978  13.895
69208W        W34028  27.435   9.674  10.633
69209W        W34029  11.866  32.982   3.187
69210W        W34030  29.994  12.212   2.623
69211W        W34031  16.092  21.552   2.713
69212W        W34032  40.836  25.673  13.691
69213W        W34033  36.815  37.482   2.875
69214W        W34034  23.454  17.342   3.350
69215W        W34035  10.825  11.258   3.850
69216W        W34036  25.210  14.758  14.841
69217W        W34037  11.764  17.244   3.409
69218W        W34038  19.791  24.016  13.854
69219W        W34039   9.182  17.142  10.724
69220W        W34040  12.555  26.387  11.816
69221W        W34041  35.016  36.321   0.786
69222W        W34042  37.871  32.444   4.542
69223W        W34043  28.447   3.242  11.235
69224W        W34044  23.715  29.078   1.229
69225W        W34045  11.590  29.493   2.847
69226W        W34046   3.044  32.381  12.817
69227W        W34047  19.025   7.111  14.375
69228W        W34048  18.479  10.186   2.393
69229W        W34049  42.637  43.785   1.347
69230W        W34050  18.327  21.097   2.300
69231W        W34051  20.348   9.398   1.735
69232W        W34052  38.133   9.210   3.637
69233W        W34053  13.129  39.902   1.642
69234W        W34054  29.716   7.493   0.296
69235W        W34055  14.797  34.419  10.667
69236W        W34056   9.702   1.598  13.080
69237W        W34057  21.888  22.828   4.345
69238W        W34058  38.555   8.934  12.462
69239W        W34059  16.042  20.874  10.263
69240W        W34060  16.756   1.442   2.145
69241W        W34061  34.753   8.127   1.870
69242W        W34062   1.420  44.213  10.153
69243W        W34063  10.301  21.508   4.688
69244W        W34064   8.126   0.741  11.151
69245W        W34065  28.858  34.082   0.383
69246W        W34066  15.526  21.501   3.773
69247W        W34067  13.839  26.112   3.782
69248W        W34068  21.183   2.814  12.877
69249W        W34069   1.742   5.187  14.978
69250W        W34070   7.306  27.650   1.885
69251W        W34071  44.266  16.167  14.462
69252W        W34072  41.972  32.425  14.848
69253W        W34073  10.100  31.835  12.966
69254W        W34074  31.926   8.455  13.400
69255W        W34075  19.154  24.305  13.404
69256W        W34076  11.293  11.454  12.866
69257W        W34077  20.082  32.089  13.476
69258W        W34078  40.273  18.589   4.215
69259W        W34079  37.325  17.258   9.994
69260W        W34080  39.133  38.732  12.911
69261W        W34081  18.608  23.814   4.697
69262W        W34082   6.698  39.167  14.340
69263W        W34083  26.640  11.835  14.952
69264W        W34084  20.069  36.345  14.016
69265W        W34085   8.886   3.909   1.697
69266W        W34086   9.624  22.276   3.793
69267W        W34087  36.395  14.707   3.686
69268W        W34088  17.597  12.512   2.698
69269W        W34089  26.724  38.468   1.055
69270W        W34090  21.853  24.204  13.003
69271W        W34091  43.856  21.199  11.573
69272W        W34092  30.481  28.739  11.361
69273W        W34093  15.880  39.927   0.022
69274W        W34094   0.218   3.618   1.736
69275W        W34095   3.577  20.269  13.278
69276W        W34096  17.673  22.519  12.356
69277W        W34097  26.638  37.850  13.952
69278W        W34098  43.252  37.589   4.562
69279W        W34099   2.561   2.236  10.679
69280W        W34100  17.884  15.296   3.714
69281W        W34101  27.019   0.790   0.049
69282W        W34102  11.594  43.833   0.815
69283W        W34103  22.427  10.658  13.227
69284W        W34104   3.872  41.534  13.599
69285W        W34105  15.153  31.867  11.974
69286W        W34106  34.886   9.707  12.465
69287W        W34107   0.435  24.623  11.934
69288W        W34108  23.051  13.636  14.361
69289W        W34109  23.018   6.206   4.478
69290W        W34110  42.783   3.431  13.749
69291W        W34111  19.990   4.025   2.375
69292W        W34112  17.181  44.078  14.493
69293W        W34113   6.222  18.328  10.336
69294W        W34114  33.758  15.573  11.861
69295W        W34115  21.646  40.423   1.442
69296W        W34116  17.431  21.273   3.492
69297W        W34117  16.588  10.363  11.558
69298W        W34118  28.025   7.984   3.786
69299W        W34119   5.275  10.861   1.014
69300W        W34120  39.541  31.412  11.207
69301W        W34121  40.618  25.096   1.582
69302W        W34122  20.576  10.352  13.363
69303W        W34123  17.105  19.100   3.517
69304W        W34124  36.151   4.303  14.491
69305W        W34125  12.972  29.536  13.536
69306W        W34126  12.932   7.154   2.282
69307W        W34127   2.224   3.314  12.872
69308W        W34128  16.890   0.973   2.348
69309W        W34129  26.206   0.222  11.641
69310W        W34130  38.408   1.704   2.419
69311W        W34131  19.047  34.669   3.295
69312W        W34132  27.884  35.560  10.715
69313W        W34133  34.585   7.023  12.375
69314W        W34134  11.380  35.583  14.459
69315W        W34135  40.050  12.344   3.688
69316W        W34136  23.128  31.976   2.811
69317W        W34137  39.988   3.640  13.044
69318W        W34138  38.478   5.011   4.142
69319W        W34139   6.408   3.683   2.282
69320W        W34140  42.448   9.579   4.749
69321W        W34141  33.951  41.060   3.725
69322W        W34142  16.239  26.569   1.326
69323W        W34143  24.620  38.326  14.745
69324W        W34144  43.791  41.479   4.415
69325W        W34145  30.649  11.575   1.681
69326W        W34146  14.914  37.779  12.275
69327W        W34147  31.855  28.074   0.942
69328W        W34148  34.206  39.338  12.975
69329W        W34149  10.293  41.093   3.157
69330W        W34150  29.913  35.809   3.111
69331W        W34151  42.808  34.181   2.477
69332W        W34152  22.242   5.869   0.029
69333W        W34153  11.369   8.401   1.334
69334W        W34154  20.847  14.145  11.577
69335W        W34155  19.851  40.472  13.933
69336W        W34156  27.207   6.877  11.707
69337W        W34157  39.631  22.555  10.446
69338W        W34158  34.051  22.181  14.744
69339W        W34159   2.695  26.741  11.926
69340W        W34160  20.145   3.722   0.454
69341W        W34161  10.393   2.940  14.258
69342W        W34162  44.659  42.875  14.918
69343W        W34163  24.535  12.775   0.516
69344W        W34164  12.386  13.318   1.048
69345W        W34165  12.791  21.404   3.322
69346W        W34166  10.103  15.416   1.851
69347W        W34167   6.345  36.137   4.197
69348W        W34168  40.797  42.424   3.781
69349W        W34169  16.006  18.553  14.515
69350W        W34170  14.090  38.326   3.132
69351W        W34171   6.202  13.970   9.910
69352W        W34172  41.801  10.790  14.076
69353W        W34173  19.834  11.126  14.806
69354W        W34174   0.835  41.548  12.508
69355W        W34175  38.577  44.992  11.666
69356W        W34176  29.449   3.558   3.361
69357W        W34177   4.939  37.344   4.491
69358W        W34178  19.134  14.294   1.185
69359W        W34179  30.393  10.056   2.348
69360W        W34180  24.376  31.327  13.827
69361W        W34181   9.975  16.209   1.627
69362W        W34182  28.572  32.554   1.298
69363W        W34183  18.349  44.827   2.755
69364W        W34184  26.052  16.417  13.034
69365W        W34185  33.944   1.860   1.508
69366W        W34186  16.753  39.396  13.233
69367W        W34187  26.174  41.471   1.044
69368W        W34188  33.402  44.361  12.023
69369W        W34189  11.170   6.719  13.469
69370W        W34190  36.341  42.482   4.203
69371W        W34191  18.604  20.173  11.051
69372W        W34192  30.464  29.547   0.711
69373W        W34193  38.525  28.987  11.593
69374W        W34194  42.096  20.293   0.881
69375W        W34195  36.416  43.541  12.754
69376W        W34196  22.644  34.950  10.661
69377W        W34197  30.483   8.189   4.821
69378W        W34198  24.279  31.734  13.123
69379W        W34199   9.395  24.108  13.921
69380W        W34200  21.997   3.871  11.964
69381W        W34201  38.937  11.202   2.652
69382W        W34202   5.292  26.891   0.075
69383W        W34203  11.138  41.584  12.477
69384W        W34204  30.745  34.314  11.133
69385W        W34205  22.661  34.676  13.361
69386W        W34206  23.439  19.305   0.310
69387W        W34207  11.836   8.946  14.031
69388W        W34208  11.242  40.275  10.877
69389W        W34209  15.139  37.153  10.619
69390W        W34210  40.896  30.725  14.738
69391W        W34211  23.021  28.904   3.314
69392W        W34212   0.737  42.803   4.586
69393W        W34213  42.795  44.799   3.055
69394W        W34214  39.219  27.797   4.204
69395W        W34215  26.377  20.704  12.382
69396W        W34216  12.853  43.772   2.319
69397W        W34217  25.239  13.063   3.373
69398W        W34218  29.418  44.533   2.037
69399W        W34219  27.114   7.357   3.243
69400W        W34220  16.601   2.770   2.733
69401W        W34221  26.870  22.149   2.283
69402W        W34222  25.917  25.743   2.841
69403W        W34223  39.922  33.924  10.390
69404W        W34224  40.811  41.306   0.467
69405W        W34225  17.513  12.248  12.507
69406W        W34226  27.988  25.319   2.918
69407W        W34227  35.790   8.793  13.997
69408W        W34228   3.521  38.858  14.857
69409W        W34229  42.610   6.970   2.604
69410W        W34230  38.584  33.004   1.755
69411W        W34231  16.224  39.005   0.717
69412W        W34232   6.451  12.558  12.517
69413W        W34233  16.066   8.078   2.373
69414W        W34234  18.193  27.812  14.347
69415W        W34235  20.447  15.770   4.061
69416W        W34236  41.166  37.963   1.395
69417W        W34237   7.673  29.577   3.506
69418W        W34238  19.842   8.387   0.731
69419W        W34239  19.253  44.464   1.172
69420W        W34240  22.749   9.727  10.242
69421W        W34241  11.914   1.252  13.535
69422W        W34242  24.128  25.742   4.888
69423W        W34243  43.989   1.421  10.588
69424W        W34244  44.972   9.555  11.557
69425W        W34245  42.021   8.418  12.026
69426W        W34246   7.620  28.855  12.453
69427W        W34247   2.430   2.048   0.405
69428W        W34248   3.716  14.774   4.328
69429W        W34249  38.432   8.709   5.009
69430W        W34250  10.294  36.905   3.237
69431W        W34251  44.457  30.910  12.631
69432W        W34252  26.543  16.133   3.726
69433W        W34253  38.354  35.053   3.720
69434W        W34254  21.046  34.190  11.282
69435W        W34255  14.296   2.429   3.187
69436W        W34256  32.036  31.713   2.888
69437W        W34257  13.118  24.224   3.875
69438W        W34258   3.335  11.418   1.476
69439W        W34259  29.755  38.788  11.545
69440W        W34260  12.227  44.820   3.179
69441W        W34261  19.929  36.970   3.869
69442W        W34262  37.234  15.192  14.943
69443W        W34263  31.775  30.611   3.767
69444W        W34264  26.537   6.339   1.463
69445W        W34265  17.547  36.712   4.060
69446W        W34266   1.491  35.614  13.752
69447W        W34267  35.985  13.371  14.460
69448W        W34268  14.396  17.547   2.227
69449W        W34269  17.681   3.245  14.402
69450W        W34270  20.508  19.686   2.855
69451W        W34271  11.134  22.580   1.421
69452W        W34272  18.538  19.190   4.199
69453W        W34273  26.613  11.655  12.546
69454W        W34274   4.243  29.398   4.573
69455W        W34275  21.186  31.924  12.575
69456W        W34276  17.778  17.726  14.475
69457W        W34277  35.385  35.434   3.247
69458W        W34278  39.402  12.137   0.358
69459W        W34279  25.328  19.613   3.640
69460W        W34280   4.564  42.979   3.214
69461W        W34281  25.025  40.061   1.717
69462W        W34282  24.228  43.752   2.237
69463W        W34283   1.860   2.345  14.760
69464W        W34284  34.178  26.920  11.110
69465W        W34285  11.348  43.407  11.188
69466W        W34286  37.854   8.303  11.053
69467W        W34287  21.557  29.590   4.195
69468W        W34288  25.558  41.335  11.142
69469W        W34289   1.736  14.600   3.669
69470W        W34290  14.300  11.637   1.602
69471W        W34291  36.415  23.779   5.036
69472W        W34292  37.889  20.001   4.646
69473W        W34293  23.642  39.881  13.885
69474W        W34294  41.902  20.975   2.305
69475W        W34295  41.851   2.452  13.547
69476W        W34296  34.329   8.613  10.430
69477W        W34297  12.064  44.937  12.823
69478W        W34298  32.501  44.029   4.662
69479W        W34299   8.073  41.152   0.431
69480W        W34300   0.382   8.157  11.233
69481W        W34301   7.620  41.880  14.347
69482W        W34302  42.355  17.369  14.071
69483W        W34303  17.271  21.188   3.971
69484W        W34304  34.864  18.516   2.807
69485W        W34305  20.001  10.735  10.836
69486W        W34306  24.119  13.605  14.308
69487W        W34307  22.316  10.473   4.733
69488W        W34308  20.601  15.689  11.519
69489W        W34309   5.883  28.535   1.176
69490W        W34310  11.326  11.855   1.795
69491W        W34311  16.670   7.373   2.211
69492W        W34312  24.623  34.545  12.976
69493W        W34313  17.629  41.125   5.122
69494W        W34314   1.324  44.502  11.601
69495W        W34315  18.170  11.694  12.877
69496W        W34316   1.703  37.980   4.208
69497W        W34317  23.181  40.797  10.966
69498W        W34318  35.585  31.141   0.900
69499W        W34319  21.424  43.485  11.084
69500W        W34320  42.294  18.216  11.749
69501W        W34321   9.178  31.620   1.768
69502W        W34322   7.925  34.635  12.858
69503W        W34323  16.911   4.873  12.612
69504W        W34324   4.083  21.595   1.263
69505W        W34325  27.156  37.605  10.479
69506W        W34326  34.593  19.850   2.791
69507W        W34327  36.196  12.466  13.393
69508W        W34328   0.824  17.767   4.184
69509W        W34329  14.738  25.016   2.200
69510W        W34330   9.342  27.023  11.937
69511W        W34331  30.016  44.283  11.850
69512W        W34332  20.388  22.747   4.583
69513W        W34333  13.821  26.636   2.508
69514W        W34334   9.118   1.438  11.941
69515W        W34335   9.217  33.920   0.778
69516W        W34336   0.406  33.579   1.252
69517W        W34337   3.444  26.424  12.241
69518W        W34338  43.856  10.782   4.886
69519W        W34339  44.023   1.932  10.668
69520W        W34340  32.462  31.378   1.917
69521W        W34341  36.102   7.423  11.648
69522W        W34342  37.928  29.486  13.145
69523W        W34343  24.175  32.852  14.785
69524W        W34344   4.863  17.759   3.711
69525W        W34345  19.231  22.824   3.688
69526W        W34346  27.723  25.639  14.481
69527W        W34347   2.182   5.386  10.766
69528W        W34348  11.383  40.091  11.916
69529W        W34349  23.355  30.556   1.744
69530W        W34350  11.549  14.191  12.547
69531W        W34351   3.682   7.368  11.305
69532W        W34352  22.354  13.148  13.586
69533W        W34353  31.449  44.004   4.089
69534W        W34354  44.363  17.977   4.124
69535W        W34355  12.625  31.027   0.852
69536W        W34356  25.528  12.606   2.791
69537W        W34357  29.725  16.292   2.301
69538W        W34358  16.341  10.983  13.009
69539W        W34359  19.109  40.648   2.682
69540W        W34360  44.798  34.037  12.509
69541W        W34361  42.287   4.776   0.253
69542W        W34362  17.824  30.062   4.531
69543W        W34363  38.097   7.571   1.205
69544W        W34364  21.852  37.044  13.561
69545W        W34365  13.128  42.809  10.950
69546W        W34366   0.220   9.831   0.903
69547W        W34367  41.926   4.659   2.356
69548W        W34368  29.203  40.900  14.209
69549W        W34369   9.666  43.702  14.918
69550W        W34370  11.711  43.872   1.726
69551W        W34371   4.033  10.707   0.209
69552W        W34372  33.859   4.279  10.634
69553W        W34373  44.470  41.457  12.714
69554W        W34374  41.284  14.036  14.849
69555W        W34375  27.770   5.149  13.549
69556W        W34376  42.352  32.824   0.861
69557W        W34377  29.067  15.396  11.097
69558W        W34378  30.880  14.786   4.071
69559W        W34379  27.372  20.526   4.766
69560W        W34380  30.951  13.157   4.551
69561W        W34381  36.416  35.586  13.559
69562W        W34382  18.732  40.852  11.489
69563W        W34383  22.117  18.132  12.930
69564W        W34384  32.384  12.460   3.274
69565W        W34385  37.948   2.716  11.538
69566W        W34386  33.754   5.442  12.914
69567W        W34387  20.001  11.103  12.480
69568W        W34388  13.425   5.294   0.355
69569W        W34389  14.786  26.982  11.360
69570W        W34390  34.068  35.684  14.743
69571W        W34391  11.292  18.679  14.779
69572W        W34392  11.012  13.609  11.979
69573W        W34393  40.657   8.803  12.050
69574W        W34394  35.512  19.536  13.045
69575W        W34395  25.587  41.915   2.625
69576W        W34396   5.362  35.913  11.966
69577W        W34397   2.725  37.328  12.455
69578W        W34398  12.913  38.264   2.436
69579W        W34399   7.975  28.657   3.997
69580W        W34400   5.456   6.097  12.559
69581W        W34401  41.247  24.917  11.335
69582W        W34402   3.343  43.049  14.400
69583W        W34403  25.028   9.909  14.530
69584W        W34404  36.304   3.235   1.417
69585W        W34405  32.563  34.271  12.607
69586W        W34406  16.362   6.672   2.378
69587W        W34407  25.545   0.353   0.041
69588W        W34408  16.313   9.147  14.464
69589W        W34409  34.209  26.996   2.175
69590W        W34410  38.630   8.980   3.691
69591W        W34411  15.102  28.216   0.360
69592W        W34412  20.848  24.031  13.838
69593W        W34413   0.377   4.956  12.935
69594W        W34414  29.913  35.332  10.402
69595W        W34415   9.734  10.089   4.123
69596W        W34416  41.984   2.240  12.396
69597W        W34417  29.936  29.816  14.488
69598W        W34418   3.657  36.609   4.195
69599W        W34419  35.371  25.166   0.496
69600W        W34420  25.498   0.215   1.543
69601W        W34421  29.421  15.508  13.981
69602W        W34422  23.532   1.068   0.307
69603W        W34423  11.916  21.854   0.913
69604W        W34424  16.748   2.313  14.434
69605W        W34425  36.843   5.008  10.731
69606W        W34426  16.556  28.931  12.575
69607W        W34427  15.342  41.695  13.869
69608W        W34428  15.623  36.546  11.871
69609W        W34429   8.835  42.080   1.367
69610W        W34430   8.315  17.804   1.988
69611W        W34431   6.768  10.727  13.606
69612W        W34432  18.407  41.030  14.310
69613W        W34433  17.707  32.006   3.756
69614W        W34434  34.533  12.837   0.915
69615W        W34435  43.781   0.121   1.709
69616W        W34436  20.264  36.639  14.821
69617W        W34437   0.016  23.978  13.034
69618W        W34438  44.674  25.075   2.934
69619W        W34439   7.057  32.399  12.903
69620W        W34440  33.901  11.430  14.410
69621W        W34441  12.387   2.982   2.215
69622W        W34442  16.081  25.591  14.449
69623W        W34443   2.725   8.666   2.318
69624W        W34444  10.745  16.147  12.498
69625W        W34445  36.440  26.950  10.991
69626W        W34446  33.535   8.897  14.321
69627W        W34447  33.925  28.077  14.223
69628W        W34448  37.301  39.130  11.293
69629W        W34449  37.305  10.612  12.952
69630W        W34450  18.008  43.801   2.854
69631W        W34451  21.707  16.637   0.951
69632W        W34452   0.472  33.150  14.848
69633W        W34453  23.204  12.816   4.170
69634W        W34454  25.002  39.564  13.417
69635W        W34455  35.811  39.514   3.630
69636W        W34456  42.869   9.207   5.085
69637W        W34457  22.948  18.641  13.066
69638W        W34458  27.159  36.649   2.765
69639W        W34459   5.645  34.064   0.201
69640W        W34460  11.734  39.587   4.063
69641W        W34461   4.564  36.125   4.969
69642W        W34462  27.818  28.644   3.343
69643W        W34463  17.969   4.984   1.856
69644W        W34464   9.717   8.325  13.139
69645W        W34465  22.182  35.978   1.407
69646W        W34466   9.462   2.050  13.014
69647W        W34467  44.991  10.246   1.816
69648W        W34468  41.975  13.814  13.720
69649W        W34469  16.839  17.604   4.977
69650W        W34470  28.692   2.942   4.668
69651W        W34471  39.540   4.956  13.786
69652W        W34472   8.317  10.681   4.338
69653W        W34473   6.861   4.421  14.527
69654W        W34474  40.768  31.161  12.434
69655W        W34475  10.120  31.630   3.187
69656W        W34476  41.155  43.828  10.721
69657W        W34477  13.090  23.719  14.418
69658W        W34478  34.407  35.912   2.757
69659W        W34479  43.441   1.075   4.590
69660W        W34480   6.237  40.470   1.832
69661W        W34481   3.267  10.488   4.056
69662W        W34482  34.785  19.568  11.411
69663W        W34483  18.279  35.113   1.334
69664W        W34484  24.147   5.742   4.606
69665W        W34485   9.212   8.172  11.425
69666W        W34486  36.150  28.380  14.442
69667W        W34487  13.893  21.802  10.936
69668W        W34488  42.441   3.641   0.857
69669W        W34489  13.635  25.620   3.688
69670W        W34490   0.336   4.699  12.489
69671W        W34491   8.216  26.241  13.071
69672W        W34492  17.304  14.734   0.387
69673W        W34493  38.871  22.641  13.468
69674W        W34494  28.151  43.962  14.899
69675W        W34495  16.947  42.585  11.770
69676W        W34496  25.416  22.810   3.770
69677W        W34497  28.463  43.832  13.954
69678W        W34498   5.494  11.932  13.339
69679W        W34499  42.559  11.704   2.691
69680W        W34500   8.012  43.832   3.555
69681W        W34501  37.446  20.057  11.949
69682W        W34502  28.165  25.792   2.821
69683W        W34503  15.015   3.809   3.194
69684W        W34504  34.920  33.623  13.838
69685W        W34505  40.864  20.226   1.840
69686W        W34506  33.813  22.633  13.952
69687W        W34507  22.246  14.270   1.785
69688W        W34508  43.039   4.236   3.321
69689W        W34509   9.476  27.213   0.835
69690W        W34510  23.885  33.712   5.062
69691W        W34511  31.528  18.611   1.131
69692W        W34512  25.028   1.152   3.289
69693W        W34513  30.552  16.666  10.693
69694W        W34514  25.298   3.318   3.709
69695W        W34515   3.835  18.372   1.843
69696W        W34516  24.275   9.238   1.257
69697W        W34517  10.667  22.607  13.089
69698W        W34518  28.902  43.174  13.757
69699W        W34519  36.408  28.160   4.702
69700W        W34520  18.350   6.851   1.798
69701W        W34521  26.121  22.547  11.100
69702W        W34522   9.984  27.977   3.604
69703W        W34523  44.230  40.825  11.918
69704W        W34524   2.959  18.152   2.256
69705W        W34525  23.181  14.310   1.720
69706W        W34526   2.478  13.817  12.483
69707W        W34527   6.526  32.080  10.773
69708W        W34528  17.836   5.471  14.667
69709W        W34529  11.339  20.185   2.071
69710W        W34530  42.778  25.062   1.800
69711W        W34531   3.981  21.715  11.701
69712W        W34532  13.700   0.688   3.264
69713W        W34533  36.462  14.857   2.317
69714W        W34534  15.815  36.295   2.340
69715W        W34535  37.013   1.055  14.418
69716W        W34536  21.136  19.345   4.744
69717W        W34537  42.286  16.142  12.070
69718W        W34538  15.732   9.133  12.969
69719W        W34539  44.506  32.049  10.226
69720W        W34540  36.019  15.097  13.512
69721W        W34541  35.145  33.663  10.261
69722W        W34542  33.354  10.336  13.450
69723W        W34543  16.117  20.833  11.109
69724W        W34544  13.274  13.156   1.375
69725W        W34545  29.632   3.604  14.986
69726W        W34546  37.676  32.668   1.805
69727W        W34547  22.635   9.793   0.662
69728W        W34548  39.779  17.722  14.688
69729W        W34549  41.541  28.102  10.771
69730W        W34550  27.019  44.545   2.680
69731W        W34551  41.738  27.075  14.360
69732W        W34552  37.086   4.528   2.728
69733W        W34553  20.847  24.037  12.947
69734W        W34554  40.898  30.508   0.499
69735W        W34555  21.164  24.176   1.772
69736W        W34556  42.336   7.382  11.022
69737W        W34557  34.491  16.769  12.983
69738W        W34558  28.108  36.035  14.442
69739W        W34559   6.232  11.213   3.271
69740W        W34560  20.558   2.236   2.888
69741W        W34561  29.422  21.712   2.719
69742W        W34562  42.844  19.021  12.558
69743W        W34563  39.397  42.805  12.520
69744W        W34564   2.839   7.681  13.985
69745W        W34565  26.769   6.630  13.577
69746W        W34566   2.672  37.983  14.453
69747W        W34567  31.596  14.064   2.300
69748W        W34568   9.861  41.777  14.359
69749W        W34569   1.287  12.533  11.640
69750W        W34570  15.230  40.004   2.975
69751W        W34571  18.354  27.579   4.306
69752W        W34572  13.651  35.151   0.699
69753W        W34573  29.066  20.822   0.744
69754W        W34574  34.483  24.012   1.046
69755W        W34575  20.558  37.769  14.425
69756W        W34576  11.204  25.435   1.541
69757W        W34577  14.972  28.797  10.655
69758W        W34578  34.449   1.906   0.860
69759W        W34579  22.102  23.762   4.608
69760W        W34580  27.595  27.996   4.572
69761W        W34581  36.385  32.610  11.818
69762W        W34582  30.044  13.526  12.481
69763W        W34583   9.307   3.193   3.893
69764W        W34584  21.709   0.930  10.668
69765W        W34585   1.896  14.747   1.716
69766W        W34586  28.595  39.037   1.412
69767W        W34587  37.873  13.887   4.759
69768W        W34588   6.291  35.093  13.014
69769W        W34589  38.385  19.068   3.588
69770W        W34590   4.004  17.214  11.494
69771W        W34591  17.251  34.244   0.967
69772W        W34592  30.057   2.394  11.057
69773W        W34593  43.092  15.681  12.170
69774W        W34594  35.489  14.739   0.449
69775W        W34595  41.043  31.506   0.480
69776W        W34596  38.054  20.446   1.760
69777W        W34597  22.410  17.164  10.851
69778W        W34598  24.049  36.296  14.934
69779W        W34599  16.531  41.839  11.131
69780W        W34600  31.700  32.962  14.973
69781W        W34601  30.526   4.933   1.305
69782W        W34602   9.170  23.641  13.847
69783W        W34603   4.941  39.414   4.556
69784W        W34604   8.040  16.131   3.652
69785W        W34605  27.918  24.130   1.955
69786W        W34606  28.176  42.332  14.478
69787W        W34607   0.352   8.929   1.679
69788W        W34608  11.842  22.847  14.864
69789W        W34609   7.642   4.763  13.887
69790W        W34610   1.350  14.544  10.633
69791W        W34611  37.554   7.973   4.666
69792W        W34612  28.738  19.811   1.314
69793W        W34613  34.258  12.288   5.142
69794W        W34614  23.832  20.910  10.267
69795W        W34615  20.305  23.507  13.297
69796W        W34616  15.228   8.960  11.657
69797W        W34617  14.330  19.703  14.557
69798W        W34618  18.679   4.582  13.873
69799W        W34619  36.489  35.468  10.480
69800W        W34620  20.059   4.448   0.949
69801W        W34621  41.077  37.606   3.311
69802W        W34622  28.913  24.651   0.324
69803W        W34623  14.172  26.585   4.211
69804W        W34624  42.948  15.205   0.829
69805W        W34625  26.647  13.442  11.385
69806W        W34626   0.791  10.935   4.112
69807W        W34627  41.504   0.325   4.613
69808W        W34628  31.572  41.601  14.520
69809W        W34629  26.725  21.797   0.397
69810W        W34630  12.116  30.216  12.902
69811W        W34631   9.365   7.061  12.840
69812W        W34632  27.068  44.697   4.737
69813W        W34633   7.627  40.936  10.752
69814W        W34634  40.147   7.587  14.842
69815W        W34635   1.008  26.150   1.218
69816W        W34636  19.074   1.699   3.651
69817W        W34637   3.454  18.895   4.258
69818W        W34638   4.224   4.003   1.775
69819W        W34639  36.640  31.170   3.485
69820W        W34640  14.299  22.099  10.639
69821W        W34641   0.105  26.857  13.934
69822W        W34642  23.240  18.535  11.736
69823W        W34643   7.295  30.393   2.758
69824W        W34644  27.005   4.196   2.391
69825W        W34645   6.194  25.184   0.345
69826W        W34646  39.072  35.093  13.382
69827W        W34647  10.068  29.392   3.663
69828W        W34648  14.905  39.611  12.468
69829W        W34649  29.794  26.566   4.079
69830W        W34650  25.548   8.250   4.096
69831W        W34651  40.561   9.794  11.119
69832W        W34652   8.468   8.542  13.470
69833W        W34653  18.622  41.564   0.379
69834W        W34654  12.285  25.163  10.931
69835W        W34655  24.902   6.878   0.432
69836W        W34656  20.080  15.593   4.718
69837W        W34657  25.568  12.173  10.645
69838W        W34658   4.613   7.524   0.675
69839W        W34659   4.715  16.513  11.071
69840W        W34660   9.203  36.474   4.047
69841W        W34661  17.919   0.008   3.586
69842W        W34662   4.898   8.457  14.437
69843W        W34663  37.588   1.532   4.148
69844W        W34664  19.761   1.756  12.488
69845W        W34665  21.956  19.670   0.744
69846W        W34666   1.207  25.645  10.898
69847W        W34667  38.844  24.741  11.620
69848W        W34668  41.565  42.550   1.890
69849W        W34669  18.155  33.446  10.731
69850W        W34670  20.631  37.524   1.781
69851W        W34671  23.098  29.691   3.172
69852W        W34672  11.739  33.679  13.323
69853W        W34673  20.253  37.419  13.890
69854W        W34674  29.133   3.178   4.646
69855W        W34675   6.867  32.298   4.630
69856W        W34676   8.147  34.284  11.660
69857W        W34677  44.945  10.601   3.880
69858W        W34678  25.135   0.501  12.100
69859W        W34679  41.558  36.579   2.641
69860W        W34680  34.967  38.067  14.665
69861W        W34681  30.427  11.496  13.834
69862W        W34682   9.254  20.725  11.977
69863W        W34683  14.699   8.923  12.868
69864W        W34684   3.028  38.920   1.162
69865W        W34685  10.902   0.167   4.104
69866W        W34686  10.444  19.152   2.298
69867W        W34687  33.664  34.874  12.157
69868W        W34688  27.579   7.695  13.668
69869W        W34689  14.129  36.854  12.442
69870W        W34690  10.513  22.174  12.156
69871W        W34691  23.347  25.421   1.949
69872W        W34692  41.599   2.171   0.275
69873W        W34693  22.086  12.711   0.912
69874W        W34694  24.078  24.487   0.376
69875W        W34695  37.382  22.352  14.052
69876W        W34696  36.430  10.813   0.930
69877W        W34697  44.841   8.875   1.909
69878W        W34698  24.208   0.750   3.118
69879W        W34699  12.636   5.105   3.300
69880W        W34700   8.014  31.404  12.512
69881W        W34701  28.893   8.433   1.896
69882W        W34702   4.791  17.984  11.147
69883W        W34703  16.614  44.429   1.757
69884W        W34704  16.563  39.012  11.512
69885W        W34705  20.252   7.594  11.797
69886W        W34706  35.465  10.787   9.787
69887W        W34707  34.699  21.246   2.783
69888W        W34708  26.221  11.791   2.734
69889W        W34709   2.710  37.063  13.116
69890W        W34710   5.879   2.049   4.064
69891W        W34711  16.425  30.599  14.527
69892W        W34712  29.508  32.281   4.657
69893W        W34713  31.954   5.424  14.392
69894W        W34714  31.647   2.014   4.223
69895W        W34715  27.013   8.951  12.044
69896W        W34716  15.870  39.310  12.004
69897W        W34717  37.082  36.738  11.295
69898W        W34718  32.905  40.545  10.739
69899W        W34719  37.401  23.153   4.218
69900W        W34720  14.278  26.433   3.728
69901W        W34721  10.948  31.653   1.938
69902W        W34722  42.541  36.788  11.090
69903W        W34723   6.769  11.206  12.959
69904W        W34724  43.694  21.609  12.927
69905W        W34725  34.071  37.782   4.990
69906W        W34726  14.686  40.833  12.096
69907W        W34727  10.114   4.360  13.433
69908W        W34728  28.139  20.183   4.971
69909W        W34729  42.058  40.288  11.159
69910W        W34730  29.152  17.775   0.861
69911W        W34731  27.139  21.196  11.574
69912W        W34732   8.822   4.937   0.399
69913W        W34733  39.532  16.125  11.282
69914W        W34734  11.658  32.554   3.740
69915W        W34735  14.756  33.728   0.680
69916W        W34736  25.584  41.285  11.662
69917W        W34737  16.556  18.615  11.180
69918W        W34738   7.211  40.060  14.367
69919W        W34739  35.939   3.603   5.145
69920W        W34740  29.683  16.309  12.903
69921W        W34741  10.700   5.202   3.486
69922W        W34742  40.954   9.857   1.914
69923W        W34743  28.867  35.881   5.646
69924W        W34744   4.487   2.781   4.233
69925W        W34745  44.787   8.138  12.495
69926W        W34746  36.371  17.068  12.110
69927W        W34747   4.746   5.780   0.787
69928W        W34748   1.426  33.398  13.420
69929W        W34749  17.168  21.954  10.766
69930W        W34750  38.383   7.639   0.288
69931W        W34751  41.883  40.752   4.404
69932W        W34752  20.022  15.444  12.601
69933W        W34753  24.041  16.085  12.487
69934W        W34754  30.735  21.039   3.752
69935W        W34755  31.600  23.145   5.133
69936W        W34756  37.453   2.521   2.390
69937W        W34757   0.239  44.085  12.434
69938W        W34758  27.103   4.933  12.187
69939W        W34759  18.277  31.553  11.031
69940W        W34760  36.530  33.488  10.518
69941W        W34761  28.885  20.114  14.040
69942W        W34762  17.505  10.454  13.570
69943W        W34763  31.585  14.119   4.505
69944W        W34764   4.755  31.735  13.427
69945W        W34765  41.509  11.131   1.939
69946W        W34766   3.252   0.539   0.712
69947W        W34767  23.173  28.504  12.682
69948W        W34768  42.011  31.113  13.134
69949W        W34769  27.273   4.653  13.047
69950W        W34770   8.437  33.572  13.616
69951W        W34771   9.939  24.996   2.710
69952W        W34772   7.074  23.540   1.712
69953W        W34773  24.871  29.267   2.935
69954W        W34774   9.432  24.741  14.617
69955W        W34775  31.326  35.114   3.167
69956W        W34776  17.268  44.727  13.416
69957W        W34777   8.435  27.136  10.915
69958W        W34778   7.385  13.087  11.549
69959W        W34779  40.303   2.362  10.796
69960W        W34780  27.549  30.647  13.375
69961W        W34781   5.920  31.524  11.683
69962W        W34782   4.873  11.845  11.618
69963W        W34783  15.697   4.177  11.830
69964W        W34784  20.573  10.707   3.240
69965W        W34785   0.205   2.274   3.213
69966W        W34786   0.796  43.826   4.425
69967W        W34787  29.251  13.021   3.133
69968W        W34788  25.108  18.008  12.965
69969W        W34789  27.943  20.338   1.746
69970W        W34790   9.621  33.940   2.852
69971W        W34791   9.167  27.213  12.377
69972W        W34792  42.409  31.207   1.804
69973W        W34793  31.298  12.381  11.639
69974W        W34794  10.592  12.867   5.068
69975W        W34795  30.402  44.350  14.465
69976W        W34796  23.980  39.330  13.001
69977W        W34797  43.310  30.037   2.527
69978W        W34798  28.903  17.371  13.790
69979W        W34799  11.158  11.059   0.519
69980W        W34800  22.051  39.308   3.548
69981W        W34801  35.154   7.990   2.349
69982W        W34802  28.269   6.844   1.313
69983W        W34803  28.613  30.501  14.016
69984W        W34804  43.473  32.049  12.194
69985W        W34805  23.909  35.498  14.911
69986W        W34806  22.463   0.828   1.477
69987W        W34807   6.199   3.174  11.499
69988W        W34808  25.971   6.953   3.176
69989W        W34809  14.515  36.191   9.888
69990W        W34810  34.922  41.998  11.856
69991W        W34811  22.377  23.912   3.645
69992W        W34812   9.671   8.837   0.381
69993W        W34813   6.367  36.779   1.570
69994W        W34814  40.942  38.581  13.406
69995W        W34815  24.282  40.038  14.385
69996W        W34816  19.546  21.773  12.370
69997W        W34817   9.599  37.005  13.448
69998W        W34818  38.075  39.316  11.318
69999W        W34819  27.453  26.501  10.622
70000W        W34820  35.911  34.607  13.003
70001W        W34821  35.617  25.041   4.719
70002W        W34822  15.412  32.425   3.688
70003W        W34823   6.088   0.888  11.251
70004W        W34824  42.721   0.298  10.745
70005W        W34825  12.186  36.025  14.498
70006W        W34826  24.700  42.968   1.965
70007W        W34827  11.188   8.173  12.092
70008W        W34828  12.140  21.073  13.906
70009W        W34829  11.013  28.783   2.814
70010W        W34830  34.920  10.435   3.462
70011W        W34831  38.870  36.502  11.409
70012W        W34832  22.114  14.276   0.012
70013W        W34833  28.124   2.185   3.033
70014W        W34834  42.453  30.953   2.861
70015W        W34835   2.455  22.146  13.769
70016W        W34836  11.114  33.304  10.696
70017W        W34837  40.694  40.757  14.056
70018W        W34838  21.581   7.261   4.488
70019W        W34839   0.918  23.493  13.111
70020W        W34840  34.863   7.362   1.271
70021W        W34841  44.570  38.314  12.965
70022W        W34842  33.656  34.413   2.313
70023W        W34843  32.892  31.101  13.314
70024W        W34844   4.804  39.042  14.774
70025W        W34845   2.344  32.966   0.609
70026W        W34846  12.521  25.495   1.865
70027W        W34847   4.205  27.390   1.404
70028W        W34848  41.233  15.653   1.682
70029W        W34849  31.459  28.546   1.252
70030W        W34850  25.604  40.856  11.334
70031W        W34851  41.400  43.221   3.314
70032W        W34852  20.077   2.291   1.613
70033W        W34853   5.506   5.912   4.819
70034W        W34854  28.821  12.651  13.521
70035W        W34855  32.503  28.395   4.227
70036W        W34856  18.742  28.574   4.743
70037W        W34857  24.218   1.352   2.859
70038W        W34858   6.192  38.964  12.041
70039W        W34859  22.013   2.205   3.549
70040W        W34860  18.904  31.862   1.935
70041W        W34861  37.186  24.352   1.184
70042W        W34862   1.974  13.649  13.364
70043W        W34863  35.431  17.833   0.864
70044W        W34864  38.875  40.507   3.627
70045W        W34865  20.690   6.344   4.727
70046W        W34866  16.770   4.140   3.185
70047W        W34867  21.526  27.594  13.483
70048W        W34868  20.200   9.364  12.953
70049W        W34869   3.838  37.504   2.172
70050W        W34870  41.477  18.928  10.824
70051W        W34871  38.805  30.383   1.166
70052W        W34872  20.121  28.695  12.373
70053W        W34873   2.880   3.748  11.830
70054W        W34874  20.034  15.024   3.260
70055W        W34875  22.308  44.955  12.046
70056W        W34876  27.992  44.928   1.409
70057W        W34877  25.679  10.630  13.827
70058W        W34878   4.732  25.290   3.225
70059W        W34879  29.349   5.479   3.570
70060W        W34880  42.372  17.302  13.058
70061W        W34881  24.674  33.455  12.360
70062W        W34882  35.064  29.074   1.650
70063W        W34883   3.785  15.601  10.180
70064W        W34884  26.554   2.196   1.784
70065W        W34885   6.155   1.766   2.198
70066W        W34886  20.108   0.402  14.701
70067W        W34887  29.783  10.101   3.544
70068W        W34888  42.794  28.256   3.242
70069W        W34889  19.568  14.641   4.569
70070W        W34890   2.336  19.873  14.960
70071W        W34891   3.666  32.541   1.526
70072W        W34892  25.966   9.271   3.575
70073W        W34893  43.472  12.845  10.889
70074W        W34894  30.361   7.294  13.471
70075W        W34895  31.945   5.131   4.911
70076W        W34896  42.324  26.123  14.057
70077W        W34897  15.207  18.650  11.958
70078W        W34898  20.518  10.811  11.609
70079W        W34899  15.569  15.805  14.149
70080W        W34900   7.692  18.126   0.470
70081W        W34901  43.383  30.130  12.805
70082W        W34902  34.116  35.806   3.185
70083W        W34903  32.441  15.768  13.472
70084W        W34904  41.962  30.079  10.841
70085W        W34905   6.176   0.988  14.076
70086W        W34906   7.167  28.671   1.490
70087W        W34907  21.239  13.046   4.253
70088W        W34908  21.265  26.644   1.512
70089W        W34909  24.193  10.164   1.249
70090W        W34910  11.398  10.840   0.939
70091W        W34911  31.644  18.503   9.740
70092W        W34912  14.753  36.956   0.412
70093W        W34913  35.273  39.237   2.885
70094W        W34914  35.673  32.329  11.209
70095W        W34915   9.883  28.107   2.721
70096W        W34916  32.860  34.811  14.703
70097W        W34917  15.667   1.569  12.854
70098W        W34918  13.668  14.849   4.308
70099W        W34919  33.937   3.758  12.412
70100W        W34920  31.316  24.462  12.464
70101W        W34921  27.371   6.001  11.660
70102W        W34922  35.113  20.631  11.061
70103W        W34923  27.449  38.850  11.614
70104W        W34924   9.975  30.644   1.834
70105W        W34925  29.738  20.749   3.577
70106W        W34926   0.881  42.578   4.126
70107W        W34927  29.872   6.280   3.675
70108W        W34928  21.614  36.904  12.284
70109W        W34929  19.673  17.114  13.014
70110W        W34930  26.124  42.675  14.043
70111W        W34931  41.849  31.019  14.935
70112W        W34932  43.309  32.557  13.534
70113W        W34933  41.359  40.689   4.372
70114W        W34934  29.215  41.256   3.843
70115W        W34935  24.221   4.449  10.936
70116W        W34936  17.107  10.330  14.362
70117W        W34937   3.214  22.179   2.820
70118W        W34938  25.095   6.355   0.819
70119W        W34939  27.315  28.611   3.462
70120W        W34940  33.357  22.255   3.306
70121W        W34941   1.484  38.961   1.465
70122W        W34942  20.464  35.377   3.261
70123W        W34943  28.711   3.369  10.790
70124W        W34944  32.877  20.119   2.346
70125W        W34945   3.232  22.762   3.648
70126W        W34946   2.302  25.498   3.677
70127W        W34947  19.126  42.670   3.844
70128W        W34948  22.465  34.954   0.772
70129W        W34949  37.767  15.225   5.101
70130W        W34950  42.209  19.753   0.392
70131W        W34951   5.057   4.814  10.738
70132W        W34952   5.503  23.507  11.988
70133W        W34953  33.481  16.245   0.422
70134W        W34954   2.805   3.345   4.419
70135W        W34955   9.935   8.136   4.752
70136W        W34956  10.087  44.944  14.725
70137W        W34957  11.722   7.794   3.499
70138W        W34958  12.750  22.027  14.391
70139W        W34959  20.318   8.419  12.897
70140W        W34960  13.732  21.634  14.368
70141W        W34961   1.454  12.726  14.017
70142W        W34962  41.892   5.147  11.969
70143W        W34963   2.634   6.176   3.554
70144W        W34964  38.372  36.619  13.079
70145W        W34965  43.294  20.230  10.578
70146W        W34966   2.439   8.118   4.490
70147W        W34967  44.367  11.432  11.540
70148W        W34968  15.445  42.876   2.570
70149W        W34969  31.030  28.916   0.269
70150W        W34970  26.148   9.333  12.897
70151W        W34971  31.263  38.878  12.432
70152W        W34972   0.953  19.799  11.429
70153W        W34973   3.770  19.881  10.467
70154W        W34974  28.498  27.151  12.182
70155W        W34975   6.499  33.630   2.631
70156W        W34976  29.189  17.107   1.323
70157W        W34977   2.748  32.713  10.714
70158W        W34978  17.632  42.362  14.958
70159W        W34979  13.789  15.406   4.264
70160W        W34980   8.543  13.849  11.578
70161W        W34981  14.011  11.803  14.416
70162W        W34982  33.525  34.852  11.635
70163W        W34983  29.933  39.332   0.735
70164W        W34984   8.475  15.349   1.328
70165W        W34985  16.450  43.702  11.208
70166W        W34986  17.522  16.611  11.043
70167W        W34987  16.782  44.941  13.357
70168W        W34988  16.367  18.190  14.437
70169W        W34989  37.958  39.810   0.734
70170W        W34990  21.296   9.601   1.847
70171W        W34991  27.470  44.256  11.923
70172W        W34992  20.565  29.460   2.655
70173W        W34993  16.845  12.151  10.714
70174W        W34994  19.820  42.417   3.226
70175W        W34995  42.894  17.635   4.253
70176W        W34996  24.115  18.516  11.574
70177W        W34997  17.390   5.848  13.571
70178W        W34998  37.163  11.820  12.378
70179W        W34999  32.715  18.087  13.367
70180W        W35000  20.179  30.725  14.233
70181W        W35001  18.485  24.150   1.788
70182W        W35002   0.728  19.123  12.734
70183W        W35003  12.618  21.684  11.185
70184W        W35004  16.884  29.562   3.744
70185W        W35005  18.645  44.870   4.294
70186W        W35006  28.629   0.724   4.018
70187W        W35007  13.644  20.593   4.742
70188W        W35008  18.428   6.995   1.255
70189W        W35009  19.251  12.308  13.586
70190W        W35010  39.033  27.581  14.050
70191W        W35011  11.608  25.676  12.522
70192W        W35012   4.973  33.481  11.558
70193W        W35013  41.308  37.629  11.206
70194W        W35014   9.468  34.891   4.249
70195W        W35015   7.927  38.346   1.617
70196W        W35016  41.793  44.181   2.574
70197W        W35017  23.933  11.617  11.100
70198W        W35018   0.985  27.854   0.004
70199W        W35019  13.779  44.501  12.551
70200W        W35020  13.319   0.509  11.114
70201W        W35021  32.488  24.727   3.194
70202W        W35022  31.967  32.299   3.100
70203W        W35023  24.572  35.992   2.462
70204W        W35024  13.045  27.137  13.452
70205W        W35025   7.251  21.806  14.268
70206W        W35026  19.500  13.174  11.630
70207W        W35027  29.935  20.776  11.937
70208W        W35028  37.913  37.467  13.038
70209W        W35029  10.834  30.281  12.067
70210W        W35030  14.167   6.347  11.310
70211W        W35031  10.074  34.080  13.830
70212W        W35032   5.461  18.618   0.509
70213W        W35033  20.317   6.343  12.571
70214W        W35034   9.375  11.103  11.560
70215W        W35035  10.037  27.831   1.456
70216W        W35036  15.102  36.213   4.577
70217W        W35037   1.863  23.609  11.484
70218W        W35038  24.487  38.877   3.665
70219W        W35039  37.777  15.729   2.615
70220W        W35040  41.171  28.609   2.371
70221W        W35041  14.194  11.135  10.999
70222W        W35042  40.750  18.729  12.162
70223W        W35043  15.097  36.025   2.663
70224W        W35044   6.487  27.807  13.863
70225W        W35045  22.297   3.479  13.929
70226W        W35046  42.494  24.149   4.115
70227W        W35047  17.543  20.081   0.278
70228W        W35048  35.110   8.221   0.978
70229W        W35049  24.559  28.147   0.383
70230W        W35050  20.525  39.137   2.998
70231W        W35051  44.842   5.188  11.822
70232W        W35052   5.411  44.955  14.286
70233W        W35053   9.359  22.483  10.605
70234W        W35054  34.397  15.854   2.148
70235W        W35055  36.815  16.127   0.281
70236W        W35056  10.746  26.644   4.729
70237W        W35057  13.924   8.513  12.402
70238W        W35058   3.098  11.138  14.055
70239W        W35059  15.254  29.123  10.164
70240W        W35060  32.129  13.255   4.979
70241W        W35061  42.765  26.913   1.923
70242W        W35062  42.608   1.207  13.868
70243W        W35063  39.217   8.641   1.325
70244W        W35064   9.931  18.927   2.307
70245W        W35065  42.239  16.866  13.936
70246W        W35066  39.070  40.352   0.400
70247W        W35067  17.699   1.236  14.765
70248W        W35068  30.998  17.047   0.691
70249W        W35069  12.375  21.523  14.029
70250W        W35070  16.594  13.854  12.754
70251W        W35071  26.688  17.532  14.307
70252W        W35072  26.673  28.975   4.513
70253W        W35073  13.141  16.849   2.580
70254W        W35074  41.994  18.047  14.885
70255W        W35075  31.952  34.632   2.872
70256W        W35076  12.301  38.639   2.821
70257W        W35077  27.966  13.457   2.915
70258W        W35078  37.972  23.881  12.079
70259W        W35079  11.090   8.300   1.744
70260W        W35080   5.434   5.959   2.165
70261W        W35081  38.207  30.188  11.940
70262W        W35082  14.187   0.322   4.167
70263W        W35083  18.314  21.456   4.211
70264W        W35084  40.050   0.261   2.143
70265W        W35085  34.980  20.023   1.201
70266W        W35086   5.033  11.757  13.503
70267W        W35087  40.983  10.838   3.778
70268W        W35088  21.875  38.532  12.997
70269W        W35089  10.595  21.473  11.156
70270W        W35090  32.550  35.821  13.539
70271W        W35091  39.959   7.008   1.433
70272W        W35092  41.310  34.890  14.886
70273W        W35093  43.570  36.614  12.538
70274W        W35094  18.529  29.875  11.039
70275W        W35095  40.550  37.350   4.075
70276W        W35096   1.782  19.094   3.773
70277W        W35097   5.042  36.761  13.101
70278W        W35098  24.753  16.848  12.417
70279W        W35099  11.813  37.609   0.730
70280W        W35100   8.574  25.684   3.835
70281W        W35101  36.179   8.269  12.517
70282W        W35102   1.434  36.455  14.514
70283W        W35103   0.947  26.462   3.223
70284W        W35104  17.558   6.401   2.265
70285W        W35105  42.870  30.733  11.673
70286W        W35106  31.665   3.796  12.808
70287W        W35107  17.058  24.052   0.848
70288W        W35108  43.781  14.793   3.386
70289W        W35109  11.922  12.570   2.353
70290W        W35110  39.821   1.999  12.573
70291W        W35111  42.850  20.137   4.727
70292W        W35112   8.409  37.183   3.919
70293W        W35113  36.570  30.466  13.867
70294W        W35114  15.267  40.906  13.447
70295W        W35115   6.961   3.485   0.990
70296W        W35116   4.840   0.246  11.971
70297W        W35117  29.499  29.527   9.978
70298W        W35118  24.697  33.455   3.354
70299W        W35119   4.618  39.009   1.413
70300W        W35120  15.108  20.786   3.137
70301W        W35121  11.842  37.467  14.783
70302W        W35122  37.912   7.035   4.549
70303W        W35123   5.988   6.698  11.124
70304W        W35124  37.821  10.626  12.952
70305W        W35125  16.456  24.007  11.974
70306W        W35126   3.014   6.926   0.871
70307W        W35127   4.186  20.040  10.761
70308W        W35128  18.083  35.048   9.797
70309W        W35129   0.333  15.889   4.266
70310W        W35130  17.063  35.065   1.930
70311W        W35131  44.186  27.634   3.757
70312W        W35132  30.553  14.136  12.062
70313W        W35133  42.792  13.230  12.483
70314W        W35134  40.612  23.017   2.628
70315W        W35135  16.504  12.597   1.704
70316W        W35136  30.386   2.445   4.302
70317W        W35137  31.994  21.782   3.976
70318W        W35138   1.361  18.147   3.179
70319W        W35139  12.756   9.429   3.434
70320W        W35140  30.495  29.049   0.928
70321W        W35141  27.891   1.726  13.525
70322W        W35142   1.312  34.170   0.860
70323W        W35143  31.476  18.961  13.925
70324W        W35144   3.840  40.122  13.939
70325W        W35145   1.010  38.510   4.511
70326W        W35146  26.179  21.241   5.007
70327W        W35147  15.698  13.621  12.230
70328W        W35148  40.088  32.487   1.723
70329W        W35149  39.402  12.425  14.923
70330W        W35150  15.513  25.648  11.616
70331W        W35151  15.836  16.336  10.686
70332W        W35152  39.943   2.458   1.789
70333W        W35153  13.830  14.360   4.266
70334W        W35154  14.629  35.510   1.351
70335W        W35155  16.687  16.647  12.613
70336W        W35156  31.173   4.942  13.534
70337W        W35157  28.470  13.539   2.878
70338W        W35158  31.541  32.293   3.421
70339W        W35159  32.568  44.204   1.248
70340W        W35160  27.919  16.619  11.466
70341W        W35161  26.048   6.274  14.258
70342W        W35162  11.742  16.522   0.774
70343W        W35163  16.691  38.290   0.790
70344W        W35164  11.203  10.887   2.751
70345W        W35165  30.443  36.537   0.440
70346W        W35166  29.658   7.367  11.071
70347W        W35167   6.809  20.231   4.648
70348W        W35168  22.550  33.555   2.241
70349W        W35169  34.886   4.433  13.910
70350W        W35170  10.543   8.290  12.098
70351W        W35171  44.575  19.254   4.261
70352W        W35172  19.308  16.318   0.886
70353W        W35173  24.617  35.150  14.269
70354W        W35174  11.877  14.602   0.877
70355W        W35175  20.242  20.828   4.720
70356W        W35176  16.964  18.215   4.626
70357W        W35177   0.738  37.799  12.100
70358W        W35178   9.813  15.854   3.119
70359W        W35179   9.796   0.797  11.650
70360W        W35180   1.337   8.951  11.571
70361W        W35181  41.008  41.848   1.862
70362W        W35182  28.877  34.286   0.867
70363W        W35183  26.186   3.473   1.241
70364W        W35184   3.475  14.392   4.590
70365W        W35185   8.737   3.743  11.876
70366W        W35186   7.453  10.373  12.021
70367W        W35187   8.514  16.024  12.053
70368W        W35188   1.265  43.520  13.501
70369W        W35189  37.814  11.491  10.686
70370W        W35190  20.496  31.624  12.154
70371W        W35191  39.859  15.748   1.373
70372W        W35192  24.943  34.111   2.762
70373W        W35193  40.804   4.298   2.845
70374W        W35194  34.102  21.119   4.635
70375W        W35195   1.199   4.420   0.185
70376W        W35196  14.298  14.761  14.477
70377W        W35197  11.533  41.935   0.893
70378W        W35198  25.724  29.884   1.203
70379W        W35199  34.536  26.662  11.363
70380W        W35200   3.862  24.506   0.831
70381W        W35201  41.333   6.024   0.816
70382W        W35202  25.166   7.802   0.444
70383W        W35203  23.654  32.648   3.313
70384W        W35204  29.896  25.145   4.720
70385W        W35205   8.237  34.937   3.610
70386W        W35206   7.600   3.251  14.945
70387W        W35207  37.774   7.676   9.798
70388W        W35208  23.558  25.349   4.251
70389W        W35209   2.657  36.623  14.842
70390W        W35210  30.098  16.191   3.285
70391W        W35211   4.159  40.291   1.935
70392W        W35212  28.212  13.556   1.667
70393W        W35213  29.570  25.151   2.898
70394W        W35214   5.453  19.547  10.732
70395W        W35215  14.774  26.509   0.300
70396W        W35216  40.311  16.443  13.103
70397W        W35217  15.475  39.794  13.843
70398W        W35218  39.754  29.479  11.295
70399W        W35219  19.071  30.700   3.653
70400W        W35220   7.327   0.839   0.016
70401W        W35221  40.256  23.761   1.664
70402W        W35222  22.991  38.341   3.689
70403W        W35223  36.782  28.410   0.383
70404W        W35224  34.175  41.465  12.360
70405W        W35225  30.412  35.943  11.531
70406W        W35226  20.866   0.914   3.096
70407W        W35227  13.309  10.920   2.786
70408W        W35228  23.578  18.260   2.383
70409W        W35229   3.300   2.777   3.730
70410W        W35230  43.759   9.256   2.442
70411W        W35231  42.992  24.913   9.503
70412W        W35232  17.644  40.863   4.643
70413W        W35233  18.053  25.976   3.415
70414W        W35234   5.746  37.555   0.350
70415W        W35235  26.712  32.087   0.928
70416W        W35236  37.806  23.666  12.513
70417W        W35237  44.454  39.801   1.222
70418W        W35238   2.459  43.187   4.585
70419W        W35239  32.439  37.631   2.876
70420W        W35240  28.137  40.994   0.349
70421W        W35241  25.181   4.450  10.485
70422W        W35242  38.829   0.908   3.901
70423W        W35243  28.479   8.514   1.114
70424W        W35244  38.072  12.577   0.894
70425W        W35245  27.725  27.138   4.983
70426W        W35246  10.163  32.003  13.441
70427W        W35247  18.187  42.092  11.265
70428W        W35248  14.133   2.231   0.980
70429W        W35249  13.846   7.458  11.402
70430W        W35250  29.199   2.733  14.360
70431W        W35251   5.224   8.017   2.658
70432W        W35252  19.058   5.436   4.637
70433W        W35253  38.996  13.729   4.112
70434W        W35254  42.659  25.156  13.388
70435W        W35255  12.351  44.217  14.977
70436W        W35256  44.775  44.793  14.242
70437W        W35257   6.854  21.378   1.394
70438W        W35258  29.531  10.088   4.303
70439W        W35259   8.103  21.697  11.127
70440W        W35260  37.919  18.212   1.343
70441W        W35261  40.532  39.926  11.605
70442W        W35262  30.513  20.516   3.986
70443W        W35263   1.677   3.960   3.099
70444W        W35264  11.426  19.969  11.995
70445W        W35265  16.561  22.416   2.765
70446W        W35266  10.689   3.652   3.673
70447W        W35267  12.789  20.470   2.428
70448W        W35268  27.032  39.090   4.544
70449W        W35269  33.853   8.107   4.015
70450W        W35270  20.035   5.109  14.550
70451W        W35271   1.843  44.463   0.713
70452ION    NA+35272  38.589   2.193  10.721
70453ION    NA+35273  28.593  30.384   0.966
70454ION    NA+35274  36.085  35.926  14.659
70455ION    NA+35275  12.931  24.624   4.628
70456ION    NA+35276   7.356  18.220  14.730
70457ION    NA+35277   6.607   9.845  12.715
70458ION    NA+35278   8.236  38.681  12.381
70459ION    NA+35279  43.786  32.700   3.430
70460ION    NA+35280  19.518  35.150   0.399
70461ION    NA+35281  23.332  43.811   4.133
70462ION    NA+35282  35.286  20.409   0.059
70463ION    NA+35283  14.028  38.098   1.826
70464ION    NA+35284  18.611  16.157  12.606
70465ION    NA+35285  23.141  21.001   4.635
70466ION    NA+35286  18.680   7.619  13.679
70467ION    NA+35287  18.684  14.559   4.871
70468ION    NA+35288  33.198   4.089   4.662
70469ION    NA+35289  38.981  31.684   4.230
70470ION    NA+35290   1.499  43.607   0.270
70471ION    NA+35291  18.918  32.696   4.040
70472ION    NA+35292  38.865  44.612  11.538
70473ION    NA+35293  10.624  42.588  14.172
70474ION    NA+35294  22.651   7.304  11.210
70475ION    NA+35295  25.064  14.135   4.130
70476ION    NA+35296  25.478   0.375  14.530
70477ION    NA+35297  31.531   2.408  11.684
70478ION    NA+35298  16.871   5.738  12.689
70479ION    NA+35299  25.099   4.998   0.337
70480ION    NA+35300  31.354  17.852   3.666
70481ION    NA+35301  12.498  16.991   0.306
70482ION    NA+35302  28.309  34.409   1.987
70483ION    NA+35303  37.620  11.273   4.486
70484ION    NA+35304  21.239  22.123  10.463
70485ION    NA+35305  10.619  28.074   0.879
70486ION    NA+35306  25.686  37.337   3.692
70487ION    NA+35307  44.847   6.093  13.536
70488ION    NA+35308   6.922   7.959  12.568
70489ION    NA+35309  34.013  42.993  14.491
70490ION    NA+35310  36.124  39.071  13.035
70491ION    NA+35311   1.780   2.641  13.852
70492ION    NA+35312  36.598  19.260  13.827
70493ION    NA+35313  22.243  40.270  10.698
70494ION    NA+35314  31.020  27.992   9.708
70495ION    NA+35315  13.846   1.227   3.344
70496ION    NA+35316  12.856  42.205  14.841
70497ION    NA+35317  16.090  29.417  12.947
70498ION    NA+35318  39.472  38.054   2.795
70499ION    NA+35319   7.905  14.921  13.915
70500ION    NA+35320   5.942  21.739   2.938
70501ION    NA+35321   5.443  10.459   2.640
70502ION    NA+35322  40.747  24.329  14.353
70503ION    NA+35323  43.214   5.705  11.166
70504ION    NA+35324  34.737   6.065   5.085
70505ION    NA+35325   9.655  29.228  10.721
70506ION    NA+35326  44.504  25.234   4.155
70507ION    NA+35327  41.002  13.553  13.844
70508ION    NA+35328  36.155   5.326   0.048
70509ION    NA+35329   3.913  17.566  12.868
70510ION    NA+35330  38.148  40.496   2.347
70511ION    NA+35331  17.404  25.120   4.388
70512ION    NA+35332  25.978  37.335  11.600
70513ION    NA+35333  21.541  31.335   1.878
70514ION    NA+35334  39.734  11.311  13.011
70515ION    NA+35335   2.613  22.232   3.774
70516ION    NA+35336  44.968  27.986   3.812
70517ION    NA+35337  33.988  29.851   3.922
70518ION    NA+35338  22.009  32.604   3.818
70519ION    NA+35339   0.333  15.784  12.067
70520ION    NA+35340   6.675  43.168   0.132
70521ION    NA+35341  17.098  30.887  11.529
70522ION    NA+35342  39.532  42.426   2.364
70523ION    NA+35343  10.609  43.909   2.288
70524ION    NA+35344  38.897  38.820   3.083
70525ION    NA+35345  16.057  37.258  14.971
70526ION    NA+35346   3.817  29.588  13.855
70527ION    NA+35347  25.270  42.991   3.643
70528ION    NA+35348  20.554  16.027  12.436
70529ION    NA+35349  16.776  36.322   0.969
70530ION    NA+35350  29.650  21.302   1.355
70531ION    NA+35351  39.166   3.281  12.868
70532ION    NA+35352  16.909  41.600   1.652
70533ION    NA+35353   7.422  40.979   1.489
70534ION    NA+35354  37.994  40.141   0.332
70535ION    NA+35355  42.479  40.326   3.916
70536ION    NA+35356   0.423  42.633  12.095
70537ION    NA+35357  38.249   1.725   1.931
70538ION    NA+35358   5.483  41.544   4.403
70539ION    NA+35359  40.112  33.832  11.232
70540ION    NA+35360  36.692   2.180   1.288
70541ION    NA+35361  24.313  34.095   1.709
70542ION    NA+35362  10.438  24.563   3.162
70543ION    NA+35363  32.114   8.664   2.565
70544ION    NA+35364  32.656  20.677   3.711
70545ION    NA+35365   9.019  17.109   0.014
70546ION    NA+35366  20.809   3.392   4.545
70547ION    NA+35367   1.134  26.217  11.568
70548ION    NA+35368  43.273  17.742   3.291
70549ION    NA+35369  36.493   2.280  13.392
70550ION    NA+35370  38.401  35.107   1.704
70551ION    NA+35371  36.985  11.100  12.227
70552ION    NA+35372  36.859   6.456   5.362
70553ION    NA+35373  27.142  11.162   1.039
70554ION    NA+35374  42.897   9.287   3.683
70555ION    NA+35375  10.865   1.470   1.294
70556ION    NA+35376  12.693  19.229   4.741
70557ION    NA+35377  15.647  18.150   1.340
70558ION    NA+35378  14.130  18.547   2.182
70559ION    NA+35379   1.192  16.388  12.384
70560ION    NA+35380  34.925   2.846   3.122
70561ION    NA+35381  35.424   4.565  12.509
70562ION    NA+35382   9.693  23.967   2.862
70563ION    NA+35383  41.884  20.176  11.955
70564ION    NA+35384  17.899  18.433  11.927
70565ION    NA+35385  13.039  32.654  12.380
70566ION    NA+35386  24.046  17.642  13.617
70567ION    NA+35387  21.048  20.538  10.657
70568ION    NA+35388  15.792  43.559   2.432
70569ION    NA+35389   6.805  32.050  11.660
70570ION    NA+35390  38.074  34.876  11.166
70571ION    NA+35391  19.298   5.493   0.725
70572ION    NA+35392   1.187  43.123  12.148
70573ION    NA+35393  30.840  30.811   2.278
70574ION    NA+35394  43.518  28.035   1.351
70575ION    NA+35395  19.115  12.977   1.390
70576ION    NA+35396  12.132  38.808   1.411
70577ION    NA+35397  35.397  29.079  13.827
70578ION    NA+35398   5.627  13.802   4.098
70579ION    NA+35399  11.373  25.520   4.140
70580ION    NA+35400  44.959  38.242   4.472
70581ION    NA+35401  44.722  11.426   1.165
70582ION    NA+35402  27.982   3.950   9.881
70583ION    NA+35403  38.133  44.728   0.320
70584ION    NA+35404  31.696  10.287  13.817
70585ION    NA+35405  13.816  19.825  12.341
70586ION    NA+35406  34.975   0.585   3.553
70587ION    NA+35407   4.805  33.016  10.861
70588ION    NA+35408  44.959  20.421  12.002
70589ION    NA+35409  33.891  32.315  13.795
70590ION    NA+35410  37.998  12.505  10.666
70591ION    NA+35411   3.702  15.976  14.986
70592ION    NA+35412  27.096   3.157   2.429
70593ION    NA+35413  32.578  37.518  11.569
70594ION    NA+35414   1.240  34.945   3.452
70595ION    NA+35415  30.050  20.434  14.731
70596ION    NA+35416  19.732   3.171   1.991
70597ION    NA+35417  28.764  35.898  12.455
70598ION    NA+35418  22.918   4.876  12.203
70599ION    NA+35419  13.739  31.633   1.572
70600ION    NA+35420  41.417   9.860   5.060
70601ION    NA+35421   4.487  25.137  14.260
70602ION    NA+35422   3.346   3.744  12.041
70603ION    NA+35423  15.181  10.123   3.936
70604ION    NA+35424   5.687  23.297   2.742
70605ION    NA+35425  33.364   0.002   3.637
70606ION    NA+35426  40.544  22.881   1.513
70607ION    NA+35427  14.337   0.812  13.023
70608ION    NA+35428   6.004  17.454  12.264
70609ION    NA+35429  33.439  37.402  12.141
70610ION    NA+35430  30.435  30.497  11.766
70611ION    NA+35431  22.211  28.433  11.635
70612ION    NA+35432   3.167   6.211   5.054
70613ION    NA+35433  13.184  28.562  11.565
70614ION    NA+35434  30.786   4.937  14.097
70615ION    NA+35435  12.506  37.612   0.718
70616ION    NA+35436  41.699   9.755   5.611
70617ION    NA+35437   2.059  32.438  13.940
70618ION    NA+35438  41.269  31.329  14.152
70619ION    NA+35439  43.948  10.376   0.222
70620ION    NA+35440  34.318   2.189   2.408
70621ION    NA+35441   1.944  16.405   2.825
70622ION    NA+35442  31.977   5.265   1.824
70623ION    NA+35443  34.269  36.673   3.494
70624ION    NA+35444  22.428  22.015  11.136
70625ION    NA+35445  44.701  43.267   2.897
70626ION    NA+35446  44.859  37.099  12.504
70627ION    NA+35447  29.768  15.241   2.957
70628ION    NA+35448   8.003   5.934  12.962
70629ION    NA+35449  33.121  23.448  13.116
70630ION    NA+35450  10.500   7.743   0.554
70631ION    NA+35451   4.474   5.869   0.343
70632ION    NA+35452  33.077  44.484  12.392
70633ION    NA+35453  26.178   3.926   4.167
70634ION    NA+35454  14.578  14.337  12.050
70635ION    NA+35455   8.441  14.126   1.828
70636ION    NA+35456   5.584  38.062   1.234
70637ION    NA+35457  17.241  14.106  14.670
70638ION    NA+35458   0.247  26.335  12.036
70639ION    NA+35459  27.590  21.257  12.305
70640ION    NA+35460  21.421  21.208  13.294
70641ION    NA+35461  44.977   0.505   2.257
70642ION    NA+35462  28.633   7.693  14.010
70643ION    NA+35463  37.884   0.490  11.425
70644ION    NA+35464   8.433   4.122  13.801
70645ION    NA+35465  21.131  35.986  11.549
70646ION    NA+35466  37.640  12.550  13.392
70647ION    NA+35467  40.699   6.662   0.993
70648ION    NA+35468   8.044   7.625  10.891
70649ION    NA+35469  38.874   8.605   4.142
70650ION    NA+35470  13.651  28.672   5.052
70651ION    NA+35471  19.093  34.809  11.600
70652ION    NA+35472  34.777  36.413   2.029
70653ION    NA+35473  44.910  24.825   0.820
70654ION    NA+35474  24.572  24.057  11.019
70655ION    NA+35475  32.920  19.560  12.049
70656ION    NA+35476   2.536   1.250  13.500
70657ION    NA+35477  17.394  25.395   1.556
70658ION    NA+35478  43.378  29.203   0.630
70659ION    NA+35479  24.701  43.857   1.990
70660ION    NA+35480  34.064  38.283   1.839
70661ION    NA+35481   8.273   2.478   3.675
70662ION    NA+35482  12.169  43.630   2.115
70663ION    NA+35483   5.567  42.509   2.497
70664ION    NA+35484  37.866  13.471  10.321
70665ION    NA+35485  15.088   2.095   4.602
70666ION    NA+35486  14.644  17.300   9.520
70667ION    NA+35487   6.665   9.473   2.636
70668ION    NA+35488  17.276  21.894  12.259
70669ION    NA+35489  42.078   1.499  14.786
70670ION    NA+35490  32.547  40.745  11.063
70671ION    NA+35491  38.608  41.572   1.213
70672ION    NA+35492   7.710  44.293  11.548
70673ION    NA+35493  35.418   0.236  11.949
70674ION    NA+35494   0.612  12.783  11.197
70675ION    NA+35495  32.699  23.777  12.271
70676ION    NA+35496  20.553  30.979  14.494
70677ION    NA+35497  29.244  16.857   0.843
70678ION    NA+35498  44.859   6.769  14.835
70679ION    NA+35499  23.660  12.551  10.711
70680ION    NA+35500  36.859   0.788   3.366
70681ION    NA+35501  30.270  44.943  11.208
70682ION    NA+35502  39.212  43.950   2.136
70683ION    NA+35503  35.277  21.197  11.912
70684ION    NA+35504  34.975  12.179   3.110
70685ION    NA+35505  18.908  35.603  10.990
70686ION    NA+35506   8.822   9.426  11.121
70687ION    NA+35507  23.335  22.963   3.786
70688ION    NA+35508  29.407  28.295   1.219
70689ION    NA+35509  21.010  37.274   0.640
70690ION    NA+35510  34.695   6.600  10.853
70691ION    NA+35511  22.581  43.120   2.150
70692ION    NA+35512   3.223  24.185  14.303
70693ION    NA+35513   7.242  24.266  12.141
70694ION    NA+35514   3.046  32.957  14.019
70695ION    NA+35515   5.415  31.957  14.616
70696ION    NA+35516  12.219   3.876   0.375
70697ION    NA+35517   2.281  24.314  11.701
70698ION    NA+35518   8.930   1.727   3.606
70699ION    NA+35519  33.024   7.227  10.733
70700ION    NA+35520  29.127   9.625  13.335
70701ION    NA+35521  29.945  24.778   4.360
70702ION    NA+35522  15.692  40.400   1.343
70703ION    NA+35523  41.827   8.703   1.859
70704ION    NA+35524  22.417  13.939   4.000
70705ION    NA+35525  10.582  25.800   2.150
70706ION    NA+35526  43.847  26.119   0.060
70707ION    NA+35527  18.819  26.009  14.286
70708ION    NA+35528  12.910   9.089  14.820
70709ION    NA+35529  14.062  35.396   3.271
70710ION    NA+35530  40.717  42.422   1.424
70711ION    NA+35531   1.904  25.945  13.458
70712ION    NA+35532   9.105   7.375   3.523
70713ION    NA+35533   5.152   2.858   0.758
70714ION    NA+35534  28.956  34.243  10.900
70715ION    NA+35535   5.504   2.389   4.883
70716ION    NA+35536  15.734  28.738  13.588
70717ION    NA+35537   8.201   6.176   1.427
70718ION    NA+35538  38.288  24.933  13.531
70719ION    NA+35539  37.363  34.273   2.113
70720ION    NA+35540  10.302   9.765   2.490
70721ION    NA+35541   1.154  24.448  12.835
70722ION    NA+35542  37.940   8.707   9.788
70723ION    NA+35543  37.072  12.441   1.151
70724ION    NA+35544  16.409  37.880   3.471
70725ION    NA+35545  43.115  21.245  10.236
70726ION    NA+35546  38.844  30.473   3.666
70727ION    NA+35547  22.165  22.525  12.403
70728ION    NA+35548  21.597  25.575   3.767
70729ION    NA+35549   5.742  10.104  12.181
70730ION    NA+35550  14.868  22.659   4.170
70731ION    NA+35551   8.053   1.310   3.367
70732ION    NA+35552  44.381  24.592   3.369
70733ION    NA+35553  23.192  13.809  12.484
70734ION    NA+35554  37.901  29.974   4.048
70735ION    NA+35555   0.794  26.870   1.771
70736ION    NA+35556  42.106  10.851   4.437
70737ION    NA+35557  39.716  39.819   0.876
70738ION    NA+35558  40.320  16.856  12.827
70739ION    NA+35559  20.722  38.799  12.525
70740ION    NA+35560  39.539  44.939   4.160
70741ION    NA+35561  34.673  10.136  13.999
70742ION    NA+35562  16.102  13.806  12.600
70743ION    NA+35563  25.129  41.484  11.415
70744ION    NA+35564  16.625  31.445  12.435
70745ION    NA+35565  10.469  11.654   2.884
70746ION    NA+35566   5.966  24.601  13.043
70747ION    NA+35567   2.459   0.229   1.761
70748ION    NA+35568  35.569   1.473  14.893
70749ION    NA+35569  27.524  29.174  10.682
70750ION    NA+35570  36.527  39.719   3.705
70751ION    NA+35571  13.228  13.040  13.050
70752ION    NA+35572   5.966  40.228  14.966
70753ION    NA+35573  20.665  21.062   3.210
70754ION    NA+35574  15.975  21.446  13.100
70755ION    NA+35575  41.798  18.462   0.168
70756ION    NA+35576  13.423  29.202  13.878
70757ION    NA+35577  25.482   6.261  10.610
70758ION    NA+35578  32.192  15.623  12.533
70759ION    NA+35579  11.196   7.501   3.442
70760ION    NA+35580   0.999   9.796  11.648
70761ION    NA+35581  32.671  10.383  14.018
70762ION    NA+35582  18.482  36.044   2.325
70763ION    NA+35583  33.234   5.367  13.693
70764ION    NA+35584  16.644  13.374  11.879
70765ION    NA+35585   2.186  15.581  12.134
70766ION    NA+35586  38.964  37.731   0.739
70767ION    NA+35587  37.004   1.781   9.908
70768ION    NA+35588   8.479  24.003   4.583
70769ION    NA+35589  32.584   6.916  11.926
70770ION    NA+35590  30.604  36.882  11.752
70771ION    NA+35591   2.459  43.155   4.047
70772ION    NA+35592  24.412   8.157  11.505
70773ION    NA+35593  11.949  37.134   2.790
70774ION    NA+35594  42.241   9.908  12.997
70775ION    NA+35595  30.139  22.603  14.967
70776ION    NA+35596  35.178   8.404   2.015
70777ION    NA+35597   7.579  20.282   2.746
70778ION    NA+35598  28.111  33.122   4.280
70779ION    NA+35599   1.034  41.262   4.248
70780ION    NA+35600  24.238  42.478  12.156
70781ION    NA+35601  42.174  25.779   1.680
70782ION    NA+35602  19.355  29.625  13.080
70783ION    NA+35603  21.216  20.793  12.183
70784ION    NA+35604  10.635  28.108   2.194
70785ION    NA+35605  37.442  18.025  14.264
70786ION    NA+35606  32.098   8.439   1.631
70787ION    NA+35607  17.552   7.994   0.106
70788ION    NA+35608   5.958  34.951   4.057
70789ION    NA+35609  23.079  19.750  13.564
70790ION    NA+35610  25.664  21.453  10.767
70791ION    NA+35611  41.735  21.557  14.967
70792ION    NA+35612  42.987  19.455   1.357
70793ION    NA+35613  14.798  16.140  12.502
70794ION    NA+35614  28.739  37.833  12.130
70795ION    NA+35615   1.416  33.119  10.242
70796ION    NA+35616   2.008   4.316   4.065
70797ION    NA+35617  25.148  42.164   4.262
70798ION    NA+35618  41.265  29.499  13.446
70799ION    NA+35619  40.279  14.404   3.955
70800ION    NA+35620  12.192  27.615   2.197
70801ION    NA+35621  30.736  24.446  14.950
70802ION    NA+35622  37.559  13.186   2.471
70803ION    NA+35623  24.127  11.592   0.033
70804ION    NA+35624  25.388  19.670  13.315
70805ION    NA+35625  33.958  20.006  11.162
70806ION    NA+35626  21.651  19.839  13.283
70807ION    NA+35627   0.148  38.363   2.297
70808ION    NA+35628  35.075  30.932   0.973
70809ION    NA+35629   3.296  11.233  13.154
70810ION    NA+35630  14.181  30.301  11.604
70811ION    NA+35631  26.213   7.689  13.449
70812ION    NA+35632   7.472   1.239   0.949
70813ION    NA+35633  38.597  26.957  12.909
70814ION    NA+35634   6.245  43.041   2.447
70815ION    NA+35635  15.896  30.487   0.432
70816ION    NA+35636  32.659  39.471  14.962
70817ION    NA+35637  25.110  31.525  14.477
70818ION    NA+35638   3.152   8.184  14.359
70819ION    NA+35639  39.806  39.863   3.313
70820ION    NA+35640   1.028  40.762  10.825
70821ION    NA+35641  32.632  36.112  13.035
70822ION    NA+35642  17.324  23.197  14.833
70823ION    NA+35643  26.297  37.003  13.359
70824ION    NA+35644   7.688  34.463  14.343
70825ION    NA+35645   8.480  17.799   2.865
70826ION    NA+35646   9.937  36.160   0.426
70827ION    NA+35647  22.945   3.677  12.937
70828ION    NA+35648  32.005  12.913   0.194
70829ION    NA+35649  43.354  31.900   2.816
70830ION    NA+35650  13.903  37.879  14.065
70831ION    NA+35651  23.616  16.284   3.817
70832ION    NA+35652  18.300   9.717  12.170
70833ION    NA+35653  25.701  10.203  14.511
70834ION    NA+35654  30.662  31.225  11.080
70835ION    NA+35655  34.315  38.282   0.962
70836ION    NA+35656  34.262  41.419   3.352
70837ION    NA+35657  33.004  20.275  13.136
70838ION    NA+35658  37.107  38.896   1.786
70839ION    NA+35659  11.810  25.962  11.574
70840ION    NA+35660  25.862  40.004  14.750
70841ION    NA+35661   3.452  18.778  13.798
70842ION    NA+35662  10.145  11.881   1.167
70843ION    NA+35663  35.734  23.516  12.618
70844ION    NA+35664  37.900  17.077  13.136
70845ION    NA+35665  43.260   4.693  13.562
70846ION    NA+35666  26.995  40.502   2.249
70847ION    NA+35667   5.714   7.233   4.894
70848ION    NA+35668  43.635  17.523  13.399
70849ION    NA+35669  29.297  10.698   4.192
70850ION    NA+35670  22.992  40.720   1.967
70851ION    NA+35671  29.110   7.307   1.198
70852ION    NA+35672   7.094  44.313  10.745
70853ION    NA+35673   8.817  40.260  12.500
70854ION    NA+35674  25.509   8.205  11.281
70855ION    NA+35675   6.174  28.036  11.903
70856ION    NA+35676  14.646  26.272   2.474
70857ION    NA+35677  19.765  19.207   3.624
70858ION    NA+35678  13.236  26.115   1.032
70859ION    NA+35679   2.424  41.354   4.111
70860ION    NA+35680  29.442  17.410  12.104
70861ION    NA+35681  43.244  24.507  14.795
70862ION    NA+35682   8.437   0.791   2.603
70863ION    NA+35683  17.243  26.969  11.176
70864ION    NA+35684  44.208  25.163  13.495
70865ION    NA+35685  27.897   3.167   2.852
70866ION    NA+35686   5.161  35.002   3.787
70867ION    NA+35687  38.469  24.890   3.346
70868ION    NA+35688  11.381  24.285   3.341
70869ION    NA+35689  14.723  15.171  14.243
70870ION    NA+35690  42.522  42.579  14.134
70871ION    NA+35691  22.723  37.383  12.629
70872ION    NA+35692  43.633  41.009   5.059
70873ION    NA+35693  27.801   6.217   3.396
70874ION    NA+35694  23.732   4.910   3.187
70875ION    NA+35695  17.055  24.508   3.581
70876ION    NA+35696  10.028  26.309   9.516
70877ION    NA+35697  12.677  40.524   1.804
70878ION    NA+35698  27.169   3.275   4.832
70879ION    NA+35699  33.517  40.723   0.694
70880ION    NA+35700  25.582   8.874   3.611
70881ION    NA+35701  27.474  28.720   1.861
70882ION    NA+35702  31.663  18.729   1.653
70883ION    NA+35703  15.035  40.548  11.796
70884ION    NA+35704  36.495  41.998   2.821
70885ION    NA+35705  13.146  18.249   0.386
70886ION    NA+35706  19.542  42.605  11.948
70887ION    NA+35707   5.347  21.874  14.944
70888ION    NA+35708  10.561  25.461  11.317
70889ION    NA+35709   3.941  39.783   2.592
70890ION    NA+35710   6.807  21.949  14.892
70891ION    NA+35711  20.383  17.612  11.229
70892ION    NA+35712  33.912  25.964   4.959
70893ION    NA+35713   3.464   3.683   3.260
70894ION    NA+35714  44.814  14.099   1.967
70895ION    NA+35715  29.244  10.079   4.870
70896ION    NA+35716  36.418   4.931   3.110
70897ION    NA+35717  40.343  34.414   0.448
70898ION    NA+35718  19.193  36.857   2.286
70899ION    NA+35719  22.190  32.626   0.816
70900ION    NA+35720  40.071   8.819  11.293
70901ION    NA+35721  31.382  41.793   1.804
70902ION    NA+35722   3.500  24.727   2.468
70903ION    NA+35723   7.200  37.387   2.386
70904ION    NA+35724  15.767  39.195   0.502
70905ION    NA+35725   4.845   1.640   4.958
70906ION    NA+35726   1.685   8.459   5.081
70907ION    NA+35727  40.649  33.861  13.056
70908ION    NA+35728  19.664  42.003   2.050
70909ION    NA+35729  36.330  30.569  13.421
70910ION    NA+35730   1.050   6.775  10.719
70911ION    NA+35731  41.125   7.353  14.992
70912ION    NA+35732  41.545  31.552   4.704
70913ION    NA+35733  19.614  24.030   5.542
70914ION    NA+35734  15.481   8.704   2.230
70915ION    NA+35735  30.105  24.976  12.945
70916ION    NA+35736  27.913  18.285   3.886
70917ION    NA+35737  20.759  39.998   1.175
70918ION    NA+35738  40.399  17.775  12.435
70919ION    NA+35739  14.208  44.008   1.177
70920ION    NA+35740  39.954  31.027  14.808
70921ION    NA+35741  32.944  23.424  10.690
70922ION    NA+35742   8.190  14.319  12.098
70923ION    NA+35743   5.915  37.507   3.197
70924ION    NA+35744   0.335  27.957   1.599
70925ION    NA+35745   6.514  18.194   4.932
70926ION    NA+35746  23.415  30.877  13.692
70927ION    NA+35747  41.582  42.879   3.662
70928ION    NA+35748   8.334  37.963  10.631
70929ION    NA+35749  22.220  13.472   2.251
70930ION    NA+35750   1.716  21.560   0.044
70931ION    NA+35751  23.134  37.986   3.320
70932ION    NA+35752  13.071  39.458  10.068
70933ION    NA+35753  35.074  39.059   0.884
70934ION    NA+35754  44.764  30.124   1.213
70935ION    NA+35755  10.969  35.199   1.420
70936ION    NA+35756   0.776  38.267   3.159
70937ION    NA+35757   5.746  12.386  11.352
70938ION    NA+35758  36.181  24.559   3.107
70939ION    NA+35759   7.652  25.581   0.314
70940ION    NA+35760   5.323  33.624  12.498
70941ION    NA+35761   6.628  17.969  14.069
70942ION    NA+35762  29.840  34.025   0.511
70943ION    NA+35763  37.427  16.289  13.154
70944ION    NA+35764  29.067  26.498  13.814
70945ION    NA+35765  42.665   1.059   1.483
70946ION    NA+35766   7.163  38.877   3.326
70947ION    NA+35767  43.160  31.851  13.217
70948ION    NA+35768  26.371   8.126   3.918
70949ION    NA+35769  12.587  20.492   2.917
70950ION    NA+35770  17.439  13.087  11.340
70951ION    NA+35771   3.324  36.160   1.979
70952ION    NA+35772  26.043  21.120  12.231
70953ION    NA+35773  15.335   7.624   5.058
70954ION    NA+35774  16.613  33.978   5.059
70955ION    NA+35775  12.915  23.131  13.409
70956ION    NA+35776  32.803   8.645   1.076
70957ION    NA+35777  26.884   6.782   4.024
70958ION    NA+35778  39.067  43.061  11.970
70959ION    NA+35779  17.908  44.352   1.053
70960ION    NA+35780  12.852  40.078  13.029
70961ION    NA+35781   6.125  37.409   1.558
70962ION    NA+35782  10.778  19.808  13.469
70963ION    NA+35783  26.906  42.881   0.366
70964ION    NA+35784  13.747   8.076  12.666
70965ION    NA+35785   5.736  11.450   0.404
70966ION    NA+35786  22.314   4.311  12.343
70967ION    NA+35787   9.419  36.955  11.264
70968ION    NA+35788  38.266  21.237  12.694
70969ION    NA+35789   5.907   2.554   3.983
70970ION    NA+35790  13.123   3.220   2.850
70971ION    NA+35791  39.745  13.159  13.300
70972ION    NA+35792  22.071   5.483   2.800
70973ION    NA+35793  19.234  11.083  14.048
70974ION    NA+35794  36.888   8.669  10.184
70975ION    NA+35795  22.542  19.206  12.020
70976ION    NA+35796  33.486  29.477  13.082
70977ION    NA+35797  26.235  22.054   3.249
70978ION    NA+35798  30.189   3.805  12.025
70979ION    NA+35799  26.236  28.213  13.983
70980ION    NA+35800  44.467   6.266   4.596
70981ION    NA+35801  40.293  16.707   0.353
70982ION    NA+35802  11.428  19.197   4.473
70983ION    NA+35803  37.426  32.223  14.800
70984ION    NA+35804  33.241   8.319  12.515
70985ION    NA+35805   5.162  22.451   2.835
70986ION    NA+35806  43.124   9.151  13.132
70987ION    NA+35807  16.114  37.072   0.952
70988ION    NA+35808  20.660  19.609   0.449
70989ION    NA+35809  40.993  23.725   1.082
70990ION    NA+35810  40.758  19.647   0.338
70991ION    NA+35811  40.845   4.847   3.382
70992ION    NA+35812  13.112   8.849  12.676
70993ION    NA+35813   0.943  17.006   1.372
70994ION    NA+35814   0.910   4.218  12.938
70995ION    NA+35815  19.422  10.469   0.456
70996ION    NA+35816  28.109  37.258  10.642
70997ION    NA+35817  30.993  18.557   0.931
70998ION    NA+35818   0.706   5.455  11.496
70999ION    NA+35819  22.805  40.736   1.083
71000ION    NA+35820  25.981  29.197  12.133
71001ION    NA+35821  21.726  10.900   1.623
71002ION    NA+35822  21.050  43.720  11.498
71003ION    NA+35823  27.709  13.910   4.064
71004ION    NA+35824  35.900  27.795   4.048
71005ION    NA+35825  40.328   7.191   3.407
71006ION    NA+35826  37.346  26.758   4.636
71007ION    NA+35827  26.902  26.908  12.008
71008ION    NA+35828  40.754   9.376  14.865
71009ION    NA+35829  38.538  30.141  14.409
71010ION    NA+35830   9.439  40.126  10.971
71011ION    NA+35831  11.454   9.221  11.511
71012ION    NA+35832   6.424   9.353   3.826
71013ION    NA+35833  44.311  33.185  10.628
71014ION    NA+35834  35.770  31.049   2.948
71015ION    NA+35835   8.280  24.592   3.744
71016ION    NA+35836   5.768  30.847   4.704
71017ION    NA+35837  13.099  17.342  12.111
71018ION    NA+35838  27.409  12.760  10.393
71019ION    NA+35839  27.098  33.151   9.743
71020ION    NA+35840  39.104   5.685   1.086
71021ION    NA+35841  29.042  44.445   3.198
71022ION    NA+35842   8.586  27.093   0.884
71023ION    NA+35843  14.817  18.747  11.565
71024ION    NA+35844  14.308  37.256   1.364
71025ION    NA+35845  41.958   6.160   4.113
71026ION    NA+35846   6.685  37.459  14.368
71027ION    NA+35847  26.241   5.264   3.711
71028ION    NA+35848  25.269  22.993   2.980
71029ION    NA+35849   4.007  13.103  13.390
71030ION    NA+35850   6.475  38.823  10.480
71031ION    NA+35851   9.822  25.241   3.569
71032ION    NA+35852  40.003   7.727   0.739
71033ION    NA+35853  16.618  30.827   5.348
71034ION    NA+35854  15.981  42.754  14.005
71035ION    NA+35855  32.725  43.723  11.163
71036ION    NA+35856  24.088  27.957   0.531
71037ION    NA+35857   2.344  29.546   0.841
71038ION    NA+35858  36.507   0.452  10.322
71039ION    NA+35859  33.107  40.799  11.890
71040ION    NA+35860  28.565  44.808   3.998
71041ION    NA+35861  11.058  35.947   5.257
71042ION    NA+35862   2.328  17.145   0.529
71043ION    NA+35863   7.594  10.206   4.518
71044ION    NA+35864  23.709  18.755  14.323
71045ION    NA+35865  18.947  26.069  11.987
71046ION    NA+35866   5.754   6.807   3.110
71047ION    NA+35867  38.423  26.033   4.139
71048ION    NA+35868  36.944  13.275   1.687
71049ION    NA+35869   0.906  21.164  10.742
71050ION    NA+35870  15.012  32.813   3.730
71051ION    NA+35871  44.490   6.823   1.336
71052ION    NA+35872   6.390  12.394  13.090
71053ION    NA+35873  18.679  32.193   1.212
71054ION    NA+35874  23.001  35.277   0.687
71055ION    NA+35875   1.941  32.300  14.923
71056ION    NA+35876   3.003  44.845  12.017
71057ION    NA+35877   9.945  29.573   0.477
71058ION    NA+35878  18.895  27.229  11.963
71059ION    NA+35879  22.543  38.285  13.093
71060ION    NA+35880  22.661   6.694   3.758
71061ION    NA+35881  20.313   8.324   0.966
71062ION    NA+35882   4.495  20.015  12.905
71063ION    NA+35883  37.357  27.195  14.361
71064ION    NA+35884  12.458  24.805   1.571
71065ION    NA+35885  22.841  26.344   4.500
71066ION    NA+35886   3.098  28.346   1.992
71067ION    NA+35887   8.810  21.112  12.837
71068ION    NA+35888  40.537   1.088  13.630
71069ION    NA+35889  25.288  30.645   1.690
71070ION    NA+35890  39.508   0.349   1.413
71071ION    NA+35891   2.164  37.406  11.149
71072ION    NA+35892  14.497  39.901  12.337
71073ION    NA+35893  27.253   1.107   1.992
71074ION    NA+35894  30.239  27.902  13.506
71075ION    NA+35895  39.053  17.290  11.953
71076ION    NA+35896  42.104  32.320   4.220
71077ION    NA+35897   2.034  29.468  10.919
71078ION    NA+35898  19.280  37.873  12.766
71079ION    NA+35899  12.000  22.515   1.614
71080ION    NA+35900  35.930  44.032  12.235
71081ION    NA+35901  17.282  15.010  13.039
71082ION    NA+35902  13.742  31.939  11.072
71083ION    NA+35903  19.661  14.232   1.139
71084ION    NA+35904  15.612  22.085  12.080
71085ION    NA+35905   1.640   8.377  12.307
71086ION    NA+35906  11.557  38.942   0.998
71087ION    NA+35907  13.414  27.241   3.806
71088ION    NA+35908   7.700  29.008   1.101
71089ION    NA+35909   1.413  25.229   0.370
71090ION    NA+35910   6.112  27.023   0.667
71091ION    NA+35911  25.403  21.664   1.336
71092ION    NA+35912   8.080  14.491  14.811
71093ION    NA+35913  36.230  34.291   2.776
71094ION    NA+35914   7.754  44.143   0.921
71095ION    NA+35915  28.158   5.931  13.056
71096ION    NA+35916   0.912   7.221  14.005
71097ION    NA+35917  13.613  35.293   4.505
71098ION    NA+35918  11.789  15.912   2.417
71099ION    NA+35919  19.755  44.743   1.495
71100ION    NA+35920   6.870  42.219  11.214
71101ION    NA+35921  25.245  42.751  13.884
71102ION    NA+35922  22.566  28.419   0.913
71103ION    NA+35923  21.482  38.318   3.511
71104ION    NA+35924  13.319  40.304   2.800
71105ION    NA+35925  43.807  13.375  13.978
71106ION    NA+35926   0.560  27.434   2.786
71107ION    NA+35927  41.028  24.932   1.832
71108ION    NA+35928  15.064  34.589   3.445
71109ION    NA+35929  37.294  33.033   0.196
71110ION    NA+35930  16.844  17.795  13.612
71111ION    NA+35931  38.436  44.291  13.449
71112ION    NA+35932  33.220  14.583   2.042
71113ION    NA+35933  37.296   7.479   3.801
71114ION    NA+35934   2.431  23.197  11.640
71115ION    NA+35935   9.973  12.011   2.051
71116ION    NA+35936  11.925  26.508  10.745
71117ION    NA+35937  33.202  41.184   3.346
71118ION    NA+35938  37.603  25.192  12.544
71119ION    NA+35939  15.180  24.732  13.493
71120ION    NA+35940  21.901  18.913   5.425
71121ION    NA+35941  26.093  26.915   0.717
71122ION    NA+35942  44.824  21.246   0.915
71123ION    NA+35943  11.782  23.408   3.606
71124ION    NA+35944  39.517   9.067  14.049
71125ION    NA+35945  14.107  15.034   0.018
71126ION    NA+35946  14.062  31.624   0.381
71127ION    NA+35947  34.026  24.723  12.991
71128ION    NA+35948  24.623  38.389  12.999
71129ION    NA+35949  24.133  26.187   3.442
71130ION    NA+35950   7.985  39.746  11.945
71131ION    NA+35951  35.861  10.162   1.810
71132ION    NA+35952  40.639  31.069  11.723
71133ION    NA+35953   5.533  31.083  14.550
71134ION    NA+35954  13.272  32.829   2.683
71135ION    NA+35955  30.511  10.777   4.317
71136ION    NA+35956  27.886  15.249   4.368
71137ION    NA+35957   1.773   9.708   3.552
71138ION    NA+35958  38.252  34.532  14.469
71139ION    NA+35959  35.129  11.637  13.344
71140ION    NA+35960  33.154   9.845  13.327
71141ION    NA+35961   9.707  43.292  12.182
71142ION    NA+35962  14.142  38.380   5.545
71143ION    NA+35963  11.483  40.819  12.747
71144ION    NA+35964   9.556  25.995   2.133
71145ION    NA+35965  21.637  35.330   3.268
71146ION    NA+35966  13.702  18.810   3.254
71147ION    NA+35967  20.246  15.566   1.543
71148ION    NA+35968  36.862   9.477   3.306
71149ION    NA+35969  36.223  26.987   1.029
71150ION    NA+35970  15.174  13.088  13.837
71151ION    NA+35971  17.659  33.563   1.354
71152ION    NA+35972  19.676  22.575   2.795
71153ION    NA+35973  34.131  44.395   0.804
71154ION    NA+35974  20.997  44.373  13.863
71155ION    NA+35975  11.512  43.993  13.944
71156ION    NA+35976  15.531  16.281   0.275
71157ION    NA+35977   1.441  23.647   4.300
71158ION    NA+35978  21.014  32.065   4.036
71159ION    NA+35979   7.114  34.145  10.761
71160ION    NA+35980   3.193  19.634   4.818
71161ION    NA+35981  39.394  14.077  10.782
71162ION    NA+35982  16.928  21.316  12.826
71163ION    NA+35983  10.661  31.615   1.029
71164ION    NA+35984   5.193  38.867   3.328
71165ION    NA+35985  26.181   7.686   2.533
71166ION    NA+35986  36.124  16.609  14.275
71167ION    NA+35987   0.494  44.342   1.298
71168ION    NA+35988  12.862  15.770   0.071
71169ION    NA+35989  42.367  21.127   4.052
71170ION    NA+35990  21.025  14.958  10.618
71171ION    NA+35991   3.913   1.203   0.818
71172ION    NA+35992  32.428  31.177  13.090
71173ION    NA+35993  23.044   4.185   4.620
71174ION    NA+35994  21.548  42.483  12.299
71175ION    NA+35995  29.701  31.115  11.484
71176ION    NA+35996  36.428  18.687   1.010
71177ION    NA+35997  22.809   7.834  13.129
71178ION    NA+35998  32.377  14.102  11.888
71179ION    NA+35999  18.340  26.280  13.451
71180ION    NA+36000  24.412  28.461  14.594
71181ION    NA+36001  13.297  29.212  14.870
71182ION    NA+36002  41.416  12.631   4.171
71183ION    NA+36003   2.432   7.322  12.172
71184ION    NA+36004  14.160  27.107   4.277
71185ION    NA+36005   4.321  40.093   3.291
71186ION    NA+36006  26.990   0.197  11.873
71187ION    NA+36007   1.337  44.897   0.454
71188ION    NA+36008   9.891   0.260  13.585
71189ION    NA+36009  40.018  27.654   4.000
71190ION    NA+36010  34.280  14.132  11.349
71191ION    NA+36011  26.754   5.826  13.002
71192ION    NA+36012  40.615  25.805  11.777
71193ION    NA+36013  24.033  24.232   0.826
71194ION    NA+36014  31.923  40.866   2.143
71195ION    NA+36015  36.444  16.917   0.171
71196ION    NA+36016  31.326   5.209   2.659
71197ION    NA+36017  32.977  13.207  14.449
71198ION    NA+36018  39.970  22.465   3.818
71199ION    NA+36019   2.706  34.568   4.617
71200ION    NA+36020  19.403  35.018   4.203
71201ION    NA+36021  29.097  37.484   3.347
71202ION    NA+36022  38.281  33.509  11.332
71203ION    NA+36023  28.695  15.638   2.437
71204ION    NA+36024   8.440  10.646   2.556
71205ION    NA+36025  25.562  26.598   4.455
71206ION    NA+36026  14.378   3.590   2.562
71207ION    NA+36027   9.584  30.621  13.494
71208ION    NA+36028  36.619  18.610  14.936
71209ION    NA+36029   1.255  43.007   1.926
71210ION    NA+36030  12.333  16.342  11.152
71211ION    NA+36031  22.929  29.479   4.097
71212ION    NA+36032  11.308  18.348   1.709
71213ION    NA+36033  10.745   6.451  12.434
71214ION    NA+36034  17.684  37.531   3.562
71215ION    NA+36035  35.268  21.254   2.680
71216ION    NA+36036  25.933   7.301  11.223
71217ION    NA+36037  22.339  38.059   4.477
71218ION    NA+36038  28.360  28.975  11.236
71219ION    NA+36039  23.203  36.508  12.691
71220ION    NA+36040  19.325   7.034   3.443
71221ION    NA+36041  36.372  35.582   4.304
71222ION    NA+36042  16.145  40.958  11.166
71223ION    NA+36043   9.547  30.703  10.625
71224ION    NA+36044   0.954  40.208   4.109
71225ION    NA+36045  35.160   5.512   4.367
71226ION    NA+36046  37.407   4.539   5.115
71227ION    NA+36047   7.768  28.411  14.925
71228ION    NA+36048  38.630  34.763   4.041
71229ION    NA+36049  31.576  16.082   1.391
71230ION    NA+36050  11.465   2.288   4.085
71231ION    NA+36051  30.736  43.597  12.645
71232ION    NA+36052  34.692  31.701   3.539
71233ION    NA+36053  38.428  16.601  11.584
71234ION    NA+36054  14.096  34.769   1.661
71235ION    NA+36055   8.880  23.126  10.982
71236ION    NA+36056  38.212  34.302   5.366
71237ION    NA+36057  14.572  11.291  13.068
71238ION    NA+36058  17.966  21.095  13.455
71239ION    NA+36059  33.678   5.629  14.428
71240ION    NA+36060   4.344  11.340  13.910
71241ION    NA+36061  36.735  22.453  12.776
71242ION    NA+36062  21.952  13.238   1.473
71243ION    NA+36063  42.428  36.434  12.933
71244ION    NA+36064   7.172  42.548  13.532
71245ION    NA+36065  43.881  44.914   4.775
71246ION    NA+36066  20.787  18.186  11.796
71247ION    NA+36067  29.848  34.783   2.884
71248ION    NA+36068  41.503  24.068  11.166
71249ION    NA+36069   8.524  43.203   3.110
71250ION    NA+36070  21.608  16.016   2.814
71251ION    NA+36071  36.853  21.370  14.904
71252ION    NA+36072  15.068  40.486  10.893
71253ION    NA+36073  15.218  34.687   2.597
71254ION    NA+36074  10.413  41.020   4.154
71255ION    NA+36075  16.233  32.603   3.172
71256ION    NA+36076  14.331  19.484   4.784
71257ION    NA+36077  33.735   2.472  14.961
71258ION    NA+36078   4.407  29.439   0.622
71259ION    NA+36079  15.393  33.529  14.017
71260ION    NA+36080  21.359   7.515   3.015
71261ION    NA+36081   3.481   2.489  10.911
71262ION    NA+36082  14.618  25.879   1.554
71263ION    NA+36083   3.280  34.342  12.655
71264ION    NA+36084  17.268  13.787  10.491
71265ION    NA+36085   7.090  39.620   3.251
71266ION    NA+36086  40.062  28.517  13.802
71267ION    NA+36087  23.837   0.124  11.201
71268ION    NA+36088   0.545  39.042   9.869
71269ION    NA+36089  11.695   5.982   3.389
71270ION    NA+36090   4.663  12.998   1.452
71271ION    NA+36091  41.422  17.190   0.062
71272ION    NA+36092  31.582  11.891   0.497
71273ION    NA+36093  15.831  33.897  14.953
71274ION    NA+36094  31.838   6.209  14.782
71275ION    NA+36095  33.798   5.919   3.297
71276ION    NA+36096  27.962  41.242   1.597
71277ION    NA+36097  24.529  30.624   4.351
71278ION    NA+36098  25.096  42.529   2.773
71279ION    NA+36099  40.487  28.462  12.882
71280ION    NA+36100  33.355  14.306  11.688
71281ION    NA+36101  22.228  40.814  12.063
71282ION    NA+36102  41.563   9.781   3.143
71283ION    NA+36103  31.202  32.001   4.339
71284ION    NA+36104  29.503  36.509   0.458
71285ION    NA+36105  20.852  39.186   2.025
71286ION    NA+36106  28.361  16.728  11.192
71287ION    NA+36107  35.428  23.201   4.366
71288ION    NA+36108   9.206  11.629   4.064
71289ION    NA+36109  37.846   6.295  11.596
71290ION    NA+36110  21.904   1.308  10.365
71291ION    NA+36111  40.362  30.626   1.348
71292ION    NA+36112  41.344  14.763   3.046
71293ION    NA+36113  27.182  42.271   1.612
71294ION    NA+36114  34.878   9.379  10.356
71295ION    NA+36115  15.084   4.382   0.302
71296ION    NA+36116  43.200   8.232   3.875
71297ION    NA+36117   0.451  34.376  10.651
71298ION    NA+36118  38.899  43.639  11.309
71299ION    NA+36119   9.292   3.991   0.876
71300ION    NA+36120  31.941  14.054   1.894
71301ION    NA+36121  28.600  16.734   3.420
71302ION    NA+36122  44.485  20.439  11.283
71303ION    NA+36123  30.428  31.958  12.165
71304ION    NA+36124  15.167  29.588   0.177
71305ION    NA+36125  24.418  38.538  14.303
71306ION    NA+36126  16.866  22.287  13.399
71307ION    NA+36127  43.048  41.413  13.818
71308ION    NA+36128   2.975  25.011  11.521
71309ION    NA+36129  22.278   3.766  14.405
71310ION    NA+36130  23.927   3.338  12.763
71311ION    NA+36131  35.908  39.789  11.138
71312ION    NA+36132  27.776  24.609   4.800
71313ION    NA+36133  41.477  30.759   4.376
71314ION    NA+36134  44.211  41.787  13.127
71315ION    NA+36135  11.222  42.727   4.593
71316ION    NA+36136  43.462  30.235  13.677
71317ION    NA+36137  29.868  13.344   1.851
71318ION    NA+36138  26.208  24.725   2.649
71319ION    NA+36139   8.935   1.439   0.647
71320ION    NA+36140  12.401  19.026  10.694
71321ION    NA+36141  42.516  37.689   0.106
71322ION    NA+36142  43.897   4.714   4.088
71323ION    NA+36143  31.635   3.638  11.107
71324ION    NA+36144  20.939  25.071   5.163
71325ION    NA+36145  31.961  39.025   2.672
71326ION    NA+36146  20.122  14.005  14.311
71327ION    NA+36147  43.449   2.295  11.577
71328ION    NA+36148  44.516  36.364  14.831
71329ION    NA+36149  42.737  22.054   3.987
71330ION    NA+36150  29.424  37.573  12.843
71331ION    NA+36151  31.749  35.230  13.764
71332ION    NA+36152  28.921  32.882  12.307
71333ION    NA+36153  40.733  16.114   1.352
71334ION    NA+36154  17.511  21.592   0.374
71335ION    NA+36155  24.368   8.536   5.527
71336ION    NA+36156  22.701  20.534   2.209
71337ION    NA+36157  35.643  27.430  11.469
71338ION    NA+36158   8.986   8.403  10.752
71339ION    NA+36159  23.181  15.157   0.391
71340ION    NA+36160  13.915  44.853   0.730
71341ION    NA+36161   3.673  19.160  14.699
71342ION    NA+36162  31.844  21.161  13.988
71343ION    NA+36163  31.431  31.151  13.018
71344ION    NA+36164  29.598  13.106  13.782
71345ION    NA+36165  10.366   8.039   3.294
71346ION    NA+36166  31.959  43.490   0.786
71347ION    NA+36167   7.855  32.591  11.423
71348ION    NA+36168  11.889  17.534   0.695
71349ION    NA+36169   3.625  44.361  12.632
71350ION    NA+36170  22.943   3.950  11.192
71351ION    NA+36171   1.261  39.642  13.071
71352ION    NA+36172  18.975  29.991  12.230
71353ION    NA+36173  17.595  10.370  11.432
71354ION    NA+36174   3.729  18.047  14.421
71355ION    NA+36175  11.444  12.668   3.581
71356ION    NA+36176  28.173  22.670   1.329
71357ION    NA+36177  26.928   5.547   2.590
71358ION    NA+36178  18.917  28.449  12.256
71359ION    NA+36179  23.434  21.595  13.911
71360ION    NA+36180  27.723  13.770  13.046
71361ION    NA+36181  18.275  36.108  11.724
71362ION    NA+36182  37.875  38.850  11.943
71363ION    NA+36183   0.225  18.111   3.799
71364ION    NA+36184  30.856  31.906  13.550
71365ION    NA+36185   6.300  17.945  12.960
71366ION    NA+36186  16.841  33.306   9.717
71367ION    NA+36187  36.069   2.546   2.008
71368ION    NA+36188   4.649  29.218   1.482
71369ION    NA+36189  12.177  15.139   1.258
71370ION    NA+36190  43.634  15.119   0.285
71371ION    NA+36191  20.191  36.179   0.033
71372ION    NA+36192  22.607  32.125  12.288
71373ION    NA+36193   7.398  25.536  13.905
71374ION    NA+36194  44.715  26.318  10.792
71375ION    NA+36195  34.752   9.805   4.223
71376ION    NA+36196  40.787  23.511  11.092
71377ION    NA+36197  37.117  27.007   1.202
71378ION    NA+36198  13.462  22.480  11.880
71379ION    NA+36199  28.736  32.502  13.333
71380ION    NA+36200  30.441  35.484   1.492
71381ION    NA+36201  27.168  37.289   3.894
71382ION    NA+36202   6.946  42.042   3.671
71383ION    NA+36203  41.107  37.396   4.957
71384ION    NA+36204   6.860  13.751  11.158
71385ION    NA+36205  33.310  24.457  12.345
71386ION    NA+36206  18.191  32.934  10.750
71387ION    NA+36207  20.417   7.005   0.037
71388ION    NA+36208  26.176  39.695  13.830
71389ION    NA+36209  17.636   5.507  13.289
71390ION    NA+36210  20.947  15.661   4.125
71391ION    NA+36211  19.131   4.087   0.738
71392ION    NA+36212  26.157  22.613   2.588
71393ION    NA+36213   4.742   2.754   1.957
71394ION    NA+36214  39.549  11.945  11.485
71395ION    NA+36215  12.260   1.854  14.309
71396ION    NA+36216   5.213  29.032  12.756
71397ION    NA+36217  17.078  42.996   0.919
71398ION    NA+36218  42.128  16.320   1.281
71399ION    NA+36219  23.142  10.415  12.732
71400ION    NA+36220  39.296  10.129  13.407
71401ION    NA+36221   3.285  23.661   0.209
71402ION    NA+36222  18.349  39.726  11.790
71403ION    NA+36223  38.490  40.201  11.796
71404ION    NA+36224  24.167   4.253  12.438
71405ION    NA+36225  40.439  27.464  12.829
71406ION    NA+36226  39.242   2.801  10.618
71407ION    NA+36227  42.784  10.958  12.447
71408ION    NA+36228   9.052  43.037  11.193
71409ION    NA+36229  42.745  20.558  11.204
71410ION    NA+36230  28.174  18.072  10.708
71411ION    NA+36231  13.154  20.267   4.281
71412ION    NA+36232   6.444  37.344  13.052
71413ION    NA+36233  43.173  12.083  12.211
71414ION    NA+36234  38.781   5.143   0.476
71415ION    NA+36235  28.407  21.783   3.512
71416ION    NA+36236  31.336   2.548   2.511
71417ION    NA+36237  40.641  44.519   0.069
71418ION    NA+36238  37.090  44.956   1.946
71419ION    NA+36239  39.562   9.591  12.051
71420ION    NA+36240   1.461   3.966  13.933
71421ION    NA+36241  38.892   0.737   2.314
71422ION    NA+36242   6.011  38.264   1.629
71423ION    NA+36243  15.765   3.877   3.687
71424ION    NA+36244  13.741  28.539   0.462
71425ION    NA+36245   0.527   3.664  13.744
71426ION    NA+36246  35.624   8.188  13.490
71427ION    NA+36247   7.703  29.911  11.905
71428ION    NA+36248  31.209   0.427  13.919
71429ION    NA+36249  20.623  24.392  11.411
71430ION    NA+36250   7.158  42.199  14.383
71431ION    NA+36251  10.530  28.345  13.367
71432ION    NA+36252   3.366  24.052   1.705
71433ION    NA+36253   5.902  43.529  14.907
71434ION    NA+36254  18.961   5.217   1.683
71435ION    NA+36255   2.502  31.517  12.049
71436ION    NA+36256  13.923  16.260   1.382
71437ION    NA+36257  37.549  25.002   2.409
71438ION    NA+36258  13.661  22.519  14.482
71439ION    NA+36259  41.518  15.497   1.292
71440ION    NA+36260  40.616  20.350   3.150
71441ION    NA+36261  18.165  41.077  11.562
71442ION    NA+36262   6.809  26.266   5.434
71443ION    NA+36263  44.553  37.414  10.304
71444ION    NA+36264  11.173  30.999  12.902
71445ION    NA+36265  33.714  25.718  13.042
71446ION    NA+36266  18.098  32.981   3.277
71447ION    NA+36267  34.571  40.578   4.422
71448ION    NA+36268  14.158  17.213  13.049
71449ION    NA+36269  44.076  18.617  11.981
71450ION    NA+36270  14.589  14.770  11.445
71451ION    NA+36271  18.747  15.681   2.584
71452ION    NA+36272  28.916   2.812   3.774
71453ION    NA+36273  10.127  13.405  10.251
71454ION    NA+36274  19.568   6.781  14.976
71455ION    NA+36275   7.270   0.633  10.708
71456ION    NA+36276  41.113  27.493  12.069
71457ION    NA+36277  12.152   9.826  12.402
71458ION    NA+36278  35.498  21.607  12.638
71459ION    NA+36279  19.707  25.900   3.993
71460ION    NA+36280  26.709  39.460   1.853
71461ION    NA+36281  14.376  10.765   0.454
71462ION    NA+36282  15.286   6.391  14.066
71463ION    NA+36283  32.985   0.859   1.621
71464ION    NA+36284  11.829  12.669  12.506
71465ION    NA+36285  34.901  37.400   0.887
71466ION    NA+36286  40.144  44.793   2.860
71467ION    NA+36287  15.565  44.400   1.838
71468ION    NA+36288   3.594  34.801   1.759
71469ION    NA+36289   2.203   0.557   3.215
71470ION    NA+36290  32.038  31.217   2.727
71471ION    NA+36291  29.709   7.239   2.872
71472ION    NA+36292  17.194  17.679   1.172
71473ION    NA+36293  39.034   2.417   2.068
71474ION    NA+36294   4.735  17.778   2.207
71475ION    NA+36295  20.512  23.427  14.693
71476ION    NA+36296  13.894   5.100   0.389
71477ION    NA+36297   4.272   2.966  12.478
71478ION    NA+36298   1.803   0.163   2.513
71479ION    NA+36299  30.214  21.346   0.124
71480ION    NA+36300  27.887  31.900  11.261
71481ION    NA+36301  21.531  16.676   0.460
71482ION    NA+36302   7.022   8.971  14.781
71483ION    NA+36303   0.417   5.226   0.850
71484ION    NA+36304  30.522  43.805   1.921
71485ION    NA+36305  14.581  16.556  10.698
71486ION    NA+36306  23.989   4.891  11.689
71487ION    NA+36307  21.718  22.074   0.080
71488ION    NA+36308   8.940  19.848   4.591
71489ION    NA+36309  33.167   3.921   0.647
71490ION    NA+36310  43.406  17.870  12.030
71491ION    NA+36311  29.529   2.032   3.329
71492ION    NA+36312  27.945  30.638   2.346
71493ION    NA+36313  18.988  27.707  12.968
71494ION    NA+36314  37.435  24.643   4.734
71495ION    NA+36315  40.784  24.120  12.401
71496ION    NA+36316  15.092   9.455   3.172
71497ION    NA+36317   8.819  22.422  11.690
71498ION    NA+36318  33.070  42.314   0.137
71499ION    NA+36319  31.346  39.693   2.617
71500ION    NA+36320  19.156   2.195   0.962
71501ION    NA+36321   4.264  19.123  10.859
71502ION    NA+36322  21.450  42.426  13.491
71503ION    NA+36323  31.439  38.229  13.507
71504ION    NA+36324  26.512   6.787  13.139
71505ION    NA+36325  38.091  15.639   5.029
71506ION    NA+36326  29.457   0.574  10.162
71507ION    NA+36327   5.245  31.932  13.137
71508ION    NA+36328  14.699  15.391   2.939
71509ION    NA+36329  17.194   0.867   4.226
71510ION    NA+36330  33.493  28.161  13.595
71511ION    NA+36331  13.989  22.604   3.696
71512ION    NA+36332  16.256   5.783  13.555
71513ION    NA+36333  31.876   6.257   4.531
71514ION    NA+36334  37.148  30.807   2.151
71515ION    NA+36335   8.192  16.881   2.591
71516ION    NA+36336   0.542   4.820   2.522
71517ION    NA+36337  25.185  26.598   2.141
71518ION    NA+36338  36.511   8.799  14.999
71519ION    NA+36339   3.077  32.610   2.639
71520ION    NA+36340  18.019  29.106   1.880
71521ION    NA+36341  12.001   9.449   3.833
71522ION    NA+36342  41.636  40.653   3.947
71523ION    NA+36343  10.967  10.633   4.154
71524ION    NA+36344  42.026  11.162   9.389
71525ION    NA+36345   4.911   9.575  12.292
71526ION    NA+36346  37.306  40.695  14.253
71527ION    NA+36347  36.800  17.007   1.931
71528ION    NA+36348  18.697  19.699  14.216
71529ION    NA+36349  13.912   1.848  14.533
71530ION    NA+36350  22.282  19.608   4.086
71531ION    NA+36351  40.315  26.758  10.725
71532ION    NA+36352  18.533  40.545   0.382
71533ION    NA+36353  23.734  11.958   0.914
71534ION    NA+36354  32.857   4.535   3.294
71535ION    NA+36355   0.438   7.800  11.615
71536ION    NA+36356   0.285  32.065  11.491
71537ION    NA+36357  29.726  34.083   3.229
71538ION    NA+36358   8.314  20.945   2.605
71539ION    NA+36359  37.553  41.041  12.092
71540ION    NA+36360  35.743  15.901  11.183
71541ION    NA+36361   4.380   4.328  14.882
71542ION    NA+36362  43.229  14.149  14.256
71543ION    NA+36363  27.825  39.031  11.303
71544ION    NA+36364  35.320  41.938  12.866
71545ION    NA+36365   2.818  10.378  14.342
71546ION    NA+36366  39.477  44.403  13.388
71547ION    NA+36367  31.272  19.586   4.613
71548ION    NA+36368  20.267  35.225  14.741
71549ION    NA+36369  22.367   5.033  12.740
71550ION    NA+36370  27.694  27.684  12.822
71551ION    NA+36371  34.342  39.211  12.084
71552ION    NA+36372  36.510  35.151   2.763
71553ION    NA+36373  27.535  11.739  10.871
71554ION    NA+36374  38.030  25.334   0.351
71555ION    NA+36375  33.679  25.040   2.450
71556ION    NA+36376  30.563   4.462   3.724
71557ION    NA+36377  38.636  28.959   2.580
71558ION    NA+36378  35.312  40.565  10.873
71559ION    NA+36379   7.149  12.761   3.257
71560ION    NA+36380  14.553   8.476   1.407
71561ION    NA+36381  36.806   5.692   1.202
71562ION    NA+36382   9.519  40.905   3.721
71563ION    NA+36383  42.883   6.867   3.270
71564ION    NA+36384  20.283  39.023  11.126
71565ION    NA+36385  17.362  35.886  11.382
71566ION    NA+36386  40.432  30.020   1.967
71567ION    NA+36387  30.324  39.920   4.309
71568ION    NA+36388   5.854  29.006  11.515
71569ION    NA+36389  37.486  19.421  12.507
71570ION    NA+36390  27.507  44.712  13.703
71571ION    NA+36391  44.717  20.023   4.459
71572ION    NA+36392  38.976   9.574  14.519
71573ION    NA+36393  27.120   8.606   3.940
71574ION    NA+36394  14.209  23.316  13.818
71575ION    NA+36395  24.922  26.727   5.212
71576ION    NA+36396  24.929  42.787   1.249
71577ION    NA+36397  10.279   0.837   0.260
71578ION    NA+36398   7.829   4.582   4.413
71579ION    NA+36399  34.468  39.199  14.526
71580ION    NA+36400  28.302  20.412   2.470
71581ION    NA+36401  19.344  29.120  11.884
71582ION    NA+36402   0.958   0.698   2.213
71583ION    NA+36403   1.728  23.758   3.154
71584ION    NA+36404  37.926  26.675  14.998
71585ION    NA+36405  19.668  33.069  12.687
71586ION    NA+36406  30.875  15.782  14.796
71587ION    NA+36407  39.897   8.837  12.632
71588ION    NA+36408  33.633  33.575   2.141
71589ION    NA+36409   8.126   7.183  11.670
71590ION    NA+36410  34.437   9.141  14.854
71591ION    NA+36411  32.294  28.182   2.191
71592ION    NA+36412  13.344   0.859  12.913
71593ION    NA+36413   5.081   4.532  12.169
71594ION    NA+36414   0.837  40.978  14.436
71595ION    NA+36415   1.856  18.131  14.777
71596ION    NA+36416  10.985  19.110   5.410
71597ION    NA+36417  39.710  27.520   4.942
71598ION    NA+36418  43.330  36.840  13.513
71599ION    NA+36419  12.021  12.495   4.108
71600ION    NA+36420  34.875  38.384   0.091
71601ION    NA+36421   6.662  27.455   2.261
71602ION    NA+36422  17.073  30.966   1.281
71603ION    NA+36423  16.139  41.479   2.864
71604ION    NA+36424   8.427  21.943   4.793
71605ION    NA+36425  35.008  37.011   4.441
71606ION    NA+36426  25.622  29.680  14.702
71607ION    NA+36427  32.136  19.470   4.121
71608ION    NA+36428  35.626  30.281   1.123
71609ION    NA+36429  14.073  14.410   0.843
71610ION    NA+36430  19.519  41.717  12.089
71611ION    NA+36431  40.983  26.318  12.772
71612ION    NA+36432  30.108  31.073   0.326
71613ION    NA+36433  16.351  28.012   9.870
71614ION    NA+36434   2.209  39.232   0.245
71615ION    NA+36435  20.314  10.522  11.221
71616ION    NA+36436  15.635  39.759  11.948
71617ION    NA+36437  33.834  19.680  13.084
71618ION    NA+36438  15.501   1.564   0.359
71619ION    NA+36439  39.015  25.163   0.407
71620ION    NA+36440   8.819  44.550   3.244
71621ION    NA+36441  37.924  22.943  13.065
71622ION    NA+36442  40.451   2.585   0.677
71623ION    NA+36443   1.136  11.024  11.324
71624ION    NA+36444  33.920  27.066  14.351
71625ION    NA+36445  12.370  17.154   2.746
71626ION    NA+36446  28.835  31.629  11.614
71627ION    NA+36447   8.283  20.219   1.302
71628ION    NA+36448  35.340  20.505   3.066
71629ION    NA+36449  26.655   0.201  13.891
71630ION    NA+36450   4.312  43.404  14.949
71631ION    NA+36451  32.900  25.150   1.833
71632ION    NA+36452  23.491   5.859   1.753
71633ION    NA+36453  19.467  23.996   5.037
71634ION    NA+36454  12.912   4.783   1.428
71635ION    NA+36455  43.886  23.616  13.078
71636ION    NA+36456  31.257  38.014  11.317
71637ION    NA+36457  35.409  40.183   4.045
71638ION    NA+36458   5.757   7.346   1.709
71639ION    NA+36459   1.821  11.915   1.649
71640ION    NA+36460  22.119  12.892   3.388
71641ION    NA+36461  37.602  15.944   0.789
71642ION    NA+36462  14.457  34.220   0.013
71643ION    NA+36463  41.461  18.223   4.208
71644ION    NA+36464  11.786  20.285  13.776
71645ION    NA+36465   7.741   9.902   1.813
71646ION    NA+36466  35.060  41.331   3.015
71647ION    NA+36467  21.491  23.112   4.227
71648ION    NA+36468   1.093  16.467   4.629
71649ION    NA+36469  26.850  44.557  14.441
71650ION    NA+36470  33.288  44.261   0.543
71651ION    NA+36471  22.435  20.967  12.583
71652ION    NA+36472   8.809  23.601   0.436
71653ION    NA+36473  15.514  10.767  12.036
71654ION    NA+36474  44.224   2.874   0.643
71655ION    NA+36475  42.237   0.148   0.138
71656ION    NA+36476  35.261  38.173  12.367
71657ION    NA+36477   3.718  20.983  12.464
71658ION    NA+36478  29.427   1.184   3.849
71659ION    NA+36479   1.189  27.739   2.071
71660ION    NA+36480  17.010   9.499   3.749
71661ION    NA+36481  28.173  22.285  13.793
71662ION    NA+36482  15.679   0.585  10.340
71663ION    NA+36483  12.144  22.813   0.671
71664ION    NA+36484  13.333  14.816   3.066
71665ION    NA+36485  21.117  40.208   4.067
71666ION    NA+36486  12.987   7.831   3.985
71667ION    NA+36487  44.330  11.939  10.711
71668ION    NA+36488  42.871  31.284  11.646
71669ION    NA+36489  41.875  23.428  12.792
71670ION    NA+36490  16.378  43.646  13.791
71671ION    NA+36491  42.930  21.549   3.126
71672ION    NA+36492   7.605  37.246  10.050
71673ION    NA+36493  25.389  11.904   4.536
71674ION    NA+36494  24.852   9.153  11.568
71675ION    NA+36495  27.552  38.870   2.664
71676ION    NA+36496  30.598  21.541   3.627
71677ION    NA+36497   6.355  35.408  12.380
71678ION    NA+36498  15.691  42.667   1.679
71679ION    NA+36499  10.146  18.504   0.661
71680ION    NA+36500  29.724  32.926  13.416
71681ION    NA+36501  30.638   5.190   0.053
71682ION    NA+36502   3.318   1.182  14.970
71683ION    NA+36503  16.524  12.498  14.252
71684ION    NA+36504  14.274  15.797   9.638
71685ION    NA+36505  41.436  42.786   2.338
71686ION    NA+36506  17.521  28.190  11.189
71687ION    NA+36507  32.992   0.397  11.145
71688ION    NA+36508  11.398   3.258   0.303
71689ION    NA+36509  37.680   3.957   2.098
71690ION    NA+36510  12.294   5.123  13.218
71691ION    NA+36511  28.398   5.250   1.903
71692ION    NA+36512  24.494  37.245   3.734
71693ION    NA+36513  32.015  43.804   9.842
71694ION    NA+36514  37.729  30.406  11.969
71695ION    NA+36515  30.040  22.434  14.109
71696ION    NA+36516   5.178  28.675  14.405
71697ION    NA+36517   5.076  15.832   5.086
71698ION    NA+36518  26.435  17.539   4.540
71699ION    NA+36519  10.663  14.690   3.084
71700ION    NA+36520   3.349  40.423  14.461
71701ION    NA+36521  36.566  40.903  12.992
71702ION    NA+36522   0.201  43.020  13.887
71703ION    NA+36523   9.942  17.410  14.763
71704ION    NA+36524  17.981  35.218  10.971
71705ION    NA+36525  28.472  20.517  11.023
71706ION    NA+36526  21.006  44.459   1.710
71707ION    NA+36527   4.947  12.147   2.782
71708ION    NA+36528  18.753  39.045   2.801
71709ION    NA+36529  25.507   7.342  12.410
71710ION    NA+36530   6.585  39.336   1.134
71711ION    NA+36531   9.445  14.823   2.924
71712ION    NA+36532  10.614  12.533  10.212
71713ION    NA+36533   3.628  32.826   0.369
71714ION    NA+36534  24.025  39.288   2.791
71715ION    NA+36535  40.763  10.717  14.709
71716ION    NA+36536   8.650  25.186   3.014
71717ION    NA+36537  42.449  21.226   1.439
71718ION    NA+36538  16.515  23.105  12.726
71719ION    NA+36539  42.453  28.411  12.477
71720ION    NA+36540  14.074   2.899  11.573
71721ION    NA+36541  18.407  18.835   0.610
71722ION    NA+36542  33.710  42.974   1.810
71723ION    NA+36543  40.447   6.531   4.018
71724ION    NA+36544  31.629  25.236  13.949
71725ION    NA+36545  37.742  29.856   3.068
71726ION    NA+36546  29.626  29.282   1.519
71727ION    NA+36547  15.489  13.973  13.493
71728ION    NA+36548  28.090  19.535  10.707
71729ION    NA+36549  43.670  15.174   3.717
71730ION    NA+36550  29.772  23.938   3.029
71731ION    NA+36551  32.587  42.761   1.260
71732ION    NA+36552  36.531  36.610  13.420
71733ION    NA+36553  35.806  23.324  11.242
71734ION    NA+36554  34.194  11.820  13.650
71735ION    NA+36555  39.138  16.081  14.739
71736ION    NA+36556  26.131  29.647   3.667
71737ION    NA+36557  10.172  19.733  14.212
71738ION    NA+36558  35.224  30.816   3.570
71739ION    NA+36559  11.747  13.263   4.043
71740ION    NA+36560   5.722  10.910  11.802
71741ION    NA+36561  15.719   4.449  13.009
71742ION    NA+36562  19.661  21.248  12.361
71743ION    NA+36563  17.226  41.512   2.496
71744ION    NA+36564   6.552  26.263   4.450
71745ION    NA+36565   1.981  24.361   4.287
71746ION    NA+36566   5.710   9.724  13.142
71747ION    NA+36567  35.260  37.898  14.274
71748ION    NA+36568   2.094   8.509  11.120
71749ION    NA+36569  30.268  23.953   3.897
71750ION    NA+36570  30.656   2.174   1.103
71751ION    NA+36571   0.797   0.789  11.536
71752ION    NA+36572   5.262   7.686  12.543
71753ION    NA+36573  42.598  17.574   0.432
71754ION    NA+36574   6.483  24.922   3.312
71755ION    NA+36575  35.717  10.947   2.964
71756ION    NA+36576  42.190  22.145  10.729
71757ION    NA+36577   0.597   7.335   4.697
71758ION    NA+36578  19.662  28.021   2.700
71759ION    NA+36579  33.560  32.934  12.620
71760ION    NA+36580  20.645  43.286   3.759
71761ION    NA+36581  24.016   3.171   3.559
71762ION    NA+36582  15.161  31.685   3.125
71763ION    NA+36583  32.144  21.308  10.639
71764ION    NA+36584  16.399  18.766   1.105
71765ION    NA+36585  19.147  32.378  13.580
71766ION    NA+36586  25.382  13.293   2.267
71767ION    NA+36587  32.232  30.658   4.606
71768ION    NA+36588  31.491  33.647  11.109
71769ION    NA+36589  15.549  18.207  12.842
71770ION    NA+36590  17.195  11.625  14.015
71771ION    NA+36591  12.556  22.739  12.244
71772ION    NA+36592  31.939   9.543   4.688
71773ION    NA+36593  32.892  28.530  10.708
71774ION    NA+36594  29.322  34.225   2.513
71775ION    NA+36595  39.780  43.552   2.866
71776ION    NA+36596  20.443  29.191  13.062
71777ION    NA+36597  37.460   3.956  14.779
71778ION    NA+36598   1.453  25.285  13.826
71779ION    NA+36599  43.269  28.112   5.106
71780ION    NA+36600  30.410  24.619   1.809
71781ION    NA+36601   9.955  31.702   0.219
71782ION    NA+36602  43.031  25.330   3.933
71783ION    NA+36603  25.644  13.345  11.322
71784ION    NA+36604  14.773  42.581   0.839
71785ION    NA+36605  18.529  21.709  11.557
71786ION    NA+36606   2.483   6.831   2.890
71787ION    NA+36607  13.425  36.412  11.643
71788ION    NA+36608  19.051  37.110   3.262
71789ION    NA+36609   8.110  29.297   0.236
71790ION    NA+36610  31.827  27.750   4.740
71791ION    NA+36611  21.969  19.960   2.576
71792ION    NA+36612  16.868  29.201  14.408
71793ION    NA+36613  44.209   9.658  11.503
71794ION    NA+36614  24.530  30.719  14.150
71795ION    NA+36615  39.968  19.262  14.160
71796ION    NA+36616  25.330  22.202   4.154
71797ION    NA+36617  28.147   0.454  13.906
71798ION    NA+36618   5.937  32.924   1.307
71799ION    NA+36619  20.139   8.583  12.444
71800ION    NA+36620  41.271   7.246  12.670
71801ION    NA+36621  29.627  33.672   4.564
71802ION    NA+36622   0.203  30.909  11.131
71803ION    NA+36623   2.940   7.927  11.558
71804ION    NA+36624  41.938  37.999   2.853
71805ION    NA+36625   9.264  13.397  11.959
71806ION    NA+36626  27.230  41.598  13.916
71807ION    NA+36627  44.814  14.681  12.924
71808ION    NA+36628  31.017  32.887   2.843
71809ION    NA+36629  40.306   4.131   1.297
71810ION    NA+36630   2.322  39.062   4.288
71811ION    NA+36631  15.518  10.724   3.179
71812ION    NA+36632  17.546  38.752   1.480
71813ION    NA+36633  16.750  33.062   4.528
71814ION    NA+36634  32.682  30.496  12.105
71815ION    NA+36635   9.090  15.461  12.532
71816ION    NA+36636  19.040   6.060   2.492
71817ION    NA+36637   2.639   3.723  13.577
71818ION    NA+36638  10.093  26.049  11.641
71819ION    NA+36639   7.292  35.936  13.076
71820ION    NA+36640  43.993   1.812  14.505
71821ION    NA+36641  44.494  40.258   3.203
71822ION    NA+36642  34.569  34.586   4.376
71823ION    NA+36643  25.104  26.165   3.679
71824ION    NA+36644  35.845   6.042   4.066
71825ION    NA+36645  31.471  35.438  14.702
71826ION    NA+36646  42.554  44.194   5.348
71827ION    NA+36647  18.822  28.095   2.496
71828ION    NA+36648  29.516  10.856   0.420
71829ION    NA+36649  10.404  44.934  12.290
71830ION    NA+36650   9.329  27.950   5.140
71831ION    NA+36651   0.699  38.272   4.156
71832ION    NA+36652   9.449  22.345   2.290
71833ION    NA+36653  38.760  39.287  12.102
71834ION    NA+36654  14.049  33.351   3.403
71835ION    NA+36655  19.401  16.647  11.456
71836ION    NA+36656   4.196  28.898  14.980
71837ION    NA+36657  14.928   0.854   0.258
71838ION    NA+36658  27.443   4.451   0.906
71839ION    NA+36659   4.393  17.055   1.138
71840ION    NA+36660  41.758  40.541   0.342
71841ION    NA+36661   2.077   5.646  12.988
71842ION    NA+36662   7.743  37.842   1.387
71843ION    NA+36663   2.927  21.178  12.087
71844ION    NA+36664  40.395  11.661  12.125
71845ION    NA+36665   8.587  29.907  14.512
71846ION    NA+36666  23.973  13.818   0.856
71847ION    NA+36667   9.717  11.953  11.217
71848ION    NA+36668  37.382  33.255   3.030
71849ION    NA+36669  20.808  22.703  13.391
71850ION    NA+36670  32.679   5.680  14.440
71851ION    NA+36671  38.695  17.789   2.857
71852ION    NA+36672   3.745  27.968   3.537
71853ION    NA+36673  40.442  42.055  14.410
71854ION    NA+36674  18.676   0.526  12.897
71855ION    NA+36675  37.528  15.500  13.498
71856ION    NA+36676  37.827  36.753  14.990
71857ION    NA+36677   0.216  32.988  11.004
71858ION    NA+36678   7.621  27.202   0.643
71859ION    NA+36679   8.781  12.082   5.052
71860ION    NA+36680   3.872  30.018   2.816
71861ION    NA+36681  16.817   1.656  10.622
71862ION    NA+36682   8.236  44.070  14.353
71863ION    NA+36683  37.892   1.288  12.580
71864ION    NA+36684  17.282  19.564   0.880
71865ION    NA+36685   9.251  34.809  14.774
71866ION    NA+36686  39.990   7.104  14.912
71867ION    NA+36687  28.932  10.192  14.505
71868ION    NA+36688  43.742   5.141   0.743
71869ION    NA+36689  12.412  42.650   0.515
71870ION    NA+36690   7.361  33.144  14.751
71871ION    NA+36691  11.300  19.229   1.236
71872ION    NA+36692  17.479  24.221  13.588
71873ION    NA+36693  17.113  33.116   3.388
71874ION    NA+36694  34.274  38.044  14.360
71875ION    NA+36695  39.077  39.975  12.545
71876ION    NA+36696  35.553  42.053   2.261
71877ION    NA+36697  17.991  16.988   1.969
71878ION    NA+36698  18.775  26.181   2.346
71879ION    NA+36699  33.739   3.330   2.473
71880ION    NA+36700  15.916  34.569  12.972
71881ION    NA+36701  19.726  12.306   0.927
71882ION    NA+36702  43.861   4.356  14.286
71883ION    NA+36703  37.730  13.938   4.116
71884ION    NA+36704  12.222  42.395  10.205
71885ION    NA+36705  44.498  22.235  12.361
71886ION    NA+36706  40.903  12.862   3.343
71887ION    NA+36707   5.254  40.220  11.102
71888ION    NA+36708  31.001  29.657   1.887
71889ION    NA+36709  20.608  24.342   0.084
71890ION    NA+36710   0.406  13.999  10.594
71891ION    NA+36711   5.969  13.713   0.048
71892ION    NA+36712  37.216  15.183  10.680
71893ION    NA+36713  16.106  44.748   3.151
71894ION    NA+36714  17.689  28.537   0.411
71895ION    NA+36715  24.571  16.600   2.200
71896ION    NA+36716  32.569  34.214   0.240
71897ION    NA+36717  42.710  37.789   0.956
71898ION    NA+36718  35.608   9.166  13.013
71899ION    NA+36719  31.317   3.931   2.361
71900ION    NA+36720   4.852   1.512   3.858
71901ION    NA+36721  12.632  16.996  14.315
71902ION    NA+36722   8.688  15.367  11.136
71903ION    NA+36723   8.107   2.026  12.552
71904ION    NA+36724  35.716   0.136   4.138
71905ION    NA+36725  19.431  30.061   3.200
71906ION    NA+36726  22.132  36.887   1.490
71907ION    NA+36727  20.724  10.389  14.308
71908ION    NA+36728  18.611  43.015  14.325
71909ION    NA+36729  36.745   2.986  14.602
71910ION    NA+36730  42.884   5.310   2.423
71911ION    NA+36731  15.424  28.448  10.689
71912ION    NA+36732   4.107  21.748   0.090
71913ION    NA+36733  32.560   2.382  11.469
71914ION    NA+36734  36.478  37.502  13.869
71915ION    NA+36735  10.026  16.249  11.834
71916ION    NA+36736   3.454  20.822   2.447
71917ION    NA+36737  17.196  35.057  12.726
71918ION    NA+36738  34.203  38.338  13.363
71919ION    NA+36739  24.802  34.695   2.156
71920ION    NA+36740   2.848  34.784  11.500
71921ION    NA+36741  14.080  22.630   0.744
71922ION    NA+36742   0.644  42.824  11.557
71923ION    NA+36743  37.894  44.330  11.330
71924ION    NA+36744  26.957  40.358  13.767
71925ION    NA+36745  33.881   7.530  11.520
71926ION    NA+36746   6.373   9.017  12.204
71927ION    NA+36747  27.711  30.297   9.638
71928ION    NA+36748  39.913  28.374  12.068
71929ION    NA+36749  12.081   5.023  11.171
71930ION    NA+36750  41.595  19.091   3.731
71931ION    NA+36751  13.715  25.126  13.997
71932ION    NA+36752  20.341   5.783   3.975
71933ION    NA+36753  32.240  35.614   2.467
71934ION    NA+36754  14.877   8.198   0.610
71935ION    NA+36755   6.416  10.783   4.094
71936ION    NA+36756  12.228   5.891  11.229
71937ION    NA+36757   4.833   0.555  11.001
71938ION    NA+36758  19.932  42.330   0.157
71939ION    NA+36759  37.464  38.874  13.390
71940ION    NA+36760  23.465  38.243  12.172
71941ION    NA+36761  44.474  34.308  11.856
71942ION    NA+36762  41.622  13.592  14.733
71943ION    NA+36763   8.169   4.326   3.386
71944ION    NA+36764   0.814   4.507   4.472
71945ION    NA+36765  29.069  16.373  13.965
71946ION    NA+36766   8.418  13.247  14.076
71947ION    NA+36767  34.477  35.347  10.812
71948ION    NA+36768  14.076  28.166   1.327
71949ION    NA+36769  30.110  35.542  12.575
71950ION    NA+36770  42.099  28.698   2.118
71951ION    NA+36771  19.988  13.969   0.182
71952ION    NA+36772  30.111   0.284   1.716
71953ION    NA+36773  34.247  30.838   3.780
71954ION    NA+36774  25.026   0.348  10.830
71955ION    NA+36775  34.418   2.349   0.532
71956ION    NA+36776   0.234  17.314  11.840
71957ION    NA+36777   7.394  36.896   1.483
71958ION    NA+36778   9.740  18.545  11.960
71959ION    NA+36779  16.151  10.150   4.180
71960ION    NA+36780  44.732  11.125  11.133
71961ION    NA+36781   9.916  43.539  11.170
71962ION    NA+36782  32.448  27.698   1.233
71963ION    NA+36783   7.911  16.077  12.934
71964ION    NA+36784  32.103  19.557  12.416
71965ION    NA+36785   3.820  42.862  14.394
71966ION    NA+36786   8.395  30.977  10.766
71967ION    NA+36787  10.349   8.770  14.336
71968ION    NA+36788  27.074   2.717   4.007
71969ION    NA+36789  32.473  13.295  10.878
71970ION    NA+36790  15.528  32.763   0.195
71971ION    NA+36791  18.021  10.832  14.458
71972ION    NA+36792  24.540   9.523  10.271
71973ION    NA+36793   1.923  25.073  12.969
71974ION    NA+36794  19.408  42.240  11.380
71975ION    NA+36795  23.774  44.633   4.490
71976ION    NA+36796  25.476   7.711   3.241
71977ION    NA+36797   8.318  23.951  10.930
71978ION    NA+36798  40.414   7.676  11.440
71979ION    NA+36799  26.918  23.129   0.404
71980ION    NA+36800  37.058  41.421   1.192
71981ION    NA+36801  43.775  22.419   4.665
71982ION    NA+36802   7.488  30.914  11.185
71983ION    NA+36803  18.884  25.098   3.518
71984ION    NA+36804  44.584  40.732  14.302
71985ION    NA+36805  25.578  20.570  14.994
71986ION    NA+36806  41.758  14.631  11.501
71987ION    NA+36807  28.470  34.956   2.809
71988ION    NA+36808  21.782   0.125  12.048
71989ION    NA+36809  22.965  44.791   2.640
71990ION    NA+36810   6.305  27.947  12.745
71991ION    NA+36811  23.321  20.276   3.571
71992ION    NA+36812   2.842  13.320  12.936
71993ION    NA+36813  32.979  36.745  13.524
71994ION    NA+36814   5.838  29.751  12.182
71995ION    NA+36815  22.395  38.828  12.417
71996ION    NA+36816  23.610  20.441  13.266
71997ION    NA+36817  16.930  32.790  13.500
71998ION    NA+36818  23.084  10.902   4.198
71999ION    NA+36819   3.065  39.497   0.121
72000ION    NA+36820  44.854   9.457  10.740
72001ION    NA+36821  33.692   0.257   2.063
72002ION    NA+36822  18.311  13.914   1.207
72003ION    NA+36823  17.173  27.346   2.805
72004ION    NA+36824   1.559  36.675   4.072
72005ION    NA+36825  21.470   8.482  13.521
72006ION    NA+36826   0.637   7.143   1.854
72007ION    NA+36827  40.765   9.653   2.553
72008ION    NA+36828  34.647  22.808   3.739
72009ION    NA+36829   9.086  18.708  12.698
72010ION    NA+36830  41.784  27.114   2.460
72011ION    NA+36831  37.082   3.223   4.715
72012ION    NA+36832  41.003  41.241  12.564
72013ION    NA+36833  41.859  23.745  13.740
72014ION    NA+36834   7.958  21.203  11.179
72015ION    NA+36835   4.587  35.604   0.717
72016ION    NA+36836  41.450  28.932   4.646
72017ION    NA+36837  11.176  28.068  11.997
72018ION    NA+36838  40.530  19.363  10.332
72019ION    NA+36839  43.775  44.457  13.369
72020ION    NA+36840   7.028   9.867  13.621
72021ION    NA+36841   7.672  39.993  13.282
72022ION    NA+36842  42.520  18.770   1.751
72023ION    NA+36843  34.178   3.719   0.702
72024ION    NA+36844  27.387   1.147  10.263
72025ION    NA+36845  21.586  25.349  14.950
72026ION    NA+36846  15.166   3.313   3.118
72027ION    NA+36847  41.260  10.892  11.056
72028ION    NA+36848  18.412   6.443   3.238
72029ION    NA+36849  21.998  37.451  10.635
72030ION    NA+36850  19.553   3.911  12.043
72031ION    NA+36851   0.927  41.847   1.396
72032ION    NA+36852  20.311  40.982  12.920
72033ION    NA+36853  40.199   3.150   1.463
72034ION    NA+36854  21.879  39.948   1.504
72035ION    NA+36855   0.023   9.302  12.503
72036ION    NA+36856  20.779  30.685   4.839
72037ION    NA+36857  10.721  19.682  10.909
72038ION    NA+36858  31.012   3.304  14.295
72039ION    NA+36859  35.252  26.496   3.954
72040ION    NA+36860  34.608  36.712   2.896
72041ION    NA+36861  44.039  15.803   4.402
72042ION    NA+36862  24.161  30.086  11.957
72043ION    NA+36863  26.975  31.350   3.792
72044ION    NA+36864  26.918  11.734  11.676
72045ION    NA+36865  13.051  25.562   1.844
72046ION    NA+36866  23.402  22.930  11.679
72047ION    NA+36867  24.307  26.240   2.459
72048ION    NA+36868  38.098  14.757   1.668
72049ION    NA+36869   7.379  17.117   3.770
72050ION    NA+36870   6.317  31.510   0.940
72051ION    NA+36871  28.976   8.782   4.208
72052ION    NA+36872  10.653  13.561  12.359
72053ION    NA+36873  41.257  39.953  11.203
72054ION    NA+36874  13.110   2.223   1.881
72055ION    NA+36875  16.652  29.109   2.877
72056ION    NA+36876  21.524  25.158   1.806
72057ION    NA+36877  32.915  44.975   4.647
72058ION    NA+36878   6.999  43.986   3.630
72059ION    NA+36879  19.731  37.261  14.102
72060ION    NA+36880  29.578  32.544   2.905
72061ION    NA+36881  44.828   0.474   3.965
72062ION    NA+36882  19.751  35.323   1.484
72063ION    NA+36883  16.237  22.878  11.891
72064ION    NA+36884  40.032  20.274   2.342
72065ION    NA+36885  15.269  25.737   0.240
72066ION    NA+36886  28.240  38.141  12.823
72067ION    NA+36887  10.765  25.735  12.038
72068ION    NA+36888  18.683  38.659  12.603
72069ION    NA+36889   4.148   8.612   0.711
72070ION    NA+36890  35.008  40.887   0.277
72071ION    NA+36891  18.749  39.419  13.861
72072ION    NA+36892  20.398   1.161  11.072
72073ION    NA+36893  37.518   5.432  14.184
72074ION    NA+36894  43.990  17.465   1.160
72075ION    NA+36895  28.239   9.410   1.946
72076ION    NA+36896  31.001  16.925  10.691
72077ION    NA+36897  33.840  29.449  10.894
72078ION    NA+36898   0.227  28.880   1.968
72079ION    NA+36899  33.412  32.494  10.435
72080ION    NA+36900  13.690  16.569  13.754
72081ION    NA+36901  18.677  31.163  13.895
72082ION    NA+36902  40.422  10.914   5.289
72083ION    NA+36903  10.620  20.578  13.919
72084ION    NA+36904  39.140   4.235   3.023
72085ION    NA+36905   7.116  39.446   4.147
72086ION    NA+36906  38.855   2.650   0.251
72087ION    NA+36907  12.067  21.688   0.453
72088ION    NA+36908  34.298  21.205   3.314
72089ION    NA+36909  36.374   1.765   0.410
72090ION    NA+36910  41.985  26.979  14.968
72091ION    NA+36911  19.471   3.183   5.132
72092ION    NA+36912  22.972  30.467  14.383
72093ION    NA+36913   4.178  24.943  12.330
72094ION    NA+36914  23.752  36.166   0.357
72095ION    NA+36915  43.870  13.171   3.869
72096ION    NA+36916  38.801  33.934  13.205
72097ION    NA+36917   7.847  13.343   4.521
72098ION    NA+36918  39.037  38.258  13.172
72099ION    NA+36919  26.939  28.515   4.418
72100ION    NA+36920  10.571  36.987   2.042
72101ION    NA+36921  32.501  32.047  11.532
72102ION    NA+36922   9.491   3.713   3.037
72103ION    NA+36923  16.388  27.147  14.458
72104ION    NA+36924  17.400  15.749  14.495
72105ION    NA+36925  28.902  28.231  10.845
72106ION    NA+36926  29.096  10.805  13.732
72107ION    NA+36927   3.770  21.615   3.996
72108ION    NA+36928  15.049  38.773  12.554
72109ION    NA+36929   3.760  37.634   1.204
72110ION    NA+36930  36.700  43.757   0.030
72111ION    NA+36931  22.495  33.409  13.799
72112ION    NA+36932  31.881  35.564  10.979
72113ION    NA+36933  19.357   2.098  11.654
72114ION    NA+36934   2.013  15.549   2.507
72115ION    NA+36935  25.920  31.331   0.318
72116ION    NA+36936  21.238  36.300  13.358
72117ION    NA+36937  19.313  40.969  10.846
72118ION    NA+36938  36.623  22.166   4.687
72119ION    NA+36939  20.244  10.633  12.513
72120ION    NA+36940  41.800  33.484   4.479
72121ION    NA+36941  26.894  18.069   2.037
72122ION    NA+36942  11.538  38.153   1.613
72123ION    NA+36943  30.507  14.837  12.486
72124ION    NA+36944   5.894  44.496   4.534
72125ION    NA+36945  37.382  22.126  10.424
72126ION    NA+36946  31.539  22.971   2.743
72127ION    NA+36947  12.572  38.049   3.694
72128ION    NA+36948  19.726  38.053  10.704
72129ION    NA+36949  36.062  42.643   1.575
72130ION    NA+36950  30.247  18.595   4.392
72131ION    NA+36951  38.817  32.899  14.959
72132ION    NA+36952   3.654  32.785  13.379
72133ION    NA+36953  28.463  10.733  12.376
72134ION    NA+36954  31.855  27.304   3.774
72135ION    NA+36955  15.048  40.390   3.263
72136ION    NA+36956  38.890  30.072   0.408
72137ION    NA+36957   5.242  22.184  11.794
72138ION    NA+36958  20.095  12.793   4.631
72139ION    NA+36959  41.322  12.024   2.994
72140ION    NA+36960  10.043  27.341   4.797
72141ION    NA+36961  41.605  22.841   3.903
72142ION    NA+36962  13.955  32.511   1.631
72143ION    NA+36963  28.997  26.642  14.685
72144ION    NA+36964  25.479  32.948   0.690
72145ION    NA+36965  38.755  33.537   1.497
72146ION    NA+36966  41.529  18.738   1.296
72147ION    NA+36967   2.792  32.621   4.398
72148ION    NA+36968   7.876  10.679  10.934
72149ION    NA+36969  22.485  22.558   4.443
72150ION    NA+36970  27.898  20.518   3.378
72151ION    NA+36971   4.417  39.250   4.339
72152ION    NA+36972  31.902  13.734  13.785
72153ION    NA+36973  17.358  30.577   4.723
72154ION    NA+36974  13.410   8.719   2.589
72155ION    NA+36975  30.203  42.397  14.421
72156ION    NA+36976  28.540  41.343   3.116
72157ION    NA+36977  27.768  18.653  13.810
72158ION    NA+36978   8.774  19.523  14.671
72159ION    NA+36979  44.561   1.456   3.261
72160ION    NA+36980   7.963  36.585   4.628
72161ION    NA+36981   9.715  35.698  13.533
72162ION    NA+36982  41.593   3.503  14.846
72163ION    NA+36983  21.325   4.058   1.330
72164ION    NA+36984  39.608  33.524  13.418
72165ION    NA+36985  35.373  15.593  13.031
72166ION    NA+36986  30.341  26.486   0.258
72167ION    NA+36987  43.160   9.499  13.957
72168ION    NA+36988  29.428   5.874   1.242
72169ION    NA+36989   8.520  29.010   1.992
72170ION    NA+36990  29.086   5.805  12.332
72171ION    NA+36991  28.534  27.930  12.032
72172ION    NA+36992   7.228  26.816  14.524
72173ION    NA+36993  33.576  24.691  10.330
72174ION    NA+36994  24.175  36.522   3.313
72175ION    NA+36995  38.108   6.519   4.283
72176ION    NA+36996  35.773  27.801   2.439
72177ION    NA+36997   8.910  41.336  10.799
72178ION    NA+36998  23.287  35.345   5.114
72179ION    NA+36999  16.243  25.050  13.014
72180ION    NA+37000  36.655  12.187  12.806
72181ION    NA+37001  42.776  44.900  14.333
72182ION    NA+37002  23.730   4.913   0.102
72183ION    NA+37003  10.592   0.765   3.415
72184ION    NA+37004  41.341  34.539   4.575
72185ION    NA+37005  28.139  28.958  14.821
72186ION    NA+37006   7.072   2.108   0.655
72187ION    NA+37007  34.805  33.269  11.153
72188ION    NA+37008  21.701   2.146   5.330
72189ION    NA+37009  14.289  22.203  12.995
72190ION    NA+37010  23.709   7.610  10.936
72191ION    NA+37011  31.315  14.768  10.901
72192ION    NA+37012  13.372  40.098   0.675
72193ION    NA+37013  30.136  11.349  12.584
72194ION    NA+37014   5.294  21.804   9.627
72195ION    NA+37015  28.728  15.633  11.936
72196ION    NA+37016  24.653  30.226  12.916
72197ION    NA+37017  36.121   9.012   2.734
72198ION    NA+37018  21.456  11.730  10.405
72199ION    NA+37019   7.774  39.040  13.568
72200ION    NA+37020  40.254  14.918   4.862
72201ION    NA+37021  27.486  36.300   2.961
72202ION    NA+37022  41.286  14.682   4.059
72203ION    NA+37023  31.745  25.089   9.866
72204ION    NA+37024  29.838  22.183   3.739
72205ION    NA+37025  10.232  18.997  13.543
72206ION    NA+37026  12.837  26.347   4.605
72207ION    NA+37027   6.732  13.770  14.673
72208ION    NA+37028   7.649  33.927   1.967
72209ION    NA+37029  19.828  36.481   3.552
72210ION    NA+37030   8.379  38.610   1.463
72211ION    NA+37031  14.318  29.126  14.838
72212ION    NA+37032  42.813   2.974   3.747
72213ION    NA+37033   6.517   8.251  11.579
72214ION    NA+37034   1.044  35.797   0.354
72215ION    NA+37035  31.573   6.452   2.181
72216ION    NA+37036  24.091   4.195   1.121
72217ION    NA+37037  13.234  12.053   3.676
72218ION    NA+37038  30.996  10.541   2.067
72219ION    NA+37039   8.666   9.845  13.578
72220ION    NA+37040  18.841   3.231  13.934
72221ION    NA+37041  24.097  29.028  10.954
72222ION    NA+37042   7.586  15.853  14.086
72223ION    NA+37043   3.849  16.485  14.250
72224ION    NA+37044  24.638  29.876   2.373
72225ION    NA+37045  14.198  26.374   0.939
72226ION    NA+37046  12.535  15.233   2.053
72227ION    NA+37047   3.338  42.961   3.992
72228ION    NA+37048   2.309  36.014   4.113
72229ION    NA+37049  28.368  19.973  11.885
72230ION    NA+37050  10.387  22.247   4.567
72231ION    NA+37051  13.349  42.385   0.693
72232ION    NA+37052  28.506  15.279  12.997
72233ION    NA+37053  25.493  15.654   4.021
72234ION    NA+37054  23.013  40.472  14.408
72235ION    NA+37055  40.498  29.176   0.361
72236ION    NA+37056   8.833  17.742  12.762
72237ION    NA+37057  24.490  15.849  12.509
72238ION    NA+37058  21.113   6.187  11.616
72239ION    NA+37059  17.384   4.641  11.788
72240ION    NA+37060   0.036   7.946  13.905
72241ION    NA+37061  37.339  24.103  13.468
72242ION    NA+37062  29.832  17.811  11.072
72243ION    NA+37063  26.957   9.753   0.461
72244ION    NA+37064   5.442   4.181   3.808
72245ION    NA+37065  30.812  25.935  10.793
72246ION    NA+37066  37.376  22.021   1.334
72247ION    NA+37067  17.572  34.018   3.625
72248ION    NA+37068  33.032  38.510   3.313
72249ION    NA+37069  11.934  40.144  12.325
72250ION    NA+37070  35.525  34.996   0.360
72251ION    NA+37071  36.657  24.218   1.163
72252ION    NA+37072   1.726   4.854  13.558
72253ION    NA+37073  39.884  12.127   0.805
72254ION    NA+37074  21.802  44.536  13.293
72255ION    NA+37075  15.083  28.183   1.323
72256ION    NA+37076  14.938  23.076  14.459
72257ION    NA+37077  23.405  38.525  10.415
72258ION    NA+37078  38.012   4.794  12.081
72259ION    NA+37079  41.871  27.100  13.391
72260ION    NA+37080  17.549  44.848   3.238
72261ION    NA+37081   1.997  22.281  14.007
72262ION    NA+37082  32.483  11.153  11.725
72263ION    NA+37083  19.161  24.627  13.798
72264ION    NA+37084  17.711  14.108  12.330
72265ION    NA+37085  11.843   6.817   4.565
72266ION    NA+37086   6.750  23.475  13.508
72267ION    NA+37087   1.340  23.466  12.795
72268ION    NA+37088   6.925   1.354   0.014
72269ION    CL-37089  25.737  18.105   9.792
72270ION    CL-37090   6.619  12.755  12.965
72271ION    CL-37091  41.157  23.781  11.094
72272ION    CL-37092  37.679   4.788  12.380
72273ION    CL-37093  21.010  22.381  13.155
72274ION    CL-37094  44.010  33.463  10.434
72275ION    CL-37095  30.103  36.953   3.715
72276ION    CL-37096  17.719  39.970   4.537
72277ION    CL-37097  12.257  41.373   0.898
72278ION    CL-37098  26.419  22.776  14.013
72279ION    CL-37099  14.571  34.258   0.452
72280ION    CL-37100  16.425  43.754  14.240
72281ION    CL-37101  30.126  22.402  14.556
72282ION    CL-37102  37.525  19.562  12.075
72283ION    CL-37103  36.650  14.693   1.163
72284ION    CL-37104  42.687  37.384   3.672
72285ION    CL-37105  28.939   5.104   3.546
72286ION    CL-37106  31.293  43.119  14.844
72287ION    CL-37107  26.695  20.140   0.806
72288ION    CL-37108  20.252   7.205  12.105
72289ION    CL-37109  14.729   8.295   1.030
72290ION    CL-37110  10.828  23.770   1.326
72291ION    CL-37111  41.488   2.044   1.608
72292ION    CL-37112  21.284   6.729  12.677
72293ION    CL-37113   7.799  11.174   0.215
72294ION    CL-37114  43.975  31.214  13.343
72295ION    CL-37115  44.932  35.977  13.353
72296ION    CL-37116  12.431   4.960  13.611
72297ION    CL-37117  29.241   0.814   1.776
72298ION    CL-37118   6.898  14.147  14.475
72299ION    CL-37119   4.646  28.169   2.788
72300ION    CL-37120  18.687  40.978   4.101
72301ION    CL-37121  29.381  20.507   5.290
72302ION    CL-37122  28.528  38.030  12.486
72303ION    CL-37123  28.403  36.087  12.272
72304ION    CL-37124  32.431  36.381  11.189
72305ION    CL-37125  12.639  36.129   0.931
72306ION    CL-37126  27.451  20.581   3.494
72307ION    CL-37127   4.405  36.544   3.600
72308ION    CL-37128  22.492   1.487   1.265
72309ION    CL-37129   2.245  18.151  14.562
72310ION    CL-37130  38.287   6.104   4.289
72311ION    CL-37131  14.523  22.694   0.582
72312ION    CL-37132  20.546   9.966  14.317
72313ION    CL-37133  19.976  36.139   3.303
72314ION    CL-37134  35.179  28.137   5.384
72315ION    CL-37135  33.061  25.212   5.193
72316ION    CL-37136  13.171   6.839  11.633
72317ION    CL-37137  28.300  20.538   3.616
72318ION    CL-37138  41.300  11.773   1.421
72319ION    CL-37139  13.455  31.687  10.839
72320ION    CL-37140  44.425  44.354  14.794
72321ION    CL-37141  27.367  24.506   4.614
72322ION    CL-37142  13.946  40.681  11.508
72323ION    CL-37143   6.900   1.309  11.384
72324ION    CL-37144  24.158  18.117   3.203
72325ION    CL-37145  27.446  15.129   4.327
72326ION    CL-37146  12.133  11.709  13.389
72327ION    CL-37147  28.284  15.474   4.339
72328ION    CL-37148   5.674  15.039  14.949
72329ION    CL-37149  16.144  30.841   0.320
72330ION    CL-37150  37.354  39.963  11.176
72331ION    CL-37151  26.040  20.141   3.079
72332ION    CL-37152  22.522  14.365   3.912
72333ION    CL-37153  12.654   9.780   1.325
72334ION    CL-37154  37.096  43.592   0.158
72335ION    CL-37155  30.909  12.902  12.105
72336ION    CL-37156   5.504  41.739   4.823
72337ION    CL-37157  33.092  16.838  13.030
72338ION    CL-37158  19.883  42.754  12.230
72339ION    CL-37159  22.515   4.734  12.411
72340ION    CL-37160   7.260  34.707   3.208
72341ION    CL-37161  29.783  14.043   4.570
72342ION    CL-37162  35.042  43.850   4.045
72343ION    CL-37163  27.559  44.167   0.597
72344ION    CL-37164   6.853   3.423  11.995
72345ION    CL-37165  35.202  24.862  13.348
72346ION    CL-37166   7.171  26.975  14.098
72347ION    CL-37167  39.534  19.201  14.288
72348ION    CL-37168  25.728  13.061  11.665
72349ION    CL-37169  24.842  36.131   0.921
72350ION    CL-37170  36.166  25.225  11.430
72351ION    CL-37171   2.817   4.823  12.650
72352ION    CL-37172  33.019  24.114  12.305
72353ION    CL-37173  17.754  34.911   2.987
72354ION    CL-37174  17.560  15.353  12.953
72355ION    CL-37175   6.431  15.351  10.385
72356ION    CL-37176   4.104  15.338   1.713
72357ION    CL-37177  23.442  13.238  13.566
72358ION    CL-37178  34.664  31.033   0.806
72359ION    CL-37179   5.891  14.064   3.033
72360ION    CL-37180  22.771  21.818  11.345
72361ION    CL-37181  34.235  31.697  12.598
72362ION    CL-37182  25.670  34.170   2.273
72363ION    CL-37183  44.490  34.376  12.298
72364ION    CL-37184  40.438  16.489  12.596
72365ION    CL-37185  35.994  25.189  14.358
72366ION    CL-37186  17.915  24.177  13.491
72367ION    CL-37187  14.604  36.721   4.149
72368ION    CL-37188  16.189   2.122  14.357
72369ION    CL-37189  21.921  18.876  14.790
72370ION    CL-37190  17.971   2.522   0.339
72371ION    CL-37191  39.989  29.996  14.483
72372ION    CL-37192  43.142   5.100  13.699
72373ION    CL-37193  17.034   5.763  12.274
72374ION    CL-37194  19.808  10.712   0.490
72375ION    CL-37195   8.963  10.599  12.929
72376ION    CL-37196  42.321   1.721  12.030
72377ION    CL-37197   4.304  22.102   0.282
72378ION    CL-37198  41.847   7.677   3.866
72379ION    CL-37199   9.800  35.306  13.731
72380ION    CL-37200  18.072  37.740   3.643
72381ION    CL-37201  33.332  35.861  11.216
72382ION    CL-37202  26.258  20.702   2.280
72383ION    CL-37203  29.015  24.228  14.075
72384ION    CL-37204  21.418  21.287  13.735
72385ION    CL-37205  21.767   4.276  13.631
72386ION    CL-37206  19.056   2.720   3.579
72387ION    CL-37207  35.070   4.108   1.778
72388ION    CL-37208   2.935  26.538  13.933
72389ION    CL-37209  33.357   5.501  14.120
72390ION    CL-37210  28.922   8.195  11.067
72391ION    CL-37211  36.368   7.204   0.401
72392ION    CL-37212   2.056  15.423  11.738
72393ION    CL-37213  31.790  22.850   0.921
72394ION    CL-37214  18.057  20.874  13.063
72395ION    CL-37215  14.177  38.171  10.744
72396ION    CL-37216  36.448  35.847  11.777
72397ION    CL-37217  39.046  33.262   1.715
72398ION    CL-37218  35.953  31.568  13.014
72399ION    CL-37219  31.086  42.746  11.024
72400ION    CL-37220   3.456  16.020  10.178
72401ION    CL-37221   2.372  32.029   1.797
72402ION    CL-37222  26.385   6.302   5.151
72403ION    CL-37223  41.956   6.340  14.551
72404ION    CL-37224   1.881  14.543  12.397
72405ION    CL-37225  20.769  27.001   1.881
72406ION    CL-37226  38.543  13.026   3.649
72407ION    CL-37227  28.968  16.571   3.226
72408ION    CL-37228   0.353   4.923   2.913
72409ION    CL-37229  39.310   4.641   2.934
72410ION    CL-37230   5.111  18.592   3.390
72411ION    CL-37231   4.845   8.394   2.417
72412ION    CL-37232  33.145  11.314   3.695
72413ION    CL-37233  29.516  21.068  11.818
72414ION    CL-37234  31.371   4.891  10.774
72415ION    CL-37235  35.460  42.248  12.576
72416ION    CL-37236   5.267   5.085   1.179
72417ION    CL-37237  37.325   4.462  11.150
72418ION    CL-37238  36.808  15.563   2.705
72419ION    CL-37239  34.323  29.630   3.721
72420ION    CL-37240   9.285  32.088   4.106
72421ION    CL-37241  28.008  16.678  10.002
72422ION    CL-37242   3.544  30.325   2.826
72423ION    CL-37243  42.166  30.394   0.715
72424ION    CL-37244   4.769   4.720  10.273
72425ION    CL-37245  13.655   8.443   2.855
72426ION    CL-37246  36.539  28.012   9.644
72427ION    CL-37247  35.531  20.838   4.293
72428ION    CL-37248  18.641  32.559   0.272
72429ION    CL-37249  10.127  32.723  14.034
72430ION    CL-37250   7.747   7.365  14.516
72431ION    CL-37251  13.958  22.868   1.135
72432ION    CL-37252  17.420   0.515  12.741
72433ION    CL-37253  44.813   4.065  10.385
72434ION    CL-37254  44.581  11.551   1.572
72435ION    CL-37255  40.578  11.253   5.045
72436ION    CL-37256  35.441  26.862   3.778
72437ION    CL-37257   7.287  43.884   2.351
72438ION    CL-37258  17.374  27.172   0.916
72439ION    CL-37259   0.285   0.899  14.381
72440ION    CL-37260   9.003  39.843   2.260
72441ION    CL-37261  26.196  26.735   3.304
72442ION    CL-37262   5.525  31.521  14.670
72443ION    CL-37263  27.764  28.722  14.865
72444ION    CL-37264   8.025   3.291   2.797
72445ION    CL-37265   7.907   5.763  12.558
72446ION    CL-37266  13.324   7.522   3.991
72447ION    CL-37267  13.268   9.561   4.843
72448ION    CL-37268  18.363  44.190   4.984
72449ION    CL-37269   1.576  43.550   2.923
72450ION    CL-37270  42.835  40.080  14.281
72451ION    CL-37271  24.186  17.360  13.934
72452ION    CL-37272   4.890  33.416  11.041
72453ION    CL-37273  44.839  38.663   4.352
72454ION    CL-37274  16.368  22.998  12.309
72455ION    CL-37275  13.063   2.966   3.214
72456ION    CL-37276  10.127  29.295   4.462
72457ION    CL-37277  23.795  23.088  12.918
72458ION    CL-37278  32.118   8.596   2.114
72459ION    CL-37279  34.424   4.901   1.677
72460ION    CL-37280   9.581  36.920  14.462
72461ION    CL-37281  15.727  15.292  14.953
72462ION    CL-37282   2.775  13.877  11.994
72463ION    CL-37283  37.380  14.949  11.024
72464ION    CL-37284  13.538  13.207   2.325
72465ION    CL-37285   1.771  10.112   3.368
72466ION    CL-37286  18.709  10.209   3.761
72467ION    CL-37287  18.507   8.824   0.545
72468ION    CL-37288  43.281   6.855   1.652
72469ION    CL-37289  18.768  35.939   0.284
72470ION    CL-37290  16.661  35.308  14.388
72471ION    CL-37291  37.649  43.585   4.443
72472ION    CL-37292  14.300  24.776  12.059
72473ION    CL-37293  30.868  41.990   0.788
72474ION    CL-37294   1.774  34.205  12.061
72475ION    CL-37295  24.742   0.067  11.033
72476ION    CL-37296  33.866  22.816   1.133
72477ION    CL-37297  27.819  40.116   4.279
72478ION    CL-37298  39.980  43.691   3.960
72479ION    CL-37299  15.029  40.545  11.341
72480ION    CL-37300  43.027   2.069  13.959
72481ION    CL-37301   1.769   0.343  13.766
72482ION    CL-37302  26.976   6.246  11.428
72483ION    CL-37303  11.206  43.052   4.921
72484ION    CL-37304  24.590  32.304  13.964
72485ION    CL-37305  34.902  37.227  10.296
72486ION    CL-37306  22.087  40.644  12.449
72487ION    CL-37307  27.164  10.221   3.741
72488ION    CL-37308   8.487  35.567  11.345
72489ION    CL-37309   7.289  26.521  14.863
72490ION    CL-37310  19.233   7.449   3.591
72491ION    CL-37311  17.254   4.422   4.123
72492ION    CL-37312   6.669  17.687   1.287
72493ION    CL-37313  11.456   0.693   4.152
72494ION    CL-37314  34.999  25.637  12.031
72495ION    CL-37315  26.452   9.216   2.089
72496ION    CL-37316  20.646   1.146  11.453
72497ION    CL-37317  16.992  25.422   1.341
72498ION    CL-37318  42.990  34.854  12.454
72499ION    CL-37319  15.033  34.524   2.984
72500ION    CL-37320  23.945   6.146  12.027
72501ION    CL-37321   5.646   6.482   0.950
72502ION    CL-37322  21.279  16.246   3.030
72503ION    CL-37323  19.760  41.388  14.357
72504ION    CL-37324   9.100  40.933   3.573
72505ION    CL-37325  12.702  42.438   0.232
72506ION    CL-37326  10.291  10.643  11.171
72507ION    CL-37327  34.888  20.392   0.259
72508ION    CL-37328   9.860  31.199   4.231
72509ION    CL-37329   6.037  11.722   0.593
72510ION    CL-37330  29.810  11.188   0.369
72511ION    CL-37331  14.433   3.179   1.427
72512ION    CL-37332  16.075  43.468   2.764
72513ION    CL-37333  31.737  14.913  10.892
72514ION    CL-37334   3.040  25.202   0.759
72515ION    CL-37335  11.901  12.029   2.522
72516ION    CL-37336  38.131  44.706  14.865
72517ION    CL-37337  33.338  44.199  14.056
72518ION    CL-37338  27.405  29.399   4.131
72519ION    CL-37339   4.154  23.020   2.235
72520ION    CL-37340  14.714  37.336  10.864
72521ION    CL-37341  43.547  23.178  11.301
72522ION    CL-37342   3.324   2.140  14.927
72523ION    CL-37343  22.678   4.871  10.900
72524ION    CL-37344  15.641  36.008   1.381
72525ION    CL-37345  12.474  24.385   1.415
72526ION    CL-37346  31.900  18.387   1.816
72527ION    CL-37347  19.299  34.828   0.179
72528ION    CL-37348  33.673  33.360  12.535
72529ION    CL-37349  15.285   2.034   3.223
72530ION    CL-37350  36.092  44.496   1.419
72531ION    CL-37351  40.917  25.485  11.881
72532ION    CL-37352   2.022  15.986   2.634
72533ION    CL-37353  30.476  28.986  13.564
72534ION    CL-37354  16.788  40.939  12.882
72535ION    CL-37355   1.299  20.119  13.720
72536ION    CL-37356   9.562  31.667   0.432
72537ION    CL-37357   0.393  18.168  13.152
72538ION    CL-37358  42.456  29.019  13.788
72539ION    CL-37359  31.094  11.951  11.855
72540ION    CL-37360   5.273  38.790  12.297
72541ION    CL-37361  19.574  43.744  13.956
72542ION    CL-37362  27.204   9.035   4.072
72543ION    CL-37363  12.752  31.541  13.900
72544ION    CL-37364  39.175   2.342   2.487
72545ION    CL-37365  43.148  16.583  14.942
72546ION    CL-37366  30.668  19.101  11.188
72547ION    CL-37367  42.496  37.734   0.558
72548ION    CL-37368  44.072   7.434  12.115
72549ION    CL-37369  13.850  35.144   1.663
72550ION    CL-37370  29.186  10.405   4.523
72551ION    CL-37371  42.554   2.853  13.066
72552ION    CL-37372  13.182  36.397   4.279
72553ION    CL-37373  25.575  38.848   0.715
72554ION    CL-37374  39.341   2.993  14.076
72555ION    CL-37375  22.683  34.229  14.360
72556ION    CL-37376   1.481  36.839   3.664
72557ION    CL-37377  37.196  19.076  10.110
72558ION    CL-37378   7.818  31.896  13.969
72559ION    CL-37379  11.830  22.442  10.661
72560ION    CL-37380  22.652  22.770   4.826
72561ION    CL-37381  32.347  23.489  12.299
72562ION    CL-37382   6.037  18.887   4.762
72563ION    CL-37383   0.450  39.777  13.787
72564ION    CL-37384  40.208  14.571   4.542
72565ION    CL-37385  38.434  33.861   1.479
72566ION    CL-37386   2.907  43.112   3.970
72567ION    CL-37387  26.981   8.697   2.760
72568ION    CL-37388  25.745  19.309   3.548
72569ION    CL-37389  37.053  44.793   4.099
72570ION    CL-37390  17.902  11.830   3.878
72571ION    CL-37391  20.902  10.764  14.499
72572ION    CL-37392  41.516  36.383   0.161
72573ION    CL-37393  30.470  35.616  11.020
72574ION    CL-37394  22.419  31.027  12.910
72575ION    CL-37395  26.865  17.718   1.757
72576ION    CL-37396   7.383   6.640   2.613
72577ION    CL-37397  20.900  39.828   4.179
72578ION    CL-37398  19.444  42.086  11.824
72579ION    CL-37399  12.751   7.646   0.332
72580ION    CL-37400   4.570  29.375   1.059
72581ION    CL-37401   9.728   5.281  13.525
72582ION    CL-37402  37.393  10.944  12.094
72583ION    CL-37403  27.717  39.064  10.872
72584ION    CL-37404  15.595  41.336   4.077
72585ION    CL-37405  12.215  36.119   0.025
72586ION    CL-37406   9.611   4.287   0.779
72587ION    CL-37407  26.170  23.816  12.955
72588ION    CL-37408   7.844  41.577   2.317
72589ION    CL-37409  34.789  36.570   2.456
72590ION    CL-37410  34.041  27.711  12.444
72591ION    CL-37411  36.878   7.394  10.185
72592ION    CL-37412  19.845  16.590  11.501
72593ION    CL-37413   6.115  17.659  12.659
72594ION    CL-37414   0.324  11.035   3.862
72595ION    CL-37415  41.342  28.142  13.921
72596ION    CL-37416  40.886   1.310  10.407
72597ION    CL-37417  14.345  26.092   1.261
72598ION    CL-37418   2.108  11.713  13.404
72599ION    CL-37419   6.421  13.588  14.986
72600ION    CL-37420  15.141   4.655  14.335
72601ION    CL-37421  31.663  42.476  14.174
72602ION    CL-37422  21.299  37.585   0.781
72603ION    CL-37423  22.454  18.115   1.413
72604ION    CL-37424  36.198  27.884   3.715
72605ION    CL-37425  11.217   3.631   0.137
72606ION    CL-37426   5.790  31.807   2.693
72607ION    CL-37427  15.249  18.740   2.733
72608ION    CL-37428  29.105  29.717  14.431
72609ION    CL-37429   6.090  35.313   4.296
72610ION    CL-37430  14.790  14.385  11.309
72611ION    CL-37431  28.970  36.033   5.135
72612ION    CL-37432  44.947  38.887  11.421
72613ION    CL-37433   9.437  27.547  14.562
72614ION    CL-37434  14.377  21.551  14.054
72615ION    CL-37435  43.973  21.314   1.799
72616ION    CL-37436  22.564  29.288   1.907
72617ION    CL-37437  43.519  43.942   3.629
72618ION    CL-37438   9.176   5.427  12.356
72619ION    CL-37439   4.635   1.025   1.789
72620ION    CL-37440   3.835  24.740  12.532
72621ION    CL-37441   3.418  19.227   2.940
72622ION    CL-37442   4.202   6.646  11.576
72623ION    CL-37443   5.394  22.303   0.062
72624ION    CL-37444   4.852  34.173  13.947
72625ION    CL-37445  43.477  20.889   0.666
72626ION    CL-37446  22.694   0.782   1.945
72627ION    CL-37447  25.344  17.612  12.349
72628ION    CL-37448  14.583  23.631  12.900
72629ION    CL-37449   0.386  14.258  10.956
72630ION    CL-37450  25.730  43.949  13.009
72631ION    CL-37451  40.752  13.417  11.936
72632ION    CL-37452   7.351  26.993   3.603
72633ION    CL-37453  28.087  17.299  14.075
72634ION    CL-37454  30.402  24.984  10.682
72635ION    CL-37455  34.022   2.453   0.330
72636ION    CL-37456  25.081  23.737  13.331
72637ION    CL-37457   7.711  43.734   1.101
72638ION    CL-37458   0.403  11.197  12.886
72639ION    CL-37459  11.893  20.636  14.888
72640ION    CL-37460   9.147  14.809   4.529
72641ION    CL-37461  14.541   6.840  10.992
72642ION    CL-37462  18.438  25.135   3.555
72643ION    CL-37463  42.573   1.295   1.114
72644ION    CL-37464  42.317  39.283  11.242
72645ION    CL-37465  37.503  14.123   4.482
72646ION    CL-37466  36.322  34.738   2.791
72647ION    CL-37467  32.460  12.477   3.970
72648ION    CL-37468  26.515   0.586   4.086
72649ION    CL-37469  24.962  38.868  11.484
72650ION    CL-37470   0.144  30.557   3.337
72651ION    CL-37471  34.700  36.749   3.358
72652ION    CL-37472  35.874  36.521  12.496
72653ION    CL-37473  10.588  37.081   2.480
72654ION    CL-37474  30.166  43.544   1.991
72655ION    CL-37475  22.159  28.083  14.991
72656ION    CL-37476  12.610  37.183   0.784
72657ION    CL-37477  27.905  27.599   3.095
72658ION    CL-37478  19.717   9.468  14.571
72659ION    CL-37479   0.334  18.222   3.373
72660ION    CL-37480   1.993  40.453   2.600
72661ION    CL-37481  41.868   1.144  13.550
72662ION    CL-37482   3.725  20.430   0.435
72663ION    CL-37483  16.596  15.781  12.102
72664ION    CL-37484  30.075  40.424  11.125
72665ION    CL-37485  10.232  43.807  13.264
72666ION    CL-37486  27.495   0.011   1.239
72667ION    CL-37487  12.636   8.127   3.978
72668ION    CL-37488  21.294  33.922  12.225
72669ION    CL-37489  17.605  26.709  11.185
72670ION    CL-37490  12.734  22.713   3.155
72671ION    CL-37491  20.527  43.347  14.547
72672ION    CL-37492  16.500  31.152   5.028
72673ION    CL-37493  42.852  30.504   4.095
72674ION    CL-37494  40.378  19.419  14.025
72675ION    CL-37495  25.228  28.936  11.418
72676ION    CL-37496  13.785  44.935  13.919
72677ION    CL-37497  24.270  28.933  13.039
72678ION    CL-37498   8.854   8.300   2.965
72679ION    CL-37499  38.835  12.825  12.867
72680ION    CL-37500  33.368  20.353   4.371
72681ION    CL-37501  14.060  39.816  12.342
72682ION    CL-37502  31.188  12.762   1.774
72683ION    CL-37503  18.909  38.460   4.489
72684ION    CL-37504  40.040  34.273  11.195
72685ION    CL-37505  25.477  38.974   3.774
72686ION    CL-37506  34.110  36.062   4.948
72687ION    CL-37507   4.142  33.927   3.296
72688ION    CL-37508  33.671  29.156   1.125
72689ION    CL-37509  35.823  16.705  13.962
72690ION    CL-37510   3.089  27.520   4.815
72691ION    CL-37511  36.671  26.963   1.112
72692ION    CL-37512  40.355   5.822   1.875
72693ION    CL-37513  21.766  33.039   1.706
72694ION    CL-37514   1.016  19.762   0.929
72695ION    CL-37515  11.759   4.220  13.584
72696ION    CL-37516   8.902   4.834  10.438
72697ION    CL-37517  44.252   1.662  14.837
72698ION    CL-37518   0.268  12.591  10.972
72699ION    CL-37519  41.007  21.028  14.392
72700ION    CL-37520  27.157  40.923  11.131
72701ION    CL-37521   9.258  14.952   2.536
72702ION    CL-37522  34.980   6.744   0.854
72703ION    CL-37523  24.990  39.536   3.106
72704ION    CL-37524   9.604  24.168  10.067
72705ION    CL-37525  12.198   9.112   0.733
72706ION    CL-37526  10.238  38.030  12.974
72707ION    CL-37527  35.769  14.392   1.525
72708ION    CL-37528  17.464   8.102   0.546
72709ION    CL-37529  32.209  27.356  13.349
72710ION    CL-37530  18.035  37.963  13.253
72711ION    CL-37531  42.007  13.154  11.783
72712ION    CL-37532  32.618  22.937   4.141
72713ION    CL-37533  17.161  34.043  14.636
72714ION    CL-37534  10.831  35.425   3.789
72715ION    CL-37535  30.411  31.863  13.543
72716ION    CL-37536  41.734  42.970  14.820
72717ION    CL-37537  44.215  29.989   3.280
72718ION    CL-37538  43.213   9.149   1.130
72719ION    CL-37539  35.380  21.025  14.004
72720ION    CL-37540  32.392   8.627   1.272
72721ION    CL-37541  40.729  30.892  11.324
72722ION    CL-37542  35.888  40.374   1.888
72723ION    CL-37543  42.965  25.453   4.367
72724ION    CL-37544   0.245  14.713  13.029
72725ION    CL-37545  15.031   2.351   4.230
72726ION    CL-37546   0.375  32.977  12.855
72727ION    CL-37547   0.264  30.968  14.930
72728ION    CL-37548  38.609   6.712   2.640
72729ION    CL-37549  20.830   0.854  12.443
72730ION    CL-37550   5.633  38.459   1.453
72731ION    CL-37551  40.040  25.542  12.593
72732ION    CL-37552  28.725  26.856  14.982
72733ION    CL-37553  34.752  44.788  10.641
72734ION    CL-37554  10.149  33.315   1.261
72735ION    CL-37555  40.196  25.926  11.656
72736ION    CL-37556  39.888   4.779  11.353
72737ION    CL-37557  26.706  25.861  13.860
72738ION    CL-37558  18.433  39.296  11.697
72739ION    CL-37559  42.819   3.970   1.901
72740ION    CL-37560  41.012  36.917   1.251
72741ION    CL-37561  12.367  43.929   2.403
72742ION    CL-37562  18.333  35.627   2.253
72743ION    CL-37563   5.814  23.070   4.540
72744ION    CL-37564  42.246  31.013   2.265
72745ION    CL-37565  22.364  38.517  12.746
72746ION    CL-37566  19.726  20.621  10.290
72747ION    CL-37567  23.117   7.689  12.825
72748ION    CL-37568  27.351  26.801  12.006
72749ION    CL-37569  20.301  16.391  12.378
72750ION    CL-37570  34.457  33.528  11.259
72751ION    CL-37571  15.534  29.627   1.410
72752ION    CL-37572  33.430  32.665   1.339
72753ION    CL-37573  31.921  21.524  10.312
72754ION    CL-37574   1.993   0.298   2.905
72755ION    CL-37575   1.234   1.108   4.046
72756ION    CL-37576  22.177  28.029   2.384
72757ION    CL-37577  34.149  20.260   2.804
72758ION    CL-37578  19.673  33.501  12.574
72759ION    CL-37579  32.693   3.541  12.125
72760ION    CL-37580  32.363  41.969   4.094
72761ION    CL-37581   6.747  10.499   1.825
72762ION    CL-37582  33.536  32.125   5.103
72763ION    CL-37583  23.980  38.623  14.300
72764ION    CL-37584  24.182  35.363  10.696
72765ION    CL-37585  22.642  14.515   2.623
72766ION    CL-37586   0.326  44.340   3.613
72767ION    CL-37587  43.900  30.138  13.664
72768ION    CL-37588   6.446  39.229  10.291
72769ION    CL-37589  13.205   3.585   4.709
72770ION    CL-37590  36.329  18.042  13.783
72771ION    CL-37591  14.641  17.860   3.677
72772ION    CL-37592  33.071  14.609   2.463
72773ION    CL-37593   0.419  43.736   4.782
72774ION    CL-37594  42.330   3.942  13.770
72775ION    CL-37595  24.406   4.892  14.495
72776ION    CL-37596  38.741  11.663   2.696
72777ION    CL-37597  20.689  33.830  11.435
72778ION    CL-37598  32.511  35.763   2.790
72779ION    CL-37599  17.700  17.762  10.727
72780ION    CL-37600   3.757  36.261   2.893
72781ION    CL-37601  38.863  28.149  10.755
72782ION    CL-37602  17.970  44.830   3.098
72783ION    CL-37603  43.662   2.032  11.881
72784ION    CL-37604  30.508  33.635  11.970
72785ION    CL-37605  36.569  13.668  13.820
72786ION    CL-37606   3.068  20.774   5.208
72787ION    CL-37607   6.198  25.892  14.823
72788ION    CL-37608  33.587   2.316   4.961
72789ION    CL-37609   4.293  10.921   4.111
72790ION    CL-37610  20.670  11.300   0.651
72791ION    CL-37611  41.294  29.112   1.198
72792ION    CL-37612  43.471  19.860  10.884
72793ION    CL-37613   1.504  41.850  13.494
72794ION    CL-37614  38.944   2.471  10.702
72795ION    CL-37615   4.238  29.290   0.210
72796ION    CL-37616  19.107  15.833   0.797
72797ION    CL-37617  18.211  12.047  11.234
72798ION    CL-37618  13.748  32.087   1.629
72799ION    CL-37619  38.392  34.120  13.122
72800ION    CL-37620  17.061  18.152  13.773
72801ION    CL-37621  41.795  12.417   4.273
72802ION    CL-37622  32.737  11.510  11.635
72803ION    CL-37623  38.002  11.276   2.145
72804ION    CL-37624  19.235  18.341  12.097
72805ION    CL-37625  27.260  34.117  13.036
72806ION    CL-37626   1.818  39.213   0.478
72807ION    CL-37627  30.858  10.117   2.104
72808ION    CL-37628   5.881  24.514  11.125
72809ION    CL-37629  28.898   4.937  14.869
72810ION    CL-37630  30.812  24.639   0.347
72811ION    CL-37631  10.049  19.414  14.512
72812ION    CL-37632  32.605   5.455  14.817
72813ION    CL-37633  39.063  26.742   1.504
72814ION    CL-37634  43.143   2.551  11.355
72815ION    CL-37635  19.186  44.749   3.589
72816ION    CL-37636  42.932  32.928   5.097
72817ION    CL-37637   3.467  30.054   4.722
72818ION    CL-37638   8.909  43.301   2.902
72819ION    CL-37639  25.915   6.355   4.641
72820ION    CL-37640  18.315  15.037  13.528
72821ION    CL-37641  39.148   5.775  11.617
72822ION    CL-37642  15.490   0.550  10.753
72823ION    CL-37643  34.843  11.196   4.995
72824ION    CL-37644  26.598   1.051  14.862
72825ION    CL-37645  11.746   2.367   2.226
72826ION    CL-37646  35.254  21.494  12.257
72827ION    CL-37647   1.130  37.647   1.723
72828ION    CL-37648   0.580  28.940  13.591
72829ION    CL-37649   5.938  37.827   1.462
72830ION    CL-37650  10.326  27.000   4.966
72831ION    CL-37651  16.091  35.688   4.967
72832ION    CL-37652  27.584  17.514  12.475
72833ION    CL-37653  10.459  19.834  13.809
72834ION    CL-37654  39.797   9.742   5.207
72835ION    CL-37655  23.766  28.890  10.674
72836ION    CL-37656  17.391  17.121   3.638
72837ION    CL-37657  16.482  32.717   4.661
72838ION    CL-37658  44.513   3.009   0.964
72839ION    CL-37659  12.126   5.747   0.076
72840ION    CL-37660  24.503  34.398   1.990
72841ION    CL-37661  14.152   4.433   4.035
72842ION    CL-37662  26.457  26.920  12.102
72843ION    CL-37663  19.410  42.678  11.506
72844ION    CL-37664   8.605  13.648   0.834
72845ION    CL-37665  38.705  14.563   0.545
72846ION    CL-37666  27.636  22.027  11.253
72847ION    CL-37667  14.288  44.613   0.658
72848ION    CL-37668  40.259   6.715   0.930
72849ION    CL-37669  19.679  12.754  13.459
72850ION    CL-37670  41.080  36.793  13.173
72851ION    CL-37671  34.210  16.435  10.367
72852ION    CL-37672  37.413  39.220   1.819
72853ION    CL-37673  17.852  14.103   3.842
72854ION    CL-37674  21.475  32.009  14.855
72855ION    CL-37675  33.756  18.841   0.070
72856ION    CL-37676  10.377  34.153   1.758
72857ION    CL-37677   8.886  20.297   4.547
72858ION    CL-37678  24.189  33.377   3.250
72859ION    CL-37679  17.910  44.501   1.480
72860ION    CL-37680   8.668  38.404   1.735
72861ION    CL-37681  12.161  20.382   2.827
72862ION    CL-37682  20.475  17.955  11.529
72863ION    CL-37683  35.971  16.418   1.854
72864ION    CL-37684  17.552  43.543  12.995
72865ION    CL-37685   5.879  42.823   2.604
72866ION    CL-37686   3.368   5.260  11.938
72867ION    CL-37687   4.724  33.334   1.302
72868ION    CL-37688  11.013  19.410  10.707
72869ION    CL-37689  36.705  30.712   2.062
72870ION    CL-37690  33.342  32.852   3.106
72871ION    CL-37691  12.401  40.862  13.869
72872ION    CL-37692  28.106  44.734   9.787
72873ION    CL-37693  17.736  21.257  13.813
72874ION    CL-37694   6.411   5.418   2.675
72875ION    CL-37695  39.419  17.774  10.409
72876ION    CL-37696  33.312   3.447   2.404
72877ION    CL-37697  35.504  34.506  11.219
72878ION    CL-37698  41.420  40.320   1.670
72879ION    CL-37699  35.470  20.868   2.815
72880ION    CL-37700  35.608  30.943   3.362
72881ION    CL-37701  35.799  22.045   0.991
72882ION    CL-37702  22.453  22.197   4.164
72883ION    CL-37703  42.569  20.823   3.796
72884ION    CL-37704  43.651  19.954   1.942
72885ION    CL-37705  24.627  11.871  13.520
72886ION    CL-37706  30.011  16.237   9.598
72887ION    CL-37707  25.037  31.119   3.512
72888ION    CL-37708   2.644  39.966  11.814
72889ION    CL-37709  34.176  19.923  13.236
72890ION    CL-37710  43.039  32.374  12.182
72891ION    CL-37711  44.606  20.365  11.720
72892ION    CL-37712   6.186  41.009  10.894
72893ION    CL-37713  14.884  30.678   4.698
72894ION    CL-37714  38.816  28.843   2.974
72895ION    CL-37715   0.404  22.024  11.183
72896ION    CL-37716  20.527  10.294  11.543
72897ION    CL-37717  17.095  25.126   4.723
72898ION    CL-37718  17.184  28.767   9.822
72899ION    CL-37719   3.200  15.793   1.385
72900ION    CL-37720  35.227  37.734  12.441
72901ION    CL-37721  23.363  20.111  13.458
72902ION    CL-37722  27.588  31.591  11.382
72903ION    CL-37723  23.600  30.488   5.065
72904ION    CL-37724  44.441  30.170  11.977
72905ION    CL-37725  40.517  25.756   2.876
72906ION    CL-37726  11.241  34.963  12.332
72907ION    CL-37727  17.986  44.288   0.609
72908ION    CL-37728  11.123  41.085  12.666
72909ION    CL-37729  32.929   6.749   3.605
72910ION    CL-37730  28.758  27.987   2.201
72911ION    CL-37731  16.514  26.533   0.788
72912ION    CL-37732  35.776  10.502   2.962
72913ION    CL-37733  10.719  34.778  11.499
72914ION    CL-37734  44.943  39.860  12.422
72915ION    CL-37735   6.732  37.328   4.168
72916ION    CL-37736  13.375  12.674  11.563
72917ION    CL-37737   0.046  17.243  12.248
72918ION    CL-37738  42.912  13.965  14.510
72919ION    CL-37739  30.983  27.613   2.433
72920ION    CL-37740   3.631  11.822   1.354
72921ION    CL-37741   6.922  38.068  11.484
72922ION    CL-37742  40.836  44.198   0.318
72923ION    CL-37743  33.028  31.925   0.240
72924ION    CL-37744  22.706  33.568   2.745
72925ION    CL-37745  35.612  23.282  11.640
72926ION    CL-37746  42.957  12.425  12.420
72927ION    CL-37747  42.795  10.605   1.345
72928ION    CL-37748  19.804  44.004  12.076
72929ION    CL-37749  33.904  32.269  11.463
72930ION    CL-37750  42.051  40.470   3.983
72931ION    CL-37751  31.952  44.009  12.277
72932ION    CL-37752   7.480  13.872  12.880
72933ION    CL-37753  40.472   4.158   4.077
72934ION    CL-37754  20.936   4.674   5.170
72935ION    CL-37755  38.977   5.305   0.850
72936ION    CL-37756  28.853  10.598  14.058
72937ION    CL-37757  28.207   5.755   0.438
72938ION    CL-37758  16.242  18.598   2.648
72939ION    CL-37759  25.300  26.250   1.884
72940ION    CL-37760  35.453   5.854   4.233
72941ION    CL-37761  20.286  10.777   1.412
72942ION    CL-37762  27.427  18.621  14.119
72943ION    CL-37763  22.865  11.202   4.445
72944ION    CL-37764   2.994   0.693   5.041
72945ION    CL-37765  41.028  10.040   4.875
72946ION    CL-37766  28.917  44.403   5.031
72947ION    CL-37767  11.427   8.217  10.790
72948ION    CL-37768   9.242  13.842  13.493
72949ION    CL-37769  16.071  43.119  13.759
72950ION    CL-37770  23.462   1.190   1.343
72951ION    CL-37771  16.136  42.608   0.427
72952ION    CL-37772  37.347  32.644  14.966
72953ION    CL-37773  35.427  30.687   1.165
72954ION    CL-37774  39.271  16.462  14.933
72955ION    CL-37775  26.801   8.268   3.969
72956ION    CL-37776   8.734   2.676   2.387
72957ION    CL-37777  26.021   2.445  12.461
72958ION    CL-37778  41.841  13.653   0.121
72959ION    CL-37779  37.665  44.206  11.693
72960ION    CL-37780  13.823  36.902   4.857
72961ION    CL-37781  23.480  32.048   4.168
72962ION    CL-37782  38.440  31.486  12.467
72963ION    CL-37783   5.246  12.593  12.495
72964ION    CL-37784  28.189  24.790   3.168
72965ION    CL-37785  13.757  16.916   4.574
72966ION    CL-37786   5.718   0.988   4.984
72967ION    CL-37787  25.237  35.864  11.720
72968ION    CL-37788  31.507  26.993   1.273
72969ION    CL-37789   0.958  12.931  11.458
72970ION    CL-37790   0.938  39.337  13.033
72971ION    CL-37791  37.108  14.033   0.339
72972ION    CL-37792  34.162  36.681   3.052
72973ION    CL-37793  24.228   8.276  14.411
72974ION    CL-37794  22.048  11.060   2.809
72975ION    CL-37795   3.840  37.268   3.205
72976ION    CL-37796  36.295   6.027   3.993
72977ION    CL-37797  35.761  27.022  11.618
72978ION    CL-37798  41.233  42.997  11.141
72979ION    CL-37799  41.750   4.717   1.648
72980ION    CL-37800   6.647  25.332   3.237
72981ION    CL-37801  44.531  26.007  10.520
72982ION    CL-37802   3.249  39.780  12.589
72983ION    CL-37803  28.892  26.616  13.411
72984ION    CL-37804   5.578  12.844   4.845
72985ION    CL-37805  35.835  22.316  11.768
72986ION    CL-37806   7.036  39.534   3.705
72987ION    CL-37807   6.521  14.559   4.658
72988ION    CL-37808   6.317  29.222   2.539
72989ION    CL-37809  40.867  11.815  14.282
72990ION    CL-37810  20.544  37.800   2.374
72991ION    CL-37811   2.450  42.353  11.213
72992ION    CL-37812  26.947  18.326   2.403
72993ION    CL-37813   4.081  35.939  12.022
72994ION    CL-37814  35.638  35.932  14.657
72995ION    CL-37815  41.530  13.490   2.446
72996ION    CL-37816  19.229  28.729  12.082
72997ION    CL-37817  10.463  25.752  11.668
72998ION    CL-37818   5.598  34.834   3.790
72999ION    CL-37819  36.999  28.679   4.835
73000ION    CL-37820  40.545  30.852   0.998
73001ION    CL-37821   6.183  27.865  12.319
73002ION    CL-37822   5.015  23.036  10.370
73003ION    CL-37823  20.546  33.046  14.384
73004ION    CL-37824   5.576  13.944   0.008
73005ION    CL-37825  32.868  21.110   2.201
73006ION    CL-37826  22.512  19.146  10.607
73007ION    CL-37827  16.837  35.189   3.272
73008ION    CL-37828  29.165  23.153   0.778
73009ION    CL-37829  15.192   1.235   0.311
73010ION    CL-37830  28.439  19.787  13.459
73011ION    CL-37831  43.545   8.005   3.700
73012ION    CL-37832  14.680  37.129  13.017
73013ION    CL-37833  18.903  22.428   5.009
73014ION    CL-37834  18.200  27.259   1.472
73015ION    CL-37835  19.768  37.613   0.488
73016ION    CL-37836  28.249  24.631   5.077
73017ION    CL-37837  35.514  16.808   3.073
73018ION    CL-37838  25.253  23.744   1.837
73019ION    CL-37839  23.589  32.303  11.747
73020ION    CL-37840   3.750  30.653  11.000
73021ION    CL-37841  43.057  39.294  12.509
73022ION    CL-37842   7.348  14.087   2.334
73023ION    CL-37843  17.860  29.414   1.602
73024ION    CL-37844  37.561  20.741  11.578
73025ION    CL-37845  11.004   1.597   1.699
73026ION    CL-37846  36.967  36.810  12.174
73027ION    CL-37847   1.443  23.761   1.401
73028ION    CL-37848  15.753   7.608  10.678
73029ION    CL-37849  43.777  37.807   2.104
73030ION    CL-37850  30.414   1.645   2.405
73031ION    CL-37851  44.217  31.084  14.900
73032ION    CL-37852   8.770  37.888   2.585
73033ION    CL-37853  11.768  12.822   3.886
73034ION    CL-37854  41.369  22.626  14.044
73035ION    CL-37855  19.782  42.314  14.735
73036ION    CL-37856  14.809  29.598  13.869
73037ION    CL-37857   0.523  14.836  11.761
73038ION    CL-37858  38.055  19.648   3.154
73039ION    CL-37859  26.111  40.490   1.399
73040ION    CL-37860  14.621   0.408  11.399
73041ION    CL-37861  32.709  26.487   0.188
73042ION    CL-37862  11.754  38.534   1.464
73043ION    CL-37863   6.283  28.466   1.841
73044ION    CL-37864  18.387  40.473   3.191
73045ION    CL-37865  29.363  10.110  14.656
73046ION    CL-37866  17.241  13.559  13.444
73047ION    CL-37867  33.831  17.628  12.674
73048ION    CL-37868  15.273   6.944  11.666
73049ION    CL-37869  40.553   7.225  13.641
73050ION    CL-37870  11.500  10.311   3.119
73051ION    CL-37871   2.144  42.853   0.873
73052ION    CL-37872  19.031  20.994   1.719
73053ION    CL-37873  34.290  42.200   0.856
73054ION    CL-37874  37.843  30.564  10.727
73055ION    CL-37875  43.917  32.389   0.509
73056ION    CL-37876   8.077   4.154  13.517
73057ION    CL-37877  28.586  31.325   2.722
73058ION    CL-37878  43.674  37.045  13.318
73059ION    CL-37879  34.971   2.999   3.539
73060ION    CL-37880  42.722  25.997  13.711
73061ION    CL-37881  26.112  36.622   1.954
73062ION    CL-37882  27.837  18.507  13.377
73063ION    CL-37883  23.996  40.264   3.644
73064ION    CL-37884  18.126   9.388  14.565
73065ION    CL-37885  42.702  28.211  12.164
73066ION    CL-37886  26.379  30.180   4.781
73067ION    CL-37887  31.626  22.073  11.559
73068ION    CL-37888  26.660   5.715   2.276
73069ION    CL-37889  16.180  12.242  13.758
73070ION    CL-37890  37.590  30.898   2.255
73071ION    CL-37891  14.116  14.772   1.104
73072ION    CL-37892  22.685  16.331  14.067
73073ION    CL-37893   4.080  43.101  14.699
73074ION    CL-37894  21.907  24.743   4.266
73075ION    CL-37895  35.960  40.927   0.763
73076ION    CL-37896  31.725  36.875   1.346
73077ION    CL-37897  26.251  17.131  12.540
73078ION    CL-37898  35.854  17.837   2.345
73079ION    CL-37899  19.712  11.879   0.795
73080ION    CL-37900  16.710  19.086  13.834
73081ION    CL-37901  39.091   6.142   1.081
73082ION    CL-37902  32.675  34.391   3.258
73083ION    CL-37903  41.199  19.713   0.321
73084ION    CL-37904  25.626  17.416  13.288
73085ION    CL-37905  21.146   5.333  13.767
73086ION    CL-37906  41.504  21.198  12.982
73087ION    CL-37907  34.044   0.911  13.722
73088ION    CL-37908  17.596   7.907  14.656
73089ION    CL-37909  11.714   7.722   2.183
73090ION    CL-37910   8.851  27.298  11.174
73091ION    CL-37911   7.190  20.136   2.910
73092ION    CL-37912  10.931  23.698  13.427
73093ION    CL-37913  37.322   9.309   2.419
73094ION    CL-37914  24.225  30.987   2.655
73095ION    CL-37915   0.027  27.604   0.236
73096ION    CL-37916  41.448  10.886  12.980
73097ION    CL-37917  44.524   0.803  11.737
73098ION    CL-37918  40.641  43.951  10.707
73099ION    CL-37919   6.444  42.120  11.341
73100ION    CL-37920  18.757  14.099   4.837
73101ION    CL-37921  38.705  44.004   4.496
73102ION    CL-37922  25.796  26.979  11.227
73103ION    CL-37923   5.835  10.534  12.034
73104ION    CL-37924  16.491  16.885  11.617
73105ION    CL-37925  32.721   3.952   0.632
73106ION    CL-37926  28.948  34.596  10.627
73107ION    CL-37927  19.565  34.624   4.069
73108ION    CL-37928  26.135  39.900   2.592
73109ION    CL-37929  41.635  15.692  14.226
73110ION    CL-37930   2.649  10.838   2.841
73111ION    CL-37931  12.205  43.362   1.748
73112ION    CL-37932  13.770  26.406  12.452
73113ION    CL-37933  22.183  16.731  11.016
73114ION    CL-37934  41.722  33.302   4.079
73115ION    CL-37935   2.635   7.276   0.219
73116ION    CL-37936  16.453  28.766   2.668
73117ION    CL-37937   3.807  39.068  11.570
73118ION    CL-37938   5.524  24.535  13.040
73119ION    CL-37939  13.979   3.154  13.364
73120ION    CL-37940  34.006  32.150  14.192
73121ION    CL-37941  32.792   7.308  12.035
73122ION    CL-37942   6.633  11.030   3.790
73123ION    CL-37943  44.721  40.033   3.515
73124ION    CL-37944   8.319  17.604   9.613
73125ION    CL-37945   1.542  26.288   2.208
73126ION    CL-37946  41.566  14.579  11.088
73127ION    CL-37947  14.045  17.723  14.475
73128ION    CL-37948   7.899   7.172   5.040
73129ION    CL-37949  10.583  35.350   1.594
73130ION    CL-37950  11.587  14.628  10.579
73131ION    CL-37951  12.719  30.290   2.424
73132ION    CL-37952  31.512   6.488   4.663
73133ION    CL-37953   0.758  12.180   2.283
73134ION    CL-37954  12.030  32.075  11.569
73135ION    CL-37955  44.621  19.743   4.124
73136ION    CL-37956  17.664  18.584   1.631
73137ION    CL-37957   3.646  33.272   0.331
73138ION    CL-37958  17.367   7.755   1.916
73139ION    CL-37959  31.582  16.516   1.286
73140ION    CL-37960  40.999  16.251  10.350
73141ION    CL-37961  14.874  27.040  13.562
73142ION    CL-37962  28.207   4.122  14.345
73143ION    CL-37963   1.057  24.287  11.500
73144ION    CL-37964  17.111  27.631  11.962
73145ION    CL-37965  23.574   8.871   3.684
73146ION    CL-37966  11.038  10.220   4.002
73147ION    CL-37967  40.731  37.317   2.717
73148ION    CL-37968  30.256  16.306   4.552
73149ION    CL-37969  20.187  32.091  14.495
73150ION    CL-37970  28.325  18.334   4.059
73151ION    CL-37971  26.793  11.638   4.979
73152ION    CL-37972  19.041  40.797  10.525
73153ION    CL-37973  21.950  15.778   2.620
73154ION    CL-37974  44.786  23.337  12.037
73155ION    CL-37975   8.821  26.754  12.021
73156ION    CL-37976   1.221  15.210   0.360
73157ION    CL-37977  11.637   0.201  11.517
73158ION    CL-37978  16.563  35.019  10.525
73159ION    CL-37979  12.887  29.062   1.708
73160ION    CL-37980  10.049  43.236  12.463
73161ION    CL-37981  43.066  24.170  14.554
73162ION    CL-37982  29.611  16.981   1.066
73163ION    CL-37983  43.891   0.959   1.440
73164ION    CL-37984  35.376   8.715  11.385
73165ION    CL-37985   3.723   4.985   2.588
73166ION    CL-37986  31.566   3.794   0.465
73167ION    CL-37987  43.113   9.245  13.578
73168ION    CL-37988  20.331  19.664  10.823
73169ION    CL-37989  24.304  42.059  12.298
73170ION    CL-37990  44.029  17.883   1.000
73171ION    CL-37991  10.479  37.087   3.671
73172ION    CL-37992  31.150  33.555   0.401
73173ION    CL-37993  27.545  42.290   1.356
73174ION    CL-37994  23.901   3.258   3.984
73175ION    CL-37995  41.596  12.230  12.847
73176ION    CL-37996  11.798  41.628   4.081
73177ION    CL-37997  41.143  24.537  14.382
73178ION    CL-37998   5.245   0.350   0.991
73179ION    CL-37999   1.214   1.219  14.047
73180ION    CL-38000  34.878  19.993  13.945
73181ION    CL-38001  27.099  22.285  12.110
73182ION    CL-38002  25.237  27.714  10.845
73183ION    CL-38003  23.360  31.308  11.382
73184ION    CL-38004  32.391  22.489  13.892
73185ION    CL-38005  34.154   8.986   4.158
73186ION    CL-38006   3.330   0.768  12.396
73187ION    CL-38007  28.148   8.877   3.266
73188ION    CL-38008  18.793  21.110  14.267
73189ION    CL-38009   1.130  26.448   4.419
73190ION    CL-38010  41.942  29.883   1.851
73191ION    CL-38011  21.258  25.086  13.005
73192ION    CL-38012  32.330  12.990  11.173
73193ION    CL-38013  44.080  26.216   3.221
73194ION    CL-38014  11.997  39.083   1.067
73195ION    CL-38015  40.331  28.571  14.157
73196ION    CL-38016   7.185  39.227   3.034
73197ION    CL-38017  21.688  11.287   1.406
73198ION    CL-38018  11.939  37.346   2.397
73199ION    CL-38019  10.594  25.380   1.996
73200ION    CL-38020  42.675  20.041   1.743
73201ION    CL-38021   0.483  24.940  13.598
73202ION    CL-38022  21.578   6.031  10.736
73203ION    CL-38023  17.287  13.968   0.093
73204ION    CL-38024  38.907  43.306  11.621
73205ION    CL-38025  34.844   5.190   4.466
73206ION    CL-38026  44.730  10.947  13.583
73207ION    CL-38027  34.007  27.712   0.560
73208ION    CL-38028   3.808  17.895  12.566
73209ION    CL-38029  11.124  19.418   4.232
73210ION    CL-38030   5.103  30.537   3.237
73211ION    CL-38031  20.824   1.331  13.534
73212ION    CL-38032  28.998   4.186   0.533
73213ION    CL-38033  39.019  33.375   5.222
73214ION    CL-38034  33.616   7.154  14.366
73215ION    CL-38035  26.178  30.632   2.853
73216ION    CL-38036  20.764  14.604  10.705
73217ION    CL-38037  34.929  34.543   3.080
73218ION    CL-38038  41.781  18.888   0.027
73219ION    CL-38039   1.331   4.233   1.693
73220ION    CL-38040  13.265   5.241  10.722
73221ION    CL-38041  20.622  24.154   4.152
73222ION    CL-38042  10.408  13.290   1.947
73223ION    CL-38043  34.715  41.414   3.307
73224ION    CL-38044  24.229  11.494  14.608
73225ION    CL-38045   2.781   3.962   2.143
73226ION    CL-38046  22.723  16.823   4.316
73227ION    CL-38047   1.081  36.658  12.521
73228ION    CL-38048   4.382  37.529  14.879
73229ION    CL-38049  22.793   1.768   9.951
73230ION    CL-38050  41.443  31.209   4.409
73231ION    CL-38051  27.297  37.720   3.821
73232ION    CL-38052   5.193  19.518  13.962
73233ION    CL-38053  38.628  11.597   4.559
73234ION    CL-38054  21.061  18.473  12.022
73235ION    CL-38055  28.643  27.053   1.716
73236ION    CL-38056   7.132  42.624  13.084
73237ION    CL-38057  12.270  32.733  10.618
73238ION    CL-38058  24.499   0.760  13.817
73239ION    CL-38059   7.822   1.190   4.452
73240ION    CL-38060  27.219  43.824  12.094
73241ION    CL-38061  26.620  17.277   4.871
73242ION    CL-38062  10.768   2.746  13.459
73243ION    CL-38063   2.492  36.294   0.751
73244ION    CL-38064   9.601  25.306   5.031
73245ION    CL-38065   5.447  15.238   0.903
73246ION    CL-38066  21.954  13.431   1.883
73247ION    CL-38067  14.580  28.903  14.552
73248ION    CL-38068   1.232  28.232  11.635
73249ION    CL-38069  27.652  30.048   4.860
73250ION    CL-38070  26.179  21.640   3.427
73251ION    CL-38071  23.049  30.183  14.733
73252ION    CL-38072   3.232  37.840  10.309
73253ION    CL-38073   5.951  16.830  10.631
73254ION    CL-38074  38.120   3.892  10.873
73255ION    CL-38075  16.392  18.816   4.097
73256ION    CL-38076  16.868  27.018   2.830
73257ION    CL-38077  43.864  22.698   2.322
73258ION    CL-38078   4.861  22.321  11.609
73259ION    CL-38079  34.131  38.761  13.490
73260ION    CL-38080  24.380  29.356  11.094
73261ION    CL-38081   7.625  41.951   1.004
73262ION    CL-38082   8.766   9.652  13.181
73263ION    CL-38083  42.770  31.737  13.408
73264ION    CL-38084   3.583  42.749  14.022
73265ION    CL-38085   5.808   7.073   0.160
73266ION    CL-38086  22.429  19.933   9.993
73267ION    CL-38087  39.976   8.173   0.721
73268ION    CL-38088   9.960  25.695  13.181
73269ION    CL-38089  10.977  26.635   5.195
73270ION    CL-38090   7.143  15.357   0.245
73271ION    CL-38091   6.793  15.326  12.463
73272ION    CL-38092  24.728  11.713   3.254
73273ION    CL-38093  13.578   3.723  14.791
73274ION    CL-38094  42.424  25.699   5.136
73275ION    CL-38095  37.933  32.108   2.855
73276ION    CL-38096   3.336  21.061  12.237
73277ION    CL-38097  26.805  24.078  13.871
73278ION    CL-38098  16.025  39.746  11.728
73279ION    CL-38099  11.870   9.428   3.405
73280ION    CL-38100  17.224  17.938   4.239
73281ION    CL-38101   2.674  20.936  13.087
73282ION    CL-38102  16.794  33.386   3.543
73283ION    CL-38103  17.167  21.642  12.620
73284ION    CL-38104   1.919  16.845   2.935
73285ION    CL-38105   5.315  39.558  14.298
73286ION    CL-38106  38.916  39.705  12.211
73287ION    CL-38107   1.775  27.493   4.590
73288ION    CL-38108  36.561  31.647   0.478
73289ION    CL-38109  15.856   0.390  11.677
73290ION    CL-38110  11.876  15.131   0.913
73291ION    CL-38111   1.456  25.351  14.943
73292ION    CL-38112  21.875  44.691  12.014
73293ION    CL-38113  13.003  41.831  14.620
73294ION    CL-38114  16.502   3.456   2.364
73295ION    CL-38115  33.957  26.082  12.960
73296ION    CL-38116  37.544  14.789  14.851
73297ION    CL-38117   9.932  22.220   4.595
73298ION    CL-38118   7.425  14.471   5.078
73299ION    CL-38119  40.260  40.327  11.924
73300ION    CL-38120  39.884  20.288  14.058
73301ION    CL-38121  10.401  39.900   2.456
73302ION    CL-38122  39.106  36.884  13.021
73303ION    CL-38123   2.543   0.378  14.468
73304ION    CL-38124   6.095  37.465   5.148
73305ION    CL-38125  15.029   1.859   1.912
73306ION    CL-38126  25.536  14.418   0.358
73307ION    CL-38127   1.894  37.730   0.673
73308ION    CL-38128  25.202   6.012   1.392
73309ION    CL-38129   3.176  10.273   1.670
73310ION    CL-38130   8.197  13.674   3.545
73311ION    CL-38131  41.757  27.157   2.016
73312ION    CL-38132   6.462  18.376  14.153
73313ION    CL-38133  11.755  40.451  12.630
73314ION    CL-38134   4.695   7.426   3.693
73315ION    CL-38135  32.847  36.493  13.163
73316ION    CL-38136  24.736  31.695  12.855
73317ION    CL-38137  30.330  43.537  12.834
73318ION    CL-38138  29.581  39.097   1.612
73319ION    CL-38139   3.477  20.376   2.544
73320ION    CL-38140  37.335  15.845  13.269
73321ION    CL-38141  39.253  28.434   0.551
73322ION    CL-38142  18.068  37.729  14.208
73323ION    CL-38143  42.056  32.401  12.363
73324ION    CL-38144   4.969   6.364   4.621
73325ION    CL-38145  38.414  17.288   4.054
73326ION    CL-38146   9.803   8.190   1.233
73327ION    CL-38147  19.269  28.146   2.495
73328ION    CL-38148  21.142  11.994  10.581
73329ION    CL-38149  10.080  37.178  12.475
73330ION    CL-38150   5.330  43.011   1.473
73331ION    CL-38151  29.502   9.629   2.096
73332ION    CL-38152  26.998   2.290  12.610
73333ION    CL-38153  10.225  28.968   1.883
73334ION    CL-38154   0.362  41.063   2.414
73335ION    CL-38155  20.847  32.470  12.010
73336ION    CL-38156  24.944  12.549   1.320
73337ION    CL-38157   6.419   9.579   1.226
73338ION    CL-38158  18.818  13.166  14.369
73339ION    CL-38159  29.904  12.953  13.496
73340ION    CL-38160  26.035   1.455   1.377
73341ION    CL-38161  38.551  29.877  10.896
73342ION    CL-38162   7.664  41.360  10.069
73343ION    CL-38163  24.036   4.979   0.420
73344ION    CL-38164  39.157  17.436   5.074
73345ION    CL-38165  41.440  29.848  13.193
73346ION    CL-38166  12.082  11.123   3.087
73347ION    CL-38167  35.412  37.018  11.131
73348ION    CL-38168  25.982  25.386   0.332
73349ION    CL-38169  29.501  37.672   3.367
73350ION    CL-38170  35.184   9.076  10.472
73351ION    CL-38171  15.252   3.030   5.003
73352ION    CL-38172  40.511  29.512  13.352
73353ION    CL-38173  22.735  44.558   2.336
73354ION    CL-38174  19.821   3.578   2.155
73355ION    CL-38175   2.022  26.141  14.710
73356ION    CL-38176  17.590   5.016  11.910
73357ION    CL-38177   7.348  33.060  14.310
73358ION    CL-38178  11.037  23.293  12.067
73359ION    CL-38179  24.524  39.895   1.473
73360ION    CL-38180  35.043  25.254  14.712
73361ION    CL-38181   5.061  10.334   2.440
73362ION    CL-38182  12.156  32.921   1.801
73363ION    CL-38183   6.693   0.994  13.372
73364ION    CL-38184  25.901  16.641  14.882
73365ION    CL-38185  20.462  38.965   1.999
73366ION    CL-38186  15.953  32.890   0.127
73367ION    CL-38187  26.658  38.404  12.898
73368ION    CL-38188  33.715  44.206   0.699
73369ION    CL-38189  20.568  24.452  10.971
73370ION    CL-38190   5.949  33.833  13.305
73371ION    CL-38191  33.225  28.336   1.577
73372ION    CL-38192   2.239  25.145   1.354
73373ION    CL-38193  23.137  17.334   2.866
73374ION    CL-38194   4.221  16.765   5.113
73375ION    CL-38195  28.961   7.598  12.834
73376ION    CL-38196  43.927  44.256  13.000
73377ION    CL-38197  33.923  27.875   3.264
73378ION    CL-38198   2.249  13.458  11.170
73379ION    CL-38199  10.626   0.404   3.676
73380ION    CL-38200  38.003  44.604   0.740
73381ION    CL-38201   4.884  13.353  11.548
73382ION    CL-38202  34.189  38.346   1.394
73383ION    CL-38203  12.141  17.209   0.493
73384ION    CL-38204  29.929  20.127   0.936
73385ION    CL-38205  38.303  19.180   0.271
73386ION    CL-38206  34.034  14.597  14.878
73387ION    CL-38207  25.453  13.466   0.063
73388ION    CL-38208  36.019  21.224   1.519
73389ION    CL-38209   5.919  26.696   0.908
73390ION    CL-38210  15.388  22.746   2.266
73391ION    CL-38211   6.738   3.301  13.731
73392ION    CL-38212   9.890  38.766  13.555
73393ION    CL-38213  34.625  21.106   4.622
73394ION    CL-38214  34.396  34.583   0.814
73395ION    CL-38215   6.598  42.353   1.241
73396ION    CL-38216  30.381  29.643   3.697
73397ION    CL-38217  31.429  11.570   2.910
73398ION    CL-38218  38.875  35.140   4.030
73399ION    CL-38219  10.403   3.726   4.104
73400ION    CL-38220   8.051  42.753   4.704
73401ION    CL-38221   0.535  37.396   0.960
73402ION    CL-38222   1.213  21.985   1.832
73403ION    CL-38223  11.053  38.942  12.414
73404ION    CL-38224  17.824  25.518   1.636
73405ION    CL-38225  44.322  21.984  14.845
73406ION    CL-38226  23.700  38.160  11.798
73407ION    CL-38227  34.027  23.670  11.748
73408ION    CL-38228  19.164  11.122   1.824
73409ION    CL-38229   3.860  42.931  10.805
73410ION    CL-38230  16.724  29.147  11.130
73411ION    CL-38231  42.604  24.579  10.993
73412ION    CL-38232  31.581  15.571  11.693
73413ION    CL-38233  15.836  41.110  13.134
73414ION    CL-38234  30.895  34.462   0.735
73415ION    CL-38235  25.937  24.110  11.118
73416ION    CL-38236  11.761  38.380   4.580
73417ION    CL-38237  43.281  19.642   1.055
73418ION    CL-38238  44.716  36.989  10.351
73419ION    CL-38239  23.352  12.114   0.744
73420ION    CL-38240  21.233   8.806  13.718
73421ION    CL-38241  25.964  38.862   2.830
73422ION    CL-38242  26.607   8.883  13.531
73423ION    CL-38243  27.917  23.328  11.153
73424ION    CL-38244  28.217  20.483  14.448
73425ION    CL-38245   2.980  12.133  11.971
73426ION    CL-38246   8.295   2.170   0.247
73427ION    CL-38247  21.193  33.355   2.469
73428ION    CL-38248  43.418  25.303   3.686
73429ION    CL-38249   3.766   3.354   3.291
73430ION    CL-38250  34.515  38.334   4.605
73431ION    CL-38251   3.390   5.547   9.765
73432ION    CL-38252  44.078   9.727  11.923
73433ION    CL-38253   5.931  15.144  11.226
73434ION    CL-38254   0.799   4.428  12.558
73435ION    CL-38255  40.997  17.625   2.789
73436ION    CL-38256  17.407   0.813  14.901
73437ION    CL-38257  20.027  21.490  12.436
73438ION    CL-38258   8.425  10.719   0.854
73439ION    CL-38259  16.252  39.062   1.732
73440ION    CL-38260  36.368   4.134   0.301
73441ION    CL-38261  16.099  39.079  14.202
73442ION    CL-38262   7.500  29.700  11.568
73443ION    CL-38263  29.470  16.967  12.164
73444ION    CL-38264   5.734   4.114  13.618
73445ION    CL-38265  23.135  32.947  13.016
73446ION    CL-38266  31.617  39.323   2.627
73447ION    CL-38267  12.740  11.467   1.522
73448ION    CL-38268  18.987  44.911   2.573
73449ION    CL-38269  26.636  26.310  12.970
73450ION    CL-38270  38.113  13.940   3.858
73451ION    CL-38271  21.964  23.749  11.000
73452ION    CL-38272  28.352  18.997  14.067
73453ION    CL-38273  31.281  28.286  14.388
73454ION    CL-38274  23.115   1.931  12.352
73455ION    CL-38275  31.729  33.649  13.207
73456ION    CL-38276  12.805  43.507  11.584
73457ION    CL-38277   9.538  39.704  11.076
73458ION    CL-38278  34.700  35.187  11.165
73459ION    CL-38279   1.347   7.770   0.343
73460ION    CL-38280  19.874  27.911   3.084
73461ION    CL-38281  22.107   6.106   4.650
73462ION    CL-38282  29.927  18.379   4.621
73463ION    CL-38283  10.759   6.008  12.490
73464ION    CL-38284  12.143  11.856   0.820
73465ION    CL-38285  34.322   6.420  10.679
73466ION    CL-38286  37.388  19.470  12.950
73467ION    CL-38287  34.716  21.999  13.450
73468ION    CL-38288  15.262  34.677   3.844
73469ION    CL-38289  36.476  18.316   4.116
73470ION    CL-38290  23.932  44.970  11.611
73471ION    CL-38291  37.208   9.631   3.543
73472ION    CL-38292  40.833  33.844  13.462
73473ION    CL-38293  33.294  37.098   3.325
73474ION    CL-38294  35.597   7.745  13.547
73475ION    CL-38295  42.351   1.861  14.731
73476ION    CL-38296  33.702   2.426  14.511
73477ION    CL-38297  35.537  27.705   4.308
73478ION    CL-38298  37.748  29.959  11.971
73479ION    CL-38299   1.806  38.790  12.157
73480ION    CL-38300  42.897  10.766   2.326
73481ION    CL-38301  19.741  26.039   3.570
73482ION    CL-38302  31.124   1.670  14.400
73483ION    CL-38303  35.446  34.132  14.855
73484ION    CL-38304  22.544  23.968   4.810
73485ION    CL-38305   1.956  21.115   2.764
73486ION    CL-38306   1.465   5.489   3.122
73487ION    CL-38307  29.730  16.926   3.768
73488ION    CL-38308  13.679   2.456   0.410
73489ION    CL-38309  21.011   3.638  13.485
73490ION    CL-38310   0.358  38.047   4.349
73491ION    CL-38311  33.434  33.777   3.475
73492ION    CL-38312  41.861  14.946  11.816
73493ION    CL-38313   3.488  41.806  14.395
73494ION    CL-38314  20.089  34.083  13.752
73495ION    CL-38315  40.366   6.841   3.696
73496ION    CL-38316  42.432  25.187   3.564
73497ION    CL-38317  36.138   3.527  11.512
73498ION    CL-38318   6.687  18.992   2.239
73499ION    CL-38319  35.179  24.988   1.710
73500ION    CL-38320  40.261  16.245   2.267
73501ION    CL-38321  32.460  38.637  12.226
73502ION    CL-38322  44.362  36.694  14.569
73503ION    CL-38323  27.953  20.497   2.738
73504ION    CL-38324  36.573  17.277   0.400
73505ION    CL-38325  22.304  20.623  12.854
73506ION    CL-38326   8.962  13.241   3.068
73507ION    CL-38327  17.608   9.405   2.726
73508ION    CL-38328  32.065   9.108   4.659
73509ION    CL-38329  20.179  19.670  13.845
73510ION    CL-38330   0.011  23.445   4.058
73511ION    CL-38331  33.943  19.836   3.736
73512ION    CL-38332  39.439   6.936   1.737
73513ION    CL-38333  14.859  19.807   0.748
73514ION    CL-38334  29.876  26.184   2.788
73515ION    CL-38335  24.482  40.766  12.330
73516ION    CL-38336  24.351  36.838   3.590
73517ION    CL-38337  17.453  41.278   0.856
73518ION    CL-38338  13.891  13.300   1.236
73519ION    CL-38339  24.831  28.629  14.665
73520ION    CL-38340  26.255  30.718  13.336
73521ION    CL-38341  36.447  19.334   5.112
73522ION    CL-38342  26.868  16.038  13.310
73523ION    CL-38343   2.744   9.110  12.186
73524ION    CL-38344  41.650  11.708   0.081
73525ION    CL-38345  28.954   3.277  11.278
73526ION    CL-38346  19.182  30.382  12.143
73527ION    CL-38347  15.064   9.163  12.577
73528ION    CL-38348  26.983  36.874   3.938
73529ION    CL-38349  43.362  33.145   1.844
73530ION    CL-38350   1.675  28.687   1.799
73531ION    CL-38351  37.764  15.787   0.402
73532ION    CL-38352  33.357  44.793  12.549
73533ION    CL-38353  29.563   4.449   1.316
73534ION    CL-38354  41.794  39.015   4.976
73535ION    CL-38355   9.995  11.598  11.165
73536ION    CL-38356  25.698  42.520  12.977
73537ION    CL-38357  15.540  30.447  14.021
73538ION    CL-38358  41.256  31.994   1.709
73539ION    CL-38359  22.492   7.925  13.443
73540ION    CL-38360  22.793  19.394  13.612
73541ION    CL-38361  34.589  35.819  14.773
73542ION    CL-38362  12.474  15.234   1.601
73543ION    CL-38363   5.196  38.238  13.135
73544ION    CL-38364   5.125   4.085  12.148
73545ION    CL-38365   2.180  18.256  10.254
73546ION    CL-38366  10.327   1.871  11.990
73547ION    CL-38367  11.112  25.663  13.937
73548ION    CL-38368  23.640  19.105   4.078
73549ION    CL-38369  32.048  13.031   0.624
73550ION    CL-38370  13.944  38.936   9.700
73551ION    CL-38371  17.450  30.652   4.283
73552ION    CL-38372   9.632   3.836   3.444
73553ION    CL-38373   8.680  10.612   2.181
73554ION    CL-38374  37.626  11.702  11.484
73555ION    CL-38375   4.022   3.447  14.566
73556ION    CL-38376  31.048  33.988  14.001
73557ION    CL-38377  40.732  29.883   2.279
73558ION    CL-38378  32.335  11.921   3.148
73559ION    CL-38379  36.404   5.945  11.525
73560ION    CL-38380  40.906   9.343   9.925
73561ION    CL-38381   1.182  11.368  11.621
73562ION    CL-38382  25.375  15.854   3.630
73563ION    CL-38383   4.380  12.903   1.788
73564ION    CL-38384  40.446  38.534   2.159
73565ION    CL-38385  30.951  38.327  11.231
73566ION    CL-38386  28.229  43.137  11.973
73567ION    CL-38387  30.363  27.639  13.844
73568ION    CL-38388  17.058  41.614   2.082
73569ION    CL-38389  31.574  34.082  11.055
73570ION    CL-38390  25.104  21.163   2.933
73571ION    CL-38391  37.893  23.020  11.128
73572ION    CL-38392  29.438  44.427   2.993
73573ION    CL-38393   8.771   5.450   0.265
73574ION    CL-38394  25.589  15.380   4.370
73575ION    CL-38395  17.245  26.910   1.874
73576ION    CL-38396  25.222  22.942  13.983
73577ION    CL-38397   0.711   2.223  12.021
73578ION    CL-38398   5.807  17.500   3.047
73579ION    CL-38399  22.555  19.062  11.602
73580ION    CL-38400  33.908  23.145   2.671
73581ION    CL-38401  19.088  32.308   3.896
73582ION    CL-38402  30.644  43.999   3.754
73583ION    CL-38403   1.916  26.533   3.806
73584ION    CL-38404  31.870   8.033   1.499
73585ION    CL-38405  38.750  40.335  11.452
73586ION    CL-38406  35.831  21.490  12.928
73587ION    CL-38407  12.101  16.381  10.773
73588ION    CL-38408  26.887  44.846  14.081
73589ION    CL-38409  40.294   9.039  12.659
73590ION    CL-38410  17.042   8.368   3.371
73591ION    CL-38411  20.082   0.084  12.954
73592ION    CL-38412  34.250  22.656   3.597
73593ION    CL-38413   7.777  14.556   0.131
73594ION    CL-38414  34.865  43.528   5.167
73595ION    CL-38415  40.895  32.319  11.194
73596ION    CL-38416  12.298  21.568   1.901
73597ION    CL-38417  27.933  29.657   3.248
73598ION    CL-38418  42.444  19.722   3.165
73599ION    CL-38419  44.254  43.279   2.854
73600ION    CL-38420  39.594  39.400  14.553
73601ION    CL-38421  23.995  28.314  14.493
73602ION    CL-38422  14.583  40.936  13.147
73603ION    CL-38423  36.124  25.309   1.862
73604ION    CL-38424  33.872  21.077   3.310
73605ION    CL-38425  29.161  26.496  14.274
73606ION    CL-38426  28.677  44.648  14.737
73607ION    CL-38427  31.589  23.119  10.133
73608ION    CL-38428   3.379  38.134  11.966
73609ION    CL-38429   7.330  35.606  11.012
73610ION    CL-38430  19.991  13.909  14.733
73611ION    CL-38431  34.508  44.627   0.916
73612ION    CL-38432   0.798   7.501   1.638
73613ION    CL-38433  42.758  19.071   1.513
73614ION    CL-38434  17.877   1.462  11.890
73615ION    CL-38435  26.271  22.445   2.997
73616ION    CL-38436  24.640  39.883  13.809
73617ION    CL-38437   2.877  29.916   3.728
73618ION    CL-38438  21.558  25.745  11.592
73619ION    CL-38439  23.932  34.964   3.649
73620ION    CL-38440  20.687  19.286  12.469
73621ION    CL-38441   0.857  11.798   0.913
73622ION    CL-38442  38.017  33.655  11.662
73623ION    CL-38443   7.187   8.170  12.860
73624ION    CL-38444   2.914  37.197  11.991
73625ION    CL-38445  11.604  33.888  14.086
73626ION    CL-38446  29.629  42.409   0.510
73627ION    CL-38447  18.397  38.826  12.902
73628ION    CL-38448  37.801  28.908  12.052
73629ION    CL-38449  22.428  22.229  12.609
73630ION    CL-38450  31.596  11.986  10.747
73631ION    CL-38451   0.827  42.868  11.992
73632ION    CL-38452  16.522  43.863  13.401
73633ION    CL-38453  11.189  39.838   1.844
73634ION    CL-38454  43.274  27.078  10.354
73635ION    CL-38455  30.854  22.597   0.675
73636ION    CL-38456   7.687  15.294   2.587
73637ION    CL-38457  24.546   6.433  13.743
73638ION    CL-38458  33.858  38.086   2.193
73639ION    CL-38459  12.848  18.937  10.696
73640ION    CL-38460  37.797   9.740  14.516
73641ION    CL-38461  12.918   0.922  13.025
73642ION    CL-38462  30.130  43.304   0.999
73643ION    CL-38463  28.380  29.163  13.396
73644ION    CL-38464  19.968   6.966   0.094
73645ION    CL-38465  29.137  27.997  11.146
73646ION    CL-38466   0.674  35.593   4.980
73647ION    CL-38467  16.934   1.206  12.105
73648ION    CL-38468   7.750   5.608   4.135
73649ION    CL-38469   7.180   4.803   2.848
73650ION    CL-38470  41.547   3.007   1.871
73651ION    CL-38471  18.297  18.414   0.504
73652ION    CL-38472  40.748  11.428  11.987
73653ION    CL-38473  37.038  27.833   2.318
73654ION    CL-38474   9.614  29.260   0.447
73655ION    CL-38475  20.700  28.497   3.697
73656ION    CL-38476  10.050  11.918   1.611
73657ION    CL-38477  28.422  22.299   1.301
73658ION    CL-38478   8.248  11.580  12.051
73659ION    CL-38479  10.887  18.310   1.561
73660ION    CL-38480  11.911   3.736  12.051
73661ION    CL-38481   0.530  19.781   9.727
73662ION    CL-38482  23.108   8.389   0.276
73663ION    CL-38483  24.955   3.447  11.486
73664ION    CL-38484  36.845  25.922   0.315
73665ION    CL-38485  25.466  13.333  10.906
73666ION    CL-38486  41.969  24.125  14.901
73667ION    CL-38487  10.778   6.254   1.717
73668ION    CL-38488   0.281  17.994   4.232
73669ION    CL-38489  25.156  21.727   1.703
73670ION    CL-38490  43.698  12.423  14.902
73671ION    CL-38491  41.281   9.291  10.851
73672ION    CL-38492   1.549  12.268   1.678
73673ION    CL-38493  13.522  36.577  11.236
73674ION    CL-38494  29.492  27.647  12.661
73675ION    CL-38495  29.947  17.669   2.758
73676ION    CL-38496  22.125   5.662   2.393
73677ION    CL-38497  16.686  37.079  13.334
73678ION    CL-38498  25.664  36.229   0.359
73679ION    CL-38499  32.925   4.432  11.654
73680ION    CL-38500  39.290  25.486  11.935
73681ION    CL-38501  10.366   5.697  14.917
73682ION    CL-38502  41.357  29.181  13.771
73683ION    CL-38503   6.353  26.643   4.331
73684ION    CL-38504  37.565  43.764   1.846
73685ION    CL-38505  29.901  21.542   1.637
73686ION    CL-38506  43.072   1.029   4.237
73687ION    CL-38507  24.273   8.391   9.634
73688ION    CL-38508  40.536  33.098   0.798
73689ION    CL-38509  32.901  23.233  11.091
73690ION    CL-38510  12.840  11.704  14.096
73691ION    CL-38511  43.438  26.001  14.917
73692ION    CL-38512   5.890  25.925  10.715
73693ION    CL-38513  25.002  28.163   3.674
73694ION    CL-38514  22.453  28.191   1.280
73695ION    CL-38515  26.435  39.118   1.943
73696ION    CL-38516  34.680  30.891  12.989
73697ION    CL-38517   1.455  35.733  12.456
73698ION    CL-38518   5.849  27.080  12.972
73699ION    CL-38519   6.046  18.761  14.977
73700ION    CL-38520   8.285  25.259   1.268
73701ION    CL-38521  32.783  13.775   5.200
73702ION    CL-38522  15.237   9.215   1.321
73703ION    CL-38523  37.313   2.262   2.804
73704ION    CL-38524  30.474  26.400  12.171
73705ION    CL-38525  24.438   9.911  12.996
73706ION    CL-38526  31.876  28.029   2.225
73707ION    CL-38527  36.670  20.910  11.116
73708ION    CL-38528  40.777   8.840   3.192
73709ION    CL-38529  24.120  35.836   1.662
73710ION    CL-38530  23.078  35.841   3.581
73711ION    CL-38531   2.683  33.624   0.497
73712ION    CL-38532  32.117  37.931  14.579
73713ION    CL-38533  29.839  28.947  14.643
73714ION    CL-38534  15.982  21.746   2.219
73715ION    CL-38535  20.413  17.231  10.983
73716ION    CL-38536  28.471  13.975   5.183
73717ION    CL-38537  19.025  10.896   4.757
73718ION    CL-38538  28.885  44.115  13.762
73719ION    CL-38539   3.366  32.823  13.728
73720ION    CL-38540   1.912  36.636  13.077
73721ION    CL-38541   8.047   1.797   9.924
73722ION    CL-38542  21.994   6.332  13.838
73723ION    CL-38543  16.767  11.444   0.835
73724ION    CL-38544   7.034  43.688   3.298
73725ION    CL-38545  41.513   6.934  10.775
73726ION    CL-38546  28.238  14.269  12.085
73727ION    CL-38547  31.343   3.570  14.436
73728ION    CL-38548  37.845  36.300  14.949
73729ION    CL-38549   5.967  22.119  13.906
73730ION    CL-38550   7.153  41.790  14.585
73731ION    CL-38551   7.876  11.698   1.096
73732ION    CL-38552  38.535  23.757  10.920
73733ION    CL-38553  21.332   7.903   3.253
73734ION    CL-38554  20.464  21.699  14.509
73735ION    CL-38555  19.435  35.516  10.064
73736ION    CL-38556  34.556  13.693   3.374
73737ION    CL-38557  37.244   5.620   3.792
73738ION    CL-38558  33.509   5.746   3.595
73739ION    CL-38559   1.793  12.387  11.546
73740ION    CL-38560  39.927  25.368   4.389
73741ION    CL-38561  15.163  27.235  11.118
73742ION    CL-38562  20.776  41.430  14.391
73743ION    CL-38563  28.935   5.805   4.313
73744ION    CL-38564   0.224  29.922  12.864
73745ION    CL-38565  37.617  29.667   2.683
73746ION    CL-38566  34.792  11.694  11.088
73747ION    CL-38567  36.854  44.735   2.268
73748ION    CL-38568  18.989  43.036  14.562
73749ION    CL-38569   0.726   2.477   2.690
73750ION    CL-38570  42.641  42.641  14.559
73751ION    CL-38571  12.630  20.571   0.786
73752ION    CL-38572  40.129   3.553  13.820
73753ION    CL-38573   7.125  42.484  10.949
73754ION    CL-38574   7.716  26.000   1.949
73755ION    CL-38575   2.184  39.046   4.726
73756ION    CL-38576   7.355  19.260  13.795
73757ION    CL-38577   2.657  39.295   0.115
73758ION    CL-38578   9.459  12.327  11.205
73759ION    CL-38579  23.206  23.209  14.705
73760ION    CL-38580  19.222  18.327   2.122
73761ION    CL-38581  32.054  38.898   4.085
73762ION    CL-38582  28.588  12.728   3.842
73763ION    CL-38583  37.451   8.590  13.011
73764ION    CL-38584   4.197  34.439  11.619
73765ION    CL-38585  12.048   5.480  11.173
73766ION    CL-38586  20.783   0.403   3.816
73767ION    CL-38587  21.358   7.116   2.800
73768ION    CL-38588  44.430  11.182   2.820
73769ION    CL-38589  41.537  19.450  10.718
73770ION    CL-38590  32.490  19.500  12.182
73771ION    CL-38591  40.234  18.009  10.155
73772ION    CL-38592  15.755  28.201  10.860
73773ION    CL-38593  11.248  17.222   4.274
73774ION    CL-38594  39.654  27.584  14.985
73775ION    CL-38595  25.328  25.219  11.245
73776ION    CL-38596  41.186  22.971   3.804
73777ION    CL-38597  14.098  16.644   1.526
73778ION    CL-38598  42.840  38.530  14.139
73779ION    CL-38599  10.156  35.801   0.268
73780ION    CL-38600  39.186   9.217  14.325
73781ION    CL-38601  32.017  44.845   1.008
73782ION    CL-38602  14.719  18.379  14.814
73783ION    CL-38603  30.205  15.290   3.028
73784ION    CL-38604  21.207  24.070   4.962
73785ION    CL-38605  28.086  15.921  13.815
73786ION    CL-38606  28.853  15.452   2.061
73787ION    CL-38607  41.886   1.118  14.948
73788ION    CL-38608  24.358   6.979  12.503
73789ION    CL-38609   0.530  40.070   4.101
73790ION    CL-38610  24.639  20.771   0.823
73791ION    CL-38611  23.715  19.000   1.724
73792ION    CL-38612  44.131  42.199  12.969
73793ION    CL-38613  10.853   1.274   4.699
73794ION    CL-38614  26.422  25.553   3.729
73795ION    CL-38615   3.683   0.869  10.687
73796ION    CL-38616   4.962  40.580   2.038
73797ION    CL-38617  15.735  17.615  11.606
73798ION    CL-38618  37.158  20.030  14.279
73799ION    CL-38619  29.452  43.113   4.613
73800ION    CL-38620  37.483  40.450   3.338
73801ION    CL-38621  24.688  31.644   4.289
73802ION    CL-38622  36.537  11.107  12.313
73803ION    CL-38623  40.934  35.742  10.991
73804ION    CL-38624  22.740   3.070   5.086
73805ION    CL-38625  25.488  38.287   1.539
73806ION    CL-38626  23.392  18.165   3.844
73807ION    CL-38627   3.715  41.076   1.354
73808ION    CL-38628  22.277   6.641  12.598
73809ION    CL-38629  27.411   1.409  12.380
73810ION    CL-38630  11.919  39.962  11.910
73811ION    CL-38631  30.552  13.642   3.616
73812ION    CL-38632   2.952  40.780   0.752
73813ION    CL-38633  11.308  40.272  14.406
73814ION    CL-38634   6.578  20.024  14.450
73815ION    CL-38635  10.275  29.890   0.472
73816ION    CL-38636  40.827  39.081  12.124
73817ION    CL-38637   9.097   1.171   0.330
73818ION    CL-38638  22.750  20.212   0.032
73819ION    CL-38639   2.005   9.700   2.186
73820ION    CL-38640  35.552   7.614  14.949
73821ION    CL-38641  14.919  27.044   3.504
73822ION    CL-38642  41.692  40.332  14.954
73823ION    CL-38643  16.919  32.343  13.457
73824ION    CL-38644  36.740   5.859   1.612
73825ION    CL-38645  22.849  22.531   2.690
73826ION    CL-38646  21.149   9.392  12.099
73827ION    CL-38647   7.363  23.837  12.149
73828ION    CL-38648   4.070  17.377  13.255
73829ION    CL-38649   2.878  28.116   2.306
73830ION    CL-38650  39.494  18.339   1.409
73831ION    CL-38651  14.479  23.773  11.915
73832ION    CL-38652  14.704   0.458   0.273
73833ION    CL-38653  10.926  28.543  13.304
73834ION    CL-38654  15.661  39.034   0.100
73835ION    CL-38655  39.949   5.083   4.833
73836ION    CL-38656   8.813   4.117  14.054
73837ION    CL-38657  21.226  35.882  13.520
73838ION    CL-38658   3.421  21.271   2.381
73839ION    CL-38659  23.236  37.496   0.425
73840ION    CL-38660   9.299  38.969  14.336
73841ION    CL-38661  12.591   0.176   0.976
73842ION    CL-38662  14.518  15.075   4.419
73843ION    CL-38663  14.303  32.771   1.485
73844ION    CL-38664  20.214  27.455  11.964
73845ION    CL-38665  41.447  28.458   0.457
73846ION    CL-38666  34.049   1.488  14.539
73847ION    CL-38667   6.845  29.539  14.334
73848ION    CL-38668  24.588  37.306  13.308
73849ION    CL-38669  27.578  44.571   3.197
73850ION    CL-38670  24.741  19.921   0.308
73851ION    CL-38671  39.680  11.734   3.039
73852ION    CL-38672   7.996   9.364  14.972
73853ION    CL-38673  23.965   3.364  14.508
73854ION    CL-38674  28.185  41.462   1.278
73855ION    CL-38675  19.619  22.568   1.370
73856ION    CL-38676  22.570  33.483   5.228
73857ION    CL-38677  22.696  21.289  12.395
73858ION    CL-38678  36.690   1.995  10.221
73859ION    CL-38679  16.651  27.201  14.101
73860ION    CL-38680  44.685  27.791  11.965
73861ION    CL-38681  23.096   2.395   1.822
73862ION    CL-38682   6.109  24.155  10.220
73863ION    CL-38683  27.497  26.340  13.481
73864ION    CL-38684   0.625  17.431  11.633
73865ION    CL-38685   5.939   1.219  11.659
73866ION    CL-38686   0.688  17.226  14.656
73867ION    CL-38687  38.944  15.914   2.510
73868ION    CL-38688  20.538   7.991   0.767
73869ION    CL-38689  25.487  19.752  13.742
73870ION    CL-38690  10.266  23.449   9.857
73871ION    CL-38691  28.028  43.029  10.834
73872ION    CL-38692  32.500   6.467  11.906
73873ION    CL-38693  27.832  21.608  12.171
73874ION    CL-38694  34.930   5.760   1.023
73875ION    CL-38695  13.783  22.305   0.551
73876ION    CL-38696  43.204  26.780   4.013
73877ION    CL-38697  33.415  32.183   3.845
73878ION    CL-38698  34.695  15.158  10.656
73879ION    CL-38699  43.776  29.436  12.117
73880ION    CL-38700  44.372  25.929   1.300
73881ION    CL-38701   5.140  33.909   2.135
73882ION    CL-38702   1.830   5.315   4.106
73883ION    CL-38703   5.029  30.488  12.391
73884ION    CL-38704   3.499  28.286   3.344
73885ION    CL-38705   5.185  35.394  12.825
73886ION    CL-38706  21.524  13.507  13.487
73887ION    CL-38707   7.018  43.920  13.428
73888ION    CL-38708  20.189  36.088  12.136
73889ION    CL-38709   5.576  10.116  10.524
73890ION    CL-38710  12.929  44.884   2.609
73891ION    CL-38711  31.379  27.416  13.905
73892ION    CL-38712  35.118  22.679  14.215
73893ION    CL-38713   3.300   7.922   4.656
73894ION    CL-38714  21.170   5.221   0.758
73895ION    CL-38715  18.188   6.892   0.329
73896ION    CL-38716  19.054  10.206   0.405
73897ION    CL-38717  11.642   8.823  11.586
73898ION    CL-38718  16.854   2.235   4.597
73899ION    CL-38719  38.550  22.967   3.214
73900ION    CL-38720  19.325  29.629   3.223
73901ION    CL-38721  14.349  34.229  14.570
73902ION    CL-38722   5.413  27.363   3.416
73903ION    CL-38723   2.415  21.194  10.734
73904ION    CL-38724  23.140  35.884   2.141
73905ION    CL-38725   1.547   2.016   4.326
73906ION    CL-38726   5.478  36.849  13.360
73907ION    CL-38727  10.175  21.197   3.206
73908ION    CL-38728  23.276  20.821   5.020
73909ION    CL-38729  13.209   9.036   2.329
73910ION    CL-38730  28.438  18.015  11.064
73911ION    CL-38731  30.009  18.959  10.450
73912ION    CL-38732  13.730   6.185   1.829
73913ION    CL-38733  13.834  25.768   4.166
73914ION    CL-38734  30.232  35.742   1.790
73915ION    CL-38735   7.984  13.694   4.788
73916ION    CL-38736  41.141  30.934  14.320
73917ION    CL-38737  28.632  36.112  14.444
73918ION    CL-38738   6.406  12.926   4.795
73919ION    CL-38739  34.563  15.971  12.491
73920ION    CL-38740  17.275  14.261   2.185
73921ION    CL-38741   6.273  35.061  12.114
73922ION    CL-38742   0.203  23.040   2.385
73923ION    CL-38743  25.146   5.883  11.496
73924ION    CL-38744  27.051  35.171   3.073
73925ION    CL-38745   8.707  37.932  14.386
73926ION    CL-38746  21.245  16.591  14.075
73927ION    CL-38747  12.897  38.390  14.433
73928ION    CL-38748  35.378  24.253  11.691
73929ION    CL-38749   4.565   9.345  12.485
73930ION    CL-38750  40.136  27.178  12.665
73931ION    CL-38751  44.701  24.438   0.905
73932ION    CL-38752  10.065  34.271   4.120
73933ION    CL-38753  31.191  17.396  11.640
73934ION    CL-38754  13.099  28.478   3.539
73935ION    CL-38755  38.864   5.846  14.749
73936ION    CL-38756  22.939  40.759   1.515
73937ION    CL-38757  39.025  12.768   1.910
73938ION    CL-38758   4.488  37.809   3.883
73939ION    CL-38759  33.666  29.536   2.263
73940ION    CL-38760  20.203   1.312  10.691
73941ION    CL-38761   0.975  44.099   9.882
73942ION    CL-38762   6.080  19.857  11.905
73943ION    CL-38763   8.040   7.393  11.280
73944ION    CL-38764  40.681  36.847  14.670
73945ION    CL-38765  36.588  22.577  12.373
73946ION    CL-38766   8.751  19.513   0.118
73947ION    CL-38767   1.732  25.528  13.551
73948ION    CL-38768  26.525  44.860   4.881
73949ION    CL-38769  37.414  37.649   4.501
73950ION    CL-38770  33.141  25.828   3.490
73951ION    CL-38771  35.230   4.974  10.012
73952ION    CL-38772  17.678   2.721  12.612
73953ION    CL-38773   1.710  24.003   4.224
73954ION    CL-38774   1.414   1.787   2.914
73955ION    CL-38775   4.927  35.377   3.904
73956ION    CL-38776  44.037  40.330  11.079
73957ION    CL-38777   3.233   5.614   0.897
73958ION    CL-38778   9.863  12.011  13.525
73959ION    CL-38779   1.277  12.787  12.566
73960ION    CL-38780  42.185  43.851   4.181
73961ION    CL-38781  29.745  10.355  12.596
73962ION    CL-38782   0.232   8.163   2.782
73963ION    CL-38783   7.146  42.446  13.986
73964ION    CL-38784  27.991  21.804   3.670
73965ION    CL-38785  18.469  11.754   2.169
73966ION    CL-38786  20.519  36.602  10.045
73967ION    CL-38787  23.301  36.424  13.118
73968ION    CL-38788  26.015  26.686  13.796
73969ION    CL-38789   1.484  31.693  11.119
73970ION    CL-38790  31.716  21.590  13.996
73971ION    CL-38791   5.204  14.137  12.080
73972ION    CL-38792  39.924   1.427   2.674
73973ION    CL-38793  22.886  23.025   3.806
73974ION    CL-38794  41.908  27.729   5.100
73975ION    CL-38795   2.388  27.002  10.640
73976ION    CL-38796  14.455  14.753  11.888
73977ION    CL-38797  12.275  21.506   0.805
73978ION    CL-38798   2.635  21.902  12.834
73979ION    CL-38799  21.815  37.134  10.354
73980ION    CL-38800  21.548  37.926   3.304
73981ION    CL-38801   1.156  22.369   4.976
73982ION    CL-38802  44.377  41.330  11.155
73983ION    CL-38803  32.638  14.682   3.905
73984ION    CL-38804  36.903  31.550   4.838
73985ION    CL-38805  32.110  12.064   1.379
73986ION    CL-38806   7.917  33.705   2.953
73987ION    CL-38807   9.899  23.651   3.105
73988ION    CL-38808  34.053   1.072  11.777
73989ION    CL-38809  23.124  22.177   1.223
73990ION    CL-38810  30.482  42.070  14.302
73991ION    CL-38811   6.299  43.306  14.917
73992ION    CL-38812  38.146  21.171  12.266
73993ION    CL-38813   6.720  39.322   1.561
73994ION    CL-38814  40.233  30.280   1.631
73995ION    CL-38815  43.236  26.717   2.952
73996ION    CL-38816  37.650  16.699  13.072
73997ION    CL-38817  24.512  31.552   1.176
73998ION    CL-38818  13.892  33.882   4.865
73999ION    CL-38819  14.043   6.309  13.545
74000ION    CL-38820  41.554  26.124  11.052
74001ION    CL-38821  40.838  15.252  12.027
74002ION    CL-38822   8.110  36.183  10.653
74003ION    CL-38823   8.435  32.708   4.877
74004ION    CL-38824   8.279  10.590  12.186
74005ION    CL-38825  27.685  24.549  13.816
74006ION    CL-38826   5.400  19.277   2.721
74007ION    CL-38827   5.184   9.931  12.168
74008ION    CL-38828  33.157  36.146   4.656
74009ION    CL-38829  13.824  27.148   3.977
74010ION    CL-38830   4.478  38.601  14.949
74011ION    CL-38831  19.562   8.695   2.484
74012ION    CL-38832   4.040  40.076   2.930
74013ION    CL-38833  19.998  35.003   1.679
74014ION    CL-38834  28.617   9.947  14.760
74015ION    CL-38835   5.955  20.531   4.164
74016ION    CL-38836   5.171  36.173  11.153
74017ION    CL-38837  43.768  27.910  11.584
74018ION    CL-38838   0.257  42.611  11.668
74019ION    CL-38839  27.168  16.863  13.787
74020ION    CL-38840  20.671  40.922  13.178
74021ION    CL-38841  36.527  30.596  13.022
74022ION    CL-38842  15.841  14.300  14.897
74023ION    CL-38843  41.253  18.866   1.623
74024ION    CL-38844  37.855  20.030  14.996
74025ION    CL-38845  23.140  30.728  14.025
74026ION    CL-38846  31.585  35.191   0.716
74027ION    CL-38847  21.244  34.433   1.343
74028ION    CL-38848  25.819   1.280  11.075
74029ION    CL-38849   9.487   6.624  12.544
74030ION    CL-38850  17.287  28.729   0.368
74031ION    CL-38851  17.834  12.643  12.582
74032ION    CL-38852   2.966  19.850  14.374
74033ION    CL-38853   4.705  23.147  12.960
74034ION    CL-38854  37.789  37.206  14.979
74035ION    CL-38855  44.758  22.295  12.002
74036ION    CL-38856  39.527  21.084   0.679
74037ION    CL-38857  36.481  33.103  13.471
74038ION    CL-38858  21.290  39.394   5.002
74039ION    CL-38859  11.424   8.294   4.990
74040ION    CL-38860  25.601  36.902   3.737
74041ION    CL-38861  43.808  18.559  10.257
74042ION    CL-38862  31.987  40.078  13.089
74043ION    CL-38863   9.806  21.528  11.702
74044ION    CL-38864  33.576   8.612  12.486
74045ION    CL-38865  43.875  35.258   4.990
74046ION    CL-38866  39.839   7.113   4.960
74047ION    CL-38867  40.613  41.023  12.595
74048ION    CL-38868  32.777  15.709  14.475
74049ION    CL-38869  19.212  26.467   0.897
74050ION    CL-38870  20.714   7.580   1.761
74051ION    CL-38871   6.951  36.031  14.958
74052ION    CL-38872  25.599  25.816  12.001
74053ION    CL-38873   3.208  12.101   4.169
74054ION    CL-38874  39.213  32.063   4.170
74055ION    CL-38875   3.766  16.246  14.626
74056ION    CL-38876  32.638  19.109   1.498
74057ION    CL-38877   5.094  32.716   2.706
74058ION    CL-38878  39.216  33.739  13.313
74059ION    CL-38879  14.631  13.916  12.218
74060ION    CL-38880  11.983  19.179  10.788
74061ION    CL-38881  27.480   3.120   2.673
74062ION    CL-38882  27.225  27.944  11.583
74063ION    CL-38883   8.451  24.697  13.889
74064ION    CL-38884   8.777  22.319   0.704
74065ION    CL-38885  29.272  32.235   2.804
74066ION    CL-38886   1.385  35.257  11.553
74067ION    CL-38887  29.645  34.356   2.853
74068ION    CL-38888  37.265   0.020   1.532
74069ION    CL-38889  11.173  38.925   0.750
74070ION    CL-38890  10.693  18.012   4.577
74071ION    CL-38891  27.721  25.237  13.091
74072ION    CL-38892   5.293  29.497   4.605
74073ION    CL-38893  10.102  29.591   2.842
74074ION    CL-38894  36.880  28.659   3.040
74075ION    CL-38895  12.255   2.227  11.561
74076ION    CL-38896  29.003   8.753  14.574
74077ION    CL-38897  43.119   8.694   9.795
74078ION    CL-38898   8.261   8.104   5.070
74079ION    CL-38899  12.549  30.418  13.581
74080ION    CL-38900  31.434  36.836   3.326
74081ION    CL-38901  35.360  40.740  10.459
74082ION    CL-38902  22.388   1.409  11.253
74083ION    CL-38903   9.165  30.771  13.540
74084ION    CL-38904  33.106  19.732   9.984
74085ION    CL-38905  20.820  28.605  10.343
  45.00000  45.00000  15.00000
